Title
43125
    1CHL1    C3    1   3.708   5.337   6.752  1.0637 -0.0907 -0.3960
    1CHL1    H3    2   3.613   5.337   6.695 -0.3045  0.5672  1.7440
    1CHL1    O3    3   3.687   5.386   6.886  0.7108 -0.1028  0.7921
    1CHL1   H3'    4   3.772   5.373   6.929  1.2740 -0.6739 -0.4674
    1CHL1    C4    5   3.762   5.192   6.757 -0.2373  0.4883 -0.0419
    1CHL1   H4A    6   3.858   5.191   6.813  1.8401 -0.2732 -3.3589
    1CHL1   H4B    7   3.683   5.131   6.805 -0.8155  0.5569 -0.8772
    1CHL1    C5    8   3.790   5.147   6.614 -0.2040  0.2618 -0.0408
    1CHL1    C6    9   3.736   5.043   6.555  0.7998 -0.5523 -0.3080
    1CHL1    H6   10   3.679   4.976   6.621 -0.2021 -0.0272 -0.6330
    1CHL1    C7   11   3.758   4.995   6.419 -0.3116  0.1045 -0.0257
    1CHL1   H7A   12   3.761   4.885   6.409  1.1438  0.2346 -1.4936
    1CHL1   H7B   13   3.657   5.015   6.378 -0.9964  2.2020  2.3740
    1CHL1    C8   14   3.872   5.063   6.339 -0.3045 -0.2332 -0.0398
    1CHL1    H8   15   3.973   5.026   6.365  0.5274  0.6091 -1.8393
    1CHL1   C14   16   3.849   5.047   6.187  0.0203 -0.0694 -0.0079
    1CHL1   H14   17   3.741   5.069   6.173 -0.9287 -2.0431  3.0418
    1CHL1   C15   18   3.846   4.903   6.132  0.3665  0.6587  0.8152
    1CHL1  H15A   19   3.929   4.840   6.170 -0.9285 -1.0717  0.9490
    1CHL1  H15B   20   3.751   4.855   6.166 -0.8223  2.8483  0.7523
    1CHL1   C16   21   3.860   4.915   5.978 -0.6801  0.3176  0.9509
    1CHL1  H16A   22   3.938   4.846   5.940 -0.7908  0.9931 -0.5913
    1CHL1  H16B   23   3.765   4.896   5.924 -0.6689 -0.9877  1.3640
    1CHL1   C17   24   3.905   5.069   5.951 -0.3930  0.0246 -0.4599
    1CHL1   H17   25   3.810   5.123   5.929  0.4839  1.0283 -1.9031
    1CHL1   C13   26   3.945   5.120   6.095 -0.0491 -0.1598 -0.5484
    1CHL1   C18   27   4.093   5.070   6.125  0.3568 -0.1075  0.5679
    1CHL1  H18A   28   4.125   5.092   6.229 -1.7703  0.3682  1.1622
    1CHL1  H18B   29   4.108   4.962   6.105 -0.2063 -0.2089  0.6871
    1CHL1  H18C   30   4.163   5.128   6.061 -0.4664  1.4490  1.0195
    1CHL1   C12   31   3.939   5.276   6.130 -0.5035 -0.0118  0.3667
    1CHL1  H12A   32   4.024   5.330   6.084 -0.3256 -1.4793 -1.1215
    1CHL1  H12B   33   3.843   5.317   6.092  0.2247  0.8450 -0.6056
    1CHL1   C11   34   3.954   5.298   6.280 -0.2789 -0.1437 -0.0922
    1CHL1  H11A   35   4.062   5.284   6.302 -0.1956  1.7782  0.9423
    1CHL1  H11B   36   3.946   5.402   6.318  0.1225 -0.0257 -0.3253
    1CHL1    C9   37   3.861   5.208   6.370  0.0919 -0.1758 -0.2626
    1CHL1    H9   38   3.757   5.239   6.343 -0.0524 -0.9184 -0.5952
    1CHL1   C10   39   3.881   5.240   6.525  0.0944  0.3195  0.5616
    1CHL1   C19   40   4.026   5.224   6.568 -0.9092  0.5819 -0.5520
    1CHL1  H19A   41   4.067   5.124   6.542  2.0436  1.4003  0.5811
    1CHL1  H19B   42   4.088   5.296   6.511  1.0869  0.3229  1.1950
    1CHL1  H19C   43   4.044   5.249   6.675  0.6293  0.1787 -0.6931
    1CHL1    C1   44   3.846   5.388   6.548  0.2078 -0.6079  0.2017
    1CHL1   H1A   45   3.926   5.455   6.509  1.2409 -2.8426 -1.7610
    1CHL1   H1B   46   3.757   5.407   6.485  0.3533 -0.7970 -0.0609
    1CHL1    C2   47   3.814   5.425   6.686  0.3664 -0.1774  0.0482
    1CHL1   H2A   48   3.779   5.530   6.677  1.7092  0.1168 -2.7965
    1CHL1   H2B   49   3.908   5.424   6.745  1.1562 -0.6889 -1.2049
    1CHL1   C20   50   3.997   5.096   5.829  0.0990  0.3738 -0.0944
    1CHL1   H20   51   4.089   5.038   5.854 -0.6656 -0.0554  1.9005
    1CHL1   C21   52   4.018   5.247   5.805  0.1838 -0.4929 -0.8293
    1CHL1  H21A   53   4.069   5.266   5.708 -0.4705  1.7328 -0.7807
    1CHL1  H21B   54   4.078   5.292   5.886  1.0903 -1.8353 -0.7196
    1CHL1  H21C   55   3.914   5.287   5.797  0.5837  0.9481  0.7113
    1CHL1   C22   56   3.935   5.044   5.698  0.3517 -0.2920  0.2942
    1CHL1  H22A   57   3.892   4.944   5.720  0.1138  0.0075  1.2170
    1CHL1  H22B   58   3.858   5.116   5.665 -0.4478 -0.9859  0.6056
    1CHL1   C23   59   4.036   5.028   5.578 -0.7367  0.0015 -0.0309
    1CHL1  H23A   60   4.124   5.093   5.601  0.5825 -2.7950  3.9584
    1CHL1  H23B   61   4.080   4.926   5.575  0.4311  0.4700  0.4789
    1CHL1   C24   62   3.978   5.070   5.441 -0.2544 -0.1106  0.3793
    1CHL1  H24A   63   3.902   4.997   5.405  0.9487 -1.2057 -0.0210
    1CHL1  H24B   64   3.935   5.169   5.465 -1.0206 -0.8408  2.2571
    1CHL1   C25   65   4.069   5.080   5.319  0.3505 -0.1926  0.5320
    1CHL1   H25   66   4.136   5.168   5.330 -0.0866 -0.1076  3.1830
    1CHL1   C26   67   4.158   4.950   5.312  0.3996 -0.2248 -0.2389
    1CHL1  H26A   68   4.233   4.963   5.231 -1.5644  1.2126 -1.9411
    1CHL1  H26B   69   4.209   4.957   5.411  0.3268 -1.4077 -0.1012
    1CHL1  H26C   70   4.092   4.863   5.290 -2.9100  2.2727 -1.0777
    1CHL1   C27   71   3.983   5.102   5.189 -0.3883 -0.5629 -0.0587
    1CHL1  H27A   72   3.916   5.188   5.210  1.3128  1.0506 -0.9494
    1CHL1  H27B   73   4.048   5.129   5.104 -0.4571  0.1991  0.1222
    1CHL1  H27C   74   3.923   5.010   5.167 -0.1753 -0.1799 -2.5474
    2CHL1    C3   75   4.078   4.817   7.181 -0.4514 -0.8213 -0.6127
    2CHL1    H3   76   4.132   4.730   7.222 -1.5263 -1.5990 -0.8083
    2CHL1    O3   77   4.043   4.880   7.308  0.4017  0.4351  0.1186
    2CHL1   H3'   78   3.985   4.953   7.285 -3.1637 -2.2009 -0.1764
    2CHL1    C4   79   4.177   4.901   7.101 -0.0739 -0.3819  0.5818
    2CHL1   H4A   80   4.140   5.003   7.078  0.3324 -0.1041  1.1274
    2CHL1   H4B   81   4.265   4.919   7.166  0.0903 -2.0658  0.8541
    2CHL1    C5   82   4.219   4.833   6.970  0.4399 -0.4104 -0.1651
    2CHL1    C6   83   4.349   4.804   6.944  0.5518  1.0210  0.1445
    2CHL1    H6   84   4.430   4.837   7.010 -0.7357  0.6224  2.0129
    2CHL1    C7   85   4.387   4.735   6.815  0.1723 -0.2203  0.3269
    2CHL1   H7A   86   4.468   4.789   6.763 -1.5363  1.2591 -0.9308
    2CHL1   H7B   87   4.395   4.625   6.828 -2.8118 -0.3839  1.7059
    2CHL1    C8   88   4.279   4.747   6.703  0.1535  0.1869 -0.2603
    2CHL1    H8   89   4.272   4.853   6.670  1.0512  0.0528 -0.9302
    2CHL1   C14   90   4.312   4.664   6.583  0.6288  0.4601  0.4311
    2CHL1   H14   91   4.316   4.560   6.622  0.2681  2.1583  5.8684
    2CHL1   C15   92   4.453   4.689   6.518 -0.4153 -0.1935 -0.5112
    2CHL1  H15A   93   4.468   4.798   6.508 -0.3618 -0.1711 -0.1871
    2CHL1  H15B   94   4.541   4.644   6.568  1.9083 -0.6084 -4.5675
    2CHL1   C16   95   4.430   4.625   6.377 -0.0473 -0.0262 -0.1485
    2CHL1  H16A   96   4.445   4.701   6.298 -0.1782 -0.2896 -0.4324
    2CHL1  H16B   97   4.494   4.536   6.356 -2.5247 -1.7806 -0.8467
    2CHL1   C17   98   4.285   4.574   6.364 -0.6011  0.4247  0.5239
    2CHL1   H17   99   4.282   4.467   6.395  0.0728 -0.2607 -1.6352
    2CHL1   C13  100   4.217   4.660   6.469  0.1073  0.4360  0.0755
    2CHL1   C18  101   4.190   4.800   6.401 -0.3093  0.7896  0.0381
    2CHL1  H18A  102   4.171   4.876   6.480  1.3827  1.0970  0.1659
    2CHL1  H18B  103   4.273   4.841   6.341 -1.3772  1.5705 -0.9488
    2CHL1  H18C  104   4.099   4.788   6.338 -1.1563  2.9341  0.7487
    2CHL1   C12  105   4.086   4.606   6.531 -0.2537 -0.4187  0.4727
    2CHL1  H12A  106   4.008   4.613   6.453  0.8447 -0.8784 -0.6903
    2CHL1  H12B  107   4.094   4.497   6.551  0.1676 -0.6026 -0.6480
    2CHL1   C11  108   4.036   4.691   6.648 -0.3053  0.5278 -0.4062
    2CHL1  H11A  109   4.006   4.784   6.595 -1.3219 -1.2145 -3.0811
    2CHL1  H11B  110   3.943   4.643   6.684 -0.0484 -0.0755 -0.5421
    2CHL1    C9  111   4.143   4.702   6.763  0.3649 -0.0779 -0.0262
    2CHL1    H9  112   4.142   4.599   6.804 -1.8077  0.0563  0.3976
    2CHL1   C10  113   4.098   4.794   6.877 -0.0291 -0.0015 -0.0380
    2CHL1   C19  114   4.045   4.927   6.828  0.6205 -0.6262  1.1654
    2CHL1  H19A  115   4.001   4.990   6.908  0.0843  2.2426 -1.2131
    2CHL1  H19B  116   4.126   4.992   6.789  1.3316 -0.9485  2.0743
    2CHL1  H19C  117   3.965   4.913   6.753 -0.6402 -2.1543  2.6962
    2CHL1    C1  118   3.996   4.709   6.964 -0.1082  0.1355 -0.0302
    2CHL1   H1A  119   3.909   4.683   6.901  0.7491 -1.9054 -0.4528
    2CHL1   H1B  120   4.043   4.614   6.999 -0.1558 -0.1721 -0.7891
    2CHL1    C2  121   3.956   4.774   7.097  0.3540  0.0705 -0.1819
    2CHL1   H2A  122   3.892   4.703   7.154  0.3667 -1.7522 -2.2918
    2CHL1   H2B  123   3.903   4.871   7.088 -0.4650 -0.3640 -0.0760
    2CHL1   C20  124   4.244   4.576   6.216  0.1154  0.0615 -0.6149
    2CHL1   H20  125   4.267   4.674   6.168  0.4542  0.8508  1.0695
    2CHL1   C21  126   4.098   4.535   6.210  0.4009 -0.1336  0.1306
    2CHL1  H21A  127   4.065   4.511   6.106  2.1371 -1.6982 -0.1309
    2CHL1  H21B  128   4.038   4.617   6.254  1.2711  0.8138 -0.3955
    2CHL1  H21C  129   4.088   4.446   6.275 -2.8607  1.1824  1.6406
    2CHL1   C22  130   4.328   4.471   6.140 -0.2640 -0.2804  0.0241
    2CHL1  H22A  131   4.437   4.489   6.153 -0.2640 -1.8497  3.1375
    2CHL1  H22B  132   4.295   4.375   6.185 -1.6366 -0.4741 -1.3264
    2CHL1   C23  133   4.306   4.459   5.990 -0.5378 -0.8724 -0.5213
    2CHL1  H23A  134   4.371   4.375   5.959  0.8205 -1.8635  4.2627
    2CHL1  H23B  135   4.199   4.433   5.977 -0.6221 -0.3947 -0.8167
    2CHL1   C24  136   4.356   4.590   5.918 -0.9813  0.3106  0.2419
    2CHL1  H24A  137   4.293   4.677   5.945 -1.3012  0.0785  0.2507
    2CHL1  H24B  138   4.465   4.601   5.936 -0.5247 -1.6852 -0.9502
    2CHL1   C25  139   4.335   4.573   5.767 -0.1201 -0.3151 -0.4952
    2CHL1   H25  140   4.316   4.468   5.736  1.3148 -1.3926  1.9139
    2CHL1   C26  141   4.204   4.640   5.731  0.3534 -0.1894  0.5714
    2CHL1  H26A  142   4.114   4.611   5.789  0.3243 -0.9274  0.1759
    2CHL1  H26B  143   4.232   4.747   5.732  0.9410 -0.3121 -0.7789
    2CHL1  H26C  144   4.183   4.608   5.627 -1.8145  1.0422  0.5900
    2CHL1   C27  145   4.459   4.620   5.689 -0.1267  0.1020 -0.0805
    2CHL1  H27A  146   4.443   4.627   5.579  0.7296  1.4066 -0.1470
    2CHL1  H27B  147   4.496   4.720   5.721  2.5041 -0.6025 -0.6686
    2CHL1  H27C  148   4.545   4.550   5.696 -0.5606 -0.6535 -1.7508
    3CHL1    C3  149   4.656   3.554   6.790 -0.2814 -0.1439 -0.5365
    3CHL1    H3  150   4.703   3.654   6.800  0.5548 -0.3876 -1.9063
    3CHL1    O3  151   4.602   3.513   6.913 -0.0951  0.1626  0.4799
    3CHL1   H3'  152   4.612   3.418   6.922 -1.6239  0.0230  0.8703
    3CHL1    C4  153   4.538   3.570   6.694 -0.4262 -0.6129  0.1693
    3CHL1   H4A  154   4.484   3.473   6.701 -0.6785 -0.5615 -0.8198
    3CHL1   H4B  155   4.466   3.644   6.735  0.1226 -0.5014  0.9542
    3CHL1    C5  156   4.577   3.595   6.550  0.2739  0.2710  0.0158
    3CHL1    C6  157   4.532   3.694   6.476  0.7533 -0.5334 -0.1298
    3CHL1    H6  158   4.442   3.745   6.515 -0.8819 -3.1825 -0.1703
    3CHL1    C7  159   4.559   3.724   6.333 -0.4610 -0.2083 -0.2360
    3CHL1   H7A  160   4.470   3.760   6.276 -0.2232  0.4076 -0.2278
    3CHL1   H7B  161   4.633   3.807   6.327 -1.5783  0.8756  0.4314
    3CHL1    C8  162   4.622   3.602   6.263  0.4673 -0.5652  0.0476
    3CHL1    H8  163   4.538   3.530   6.251 -1.5772  1.4903  1.3815
    3CHL1   C14  164   4.678   3.634   6.124 -0.9756 -0.5600 -0.5859
    3CHL1   H14  165   4.759   3.709   6.135  1.4781 -3.1917  0.6939
    3CHL1   C15  166   4.579   3.680   6.014  0.0752 -0.2481  0.2365
    3CHL1  H15A  167   4.485   3.621   6.013 -0.4064  0.4304  1.9264
    3CHL1  H15B  168   4.551   3.787   6.030  2.6547  0.4677  0.2881
    3CHL1   C16  169   4.654   3.672   5.883  1.1081  0.0324  0.0783
    3CHL1  H16A  170   4.583   3.629   5.810  1.3091 -5.0033  2.3871
    3CHL1  H16B  171   4.700   3.765   5.845 -1.2875  1.4178  0.3779
    3CHL1   C17  172   4.764   3.575   5.908 -0.3304  0.6552 -0.2410
    3CHL1   H17  173   4.858   3.635   5.910  0.7099 -0.3679 -5.0358
    3CHL1   C13  174   4.752   3.516   6.052  0.1134  0.6650 -0.6198
    3CHL1   C18  175   4.641   3.402   6.041  0.0564 -1.4492 -0.3471
    3CHL1  H18A  176   4.611   3.358   6.138 -0.2725 -0.8320 -0.1574
    3CHL1  H18B  177   4.542   3.431   5.998 -0.4007 -0.3931  1.2954
    3CHL1  H18C  178   4.692   3.318   5.991 -1.0824 -1.5138 -1.4630
    3CHL1   C12  179   4.875   3.475   6.137  0.2687 -0.3429  0.1204
    3CHL1  H12A  180   4.929   3.386   6.098  1.2385  0.6851 -0.9664
    3CHL1  H12B  181   4.947   3.558   6.126  2.4556 -2.0797  0.5348
    3CHL1   C11  182   4.840   3.446   6.276 -0.7502 -0.5637 -0.1690
    3CHL1  H11A  183   4.801   3.343   6.268  1.0946 -1.1910 -1.5680
    3CHL1  H11B  184   4.935   3.441   6.334  0.0384  0.8459 -1.2822
    3CHL1    C9  185   4.736   3.542   6.351 -0.2749  0.9022 -0.1823
    3CHL1    H9  186   4.795   3.634   6.372  0.6418  0.0527  1.0620
    3CHL1   C10  187   4.684   3.496   6.491 -0.7368  0.6291  0.1359
    3CHL1   C19  188   4.626   3.352   6.468 -0.3651  0.7454 -0.3141
    3CHL1  H19A  189   4.700   3.281   6.424 -0.2822  1.6972 -1.7635
    3CHL1  H19B  190   4.605   3.312   6.570  0.7891  0.5314 -0.1510
    3CHL1  H19C  191   4.538   3.348   6.400 -1.5004 -1.1593  1.1487
    3CHL1    C1  192   4.800   3.484   6.590  0.0010  0.1967 -0.3882
    3CHL1   H1A  193   4.864   3.403   6.550 -1.8841 -3.0282  2.5303
    3CHL1   H1B  194   4.857   3.579   6.586 -1.4512  1.2254  1.4732
    3CHL1    C2  195   4.770   3.457   6.742 -0.3863 -0.4492 -0.0473
    3CHL1   H2A  196   4.864   3.459   6.801 -0.6016 -2.3281  0.4246
    3CHL1   H2B  197   4.724   3.357   6.758  2.1283 -1.8528 -1.0071
    3CHL1   C20  198   4.797   3.475   5.790  0.0004 -0.0267  0.2654
    3CHL1   H20  199   4.704   3.419   5.766 -0.0984  0.3272 -0.1772
    3CHL1   C21  200   4.910   3.382   5.831 -0.1860 -0.2514 -0.4207
    3CHL1  H21A  201   4.961   3.321   5.753  1.0290 -0.6627  0.6542
    3CHL1  H21B  202   4.880   3.316   5.915  0.2204  3.3214  2.7698
    3CHL1  H21C  203   4.997   3.440   5.868  1.0903 -1.3158 -1.5924
    3CHL1   C22  204   4.838   3.552   5.665  0.0292  0.0743  0.0391
    3CHL1  H22A  205   4.780   3.646   5.653  1.4353  0.7081 -2.5143
    3CHL1  H22B  206   4.947   3.575   5.665  0.3099 -0.6901  3.4996
    3CHL1   C23  207   4.817   3.462   5.537 -0.1938 -0.3469 -0.2226
    3CHL1  H23A  208   4.894   3.383   5.523 -0.5168 -0.6255 -0.4443
    3CHL1  H23B  209   4.721   3.407   5.546 -0.2689 -0.3982 -1.2296
    3CHL1   C24  210   4.811   3.544   5.416 -0.4526 -0.3690 -1.0948
    3CHL1  H24A  211   4.719   3.605   5.418  0.0929  0.4700 -1.0254
    3CHL1  H24B  212   4.903   3.606   5.402 -0.0930 -0.8339 -0.8330
    3CHL1   C25  213   4.807   3.456   5.289  0.0743  0.4329 -0.4690
    3CHL1   H25  214   4.715   3.393   5.292 -0.1547  0.7721 -0.3550
    3CHL1   C26  215   4.772   3.546   5.167  0.3535 -0.1856  0.1575
    3CHL1  H26A  216   4.785   3.491   5.071  1.4784  0.6910 -0.2046
    3CHL1  H26B  217   4.667   3.571   5.191  0.2942 -1.6686  1.7100
    3CHL1  H26C  218   4.833   3.638   5.168 -1.3485  1.0798 -2.6922
    3CHL1   C27  219   4.937   3.376   5.260 -0.0715  0.2244 -0.1458
    3CHL1  H27A  220   5.026   3.442   5.249 -0.4468  0.5361 -1.4602
    3CHL1  H27B  221   4.959   3.301   5.339 -0.1489 -1.6531 -1.8358
    3CHL1  H27C  222   4.924   3.324   5.163  1.4166 -0.1063 -0.1969
    4CHL1    C3  223   3.335   5.135   6.622  0.1355  0.2179  1.2904
    4CHL1    H3  224   3.444   5.149   6.604 -0.2088  0.5337 -0.7570
    4CHL1    O3  225   3.298   5.160   6.754  0.0047 -0.1328  0.1124
    4CHL1   H3'  226   3.363   5.110   6.804  0.6881  0.1071 -0.5215
    4CHL1    C4  227   3.256   5.234   6.526  0.2681  0.7508  0.2455
    4CHL1   H4A  228   3.146   5.215   6.534  0.1996  1.6502  1.8522
    4CHL1   H4B  229   3.267   5.336   6.569  0.0752  0.1543  1.7737
    4CHL1    C5  230   3.304   5.215   6.384 -0.6969 -0.2327 -0.6862
    4CHL1    C6  231   3.359   5.313   6.308 -0.3711  0.4147  0.7608
    4CHL1    H6  232   3.357   5.409   6.362 -1.4905 -0.2447  1.9362
    4CHL1    C7  233   3.408   5.302   6.165 -0.0278  0.4546  0.6325
    4CHL1   H7A  234   3.369   5.380   6.095  0.9756  1.0412  0.7130
    4CHL1   H7B  235   3.519   5.307   6.169 -0.0163  0.6194  0.1400
    4CHL1    C8  236   3.353   5.173   6.100 -0.1261 -0.6705  0.2617
    4CHL1    H8  237   3.250   5.183   6.060  1.0018  1.0557 -2.5790
    4CHL1   C14  238   3.439   5.146   5.975  0.4731  0.2227  0.0614
    4CHL1   H14  239   3.547   5.147   5.999  1.3758  2.2021 -3.4968
    4CHL1   C15  240   3.438   5.247   5.869  0.0417  0.1211 -0.5053
    4CHL1  H15A  241   3.336   5.288   5.852 -0.5485 -0.7826  0.7491
    4CHL1  H15B  242   3.506   5.331   5.897  0.6424 -0.7451  0.7087
    4CHL1   C16  243   3.480   5.172   5.741  0.1257  0.8321  0.3179
    4CHL1  H16A  244   3.411   5.179   5.655 -1.1807 -1.2543  1.1169
    4CHL1  H16B  245   3.579   5.199   5.698 -0.3438  0.6220 -0.9299
    4CHL1   C17  246   3.506   5.027   5.792  0.5840  0.1971  0.0454
    4CHL1   H17  247   3.610   5.024   5.830  1.4622 -1.6553 -2.2599
    4CHL1   C13  248   3.413   5.007   5.904  0.5241 -0.2871 -0.9714
    4CHL1   C18  249   3.269   4.994   5.845 -0.2266 -0.0700 -0.1141
    4CHL1  H18A  250   3.190   5.016   5.919 -0.4850 -0.0465 -0.3948
    4CHL1  H18B  251   3.260   5.063   5.758 -0.4923  0.2023  0.1291
    4CHL1  H18C  252   3.249   4.892   5.807  0.7819 -1.0347  1.8243
    4CHL1   C12  253   3.440   4.897   6.013  0.2801 -1.0708 -0.4084
    4CHL1  H12A  254   3.419   4.791   5.986 -1.2982 -2.1955  4.2388
    4CHL1  H12B  255   3.547   4.886   6.043 -0.4490 -2.2823  1.9896
    4CHL1   C11  256   3.340   4.921   6.128 -0.1732  0.3673 -0.1773
    4CHL1  H11A  257   3.238   4.902   6.089  0.4981 -1.1282 -1.3240
    4CHL1  H11B  258   3.363   4.842   6.203 -0.6190  0.9915  0.6238
    4CHL1    C9  259   3.368   5.055   6.197 -0.0131 -0.4337  0.2387
    4CHL1    H9  260   3.476   5.059   6.226  0.4161  1.4909 -1.4523
    4CHL1   C10  261   3.292   5.073   6.336  0.4960  0.0303 -0.4153
    4CHL1   C19  262   3.140   5.036   6.314  0.7959  0.4602  0.4546
    4CHL1  H19A  263   3.136   4.938   6.262 -0.2641  1.0502 -0.6369
    4CHL1  H19B  264   3.074   5.032   6.403 -4.3378 -0.7052 -2.9265
    4CHL1  H19C  265   3.089   5.105   6.243  1.6245  2.5259  1.7792
    4CHL1    C1  266   3.344   4.969   6.439 -0.4929 -0.4019 -0.2919
    4CHL1   H1A  267   3.310   4.870   6.401 -0.1404 -0.4365 -0.5278
    4CHL1   H1B  268   3.455   4.970   6.442 -0.4886  1.9274  1.4247
    4CHL1    C2  269   3.290   4.995   6.587  0.1038  0.0356 -0.0210
    4CHL1   H2A  270   3.339   4.919   6.651  2.0289 -0.4436 -1.9263
    4CHL1   H2B  271   3.179   4.994   6.586  0.0471  2.2005  0.4454
    4CHL1   C20  272   3.499   4.927   5.676  0.4393  0.3443  0.2250
    4CHL1   H20  273   3.404   4.940   5.622  1.4529  0.0014 -1.7231
    4CHL1   C21  274   3.514   4.783   5.733 -0.4143  0.7709  0.3825
    4CHL1  H21A  275   3.538   4.716   5.648 -1.7062  1.7484 -0.7815
    4CHL1  H21B  276   3.414   4.751   5.767 -1.7328 -0.7825 -4.2390
    4CHL1  H21C  277   3.597   4.778   5.807 -1.0201  1.6442  1.1390
    4CHL1   C22  278   3.598   4.947   5.562 -0.1851  0.2513 -0.4928
    4CHL1  H22A  279   3.618   5.055   5.540 -3.5434  1.0871  0.0301
    4CHL1  H22B  280   3.694   4.896   5.587  0.8512  1.1617 -2.3845
    4CHL1   C23  281   3.539   4.888   5.430  0.8725 -0.3601 -0.4304
    4CHL1  H23A  282   3.539   4.778   5.441 -1.3641 -0.3560 -0.0573
    4CHL1  H23B  283   3.434   4.919   5.414  0.9859  1.8021  2.3223
    4CHL1   C24  284   3.612   4.931   5.306 -0.4635 -0.4216  0.2602
    4CHL1  H24A  285   3.613   5.041   5.296  0.2736 -0.6018 -2.6376
    4CHL1  H24B  286   3.718   4.907   5.331 -0.7266  1.5547  3.9265
    4CHL1   C25  287   3.573   4.854   5.176  0.2830  1.1256 -0.6290
    4CHL1   H25  288   3.584   4.746   5.203  0.4401  1.2847 -0.0404
    4CHL1   C26  289   3.427   4.872   5.140  0.2721 -0.1251  0.2806
    4CHL1  H26A  290   3.350   4.863   5.219 -0.5183 -0.2524 -0.4824
    4CHL1  H26B  291   3.409   4.971   5.092  0.6263 -0.5247 -0.7067
    4CHL1  H26C  292   3.379   4.798   5.072  0.2894 -1.7198  1.9392
    4CHL1   C27  293   3.673   4.873   5.065 -0.1002 -0.1686  0.2932
    4CHL1  H27A  294   3.647   4.807   4.980 -0.3068  1.1753 -0.7194
    4CHL1  H27B  295   3.681   4.979   5.034  1.2405  0.0613  1.3096
    4CHL1  H27C  296   3.776   4.845   5.097  1.3956  3.3671 -0.9616
    5CHL1    C3  297   2.236   6.950   6.156  0.3122  0.2860 -0.9965
    5CHL1    H3  298   2.201   7.053   6.131  0.1459  1.3302  2.8624
    5CHL1    O3  299   2.201   6.925   6.290 -0.0121  0.0695 -0.3228
    5CHL1   H3'  300   2.240   6.838   6.301  0.4602  0.0628 -1.8100
    5CHL1    C4  301   2.175   6.842   6.064  0.3989 -0.2160 -0.0686
    5CHL1   H4A  302   2.211   6.743   6.099 -2.4512 -1.4934 -0.4936
    5CHL1   H4B  303   2.067   6.836   6.089  0.4859  2.0060  1.0567
    5CHL1    C5  304   2.212   6.871   5.919  0.6293 -0.0444  0.5284
    5CHL1    C6  305   2.114   6.904   5.834 -0.3069  0.0833  0.3680
    5CHL1    H6  306   2.008   6.894   5.863 -0.1093 -0.8166  0.8226
    5CHL1    C7  307   2.148   6.929   5.686 -0.1961  0.0021 -0.7735
    5CHL1   H7A  308   2.091   6.872   5.609 -1.3628  1.0183 -0.6912
    5CHL1   H7B  309   2.136   7.035   5.656  0.3910 -0.6288 -3.5006
    5CHL1    C8  310   2.294   6.890   5.650 -0.7127  0.2936 -0.1776
    5CHL1    H8  311   2.299   6.779   5.652 -0.6595  0.2422  3.2977
    5CHL1   C14  312   2.322   6.950   5.512  0.1575  0.8153 -0.3812
    5CHL1   H14  313   2.308   7.060   5.526  1.6409  1.0800 -0.8525
    5CHL1   C15  314   2.228   6.911   5.396  0.4643 -0.3540  0.4985
    5CHL1  H15A  315   2.206   6.802   5.398 -0.2319 -0.2542 -0.5996
    5CHL1  H15B  316   2.125   6.954   5.392  0.6395  0.0393  0.0957
    5CHL1   C16  317   2.303   6.946   5.275 -0.3841  0.0704  0.4950
    5CHL1  H16A  318   2.297   6.856   5.210 -0.1234  1.1682 -1.0863
    5CHL1  H16B  319   2.265   7.029   5.212  1.9586  0.2101 -0.8577
    5CHL1   C17  320   2.452   6.972   5.315 -0.0398  0.2422  0.9080
    5CHL1   H17  321   2.459   7.083   5.323  0.0615  0.3207 -0.0783
    5CHL1   C13  322   2.466   6.927   5.463  0.2616 -0.3097  0.0227
    5CHL1   C18  323   2.497   6.776   5.455 -0.2490 -0.1999  0.3885
    5CHL1  H18A  324   2.428   6.719   5.388 -1.1287  1.4920 -0.2249
    5CHL1  H18B  325   2.602   6.768   5.420 -0.7573 -2.0207 -0.9111
    5CHL1  H18C  326   2.488   6.726   5.554  2.1060 -1.1768  0.1707
    5CHL1   C12  327   2.559   7.003   5.560  0.1962 -0.4079  0.6078
    5CHL1  H12A  328   2.667   7.006   5.534  0.1850 -0.3084  0.5710
    5CHL1  H12B  329   2.522   7.108   5.547 -1.0486 -0.8963 -0.0054
    5CHL1   C11  330   2.535   6.949   5.701  0.0530  0.2558 -0.3289
    5CHL1  H11A  331   2.575   6.846   5.690 -1.4006 -0.1492 -2.3174
    5CHL1  H11B  332   2.599   7.020   5.758 -3.1218  1.4373  2.0737
    5CHL1    C9  333   2.391   6.948   5.754  0.1874  0.8521 -0.0086
    5CHL1    H9  334   2.352   7.052   5.763 -1.9155  0.1603 -0.6382
    5CHL1   C10  335   2.363   6.882   5.889 -0.0782 -0.4358 -0.2112
    5CHL1   C19  336   2.419   6.743   5.898  0.3229 -0.7562  0.3707
    5CHL1  H19A  337   2.393   6.692   5.993  0.0154 -0.7253  0.3073
    5CHL1  H19B  338   2.383   6.670   5.821 -0.7743 -1.9110  1.8944
    5CHL1  H19C  339   2.529   6.742   5.905  0.3903  0.3125 -0.3723
    5CHL1    C1  340   2.432   6.977   6.000 -0.4313  0.1281 -0.1653
    5CHL1   H1A  341   2.543   6.976   5.989 -0.1645  1.1179  1.9680
    5CHL1   H1B  342   2.395   7.077   5.970 -0.5654 -0.0214 -0.5015
    5CHL1    C2  343   2.394   6.945   6.149 -0.2157 -0.3212  0.4338
    5CHL1   H2A  344   2.428   7.031   6.211 -1.5995  0.8969 -0.4326
    5CHL1   H2B  345   2.428   6.847   6.188 -2.2090 -1.5379 -0.7205
    5CHL1   C20  346   2.560   6.925   5.208  0.8928 -1.2439  0.3913
    5CHL1   H20  347   2.561   6.815   5.194  0.8943 -1.2216  0.2045
    5CHL1   C21  348   2.699   6.968   5.257 -0.2803  0.1574  0.6693
    5CHL1  H21A  349   2.770   6.941   5.175 -1.5089  2.1578 -1.1721
    5CHL1  H21B  350   2.726   6.911   5.348  0.3260 -1.6404 -0.5740
    5CHL1  H21C  351   2.709   7.077   5.278 -0.0926  0.6437 -1.6294
    5CHL1   C22  352   2.519   6.994   5.073 -0.4304  0.1519 -0.1422
    5CHL1  H22A  353   2.420   6.956   5.040 -1.5806 -0.7040  3.7613
    5CHL1  H22B  354   2.518   7.104   5.091  1.1087  0.1979 -0.1882
    5CHL1   C23  355   2.629   6.956   4.964  0.2478  0.1843 -0.0256
    5CHL1  H23A  356   2.730   6.995   4.988 -0.3457 -0.4549  4.3218
    5CHL1  H23B  357   2.640   6.846   4.970 -1.7829 -0.0226  0.8185
    5CHL1   C24  358   2.591   7.002   4.818  0.5401 -0.2502 -0.6111
    5CHL1  H24A  359   2.491   6.955   4.806 -0.0106  0.1445  1.8921
    5CHL1  H24B  360   2.598   7.113   4.826  0.7087 -0.3164  0.1961
    5CHL1   C25  361   2.684   6.944   4.709 -0.1047 -0.0273 -0.1105
    5CHL1   H25  362   2.789   6.970   4.733 -0.2634  3.6661 -2.6261
    5CHL1   C26  363   2.669   6.790   4.704  0.4520 -0.3586  0.2527
    5CHL1  H26A  364   2.702   6.748   4.801 -0.9516  3.1214  2.3866
    5CHL1  H26B  365   2.561   6.766   4.690  0.0948  2.0376 -1.9440
    5CHL1  H26C  366   2.726   6.742   4.621  0.8389 -1.5263  1.1689
    5CHL1   C27  367   2.650   7.002   4.573  0.2876 -0.1817  0.2904
    5CHL1  H27A  368   2.540   6.996   4.559  0.7288 -2.2480 -3.9758
    5CHL1  H27B  369   2.686   7.107   4.584  1.1937 -0.4922  0.3913
    5CHL1  H27C  370   2.705   6.947   4.494  0.4289 -0.3079  0.4766
    6CHL1    C3  371   2.397   4.006   7.122 -0.0178  0.3726 -0.1069
    6CHL1    H3  372   2.300   3.976   7.076 -1.3090  0.0867  2.6013
    6CHL1    O3  373   2.379   3.969   7.256  0.3435 -0.3107  0.3041
    6CHL1   H3'  374   2.461   4.000   7.295  0.6499  0.4613 -0.9032
    6CHL1    C4  375   2.502   3.911   7.060  0.2200 -0.0609 -0.6244
    6CHL1   H4A  376   2.589   3.920   7.129 -0.0222 -1.0044 -0.1806
    6CHL1   H4B  377   2.452   3.812   7.071  0.5859 -0.6266 -3.2330
    6CHL1    C5  378   2.556   3.941   6.920  0.2315 -0.2255 -1.2327
    6CHL1    C6  379   2.561   3.849   6.820 -0.0393  0.9536 -0.2136
    6CHL1    H6  380   2.511   3.752   6.834 -0.0390  0.8678 -0.7574
    6CHL1    C7  381   2.605   3.880   6.679  0.5127 -0.3061 -0.3814
    6CHL1   H7A  382   2.680   3.804   6.649  2.0125  1.4596 -1.2809
    6CHL1   H7B  383   2.526   3.879   6.600  1.0224  0.7097 -0.9245
    6CHL1    C8  384   2.681   4.022   6.667 -0.3592 -0.3411  0.1810
    6CHL1    H8  385   2.783   4.012   6.710  0.1165  0.2731 -0.7536
    6CHL1   C14  386   2.680   4.079   6.523 -0.2956  0.0600  0.3237
    6CHL1   H14  387   2.572   4.099   6.512 -0.2514 -0.6385 -1.7684
    6CHL1   C15  388   2.739   3.984   6.416 -0.0522 -0.1027 -0.7187
    6CHL1  H15A  389   2.831   3.933   6.452  0.0966  0.9798  0.4909
    6CHL1  H15B  390   2.656   3.912   6.401 -0.6398 -0.1964  2.4803
    6CHL1   C16  391   2.760   4.084   6.294 -0.2045  0.0048 -0.4096
    6CHL1  H16A  392   2.865   4.079   6.257 -0.3039 -0.6645 -0.6137
    6CHL1  H16B  393   2.687   4.052   6.217 -0.4945 -1.4590  0.4282
    6CHL1   C17  394   2.726   4.229   6.349  0.7332  0.5999  0.1803
    6CHL1   H17  395   2.616   4.241   6.337  0.2139 -2.2390  1.2820
    6CHL1   C13  396   2.742   4.216   6.504 -0.0529  0.3354  0.4444
    6CHL1   C18  397   2.891   4.211   6.545  0.0329  0.4476 -1.1083
    6CHL1  H18A  398   2.908   4.190   6.652  1.2494 -1.7252 -1.6676
    6CHL1  H18B  399   2.958   4.139   6.492  0.0878 -1.0929  0.9470
    6CHL1  H18C  400   2.922   4.317   6.529 -2.2419  1.4408  0.5114
    6CHL1   C12  401   2.670   4.318   6.595  0.1166 -0.3542 -0.2487
    6CHL1  H12A  402   2.722   4.416   6.596 -0.9082  0.2034 -0.5491
    6CHL1  H12B  403   2.567   4.335   6.560 -0.3553  0.8238  1.5721
    6CHL1   C11  404   2.661   4.267   6.737 -0.0971  0.2801  0.7062
    6CHL1  H11A  405   2.767   4.268   6.771  0.7131  1.4003 -1.5555
    6CHL1  H11B  406   2.611   4.349   6.793 -0.3860  1.9150 -1.7656
    6CHL1    C9  407   2.604   4.127   6.752 -0.4887  0.1848  0.0380
    6CHL1    H9  408   2.503   4.123   6.706  0.0256  1.3675 -1.2809
    6CHL1   C10  409   2.590   4.087   6.905  0.4086  1.3018 -0.5521
    6CHL1   C19  410   2.723   4.099   6.981  0.6399 -0.2106  0.0607
    6CHL1  H19A  411   2.715   4.078   7.089  1.8654 -1.8286 -0.1250
    6CHL1  H19B  412   2.798   4.032   6.934  0.2118  0.6223 -1.9162
    6CHL1  H19C  413   2.769   4.200   6.973  1.4158 -0.6725 -2.0191
    6CHL1    C1  414   2.469   4.175   6.965 -0.2940 -0.3821  0.9455
    6CHL1   H1A  415   2.512   4.278   6.958 -0.9797 -0.1008  0.8285
    6CHL1   H1B  416   2.383   4.167   6.895 -0.9750  1.5650  1.4937
    6CHL1    C2  417   2.429   4.153   7.111 -0.4657  0.4491  0.5088
    6CHL1   H2A  418   2.342   4.221   7.130 -0.5147  0.2101  1.1892
    6CHL1   H2B  419   2.510   4.179   7.182  1.3558  0.4627 -1.4728
    6CHL1   C20  420   2.795   4.336   6.270 -0.4758  0.2280 -0.3059
    6CHL1   H20  421   2.905   4.325   6.283 -0.5169  1.2749  1.0410
    6CHL1   C21  422   2.737   4.472   6.329 -0.8154  0.6803 -0.2719
    6CHL1  H21A  423   2.627   4.460   6.330 -0.4895 -3.9789  1.0161
    6CHL1  H21B  424   2.768   4.555   6.262  2.2249  1.2660  1.6894
    6CHL1  H21C  425   2.779   4.482   6.431  3.6275 -1.2079 -1.6409
    6CHL1   C22  426   2.746   4.340   6.120  0.4336 -0.7112 -0.3779
    6CHL1  H22A  427   2.770   4.241   6.074 -0.9202 -2.4843  2.4729
    6CHL1  H22B  428   2.635   4.348   6.116  0.4752  1.0538  0.9224
    6CHL1   C23  429   2.800   4.450   6.026  0.7297 -0.2445  0.2800
    6CHL1  H23A  430   2.754   4.548   6.052 -0.0596 -1.0720  2.1658
    6CHL1  H23B  431   2.910   4.463   6.036  0.4229  2.5643  0.8176
    6CHL1   C24  432   2.770   4.444   5.876  0.2333 -0.0235 -0.1977
    6CHL1  H24A  433   2.782   4.340   5.839  0.8878  1.1937 -3.7737
    6CHL1  H24B  434   2.665   4.479   5.865 -0.4501 -1.3554  1.5406
    6CHL1   C25  435   2.873   4.525   5.797  0.0548 -0.6383 -0.8550
    6CHL1   H25  436   2.977   4.492   5.821  0.2506  1.2722  1.3099
    6CHL1   C26  437   2.843   4.502   5.648  0.1311 -0.1928  0.0040
    6CHL1  H26A  438   2.926   4.549   5.591 -0.3380  2.3732  1.3057
    6CHL1  H26B  439   2.821   4.395   5.628  0.3880 -0.1745 -0.3934
    6CHL1  H26C  440   2.741   4.545   5.634 -0.6107 -2.0383 -0.6095
    6CHL1   C27  441   2.857   4.682   5.811 -0.5953  0.2257  0.3727
    6CHL1  H27A  442   2.750   4.693   5.785 -0.4263  2.2394  0.4119
    6CHL1  H27B  443   2.871   4.719   5.915  0.2219 -0.1681  0.4077
    6CHL1  H27C  444   2.917   4.733   5.733 -4.6440  1.0048 -2.5039
    7CHL1    C3  445   4.460   2.597   6.557  0.3371  0.2808 -0.5419
    7CHL1    H3  446   4.568   2.621   6.562  0.1060  1.1653  1.2388
    7CHL1    O3  447   4.413   2.527   6.676  0.2361  0.8738  0.4860
    7CHL1   H3'  448   4.335   2.476   6.651 -0.4096  1.2206  1.7026
    7CHL1    C4  449   4.373   2.722   6.536 -0.5115 -0.6031  0.5281
    7CHL1   H4A  450   4.274   2.682   6.564 -0.2967 -1.5692 -0.0207
    7CHL1   H4B  451   4.401   2.798   6.612 -0.9475 -2.7627  2.9973
    7CHL1    C5  452   4.375   2.776   6.391  1.1820 -0.2457 -0.5396
    7CHL1    C6  453   4.389   2.907   6.366  0.7286  0.4795  0.4554
    7CHL1    H6  454   4.397   2.979   6.449 -0.3130 -0.3265  1.2854
    7CHL1    C7  455   4.378   2.972   6.230  0.5641 -0.6598 -0.2587
    7CHL1   H7A  456   4.309   3.059   6.239  1.1965  0.0063 -1.6428
    7CHL1   H7B  457   4.476   3.010   6.196  0.5267 -0.3710 -0.0425
    7CHL1    C8  458   4.327   2.874   6.120  0.7837 -0.3075 -0.0562
    7CHL1    H8  459   4.216   2.872   6.124  0.5790  1.8844 -2.0876
    7CHL1   C14  460   4.359   2.936   5.984  0.2340 -0.3905 -0.5763
    7CHL1   H14  461   4.470   2.935   5.983  0.2702 -0.8909  1.0832
    7CHL1   C15  462   4.331   3.084   5.962 -0.1103 -0.3783  0.2535
    7CHL1  H15A  463   4.230   3.108   6.004  0.6528  0.1321  1.8670
    7CHL1  H15B  464   4.400   3.151   6.017 -1.4129 -1.0570  2.8892
    7CHL1   C16  465   4.337   3.092   5.807  0.1166 -0.0622 -0.0452
    7CHL1  H16A  466   4.238   3.132   5.778  0.0666 -1.4480 -1.9378
    7CHL1  H16B  467   4.399   3.168   5.756 -0.8928  3.3335  3.3156
    7CHL1   C17  468   4.368   2.954   5.751 -0.1748  0.0713  0.0643
    7CHL1   H17  469   4.478   2.941   5.736 -0.1081 -0.5266  0.9885
    7CHL1   C13  470   4.319   2.852   5.862 -0.3129 -0.3410 -0.7326
    7CHL1   C18  471   4.164   2.839   5.859  0.0272  0.2817  0.2104
    7CHL1  H18A  472   4.114   2.938   5.848  0.6196  0.4643 -0.9653
    7CHL1  H18B  473   4.129   2.776   5.775 -2.0662  1.9430 -0.2598
    7CHL1  H18C  474   4.133   2.794   5.956 -0.6839 -0.3338 -0.2993
    7CHL1   C12  475   4.394   2.714   5.883  0.1793 -0.2213 -0.4276
    7CHL1  H12A  476   4.375   2.638   5.805 -0.9309 -1.6183  1.1336
    7CHL1  H12B  477   4.498   2.752   5.880 -0.4040  1.4300 -3.0856
    7CHL1   C11  478   4.358   2.639   6.008  0.7437 -0.3629 -0.6043
    7CHL1  H11A  479   4.250   2.612   6.004  0.5664 -0.0882  1.2853
    7CHL1  H11B  480   4.425   2.551   6.021  0.0549 -0.7915  0.1486
    7CHL1    C9  481   4.382   2.732   6.136  0.0691 -0.5845 -0.5434
    7CHL1    H9  482   4.491   2.753   6.142 -0.3117  1.3073  0.1378
    7CHL1   C10  483   4.348   2.672   6.275 -0.8796  1.0553  0.1362
    7CHL1   C19  484   4.193   2.630   6.277 -0.3507 -0.7564  0.2951
    7CHL1  H19A  485   4.129   2.713   6.240 -0.1667 -0.5108  0.5311
    7CHL1  H19B  486   4.184   2.549   6.200  3.0230  0.2971 -1.4255
    7CHL1  H19C  487   4.161   2.601   6.379 -0.2847  0.2350  0.6058
    7CHL1    C1  488   4.444   2.547   6.295 -0.2330 -0.2214  0.0614
    7CHL1   H1A  489   4.413   2.470   6.221  1.4894 -0.2872 -0.6274
    7CHL1   H1B  490   4.550   2.578   6.285 -0.3741  0.9716  1.7701
    7CHL1    C2  491   4.445   2.494   6.437  0.4013  0.0673  0.5435
    7CHL1   H2A  492   4.526   2.419   6.446  1.1170  0.8585  0.8767
    7CHL1   H2B  493   4.350   2.440   6.453 -1.1714  2.1742 -0.9831
    7CHL1   C20  494   4.301   2.924   5.611 -0.0540  0.9398 -0.5891
    7CHL1   H20  495   4.192   2.917   5.630 -0.0548 -0.3037 -0.9433
    7CHL1   C21  496   4.360   2.792   5.557  0.6476  0.3511 -0.4412
    7CHL1  H21A  497   4.311   2.697   5.588  0.5365  0.1754 -1.1308
    7CHL1  H21B  498   4.467   2.786   5.586 -0.0415 -0.6650  2.1458
    7CHL1  H21C  499   4.349   2.775   5.447  0.4597 -1.6031 -0.1550
    7CHL1   C22  500   4.310   3.045   5.511 -0.7468 -0.1543 -0.6030
    7CHL1  H22A  501   4.259   3.130   5.561 -0.2653  0.4514 -1.1165
    7CHL1  H22B  502   4.416   3.078   5.505 -0.3934 -0.5643  2.1174
    7CHL1   C23  503   4.251   3.038   5.364  0.1952 -0.0422  0.6622
    7CHL1  H23A  504   4.315   2.970   5.304  0.5882  1.2990 -0.4857
    7CHL1  H23B  505   4.147   3.000   5.359  0.1297 -0.0006  1.4793
    7CHL1   C24  506   4.231   3.175   5.303 -0.4625  0.3762 -0.2564
    7CHL1  H24A  507   4.183   3.249   5.371 -0.1362 -0.3374  0.7611
    7CHL1  H24B  508   4.329   3.217   5.269 -1.4514  1.6657 -1.6631
    7CHL1   C25  509   4.146   3.171   5.177 -0.7862  0.2847 -0.0481
    7CHL1   H25  510   4.053   3.120   5.210 -1.4642  0.4614 -1.6007
    7CHL1   C26  511   4.117   3.308   5.122  0.6489 -0.4658 -0.0112
    7CHL1  H26A  512   4.209   3.368   5.108 -1.3471  2.8831  0.1044
    7CHL1  H26B  513   4.057   3.301   5.029 -0.3434 -1.3953  0.6727
    7CHL1  H26C  514   4.059   3.366   5.197  0.4397 -1.4573  0.6011
    7CHL1   C27  515   4.217   3.086   5.069  0.0172  0.3216  0.5632
    7CHL1  H27A  516   4.152   3.063   4.982  1.4643  1.2815 -0.8296
    7CHL1  H27B  517   4.309   3.136   5.032  0.1731  1.2386  2.1013
    7CHL1  H27C  518   4.251   2.985   5.103  0.2767 -0.4638 -1.8641
    8CHL1    C3  519   1.232   6.031   6.302 -0.8412 -0.8020 -0.6713
    8CHL1    H3  520   1.341   6.017   6.291 -0.3178  1.5744  0.8384
    8CHL1    O3  521   1.195   6.003   6.433 -0.4802  0.2907 -0.0280
    8CHL1   H3'  522   1.099   5.999   6.438 -0.4031 -2.1490  3.9630
    8CHL1    C4  523   1.201   6.181   6.288  0.2216 -0.0263  0.6217
    8CHL1   H4A  524   1.091   6.194   6.300  0.5446  1.1532  2.6424
    8CHL1   H4B  525   1.243   6.237   6.374  0.0844 -1.6037  1.7593
    8CHL1    C5  526   1.227   6.239   6.155 -0.4709 -0.5173 -0.6016
    8CHL1    C6  527   1.316   6.340   6.145 -0.2344 -0.3451 -0.1701
    8CHL1    H6  528   1.357   6.385   6.237  0.1188 -1.6532  0.3365
    8CHL1    C7  529   1.367   6.397   6.015 -0.6174 -0.0196  0.1411
    8CHL1   H7A  530   1.369   6.507   6.002  0.0848 -0.1418 -0.9188
    8CHL1   H7B  531   1.472   6.365   5.993  0.2477  2.9790 -0.5237
    8CHL1    C8  532   1.286   6.342   5.896 -0.0329 -0.3930  1.1006
    8CHL1    H8  533   1.188   6.395   5.901 -1.4918 -2.5491 -1.7478
    8CHL1   C14  534   1.351   6.376   5.764  0.3903 -0.0287  0.1897
    8CHL1   H14  535   1.452   6.329   5.762  1.6275  2.4875 -0.9502
    8CHL1   C15  536   1.394   6.524   5.740 -0.2978 -0.1793 -0.2184
    8CHL1  H15A  537   1.328   6.599   5.788  1.2269  0.0634  1.6127
    8CHL1  H15B  538   1.489   6.553   5.790 -0.8340  1.2309  0.0199
    8CHL1   C16  539   1.391   6.542   5.588  0.2507  0.0587  0.0072
    8CHL1  H16A  540   1.306   6.610   5.567 -0.5692 -0.8662  0.2692
    8CHL1  H16B  541   1.485   6.585   5.548  0.6474  0.3656  1.2517
    8CHL1   C17  542   1.358   6.393   5.531 -0.6166 -0.0197  0.3929
    8CHL1   H17  543   1.457   6.344   5.533 -0.8095 -0.8672  5.8298
    8CHL1   C13  544   1.274   6.324   5.641  0.7571  0.3613  0.1228
    8CHL1   C18  545   1.129   6.386   5.637  0.4960  0.9485 -0.2386
    8CHL1  H18A  546   1.141   6.494   5.613 -0.3572  1.0432 -0.2774
    8CHL1  H18B  547   1.060   6.355   5.556  0.7359 -1.9939  0.5754
    8CHL1  H18C  548   1.064   6.372   5.726  1.1636  0.6972  0.2173
    8CHL1   C12  549   1.277   6.170   5.650  0.1774  0.4270  0.0119
    8CHL1  H12A  550   1.238   6.122   5.558 -0.8658  0.1313  0.5883
    8CHL1  H12B  551   1.383   6.141   5.666  0.1817  1.1481  1.4153
    8CHL1   C11  552   1.206   6.127   5.779 -0.3138 -0.1750  1.4447
    8CHL1  H11A  553   1.097   6.140   5.761 -0.4420 -0.2144  2.1648
    8CHL1  H11B  554   1.219   6.017   5.788  1.3448 -0.1020  0.4733
    8CHL1    C9  555   1.258   6.190   5.910  0.7656 -0.2699 -0.4521
    8CHL1    H9  556   1.361   6.151   5.927  1.1914  0.1953 -1.8168
    8CHL1   C10  557   1.172   6.152   6.034 -0.4344  0.4669 -0.2450
    8CHL1   C19  558   1.019   6.191   6.021 -0.0235 -0.1668 -0.1770
    8CHL1  H19A  559   0.990   6.129   5.934  0.5400  0.6868 -0.9867
    8CHL1  H19B  560   0.969   6.156   6.114  0.4182 -2.1075 -0.6385
    8CHL1  H19C  561   1.013   6.298   5.991  2.5624 -0.3044 -1.4173
    8CHL1    C1  562   1.190   6.000   6.057 -0.7887  0.0253  0.0045
    8CHL1   H1A  563   1.124   5.932   5.999 -0.6579 -1.5828  1.6414
    8CHL1   H1B  564   1.296   5.974   6.038 -0.4542  1.9005 -0.8951
    8CHL1    C2  565   1.158   5.952   6.201 -1.0986  0.0655 -0.4026
    8CHL1   H2A  566   1.167   5.843   6.220 -0.5132 -0.0133 -1.0469
    8CHL1   H2B  567   1.058   5.985   6.234 -0.3277  0.7354  1.4159
    8CHL1   C20  568   1.298   6.406   5.394 -0.0117  0.8765 -0.1586
    8CHL1   H20  569   1.201   6.459   5.392 -0.7868 -0.4911 -2.7179
    8CHL1   C21  570   1.262   6.270   5.337 -0.2580 -0.6716 -0.4122
    8CHL1  H21A  571   1.240   6.268   5.228  1.5581 -1.3246 -0.7855
    8CHL1  H21B  572   1.176   6.237   5.399  0.1935 -4.3957 -1.4907
    8CHL1  H21C  573   1.347   6.199   5.346  1.7459  1.3295 -2.3661
    8CHL1   C22  574   1.386   6.495   5.303 -0.3778 -0.3965  0.2124
    8CHL1  H22A  575   1.351   6.598   5.326  0.3375 -0.2188  0.5221
    8CHL1  H22B  576   1.495   6.491   5.324  0.4635  3.8916 -2.1565
    8CHL1   C23  577   1.366   6.477   5.147 -0.0080 -0.9818 -0.5358
    8CHL1  H23A  578   1.417   6.381   5.124  2.1011 -0.6357  2.0862
    8CHL1  H23B  579   1.256   6.472   5.138 -0.2590  1.3232  0.5078
    8CHL1   C24  580   1.420   6.583   5.057  0.4673  1.5600  0.8238
    8CHL1  H24A  581   1.376   6.683   5.079 -1.4812  0.7443  0.7778
    8CHL1  H24B  582   1.530   6.584   5.074  0.8534  1.4950 -1.4045
    8CHL1   C25  583   1.408   6.556   4.904  0.2729  0.3365 -0.9722
    8CHL1   H25  584   1.435   6.651   4.853  3.1546  0.2484  0.1957
    8CHL1   C26  585   1.509   6.447   4.867 -0.1406 -0.3670 -0.3013
    8CHL1  H26A  586   1.482   6.401   4.770 -1.1892  0.4889 -0.4263
    8CHL1  H26B  587   1.613   6.484   4.878  0.2794 -1.8189  0.9912
    8CHL1  H26C  588   1.508   6.366   4.943 -2.7207  1.0073  1.2793
    8CHL1   C27  589   1.261   6.504   4.861 -0.9068 -0.1386 -0.3192
    8CHL1  H27A  590   1.228   6.418   4.923 -2.1105 -0.2180 -1.0272
    8CHL1  H27B  591   1.189   6.585   4.887  0.2058  1.1332 -1.0776
    8CHL1  H27C  592   1.255   6.486   4.751 -0.5152 -1.6825 -0.1163
    9CHL1    C3  593   4.842   2.490   6.374  0.8758  0.0091 -0.0174
    9CHL1    H3  594   4.749   2.549   6.389  0.5544  0.2319 -2.4353
    9CHL1    O3  595   4.900   2.468   6.500 -0.6267  0.3372  0.3400
    9CHL1   H3'  596   4.961   2.396   6.482 -2.3785 -1.2018  0.2922
    9CHL1    C4  597   4.806   2.348   6.313  0.1105 -0.5119  0.4124
    9CHL1   H4A  598   4.896   2.283   6.316  2.6068  2.7167  0.2533
    9CHL1   H4B  599   4.731   2.296   6.376 -0.0731 -2.4838 -1.3264
    9CHL1    C5  600   4.764   2.353   6.164  0.1397  1.0984 -0.6969
    9CHL1    C6  601   4.654   2.292   6.118  0.1329 -0.1380 -0.5788
    9CHL1    H6  602   4.606   2.215   6.180  4.0068 -2.8102 -0.5801
    9CHL1    C7  603   4.605   2.296   5.973 -0.4177 -0.2243  0.6660
    9CHL1   H7A  604   4.575   2.194   5.939 -1.9573 -0.3872  2.3491
    9CHL1   H7B  605   4.518   2.364   5.961  0.2264  0.3226 -1.3504
    9CHL1    C8  606   4.717   2.339   5.878  0.0895  0.5083  0.1568
    9CHL1    H8  607   4.788   2.254   5.867  1.0295  0.6825  3.7262
    9CHL1   C14  608   4.650   2.369   5.740 -0.9208 -0.0682 -0.8430
    9CHL1   H14  609   4.592   2.463   5.756  3.8033  3.0368  0.0284
    9CHL1   C15  610   4.549   2.262   5.685  0.4587 -0.2410 -0.0606
    9CHL1  H15A  611   4.594   2.161   5.690  1.3178  0.1374 -0.0248
    9CHL1  H15B  612   4.452   2.259   5.741  1.1293 -0.2433  1.1314
    9CHL1   C16  613   4.544   2.301   5.536 -0.0203  0.0564 -0.0730
    9CHL1  H16A  614   4.555   2.210   5.473  0.9491 -1.0337  1.5835
    9CHL1  H16B  615   4.443   2.339   5.509 -0.3729  0.3377  1.5493
    9CHL1   C17  616   4.648   2.419   5.517  0.8957  0.1346 -0.3642
    9CHL1   H17  617   4.585   2.507   5.540  2.3990  1.8669 -2.4624
    9CHL1   C13  618   4.746   2.408   5.630  0.3468 -0.6493  0.6145
    9CHL1   C18  619   4.839   2.287   5.598  0.0420  0.0487  0.3410
    9CHL1  H18A  620   4.900   2.257   5.686  0.1472  1.1143  0.6365
    9CHL1  H18B  621   4.796   2.195   5.552 -0.1640  0.5459 -0.4682
    9CHL1  H18C  622   4.909   2.324   5.519  1.1078 -1.2396  0.6375
    9CHL1   C12  623   4.828   2.533   5.669  0.3338  0.5559  0.0410
    9CHL1  H12A  624   4.914   2.557   5.603 -0.5322  1.6538 -0.7226
    9CHL1  H12B  625   4.759   2.620   5.666 -0.2808  0.1168  0.9883
    9CHL1   C11  626   4.879   2.525   5.810 -0.5066  0.1263 -0.6410
    9CHL1  H11A  627   4.970   2.462   5.792  0.6776  0.6397  2.7788
    9CHL1  H11B  628   4.911   2.626   5.845 -1.3440  1.3188 -3.1334
    9CHL1    C9  629   4.792   2.459   5.926  0.1582 -0.2373 -0.6377
    9CHL1    H9  630   4.722   2.543   5.942  1.9897  1.1383  0.6033
    9CHL1   C10  631   4.854   2.435   6.070 -0.6527 -0.2715  0.4127
    9CHL1   C19  632   4.984   2.364   6.036  0.2148 -0.4835  0.2692
    9CHL1  H19A  633   4.965   2.267   5.985  1.1386 -0.4710 -0.1214
    9CHL1  H19B  634   5.051   2.431   5.980 -1.7682  4.5174  3.2598
    9CHL1  H19C  635   5.033   2.346   6.133  0.9749  0.6445  0.1080
    9CHL1    C1  636   4.884   2.571   6.132  0.5717 -0.5311 -0.2287
    9CHL1   H1A  637   4.960   2.633   6.081 -0.7593  1.1629 -0.2517
    9CHL1   H1B  638   4.793   2.633   6.148  1.2385 -0.1226  2.6058
    9CHL1    C2  639   4.938   2.566   6.283  0.1172 -0.1332  0.3812
    9CHL1   H2A  640   4.962   2.659   6.340 -0.8167 -0.0534  0.6627
    9CHL1   H2B  641   5.039   2.520   6.271 -0.6576 -1.7050 -0.3638
    9CHL1   C20  642   4.687   2.433   5.373  0.0842 -0.3783 -0.1251
    9CHL1   H20  643   4.747   2.343   5.346  1.9161  0.4263  1.0720
    9CHL1   C21  644   4.771   2.557   5.353 -0.2241  0.0524 -0.0771
    9CHL1  H21A  645   4.866   2.554   5.411 -0.7673  0.7272  0.8775
    9CHL1  H21B  646   4.730   2.658   5.376  1.1073  0.6770 -0.3795
    9CHL1  H21C  647   4.797   2.557   5.245 -1.6522  0.8272 -0.4388
    9CHL1   C22  648   4.576   2.442   5.269  0.5284 -0.4633 -0.5100
    9CHL1  H22A  649   4.628   2.450   5.171 -0.8937  0.3083 -1.2502
    9CHL1  H22B  650   4.510   2.352   5.267 -1.7658  1.1319 -1.5797
    9CHL1   C23  651   4.482   2.561   5.292 -0.5642  0.4705 -0.6210
    9CHL1  H23A  652   4.444   2.549   5.395  1.8755  2.2840  0.5822
    9CHL1  H23B  653   4.534   2.658   5.297 -0.8473  0.6194 -0.5651
    9CHL1   C24  654   4.371   2.548   5.190  0.5344  0.0324  0.3669
    9CHL1  H24A  655   4.417   2.587   5.096  0.4936 -0.7519  0.0136
    9CHL1  H24B  656   4.350   2.442   5.163  1.0283 -0.0899  0.4517
    9CHL1   C25  657   4.246   2.625   5.218 -0.0062  0.3448  0.1386
    9CHL1   H25  658   4.279   2.729   5.236 -3.5270  1.5011  0.5803
    9CHL1   C26  659   4.151   2.626   5.098 -0.1481 -0.3224 -0.5823
    9CHL1  H26A  660   4.128   2.528   5.050 -2.6682 -1.4032  2.4964
    9CHL1  H26B  661   4.053   2.667   5.130  0.9275  0.7279  1.5209
    9CHL1  H26C  662   4.200   2.689   5.021  1.4683  0.4671  1.0267
    9CHL1   C27  663   4.166   2.583   5.344 -0.1458 -0.3671  1.2578
    9CHL1  H27A  664   4.222   2.563   5.437  1.3802  1.6007  0.8236
    9CHL1  H27B  665   4.091   2.662   5.368  0.8097  0.8093  0.5158
    9CHL1  H27C  666   4.098   2.497   5.324  1.2160 -0.7454 -2.5860
   10CHL1    C3  667   5.178   6.338   6.319  0.7698 -0.5246 -1.0608
   10CHL1    H3  668   5.221   6.242   6.283  0.2226 -0.7495 -1.1122
   10CHL1    O3  669   5.231   6.354   6.445 -0.0498 -0.5443  0.1048
   10CHL1   H3'  670   5.262   6.266   6.469 -1.7859 -1.5296 -1.0454
   10CHL1    C4  671   5.217   6.451   6.227  0.1152  0.1464 -0.7753
   10CHL1   H4A  672   5.187   6.545   6.278  1.2867  0.4178 -0.5566
   10CHL1   H4B  673   5.327   6.449   6.218  0.0125  0.1115 -2.5540
   10CHL1    C5  674   5.160   6.449   6.089  0.2800 -0.3582  0.1498
   10CHL1    C6  675   5.244   6.443   5.985 -0.0139 -0.8090  0.0596
   10CHL1    H6  676   5.352   6.459   6.002 -0.1869 -0.2324  0.7021
   10CHL1    C7  677   5.208   6.415   5.842 -2.0657 -0.5531 -0.0266
   10CHL1   H7A  678   5.266   6.476   5.770 -2.0068  0.2426  0.6911
   10CHL1   H7B  679   5.246   6.313   5.817  0.2966  1.2186 -5.0377
   10CHL1    C8  680   5.054   6.433   5.827 -0.4665 -0.0926 -0.3918
   10CHL1    H8  681   5.032   6.541   5.841  2.1530  0.5545 -0.7342
   10CHL1   C14  682   5.013   6.383   5.690  0.6341 -0.3381 -0.6176
   10CHL1   H14  683   5.029   6.274   5.705  0.9900 -0.2490 -0.3540
   10CHL1   C15  684   5.085   6.431   5.567  0.4609  0.1483  0.9403
   10CHL1  H15A  685   5.078   6.542   5.560 -1.2854  0.0088 -0.2580
   10CHL1  H15B  686   5.188   6.391   5.558  0.5474  0.7688 -2.2251
   10CHL1   C16  687   5.001   6.376   5.447 -0.5723 -0.5139 -0.9810
   10CHL1  H16A  688   4.989   6.454   5.368  0.9219  0.5592 -0.1782
   10CHL1  H16B  689   5.029   6.278   5.403  0.8044  0.1084 -1.5313
   10CHL1   C17  690   4.858   6.354   5.514  0.0880 -0.1712  0.2567
   10CHL1   H17  691   4.853   6.245   5.531 -0.3743 -0.0096  1.2167
   10CHL1   C13  692   4.863   6.408   5.655 -0.7810  0.1708 -0.4269
   10CHL1   C18  693   4.817   6.556   5.662  0.4057  0.7245 -1.2473
   10CHL1  H18A  694   4.847   6.610   5.754  1.1449 -0.4531 -0.7801
   10CHL1  H18B  695   4.847   6.631   5.586  1.7485  1.5417  0.0318
   10CHL1  H18C  696   4.706   6.548   5.658  0.5255 -0.6927 -2.5107
   10CHL1   C12  697   4.780   6.322   5.753 -0.1336  0.5439 -1.0405
   10CHL1  H12A  698   4.670   6.324   5.741 -0.3340 -0.0876  0.4364
   10CHL1  H12B  699   4.812   6.216   5.746 -4.1218 -0.8156 -1.1383
   10CHL1   C11  700   4.822   6.360   5.898  0.5375  1.2112 -0.7071
   10CHL1  H11A  701   4.770   6.453   5.927  0.8734  1.1514  0.1068
   10CHL1  H11B  702   4.777   6.277   5.958 -0.8706  1.2325 -1.6851
   10CHL1    C9  703   4.970   6.360   5.932  0.2575  0.5029 -0.0356
   10CHL1    H9  704   4.998   6.254   5.920 -1.9890 -0.1613  0.1723
   10CHL1   C10  705   5.006   6.413   6.075 -0.1488  0.0063  0.0962
   10CHL1   C19  706   4.939   6.543   6.095  0.7910  0.3172 -0.1138
   10CHL1  H19A  707   4.967   6.615   6.015 -0.3260 -2.0458 -2.7728
   10CHL1  H19B  708   4.828   6.540   6.096  0.7240 -1.2006 -2.8273
   10CHL1  H19C  709   4.968   6.581   6.195 -0.4353 -0.2720  0.4830
   10CHL1    C1  710   4.964   6.315   6.185 -0.3807 -0.2795  0.1961
   10CHL1   H1A  711   4.854   6.305   6.198 -0.6289 -1.4736 -2.2424
   10CHL1   H1B  712   4.986   6.214   6.145 -1.4526 -0.3686 -0.1987
   10CHL1    C2  713   5.024   6.328   6.323  0.0633  0.2438 -0.2510
   10CHL1   H2A  714   4.999   6.242   6.389 -2.2693  0.8556 -0.2341
   10CHL1   H2B  715   4.986   6.415   6.380 -1.2993 -0.8824  0.6340
   10CHL1   C20  716   4.741   6.394   5.426 -0.3894 -0.5122  0.1562
   10CHL1   H20  717   4.727   6.502   5.403  0.6121 -0.1692  1.0851
   10CHL1   C21  718   4.604   6.339   5.474  0.6639  0.1894  0.2242
   10CHL1  H21A  719   4.527   6.361   5.397 -0.0329  1.8440  1.3403
   10CHL1  H21B  720   4.574   6.392   5.567  1.9080  0.3466  0.5598
   10CHL1  H21C  721   4.598   6.228   5.471 -0.9832  0.2931 -1.7276
   10CHL1   C22  722   4.759   6.343   5.276 -0.6276  0.2499  0.3722
   10CHL1  H22A  723   4.860   6.372   5.239 -0.6912 -0.8609 -0.7111
   10CHL1  H22B  724   4.743   6.233   5.269 -1.3249  0.3538  0.3445
   10CHL1   C23  725   4.669   6.412   5.174  0.3940 -0.3208  0.3269
   10CHL1  H23A  726   4.567   6.369   5.175 -0.6702  1.9671 -0.8176
   10CHL1  H23B  727   4.669   6.520   5.199 -2.1101 -0.4002  0.9955
   10CHL1   C24  728   4.712   6.395   5.028 -0.9535 -0.0903  0.1448
   10CHL1  H24A  729   4.816   6.433   5.021 -0.8293 -0.3497  0.5378
   10CHL1  H24B  730   4.717   6.289   4.995  2.3499 -0.2511  0.7896
   10CHL1   C25  731   4.627   6.482   4.925  0.4707  0.2162 -0.2144
   10CHL1   H25  732   4.622   6.590   4.947 -0.4251  0.0935  0.2388
   10CHL1   C26  733   4.692   6.483   4.790 -0.1354  0.3678  0.0157
   10CHL1  H26A  734   4.791   6.532   4.794 -0.7161  1.7658 -1.5968
   10CHL1  H26B  735   4.698   6.375   4.762  0.1272  0.3242  0.2292
   10CHL1  H26C  736   4.643   6.542   4.709  0.4915  1.2557  0.2674
   10CHL1   C27  737   4.485   6.431   4.922  0.1043  0.0435 -0.5544
   10CHL1  H27A  738   4.483   6.320   4.917 -0.1244  0.0500 -0.6515
   10CHL1  H27B  739   4.423   6.467   5.007 -1.0753  0.1336 -1.4250
   10CHL1  H27C  740   4.429   6.465   4.832 -1.0115 -1.8529 -0.6205
   11CHL1    C3  741   2.954   3.219   6.699 -0.0288  0.2018 -0.2589
   11CHL1    H3  742   2.894   3.146   6.641 -0.2715  1.4566 -1.6534
   11CHL1    O3  743   2.974   3.159   6.830 -0.4376 -0.0929  0.1785
   11CHL1   H3'  744   3.064   3.124   6.830  0.9953  3.1988  0.1772
   11CHL1    C4  745   3.088   3.254   6.632 -0.0247 -1.2860  0.7044
   11CHL1   H4A  746   3.152   3.317   6.698  0.1916  0.0495 -0.7149
   11CHL1   H4B  747   3.146   3.160   6.620  0.8606 -0.6340 -0.2867
   11CHL1    C5  748   3.063   3.314   6.495 -0.1689  0.2076 -0.7105
   11CHL1    C6  749   3.112   3.242   6.386  0.7395 -0.7321 -0.1839
   11CHL1    H6  750   3.167   3.147   6.397  1.4765 -0.2038  0.9725
   11CHL1    C7  751   3.085   3.284   6.247  0.3206  0.3112  0.1693
   11CHL1   H7A  752   3.172   3.269   6.179  0.3580 -0.4884  0.3833
   11CHL1   H7B  753   3.013   3.221   6.191  1.4722 -0.1174 -0.8972
   11CHL1    C8  754   3.032   3.429   6.245 -0.3165  0.0522  0.5296
   11CHL1    H8  755   3.125   3.487   6.257  0.9124 -1.5459 -0.8302
   11CHL1   C14  756   2.978   3.462   6.110 -0.5917  0.2329 -0.5205
   11CHL1   H14  757   2.883   3.408   6.086 -0.8526  0.6101 -0.3469
   11CHL1   C15  758   3.070   3.440   5.990 -0.5005 -0.1334 -0.6831
   11CHL1  H15A  759   3.166   3.494   6.002  0.6047 -1.3250 -3.3846
   11CHL1  H15B  760   3.078   3.332   5.968 -2.3156 -0.4957  0.2442
   11CHL1   C16  761   2.998   3.520   5.871 -0.4103 -0.6952  0.3637
   11CHL1  H16A  762   3.066   3.576   5.803 -1.0652 -0.4241 -0.0880
   11CHL1  H16B  763   2.930   3.457   5.810 -3.4752 -0.1486  2.9618
   11CHL1   C17  764   2.896   3.618   5.944 -0.0846  0.4515  0.1704
   11CHL1   H17  765   2.798   3.567   5.932  2.0516 -3.8322 -1.4774
   11CHL1   C13  766   2.930   3.613   6.095  0.5955  0.5911 -0.0479
   11CHL1   C18  767   3.055   3.703   6.116 -0.1255 -0.0467 -1.2439
   11CHL1  H18A  768   3.022   3.807   6.134  2.7843  0.5690  1.2411
   11CHL1  H18B  769   3.111   3.678   6.209 -0.7348  0.2895 -0.7805
   11CHL1  H18C  770   3.123   3.700   6.028  0.0986 -0.5712 -1.0600
   11CHL1   C12  771   2.816   3.626   6.193 -0.1473  0.1311  0.1569
   11CHL1  H12A  772   2.760   3.721   6.204  0.1599  0.0580  3.7918
   11CHL1  H12B  773   2.734   3.555   6.169  2.9662 -3.7283  0.0573
   11CHL1   C11  774   2.861   3.603   6.336 -0.3594  0.5527 -0.6245
   11CHL1  H11A  775   2.939   3.673   6.374 -1.1318 -0.2070  2.7105
   11CHL1  H11B  776   2.775   3.616   6.405 -0.2954 -2.5156  0.1365
   11CHL1    C9  777   2.926   3.462   6.353 -0.2856  0.0287  0.8087
   11CHL1    H9  778   2.844   3.388   6.337 -1.3748  0.7857  2.5586
   11CHL1   C10  779   2.975   3.434   6.500 -0.2245 -0.4810  0.0833
   11CHL1   C19  780   3.075   3.550   6.545 -0.3528  0.3835 -0.0420
   11CHL1  H19A  781   3.017   3.644   6.552 -1.3868 -0.2586  0.3757
   11CHL1  H19B  782   3.111   3.531   6.649 -0.6817 -1.3243 -0.2034
   11CHL1  H19C  783   3.152   3.560   6.466 -0.8514 -1.3062 -0.8022
   11CHL1    C1  784   2.849   3.418   6.588  0.0339 -0.2536 -0.3825
   11CHL1   H1A  785   2.796   3.516   6.595 -1.5373 -1.0072 -1.0612
   11CHL1   H1B  786   2.778   3.358   6.528 -0.9765  1.7426 -1.3032
   11CHL1    C2  787   2.877   3.348   6.718 -0.1016 -0.9152 -0.5638
   11CHL1   H2A  788   2.774   3.323   6.751  0.0098 -1.7852 -0.8614
   11CHL1   H2B  789   2.937   3.409   6.789  0.8126 -2.1689 -0.2221
   11CHL1   C20  790   2.879   3.757   5.883 -0.0655  0.2424 -0.0863
   11CHL1   H20  791   2.982   3.798   5.878 -0.1357  0.3714 -0.5394
   11CHL1   C21  792   2.790   3.851   5.966 -0.0164  0.3874 -0.0321
   11CHL1  H21A  793   2.695   3.797   5.986  0.0395  0.0184 -0.7253
   11CHL1  H21B  794   2.773   3.943   5.907  2.7079  0.6957 -0.4899
   11CHL1  H21C  795   2.842   3.883   6.059  0.6494 -0.4978 -0.0820
   11CHL1   C22  796   2.834   3.737   5.735 -1.0634 -0.5968 -0.2854
   11CHL1  H22A  797   2.912   3.680   5.680 -1.6003 -1.0785 -0.5464
   11CHL1  H22B  798   2.748   3.667   5.744  0.0675 -2.0440 -0.3606
   11CHL1   C23  799   2.818   3.872   5.660  0.3323 -0.3019 -0.2456
   11CHL1  H23A  800   2.729   3.930   5.690  0.2115  0.2514 -1.6005
   11CHL1  H23B  801   2.912   3.932   5.669 -0.2639  0.5055  0.7138
   11CHL1   C24  802   2.800   3.842   5.510 -0.0147 -0.0688  0.0676
   11CHL1  H24A  803   2.902   3.834   5.467 -0.0325  2.3063 -0.5156
   11CHL1  H24B  804   2.741   3.751   5.484 -0.2461  0.2000 -0.3393
   11CHL1   C25  805   2.716   3.945   5.437  0.4115 -0.1309 -0.2029
   11CHL1   H25  806   2.614   3.938   5.482  0.2027 -2.7119 -0.9737
   11CHL1   C26  807   2.778   4.079   5.464 -0.6340 -0.5085 -0.5845
   11CHL1  H26A  808   2.735   4.159   5.401 -0.8909  0.0184  0.2392
   11CHL1  H26B  809   2.779   4.108   5.572  0.3938 -0.5583 -0.5760
   11CHL1  H26C  810   2.884   4.068   5.433 -0.6092 -1.1633 -0.2966
   11CHL1   C27  811   2.693   3.922   5.286 -0.0653  0.1296 -0.0780
   11CHL1  H27A  812   2.591   3.882   5.264  0.3926 -0.4900 -1.2018
   11CHL1  H27B  813   2.699   4.021   5.237 -0.6143  0.1762 -0.0628
   11CHL1  H27C  814   2.778   3.864   5.246  1.9968  2.6637  0.3887
   12CHL1    C3  815   1.592   1.874   6.646 -0.2772 -0.5687  0.3322
   12CHL1    H3  816   1.699   1.866   6.618 -0.2729  3.8429 -1.8803
   12CHL1    O3  817   1.567   1.813   6.773  0.2972  0.0492  0.0256
   12CHL1   H3'  818   1.552   1.721   6.751 -3.1915  0.1877  1.2851
   12CHL1    C4  819   1.556   2.020   6.651 -0.2939 -0.2442  0.4242
   12CHL1   H4A  820   1.445   2.029   6.657 -0.3486 -1.4521  2.1593
   12CHL1   H4B  821   1.607   2.077   6.731  1.1892  1.9576 -1.9359
   12CHL1    C5  822   1.602   2.067   6.517  0.2175 -0.4532 -0.6393
   12CHL1    C6  823   1.699   2.163   6.507  0.5303  0.2398  0.0476
   12CHL1    H6  824   1.744   2.212   6.595 -0.5623  1.4741 -0.0532
   12CHL1    C7  825   1.736   2.231   6.380  0.2970  0.1538 -0.1674
   12CHL1   H7A  826   1.740   2.340   6.403 -0.9719 -0.0568  1.1984
   12CHL1   H7B  827   1.839   2.202   6.348  1.2256  1.0876  1.7993
   12CHL1    C8  828   1.633   2.196   6.270  0.0308  0.3694  0.2580
   12CHL1    H8  829   1.535   2.247   6.281  0.3486  1.1932 -0.6804
   12CHL1   C14  830   1.699   2.228   6.127 -0.4600  0.1561 -0.3447
   12CHL1   H14  831   1.789   2.164   6.112  0.6171  1.2188  1.1754
   12CHL1   C15  832   1.765   2.371   6.116  0.2417 -0.8064 -0.4079
   12CHL1  H15A  833   1.707   2.460   6.148 -2.4886 -1.5147 -2.9733
   12CHL1  H15B  834   1.861   2.362   6.172  0.5675  1.5669 -0.4907
   12CHL1   C16  835   1.802   2.381   5.967 -1.0195 -0.1576  0.3908
   12CHL1  H16A  836   1.752   2.470   5.923  1.1700 -0.1296 -2.3340
   12CHL1  H16B  837   1.910   2.374   5.942 -1.6662 -0.4176 -2.7344
   12CHL1   C17  838   1.730   2.256   5.897  0.6596  0.6052 -0.3775
   12CHL1   H17  839   1.807   2.176   5.891 -1.4843 -1.5667 -0.5678
   12CHL1   C13  840   1.622   2.200   6.003 -0.2528 -0.1753  0.1620
   12CHL1   C18  841   1.499   2.293   5.993 -0.7548 -0.2935  0.1451
   12CHL1  H18A  842   1.417   2.247   5.934 -1.7192 -2.5354  3.0321
   12CHL1  H18B  843   1.434   2.299   6.083 -1.1837 -2.3813  0.0270
   12CHL1  H18C  844   1.517   2.392   5.945  1.4381 -1.3056 -1.3034
   12CHL1   C12  845   1.592   2.051   6.004 -0.4861  0.2661  0.1809
   12CHL1  H12A  846   1.529   2.014   5.919  0.7480  2.1563 -1.6352
   12CHL1  H12B  847   1.692   2.003   6.000  0.0259  0.9054  3.1993
   12CHL1   C11  848   1.519   2.008   6.127  0.6331 -0.4553  0.1094
   12CHL1  H11A  849   1.420   2.058   6.129  1.9416  2.2754  1.9359
   12CHL1  H11B  850   1.503   1.898   6.123 -1.5168 -0.1565 -0.4721
   12CHL1    C9  851   1.592   2.048   6.259 -0.0720 -0.7216 -0.0345
   12CHL1    H9  852   1.688   1.992   6.252  0.1222 -0.4662  0.5611
   12CHL1   C10  853   1.522   2.008   6.395 -0.3192  0.3795  0.1860
   12CHL1   C19  854   1.370   2.047   6.393 -0.4520 -0.2120 -0.3891
   12CHL1  H19A  855   1.356   2.155   6.370  0.1589  0.0938  0.6417
   12CHL1  H19B  856   1.317   1.991   6.312  1.8268  0.3492 -2.3656
   12CHL1  H19C  857   1.324   2.022   6.491  0.4894  1.4953  0.5195
   12CHL1    C1  858   1.523   1.853   6.403  0.0273  0.0751 -0.6209
   12CHL1   H1A  859   1.445   1.801   6.343  1.2745 -2.5863 -0.0899
   12CHL1   H1B  860   1.619   1.816   6.359 -1.1585 -1.0663 -2.4041
   12CHL1    C2  861   1.512   1.796   6.543  0.6038  0.1328  0.0044
   12CHL1   H2A  862   1.535   1.687   6.541 -0.9926 -0.2839  1.4618
   12CHL1   H2B  863   1.404   1.806   6.568  1.0878  0.7984  2.0682
   12CHL1   C20  864   1.676   2.287   5.754 -0.0455 -0.5263  0.8064
   12CHL1   H20  865   1.604   2.372   5.754 -0.7851 -1.1376  0.2584
   12CHL1   C21  866   1.604   2.174   5.683  0.3058 -0.6209  0.1313
   12CHL1  H21A  867   1.561   2.207   5.587  0.1721 -1.2925 -0.0468
   12CHL1  H21B  868   1.512   2.144   5.737  0.8007  1.1135  2.0895
   12CHL1  H21C  869   1.669   2.085   5.669  2.1660  0.9762 -2.1407
   12CHL1   C22  870   1.795   2.344   5.672 -0.2454  0.4381 -0.2382
   12CHL1  H22A  871   1.830   2.435   5.725 -0.9054  0.6223 -0.1118
   12CHL1  H22B  872   1.878   2.271   5.666 -0.9610 -0.3668 -0.5820
   12CHL1   C23  873   1.756   2.389   5.530 -0.3941 -0.2771  0.3586
   12CHL1  H23A  874   1.739   2.301   5.465 -0.1854  0.9633 -1.4448
   12CHL1  H23B  875   1.658   2.441   5.536 -0.6482 -0.6473 -0.4637
   12CHL1   C24  876   1.857   2.480   5.452  1.0785 -0.3414 -0.0235
   12CHL1  H24A  877   1.865   2.572   5.514 -3.6364  0.9293 -0.8704
   12CHL1  H24B  878   1.954   2.426   5.451  0.9320 -0.6264  0.5724
   12CHL1   C25  879   1.802   2.514   5.310 -0.1686 -0.1693 -0.4617
   12CHL1   H25  880   1.878   2.577   5.261  1.3561 -1.6527 -0.0899
   12CHL1   C26  881   1.771   2.395   5.221 -0.2434  0.2464  0.2510
   12CHL1  H26A  882   1.760   2.427   5.115 -0.7281  1.2344  0.5839
   12CHL1  H26B  883   1.860   2.328   5.225  0.9198  1.7753  0.5266
   12CHL1  H26C  884   1.684   2.332   5.252  0.0739 -0.0866  0.4685
   12CHL1   C27  885   1.667   2.587   5.315  0.2232 -0.2827  0.1140
   12CHL1  H27A  886   1.683   2.668   5.389 -0.9331  0.5725 -0.5453
   12CHL1  H27B  887   1.645   2.628   5.214  0.9593  0.0639  0.0824
   12CHL1  H27C  888   1.586   2.522   5.352  0.4603  0.0106  1.1742
   13CHL1    C3  889   2.220   2.694   6.819 -0.2357  0.0119 -0.5981
   13CHL1    H3  890   2.153   2.617   6.774 -2.3209  2.5408 -2.0761
   13CHL1    O3  891   2.269   2.656   6.943 -0.2598  0.0829 -0.3089
   13CHL1   H3'  892   2.323   2.729   6.973  1.6009 -2.0014  1.9209
   13CHL1    C4  893   2.342   2.718   6.730 -0.4393 -0.1129  0.9160
   13CHL1   H4A  894   2.408   2.794   6.777 -0.4470  0.6637 -0.3128
   13CHL1   H4B  895   2.397   2.623   6.713 -1.1332 -0.2711 -0.6404
   13CHL1    C5  896   2.299   2.776   6.600 -0.1380  0.0532 -0.3353
   13CHL1    C6  897   2.322   2.706   6.486  0.0798 -1.0048  1.3499
   13CHL1    H6  898   2.379   2.611   6.485 -0.6010 -1.4124 -0.0669
   13CHL1    C7  899   2.288   2.761   6.345  0.8965 -0.7481  0.2966
   13CHL1   H7A  900   2.375   2.744   6.278 -0.1738 -1.3113 -1.0205
   13CHL1   H7B  901   2.203   2.704   6.301  0.5855  1.5466 -2.3726
   13CHL1    C8  902   2.249   2.910   6.349  0.3367 -0.7325 -0.3686
   13CHL1    H8  903   2.347   2.962   6.362  1.1000 -2.4237  1.1297
   13CHL1   C14  904   2.185   2.945   6.215 -0.1765  0.2659  0.1725
   13CHL1   H14  905   2.099   2.879   6.192  1.4003 -1.6876 -0.4158
   13CHL1   C15  906   2.275   2.939   6.089 -0.0664  0.2117 -0.6291
   13CHL1  H15A  907   2.370   2.989   6.117  1.1120 -2.2072 -0.0088
   13CHL1  H15B  908   2.298   2.837   6.052 -1.0839 -0.8932  1.5613
   13CHL1   C16  909   2.187   3.024   5.988  0.1965 -0.0083 -0.5858
   13CHL1  H16A  910   2.247   3.092   5.924  1.6088 -1.0509 -0.4038
   13CHL1  H16B  911   2.130   2.959   5.919  0.1743 -0.0955 -0.4851
   13CHL1   C17  912   2.084   3.113   6.069 -0.3954  0.2465 -0.2418
   13CHL1   H17  913   1.986   3.060   6.064 -0.9632  1.0667  1.4806
   13CHL1   C13  914   2.135   3.092   6.214  0.2663  0.7951  0.3011
   13CHL1   C18  915   2.243   3.195   6.253 -0.3543 -0.4165  0.5237
   13CHL1  H18A  916   2.327   3.191   6.180 -0.1409 -0.3746  0.7692
   13CHL1  H18B  917   2.194   3.294   6.255 -1.8562 -1.0484 -1.5059
   13CHL1  H18C  918   2.294   3.191   6.351 -0.2703  1.0766  0.5647
   13CHL1   C12  919   2.022   3.096   6.312 -0.0428 -0.6688 -0.4915
   13CHL1  H12A  920   1.976   3.197   6.316 -0.6667 -0.9452 -0.5192
   13CHL1  H12B  921   1.935   3.033   6.283  0.0157  0.0897 -2.4266
   13CHL1   C11  922   2.075   3.075   6.453  1.0100  0.3753  0.1239
   13CHL1  H11A  923   2.143   3.158   6.483  0.6473  0.9344 -0.5453
   13CHL1  H11B  924   1.991   3.075   6.526 -0.3754 -1.6688 -1.3640
   13CHL1    C9  925   2.156   2.940   6.468  0.4934  0.5929  1.0419
   13CHL1    H9  926   2.071   2.870   6.453  1.8752 -0.6535 -1.8175
   13CHL1   C10  927   2.222   2.903   6.605  0.0587  0.6274 -0.5676
   13CHL1   C19  928   2.322   3.019   6.646  0.2557 -0.2484 -0.5340
   13CHL1  H19A  929   2.355   3.011   6.752  2.8576 -2.5467 -1.4086
   13CHL1  H19B  930   2.414   3.014   6.584  1.0459 -2.1300  0.7098
   13CHL1  H19C  931   2.269   3.116   6.633  0.2492 -0.1309  0.2954
   13CHL1    C1  932   2.109   2.901   6.708  0.1618  0.3657 -0.9435
   13CHL1   H1A  933   2.076   3.004   6.732  0.0511  0.6451 -2.2291
   13CHL1   H1B  934   2.027   2.853   6.650  0.1302 -0.8772  0.0931
   13CHL1    C2  935   2.136   2.823   6.842  0.3138 -0.3388  0.2696
   13CHL1   H2A  936   2.035   2.796   6.881 -1.1149  0.6510 -2.4523
   13CHL1   H2B  937   2.190   2.890   6.912  1.8391 -2.3106  1.0433
   13CHL1   C20  938   2.068   3.243   5.996  0.4180  0.1738  0.6581
   13CHL1   H20  939   2.168   3.291   6.001 -0.2398  1.5624  0.9267
   13CHL1   C21  940   1.973   3.338   6.075 -0.0202 -0.9176  0.2089
   13CHL1  H21A  941   1.876   3.286   6.084 -0.5431 -0.9910 -3.8327
   13CHL1  H21B  942   1.948   3.433   6.024  3.0214 -0.8212 -1.3194
   13CHL1  H21C  943   2.019   3.363   6.173  1.4639  2.0161 -1.0875
   13CHL1   C22  944   2.025   3.234   5.846  0.1215 -0.1864  0.3583
   13CHL1  H22A  945   2.111   3.180   5.800  0.5682  1.4444 -0.7936
   13CHL1  H22B  946   1.940   3.164   5.856  1.2547 -1.3813  2.4207
   13CHL1   C23  947   1.995   3.367   5.768  0.4006  0.1576 -0.3660
   13CHL1  H23A  948   1.907   3.423   5.806 -0.7705 -1.0650 -1.1834
   13CHL1  H23B  949   2.071   3.444   5.793 -0.6923  0.7776  1.1768
   13CHL1   C24  950   1.981   3.344   5.612 -0.2917  0.5372 -0.1888
   13CHL1  H24A  951   2.049   3.262   5.580  2.2096  1.9968  1.1004
   13CHL1  H24B  952   1.879   3.302   5.594  1.0941 -2.1367 -2.6281
   13CHL1   C25  953   1.991   3.480   5.540 -0.0661  0.4136 -0.7130
   13CHL1   H25  954   2.101   3.500   5.537 -0.0988  0.7538  0.2003
   13CHL1   C26  955   1.950   3.463   5.394  0.7298  0.1205  0.7356
   13CHL1  H26A  956   1.974   3.548   5.327 -1.4489 -0.3507 -0.7241
   13CHL1  H26B  957   2.008   3.379   5.350 -1.5140  0.4327 -3.2660
   13CHL1  H26C  958   1.843   3.434   5.385  0.5196  0.6905  1.2787
   13CHL1   C27  959   1.931   3.599   5.614  0.3431  0.2299 -0.5472
   13CHL1  H27A  960   1.920   3.687   5.547  0.8364 -0.6507 -1.8240
   13CHL1  H27B  961   1.828   3.581   5.652  0.9246  0.0463  0.9748
   13CHL1  H27C  962   1.996   3.634   5.697 -0.6607  0.3716  0.2079
   14CHL1    C3  963   0.229   6.939   6.517 -0.0172 -0.0595  0.3994
   14CHL1    H3  964   0.191   7.042   6.535  0.8707  1.1000 -3.3337
   14CHL1    O3  965   0.256   6.864   6.636  0.4664  0.0222  0.7090
   14CHL1   H3'  966   0.325   6.916   6.675 -1.4347  2.1642  1.4067
   14CHL1    C4  967   0.118   6.859   6.448  0.0733  0.3603  0.5707
   14CHL1   H4A  968   0.152   6.754   6.445 -0.3620  0.1917 -2.9780
   14CHL1   H4B  969   0.023   6.858   6.506 -0.7127 -1.1347 -0.6653
   14CHL1    C5  970   0.091   6.915   6.312 -0.7657  0.5582 -0.1757
   14CHL1    C6  971  -0.035   6.955   6.274 -0.4985  0.2288 -1.0572
   14CHL1    H6  972  -0.115   6.937   6.348  1.2989  2.1969  1.5461
   14CHL1    C7  973  -0.072   7.013   6.140 -0.1223 -0.3031 -0.5219
   14CHL1   H7A  974  -0.156   6.960   6.090  0.2353 -0.4596 -0.9591
   14CHL1   H7B  975  -0.091   7.122   6.149  2.6410  0.0617  3.2068
   14CHL1    C8  976   0.042   6.992   6.043 -0.4533 -0.0274  0.3425
   14CHL1    H8  977   0.032   6.886   6.011  1.2621  0.8599 -3.8736
   14CHL1   C14  978   0.027   7.069   5.911  0.7535 -0.4555  0.2266
   14CHL1   H14  979   0.035   7.178   5.930  0.2906  0.1142 -2.4691
   14CHL1   C15  980  -0.109   7.054   5.842  0.3593 -0.1473  0.4214
   14CHL1  H15A  981  -0.149   6.950   5.837 -4.7960  1.5244  1.2757
   14CHL1  H15B  982  -0.188   7.121   5.883 -1.1341 -1.1257 -0.7396
   14CHL1   C16  983  -0.084   7.098   5.699 -0.5149  0.0564 -0.1088
   14CHL1  H16A  984  -0.129   7.022   5.632  0.5677 -0.6092 -0.1163
   14CHL1  H16B  985  -0.140   7.192   5.684 -0.3803  0.4678  1.7098
   14CHL1   C17  986   0.071   7.125   5.681 -0.0706  0.2685  0.3555
   14CHL1   H17  987   0.089   7.232   5.708  1.2849 -0.1746  1.3117
   14CHL1   C13  988   0.126   7.045   5.798  0.5821  0.8005 -0.1261
   14CHL1   C18  989   0.117   6.895   5.744  0.1809  0.6419 -0.3910
   14CHL1  H18A  990   0.199   6.884   5.669  0.4004  0.5989 -0.1480
   14CHL1  H18B  991   0.145   6.814   5.815  0.7029 -0.2228 -1.5509
   14CHL1  H18C  992   0.022   6.869   5.694 -0.1727  2.0535 -0.5015
   14CHL1   C12  993   0.269   7.079   5.845 -0.1689 -0.2181 -0.2682
   14CHL1  H12A  994   0.348   7.062   5.769  0.0148 -0.1272 -0.0970
   14CHL1  H12B  995   0.268   7.187   5.871 -0.2443 -0.0445 -0.9818
   14CHL1   C11  996   0.300   7.002   5.976 -0.0658 -0.1411  0.4791
   14CHL1  H11A  997   0.330   6.900   5.944  0.6282  0.1464  0.1994
   14CHL1  H11B  998   0.402   7.027   6.011  0.4522 -1.8365  0.2475
   14CHL1    C9  999   0.183   7.013   6.087 -0.5295 -1.0866 -0.0046
   14CHL1    H9 1000   0.186   7.119   6.121  1.7071 -1.4068  0.9968
   14CHL1   C10 1001   0.217   6.931   6.216  0.4252  0.6158 -0.3971
   14CHL1   C19 1002   0.258   6.788   6.167  0.0406 -0.4885 -0.3737
   14CHL1  H19A 1003   0.361   6.791   6.127  0.9225 -2.5033  1.5305
   14CHL1  H19B 1004   0.253   6.719   6.254  1.6803 -0.4780 -0.2536
   14CHL1  H19C 1005   0.192   6.742   6.089 -0.6819 -0.6036  0.2920
   14CHL1    C1 1006   0.329   7.004   6.289 -0.0273  0.9605 -0.8162
   14CHL1   H1A 1007   0.424   7.006   6.232  0.8238 -1.1166  0.4144
   14CHL1   H1B 1008   0.291   7.108   6.296  0.1198  0.9811 -0.2791
   14CHL1    C2 1009   0.358   6.951   6.432 -0.4843 -0.3813  0.5928
   14CHL1   H2A 1010   0.417   7.027   6.488  0.8812  0.2715 -1.6303
   14CHL1   H2B 1011   0.408   6.852   6.440 -1.2953 -0.9877 -1.3782
   14CHL1   C20 1012   0.110   7.101   5.537 -0.3230  0.3217  0.6880
   14CHL1   H20 1013   0.130   6.995   5.513 -0.2857  0.8772 -2.1521
   14CHL1   C21 1014   0.244   7.175   5.509  0.2110 -0.2248  0.2143
   14CHL1  H21A 1015   0.276   7.164   5.403 -0.2804  0.2834  0.0065
   14CHL1  H21B 1016   0.323   7.146   5.581 -0.0704  0.9059  0.9953
   14CHL1  H21C 1017   0.229   7.284   5.519  1.8566 -0.1246  2.2048
   14CHL1   C22 1018   0.006   7.149   5.430  0.4948 -0.5703 -1.1120
   14CHL1  H22A 1019  -0.078   7.076   5.433  1.6136 -1.8637  1.2671
   14CHL1  H22B 1020  -0.036   7.246   5.465  2.9184  0.2231 -0.2282
   14CHL1   C23 1021   0.034   7.153   5.278  0.1037 -0.3304 -0.4085
   14CHL1  H23A 1022   0.121   7.220   5.260  1.7600 -2.1387  0.4730
   14CHL1  H23B 1023   0.056   7.052   5.237  1.9347 -0.3424  0.4760
   14CHL1   C24 1024  -0.090   7.209   5.200 -0.1929  0.2084 -0.4840
   14CHL1  H24A 1025  -0.171   7.133   5.200 -1.7548  1.8035  0.3494
   14CHL1  H24B 1026  -0.122   7.298   5.258 -1.5533 -0.0420 -0.8219
   14CHL1   C25 1027  -0.075   7.248   5.057 -0.2642 -0.3209  0.1334
   14CHL1   H25 1028  -0.019   7.342   5.037 -0.1145 -0.4222  0.0700
   14CHL1   C26 1029  -0.011   7.148   4.962  0.3366  0.2694  0.1036
   14CHL1  H26A 1030  -0.062   7.050   4.964  3.6157 -1.6001 -0.4649
   14CHL1  H26B 1031  -0.007   7.182   4.856  0.6971  0.5895  0.2147
   14CHL1  H26C 1032   0.094   7.132   4.995 -0.1966 -1.0680  1.2791
   14CHL1   C27 1033  -0.206   7.288   4.995 -0.2069 -0.0673  1.4490
   14CHL1  H27A 1034  -0.177   7.347   4.905  2.5263 -0.4050  2.0360
   14CHL1  H27B 1035  -0.268   7.203   4.961 -0.3028  0.3831  0.4309
   14CHL1  H27C 1036  -0.264   7.351   5.066  1.4460  0.0101  2.7996
   15CHL1    C3 1037   0.468   6.190   6.113 -0.5623  0.1849  0.1331
   15CHL1    H3 1038   0.507   6.097   6.068  0.3162  1.6549 -2.3269
   15CHL1    O3 1039   0.488   6.191   6.249  0.1861  0.0783 -0.4379
   15CHL1   H3' 1040   0.432   6.119   6.277  0.5408 -0.4826 -1.1290
   15CHL1    C4 1041   0.534   6.314   6.049  0.5124 -0.3554 -0.1960
   15CHL1   H4A 1042   0.496   6.399   6.109  1.0416  0.7060 -1.3118
   15CHL1   H4B 1043   0.642   6.311   6.076  0.1812 -1.8971  1.1588
   15CHL1    C5 1044   0.495   6.327   5.901 -0.8132 -0.7178  0.2690
   15CHL1    C6 1045   0.593   6.327   5.814 -0.3940 -0.6575  0.0209
   15CHL1    H6 1046   0.699   6.311   5.836 -0.7530 -1.0861  1.5425
   15CHL1    C7 1047   0.566   6.325   5.662 -0.5111 -0.1934  0.9120
   15CHL1   H7A 1048   0.644   6.385   5.609  0.3107 -0.8074  1.3923
   15CHL1   H7B 1049   0.576   6.220   5.628  4.7081  0.6343 -1.0545
   15CHL1    C8 1050   0.431   6.395   5.632  0.8198  0.1866  0.0269
   15CHL1    H8 1051   0.438   6.503   5.658 -0.0963  0.6103 -1.3864
   15CHL1   C14 1052   0.391   6.377   5.488  0.8093 -0.1150  0.1923
   15CHL1   H14 1053   0.398   6.267   5.480 -1.7912 -0.2474 -1.4263
   15CHL1   C15 1054   0.489   6.428   5.384  0.4728  0.7575  0.2752
   15CHL1  H15A 1055   0.525   6.526   5.421 -0.5157  1.3357 -0.2512
   15CHL1  H15B 1056   0.577   6.361   5.371  0.7435  1.5898 -3.0451
   15CHL1   C16 1057   0.408   6.428   5.258 -0.2550  0.3972  0.1709
   15CHL1  H16A 1058   0.417   6.515   5.190  0.7197  0.1138 -0.0793
   15CHL1  H16B 1059   0.427   6.337   5.198  1.2539 -0.3047  1.6271
   15CHL1   C17 1060   0.256   6.411   5.294 -0.0171 -0.1776  0.3422
   15CHL1   H17 1061   0.236   6.303   5.280  1.8876 -0.6770  1.2060
   15CHL1   C13 1062   0.251   6.433   5.447 -0.8550 -0.3737  0.4602
   15CHL1   C18 1063   0.246   6.588   5.471 -0.1788 -0.1216  0.0067
   15CHL1  H18A 1064   0.277   6.596   5.578 -1.7867 -0.9586  0.5631
   15CHL1  H18B 1065   0.311   6.644   5.401  0.3611 -0.5567  0.1542
   15CHL1  H18C 1066   0.145   6.634   5.464 -0.7519 -0.7019  3.0512
   15CHL1   C12 1067   0.149   6.366   5.530 -0.7602  0.0636  0.4978
   15CHL1  H12A 1068   0.047   6.405   5.509 -0.3122  1.7880  1.3261
   15CHL1  H12B 1069   0.154   6.256   5.513  2.7220  0.3723 -1.2116
   15CHL1   C11 1070   0.174   6.389   5.684 -0.2613  0.8395  0.0331
   15CHL1  H11A 1071   0.170   6.498   5.705 -0.5911  0.9365 -0.5104
   15CHL1  H11B 1072   0.098   6.339   5.748  1.5500 -0.0819  1.5806
   15CHL1    C9 1073   0.316   6.332   5.719 -0.3571  0.0014 -0.0523
   15CHL1    H9 1074   0.314   6.225   5.687  0.4621 -0.0760  0.1322
   15CHL1   C10 1075   0.347   6.342   5.868  0.1354  0.5650 -0.2181
   15CHL1   C19 1076   0.293   6.479   5.928 -0.6664 -0.0809  0.0894
   15CHL1  H19A 1077   0.182   6.484   5.921 -0.6147 -0.2790 -1.2055
   15CHL1  H19B 1078   0.324   6.493   6.033  1.2841 -0.1524 -0.4451
   15CHL1  H19C 1079   0.330   6.558   5.858 -0.7991 -2.2985 -2.6713
   15CHL1    C1 1080   0.280   6.228   5.942 -0.1502 -0.5142 -0.0370
   15CHL1   H1A 1081   0.173   6.257   5.950  0.2658  1.2247 -0.2063
   15CHL1   H1B 1082   0.279   6.132   5.887  1.0382 -0.2264 -0.6042
   15CHL1    C2 1083   0.318   6.215   6.090 -0.0795  0.1606 -0.2271
   15CHL1   H2A 1084   0.268   6.122   6.125 -1.0578 -0.2162 -2.4705
   15CHL1   H2B 1085   0.289   6.295   6.162  0.7217 -0.0593  0.3525
   15CHL1   C20 1086   0.170   6.499   5.205 -0.1770 -1.3088 -0.0558
   15CHL1   H20 1087   0.182   6.608   5.220  0.3690 -1.5185  1.1423
   15CHL1   C21 1088   0.025   6.466   5.239  0.7933  1.2610 -0.0677
   15CHL1  H21A 1089  -0.041   6.518   5.167  0.8201 -0.4923 -1.4247
   15CHL1  H21B 1090   0.002   6.510   5.339  4.3354 -1.5455  2.2524
   15CHL1  H21C 1091  -0.000   6.358   5.244  0.6581  1.3344  1.9569
   15CHL1   C22 1092   0.190   6.473   5.061  0.0972 -0.8563 -0.2068
   15CHL1  H22A 1093   0.111   6.535   5.013 -1.6282 -0.6251  2.6984
   15CHL1  H22B 1094   0.288   6.514   5.027 -0.9983  0.7169 -1.6481
   15CHL1   C23 1095   0.175   6.330   5.007 -0.2986 -0.3305 -0.0882
   15CHL1  H23A 1096   0.238   6.262   5.069 -2.8702 -1.2797  1.6597
   15CHL1  H23B 1097   0.071   6.292   5.019  0.8908 -4.1852 -0.5602
   15CHL1   C24 1098   0.209   6.337   4.864 -0.6602  0.7712  0.9415
   15CHL1  H24A 1099   0.131   6.389   4.805  0.6449  0.5783 -1.0609
   15CHL1  H24B 1100   0.306   6.388   4.845 -0.6299  0.0214 -1.2499
   15CHL1   C25 1101   0.215   6.194   4.798  0.4897 -0.4967 -0.4166
   15CHL1   H25 1102   0.120   6.141   4.820  2.0971 -2.0705  3.5812
   15CHL1   C26 1103   0.228   6.216   4.653  0.4013 -0.3840  0.1313
   15CHL1  H26A 1104   0.320   6.268   4.619 -1.0471  0.6878 -2.3923
   15CHL1  H26B 1105   0.241   6.114   4.613  0.2232 -0.0668 -0.7530
   15CHL1  H26C 1106   0.144   6.266   4.600  0.5086 -1.4817 -1.1233
   15CHL1   C27 1107   0.339   6.110   4.849 -0.0756 -0.6670  0.0705
   15CHL1  H27A 1108   0.303   6.062   4.942 -0.8218  0.3905  0.3405
   15CHL1  H27B 1109   0.385   6.041   4.775  1.3479  1.4490 -1.1263
   15CHL1  H27C 1110   0.424   6.174   4.881  0.7230 -0.9324 -1.3954
   16CHL1    C3 1111   0.236   3.914   6.462 -0.1022 -0.1739  0.4313
   16CHL1    H3 1112   0.149   3.867   6.412  0.9947 -0.0733 -1.6903
   16CHL1    O3 1113   0.214   3.942   6.602 -0.1693 -0.8498 -0.2104
   16CHL1   H3' 1114   0.302   3.944   6.641  1.0483 -2.4205 -2.6240
   16CHL1    C4 1115   0.356   3.819   6.440  0.3307 -0.0963  0.0120
   16CHL1   H4A 1116   0.449   3.869   6.475  0.3507 -1.6279  2.3397
   16CHL1   H4B 1117   0.354   3.728   6.504  0.4960  0.9077  1.4851
   16CHL1    C5 1118   0.382   3.793   6.290 -0.3848  0.3095  0.0441
   16CHL1    C6 1119   0.382   3.659   6.248  0.2152  0.1370  0.4670
   16CHL1    H6 1120   0.358   3.583   6.324 -2.5718  0.1911 -0.2496
   16CHL1    C7 1121   0.389   3.614   6.102 -0.2601 -0.5151  0.8238
   16CHL1   H7A 1122   0.454   3.524   6.091  0.2843  0.0081 -0.4669
   16CHL1   H7B 1123   0.287   3.583   6.071 -0.4847 -0.5030  1.5304
   16CHL1    C8 1124   0.450   3.731   6.016 -0.1241 -0.1757 -0.2363
   16CHL1    H8 1125   0.556   3.734   6.050 -0.7848 -0.1424  1.9318
   16CHL1   C14 1126   0.457   3.686   5.867 -0.8876  0.1780  1.5680
   16CHL1   H14 1127   0.350   3.662   5.847  0.0018 -2.4606 -0.7016
   16CHL1   C15 1128   0.524   3.556   5.819 -0.2547  0.0980 -1.1885
   16CHL1  H15A 1129   0.626   3.541   5.858 -0.6435  1.7228  0.6092
   16CHL1  H15B 1130   0.462   3.467   5.843 -1.3445  0.7929 -1.3019
   16CHL1   C16 1131   0.516   3.578   5.665  0.1603  0.5246  0.3480
   16CHL1  H16A 1132   0.617   3.558   5.624 -0.8702 -4.0162 -0.5056
   16CHL1  H16B 1133   0.442   3.504   5.629  1.4243 -0.5090 -0.2037
   16CHL1   C17 1134   0.485   3.728   5.639  1.0005  0.5901  0.9924
   16CHL1   H17 1135   0.376   3.734   5.621  1.2240  1.0967 -0.3026
   16CHL1   C13 1136   0.499   3.795   5.774 -0.4962 -0.6261 -0.4271
   16CHL1   C18 1137   0.648   3.840   5.802 -0.0939  0.3994  0.7548
   16CHL1  H18A 1138   0.649   3.877   5.906 -1.0225  2.5708  0.0492
   16CHL1  H18B 1139   0.723   3.765   5.768 -0.7034  0.3751 -0.6281
   16CHL1  H18C 1140   0.662   3.929   5.737  0.0964 -1.2320 -1.5601
   16CHL1   C12 1141   0.409   3.918   5.799 -0.6009  0.4893  0.6319
   16CHL1  H12A 1142   0.435   4.003   5.733 -3.3082  1.8009  1.0860
   16CHL1  H12B 1143   0.303   3.892   5.775  0.4001 -1.7873 -1.6546
   16CHL1   C11 1144   0.411   3.970   5.941 -0.4930  0.1417 -0.4328
   16CHL1  H11A 1145   0.511   4.014   5.962 -0.1297 -0.6867 -0.4041
   16CHL1  H11B 1146   0.334   4.048   5.962  0.2027  0.6582  0.2706
   16CHL1    C9 1147   0.376   3.865   6.044 -0.6803  0.2174 -0.2010
   16CHL1    H9 1148   0.268   3.847   6.029 -1.0519  0.9632  1.3986
   16CHL1   C10 1149   0.387   3.912   6.196  0.8175 -0.1713 -0.1783
   16CHL1   C19 1150   0.525   3.975   6.216 -0.2331 -0.0117 -0.3308
   16CHL1  H19A 1151   0.547   4.001   6.321 -1.4157 -0.3118  0.0031
   16CHL1  H19B 1152   0.612   3.915   6.180 -0.6125 -0.1961 -0.9529
   16CHL1  H19C 1153   0.522   4.075   6.168 -0.0706 -0.9071 -2.3573
   16CHL1    C1 1154   0.271   4.010   6.229  0.9707 -0.6518  0.5280
   16CHL1   H1A 1155   0.293   4.102   6.171  1.1047  1.1916  3.3277
   16CHL1   H1B 1156   0.175   3.979   6.182  1.5080  1.3668 -2.1945
   16CHL1    C2 1157   0.260   4.047   6.377 -1.2417 -0.1473  0.4310
   16CHL1   H2A 1158   0.168   4.109   6.373 -1.5292 -0.5995 -2.9464
   16CHL1   H2B 1159   0.354   4.092   6.415 -0.0478 -1.5633 -0.7708
   16CHL1   C20 1160   0.568   3.776   5.513  0.4368 -0.1789  0.4498
   16CHL1   H20 1161   0.676   3.769   5.539  0.0924  1.1621  2.4793
   16CHL1   C21 1162   0.542   3.923   5.466  0.6875  0.5364  0.0181
   16CHL1  H21A 1163   0.432   3.927   5.460  0.6056 -1.3319 -0.3906
   16CHL1  H21B 1164   0.586   3.937   5.365 -0.4637 -3.2895 -1.1902
   16CHL1  H21C 1165   0.586   3.994   5.539  1.3646 -2.3327  2.6290
   16CHL1   C22 1166   0.550   3.687   5.387  0.2898 -0.5015 -0.6081
   16CHL1  H22A 1167   0.613   3.715   5.300  2.0292  2.0546  1.3234
   16CHL1  H22B 1168   0.593   3.588   5.417 -3.0997 -2.6366 -2.2366
   16CHL1   C23 1169   0.411   3.658   5.326  1.0456  0.2317 -0.2333
   16CHL1  H23A 1170   0.337   3.659   5.409 -1.3436  1.2370 -2.2371
   16CHL1  H23B 1171   0.381   3.738   5.255 -2.2107  0.7040  1.5124
   16CHL1   C24 1172   0.407   3.516   5.266  0.5917 -0.3579  0.1927
   16CHL1  H24A 1173   0.489   3.524   5.190  0.4764  1.4503  0.2116
   16CHL1  H24B 1174   0.431   3.442   5.345 -0.1354 -0.7687  0.0348
   16CHL1   C25 1175   0.282   3.466   5.189 -0.0560 -0.4412  0.1008
   16CHL1   H25 1176   0.212   3.456   5.275 -1.5859  2.4065 -0.6719
   16CHL1   C26 1177   0.226   3.570   5.087 -0.1216 -0.4201 -0.4723
   16CHL1  H26A 1178   0.144   3.526   5.026 -0.1869 -0.9369 -0.0213
   16CHL1  H26B 1179   0.195   3.657   5.147  0.3016 -0.3121 -0.4072
   16CHL1  H26C 1180   0.302   3.600   5.012  1.1599 -2.3840 -0.0468
   16CHL1   C27 1181   0.309   3.325   5.137  0.1017 -0.1009 -0.0899
   16CHL1  H27A 1182   0.214   3.270   5.117  0.5549 -0.9350 -0.0267
   16CHL1  H27B 1183   0.373   3.345   5.048  1.5628  2.0107  1.3465
   16CHL1  H27C 1184   0.372   3.274   5.213  1.2746  2.7470  0.9871
   17CHL1    C3 1185   2.065   6.465   6.129 -0.0980  0.1224  0.0019
   17CHL1    H3 1186   2.015   6.559   6.099  0.0972  0.7973  1.7337
   17CHL1    O3 1187   2.084   6.466   6.270 -0.4563  0.8967  0.3160
   17CHL1   H3' 1188   2.001   6.486   6.314  0.7118  3.8630  1.3965
   17CHL1    C4 1189   1.966   6.353   6.082  0.0181 -0.2286 -0.2486
   17CHL1   H4A 1190   2.016   6.257   6.108  2.7294  1.7196  2.4789
   17CHL1   H4B 1191   1.881   6.370   6.152  0.6852  1.4733  0.1775
   17CHL1    C5 1192   1.948   6.376   5.933 -0.2407 -0.1273  0.6360
   17CHL1    C6 1193   1.834   6.419   5.876  0.1804  0.2244  0.2931
   17CHL1    H6 1194   1.748   6.427   5.943 -0.6971 -0.5837 -0.7024
   17CHL1    C7 1195   1.809   6.445   5.733 -0.1382 -0.2463 -0.0079
   17CHL1   H7A 1196   1.716   6.389   5.706 -0.6605  0.5572  0.0959
   17CHL1   H7B 1197   1.791   6.554   5.725 -2.4981 -0.4387  1.5011
   17CHL1    C8 1198   1.925   6.404   5.637 -0.2194  0.3636  0.4482
   17CHL1    H8 1199   1.917   6.295   5.614 -0.0552  0.2834  0.7676
   17CHL1   C14 1200   1.911   6.461   5.496  0.5610  1.2415 -0.3287
   17CHL1   H14 1201   1.917   6.571   5.512 -1.0649  1.2118  0.7190
   17CHL1   C15 1202   1.772   6.438   5.421 -0.3322 -0.2455 -0.3689
   17CHL1  H15A 1203   1.740   6.333   5.436  0.2355 -0.3354  0.2843
   17CHL1  H15B 1204   1.708   6.520   5.461  1.9810  1.7805 -0.5886
   17CHL1   C16 1205   1.818   6.460   5.272  0.0357 -0.1807  1.1529
   17CHL1  H16A 1206   1.794   6.368   5.214 -1.1385  0.8458 -0.0708
   17CHL1  H16B 1207   1.755   6.540   5.226  0.8513  0.4689  1.1379
   17CHL1   C17 1208   1.969   6.501   5.275  0.7082  0.0526  0.4405
   17CHL1   H17 1209   1.974   6.608   5.306  1.3668  0.0861  0.2366
   17CHL1   C13 1210   2.019   6.426   5.396 -0.2030  0.7271 -0.3827
   17CHL1   C18 1211   2.019   6.271   5.376  0.5830 -0.0755  0.3803
   17CHL1  H18A 1212   1.928   6.232   5.325  2.2104 -0.3136 -2.5498
   17CHL1  H18B 1213   2.102   6.244   5.308 -0.2945 -0.8122 -0.4310
   17CHL1  H18C 1214   2.047   6.222   5.471 -0.9362  1.4124  1.6617
   17CHL1   C12 1215   2.152   6.474   5.456 -0.8809  0.3224  0.0869
   17CHL1  H12A 1216   2.242   6.448   5.396  1.0976  1.1012  2.5505
   17CHL1  H12B 1217   2.139   6.584   5.462 -0.8383  0.4386 -1.5164
   17CHL1   C11 1218   2.182   6.420   5.601 -0.2100 -0.9189  0.2978
   17CHL1  H11A 1219   2.189   6.310   5.613  1.0252 -0.8127  0.7586
   17CHL1  H11B 1220   2.276   6.464   5.641  1.1385 -1.7563 -1.8006
   17CHL1    C9 1221   2.056   6.439   5.695 -0.3657 -0.6782 -0.4276
   17CHL1    H9 1222   2.059   6.549   5.711 -1.0946 -0.6024 -0.8021
   17CHL1   C10 1223   2.076   6.379   5.842  0.1784 -0.0197  0.0902
   17CHL1   C19 1224   2.109   6.227   5.835 -0.5518  0.0504 -0.2045
   17CHL1  H19A 1225   2.030   6.167   5.784 -1.3319  0.5006  0.4514
   17CHL1  H19B 1226   2.208   6.212   5.787 -0.9225  0.0545 -0.9844
   17CHL1  H19C 1227   2.121   6.188   5.938 -0.7755 -1.1925 -0.6285
   17CHL1    C1 1228   2.182   6.475   5.908 -0.5473 -0.0143 -0.2403
   17CHL1   H1A 1229   2.285   6.456   5.872 -1.0955 -4.4076 -0.0031
   17CHL1   H1B 1230   2.147   6.579   5.890  1.0747  0.1808 -2.7857
   17CHL1    C2 1231   2.196   6.448   6.061 -0.5989  0.4561 -0.9573
   17CHL1   H2A 1232   2.282   6.501   6.108  1.7621 -2.8500 -1.1473
   17CHL1   H2B 1233   2.216   6.339   6.066 -1.9614  0.2447  0.9423
   17CHL1   C20 1234   2.051   6.487   5.143  0.3620 -0.5065  0.2104
   17CHL1   H20 1235   2.104   6.390   5.148  0.3498 -0.4700  1.1502
   17CHL1   C21 1236   2.161   6.594   5.137  0.2192  0.6225  0.0292
   17CHL1  H21A 1237   2.115   6.695   5.129  0.6245  0.7852 -0.2696
   17CHL1  H21B 1238   2.222   6.581   5.046  0.5425 -0.7763  0.4179
   17CHL1  H21C 1239   2.230   6.608   5.223 -0.3958  3.1045  0.2108
   17CHL1   C22 1240   1.964   6.477   5.016 -0.4879  0.3879 -0.1911
   17CHL1  H22A 1241   1.884   6.404   5.039  0.5798 -0.4223  1.1500
   17CHL1  H22B 1242   1.922   6.576   4.988  0.0634 -0.4063 -4.4477
   17CHL1   C23 1243   2.027   6.422   4.888 -1.0514  0.0471  0.5717
   17CHL1  H23A 1244   2.106   6.485   4.843 -1.4893  0.9601  1.0369
   17CHL1  H23B 1245   2.081   6.332   4.924  0.6082 -0.4552 -2.7633
   17CHL1   C24 1246   1.931   6.376   4.774  1.1709  0.4124  0.0490
   17CHL1  H24A 1247   1.838   6.337   4.821  1.5032 -0.1657  0.2408
   17CHL1  H24B 1248   1.906   6.468   4.718  0.2286  0.5526  0.6618
   17CHL1   C25 1249   1.991   6.282   4.664 -0.6186 -0.6051 -0.1277
   17CHL1   H25 1250   2.081   6.342   4.638 -0.5347 -1.2033 -1.2711
   17CHL1   C26 1251   2.043   6.153   4.723  0.4446 -0.0345 -0.1852
   17CHL1  H26A 1252   1.964   6.075   4.723  2.9233 -2.7254  1.0305
   17CHL1  H26B 1253   2.126   6.111   4.663  1.1430 -0.0229  0.7460
   17CHL1  H26C 1254   2.077   6.169   4.827 -0.1215  0.6247 -0.0894
   17CHL1   C27 1255   1.908   6.263   4.531  0.1409  0.4631  0.3193
   17CHL1  H27A 1256   1.949   6.181   4.468  1.0811  2.5777 -1.9519
   17CHL1  H27B 1257   1.807   6.225   4.559  0.0053  1.2645  0.9860
   17CHL1  H27C 1258   1.910   6.352   4.465 -1.3138  2.1622  2.4111
   18CHL1    C3 1259   1.507   3.022   6.581 -0.1785  0.4014  0.3114
   18CHL1    H3 1260   1.585   2.950   6.547 -1.9886 -1.4507 -0.1506
   18CHL1    O3 1261   1.525   3.030   6.722  0.1560  0.6051 -0.2504
   18CHL1   H3' 1262   1.451   3.082   6.755 -0.4652 -1.0180  1.0064
   18CHL1    C4 1263   1.520   3.167   6.518  0.4488  0.4988 -0.7888
   18CHL1   H4A 1264   1.441   3.231   6.564  0.6755  0.3360 -0.1570
   18CHL1   H4B 1265   1.624   3.195   6.546  0.5826 -0.4669 -0.2611
   18CHL1    C5 1266   1.499   3.168   6.372 -0.1083 -0.0195  0.0051
   18CHL1    C6 1267   1.594   3.220   6.290  0.7312 -0.0158 -0.0582
   18CHL1    H6 1268   1.681   3.256   6.347  0.1288 -1.2180  1.7115
   18CHL1    C7 1269   1.572   3.230   6.139 -0.2545 -0.0510  0.1740
   18CHL1   H7A 1270   1.616   3.323   6.097  0.7764 -2.0067 -3.4851
   18CHL1   H7B 1271   1.636   3.148   6.100  0.1922 -0.1864  1.1624
   18CHL1    C8 1272   1.428   3.213   6.097 -0.9170 -0.3427  0.5105
   18CHL1    H8 1273   1.373   3.307   6.115  1.0008  0.6397  1.5601
   18CHL1   C14 1274   1.427   3.190   5.940 -0.1260 -0.2549  1.0164
   18CHL1   H14 1275   1.495   3.103   5.931 -1.3026 -1.0794 -0.5487
   18CHL1   C15 1276   1.478   3.296   5.849  0.4219 -0.1651  0.2575
   18CHL1  H15A 1277   1.454   3.401   5.879 -0.3237  0.2326 -1.6032
   18CHL1  H15B 1278   1.588   3.303   5.863  0.2854 -1.4922  2.4842
   18CHL1   C16 1279   1.422   3.274   5.705  0.1712  0.2820 -0.3646
   18CHL1  H16A 1280   1.356   3.358   5.676 -0.2082  0.0971 -0.0448
   18CHL1  H16B 1281   1.499   3.260   5.626  1.7829  0.9371  1.0223
   18CHL1   C17 1282   1.326   3.155   5.727  0.2724 -0.0372 -0.1958
   18CHL1   H17 1283   1.375   3.056   5.711  1.0623  0.2612  0.3261
   18CHL1   C13 1284   1.292   3.156   5.880 -0.4406 -0.2581 -0.1441
   18CHL1   C18 1285   1.182   3.270   5.898  0.1087 -0.5279  0.5611
   18CHL1  H18A 1286   1.191   3.311   6.001  1.7070  0.1674  0.1773
   18CHL1  H18B 1287   1.192   3.344   5.816  1.1022 -0.8837  0.3470
   18CHL1  H18C 1288   1.086   3.217   5.885 -1.0403  1.4523  0.6048
   18CHL1   C12 1289   1.249   3.023   5.947  0.9505  0.1861 -0.1293
   18CHL1  H12A 1290   1.148   2.993   5.911 -0.4379 -0.3251  3.7158
   18CHL1  H12B 1291   1.322   2.943   5.922  1.2897  0.8765 -1.4305
   18CHL1   C11 1292   1.236   3.044   6.099 -0.3148  0.7683  0.5425
   18CHL1  H11A 1293   1.148   3.110   6.117 -1.3525 -0.5122  0.2946
   18CHL1  H11B 1294   1.201   2.951   6.149 -1.4331  0.4974 -0.6829
   18CHL1    C9 1295   1.367   3.092   6.167 -0.0877  0.0862  0.8814
   18CHL1    H9 1296   1.444   3.016   6.144 -0.0768  0.1120  0.8338
   18CHL1   C10 1297   1.363   3.116   6.320 -0.2955  0.8674 -0.2682
   18CHL1   C19 1298   1.242   3.198   6.359 -0.4801 -0.1232  0.8416
   18CHL1  H19A 1299   1.245   3.297   6.308  0.4427 -1.1855 -1.3075
   18CHL1  H19B 1300   1.145   3.151   6.331 -0.5530  1.2641 -1.5313
   18CHL1  H19C 1301   1.237   3.219   6.468  2.6648 -0.6765  1.1883
   18CHL1    C1 1302   1.343   2.975   6.387  0.0301 -0.1238  0.2906
   18CHL1   H1A 1303   1.238   2.948   6.364  0.7072 -1.1312 -1.8988
   18CHL1   H1B 1304   1.402   2.909   6.320  1.1084 -0.3345  1.4244
   18CHL1    C2 1305   1.367   2.969   6.541 -0.1199 -0.4473 -0.0671
   18CHL1   H2A 1306   1.364   2.865   6.579 -0.5343 -0.8916 -1.2490
   18CHL1   H2B 1307   1.283   3.020   6.593  0.3481 -0.3450  0.5904
   18CHL1   C20 1308   1.217   3.151   5.619 -0.9785  0.3219 -0.0813
   18CHL1   H20 1309   1.186   3.254   5.590  2.6811  1.2829 -1.2053
   18CHL1   C21 1310   1.101   3.053   5.658 -0.7323 -0.1211  0.6245
   18CHL1  H21A 1311   1.036   3.034   5.570  1.5362  0.7149 -1.3683
   18CHL1  H21B 1312   1.033   3.090   5.737 -0.5719 -1.8149  1.6106
   18CHL1  H21C 1313   1.139   2.952   5.683  2.7578  0.1820 -2.4515
   18CHL1   C22 1314   1.289   3.103   5.486  0.2471  0.4652 -0.5116
   18CHL1  H22A 1315   1.376   3.168   5.464  0.9486 -0.4278 -0.4008
   18CHL1  H22B 1316   1.313   2.997   5.507 -1.2224  0.1185 -0.4196
   18CHL1   C23 1317   1.187   3.094   5.364  0.4711 -0.3831  0.3024
   18CHL1  H23A 1318   1.123   3.006   5.382  0.1237  0.1870  2.1019
   18CHL1  H23B 1319   1.121   3.182   5.348  1.6189  0.6543  1.0559
   18CHL1   C24 1320   1.268   3.081   5.230  0.3043  0.0846  0.3229
   18CHL1  H24A 1321   1.341   3.163   5.212  0.8883 -0.8566 -1.8355
   18CHL1  H24B 1322   1.332   2.991   5.246  0.0763 -0.2313 -0.4777
   18CHL1   C25 1323   1.180   3.053   5.103 -0.0252 -0.0181 -0.6032
   18CHL1   H25 1324   1.119   2.960   5.104  1.0695 -0.8481 -3.1637
   18CHL1   C26 1325   1.090   3.172   5.068  0.1539  0.3248  0.2285
   18CHL1  H26A 1326   1.011   3.194   5.142 -2.8986  0.5670 -2.8496
   18CHL1  H26B 1327   1.164   3.254   5.054 -0.9243  1.2133 -0.4456
   18CHL1  H26C 1328   1.030   3.168   4.974 -0.5145  0.7195  0.6337
   18CHL1   C27 1329   1.285   3.046   4.988  0.6385  0.3609 -0.1451
   18CHL1  H27A 1330   1.241   3.004   4.895 -1.8785 -0.7401  1.4373
   18CHL1  H27B 1331   1.333   3.146   4.984  0.8896  0.3091  1.1225
   18CHL1  H27C 1332   1.359   2.971   5.024  0.7099 -0.1593 -1.3216
   19CHL1    C3 1333   6.940   3.589   6.512 -0.2621 -0.2501 -1.0218
   19CHL1    H3 1334   6.981   3.692   6.523  2.4825 -1.4408  1.5045
   19CHL1    O3 1335   6.944   3.533   6.644 -0.1764 -0.0424  0.4334
   19CHL1   H3' 1336   6.926   3.614   6.693  0.3958  0.0513  0.4929
   19CHL1    C4 1337   6.801   3.605   6.458  0.2037 -0.2120 -0.0770
   19CHL1   H4A 1338   6.748   3.509   6.476 -0.0393 -0.1810 -0.6065
   19CHL1   H4B 1339   6.744   3.667   6.530 -1.3886 -3.6611  1.9301
   19CHL1    C5 1340   6.789   3.654   6.316 -0.0601 -0.2246 -0.5108
   19CHL1    C6 1341   6.717   3.765   6.291 -0.4180 -0.7997 -0.5641
   19CHL1    H6 1342   6.658   3.802   6.376  1.3407 -0.8204  0.7180
   19CHL1    C7 1343   6.691   3.828   6.162  0.5913 -0.7705 -0.1810
   19CHL1   H7A 1344   6.585   3.848   6.136 -0.2224 -2.2590  1.7670
   19CHL1   H7B 1345   6.747   3.921   6.142 -1.5385  0.8011  0.8415
   19CHL1    C8 1346   6.748   3.740   6.047 -0.5682  0.2206 -0.1987
   19CHL1    H8 1347   6.669   3.669   6.015 -3.5896  2.6004  1.4255
   19CHL1   C14 1348   6.792   3.825   5.920 -0.3865  0.3210 -0.1751
   19CHL1   H14 1349   6.873   3.891   5.955  0.0505 -0.0485 -0.4744
   19CHL1   C15 1350   6.686   3.917   5.868  0.0551 -0.0984 -0.0943
   19CHL1  H15A 1351   6.585   3.874   5.881  0.2210 -0.8064 -1.0602
   19CHL1  H15B 1352   6.698   4.017   5.917  0.1697 -0.8128  1.4017
   19CHL1   C16 1353   6.721   3.942   5.722  0.0107 -0.0530  0.5578
   19CHL1  H16A 1354   6.643   3.895   5.659  2.4884  0.1095 -2.9572
   19CHL1  H16B 1355   6.731   4.049   5.694  1.3372 -0.3921 -0.4114
   19CHL1   C17 1356   6.856   3.872   5.696  0.4403  0.1221 -0.5953
   19CHL1   H17 1357   6.936   3.937   5.740 -0.4269  1.9782 -1.6708
   19CHL1   C13 1358   6.842   3.752   5.794 -0.1204 -0.3479 -0.3463
   19CHL1   C18 1359   6.740   3.641   5.743  0.0769  1.5603  0.6797
   19CHL1  H18A 1360   6.728   3.559   5.817 -0.9510  2.1339  1.1683
   19CHL1  H18B 1361   6.640   3.680   5.715 -0.8818 -0.9119  0.3763
   19CHL1  H18C 1362   6.795   3.598   5.657  2.1259  0.2504  2.5389
   19CHL1   C12 1363   6.973   3.680   5.831  0.0129 -0.2086  0.6608
   19CHL1  H12A 1364   7.004   3.612   5.748 -0.5335  2.2309 -1.6901
   19CHL1  H12B 1365   7.054   3.753   5.852 -0.1082 -0.4432  2.0194
   19CHL1   C11 1366   6.948   3.599   5.960  0.3110 -0.1958  0.1106
   19CHL1  H11A 1367   6.896   3.502   5.941 -0.2595 -0.2036  1.5902
   19CHL1  H11B 1368   7.045   3.576   6.008  1.3654  4.4444  0.6431
   19CHL1    C9 1369   6.886   3.678   6.080  0.3334  0.5128  0.0635
   19CHL1    H9 1370   6.958   3.758   6.108  1.9926 -1.4158  1.5835
   19CHL1   C10 1371   6.874   3.588   6.210 -0.0118  0.1537  0.8992
   19CHL1   C19 1372   6.802   3.452   6.180 -0.0407  0.1983  0.3202
   19CHL1  H19A 1373   6.860   3.392   6.107 -1.0231  1.3472 -1.4773
   19CHL1  H19B 1374   6.789   3.391   6.272 -0.9649 -0.3586 -0.1749
   19CHL1  H19C 1375   6.705   3.469   6.130  0.0091 -2.1508 -0.7108
   19CHL1    C1 1376   7.019   3.566   6.275  0.1219  0.3226 -0.0865
   19CHL1   H1A 1377   7.068   3.491   6.210 -2.6868 -0.3328 -1.6381
   19CHL1   H1B 1378   7.072   3.663   6.275  2.0378 -0.5601  3.1312
   19CHL1    C2 1379   7.019   3.502   6.415 -0.1560  0.6800 -0.2575
   19CHL1   H2A 1380   7.122   3.489   6.456 -1.0403 -1.6470  1.4447
   19CHL1   H2B 1381   6.984   3.397   6.410  2.4440 -0.2746 -0.3706
   19CHL1   C20 1382   6.891   3.844   5.550  0.3643  0.4130 -0.2602
   19CHL1   H20 1383   6.830   3.761   5.509  0.3452  1.7753 -3.2010
   19CHL1   C21 1384   7.042   3.796   5.538 -0.8507 -0.3558 -0.1301
   19CHL1  H21A 1385   7.063   3.691   5.568 -0.1295 -0.1892 -0.0513
   19CHL1  H21B 1386   7.103   3.873   5.588 -1.1826  1.0215 -1.7506
   19CHL1  H21C 1387   7.072   3.809   5.432  0.0979 -3.6774 -0.4089
   19CHL1   C22 1388   6.847   3.960   5.452 -0.7152 -0.0007  0.7226
   19CHL1  H22A 1389   6.742   3.984   5.476 -0.3689  1.6305  0.6821
   19CHL1  H22B 1390   6.902   4.053   5.476 -1.1089  0.7967 -1.3045
   19CHL1   C23 1391   6.854   3.916   5.299 -0.8701  0.0624 -0.1566
   19CHL1  H23A 1392   6.961   3.909   5.268 -0.3222  1.2240  1.3346
   19CHL1  H23B 1393   6.815   3.812   5.295 -1.6071  0.3472 -0.5956
   19CHL1   C24 1394   6.780   4.005   5.202 -0.3945 -0.8731  0.3266
   19CHL1  H24A 1395   6.673   4.000   5.233 -0.0342 -0.1717  1.7873
   19CHL1  H24B 1396   6.824   4.107   5.200 -2.7592  0.2593 -3.0356
   19CHL1   C25 1397   6.811   3.958   5.059  0.2926 -0.4094  0.1452
   19CHL1   H25 1398   6.803   3.847   5.062 -1.2741 -0.3174  0.1414
   19CHL1   C26 1399   6.703   4.013   4.971  0.3565 -0.0529  0.2678
   19CHL1  H26A 1400   6.714   3.959   4.874  2.5509 -0.1732  0.5464
   19CHL1  H26B 1401   6.605   3.985   5.016 -0.7377 -0.2170 -2.0776
   19CHL1  H26C 1402   6.719   4.122   4.960 -0.8738 -0.0287 -1.8383
   19CHL1   C27 1403   6.946   4.005   5.005 -0.4694 -0.0180  0.4655
   19CHL1  H27A 1404   6.952   4.116   5.001  2.4131 -0.1053 -0.4765
   19CHL1  H27B 1405   7.039   3.979   5.061  0.4721  1.7429 -0.1967
   19CHL1  H27C 1406   6.953   3.973   4.898  1.7661  2.2785 -0.1761
   20CHL1    C3 1407   0.259   3.166   6.250  0.5027  0.5639  0.0653
   20CHL1    H3 1408   0.185   3.237   6.294 -0.7734  0.7423 -2.2053
   20CHL1    O3 1409   0.346   3.124   6.358  0.5467 -0.0159  0.7749
   20CHL1   H3' 1410   0.433   3.125   6.317  0.0671 -0.6995 -0.2868
   20CHL1    C4 1411   0.180   3.043   6.192 -0.4167  0.0468 -0.3455
   20CHL1   H4A 1412   0.246   2.954   6.181  1.3254  1.2817 -0.1719
   20CHL1   H4B 1413   0.111   3.016   6.275 -0.9550 -2.7680 -1.5880
   20CHL1    C5 1414   0.094   3.058   6.071 -0.0237  0.1320  0.4026
   20CHL1    C6 1415  -0.035   3.021   6.072 -0.3898  0.3409 -0.7998
   20CHL1    H6 1416  -0.074   2.968   6.160 -2.0901 -0.9661 -2.2748
   20CHL1    C7 1417  -0.128   3.058   5.958  0.0901  0.1218 -0.2758
   20CHL1   H7A 1418  -0.186   2.968   5.931  0.6931 -0.5115  0.5150
   20CHL1   H7B 1419  -0.182   3.153   5.980 -1.5064 -1.2659  2.2317
   20CHL1    C8 1420  -0.053   3.101   5.826  0.0685  0.2815 -0.4459
   20CHL1    H8 1421  -0.008   3.013   5.777 -1.1032 -1.0601  0.8113
   20CHL1   C14 1422  -0.153   3.166   5.734  0.8303 -0.2126 -0.0126
   20CHL1   H14 1423  -0.178   3.256   5.794  0.7384 -0.7080  0.6985
   20CHL1   C15 1424  -0.286   3.101   5.697 -0.5501 -0.7094  0.5449
   20CHL1  H15A 1425  -0.278   2.990   5.690  1.7242 -0.5074 -1.4935
   20CHL1  H15B 1426  -0.369   3.121   5.768  0.5045 -1.3947  2.0265
   20CHL1   C16 1427  -0.326   3.162   5.562  0.0339 -0.5242  0.0568
   20CHL1  H16A 1428  -0.315   3.084   5.484  3.0989  0.2991 -0.4599
   20CHL1  H16B 1429  -0.427   3.206   5.548  0.2867 -0.0459 -0.2854
   20CHL1   C17 1430  -0.224   3.279   5.531 -0.2829  0.4980  0.3022
   20CHL1   H17 1431  -0.263   3.363   5.592 -0.0595  0.3885  0.5947
   20CHL1   C13 1432  -0.094   3.227   5.600  0.3978  0.1491  0.3249
   20CHL1   C18 1433  -0.024   3.121   5.514 -0.2517 -0.3053  0.1005
   20CHL1  H18A 1434   0.057   3.068   5.569 -0.2999 -2.1930 -1.5128
   20CHL1  H18B 1435  -0.101   3.046   5.485 -0.5913 -0.2666  0.8827
   20CHL1  H18C 1436   0.022   3.167   5.424 -0.2825 -1.1077 -0.3408
   20CHL1   C12 1437   0.008   3.327   5.649 -0.9100 -0.3446 -0.0644
   20CHL1  H12A 1438   0.057   3.375   5.561 -0.1494 -2.2137 -0.7042
   20CHL1  H12B 1439  -0.051   3.406   5.701 -0.2406  0.1402 -0.0278
   20CHL1   C11 1440   0.114   3.268   5.741 -0.3397  0.8036 -0.3449
   20CHL1  H11A 1441   0.188   3.208   5.684  0.9491  1.0147  1.0708
   20CHL1  H11B 1442   0.181   3.349   5.777  1.4173 -1.0502  0.7035
   20CHL1    C9 1443   0.053   3.200   5.861  0.1623 -0.5191 -0.2264
   20CHL1    H9 1444   0.009   3.284   5.918  1.0353 -0.8581  1.0000
   20CHL1   C10 1445   0.155   3.142   5.963 -0.4282 -0.3203  0.7485
   20CHL1   C19 1446   0.258   3.047   5.887  0.4276 -0.3180  0.1973
   20CHL1  H19A 1447   0.315   3.086   5.800 -0.2251  0.2209 -0.0026
   20CHL1  H19B 1448   0.323   2.993   5.959 -0.0645 -2.4815 -0.8925
   20CHL1  H19C 1449   0.187   2.967   5.853 -1.5783  1.5683 -0.3105
   20CHL1    C1 1450   0.234   3.268   6.020 -0.0457  0.7300  0.5435
   20CHL1   H1A 1451   0.302   3.303   5.939 -0.5232 -0.3304 -0.3344
   20CHL1   H1B 1452   0.157   3.341   6.054  0.2030  1.6621 -0.8299
   20CHL1    C2 1453   0.330   3.238   6.136 -0.1724 -0.5009 -0.4410
   20CHL1   H2A 1454   0.379   3.333   6.164  1.4382 -1.3700 -0.1587
   20CHL1   H2B 1455   0.418   3.174   6.112  0.3727 -0.4583  1.3428
   20CHL1   C20 1456  -0.219   3.319   5.381  0.4737  0.7449 -0.9654
   20CHL1   H20 1457  -0.181   3.234   5.321 -1.9860 -1.5837  0.5284
   20CHL1   C21 1458  -0.133   3.442   5.379  0.0116 -0.1722  0.1018
   20CHL1  H21A 1459  -0.028   3.417   5.405  0.1557 -1.2284 -1.3833
   20CHL1  H21B 1460  -0.173   3.533   5.429 -1.2238  0.3763 -1.7701
   20CHL1  H21C 1461  -0.116   3.469   5.273  2.3240 -2.7627 -0.2665
   20CHL1   C22 1462  -0.360   3.331   5.310  0.2219  0.7494  0.1562
   20CHL1  H22A 1463  -0.415   3.235   5.317 -1.5470  1.4607 -2.4822
   20CHL1  H22B 1464  -0.429   3.392   5.373  0.1690 -0.3123  1.1582
   20CHL1   C23 1465  -0.350   3.371   5.160 -0.4480  0.0665  0.1083
   20CHL1  H23A 1466  -0.344   3.481   5.154 -2.0971  0.2394  1.0354
   20CHL1  H23B 1467  -0.255   3.330   5.118 -0.1679  0.0053  0.7881
   20CHL1   C24 1468  -0.480   3.322   5.083 -1.1875 -0.9219 -0.3301
   20CHL1  H24A 1469  -0.469   3.212   5.071  0.2504 -0.6749 -1.7044
   20CHL1  H24B 1470  -0.561   3.343   5.156 -0.6835 -0.1175  0.0110
   20CHL1   C25 1471  -0.483   3.393   4.950 -0.2235  0.2481  0.2166
   20CHL1   H25 1472  -0.511   3.497   4.976 -1.3800 -0.0712  0.3216
   20CHL1   C26 1473  -0.349   3.403   4.873  0.2037  0.1497 -0.1283
   20CHL1  H26A 1474  -0.288   3.313   4.895 -0.2006 -0.3626 -1.0234
   20CHL1  H26B 1475  -0.361   3.400   4.762 -0.1919  0.2191 -0.0922
   20CHL1  H26C 1476  -0.275   3.484   4.891  0.9685 -1.0298  2.4107
   20CHL1   C27 1477  -0.602   3.341   4.870 -0.4357  0.2640 -0.6062
   20CHL1  H27A 1478  -0.629   3.420   4.797 -1.4726  0.5100  0.0258
   20CHL1  H27B 1479  -0.579   3.243   4.823 -0.6202 -0.8476  1.5267
   20CHL1  H27C 1480  -0.688   3.315   4.935 -0.3890 -2.5320 -1.5489
   21CHL1    C3 1481   5.169   3.501   6.832 -0.0802  0.4313 -1.0883
   21CHL1    H3 1482   5.072   3.535   6.790 -1.5188 -0.4477  1.3468
   21CHL1    O3 1483   5.164   3.508   6.973  0.1807 -0.2782  0.2570
   21CHL1   H3' 1484   5.254   3.490   6.999 -0.5039 -1.0528  2.3008
   21CHL1    C4 1485   5.196   3.348   6.811 -0.2326 -0.0152  0.7372
   21CHL1   H4A 1486   5.287   3.309   6.863  0.1898  0.6872  0.5416
   21CHL1   H4B 1487   5.107   3.303   6.858  0.0212 -0.8091  0.4761
   21CHL1    C5 1488   5.194   3.319   6.664 -0.2616 -0.0023  0.0243
   21CHL1    C6 1489   5.110   3.230   6.613  0.1560  0.3004 -0.0218
   21CHL1    H6 1490   5.038   3.194   6.687  1.6856  2.2629  2.5646
   21CHL1    C7 1491   5.108   3.185   6.475  0.0247 -0.2631 -1.3234
   21CHL1   H7A 1492   5.079   3.079   6.461 -1.5672  0.0347 -0.4813
   21CHL1   H7B 1493   5.025   3.238   6.423 -0.0945 -0.8408 -1.7325
   21CHL1    C8 1494   5.236   3.232   6.397 -0.6896  0.2272 -0.2564
   21CHL1    H8 1495   5.319   3.163   6.422 -1.9738 -0.5069  2.4007
   21CHL1   C14 1496   5.205   3.233   6.249  0.0725  0.0756  0.3854
   21CHL1   H14 1497   5.119   3.302   6.238 -1.0540 -0.9273  2.3113
   21CHL1   C15 1498   5.156   3.102   6.181 -0.0360  0.0902  0.4184
   21CHL1  H15A 1499   5.219   3.019   6.220 -2.1736 -2.1366 -0.5952
   21CHL1  H15B 1500   5.055   3.068   6.212 -0.9425  0.8360 -1.5559
   21CHL1   C16 1501   5.164   3.125   6.033  0.2699  0.1429  0.1581
   21CHL1  H16A 1502   5.226   3.046   5.984  0.2994  0.8109 -0.8979
   21CHL1  H16B 1503   5.067   3.122   5.979 -1.3787  2.8560  2.7317
   21CHL1   C17 1504   5.235   3.266   6.012  0.3832  1.0414  0.1217
   21CHL1   H17 1505   5.157   3.345   6.006  1.2876  1.8416 -2.1873
   21CHL1   C13 1506   5.309   3.283   6.142  0.1212 -0.1212 -0.4266
   21CHL1   C18 1507   5.434   3.193   6.151  0.1688  0.2370 -0.5567
   21CHL1  H18A 1508   5.401   3.091   6.120 -1.6550  0.9864 -1.2248
   21CHL1  H18B 1509   5.503   3.228   6.072  1.1756 -2.5638 -1.0472
   21CHL1  H18C 1510   5.472   3.203   6.255  1.4783  1.0429 -1.0986
   21CHL1   C12 1511   5.344   3.424   6.183 -0.5152 -0.5616  0.2723
   21CHL1  H12A 1512   5.433   3.446   6.120 -0.5821  0.8338  0.6379
   21CHL1  H12B 1513   5.257   3.487   6.158 -1.2730 -0.9905  1.7323
   21CHL1   C11 1514   5.377   3.446   6.333 -0.5243  0.3864 -0.7588
   21CHL1  H11A 1515   5.475   3.397   6.355 -2.2288 -3.8462 -1.5786
   21CHL1  H11B 1516   5.384   3.555   6.356 -2.9067  0.7053 -1.3561
   21CHL1    C9 1517   5.270   3.382   6.432 -0.3008 -1.0746 -0.1502
   21CHL1    H9 1518   5.182   3.444   6.405  0.1202  0.3089  1.4895
   21CHL1   C10 1519   5.293   3.398   6.581 -0.3526 -0.1003 -0.4948
   21CHL1   C19 1520   5.441   3.353   6.622 -0.1437 -0.0842  0.6448
   21CHL1  H19A 1521   5.524   3.410   6.575  0.1372 -1.1182 -0.1443
   21CHL1  H19B 1522   5.457   3.346   6.732 -2.1886 -0.1228  0.9917
   21CHL1  H19C 1523   5.456   3.249   6.586  1.0280  0.4021 -0.3159
   21CHL1    C1 1524   5.274   3.554   6.621  0.1356 -0.2485 -0.0635
   21CHL1   H1A 1525   5.351   3.616   6.571 -2.1018  4.3385  1.6197
   21CHL1   H1B 1526   5.178   3.597   6.587 -1.7431 -2.9057  1.4829
   21CHL1    C2 1527   5.281   3.588   6.774  0.2987  0.5972  0.1619
   21CHL1   H2A 1528   5.266   3.697   6.781 -1.1229  0.3490  1.6367
   21CHL1   H2B 1529   5.373   3.560   6.830  0.4728 -0.2185 -0.5100
   21CHL1   C20 1530   5.314   3.258   5.880  0.3266  0.0209 -0.0470
   21CHL1   H20 1531   5.379   3.168   5.886  0.6356  0.1168 -1.6833
   21CHL1   C21 1532   5.411   3.378   5.863 -0.7193 -0.2308  0.1420
   21CHL1  H21A 1533   5.364   3.478   5.861  0.6500  0.5175  2.3391
   21CHL1  H21B 1534   5.467   3.363   5.768 -1.0895 -2.5637  0.2332
   21CHL1  H21C 1535   5.488   3.378   5.943  0.3188 -0.7915 -0.8238
   21CHL1   C22 1536   5.219   3.231   5.756 -0.2873  0.1571 -0.1859
   21CHL1  H22A 1537   5.123   3.186   5.790 -0.3918  1.0141  0.7040
   21CHL1  H22B 1538   5.189   3.329   5.711 -1.3032  1.3573  2.8615
   21CHL1   C23 1539   5.292   3.131   5.669 -0.0357  0.3265 -0.0765
   21CHL1  H23A 1540   5.383   3.185   5.634  0.6015 -0.6017  0.1358
   21CHL1  H23B 1541   5.325   3.046   5.732  2.9400  0.7579 -0.8730
   21CHL1   C24 1542   5.217   3.095   5.539 -0.0059 -0.3420  0.2574
   21CHL1  H24A 1543   5.130   3.028   5.558  0.3665 -0.3127  2.3108
   21CHL1  H24B 1544   5.183   3.191   5.494  0.0998  0.6480  2.1680
   21CHL1   C25 1545   5.294   3.034   5.429 -0.1465  0.1867  0.4769
   21CHL1   H25 1546   5.385   3.091   5.401  0.4005 -0.0708  1.6742
   21CHL1   C26 1547   5.336   2.887   5.458 -0.2121  0.8892  0.1879
   21CHL1  H26A 1548   5.409   2.842   5.388  0.1620  1.2809  0.3216
   21CHL1  H26B 1549   5.398   2.882   5.550 -0.9545 -3.2816  0.6316
   21CHL1  H26C 1550   5.242   2.829   5.474 -0.9019  2.2817  1.4448
   21CHL1   C27 1551   5.207   3.034   5.301 -0.6493  0.4311 -0.0595
   21CHL1  H27A 1552   5.180   3.134   5.261  0.5487  2.1037  2.9586
   21CHL1  H27B 1553   5.256   2.971   5.224 -1.1707 -0.9900  0.7230
   21CHL1  H27C 1554   5.107   2.987   5.314 -0.8896  1.0440  0.3464
   22CHL1    C3 1555   5.086   5.258   6.339 -0.8719 -1.4072  0.1801
   22CHL1    H3 1556   4.988   5.306   6.320 -0.4597 -0.8067 -0.5033
   22CHL1    O3 1557   5.124   5.239   6.477 -0.6528 -0.3782  0.0916
   22CHL1   H3' 1558   5.215   5.271   6.479 -0.0500 -1.8661 -0.8752
   22CHL1    C4 1559   5.085   5.128   6.259 -0.2148 -0.1163 -0.3532
   22CHL1   H4A 1560   5.173   5.065   6.286  0.8235  1.4533  0.1091
   22CHL1   H4B 1561   4.998   5.067   6.292  0.4623  0.9224  3.9543
   22CHL1    C5 1562   5.089   5.151   6.111 -0.5739  0.0513 -0.5353
   22CHL1    C6 1563   4.994   5.095   6.034  0.1359  0.1098  0.0186
   22CHL1    H6 1564   4.921   5.024   6.076  1.2326 -2.2488 -1.8894
   22CHL1    C7 1565   4.991   5.110   5.882  0.2753 -0.2652 -0.0422
   22CHL1   H7A 1566   4.990   5.008   5.837  0.9530 -0.7886  1.0745
   22CHL1   H7B 1567   4.898   5.165   5.854  0.7195  0.3067 -0.3913
   22CHL1    C8 1568   5.116   5.181   5.830  0.6231  0.0903  0.5164
   22CHL1    H8 1569   5.201   5.110   5.831 -0.4325 -1.2243 -0.5300
   22CHL1   C14 1570   5.079   5.237   5.695 -0.0512  0.6315  0.1471
   22CHL1   H14 1571   5.005   5.317   5.718 -0.4185 -0.2784  2.4270
   22CHL1   C15 1572   5.005   5.150   5.590  0.8746  0.1401  0.7178
   22CHL1  H15A 1573   5.058   5.052   5.578  2.4115  1.0371 -0.1691
   22CHL1  H15B 1574   4.900   5.140   5.624 -0.1474  2.4342 -1.4879
   22CHL1   C16 1575   5.023   5.230   5.458  0.4479  0.2720  0.3440
   22CHL1  H16A 1576   5.057   5.168   5.373  0.6114 -1.3373  1.5341
   22CHL1  H16B 1577   4.924   5.275   5.434  0.3681  1.0709  1.9718
   22CHL1   C17 1578   5.125   5.345   5.485  0.1928  0.2243 -0.3449
   22CHL1   H17 1579   5.061   5.430   5.519  3.6470  2.3737  1.4502
   22CHL1   C13 1580   5.188   5.305   5.624  0.7035 -0.1104  0.0965
   22CHL1   C18 1581   5.306   5.213   5.593 -0.2140 -0.8661 -0.1396
   22CHL1  H18A 1582   5.353   5.159   5.679  1.1724 -1.9455 -1.5283
   22CHL1  H18B 1583   5.277   5.136   5.519 -1.7287  0.6414 -1.1626
   22CHL1  H18C 1584   5.384   5.276   5.545 -0.6488 -0.7605 -0.7028
   22CHL1   C12 1585   5.236   5.420   5.707 -0.6361 -0.2602  0.2830
   22CHL1  H12A 1586   5.328   5.463   5.663 -0.2589  0.2749  1.5630
   22CHL1  H12B 1587   5.166   5.506   5.704  1.1144  1.1915 -1.0054
   22CHL1   C11 1588   5.264   5.383   5.850  0.4934 -0.1305 -0.1592
   22CHL1  H11A 1589   5.355   5.320   5.850 -1.0040 -2.3849  0.0660
   22CHL1  H11B 1590   5.278   5.480   5.902  1.8711 -0.6435  0.4484
   22CHL1    C9 1591   5.151   5.296   5.911  0.0402 -0.0192  0.0178
   22CHL1    H9 1592   5.063   5.364   5.917  1.0876  1.5604 -1.5175
   22CHL1   C10 1593   5.180   5.255   6.055 -0.4883 -0.6142 -0.4357
   22CHL1   C19 1594   5.334   5.204   6.074 -0.7125  0.4048  0.0007
   22CHL1  H19A 1595   5.357   5.110   6.020  1.9232  2.2200 -2.3410
   22CHL1  H19B 1596   5.410   5.280   6.047 -0.0115 -0.0308  0.7013
   22CHL1  H19C 1597   5.351   5.181   6.182  1.6422  1.7465 -0.0231
   22CHL1    C1 1598   5.165   5.382   6.137  0.2419 -0.4439  0.5493
   22CHL1   H1A 1599   5.238   5.460   6.106  0.8028  0.0514  2.9592
   22CHL1   H1B 1600   5.065   5.428   6.130  0.5286  0.5226  2.2670
   22CHL1    C2 1601   5.180   5.365   6.292 -0.5464 -0.5975  0.2304
   22CHL1   H2A 1602   5.171   5.464   6.343  5.6088 -0.5474  2.0494
   22CHL1   H2B 1603   5.286   5.342   6.312 -1.1249 -0.9299  3.5025
   22CHL1   C20 1604   5.195   5.391   5.360  0.0013  0.3358 -0.3552
   22CHL1   H20 1605   5.276   5.317   5.339  0.5381 -0.3309  3.4051
   22CHL1   C21 1606   5.237   5.530   5.389  0.2855 -0.2418 -0.2507
   22CHL1  H21A 1607   5.153   5.598   5.414  0.6832  0.3332 -0.4436
   22CHL1  H21B 1608   5.290   5.589   5.311 -2.4972 -0.0556 -2.1225
   22CHL1  H21C 1609   5.312   5.531   5.471  0.1335  1.2229 -0.0976
   22CHL1   C22 1610   5.092   5.391   5.245  0.3639 -0.9113 -0.3222
   22CHL1  H22A 1611   5.056   5.293   5.206 -0.8119 -0.9672  0.8372
   22CHL1  H22B 1612   5.007   5.456   5.276  0.8507 -0.3910 -0.0665
   22CHL1   C23 1613   5.150   5.467   5.121  0.1536 -0.1780 -0.4819
   22CHL1  H23A 1614   5.147   5.576   5.140 -0.7163  0.1024 -2.0791
   22CHL1  H23B 1615   5.257   5.449   5.099 -0.2818 -1.2676 -1.9050
   22CHL1   C24 1616   5.068   5.441   5.001 -0.9441 -0.1239 -0.0746
   22CHL1  H24A 1617   5.043   5.334   4.984 -1.2006  0.3020 -2.7365
   22CHL1  H24B 1618   4.970   5.492   5.010  0.1363  2.0367 -0.0138
   22CHL1   C25 1619   5.138   5.479   4.868  0.1477 -0.9525  0.6035
   22CHL1   H25 1620   5.167   5.585   4.887 -0.5592  0.2491 -3.8810
   22CHL1   C26 1621   5.255   5.400   4.837 -0.0779 -0.2828 -0.2387
   22CHL1  H26A 1622   5.306   5.431   4.744 -0.3027 -0.7179 -0.5118
   22CHL1  H26B 1623   5.333   5.392   4.916  2.1187 -0.0166 -2.2686
   22CHL1  H26C 1624   5.219   5.296   4.823 -2.6834  0.3810  0.8640
   22CHL1   C27 1625   5.047   5.480   4.740  0.5090 -0.6613 -0.0674
   22CHL1  H27A 1626   5.001   5.382   4.713 -0.2849 -0.2039 -0.4121
   22CHL1  H27B 1627   4.965   5.552   4.760  2.9781  2.6432 -1.0471
   22CHL1  H27C 1628   5.102   5.519   4.652  0.6409  2.5166  1.2967
   23CHL1    C3 1629   6.422   4.238   6.401  0.8904  0.0352  0.9658
   23CHL1    H3 1630   6.533   4.242   6.403  0.9699 -0.0743 -0.9696
   23CHL1    O3 1631   6.354   4.204   6.518 -0.0684 -0.0238 -0.0632
   23CHL1   H3' 1632   6.410   4.137   6.558  0.6032  1.1563  1.0402
   23CHL1    C4 1633   6.362   4.368   6.350 -0.1238  0.4826 -0.0069
   23CHL1   H4A 1634   6.253   4.347   6.342  0.0561 -0.8286  0.7435
   23CHL1   H4B 1635   6.388   4.448   6.422  1.0673  0.3637 -0.2813
   23CHL1    C5 1636   6.410   4.407   6.212 -0.2999  0.3374  0.5175
   23CHL1    C6 1637   6.486   4.512   6.192 -0.0002 -0.2265  0.1501
   23CHL1    H6 1638   6.520   4.581   6.271  0.5455 -1.5140  1.0682
   23CHL1    C7 1639   6.538   4.545   6.060 -0.3489  0.1792 -0.0543
   23CHL1   H7A 1640   6.548   4.655   6.045 -0.1886  0.5609  2.3326
   23CHL1   H7B 1641   6.643   4.511   6.064  0.2083  1.6581 -1.2480
   23CHL1    C8 1642   6.481   4.465   5.936  0.2802 -0.1032  1.5171
   23CHL1    H8 1643   6.383   4.513   5.916  1.5352  2.0483  0.2286
   23CHL1   C14 1644   6.560   4.486   5.811  0.2159  0.1545 -0.5493
   23CHL1   H14 1645   6.666   4.461   5.831 -0.0329  0.7574  1.7405
   23CHL1   C15 1646   6.569   4.630   5.753  0.1885 -0.0204 -0.3420
   23CHL1  H15A 1647   6.470   4.679   5.740 -1.0535 -1.9655  1.1764
   23CHL1  H15B 1648   6.621   4.692   5.830  0.0118 -2.4822  1.9105
   23CHL1   C16 1649   6.642   4.609   5.622 -0.2724  0.6145  0.1762
   23CHL1  H16A 1650   6.623   4.684   5.543 -0.9836 -0.0071 -0.2608
   23CHL1  H16B 1651   6.753   4.610   5.628  0.0755  1.5973 -3.7536
   23CHL1   C17 1652   6.618   4.464   5.571  0.8994 -0.3451  0.2576
   23CHL1   H17 1653   6.714   4.411   5.589  0.3116 -1.3207  0.6468
   23CHL1   C13 1654   6.518   4.407   5.687  0.1197  0.3095 -0.4007
   23CHL1   C18 1655   6.367   4.433   5.653 -0.4299  0.9244  0.0589
   23CHL1  H18A 1656   6.352   4.541   5.630  1.0837  0.5009 -3.4782
   23CHL1  H18B 1657   6.335   4.374   5.565  1.6348  2.1655 -1.6130
   23CHL1  H18C 1658   6.304   4.411   5.742  0.6531  0.4598  0.7315
   23CHL1   C12 1659   6.531   4.259   5.728  0.2450 -0.6211  0.2277
   23CHL1  H12A 1660   6.499   4.188   5.648 -0.1417 -1.6056  1.2319
   23CHL1  H12B 1661   6.637   4.237   5.752  0.3489 -0.5861 -0.1774
   23CHL1   C11 1662   6.451   4.218   5.862  0.9247 -0.2983  0.5903
   23CHL1  H11A 1663   6.344   4.215   5.832  1.7697  0.0800 -2.9020
   23CHL1  H11B 1664   6.489   4.117   5.886  3.2175 -0.6748 -3.6720
   23CHL1    C9 1665   6.467   4.316   5.970 -0.2779 -0.6680  0.8028
   23CHL1    H9 1666   6.572   4.296   6.001  0.8907  1.0495 -1.7386
   23CHL1   C10 1667   6.387   4.300   6.105  0.2580 -0.2394  0.1403
   23CHL1   C19 1668   6.233   4.294   6.072  0.1490  0.3573 -0.4455
   23CHL1  H19A 1669   6.171   4.290   6.164 -0.6680  4.0604 -0.6788
   23CHL1  H19B 1670   6.196   4.390   6.030 -2.9633 -0.8213 -0.6743
   23CHL1  H19C 1671   6.207   4.211   6.003  1.0096  0.0264 -0.3871
   23CHL1    C1 1672   6.429   4.158   6.164 -0.1027  0.2718  0.1101
   23CHL1   H1A 1673   6.402   4.073   6.098 -1.4013  1.2484 -0.6627
   23CHL1   H1B 1674   6.540   4.165   6.176 -0.0670  1.2550 -0.6547
   23CHL1    C2 1675   6.381   4.122   6.305  0.3656  1.0922 -0.4282
   23CHL1   H2A 1676   6.419   4.021   6.330 -0.6589  0.4317 -1.4134
   23CHL1   H2B 1677   6.272   4.100   6.297  0.5835  0.2918 -1.3340
   23CHL1   C20 1678   6.568   4.445   5.423  0.4885 -0.7997 -0.5186
   23CHL1   H20 1679   6.467   4.491   5.413  0.2269 -1.5666 -1.5801
   23CHL1   C21 1680   6.564   4.293   5.386 -0.2839  0.1455  0.3373
   23CHL1  H21A 1681   6.485   4.231   5.435 -0.0197  0.5063  1.2375
   23CHL1  H21B 1682   6.665   4.257   5.414  0.2263  0.8142 -0.6146
   23CHL1  H21C 1683   6.550   4.265   5.280 -0.6899 -2.1352  0.9322
   23CHL1   C22 1684   6.649   4.523   5.314  0.0424  0.4295  0.1284
   23CHL1  H22A 1685   6.600   4.492   5.219  0.9243 -0.5283 -0.0276
   23CHL1  H22B 1686   6.634   4.633   5.319 -0.8973  0.2736  1.2879
   23CHL1   C23 1687   6.803   4.490   5.306  0.5519 -0.4909 -0.1067
   23CHL1  H23A 1688   6.848   4.506   5.406  0.9218  1.2575 -0.5295
   23CHL1  H23B 1689   6.800   4.380   5.292 -2.2015 -0.5824  0.6249
   23CHL1   C24 1690   6.895   4.570   5.211 -0.2317  0.2770  0.0207
   23CHL1  H24A 1691   6.876   4.678   5.227 -3.3827  0.0428 -1.2942
   23CHL1  H24B 1692   7.004   4.563   5.232 -0.3154  2.1246  1.2806
   23CHL1   C25 1693   6.876   4.536   5.063  0.7207  0.3074 -0.0571
   23CHL1   H25 1694   6.771   4.565   5.043  1.5416  2.5738 -1.4333
   23CHL1   C26 1695   6.956   4.621   4.962  0.0028 -0.4630 -0.0022
   23CHL1  H26A 1696   6.960   4.731   4.977  2.7073 -0.5300  0.3401
   23CHL1  H26B 1697   7.059   4.582   4.950  0.2100  0.1961 -0.4594
   23CHL1  H26C 1698   6.905   4.598   4.866  1.6750 -0.0783 -1.0202
   23CHL1   C27 1699   6.887   4.382   5.043 -0.1007 -0.1281  0.1414
   23CHL1  H27A 1700   6.844   4.376   4.940 -3.6885  4.8013  0.9918
   23CHL1  H27B 1701   6.994   4.351   5.045  0.0118  0.2573  0.2873
   23CHL1  H27C 1702   6.823   4.321   5.110 -0.4619  0.5018  0.3743
   24CHL1    C3 1703   1.512   0.071   5.895  0.2711 -0.0369  0.1634
   24CHL1    H3 1704   1.474   0.168   5.856  0.3767 -0.3454 -0.7301
   24CHL1    O3 1705   1.479   0.044   6.030  0.1388  0.0243  0.5536
   24CHL1   H3' 1706   1.533  -0.029   6.063 -1.1146 -1.3981 -0.4064
   24CHL1    C4 1707   1.459  -0.038   5.796 -0.2461  0.2385  1.0568
   24CHL1   H4A 1708   1.489  -0.140   5.828 -3.2885 -1.6017 -1.4068
   24CHL1   H4B 1709   1.349  -0.028   5.801 -0.4888 -0.2752 -1.8621
   24CHL1    C5 1710   1.499  -0.014   5.648  0.1740 -0.4237 -0.4552
   24CHL1    C6 1711   1.402   0.008   5.556 -0.0811 -0.5934 -0.5315
   24CHL1    H6 1712   1.294   0.002   5.578 -0.4299  1.8564 -1.2818
   24CHL1    C7 1713   1.442   0.020   5.415  0.0979 -0.2449 -0.0685
   24CHL1   H7A 1714   1.384  -0.043   5.343 -1.0472  0.3209  0.3312
   24CHL1   H7B 1715   1.429   0.126   5.384 -0.0628 -0.3895 -0.5084
   24CHL1    C8 1716   1.590  -0.014   5.376 -0.2484 -0.2884 -0.0240
   24CHL1    H8 1717   1.604  -0.124   5.370  0.7520 -0.3100  1.9776
   24CHL1   C14 1718   1.626   0.041   5.241 -0.5303  0.6375 -0.3418
   24CHL1   H14 1719   1.620   0.152   5.247  0.7439  0.6766  0.4366
   24CHL1   C15 1720   1.547  -0.001   5.114  0.4575  0.1005  0.2396
   24CHL1  H15A 1721   1.534  -0.111   5.108  1.1516  0.0835 -4.0235
   24CHL1  H15B 1722   1.457   0.064   5.105  0.7593  0.4574 -0.1984
   24CHL1   C16 1723   1.638   0.040   4.991 -0.2651 -0.0586 -0.2445
   24CHL1  H16A 1724   1.653  -0.051   4.929 -1.8470 -1.1519  0.9070
   24CHL1  H16B 1725   1.603   0.116   4.919 -0.8428  0.5927  0.6990
   24CHL1   C17 1726   1.764   0.102   5.058  0.1300 -0.0886  0.3486
   24CHL1   H17 1727   1.735   0.207   5.080  0.9051 -0.5667  4.7021
   24CHL1   C13 1728   1.775   0.035   5.198  0.0642 -0.3306 -0.1903
   24CHL1   C18 1729   1.822  -0.117   5.200 -0.0309  0.0540  0.7970
   24CHL1  H18A 1730   1.756  -0.176   5.133 -0.1398  2.3455 -1.2645
   24CHL1  H18B 1731   1.925  -0.119   5.157 -1.0687  0.2034 -1.9249
   24CHL1  H18C 1732   1.818  -0.160   5.302  0.6586 -1.4818  0.2222
   24CHL1   C12 1733   1.856   0.115   5.303 -0.0088  0.4366 -0.2343
   24CHL1  H12A 1734   1.964   0.094   5.284 -0.2021 -1.0853  0.2229
   24CHL1  H12B 1735   1.824   0.221   5.303 -1.1311  0.1398  1.6716
   24CHL1   C11 1736   1.829   0.068   5.446  0.0772 -0.0543 -0.2379
   24CHL1  H11A 1737   1.878  -0.031   5.443 -0.8835 -0.5205 -1.8413
   24CHL1  H11B 1738   1.876   0.124   5.530  1.3227 -1.0082 -0.2765
   24CHL1    C9 1739   1.679   0.051   5.483  0.3871  0.4333 -0.3528
   24CHL1    H9 1740   1.648   0.158   5.491 -3.0871 -0.2356 -2.5326
   24CHL1   C10 1741   1.650  -0.017   5.628 -0.3277  0.7373  0.0999
   24CHL1   C19 1742   1.697  -0.160   5.630 -0.3529  0.4378  0.1715
   24CHL1  H19A 1743   1.682  -0.202   5.528 -0.3968  0.7965  0.0314
   24CHL1  H19B 1744   1.805  -0.166   5.657 -0.0166  0.5825 -1.1089
   24CHL1  H19C 1745   1.640  -0.224   5.702  0.9886 -0.7310  0.2391
   24CHL1    C1 1746   1.715   0.072   5.737 -0.2002 -0.3013  0.0585
   24CHL1   H1A 1747   1.821   0.040   5.744 -0.4914 -1.0209  1.7224
   24CHL1   H1B 1748   1.722   0.179   5.708  1.0489 -0.0042  1.3280
   24CHL1    C2 1749   1.663   0.073   5.886  0.3955  0.6829  0.2521
   24CHL1   H2A 1750   1.702   0.167   5.931 -2.6140  0.7965  2.9637
   24CHL1   H2B 1751   1.706  -0.019   5.932 -1.2550 -0.5199 -0.4949
   24CHL1   C20 1752   1.890   0.121   4.973 -0.1420 -0.0843  0.3962
   24CHL1   H20 1753   1.975   0.126   5.044 -1.0064 -1.4135  1.5961
   24CHL1   C21 1754   1.878   0.247   4.883 -0.2437 -0.4284 -0.1866
   24CHL1  H21A 1755   1.968   0.257   4.819  1.4802 -0.5221  2.1193
   24CHL1  H21B 1756   1.898   0.333   4.949  1.5009 -0.7007 -0.3144
   24CHL1  H21C 1757   1.777   0.250   4.837 -0.4417  2.5537  0.2590
   24CHL1   C22 1758   1.924   0.002   4.871 -0.4668 -0.1543  0.8423
   24CHL1  H22A 1759   1.877  -0.091   4.910  0.7623  0.0455  2.9593
   24CHL1  H22B 1760   1.867   0.024   4.779 -1.6416  0.4805  1.6874
   24CHL1   C23 1761   2.073  -0.016   4.840 -0.0747  0.5466  0.0721
   24CHL1  H23A 1762   2.108   0.088   4.822  0.9638  0.2091  0.0682
   24CHL1  H23B 1763   2.130  -0.059   4.925 -0.1838  1.9452  0.8880
   24CHL1   C24 1764   2.098  -0.108   4.724 -0.6600  0.2448  0.5944
   24CHL1  H24A 1765   2.069  -0.209   4.759 -1.7509  0.5580  0.6359
   24CHL1  H24B 1766   2.034  -0.080   4.638 -1.2481 -3.5820 -0.3793
   24CHL1   C25 1767   2.237  -0.114   4.652  0.2010 -0.7492 -0.8502
   24CHL1   H25 1768   2.312  -0.143   4.728 -0.1364 -1.7124 -0.8779
   24CHL1   C26 1769   2.224  -0.219   4.540 -0.3732 -0.6186 -0.1020
   24CHL1  H26A 1770   2.247  -0.317   4.588 -1.0485 -0.8731 -0.2853
   24CHL1  H26B 1771   2.126  -0.222   4.487  0.5384 -0.4405 -1.8820
   24CHL1  H26C 1772   2.303  -0.206   4.463 -0.0545  2.0722  0.5882
   24CHL1   C27 1773   2.272   0.016   4.584  0.0567 -0.0364 -0.4581
   24CHL1  H27A 1774   2.186   0.064   4.533  0.0953  0.4614 -0.0596
   24CHL1  H27B 1775   2.301   0.083   4.668 -0.7895  0.8888 -0.8769
   24CHL1  H27C 1776   2.352   0.018   4.507 -0.4852  2.6358 -1.0617
   25CHL1    C3 1777   3.420   2.969   6.622 -0.6638  0.0230 -0.1598
   25CHL1    H3 1778   3.341   3.046   6.633  0.0530  0.5733  1.4129
   25CHL1    O3 1779   3.478   2.943   6.744 -0.1285  0.3686 -0.6291
   25CHL1   H3' 1780   3.538   2.868   6.732 -1.2685 -0.7601  0.4433
   25CHL1    C4 1781   3.366   2.836   6.570  0.6275 -0.3184 -0.4856
   25CHL1   H4A 1782   3.441   2.753   6.575  1.5602  0.5797  1.1832
   25CHL1   H4B 1783   3.290   2.807   6.645  1.7575 -0.3472  0.6826
   25CHL1    C5 1784   3.300   2.850   6.432  0.5940 -0.6439  0.0180
   25CHL1    C6 1785   3.169   2.834   6.408  0.3045  0.5962 -0.0733
   25CHL1    H6 1786   3.105   2.812   6.494 -1.2560  3.0634 -0.5051
   25CHL1    C7 1787   3.098   2.862   6.275 -0.6996  0.1719  0.2962
   25CHL1   H7A 1788   3.021   2.782   6.267  0.4205 -1.3310  3.0101
   25CHL1   H7B 1789   3.047   2.960   6.274 -1.0059  0.0105 -0.7796
   25CHL1    C8 1790   3.201   2.859   6.159  0.3258 -0.2871 -0.8778
   25CHL1    H8 1791   3.230   2.754   6.139 -0.4007 -1.1530  2.0941
   25CHL1   C14 1792   3.131   2.911   6.031  0.4325 -0.5203  0.5260
   25CHL1   H14 1793   3.086   3.009   6.057  0.9754  0.2636 -1.3086
   25CHL1   C15 1794   3.012   2.829   5.973 -0.3588 -0.5769 -0.6727
   25CHL1  H15A 1795   3.036   2.720   5.968 -0.1847 -0.5725 -0.0288
   25CHL1  H15B 1796   2.919   2.844   6.032  0.3301 -1.6541  0.7464
   25CHL1   C16 1797   2.991   2.884   5.832  0.2202 -0.2709  0.5093
   25CHL1  H16A 1798   2.998   2.797   5.764  0.9027 -0.3264  0.6401
   25CHL1  H16B 1799   2.896   2.941   5.826  0.3330  0.0605  1.6726
   25CHL1   C17 1800   3.117   2.980   5.810  0.1224 -0.0775  0.0802
   25CHL1   H17 1801   3.086   3.084   5.833  0.4741  0.4133 -1.5113
   25CHL1   C13 1802   3.222   2.934   5.918 -0.3363  0.2075  0.3985
   25CHL1   C18 1803   3.289   2.798   5.877  0.2488  0.0703 -0.1651
   25CHL1  H18A 1804   3.383   2.815   5.821  1.8014 -2.7988  1.2902
   25CHL1  H18B 1805   3.323   2.733   5.961  0.4305  2.0724  1.3921
   25CHL1  H18C 1806   3.228   2.730   5.815  4.8251 -2.9434 -1.9098
   25CHL1   C12 1807   3.333   3.033   5.963 -0.4390 -0.0081 -0.6372
   25CHL1  H12A 1808   3.408   3.053   5.884  0.7385  1.4640  0.7829
   25CHL1  H12B 1809   3.296   3.133   5.993  1.7289 -0.0594  2.7735
   25CHL1   C11 1810   3.415   2.973   6.075  0.3493 -0.2198 -0.3230
   25CHL1  H11A 1811   3.476   2.888   6.041  0.2910 -0.4095  0.0370
   25CHL1  H11B 1812   3.468   3.066   6.105 -2.5519  1.0928  1.2168
   25CHL1    C9 1813   3.323   2.948   6.200 -0.2829  0.1922  0.2998
   25CHL1    H9 1814   3.275   3.046   6.221 -0.1985  0.3368 -0.1907
   25CHL1   C10 1815   3.396   2.899   6.329  0.1734 -0.5941  0.4541
   25CHL1   C19 1816   3.492   2.781   6.300  0.2736  0.3957 -0.3329
   25CHL1  H19A 1817   3.549   2.761   6.393 -0.3960  0.4747  0.1062
   25CHL1  H19B 1818   3.440   2.689   6.265 -0.3991  1.4664 -2.3383
   25CHL1  H19C 1819   3.565   2.805   6.219 -0.4711  1.3955 -0.7429
   25CHL1    C1 1820   3.476   3.023   6.381  0.5275  0.0376 -0.2624
   25CHL1   H1A 1821   3.558   3.059   6.315  2.2745 -0.2005  1.6804
   25CHL1   H1B 1822   3.414   3.116   6.378 -0.0580 -0.3030  0.7416
   25CHL1    C2 1823   3.525   3.015   6.523 -0.2809  0.6021  0.3476
   25CHL1   H2A 1824   3.581   3.110   6.540 -1.9916  1.9112 -0.9714
   25CHL1   H2B 1825   3.609   2.943   6.524  0.1708  1.0733 -1.2478
   25CHL1   C20 1826   3.164   2.970   5.668  0.7330  0.5424  0.1952
   25CHL1   H20 1827   3.193   2.864   5.650  1.1961 -0.0980  3.9198
   25CHL1   C21 1828   3.286   3.060   5.646  0.2734  0.2889 -0.1411
   25CHL1  H21A 1829   3.292   3.066   5.535 -3.7570  2.0329 -0.4405
   25CHL1  H21B 1830   3.369   3.012   5.702 -0.4130  0.3535  0.9674
   25CHL1  H21C 1831   3.271   3.162   5.689 -0.7354  0.3319 -0.5838
   25CHL1   C22 1832   3.057   3.003   5.564 -0.4095  0.4876  0.0083
   25CHL1  H22A 1833   3.107   3.013   5.465 -1.6702 -0.1306 -0.7154
   25CHL1  H22B 1834   2.973   2.930   5.555 -1.2724  1.3837  0.5199
   25CHL1   C23 1835   2.984   3.142   5.583  0.4915  0.0897 -0.1479
   25CHL1  H23A 1836   2.919   3.158   5.671 -0.2192  0.9298 -0.8097
   25CHL1  H23B 1837   3.067   3.216   5.574 -0.0649  0.6003 -1.2765
   25CHL1   C24 1838   2.890   3.172   5.466  0.0623  0.7275  0.1676
   25CHL1  H24A 1839   2.950   3.158   5.374  1.2682  0.8395  0.9127
   25CHL1  H24B 1840   2.807   3.099   5.463 -0.3839  1.2501 -0.4125
   25CHL1   C25 1841   2.834   3.312   5.460 -0.4267  0.8961  0.4047
   25CHL1   H25 1842   2.750   3.328   5.532 -0.2420 -0.5456  0.9763
   25CHL1   C26 1843   2.944   3.415   5.491 -0.4008 -0.2153  0.4121
   25CHL1  H26A 1844   2.912   3.518   5.464  2.5172  1.1294  1.5749
   25CHL1  H26B 1845   2.981   3.410   5.596  0.7874 -1.2084 -0.0340
   25CHL1  H26C 1846   3.036   3.392   5.432 -0.5902 -0.3317  0.1620
   25CHL1   C27 1847   2.782   3.341   5.320  0.1705 -0.2591 -0.1684
   25CHL1  H27A 1848   2.722   3.435   5.319 -0.8210 -0.8550  0.7038
   25CHL1  H27B 1849   2.871   3.344   5.254  0.3434  0.4780  0.0923
   25CHL1  H27C 1850   2.713   3.260   5.289  2.5793 -2.6124  0.2827
   26CHL1    C3 1851   1.266   1.270   6.178  0.3185 -0.0912 -0.4874
   26CHL1    H3 1852   1.213   1.219   6.095 -1.7064  1.8661 -0.4825
   26CHL1    O3 1853   1.229   1.186   6.289 -0.0261  0.7517 -0.1055
   26CHL1   H3' 1854   1.215   1.244   6.364  0.3848 -1.4502  1.7657
   26CHL1    C4 1855   1.413   1.279   6.158  0.4836  0.1013 -0.4230
   26CHL1   H4A 1856   1.453   1.336   6.244  1.5601  0.7852 -1.3555
   26CHL1   H4B 1857   1.448   1.174   6.161  0.5332  0.1381  2.3255
   26CHL1    C5 1858   1.454   1.354   6.033  0.6544  0.3049  0.0476
   26CHL1    C6 1859   1.531   1.294   5.941  0.2548  0.1570  0.0100
   26CHL1    H6 1860   1.552   1.188   5.960 -1.2827 -0.3352 -0.9124
   26CHL1    C7 1861   1.564   1.351   5.808  0.1237  0.3797 -0.1934
   26CHL1   H7A 1862   1.674   1.343   5.789  0.0071 -1.1374 -0.4112
   26CHL1   H7B 1863   1.506   1.303   5.726 -1.5558  1.5766  0.2502
   26CHL1    C8 1864   1.530   1.500   5.795 -0.3093  0.1448 -0.3064
   26CHL1    H8 1865   1.617   1.546   5.845 -0.4750 -0.6840  0.7980
   26CHL1   C14 1866   1.524   1.546   5.649  0.1305 -0.3230  0.0569
   26CHL1   H14 1867   1.436   1.498   5.602 -0.6087  0.9302  0.1308
   26CHL1   C15 1868   1.644   1.514   5.564 -0.0596 -0.2573 -0.3859
   26CHL1  H15A 1869   1.730   1.561   5.617 -0.7440  1.0105 -0.3579
   26CHL1  H15B 1870   1.666   1.411   5.529  1.2635 -0.3286  0.5665
   26CHL1   C16 1871   1.616   1.613   5.446 -0.0180  0.0434 -0.3111
   26CHL1  H16A 1872   1.715   1.661   5.429 -0.5235  1.5282  0.7327
   26CHL1  H16B 1873   1.596   1.552   5.355  0.7376 -0.8074  0.0707
   26CHL1   C17 1874   1.513   1.715   5.490 -0.4220 -0.7286 -0.4781
   26CHL1   H17 1875   1.413   1.680   5.456 -0.0978  0.3845 -2.7671
   26CHL1   C13 1876   1.491   1.696   5.638 -0.2922 -0.2678  0.1362
   26CHL1   C18 1877   1.602   1.780   5.719 -0.0860 -0.3468 -0.7522
   26CHL1  H18A 1878   1.574   1.887   5.732  3.0556  0.3394  1.5030
   26CHL1  H18B 1879   1.614   1.742   5.823 -3.0756  0.6734  0.0651
   26CHL1  H18C 1880   1.695   1.787   5.660  0.8312  2.0913  0.7995
   26CHL1   C12 1881   1.352   1.727   5.689 -0.2580  0.3027 -0.0944
   26CHL1  H12A 1882   1.334   1.836   5.696  0.0514  0.3434  0.0648
   26CHL1  H12B 1883   1.270   1.700   5.618  0.5196 -0.3123 -0.7851
   26CHL1   C11 1884   1.342   1.678   5.831  0.3194  0.2229  0.0554
   26CHL1  H11A 1885   1.396   1.755   5.890  0.3691  0.7123 -0.6150
   26CHL1  H11B 1886   1.235   1.677   5.862  0.2371  1.1881 -0.1614
   26CHL1    C9 1887   1.398   1.539   5.867  0.5251 -0.2319  0.1603
   26CHL1    H9 1888   1.330   1.461   5.827  2.4952 -1.7318 -0.4519
   26CHL1   C10 1889   1.383   1.499   6.019 -0.4149  0.2116  0.2977
   26CHL1   C19 1890   1.470   1.590   6.114 -0.1890  0.2119  0.4465
   26CHL1  H19A 1891   1.565   1.612   6.060  0.1135  1.2158  1.3635
   26CHL1  H19B 1892   1.420   1.689   6.117 -0.9113 -0.1175 -0.3208
   26CHL1  H19C 1893   1.474   1.544   6.214  1.0091  0.2604  0.4329
   26CHL1    C1 1894   1.233   1.504   6.072 -0.8223  0.3227  0.2223
   26CHL1   H1A 1895   1.210   1.611   6.087 -2.1804  0.0880 -0.0581
   26CHL1   H1B 1896   1.175   1.463   5.987  2.6075  0.1766 -2.2717
   26CHL1    C2 1897   1.212   1.418   6.195 -0.0296 -0.3354 -1.0146
   26CHL1   H2A 1898   1.107   1.402   6.226  0.9953 -2.4755  1.8306
   26CHL1   H2B 1899   1.248   1.468   6.287  0.2316  2.0726 -2.3561
   26CHL1   C20 1900   1.535   1.855   5.428 -0.0559 -0.1708 -0.4009
   26CHL1   H20 1901   1.628   1.893   5.476  0.0778 -1.2937  0.2587
   26CHL1   C21 1902   1.420   1.957   5.460  0.6373 -0.3561 -0.4883
   26CHL1  H21A 1903   1.420   1.993   5.565 -4.2082 -0.4800 -0.2102
   26CHL1  H21B 1904   1.321   1.910   5.445  0.3109  0.2290 -0.1916
   26CHL1  H21C 1905   1.426   2.050   5.400  0.2508  0.1569  0.2603
   26CHL1   C22 1906   1.550   1.841   5.277 -0.4390 -0.9841  0.2219
   26CHL1  H22A 1907   1.640   1.783   5.249 -1.7341 -3.5177  0.9731
   26CHL1  H22B 1908   1.461   1.792   5.232  0.2327 -1.0734 -1.0621
   26CHL1   C23 1909   1.574   1.970   5.196  0.3464 -0.1843 -0.0408
   26CHL1  H23A 1910   1.477   2.024   5.201 -0.1222 -0.8167 -1.7016
   26CHL1  H23B 1911   1.647   2.037   5.248 -0.8329 -0.6135  2.3379
   26CHL1   C24 1912   1.615   1.947   5.047  0.5532  0.3825 -0.0355
   26CHL1  H24A 1913   1.719   1.909   5.059 -0.5418 -2.3519  2.1224
   26CHL1  H24B 1914   1.554   1.866   5.004  1.0348 -1.0470  1.8031
   26CHL1   C25 1915   1.621   2.067   4.955 -0.4467  1.0031 -0.0968
   26CHL1   H25 1916   1.682   2.141   5.012 -1.0228 -1.0798  3.5889
   26CHL1   C26 1917   1.682   2.023   4.824  0.9216 -0.0226  0.5356
   26CHL1  H26A 1918   1.625   1.940   4.778 -1.2626  1.2813  0.7259
   26CHL1  H26B 1919   1.698   2.103   4.749  0.8148  1.5943  2.1620
   26CHL1  H26C 1920   1.787   1.995   4.848  1.2181  1.0911  0.5733
   26CHL1   C27 1921   1.495   2.143   4.942 -0.0628  0.4161 -0.5295
   26CHL1  H27A 1922   1.507   2.229   4.872  0.1910  0.6989 -0.1449
   26CHL1  H27B 1923   1.402   2.086   4.923 -0.9704  1.1449  1.5191
   26CHL1  H27C 1924   1.470   2.189   5.040 -1.2012  0.2154 -0.7143
   27CHL1    C3 1925   5.400   2.274   6.182 -0.0213 -0.3362  0.1396
   27CHL1    H3 1926   5.336   2.355   6.141  1.3687  1.8844  2.1254
   27CHL1    O3 1927   5.428   2.288   6.318 -0.1509  0.4128 -0.1894
   27CHL1   H3' 1928   5.508   2.236   6.331  0.6743  2.0621  2.1702
   27CHL1    C4 1929   5.325   2.136   6.170 -0.2054 -0.2121 -0.1183
   27CHL1   H4A 1930   5.386   2.048   6.201  0.9108 -0.7549 -3.4236
   27CHL1   H4B 1931   5.230   2.155   6.225  0.8513  2.4509  0.9349
   27CHL1    C5 1932   5.294   2.107   6.024 -0.2334 -0.7822  0.5431
   27CHL1    C6 1933   5.170   2.096   5.984  0.5062  0.1423  0.0629
   27CHL1    H6 1934   5.097   2.113   6.065 -0.4965 -2.0766 -0.2835
   27CHL1    C7 1935   5.124   2.051   5.843 -0.2880  0.4524  0.0368
   27CHL1   H7A 1936   5.057   1.962   5.843 -1.9246  1.6506 -0.3259
   27CHL1   H7B 1937   5.075   2.139   5.798  0.3523  0.9675  0.3283
   27CHL1    C8 1938   5.252   2.010   5.757  0.4049 -0.0963  0.1448
   27CHL1    H8 1939   5.288   1.910   5.790  0.2369 -1.4791 -3.4585
   27CHL1   C14 1940   5.220   1.987   5.613  0.0697 -0.7191 -0.8622
   27CHL1   H14 1941   5.186   2.085   5.574  2.7123  0.1287 -1.2209
   27CHL1   C15 1942   5.107   1.884   5.577  0.8982  0.2400  0.3902
   27CHL1  H15A 1943   5.118   1.791   5.637  0.2128  0.2188  0.4931
   27CHL1  H15B 1944   5.007   1.925   5.605  0.8804  1.5822 -1.4806
   27CHL1   C16 1945   5.128   1.868   5.431 -0.2059 -0.0497  0.4096
   27CHL1  H16A 1946   5.140   1.759   5.413  0.5472  0.1889 -0.6289
   27CHL1  H16B 1947   5.041   1.903   5.371  2.1773  3.2415 -1.4370
   27CHL1   C17 1948   5.252   1.953   5.385 -0.0861  0.1637 -0.3731
   27CHL1   H17 1949   5.215   2.054   5.357  1.5465  0.2878 -2.2986
   27CHL1   C13 1950   5.336   1.966   5.517  0.6768 -0.2250  0.1599
   27CHL1   C18 1951   5.397   1.831   5.544  0.1120 -0.2818 -0.3257
   27CHL1  H18A 1952   5.415   1.814   5.653 -2.2413  0.2490  0.2037
   27CHL1  H18B 1953   5.337   1.750   5.497 -0.0001 -0.7222  0.5435
   27CHL1  H18C 1954   5.499   1.818   5.504  1.6328 -0.5806  3.2221
   27CHL1   C12 1955   5.435   2.084   5.527  0.6185  0.3673  0.2011
   27CHL1  H12A 1956   5.518   2.045   5.464  1.4058 -0.6695  1.7951
   27CHL1  H12B 1957   5.393   2.172   5.474  0.0953 -0.7771 -1.3400
   27CHL1   C11 1958   5.479   2.096   5.672 -0.1059  0.0766  0.9147
   27CHL1  H11A 1959   5.540   2.010   5.706 -2.1263 -1.3613  1.1088
   27CHL1  H11B 1960   5.542   2.187   5.681 -1.9216  1.4906  0.2240
   27CHL1    C9 1961   5.365   2.105   5.778 -0.5071 -0.2117  0.8460
   27CHL1    H9 1962   5.324   2.208   5.763  0.6601 -0.0661 -2.1040
   27CHL1   C10 1963   5.418   2.114   5.927  0.8211 -0.0144 -0.2957
   27CHL1   C19 1964   5.497   1.986   5.956  0.2074  0.4101  0.7661
   27CHL1  H19A 1965   5.594   1.982   5.903  0.6996 -1.6887  1.7092
   27CHL1  H19B 1966   5.551   1.976   6.053  2.0170  0.6967 -0.1750
   27CHL1  H19C 1967   5.430   1.898   5.942 -1.7557  1.7156  1.5153
   27CHL1    C1 1968   5.499   2.245   5.952  0.1823 -1.1705 -0.5072
   27CHL1   H1A 1969   5.585   2.239   5.883  0.3538  2.3333 -0.7956
   27CHL1   H1B 1970   5.440   2.334   5.920  1.0510  0.0956  1.1993
   27CHL1    C2 1971   5.532   2.271   6.099  0.1311 -0.1587 -0.6401
   27CHL1   H2A 1972   5.579   2.369   6.120 -1.6989  0.0971  3.0401
   27CHL1   H2B 1973   5.601   2.196   6.142 -2.3547 -0.7824  2.6720
   27CHL1   C20 1974   5.335   1.889   5.270 -0.1748 -0.0656 -0.5007
   27CHL1   H20 1975   5.391   1.796   5.298 -1.2713 -0.6977 -0.3512
   27CHL1   C21 1976   5.432   1.991   5.211  0.0738  0.4665  0.5432
   27CHL1  H21A 1977   5.527   1.977   5.266  0.9021 -0.5857 -1.0568
   27CHL1  H21B 1978   5.393   2.093   5.229 -0.9446  0.5752 -1.8106
   27CHL1  H21C 1979   5.451   1.973   5.103 -0.3025  1.0467  0.3793
   27CHL1   C22 1980   5.248   1.840   5.151 -0.4708  0.4528 -0.1731
   27CHL1  H22A 1981   5.308   1.792   5.071  0.4885  0.8751  0.2721
   27CHL1  H22B 1982   5.190   1.758   5.198  0.8471  0.1872  1.0767
   27CHL1   C23 1983   5.149   1.942   5.090  0.2905  0.2443  0.3860
   27CHL1  H23A 1984   5.073   1.977   5.163  0.0247  1.8611 -0.6297
   27CHL1  H23B 1985   5.210   2.031   5.065  1.1395 -0.5686 -0.5237
   27CHL1   C24 1986   5.076   1.885   4.968 -0.3752 -0.5080  0.8424
   27CHL1  H24A 1987   5.153   1.847   4.898  1.1310 -3.1260  3.6607
   27CHL1  H24B 1988   5.016   1.794   4.992 -0.1146 -0.6661  0.8942
   27CHL1   C25 1989   4.984   1.989   4.890  0.3570  0.5335 -0.3373
   27CHL1   H25 1990   4.924   1.925   4.821  0.4478  0.0440  0.0305
   27CHL1   C26 1991   4.876   2.047   4.983  0.5777  0.3419  0.0624
   27CHL1  H26A 1992   4.821   1.973   5.044  0.9331  0.9344  1.1310
   27CHL1  H26B 1993   4.916   2.118   5.058 -2.6116  1.5756  0.7542
   27CHL1  H26C 1994   4.806   2.110   4.924 -0.0733 -0.7892 -0.3969
   27CHL1   C27 1995   5.062   2.085   4.808  0.6983  0.3705  0.7866
   27CHL1  H27A 1996   5.096   2.030   4.718  2.0368 -0.6833  1.8779
   27CHL1  H27B 1997   4.998   2.168   4.771  1.7434  0.4755 -0.9382
   27CHL1  H27C 1998   5.160   2.115   4.852  0.2885  0.4394  1.6828
   28CHL1    C3 1999   0.158   5.788   6.173  0.2095  0.0457  0.4600
   28CHL1    H3 2000   0.162   5.897   6.191  0.4186  0.1648 -0.2822
   28CHL1    O3 2001   0.120   5.718   6.286  0.1596 -0.8548  0.0823
   28CHL1   H3' 2002   0.034   5.758   6.304  0.0415  0.1234 -2.2341
   28CHL1    C4 2003   0.070   5.752   6.052  0.0023  0.0524  0.4688
   28CHL1   H4A 2004   0.039   5.646   6.051  0.4971 -0.2147 -3.2000
   28CHL1   H4B 2005  -0.024   5.806   6.077 -1.2090 -1.9019  0.3598
   28CHL1    C5 2006   0.123   5.779   5.908 -0.5205 -0.3168  0.5507
   28CHL1    C6 2007   0.040   5.839   5.819  0.0517 -0.5242 -0.3122
   28CHL1    H6 2008  -0.061   5.866   5.854  0.1946  1.3463 -1.2086
   28CHL1    C7 2009   0.067   5.870   5.677  0.3237  0.2284  0.0661
   28CHL1   H7A 2010  -0.004   5.808   5.618  0.3104 -1.4513  1.7545
   28CHL1   H7B 2011   0.057   5.977   5.650 -0.0219  0.0965 -0.3395
   28CHL1    C8 2012   0.210   5.816   5.632  0.3482 -0.1057  0.0429
   28CHL1    H8 2013   0.198   5.710   5.599 -0.6102  0.4733 -1.6250
   28CHL1   C14 2014   0.249   5.894   5.509 -0.1929  0.1342  0.4593
   28CHL1   H14 2015   0.269   5.998   5.541 -0.7877  0.7539 -1.1232
   28CHL1   C15 2016   0.158   5.910   5.385 -0.6811  0.1519  0.1479
   28CHL1  H15A 2017   0.086   5.827   5.363  0.5115 -1.2528  1.3117
   28CHL1  H15B 2018   0.103   6.005   5.403 -0.3050  0.6172 -1.0556
   28CHL1   C16 2019   0.262   5.928   5.274 -0.8673 -1.0758  0.3411
   28CHL1  H16A 2020   0.243   5.840   5.207 -1.4369 -1.5447  1.0943
   28CHL1  H16B 2021   0.243   6.019   5.214  2.8475 -1.0577 -1.0283
   28CHL1   C17 2022   0.405   5.938   5.343  0.0644  0.2772  0.6395
   28CHL1   H17 2023   0.407   6.042   5.383  0.0379  0.8212 -0.7354
   28CHL1   C13 2024   0.391   5.848   5.462 -0.0093  0.1839  0.2373
   28CHL1   C18 2025   0.404   5.700   5.410  0.7534 -1.0300 -0.1566
   28CHL1  H18A 2026   0.386   5.629   5.493 -1.5930  0.0351  0.3328
   28CHL1  H18B 2027   0.338   5.677   5.323 -0.2397  0.6290  0.1030
   28CHL1  H18C 2028   0.505   5.682   5.370  1.1355  0.9105 -0.1735
   28CHL1   C12 2029   0.489   5.864   5.584 -0.6862 -0.3651 -0.3078
   28CHL1  H12A 2030   0.591   5.841   5.549 -0.1561  0.2785  0.7559
   28CHL1  H12B 2031   0.481   5.971   5.614  1.3363 -0.2067 -0.2268
   28CHL1   C11 2032   0.453   5.777   5.697 -0.1400 -0.2602 -0.2409
   28CHL1  H11A 2033   0.464   5.669   5.674 -0.7775 -0.2465 -0.6076
   28CHL1  H11B 2034   0.526   5.794   5.780 -1.9786 -0.2159  1.4327
   28CHL1    C9 2035   0.316   5.809   5.752  0.1343 -0.1209  0.1925
   28CHL1    H9 2036   0.320   5.916   5.782  0.0054  0.1213 -0.6341
   28CHL1   C10 2037   0.273   5.742   5.884  0.3438  0.1160  0.0761
   28CHL1   C19 2038   0.288   5.584   5.860 -0.4768  0.1639  0.1387
   28CHL1  H19A 2039   0.258   5.532   5.953  0.4782  2.4631  1.8065
   28CHL1  H19B 2040   0.244   5.551   5.764  1.3871 -0.3362 -0.5860
   28CHL1  H19C 2041   0.393   5.549   5.850 -0.7217 -0.7432  0.6423
   28CHL1    C1 2042   0.357   5.790   6.004  0.0276 -0.3259  0.7919
   28CHL1   H1A 2043   0.460   5.756   5.982 -0.1069  0.0041 -0.3979
   28CHL1   H1B 2044   0.368   5.901   6.009  0.7623 -0.4479  2.9174
   28CHL1    C2 2045   0.297   5.743   6.145 -0.1228 -0.6859  0.3606
   28CHL1   H2A 2046   0.366   5.788   6.219 -2.4335  1.8922  1.1104
   28CHL1   H2B 2047   0.301   5.632   6.155 -2.5680 -0.8274  0.2578
   28CHL1   C20 2048   0.520   5.932   5.249 -0.9596 -0.5170  0.7995
   28CHL1   H20 2049   0.603   5.882   5.304  0.2703 -0.6001 -1.0473
   28CHL1   C21 2050   0.568   6.079   5.218 -0.4124 -0.3552 -0.3828
   28CHL1  H21A 2051   0.484   6.138   5.176  0.4346  1.2177  0.0640
   28CHL1  H21B 2052   0.650   6.077   5.144 -0.6664  0.7114 -0.7131
   28CHL1  H21C 2053   0.600   6.133   5.310 -2.8530 -1.5080  1.2710
   28CHL1   C22 2054   0.507   5.862   5.109  0.4306  0.4107  0.8998
   28CHL1  H22A 2055   0.433   5.780   5.105  0.0731  0.6575  2.1437
   28CHL1  H22B 2056   0.463   5.934   5.037 -0.9526  0.7209  2.0245
   28CHL1   C23 2057   0.641   5.807   5.055 -0.4007 -0.3077  0.5274
   28CHL1  H23A 2058   0.641   5.790   4.945 -3.5070  2.4951 -0.0804
   28CHL1  H23B 2059   0.724   5.872   5.090  0.5166 -1.7549  1.1139
   28CHL1   C24 2060   0.680   5.675   5.132  0.4663 -0.8127  0.4150
   28CHL1  H24A 2061   0.664   5.682   5.242  2.5830 -1.8940  0.8482
   28CHL1  H24B 2062   0.616   5.591   5.098  0.0378 -1.0257  1.6872
   28CHL1   C25 2063   0.824   5.640   5.114  0.4186 -0.9268  0.1098
   28CHL1   H25 2064   0.879   5.736   5.124 -0.8853  0.1168 -1.9391
   28CHL1   C26 2065   0.873   5.537   5.216  0.0797  0.1217 -0.0670
   28CHL1  H26A 2066   0.984   5.533   5.209 -0.0199  0.1107 -2.4065
   28CHL1  H26B 2067   0.857   5.568   5.321 -0.1816 -1.3622  0.3561
   28CHL1  H26C 2068   0.824   5.439   5.195  2.1351 -1.2235  1.1021
   28CHL1   C27 2069   0.863   5.601   4.973 -0.0616 -0.3803  0.6318
   28CHL1  H27A 2070   0.968   5.564   4.976 -0.2831 -1.5559 -2.1567
   28CHL1  H27B 2071   0.806   5.520   4.922  0.1635  0.3052 -0.7625
   28CHL1  H27C 2072   0.861   5.695   4.914  1.8692 -0.2800  0.6693
   29CHL1    C3 2073   0.738   5.649   3.104 -0.7668 -0.0267  0.5666
   29CHL1    H3 2074   0.807   5.734   3.127 -0.3811 -0.2236  0.1653
   29CHL1    O3 2075   0.716   5.635   2.969  0.0635 -0.4201  1.0871
   29CHL1   H3' 2076   0.669   5.719   2.959  0.2344 -0.4271  0.0888
   29CHL1    C4 2077   0.790   5.511   3.150 -0.1637 -0.4588  0.2489
   29CHL1   H4A 2078   0.735   5.429   3.099  1.6410 -0.9592 -1.0289
   29CHL1   H4B 2079   0.895   5.505   3.112  0.7170  1.2708  2.2540
   29CHL1    C5 2080   0.805   5.500   3.305  0.2624 -0.3218 -0.0028
   29CHL1    C6 2081   0.915   5.491   3.375 -0.2800 -0.7133 -0.2567
   29CHL1    H6 2082   1.014   5.492   3.329  1.3274 -1.0667  2.8964
   29CHL1    C7 2083   0.928   5.491   3.528  0.3615  0.7839  0.0362
   29CHL1   H7A 2084   0.999   5.409   3.554  0.6617  1.3116  0.9480
   29CHL1   H7B 2085   0.976   5.582   3.571  0.7627  0.7694 -0.3687
   29CHL1    C8 2086   0.790   5.452   3.596 -0.3248  0.3220  0.1335
   29CHL1    H8 2087   0.783   5.344   3.574  1.4728  0.3489 -0.7724
   29CHL1   C14 2088   0.797   5.477   3.742 -0.2545 -0.1756  0.4996
   29CHL1   H14 2089   0.828   5.583   3.749  0.9722 -0.5372  0.8686
   29CHL1   C15 2090   0.912   5.414   3.831  0.1664 -0.2411 -0.2003
   29CHL1  H15A 2091   0.913   5.307   3.803 -1.4086 -0.3983  0.2324
   29CHL1  H15B 2092   1.012   5.460   3.823  0.4240 -0.3320  2.0316
   29CHL1   C16 2093   0.852   5.427   3.974  0.7308  0.0483  0.1259
   29CHL1  H16A 2094   0.859   5.340   4.042 -0.8666 -0.5843 -0.4789
   29CHL1  H16B 2095   0.911   5.510   4.018  3.0745 -0.5568 -1.6602
   29CHL1   C17 2096   0.698   5.478   3.954 -0.3368  0.0204 -0.4990
   29CHL1   H17 2097   0.702   5.587   3.970  1.5979 -0.3323  2.0798
   29CHL1   C13 2098   0.659   5.448   3.812 -0.0911 -0.0018  0.2265
   29CHL1   C18 2099   0.616   5.302   3.807 -0.3110  0.4503 -0.3461
   29CHL1  H18A 2100   0.683   5.229   3.857 -2.3253 -1.9962 -1.0022
   29CHL1  H18B 2101   0.514   5.294   3.851  0.1917 -2.8657  0.4316
   29CHL1  H18C 2102   0.605   5.266   3.702 -2.0376 -0.9521  0.2777
   29CHL1   C12 2103   0.558   5.546   3.749  0.5506 -0.4042 -0.6607
   29CHL1  H12A 2104   0.455   5.538   3.791  1.2086 -0.9225  0.9321
   29CHL1  H12B 2105   0.591   5.649   3.773 -0.7895 -0.3127  1.0215
   29CHL1   C11 2106   0.542   5.517   3.602  0.1377  0.6042  1.0746
   29CHL1  H11A 2107   0.502   5.414   3.595 -1.2025  1.1932 -2.9057
   29CHL1  H11B 2108   0.475   5.587   3.548  2.2356  2.8296  1.1669
   29CHL1    C9 2109   0.675   5.528   3.528  0.4651 -0.3654 -0.2676
   29CHL1    H9 2110   0.711   5.631   3.547  1.4473 -0.6531 -0.4841
   29CHL1   C10 2111   0.670   5.514   3.375 -0.0089  0.5598  0.1826
   29CHL1   C19 2112   0.590   5.384   3.340  0.3034 -0.5605 -0.6364
   29CHL1  H19A 2113   0.481   5.398   3.357  0.2754 -1.1329 -0.3084
   29CHL1  H19B 2114   0.590   5.359   3.232 -1.7759  0.6026 -0.9558
   29CHL1  H19C 2115   0.640   5.298   3.389  1.8568 -0.4310 -1.9047
   29CHL1    C1 2116   0.603   5.647   3.323 -0.0720  0.4834 -0.2494
   29CHL1   H1A 2117   0.499   5.657   3.359  0.9342 -0.8445  3.4871
   29CHL1   H1B 2118   0.656   5.733   3.370  0.9399 -1.3166  2.1279
   29CHL1    C2 2119   0.600   5.663   3.171  1.1605  0.1221 -0.2895
   29CHL1   H2A 2120   0.565   5.767   3.152  0.1124  0.0458  1.0497
   29CHL1   H2B 2121   0.525   5.591   3.132  1.0431 -0.3014  0.6974
   29CHL1   C20 2122   0.603   5.421   4.069 -0.0903 -0.6149  0.0910
   29CHL1   H20 2123   0.575   5.314   4.057 -0.5131 -0.5486  0.4723
   29CHL1   C21 2124   0.474   5.505   4.073  0.2407 -0.4447  0.1070
   29CHL1  H21A 2125   0.480   5.615   4.065  0.4534 -0.3323  1.5238
   29CHL1  H21B 2126   0.439   5.476   4.174 -0.5872  0.6719  0.1523
   29CHL1  H21C 2127   0.405   5.473   3.992  1.0027  0.5026 -0.9560
   29CHL1   C22 2128   0.666   5.446   4.213  0.1021  0.5178  0.7357
   29CHL1  H22A 2129   0.776   5.430   4.206 -0.2671 -1.5386 -1.2399
   29CHL1  H22B 2130   0.634   5.545   4.253 -0.3042  0.8561 -0.4018
   29CHL1   C23 2131   0.627   5.343   4.320  0.8587 -0.6433  0.1223
   29CHL1  H23A 2132   0.529   5.374   4.362  1.2418  1.5267 -0.4746
   29CHL1  H23B 2133   0.608   5.247   4.267 -1.9368 -0.3176  0.4133
   29CHL1   C24 2134   0.727   5.339   4.435  0.4968  0.2603 -0.0728
   29CHL1  H24A 2135   0.829   5.335   4.393  0.1930  1.2250 -0.9392
   29CHL1  H24B 2136   0.725   5.436   4.489  1.2834  0.5842 -0.6221
   29CHL1   C25 2137   0.701   5.230   4.537 -0.2889  0.3013 -0.3091
   29CHL1   H25 2138   0.711   5.131   4.486 -0.6330 -0.2691  0.6973
   29CHL1   C26 2139   0.798   5.221   4.653 -0.3530  0.0811  0.8988
   29CHL1  H26A 2140   0.789   5.305   4.725 -1.3239  2.0329 -1.3327
   29CHL1  H26B 2141   0.780   5.122   4.700 -1.1235  0.3118  1.1055
   29CHL1  H26C 2142   0.901   5.221   4.613 -0.7731 -0.2905 -0.2327
   29CHL1   C27 2143   0.563   5.234   4.593  0.4626  0.8103 -0.3703
   29CHL1  H27A 2144   0.489   5.206   4.515 -1.3683 -0.4710  1.7262
   29CHL1  H27B 2145   0.542   5.152   4.664 -0.2234  0.6744 -0.7194
   29CHL1  H27C 2146   0.532   5.335   4.630 -0.9678  0.8605 -1.6148
   30CHL1    C3 2147   1.648   6.522   3.277  0.0277  0.4448 -0.7214
   30CHL1    H3 2148   1.596   6.426   3.298  0.3137  0.3655 -0.3793
   30CHL1    O3 2149   1.703   6.528   3.147 -0.2642 -0.1475 -0.0227
   30CHL1   H3' 2150   1.718   6.622   3.142 -0.0541 -0.0686  1.5742
   30CHL1    C4 2151   1.553   6.643   3.270 -0.3990  0.7300 -0.4569
   30CHL1   H4A 2152   1.603   6.738   3.242  1.1631 -0.0974 -0.5893
   30CHL1   H4B 2153   1.478   6.634   3.187 -1.7340  0.5378  0.7241
   30CHL1    C5 2154   1.487   6.651   3.406  0.3366  0.3939 -0.0696
   30CHL1    C6 2155   1.351   6.645   3.427 -1.2602  0.8707  0.3064
   30CHL1    H6 2156   1.300   6.619   3.332 -0.2298 -1.4779  0.3074
   30CHL1    C7 2157   1.277   6.653   3.553 -0.3342  0.0692  0.4918
   30CHL1   H7A 2158   1.179   6.705   3.543  0.5576  1.7458  0.2124
   30CHL1   H7B 2159   1.252   6.546   3.575  1.4167 -0.6606 -0.8144
   30CHL1    C8 2160   1.366   6.711   3.657 -0.2720 -0.2007 -0.9637
   30CHL1    H8 2161   1.375   6.821   3.645  0.5111 -0.0759  0.5569
   30CHL1   C14 2162   1.300   6.675   3.794  0.0766  0.2062 -0.5110
   30CHL1   H14 2163   1.315   6.564   3.792  0.9051  0.3109 -0.4318
   30CHL1   C15 2164   1.145   6.694   3.809  0.4292 -0.2331  0.2014
   30CHL1  H15A 2165   1.106   6.783   3.754  2.5509 -0.7012 -2.2186
   30CHL1  H15B 2166   1.100   6.602   3.767  0.4674  0.9636 -2.6629
   30CHL1   C16 2167   1.130   6.699   3.960 -0.2900 -0.1656  0.3898
   30CHL1  H16A 2168   1.079   6.794   3.985 -0.4627 -0.4438  1.1166
   30CHL1  H16B 2169   1.068   6.617   4.002 -0.5345  0.5289  1.3928
   30CHL1   C17 2170   1.270   6.694   4.028 -0.5318 -0.2228  0.9757
   30CHL1   H17 2171   1.288   6.586   4.044 -0.9500 -0.4716 -0.1613
   30CHL1   C13 2172   1.368   6.739   3.916 -0.7921  0.0968 -0.6608
   30CHL1   C18 2173   1.376   6.897   3.907 -0.9324 -0.1568 -0.1421
   30CHL1  H18A 2174   1.444   6.930   3.826 -1.9240  2.7529  0.0908
   30CHL1  H18B 2175   1.271   6.931   3.897 -0.8228  0.1363 -0.3140
   30CHL1  H18C 2176   1.423   6.941   3.998 -1.7232  0.1838  0.1059
   30CHL1   C12 2177   1.513   6.671   3.921 -0.1307  0.1627  0.1130
   30CHL1  H12A 2178   1.570   6.714   4.006 -1.4122 -1.0515  1.6503
   30CHL1  H12B 2179   1.515   6.560   3.926  3.1225 -0.2881 -4.7220
   30CHL1   C11 2180   1.595   6.699   3.787 -0.1623 -0.1952 -0.0616
   30CHL1  H11A 2181   1.634   6.802   3.798  0.3817 -0.4427  0.4140
   30CHL1  H11B 2182   1.686   6.635   3.782 -0.2921 -0.2856 -1.9152
   30CHL1    C9 2183   1.512   6.658   3.661  0.1692  0.8142  0.0721
   30CHL1    H9 2184   1.491   6.550   3.672  0.6256  0.3668 -2.6807
   30CHL1   C10 2185   1.584   6.670   3.523 -0.3503  0.2702  0.2365
   30CHL1   C19 2186   1.662   6.805   3.524 -0.8153  0.3489  0.1070
   30CHL1  H19A 2187   1.603   6.896   3.549  0.1233  0.5892  1.5544
   30CHL1  H19B 2188   1.743   6.799   3.599 -0.5423 -2.3786 -0.3191
   30CHL1  H19C 2189   1.716   6.811   3.427  1.1300 -0.8234  1.0800
   30CHL1    C1 2190   1.701   6.558   3.511  0.0772 -0.1220 -0.5849
   30CHL1   H1A 2191   1.780   6.588   3.582 -0.7231 -0.2543  0.3769
   30CHL1   H1B 2192   1.665   6.457   3.538  0.4522 -0.7189 -2.1697
   30CHL1    C2 2193   1.760   6.546   3.375 -0.3375 -0.0557  0.1450
   30CHL1   H2A 2194   1.822   6.455   3.365 -1.5032 -0.8870  0.3091
   30CHL1   H2B 2195   1.815   6.636   3.341 -0.6856 -0.2156 -0.8736
   30CHL1   C20 2196   1.273   6.757   4.164  0.0041 -0.0607 -0.4469
   30CHL1   H20 2197   1.287   6.867   4.165  1.2067 -0.1996  0.6911
   30CHL1   C21 2198   1.397   6.704   4.239 -0.0881 -0.1148 -0.0100
   30CHL1  H21A 2199   1.484   6.736   4.177 -0.3190 -0.6934 -0.6470
   30CHL1  H21B 2200   1.397   6.594   4.255  0.4398 -0.4030 -1.7819
   30CHL1  H21C 2201   1.415   6.745   4.341  1.9337  0.0348 -0.3898
   30CHL1   C22 2202   1.151   6.731   4.250  0.1446  0.2271  0.0675
   30CHL1  H22A 2203   1.067   6.780   4.197 -0.0823  2.3629  2.2444
   30CHL1  H22B 2204   1.140   6.620   4.252 -1.4219  0.2575 -2.1893
   30CHL1   C23 2205   1.144   6.794   4.392  0.3465 -0.1814 -0.1242
   30CHL1  H23A 2206   1.241   6.772   4.441  0.9451 -1.4990 -1.7881
   30CHL1  H23B 2207   1.120   6.903   4.391  0.6104 -0.1156  0.6362
   30CHL1   C24 2208   1.041   6.720   4.480  0.5812 -0.4458 -0.0756
   30CHL1  H24A 2209   0.942   6.730   4.431  0.8410  2.4737 -0.1960
   30CHL1  H24B 2210   1.076   6.614   4.478  1.9801 -0.1121  2.0917
   30CHL1   C25 2211   1.050   6.764   4.626  0.4528  0.3703  0.4485
   30CHL1   H25 2212   1.149   6.727   4.662  0.7930  0.2332 -0.5942
   30CHL1   C26 2213   1.024   6.911   4.647  0.4158 -0.2925  0.3720
   30CHL1  H26A 2214   1.007   6.939   4.753  2.1527  0.0392  0.5851
   30CHL1  H26B 2215   1.108   6.976   4.614 -0.8953  1.3004  0.0148
   30CHL1  H26C 2216   0.937   6.947   4.586  1.1387  0.6004 -0.1722
   30CHL1   C27 2217   0.957   6.679   4.709  0.3346 -0.4483  0.0551
   30CHL1  H27A 2218   0.850   6.693   4.683 -0.4888 -1.1410  2.8171
   30CHL1  H27B 2219   0.980   6.571   4.713  2.0909 -0.1212 -0.3271
   30CHL1  H27C 2220   0.959   6.707   4.816 -3.1831 -1.2603  0.4453
   31CHL1    C3 2221   3.705   5.760   3.343  0.7265 -0.4840  0.6597
   31CHL1    H3 2222   3.811   5.725   3.348  0.4350 -1.4323  0.4986
   31CHL1    O3 2223   3.676   5.812   3.217 -0.6846 -0.3945 -0.0018
   31CHL1   H3' 2224   3.751   5.871   3.203  0.8620 -1.8483  1.7196
   31CHL1    C4 2225   3.606   5.636   3.365  0.0751  0.0414  0.2854
   31CHL1   H4A 2226   3.500   5.669   3.353 -0.2118 -1.4966 -2.1073
   31CHL1   H4B 2227   3.627   5.560   3.286  0.1657  0.0804  0.2723
   31CHL1    C5 2228   3.630   5.572   3.499 -0.3604  0.2716 -0.5267
   31CHL1    C6 2229   3.664   5.440   3.508  0.3437 -0.8752  0.2108
   31CHL1    H6 2230   3.669   5.376   3.419 -1.6189 -0.9766  0.1172
   31CHL1    C7 2231   3.699   5.373   3.638 -0.0505 -0.6345 -0.2956
   31CHL1   H7A 2232   3.668   5.267   3.643 -2.1319 -0.0306  0.7407
   31CHL1   H7B 2233   3.809   5.358   3.642 -0.1804 -1.5791 -0.1794
   31CHL1    C8 2234   3.659   5.460   3.760 -0.0622  0.0136 -0.2819
   31CHL1    H8 2235   3.548   5.453   3.760 -0.2083  1.5254 -2.0203
   31CHL1   C14 2236   3.714   5.396   3.890  0.1133  0.5565  0.1040
   31CHL1   H14 2237   3.825   5.391   3.880  0.0513  0.5027 -0.5811
   31CHL1   C15 2238   3.674   5.251   3.924  0.2781 -0.0240 -0.2395
   31CHL1  H15A 2239   3.563   5.241   3.921 -0.0518  2.1121  2.0731
   31CHL1  H15B 2240   3.731   5.188   3.851 -0.2362 -0.1287 -0.5600
   31CHL1   C16 2241   3.711   5.250   4.072  0.2933  0.6980  0.7344
   31CHL1  H16A 2242   3.616   5.243   4.130  0.3393 -0.7598  0.6755
   31CHL1  H16B 2243   3.784   5.169   4.095  0.8412  0.6128 -1.1495
   31CHL1   C17 2244   3.754   5.387   4.116  0.4229 -0.1959  0.3057
   31CHL1   H17 2245   3.863   5.388   4.098  0.3734  1.1241  0.0181
   31CHL1   C13 2246   3.692   5.486   4.015  0.4178 -0.7452  1.1002
   31CHL1   C18 2247   3.542   5.498   4.042 -0.3907  0.5441  0.0902
   31CHL1  H18A 2248   3.538   5.572   4.125  1.3632  1.4220 -0.5730
   31CHL1  H18B 2249   3.490   5.524   3.947 -0.1463 -2.9723 -1.1553
   31CHL1  H18C 2250   3.506   5.398   4.073  2.0318 -0.6015 -0.5449
   31CHL1   C12 2251   3.764   5.612   3.981  0.0439  0.0941  0.3497
   31CHL1  H12A 2252   3.742   5.677   4.069 -1.6640 -0.4402  0.3617
   31CHL1  H12B 2253   3.873   5.602   3.964  0.2129 -0.1855  1.4900
   31CHL1   C11 2254   3.700   5.693   3.865  0.5652  0.4304 -0.0092
   31CHL1  H11A 2255   3.596   5.726   3.888  0.7438  1.6024 -0.8217
   31CHL1  H11B 2256   3.768   5.780   3.856 -0.2907  0.9621 -1.8134
   31CHL1    C9 2257   3.701   5.603   3.741  0.1249 -0.0055 -0.3541
   31CHL1    H9 2258   3.809   5.591   3.719  0.0222  0.1904 -0.9942
   31CHL1   C10 2259   3.634   5.678   3.616  0.2470 -0.3941 -0.0725
   31CHL1   C19 2260   3.490   5.701   3.649 -0.0793 -0.6639  0.6975
   31CHL1  H19A 2261   3.436   5.744   3.563  0.2686  0.8675  1.2225
   31CHL1  H19B 2262   3.446   5.605   3.684 -0.3249 -0.0470  2.1605
   31CHL1  H19C 2263   3.489   5.772   3.734 -0.7679 -0.1275  0.2514
   31CHL1    C1 2264   3.707   5.822   3.579  0.2221  0.4354  0.8563
   31CHL1   H1A 2265   3.677   5.897   3.655 -2.2616  1.2455 -0.8084
   31CHL1   H1B 2266   3.817   5.803   3.586  0.4943  1.7358  0.4316
   31CHL1    C2 2267   3.677   5.868   3.438  0.6431 -0.3907  0.0676
   31CHL1   H2A 2268   3.734   5.959   3.409 -0.5757 -0.0226 -1.3029
   31CHL1   H2B 2269   3.572   5.903   3.439  0.5336 -0.6210  2.2271
   31CHL1   C20 2270   3.736   5.419   4.269 -0.2859 -0.5888 -0.2152
   31CHL1   H20 2271   3.630   5.452   4.276 -0.2998 -0.6016 -0.3536
   31CHL1   C21 2272   3.821   5.541   4.301 -0.1906 -0.0679  0.4235
   31CHL1  H21A 2273   3.815   5.571   4.407  0.7285 -2.9815  1.3914
   31CHL1  H21B 2274   3.797   5.625   4.232  1.4738 -1.0890 -1.5048
   31CHL1  H21C 2275   3.927   5.512   4.287  0.7888  2.3036  2.2979
   31CHL1   C22 2276   3.773   5.309   4.363 -0.4938 -0.0689  0.3978
   31CHL1  H22A 2277   3.722   5.212   4.347 -0.4778 -0.0633  0.3147
   31CHL1  H22B 2278   3.880   5.280   4.350 -0.8098 -0.7570 -0.7408
   31CHL1   C23 2279   3.739   5.344   4.511  0.7309 -0.5495  0.1500
   31CHL1  H23A 2280   3.813   5.422   4.538 -0.2326  0.6900 -0.7104
   31CHL1  H23B 2281   3.634   5.375   4.527  0.9454 -0.7914  2.2870
   31CHL1   C24 2282   3.771   5.232   4.605  0.4308 -0.0514 -0.7689
   31CHL1  H24A 2283   3.711   5.139   4.594  0.6550 -0.4807  1.1866
   31CHL1  H24B 2284   3.879   5.206   4.597 -0.1591 -2.2512 -3.0545
   31CHL1   C25 2285   3.742   5.269   4.747  0.2855 -0.3027 -0.6122
   31CHL1   H25 2286   3.634   5.291   4.762  0.0680  0.5161 -2.9992
   31CHL1   C26 2287   3.788   5.158   4.841  0.0067  0.5149  0.9261
   31CHL1  H26A 2288   3.727   5.066   4.823  0.3755  0.3030  0.7541
   31CHL1  H26B 2289   3.895   5.149   4.814 -1.0149 -1.4322 -3.3037
   31CHL1  H26C 2290   3.776   5.189   4.947 -0.1287  2.5081  0.3656
   31CHL1   C27 2291   3.831   5.386   4.793  0.0738  0.8520 -0.4815
   31CHL1  H27A 2292   3.815   5.414   4.899 -1.0552 -1.8455  0.1552
   31CHL1  H27B 2293   3.935   5.349   4.781 -0.5295 -0.9869 -0.3392
   31CHL1  H27C 2294   3.814   5.472   4.724 -1.6883 -0.1904 -1.4240
   32CHL1    C3 2295   5.981   4.276   3.306 -0.4198  0.1617 -0.7498
   32CHL1    H3 2296   6.050   4.363   3.308  0.0471 -0.2070 -0.7345
   32CHL1    O3 2297   5.915   4.265   3.179 -0.0961  0.1669  0.4159
   32CHL1   H3' 2298   5.848   4.197   3.190  0.0508 -0.3410 -1.4512
   32CHL1    C4 2299   6.037   4.143   3.351 -0.0395 -0.0074  0.5839
   32CHL1   H4A 2300   5.952   4.072   3.361  1.0036 -1.5659 -0.9997
   32CHL1   H4B 2301   6.104   4.097   3.275 -1.3156 -0.0204 -0.5675
   32CHL1    C5 2302   6.107   4.155   3.485  0.4362 -0.2916  0.1507
   32CHL1    C6 2303   6.234   4.132   3.501 -0.0166  0.6812  0.2167
   32CHL1    H6 2304   6.291   4.096   3.414 -1.0623 -0.5382 -0.0056
   32CHL1    C7 2305   6.309   4.146   3.634 -1.0158 -1.0729  0.2594
   32CHL1   H7A 2306   6.385   4.065   3.641  2.3359  1.6341 -1.8281
   32CHL1   H7B 2307   6.361   4.244   3.638 -0.0036 -1.5813 -0.1690
   32CHL1    C8 2308   6.200   4.136   3.744  0.1230  0.2906  0.5186
   32CHL1    H8 2309   6.162   4.032   3.749  1.6535 -0.4279 -1.2453
   32CHL1   C14 2310   6.272   4.154   3.874 -0.1915  0.3892 -0.7447
   32CHL1   H14 2311   6.323   4.253   3.864  0.1505  0.2029 -0.8858
   32CHL1   C15 2312   6.375   4.051   3.913 -0.4994  0.4727  1.2744
   32CHL1  H15A 2313   6.329   3.952   3.894  2.2169 -0.4880 -0.8850
   32CHL1  H15B 2314   6.469   4.038   3.856 -1.1857 -3.1813  0.7294
   32CHL1   C16 2315   6.403   4.070   4.062 -0.4303 -0.7361 -0.3788
   32CHL1  H16A 2316   6.399   3.975   4.118 -0.1600  1.1327  3.0893
   32CHL1  H16B 2317   6.510   4.098   4.076 -0.5056 -0.4291 -0.3935
   32CHL1   C17 2318   6.291   4.174   4.113  0.8951 -1.3347 -0.8723
   32CHL1   H17 2319   6.340   4.274   4.117 -0.9259 -0.4418  0.3909
   32CHL1   C13 2320   6.185   4.173   4.001  0.6380  0.7310  0.2215
   32CHL1   C18 2321   6.097   4.046   4.024 -0.3966  0.6249  0.1602
   32CHL1  H18A 2322   6.053   4.023   3.924  0.7974 -0.6849 -0.0918
   32CHL1  H18B 2323   6.155   3.955   4.048 -0.3237  0.7842  0.5956
   32CHL1  H18C 2324   6.022   4.064   4.104  0.4981 -0.6895  1.3382
   32CHL1   C12 2325   6.104   4.300   3.983  0.1889 -0.6952  0.6957
   32CHL1  H12A 2326   6.031   4.310   4.066 -1.3717 -2.9007 -0.2839
   32CHL1  H12B 2327   6.162   4.393   3.966  0.2131 -0.6752  0.8851
   32CHL1   C11 2328   6.019   4.288   3.852  0.0160 -0.2242 -0.7144
   32CHL1  H11A 2329   5.930   4.227   3.878 -0.4881  1.1743  1.1079
   32CHL1  H11B 2330   5.972   4.386   3.831  0.5293  0.0132 -0.7578
   32CHL1    C9 2331   6.098   4.244   3.720 -0.3128 -0.1007  0.3939
   32CHL1    H9 2332   6.154   4.337   3.697  0.7445 -1.3738 -2.6999
   32CHL1   C10 2333   6.018   4.206   3.589  1.1964 -0.2101 -0.3789
   32CHL1   C19 2334   5.917   4.096   3.620  0.3201  0.4909  0.2493
   32CHL1  H19A 2335   5.861   4.065   3.529 -0.9588 -1.3277  1.5630
   32CHL1  H19B 2336   5.966   4.004   3.660 -0.1806  0.2348  0.2797
   32CHL1  H19C 2337   5.843   4.125   3.698 -2.3498 -0.3171 -1.8502
   32CHL1    C1 2338   5.942   4.335   3.543  0.3568  0.1792 -0.3297
   32CHL1   H1A 2339   5.880   4.355   3.633 -0.8643 -2.7445 -0.4180
   32CHL1   H1B 2340   6.018   4.415   3.539  0.3388  0.3626  1.7486
   32CHL1    C2 2341   5.874   4.322   3.408  0.4331  0.1961 -0.1682
   32CHL1   H2A 2342   5.832   4.423   3.390 -0.2144  0.2013  1.2169
   32CHL1   H2B 2343   5.789   4.251   3.411  2.1564 -1.9730  0.2222
   32CHL1   C20 2344   6.241   4.140   4.254 -0.1169  0.3873  0.4734
   32CHL1   H20 2345   6.197   4.038   4.257 -2.0077  1.1777  2.7186
   32CHL1   C21 2346   6.121   4.233   4.300  0.2664  0.4506  0.0131
   32CHL1  H21A 2347   6.114   4.224   4.411  1.6470 -1.0243  0.0264
   32CHL1  H21B 2348   6.024   4.203   4.255 -0.3725  0.0614  1.5853
   32CHL1  H21C 2349   6.150   4.330   4.254 -0.9589  0.6293 -0.4063
   32CHL1   C22 2350   6.361   4.144   4.357 -0.1908  0.2411  0.6901
   32CHL1  H22A 2351   6.442   4.074   4.327  1.9087  2.5627  0.6006
   32CHL1  H22B 2352   6.410   4.244   4.354 -0.3401  0.3043 -0.0109
   32CHL1   C23 2353   6.326   4.097   4.498 -0.1413  0.1812 -0.2304
   32CHL1  H23A 2354   6.412   4.099   4.568  1.7253  0.1864 -2.3998
   32CHL1  H23B 2355   6.257   4.177   4.531 -0.4225  0.5862 -1.7103
   32CHL1   C24 2356   6.256   3.960   4.502  0.1439  0.1592 -0.1866
   32CHL1  H24A 2357   6.148   3.959   4.478  0.1636  1.2562 -0.3569
   32CHL1  H24B 2358   6.308   3.903   4.421 -1.3920  1.0010 -1.8116
   32CHL1   C25 2359   6.284   3.899   4.647 -0.4327  0.2922 -0.2745
   32CHL1   H25 2360   6.391   3.902   4.678 -0.6475 -2.2855  0.9435
   32CHL1   C26 2361   6.208   3.982   4.753 -0.6345  0.2357  0.4997
   32CHL1  H26A 2362   6.205   3.927   4.850  2.6849  0.5389  0.8926
   32CHL1  H26B 2363   6.249   4.085   4.765  1.5727 -0.4562 -0.5008
   32CHL1  H26C 2364   6.110   4.002   4.706  0.2403 -1.7133 -2.4501
   32CHL1   C27 2365   6.242   3.758   4.657  0.3565 -0.9269 -0.6014
   32CHL1  H27A 2366   6.261   3.707   4.754  0.5627 -1.9168 -1.1565
   32CHL1  H27B 2367   6.134   3.744   4.635  0.1685 -1.1508  0.4250
   32CHL1  H27C 2368   6.300   3.703   4.581 -3.2473 -0.9160 -3.6523
   33CHL1    C3 2369   4.858   3.958   3.415 -0.4481  0.0674  0.5026
   33CHL1    H3 2370   4.801   4.042   3.462 -0.6462  0.3766 -0.2767
   33CHL1    O3 2371   4.843   3.971   3.274  0.0869  0.4577 -0.6383
   33CHL1   H3' 2372   4.867   3.883   3.243 -0.7282  0.7142 -2.0902
   33CHL1    C4 2373   5.002   3.969   3.445  0.1459  0.1237  0.2951
   33CHL1   H4A 2374   5.049   3.892   3.381 -1.3602 -0.2178 -0.4393
   33CHL1   H4B 2375   5.031   4.072   3.414 -1.1868  1.0091  1.7871
   33CHL1    C5 2376   5.032   3.949   3.592  0.3409  0.2623 -0.2733
   33CHL1    C6 2377   5.095   4.041   3.666  0.2748 -0.3456 -0.7556
   33CHL1    H6 2378   5.126   4.135   3.617  2.3505  0.0829  1.1918
   33CHL1    C7 2379   5.139   4.030   3.809  0.1041 -0.3975 -0.8413
   33CHL1   H7A 2380   5.248   4.051   3.816  0.1781 -1.0253  0.1077
   33CHL1   H7B 2381   5.085   4.109   3.865 -0.4677 -2.3272  1.4639
   33CHL1    C8 2382   5.114   3.893   3.869 -0.3921  0.5952  0.5290
   33CHL1    H8 2383   5.203   3.834   3.839  0.9404  2.3344  0.9261
   33CHL1   C14 2384   5.108   3.904   4.022 -0.1927 -1.1335  0.0850
   33CHL1   H14 2385   5.011   3.953   4.045  0.5837  1.6415 -1.9900
   33CHL1   C15 2386   5.219   3.985   4.094 -0.7134  0.0763 -0.0033
   33CHL1  H15A 2387   5.318   3.955   4.053  0.5448  1.4331  1.8691
   33CHL1  H15B 2388   5.197   4.092   4.078 -5.2546 -0.8063 -0.9706
   33CHL1   C16 2389   5.197   3.946   4.240  0.1463  0.1348 -0.0279
   33CHL1  H16A 2390   5.298   3.923   4.279  0.1133  2.2821  1.4988
   33CHL1  H16B 2391   5.159   4.029   4.304 -1.7194 -1.0766  0.5312
   33CHL1   C17 2392   5.105   3.818   4.244 -0.2481 -0.2137 -0.7306
   33CHL1   H17 2393   5.006   3.856   4.277  0.0624 -1.5270  1.9498
   33CHL1   C13 2394   5.098   3.774   4.101  0.2475 -0.1031  0.7247
   33CHL1   C18 2395   5.222   3.684   4.076 -0.9268 -0.3380 -0.3011
   33CHL1  H18A 2396   5.235   3.673   3.966 -0.8877 -1.7142 -0.1751
   33CHL1  H18B 2397   5.314   3.737   4.108 -0.8894 -0.5820 -0.0008
   33CHL1  H18C 2398   5.218   3.582   4.120  1.7761 -1.8643 -3.1952
   33CHL1   C12 2399   4.975   3.703   4.044  0.5283  0.4508  0.8075
   33CHL1  H12A 2400   4.973   3.602   4.088 -0.0832  1.7022  3.9285
   33CHL1  H12B 2401   4.877   3.750   4.071 -0.9757 -2.4145  0.7645
   33CHL1   C11 2402   4.970   3.694   3.884  0.4803  0.0964 -0.1941
   33CHL1  H11A 2403   5.034   3.614   3.840 -0.7079 -0.2898 -1.2953
   33CHL1  H11B 2404   4.867   3.658   3.862  0.7065 -0.3299 -0.5748
   33CHL1    C9 2405   4.993   3.825   3.808  0.3821  0.0388 -0.3270
   33CHL1    H9 2406   4.920   3.902   3.839 -0.2153 -0.6368 -0.0385
   33CHL1   C10 2407   4.986   3.820   3.658 -0.3209 -0.4019  0.5694
   33CHL1   C19 2408   5.066   3.697   3.609 -0.1388  0.8683  0.5293
   33CHL1  H19A 2409   5.094   3.707   3.502  1.3275 -0.7599  0.7211
   33CHL1  H19B 2410   5.153   3.664   3.669 -1.1335 -1.8734  0.6082
   33CHL1  H19C 2411   4.995   3.612   3.616 -1.6984  1.9914 -0.8045
   33CHL1    C1 2412   4.835   3.800   3.612  0.0098 -0.2255 -1.1334
   33CHL1   H1A 2413   4.809   3.693   3.627 -1.0312  0.2422  0.6998
   33CHL1   H1B 2414   4.770   3.865   3.674  1.3920 -0.1774  0.3384
   33CHL1    C2 2415   4.816   3.819   3.462  0.0991 -0.0920  0.4781
   33CHL1   H2A 2416   4.710   3.807   3.431  0.4741  2.4385 -2.2222
   33CHL1   H2B 2417   4.876   3.741   3.409  0.4525  0.3342  0.2451
   33CHL1   C20 2418   5.145   3.722   4.365  0.2980  0.3908  0.4662
   33CHL1   H20 2419   5.251   3.692   4.346  0.6013  0.5776  1.7665
   33CHL1   C21 2420   5.056   3.599   4.363 -0.7422  0.2004 -0.0006
   33CHL1  H21A 2421   4.950   3.620   4.338 -0.9477 -0.3483  0.3871
   33CHL1  H21B 2422   5.045   3.544   4.459  0.3724  1.2710  0.7700
   33CHL1  H21C 2423   5.088   3.529   4.283 -1.2495  1.7179 -1.6027
   33CHL1   C22 2424   5.136   3.806   4.493  0.2347 -0.1848  0.4021
   33CHL1  H22A 2425   5.177   3.909   4.491 -1.9572  0.7505 -0.0464
   33CHL1  H22B 2426   5.026   3.817   4.509  0.0919 -0.5674 -0.2835
   33CHL1   C23 2427   5.180   3.731   4.619  0.5911 -0.0854 -0.7269
   33CHL1  H23A 2428   5.147   3.625   4.610  0.0007 -0.0332  0.6018
   33CHL1  H23B 2429   5.290   3.741   4.625  0.5146  0.5052 -0.2404
   33CHL1   C24 2430   5.115   3.778   4.749  0.5914 -0.7120 -0.3173
   33CHL1  H24A 2431   5.135   3.886   4.764  0.0429 -0.4392 -1.4568
   33CHL1  H24B 2432   5.004   3.773   4.735  0.0756  2.4340  1.5062
   33CHL1   C25 2433   5.170   3.704   4.880 -0.2828  0.3298 -0.1868
   33CHL1   H25 2434   5.194   3.600   4.851 -0.4188  0.0286  0.7545
   33CHL1   C26 2435   5.294   3.766   4.919 -0.2190  0.3820  1.0246
   33CHL1  H26A 2436   5.371   3.758   4.839  0.7729  0.4410  1.9570
   33CHL1  H26B 2437   5.286   3.874   4.939 -0.5555  0.8592 -1.3261
   33CHL1  H26C 2438   5.331   3.719   5.013 -4.6862 -0.0622  2.8016
   33CHL1   C27 2439   5.061   3.704   4.990  0.2369 -0.4639  0.0361
   33CHL1  H27A 2440   5.088   3.653   5.085 -1.5338  0.4396  1.0775
   33CHL1  H27B 2441   5.040   3.809   5.022  0.3817 -0.8339  1.4118
   33CHL1  H27C 2442   4.969   3.655   4.953  0.6935 -0.0974 -1.7088
   34CHL1    C3 2443   3.719   0.373   3.725 -0.1539  0.6621 -0.1034
   34CHL1    H3 2444   3.768   0.413   3.817 -1.9759 -0.6299  1.5004
   34CHL1    O3 2445   3.760   0.446   3.612 -0.2576 -0.1571  0.5027
   34CHL1   H3' 2446   3.722   0.399   3.538 -0.4744  0.9096 -0.0701
   34CHL1    C4 2447   3.773   0.233   3.719 -0.3281 -0.6010 -0.5588
   34CHL1   H4A 2448   3.753   0.189   3.618 -1.4142 -1.1795 -0.1073
   34CHL1   H4B 2449   3.883   0.241   3.732 -0.3864 -1.2580  0.4532
   34CHL1    C5 2450   3.719   0.137   3.823 -0.0140 -0.4602 -0.5579
   34CHL1    C6 2451   3.799   0.068   3.909  0.5643 -0.2110  0.1348
   34CHL1    H6 2452   3.905   0.067   3.880 -0.2996 -0.2911 -3.5309
   34CHL1    C7 2453   3.750  -0.056   3.983 -0.5697  0.4016 -0.1844
   34CHL1   H7A 2454   3.803  -0.150   3.958 -1.1174  0.4766 -1.6719
   34CHL1   H7B 2455   3.763  -0.041   4.093  4.4902  0.9287 -0.6354
   34CHL1    C8 2456   3.597  -0.084   3.956 -0.2283  0.6975 -0.4676
   34CHL1    H8 2457   3.598  -0.140   3.860 -1.2559 -0.1064 -0.0270
   34CHL1   C14 2458   3.538  -0.173   4.062 -0.2498 -0.6519  0.3996
   34CHL1   H14 2459   3.551  -0.119   4.158 -0.5055 -1.8421  1.1295
   34CHL1   C15 2460   3.595  -0.311   4.084  0.6254  0.1756  0.3014
   34CHL1  H15A 2461   3.606  -0.362   3.986 -2.1125 -1.2457  0.6106
   34CHL1  H15B 2462   3.690  -0.316   4.141  0.3415 -0.0661  0.7557
   34CHL1   C16 2463   3.489  -0.387   4.162  0.3056 -0.1185 -0.1690
   34CHL1  H16A 2464   3.461  -0.484   4.115 -0.9327  0.1578 -0.0251
   34CHL1  H16B 2465   3.528  -0.402   4.265  1.0735  1.0439 -0.2762
   34CHL1   C17 2466   3.356  -0.297   4.166  1.0152 -0.1419  0.3213
   34CHL1   H17 2467   3.368  -0.230   4.254 -1.3513 -0.7479  1.1925
   34CHL1   C13 2468   3.382  -0.195   4.047  0.4296  0.0875 -0.2836
   34CHL1   C18 2469   3.347  -0.277   3.911 -0.3527 -0.1356  0.2186
   34CHL1  H18A 2470   3.388  -0.231   3.818 -0.3643 -0.2075  0.1778
   34CHL1  H18B 2471   3.381  -0.383   3.913  0.9612 -0.0923 -5.0436
   34CHL1  H18C 2472   3.238  -0.271   3.889 -0.4839  2.4542  1.2399
   34CHL1   C12 2473   3.308  -0.065   4.056  0.1011 -0.9601  0.6812
   34CHL1  H12A 2474   3.201  -0.092   4.046  0.2865 -1.6640  0.5164
   34CHL1  H12B 2475   3.327  -0.014   4.152  2.4181  2.5300 -1.3703
   34CHL1   C11 2476   3.357   0.024   3.930 -0.0045 -0.2873 -0.2118
   34CHL1  H11A 2477   3.315  -0.023   3.838 -2.8788 -0.7937  1.2417
   34CHL1  H11B 2478   3.311   0.124   3.936 -4.0386 -2.0431  1.4518
   34CHL1    C9 2479   3.511   0.039   3.933  0.0353 -0.2281 -0.2502
   34CHL1    H9 2480   3.537   0.096   4.024 -0.4560  2.2664 -1.6006
   34CHL1   C10 2481   3.563   0.126   3.817 -0.5296  0.1408  0.1210
   34CHL1   C19 2482   3.522   0.061   3.690 -0.4778 -0.0179 -0.1381
   34CHL1  H19A 2483   3.569   0.120   3.608  0.5629  0.3830  0.7389
   34CHL1  H19B 2484   3.540  -0.048   3.685 -0.3256  0.0386 -1.0395
   34CHL1  H19C 2485   3.413   0.083   3.677 -0.8183 -0.2576  2.0146
   34CHL1    C1 2486   3.511   0.278   3.833 -0.0966  0.2532 -0.0023
   34CHL1   H1A 2487   3.400   0.270   3.829 -0.1475  1.1165 -0.8781
   34CHL1   H1B 2488   3.523   0.305   3.940 -0.2603 -1.0604  0.3655
   34CHL1    C2 2489   3.567   0.369   3.728 -0.0955 -0.3526  0.1205
   34CHL1   H2A 2490   3.523   0.469   3.746  1.8337  0.4175  0.8114
   34CHL1   H2B 2491   3.541   0.335   3.625  0.2999 -0.7315  0.1459
   34CHL1   C20 2492   3.225  -0.374   4.181 -0.5796 -0.3155  0.5670
   34CHL1   H20 2493   3.199  -0.435   4.092 -2.2980  1.9286 -0.5663
   34CHL1   C21 2494   3.105  -0.288   4.202 -0.8913  0.1880 -0.0970
   34CHL1  H21A 2495   3.072  -0.238   4.108 -1.4408 -1.0263 -0.5858
   34CHL1  H21B 2496   3.113  -0.222   4.290 -0.5864  2.1096 -1.4986
   34CHL1  H21C 2497   3.025  -0.360   4.232 -0.2642  0.6187  2.9182
   34CHL1   C22 2498   3.226  -0.469   4.299  0.6919 -0.1044 -0.5917
   34CHL1  H22A 2499   3.122  -0.502   4.317  0.3085  1.6490  0.6628
   34CHL1  H22B 2500   3.271  -0.564   4.264  0.6694 -0.6696  0.8334
   34CHL1   C23 2501   3.284  -0.441   4.437  0.3636 -0.2008 -0.1135
   34CHL1  H23A 2502   3.395  -0.436   4.439  0.4850 -1.1536 -2.1073
   34CHL1  H23B 2503   3.258  -0.336   4.463 -0.2820 -1.1410  3.7850
   34CHL1   C24 2504   3.234  -0.528   4.549 -0.2424  0.1215 -0.5669
   34CHL1  H24A 2505   3.133  -0.505   4.590  0.7273  1.7150  1.1271
   34CHL1  H24B 2506   3.218  -0.631   4.511 -0.0374 -0.2039  0.2068
   34CHL1   C25 2507   3.335  -0.555   4.656  0.0672 -0.3394  1.2081
   34CHL1   H25 2508   3.370  -0.457   4.696 -0.5128  0.1616  0.5120
   34CHL1   C26 2509   3.274  -0.638   4.766  0.0402 -0.0937  0.1676
   34CHL1  H26A 2510   3.254  -0.744   4.740  0.6975 -0.1890  0.0385
   34CHL1  H26B 2511   3.322  -0.635   4.866 -0.6277 -1.6118  0.5572
   34CHL1  H26C 2512   3.177  -0.590   4.793 -1.6890 -3.7219  1.0088
   34CHL1   C27 2513   3.460  -0.640   4.600 -0.1255 -0.6030 -0.5629
   34CHL1  H27A 2514   3.424  -0.718   4.529  0.0999 -0.8678 -0.3876
   34CHL1  H27B 2515   3.531  -0.571   4.549  0.1660 -0.5792 -0.1312
   34CHL1  H27C 2516   3.500  -0.693   4.688 -0.6682  1.3345  0.9224
   35CHL1    C3 2517   6.671   0.518   2.873 -0.3284  0.1300  0.2149
   35CHL1    H3 2518   6.710   0.417   2.899 -3.5929 -1.8609 -1.9133
   35CHL1    O3 2519   6.665   0.511   2.734 -0.3821 -0.0397  0.9081
   35CHL1   H3' 2520   6.589   0.561   2.702 -0.0788 -0.9652 -1.4288
   35CHL1    C4 2521   6.534   0.534   2.933  0.2116  0.8597 -0.2562
   35CHL1   H4A 2522   6.483   0.613   2.873  0.8731 -0.7008 -3.0455
   35CHL1   H4B 2523   6.473   0.443   2.911  1.3451  0.0202  0.0033
   35CHL1    C5 2524   6.538   0.548   3.091  0.7372 -0.3411 -0.1271
   35CHL1    C6 2525   6.469   0.462   3.172 -0.1587 -0.1462  0.2307
   35CHL1    H6 2526   6.410   0.382   3.125  3.3343 -0.5933 -4.0929
   35CHL1    C7 2527   6.472   0.474   3.325 -0.3728 -0.6410  1.3192
   35CHL1   H7A 2528   6.371   0.484   3.370 -0.2189  1.1305  1.3238
   35CHL1   H7B 2529   6.511   0.377   3.364  2.7561  0.6435  1.7424
   35CHL1    C8 2530   6.551   0.593   3.382  0.0424  0.4491  0.4728
   35CHL1    H8 2531   6.475   0.674   3.372  1.6773  2.0012  0.0271
   35CHL1   C14 2532   6.601   0.582   3.519  1.1112  0.4465 -0.6641
   35CHL1   H14 2533   6.684   0.509   3.518  0.3018 -0.5385  0.3870
   35CHL1   C15 2534   6.496   0.522   3.622 -0.5678  0.0444  0.4087
   35CHL1  H15A 2535   6.394   0.565   3.614 -1.4190 -1.9219 -0.0049
   35CHL1  H15B 2536   6.490   0.411   3.615  0.1206  0.0100  0.3316
   35CHL1   C16 2537   6.551   0.561   3.760 -0.0992 -0.1855  0.1352
   35CHL1  H16A 2538   6.466   0.605   3.817 -0.4349 -0.1510 -0.3872
   35CHL1  H16B 2539   6.594   0.469   3.805 -0.6586 -1.0698 -1.0943
   35CHL1   C17 2540   6.672   0.653   3.728 -0.2965 -0.3558  0.0226
   35CHL1   H17 2541   6.764   0.590   3.725  0.6846  1.0603 -0.9115
   35CHL1   C13 2542   6.653   0.711   3.592 -0.6822  0.6235 -0.1179
   35CHL1   C18 2543   6.549   0.821   3.585 -0.5715  0.2424 -0.1999
   35CHL1  H18A 2544   6.456   0.796   3.639 -2.1358  0.5097 -2.6176
   35CHL1  H18B 2545   6.584   0.919   3.624 -0.2530  1.0587 -2.3925
   35CHL1  H18C 2546   6.521   0.837   3.479 -0.6090 -0.5935 -0.3263
   35CHL1   C12 2547   6.787   0.738   3.509  0.0349  0.1486 -0.4480
   35CHL1  H12A 2548   6.847   0.828   3.534 -1.9180  1.1839  0.7226
   35CHL1  H12B 2549   6.849   0.647   3.523  0.0891  0.2902  0.2853
   35CHL1   C11 2550   6.763   0.754   3.360 -0.3975 -0.1045  0.6635
   35CHL1  H11A 2551   6.708   0.847   3.338 -3.3077 -1.8862 -0.1523
   35CHL1  H11B 2552   6.861   0.759   3.308 -1.0064 -1.0478 -0.6649
   35CHL1    C9 2553   6.673   0.639   3.297  0.1905  0.3537  0.7362
   35CHL1    H9 2554   6.733   0.545   3.302 -3.1605 -1.9881  0.1056
   35CHL1   C10 2555   6.639   0.652   3.146  0.2005 -0.4209  0.0406
   35CHL1   C19 2556   6.561   0.782   3.117  0.3004 -0.4913 -0.7871
   35CHL1  H19A 2557   6.472   0.783   3.184  1.5192 -1.7365  0.9455
   35CHL1  H19B 2558   6.629   0.869   3.132 -0.1053 -0.3852  0.5870
   35CHL1  H19C 2559   6.525   0.790   3.012 -1.0663  2.3407 -0.2147
   35CHL1    C1 2560   6.773   0.650   3.067 -0.1091 -0.2044 -0.2869
   35CHL1   H1A 2561   6.837   0.737   3.094  0.7482 -1.2687  1.2677
   35CHL1   H1B 2562   6.837   0.568   3.107  1.1128 -0.7247 -3.0696
   35CHL1    C2 2563   6.759   0.637   2.914 -0.1931 -0.3221  0.5952
   35CHL1   H2A 2564   6.862   0.620   2.877  0.0653  0.1684  1.0898
   35CHL1   H2B 2565   6.719   0.729   2.866  1.5362 -0.9770 -2.3440
   35CHL1   C20 2566   6.698   0.758   3.834  0.3408 -0.0358  0.4661
   35CHL1   H20 2567   6.617   0.834   3.825 -1.6157 -1.9850  0.8127
   35CHL1   C21 2568   6.837   0.821   3.816 -0.2199  0.0055  0.5897
   35CHL1  H21A 2569   6.835   0.894   3.732  0.1764 -2.4659 -1.6655
   35CHL1  H21B 2570   6.903   0.733   3.802 -2.6237 -1.9928  1.1290
   35CHL1  H21C 2571   6.869   0.874   3.909  0.7141  1.2352 -0.3853
   35CHL1   C22 2572   6.692   0.696   3.972 -0.1835  0.1075  0.3975
   35CHL1  H22A 2573   6.606   0.627   3.982  0.1536 -0.1494  1.7443
   35CHL1  H22B 2574   6.775   0.628   4.004  0.3704  0.5274 -0.1333
   35CHL1   C23 2575   6.692   0.800   4.083  0.5755 -0.7137 -0.6811
   35CHL1  H23A 2576   6.795   0.837   4.098  0.3792 -0.3979 -0.0861
   35CHL1  H23B 2577   6.628   0.881   4.041  0.4793 -1.4397 -2.0042
   35CHL1   C24 2578   6.641   0.750   4.213 -0.0990  0.0551 -0.4186
   35CHL1  H24A 2579   6.549   0.699   4.178 -0.3564 -0.4695  0.9791
   35CHL1  H24B 2580   6.699   0.662   4.247 -0.7816 -0.2539 -0.0377
   35CHL1   C25 2581   6.612   0.858   4.321 -0.3114  0.0791 -0.0178
   35CHL1   H25 2582   6.513   0.903   4.301 -0.4914 -0.1723  0.3086
   35CHL1   C26 2583   6.592   0.780   4.453 -0.5685  0.0692  0.1594
   35CHL1  H26A 2584   6.502   0.717   4.442  0.0028 -0.2892 -4.4338
   35CHL1  H26B 2585   6.683   0.716   4.462 -1.5252 -1.2799  0.5277
   35CHL1  H26C 2586   6.580   0.844   4.543  0.8198 -0.5111  0.7891
   35CHL1   C27 2587   6.723   0.964   4.341 -0.1581  0.1597 -0.9412
   35CHL1  H27A 2588   6.694   1.021   4.432 -0.0758  0.8924 -1.3632
   35CHL1  H27B 2589   6.824   0.921   4.353  0.6504  1.6854 -1.9226
   35CHL1  H27C 2590   6.720   1.035   4.256  0.2616 -1.7565 -2.6371
   36CHL1    C3 2591   2.651   4.090   3.406  0.1970  0.2749  0.6361
   36CHL1    H3 2592   2.650   3.981   3.431 -0.5944  0.6061  2.1439
   36CHL1    O3 2593   2.689   4.105   3.268 -0.2794  0.3147 -0.1306
   36CHL1   H3' 2594   2.717   4.197   3.260  1.7638 -0.1533  1.1306
   36CHL1    C4 2595   2.515   4.153   3.435 -0.1635 -0.1499 -0.3202
   36CHL1   H4A 2596   2.521   4.260   3.406  1.5330  0.0560  0.6382
   36CHL1   H4B 2597   2.448   4.091   3.371 -1.4297  1.0262 -0.1785
   36CHL1    C5 2598   2.479   4.151   3.582  0.1792  0.1533 -0.0104
   36CHL1    C6 2599   2.361   4.103   3.619 -0.4478 -0.1544 -0.3287
   36CHL1    H6 2600   2.294   4.059   3.544 -1.0622 -0.3026  0.2951
   36CHL1    C7 2601   2.316   4.089   3.762  0.6024 -0.7651  0.3780
   36CHL1   H7A 2602   2.212   4.124   3.773  0.0766 -1.2960 -2.3597
   36CHL1   H7B 2603   2.320   3.980   3.782 -1.2060 -1.1789 -1.2668
   36CHL1    C8 2604   2.412   4.172   3.861  0.1880 -0.0719 -0.3511
   36CHL1    H8 2605   2.365   4.273   3.856  2.0416  0.9542  1.3471
   36CHL1   C14 2606   2.396   4.122   4.006  0.4277  0.4443  0.8515
   36CHL1   H14 2607   2.442   4.021   3.998  2.6686  1.5967 -3.3929
   36CHL1   C15 2608   2.253   4.103   4.059 -0.1597  0.5509 -0.4093
   36CHL1  H15A 2609   2.193   4.194   4.036 -0.4817  0.2643 -0.7120
   36CHL1  H15B 2610   2.195   4.016   4.022 -0.1668 -0.5379  1.9484
   36CHL1   C16 2611   2.274   4.099   4.216  0.2439  0.0003  0.4351
   36CHL1  H16A 2612   2.219   4.178   4.273  1.5177 -0.2056  2.0291
   36CHL1  H16B 2613   2.251   3.997   4.253  2.6569 -1.2993 -1.3560
   36CHL1   C17 2614   2.428   4.119   4.240  0.4727 -0.3310  0.1967
   36CHL1   H17 2615   2.491   4.028   4.229  2.7964  1.3086 -0.9155
   36CHL1   C13 2616   2.474   4.193   4.112 -0.7454 -0.7417 -0.0782
   36CHL1   C18 2617   2.419   4.343   4.111  0.1788  0.3354 -0.6380
   36CHL1  H18A 2618   2.470   4.391   4.197  0.8232 -4.2137  1.8225
   36CHL1  H18B 2619   2.429   4.389   4.010 -1.4657  1.2876 -0.3976
   36CHL1  H18C 2620   2.312   4.355   4.138  0.4276  1.8348 -0.2122
   36CHL1   C12 2621   2.624   4.190   4.075  0.0294  0.4471 -0.2633
   36CHL1  H12A 2622   2.678   4.264   4.138  1.7369 -0.3899 -0.6749
   36CHL1  H12B 2623   2.675   4.092   4.084 -1.7943 -0.3813  1.9944
   36CHL1   C11 2624   2.644   4.245   3.928  0.0378 -0.4903 -0.2928
   36CHL1  H11A 2625   2.608   4.350   3.932  2.2613  0.3166  2.5673
   36CHL1  H11B 2626   2.753   4.250   3.907 -0.2920 -2.0488 -2.7337
   36CHL1    C9 2627   2.560   4.164   3.821  0.0878 -0.4460 -0.5850
   36CHL1    H9 2628   2.595   4.060   3.834 -0.4017 -0.6198 -0.6660
   36CHL1   C10 2629   2.584   4.208   3.675 -0.8275 -0.3312  0.0106
   36CHL1   C19 2630   2.575   4.356   3.666  0.2392  0.2731 -0.2596
   36CHL1  H19A 2631   2.476   4.391   3.702 -0.5342 -0.7439 -1.3075
   36CHL1  H19B 2632   2.652   4.400   3.733 -0.3505  0.8116  0.0742
   36CHL1  H19C 2633   2.580   4.388   3.559 -0.2141 -0.3992 -0.4902
   36CHL1    C1 2634   2.727   4.160   3.637  0.1749 -0.0126  0.0756
   36CHL1   H1A 2635   2.790   4.233   3.692 -0.8786 -0.1309  1.4631
   36CHL1   H1B 2636   2.747   4.063   3.687  0.3707  0.6255  1.2545
   36CHL1    C2 2637   2.760   4.153   3.493  0.3737  0.0955 -0.0087
   36CHL1   H2A 2638   2.855   4.095   3.489  1.0240  0.9233  2.1093
   36CHL1   H2B 2639   2.782   4.258   3.465  0.2996  0.0665 -0.1734
   36CHL1   C20 2640   2.462   4.179   4.373 -0.8433  0.0130  1.0460
   36CHL1   H20 2641   2.412   4.278   4.380 -0.0101  0.4834  0.5328
   36CHL1   C21 2642   2.609   4.210   4.394  0.2007 -0.0471  0.7304
   36CHL1  H21A 2643   2.638   4.233   4.499  2.6261  0.2044  0.0763
   36CHL1  H21B 2644   2.636   4.291   4.324  0.5822 -0.1142  0.7931
   36CHL1  H21C 2645   2.664   4.115   4.375  0.1861  0.2367 -0.8267
   36CHL1   C22 2646   2.401   4.096   4.489  0.1183 -0.5084  0.1957
   36CHL1  H22A 2647   2.425   4.151   4.582 -0.2022  0.3802 -0.2338
   36CHL1  H22B 2648   2.290   4.103   4.482  0.1215  1.1712  1.1478
   36CHL1   C23 2649   2.447   3.954   4.504 -0.3927 -0.1645  0.0345
   36CHL1  H23A 2650   2.461   3.907   4.404 -0.6172 -1.7164  0.6905
   36CHL1  H23B 2651   2.546   3.960   4.555 -1.3254  0.1685  1.8497
   36CHL1   C24 2652   2.356   3.883   4.599 -0.3160  0.1376 -0.2893
   36CHL1  H24A 2653   2.367   3.938   4.695 -1.4211 -0.3873  0.1537
   36CHL1  H24B 2654   2.255   3.896   4.555  0.6675 -1.7340 -3.4076
   36CHL1   C25 2655   2.369   3.731   4.619 -1.0763  0.5104 -0.1664
   36CHL1   H25 2656   2.472   3.707   4.652 -0.5438  0.3464 -1.8478
   36CHL1   C26 2657   2.282   3.687   4.737  0.5577 -0.8838  0.1169
   36CHL1  H26A 2658   2.310   3.590   4.784 -0.9127 -1.0060  0.8049
   36CHL1  H26B 2659   2.290   3.753   4.826  0.2872  0.7600 -1.0294
   36CHL1  H26C 2660   2.173   3.694   4.717  0.2224 -0.6213  1.8758
   36CHL1   C27 2661   2.349   3.652   4.485 -0.2848 -0.3597 -0.5477
   36CHL1  H27A 2662   2.246   3.674   4.449  0.1024 -1.0444 -2.1629
   36CHL1  H27B 2663   2.427   3.669   4.408  1.8722  1.7275  1.9192
   36CHL1  H27C 2664   2.348   3.542   4.503 -2.0991  0.1383  3.5803
   37CHL1    C3 2665   4.483   4.782   3.313  0.2364 -0.0475  0.1200
   37CHL1    H3 2666   4.565   4.852   3.342  0.3881 -0.9348  1.9588
   37CHL1    O3 2667   4.484   4.772   3.164 -0.1704 -0.2959  0.1130
   37CHL1   H3' 2668   4.475   4.678   3.145  1.9969 -0.4577 -0.3136
   37CHL1    C4 2669   4.507   4.643   3.379  0.8532  0.2134 -0.1839
   37CHL1   H4A 2670   4.436   4.568   3.337  0.2917  1.1371 -0.9431
   37CHL1   H4B 2671   4.604   4.592   3.365  0.9032  0.1791  0.2886
   37CHL1    C5 2672   4.489   4.666   3.527  0.3056  0.0628  0.3624
   37CHL1    C6 2673   4.592   4.636   3.604 -0.2165  0.2836  0.4579
   37CHL1    H6 2674   4.687   4.607   3.558  0.0363  1.1944  0.3690
   37CHL1    C7 2675   4.586   4.635   3.758 -0.3588 -0.5427  0.1568
   37CHL1   H7A 2676   4.629   4.539   3.795 -0.6728 -0.3507  1.0600
   37CHL1   H7B 2677   4.643   4.725   3.789 -1.0790 -0.7160  2.1649
   37CHL1    C8 2678   4.438   4.652   3.811  0.1698  0.1564  0.1531
   37CHL1    H8 2679   4.383   4.558   3.789  0.5863 -0.1315  0.3133
   37CHL1   C14 2680   4.430   4.688   3.956  0.4998  0.3081 -0.4563
   37CHL1   H14 2681   4.491   4.780   3.968  0.3300  0.0791  3.5640
   37CHL1   C15 2682   4.498   4.597   4.057 -0.7247  0.7698  0.6228
   37CHL1  H15A 2683   4.476   4.493   4.026 -0.0793 -0.3602  3.6085
   37CHL1  H15B 2684   4.607   4.622   4.051 -0.9216  1.6497  0.5209
   37CHL1   C16 2685   4.433   4.625   4.189 -0.8743 -0.0801  0.2537
   37CHL1  H16A 2686   4.387   4.530   4.222  2.3001 -1.7962  0.1003
   37CHL1  H16B 2687   4.511   4.640   4.266 -0.2461 -1.7939 -0.0158
   37CHL1   C17 2688   4.322   4.733   4.174 -0.6292  0.6654  0.2478
   37CHL1   H17 2689   4.375   4.829   4.190  0.3138  0.1020  0.5387
   37CHL1   C13 2690   4.290   4.718   4.023 -0.5987 -0.3257 -0.1560
   37CHL1   C18 2691   4.190   4.597   4.004 -0.2673 -0.4435  0.6868
   37CHL1  H18A 2692   4.083   4.625   4.014 -0.1491 -0.1948  1.3290
   37CHL1  H18B 2693   4.197   4.558   3.900 -1.5095  0.7024  0.1278
   37CHL1  H18C 2694   4.218   4.516   4.074  0.7540  0.9354  1.9384
   37CHL1   C12 2695   4.237   4.840   3.950 -0.2347 -0.9609 -0.0518
   37CHL1  H12A 2696   4.139   4.881   3.983 -0.4018  0.2915 -1.9486
   37CHL1  H12B 2697   4.310   4.923   3.968 -0.7295 -0.0215 -2.0717
   37CHL1   C11 2698   4.235   4.806   3.802  0.8452 -0.0444 -0.1515
   37CHL1  H11A 2699   4.152   4.736   3.783  2.0505 -1.2379 -1.2600
   37CHL1  H11B 2700   4.215   4.902   3.749 -0.8120 -0.6713 -0.7297
   37CHL1    C9 2701   4.362   4.754   3.729 -0.0885 -0.3105  0.3430
   37CHL1    H9 2702   4.419   4.848   3.740 -1.5222  0.6905 -0.5155
   37CHL1   C10 2703   4.357   4.714   3.579 -0.1282 -0.6825  0.9884
   37CHL1   C19 2704   4.242   4.612   3.569  0.1831 -0.4890  0.5678
   37CHL1  H19A 2705   4.224   4.597   3.460 -0.5353  1.7426  0.3138
   37CHL1  H19B 2706   4.272   4.518   3.620  1.9276 -0.5732 -0.5059
   37CHL1  H19C 2707   4.148   4.650   3.614 -0.7462 -2.8225  0.7313
   37CHL1    C1 2708   4.327   4.842   3.495 -0.3305 -0.3690  0.3827
   37CHL1   H1A 2709   4.221   4.868   3.517 -0.1645 -1.0508  2.2110
   37CHL1   H1B 2710   4.390   4.924   3.536 -1.6188  1.7926 -1.7210
   37CHL1    C2 2711   4.343   4.830   3.345  0.2187 -0.5157  0.8860
   37CHL1   H2A 2712   4.308   4.919   3.289  0.3026 -0.4646  0.9145
   37CHL1   H2B 2713   4.269   4.755   3.312 -0.6359 -0.0654  1.7314
   37CHL1   C20 2714   4.217   4.720   4.276  0.7060 -0.4037 -0.5591
   37CHL1   H20 2715   4.172   4.620   4.258  0.3375  0.1249 -2.8871
   37CHL1   C21 2716   4.114   4.828   4.239  0.0475 -0.2095  0.1282
   37CHL1  H21A 2717   4.035   4.840   4.316 -1.2293 -0.9791 -1.0200
   37CHL1  H21B 2718   4.056   4.800   4.148 -0.1377  0.0850  0.1530
   37CHL1  H21C 2719   4.177   4.918   4.219 -1.3802  0.7693 -0.0781
   37CHL1   C22 2720   4.277   4.754   4.419 -0.2860  0.1951 -0.5494
   37CHL1  H22A 2721   4.368   4.694   4.443 -1.9231 -1.4099  2.0244
   37CHL1  H22B 2722   4.323   4.855   4.414  0.3648  0.1320  2.5943
   37CHL1   C23 2723   4.189   4.756   4.539  0.1180 -0.8854 -0.7503
   37CHL1  H23A 2724   4.113   4.836   4.528  0.9428  0.6587  3.1548
   37CHL1  H23B 2725   4.136   4.660   4.554  1.6228 -1.4576  1.3131
   37CHL1   C24 2726   4.266   4.793   4.673 -0.0075 -0.1330 -0.0716
   37CHL1  H24A 2727   4.354   4.726   4.680 -0.8185 -1.2088  0.0458
   37CHL1  H24B 2728   4.306   4.896   4.658 -0.1487  0.1695  1.4310
   37CHL1   C25 2729   4.178   4.797   4.797  0.2264 -0.4511  0.1209
   37CHL1   H25 2730   4.140   4.693   4.805 -1.4946 -0.0579 -2.1025
   37CHL1   C26 2731   4.264   4.832   4.913  0.0158  0.2781 -0.2008
   37CHL1  H26A 2732   4.328   4.744   4.933 -0.4121  0.2766  1.2807
   37CHL1  H26B 2733   4.316   4.927   4.889 -0.8829  0.7313 -0.3890
   37CHL1  H26C 2734   4.197   4.843   5.001 -0.4544 -0.5249 -0.4508
   37CHL1   C27 2735   4.056   4.887   4.793  0.8544 -0.7049  0.2579
   37CHL1  H27A 2736   4.073   4.991   4.758 -0.4073 -0.7552 -0.5875
   37CHL1  H27B 2737   3.983   4.835   4.727  0.3892 -0.4896  0.5968
   37CHL1  H27C 2738   4.010   4.886   4.894  2.0382  0.5763  0.8218
   38CHL1    C3 2739   0.312   5.762   2.935 -0.0643  0.4912  0.3378
   38CHL1    H3 2740   0.416   5.741   2.969 -0.4725 -1.4956  0.5172
   38CHL1    O3 2741   0.303   5.753   2.792  0.2902 -0.3589 -0.1538
   38CHL1   H3' 2742   0.209   5.750   2.772  0.1238 -0.6011  0.6301
   38CHL1    C4 2743   0.225   5.647   2.993 -0.6873  0.3217  0.4834
   38CHL1   H4A 2744   0.126   5.643   2.943 -0.9043 -4.9295  0.7856
   38CHL1   H4B 2745   0.269   5.548   2.968 -1.0105  0.3430 -0.1776
   38CHL1    C5 2746   0.208   5.653   3.143  0.2486  0.8232  0.0538
   38CHL1    C6 2747   0.231   5.548   3.225 -0.2712 -0.1755  0.2701
   38CHL1    H6 2748   0.244   5.447   3.184 -3.4537 -0.2343 -0.9151
   38CHL1    C7 2749   0.203   5.546   3.374  0.6436 -0.1291 -0.6951
   38CHL1   H7A 2750   0.150   5.461   3.422  0.0209  0.6442  0.0309
   38CHL1   H7B 2751   0.304   5.530   3.416 -1.2569 -1.6525  3.9897
   38CHL1    C8 2752   0.131   5.671   3.430 -0.3086 -0.4343  0.0417
   38CHL1    H8 2753   0.023   5.655   3.411 -0.1489 -0.1491 -1.2000
   38CHL1   C14 2754   0.176   5.694   3.577 -0.9390 -0.5415  0.3978
   38CHL1   H14 2755   0.281   5.732   3.579 -0.2901 -2.1552 -0.4810
   38CHL1   C15 2756   0.178   5.576   3.678 -0.2123 -0.1028  0.5668
   38CHL1  H15A 2757   0.092   5.508   3.659  0.8539 -1.3859  0.2284
   38CHL1  H15B 2758   0.269   5.514   3.667  1.0825  1.8101  0.0461
   38CHL1   C16 2759   0.171   5.642   3.816  0.1530  0.3581 -0.2913
   38CHL1  H16A 2760   0.083   5.601   3.870  0.9485 -0.8849  0.1137
   38CHL1  H16B 2761   0.260   5.613   3.875  0.0327  0.0328 -0.2629
   38CHL1   C17 2762   0.151   5.790   3.789 -0.3552 -1.1207  0.8946
   38CHL1   H17 2763   0.251   5.839   3.782 -1.9578  2.1755 -1.7846
   38CHL1   C13 2764   0.090   5.799   3.643 -0.4468 -0.7377 -0.2309
   38CHL1   C18 2765  -0.061   5.756   3.652  0.4339  0.6963  0.4319
   38CHL1  H18A 2766  -0.071   5.660   3.708  2.3207 -0.1680 -0.6096
   38CHL1  H18B 2767  -0.128   5.817   3.717 -0.5157  0.1329  0.0009
   38CHL1  H18C 2768  -0.093   5.746   3.546  3.0625 -0.5860 -0.3231
   38CHL1   C12 2769   0.106   5.933   3.564  0.1131 -0.4070  0.4718
   38CHL1  H12A 2770   0.017   5.987   3.603 -0.8928 -2.2422  0.8094
   38CHL1  H12B 2771   0.194   5.991   3.601 -1.6976  2.1387  1.0873
   38CHL1   C11 2772   0.094   5.925   3.409 -0.7216  0.1625  0.0934
   38CHL1  H11A 2773  -0.014   5.910   3.390 -0.2490 -1.0734 -1.9332
   38CHL1  H11B 2774   0.130   6.020   3.362 -3.8889  1.6763  0.4593
   38CHL1    C9 2775   0.172   5.795   3.351  0.0475  1.0289  0.3445
   38CHL1    H9 2776   0.278   5.821   3.370 -0.0725  2.1448 -0.4199
   38CHL1   C10 2777   0.167   5.787   3.202  0.4092  0.7791  0.0611
   38CHL1   C19 2778   0.024   5.813   3.160  0.4976  0.2566  0.4577
   38CHL1  H19A 2779   0.007   5.799   3.051  2.5308 -0.7670  0.2261
   38CHL1  H19B 2780  -0.047   5.745   3.212 -1.7119  2.7233  0.8872
   38CHL1  H19C 2781  -0.014   5.917   3.172 -0.9297  0.3702 -3.4008
   38CHL1    C1 2782   0.250   5.896   3.142  0.7009 -0.0725  0.4240
   38CHL1   H1A 2783   0.215   5.998   3.168 -0.6021 -0.4006  0.0246
   38CHL1   H1B 2784   0.352   5.884   3.185  0.2751 -0.7884  1.2582
   38CHL1    C2 2785   0.258   5.895   2.989  0.4246 -0.4615  0.2401
   38CHL1   H2A 2786   0.330   5.974   2.956  0.0263 -0.0349  0.3773
   38CHL1   H2B 2787   0.160   5.909   2.939  1.7846 -0.7503 -2.7387
   38CHL1   C20 2788   0.073   5.851   3.905  0.8624  0.0889  0.0664
   38CHL1   H20 2789  -0.027   5.804   3.920  1.0565 -0.1567  0.5959
   38CHL1   C21 2790   0.043   6.004   3.885  0.4014 -0.1637  0.9173
   38CHL1  H21A 2791  -0.024   6.024   3.798  1.3912  2.0163  0.5881
   38CHL1  H21B 2792   0.142   6.049   3.863  1.3334 -1.7834  1.6546
   38CHL1  H21C 2793  -0.011   6.050   3.971  1.3674 -0.2723  1.5923
   38CHL1   C22 2794   0.140   5.840   4.044  0.0429 -0.1914  0.2351
   38CHL1  H22A 2795   0.085   5.891   4.126 -1.6910 -2.6163  0.6745
   38CHL1  H22B 2796   0.121   5.734   4.069 -2.2325  0.4388  1.4663
   38CHL1   C23 2797   0.288   5.882   4.051 -0.2967 -0.7198 -0.0784
   38CHL1  H23A 2798   0.343   5.819   3.977  0.5217  0.5517 -0.5806
   38CHL1  H23B 2799   0.306   5.990   4.032  1.9987 -0.6833  1.7521
   38CHL1   C24 2800   0.347   5.850   4.189  0.2209 -0.5326  0.1047
   38CHL1  H24A 2801   0.268   5.877   4.262 -0.6896  0.8242 -1.3173
   38CHL1  H24B 2802   0.364   5.742   4.206  0.4016 -0.3283  1.3376
   38CHL1   C25 2803   0.468   5.935   4.224  0.0530 -0.4769  0.8670
   38CHL1   H25 2804   0.443   6.040   4.197 -1.3745 -1.5177 -2.4723
   38CHL1   C26 2805   0.504   5.931   4.377 -0.5128 -0.7384 -0.5394
   38CHL1  H26A 2806   0.419   5.983   4.426 -2.3581 -2.4652 -1.7359
   38CHL1  H26B 2807   0.513   5.827   4.414 -0.1373 -0.5900 -0.2117
   38CHL1  H26C 2808   0.595   5.992   4.396  0.4470 -1.3605 -2.7278
   38CHL1   C27 2809   0.594   5.898   4.147  0.0739  1.1868  0.5535
   38CHL1  H27A 2810   0.679   5.967   4.164  0.9940  0.3627 -0.5779
   38CHL1  H27B 2811   0.633   5.799   4.179  1.9166  1.1494 -1.6235
   38CHL1  H27C 2812   0.574   5.891   4.038  0.3294  0.1244  0.5674
   39CHL1    C3 2813   5.897   6.270   3.040  0.7103 -0.1907  0.6159
   39CHL1    H3 2814   6.006   6.282   3.024  0.5273  0.8050  0.0736
   39CHL1    O3 2815   5.834   6.276   2.910  0.0608 -0.8339 -0.0527
   39CHL1   H3' 2816   5.740   6.275   2.933 -0.0599  0.5647 -0.3914
   39CHL1    C4 2817   5.865   6.127   3.102  0.1506  0.7991 -0.6128
   39CHL1   H4A 2818   5.759   6.096   3.090  1.1931 -2.1198 -3.7934
   39CHL1   H4B 2819   5.916   6.052   3.038  0.6026  0.0920  0.5451
   39CHL1    C5 2820   5.915   6.112   3.243  0.4078 -0.1242 -0.0699
   39CHL1    C6 2821   5.999   6.020   3.291 -0.1406 -1.0416 -0.0052
   39CHL1    H6 2822   6.067   5.966   3.223  1.7945  1.1007  0.0973
   39CHL1    C7 2823   6.035   6.006   3.434  0.1387  0.3645 -0.2204
   39CHL1   H7A 2824   6.042   5.897   3.454 -0.4156  0.6449  1.6921
   39CHL1   H7B 2825   6.137   6.045   3.452 -0.3408  0.8222  1.7409
   39CHL1    C8 2826   5.928   6.076   3.528 -0.4403  0.2199 -0.4805
   39CHL1    H8 2827   5.829   6.025   3.521 -1.0474  0.3163  4.2093
   39CHL1   C14 2828   5.982   6.085   3.674 -0.4066 -0.0528 -0.7781
   39CHL1   H14 2829   6.072   6.150   3.669 -1.3021  1.3820  0.5438
   39CHL1   C15 2830   6.013   5.951   3.735 -0.5179  0.6129  0.3202
   39CHL1  H15A 2831   5.936   5.873   3.719  1.9180 -1.6272 -1.1194
   39CHL1  H15B 2832   6.104   5.900   3.698 -2.0787 -2.4991  0.4258
   39CHL1   C16 2833   6.035   5.992   3.878  0.2571 -0.3371  0.6273
   39CHL1  H16A 2834   5.979   5.912   3.931 -1.5599  1.2151  1.1754
   39CHL1  H16B 2835   6.140   5.995   3.915  0.6783 -1.8815 -0.3719
   39CHL1   C17 2836   5.970   6.129   3.902 -0.8476 -0.1370 -0.2187
   39CHL1   H17 2837   6.051   6.205   3.907 -0.8226  0.0380 -2.4382
   39CHL1   C13 2838   5.893   6.155   3.773  0.4448 -0.0486 -0.0292
   39CHL1   C18 2839   5.758   6.078   3.777 -0.6638 -0.4691 -0.7392
   39CHL1  H18A 2840   5.708   6.069   3.678 -2.6962  0.5516  0.1404
   39CHL1  H18B 2841   5.774   5.978   3.823  2.7154 -1.0965 -2.9218
   39CHL1  H18C 2842   5.682   6.133   3.836  0.7953  0.7674  0.0578
   39CHL1   C12 2843   5.881   6.302   3.729  0.0841  0.2544  0.0830
   39CHL1  H12A 2844   5.811   6.362   3.791  1.6024  2.1744  0.0405
   39CHL1  H12B 2845   5.978   6.355   3.722 -0.3070  0.8605 -1.1275
   39CHL1   C11 2846   5.820   6.311   3.585  0.3262  0.0729  0.5714
   39CHL1  H11A 2847   5.718   6.268   3.586 -0.0111  0.8673  0.3973
   39CHL1  H11B 2848   5.807   6.412   3.541  0.6467 -0.5087 -0.9384
   39CHL1    C9 2849   5.901   6.221   3.485  0.0869  0.1839 -0.1165
   39CHL1    H9 2850   6.003   6.265   3.483  1.0657 -1.6767  2.7733
   39CHL1   C10 2851   5.847   6.219   3.338  0.3902  0.5084  0.3438
   39CHL1   C19 2852   5.698   6.198   3.351  0.2152 -0.1756 -0.9685
   39CHL1  H19A 2853   5.677   6.107   3.412  0.4605  0.6096  0.3464
   39CHL1  H19B 2854   5.642   6.273   3.411  0.5720  0.1854 -1.0844
   39CHL1  H19C 2855   5.644   6.207   3.255 -0.5556 -2.3618 -0.8087
   39CHL1    C1 2856   5.871   6.360   3.285 -0.2469 -0.5495  0.7767
   39CHL1   H1A 2857   5.820   6.446   3.335  1.8728  0.9717  0.4525
   39CHL1   H1B 2858   5.981   6.370   3.292 -0.1090 -1.1802 -0.3805
   39CHL1    C2 2859   5.837   6.376   3.132 -0.2335  0.4214  0.0938
   39CHL1   H2A 2860   5.866   6.473   3.086  2.0897 -0.3532 -0.2183
   39CHL1   H2B 2861   5.728   6.378   3.111  0.1836  1.3567 -2.3357
   39CHL1   C20 2862   5.904   6.128   4.037  0.0024  0.2032 -0.5367
   39CHL1   H20 2863   5.822   6.053   4.039  1.7348 -1.8714  2.9013
   39CHL1   C21 2864   5.843   6.262   4.058  0.5923 -0.3097  0.5889
   39CHL1  H21A 2865   5.746   6.270   4.005 -0.5753 -1.5147  2.4297
   39CHL1  H21B 2866   5.910   6.341   4.018 -2.2601  2.6031  1.1631
   39CHL1  H21C 2867   5.827   6.266   4.168  1.0549  2.0063  0.6122
   39CHL1   C22 2868   5.994   6.081   4.160  0.0161  0.0673 -0.5575
   39CHL1  H22A 2869   5.932   6.064   4.250 -0.6181 -2.5992 -1.4209
   39CHL1  H22B 2870   6.029   5.980   4.130  0.4720 -0.4751  1.6587
   39CHL1   C23 2871   6.121   6.163   4.182  0.5439 -0.6687 -0.2730
   39CHL1  H23A 2872   6.194   6.148   4.100  2.5943 -1.4883  1.6069
   39CHL1  H23B 2873   6.102   6.271   4.202 -0.1386 -0.7887 -0.2462
   39CHL1   C24 2874   6.188   6.099   4.312  0.1523 -0.9507  0.4255
   39CHL1  H24A 2875   6.109   6.089   4.389 -0.9580 -1.9723 -0.8045
   39CHL1  H24B 2876   6.217   5.994   4.288  0.6786 -1.1487  1.8661
   39CHL1   C25 2877   6.322   6.170   4.367 -0.6216  0.1490 -0.4936
   39CHL1   H25 2878   6.384   6.184   4.276  0.0436 -2.9401 -0.6245
   39CHL1   C26 2879   6.303   6.314   4.419  0.0614 -0.6106 -0.8352
   39CHL1  H26A 2880   6.398   6.348   4.465 -1.3534 -0.1962  1.9907
   39CHL1  H26B 2881   6.264   6.384   4.342  0.0314  0.1195 -0.1724
   39CHL1  H26C 2882   6.237   6.333   4.506  1.5004  0.1687  0.1399
   39CHL1   C27 2883   6.393   6.091   4.477  0.1893 -0.1636  0.2129
   39CHL1  H27A 2884   6.328   6.077   4.566 -0.0688 -3.1981 -0.3424
   39CHL1  H27B 2885   6.412   5.986   4.445 -1.2311 -0.9342  1.7672
   39CHL1  H27C 2886   6.489   6.141   4.504  1.1013 -2.2560  1.0894
   40CHL1    C3 2887   6.091   3.651   3.188 -0.1564 -0.3005 -0.6689
   40CHL1    H3 2888   6.198   3.620   3.182 -0.3374 -1.1959  0.2973
   40CHL1    O3 2889   6.043   3.690   3.061  0.1905  0.2975 -0.0033
   40CHL1   H3' 2890   5.954   3.717   3.086  0.2150  0.6612 -0.3128
   40CHL1    C4 2891   6.004   3.531   3.245 -0.0134 -0.1841  0.4609
   40CHL1   H4A 2892   5.897   3.559   3.238  0.2113  0.5459 -0.2029
   40CHL1   H4B 2893   6.018   3.461   3.160  1.6396  0.8667 -0.1867
   40CHL1    C5 2894   6.043   3.488   3.385 -0.2606 -0.0109  0.4273
   40CHL1    C6 2895   6.077   3.359   3.409  0.0859  0.3948  0.2083
   40CHL1    H6 2896   6.065   3.285   3.329 -0.5003  0.6623  0.0429
   40CHL1    C7 2897   6.106   3.311   3.548  0.0743  0.0045 -0.2082
   40CHL1   H7A 2898   6.056   3.213   3.565 -0.3340  0.5178  1.8552
   40CHL1   H7B 2899   6.215   3.301   3.563 -0.0663 -3.0845 -0.7161
   40CHL1    C8 2900   6.073   3.411   3.661  0.1145 -0.5173 -0.1256
   40CHL1    H8 2901   5.964   3.402   3.683  0.2972 -0.1467  0.9688
   40CHL1   C14 2902   6.139   3.381   3.798 -0.0599  0.1399  0.2301
   40CHL1   H14 2903   6.246   3.408   3.785  0.6987 -1.0124  3.2604
   40CHL1   C15 2904   6.132   3.231   3.843  0.5479  0.4126 -0.1226
   40CHL1  H15A 2905   6.027   3.199   3.826  0.0050  2.0224  0.0431
   40CHL1  H15B 2906   6.210   3.167   3.796  0.8611 -0.0808  1.0361
   40CHL1   C16 2907   6.155   3.235   3.998  0.0842  0.2251 -0.0608
   40CHL1  H16A 2908   6.064   3.178   4.029 -0.9834  2.6037  1.3957
   40CHL1  H16B 2909   6.257   3.199   4.022  0.5074 -0.0806 -2.0726
   40CHL1   C17 2910   6.148   3.387   4.039 -0.4731  0.0168 -0.0013
   40CHL1   H17 2911   6.256   3.412   4.047 -0.0966 -1.9354  1.8426
   40CHL1   C13 2912   6.085   3.459   3.916 -0.4683  0.2771  0.0967
   40CHL1   C18 2913   5.928   3.453   3.927  0.4717  0.0871 -0.5036
   40CHL1  H18A 2914   5.901   3.504   4.023  0.5562 -0.3977 -0.2197
   40CHL1  H18B 2915   5.879   3.504   3.842 -1.9138  3.4875  2.5727
   40CHL1  H18C 2916   5.890   3.350   3.942 -1.1472  0.8829  1.3310
   40CHL1   C12 2917   6.136   3.601   3.882 -0.0344 -0.1072  0.3504
   40CHL1  H12A 2918   6.110   3.678   3.958  0.1580  1.1918 -0.8655
   40CHL1  H12B 2919   6.247   3.595   3.881 -0.0237 -2.0372 -3.2171
   40CHL1   C11 2920   6.078   3.655   3.749 -0.6010 -0.5111 -0.4627
   40CHL1  H11A 2921   5.972   3.679   3.772 -0.5126  0.7636 -1.3088
   40CHL1  H11B 2922   6.120   3.756   3.727 -2.5302  1.2882  3.1533
   40CHL1    C9 2923   6.099   3.562   3.624  0.3852 -0.6444 -0.7606
   40CHL1    H9 2924   6.209   3.571   3.625  0.2126  3.3156 -1.2203
   40CHL1   C10 2925   6.044   3.604   3.486 -0.0818  0.5693 -0.4247
   40CHL1   C19 2926   5.898   3.646   3.501  0.3277 -0.8586  0.9172
   40CHL1  H19A 2927   5.844   3.574   3.565  0.8577 -1.5598  0.5942
   40CHL1  H19B 2928   5.881   3.747   3.545  0.4081 -1.6855  2.9392
   40CHL1  H19C 2929   5.848   3.661   3.404  2.2027  2.5074  0.2827
   40CHL1    C1 2930   6.117   3.721   3.426  0.5098 -0.5888  0.8087
   40CHL1   H1A 2931   6.112   3.807   3.496 -0.3161 -0.2121  0.2924
   40CHL1   H1B 2932   6.222   3.688   3.407 -0.4934 -3.0123 -1.0491
   40CHL1    C2 2933   6.086   3.771   3.283 -0.0372 -0.1172  0.6188
   40CHL1   H2A 2934   6.165   3.840   3.246 -1.2647 -0.5662 -3.2791
   40CHL1   H2B 2935   5.990   3.824   3.267  0.5985  1.6219  2.2250
   40CHL1   C20 2936   6.089   3.399   4.175  0.2969 -0.2030 -0.2401
   40CHL1   H20 2937   5.983   3.367   4.179  0.0528  0.7107  1.4720
   40CHL1   C21 2938   6.093   3.546   4.217 -0.1462  0.0098 -0.4895
   40CHL1  H21A 2939   6.025   3.560   4.304  0.3382  1.9319 -0.3786
   40CHL1  H21B 2940   6.049   3.619   4.146 -1.9610  1.1863  1.7251
   40CHL1  H21C 2941   6.191   3.596   4.233 -0.9452  1.1110  1.3347
   40CHL1   C22 2942   6.148   3.314   4.285 -0.0024  0.9878  0.9878
   40CHL1  H22A 2943   6.101   3.348   4.379 -0.6094 -2.0812  1.8987
   40CHL1  H22B 2944   6.129   3.206   4.266  1.2811  0.7756  0.7849
   40CHL1   C23 2945   6.298   3.339   4.303  0.3612 -0.5576  0.0652
   40CHL1  H23A 2946   6.347   3.308   4.208  0.9916 -1.0515  0.5386
   40CHL1  H23B 2947   6.318   3.448   4.307 -1.6081 -0.0593 -1.6396
   40CHL1   C24 2948   6.360   3.256   4.420  0.7218  0.1485 -0.0129
   40CHL1  H24A 2949   6.304   3.286   4.511 -1.5676  0.2479 -1.3876
   40CHL1  H24B 2950   6.340   3.150   4.393  1.1319  0.6220 -2.4287
   40CHL1   C25 2951   6.518   3.266   4.439 -0.5549  0.3201 -0.6130
   40CHL1   H25 2952   6.544   3.183   4.509 -1.2473  1.0651  0.5666
   40CHL1   C26 2953   6.596   3.238   4.310  0.4601  0.9025  0.5964
   40CHL1  H26A 2954   6.561   3.145   4.261  1.2215  1.0660 -0.2714
   40CHL1  H26B 2955   6.565   3.318   4.241  0.2451 -0.4739 -0.9649
   40CHL1  H26C 2956   6.706   3.241   4.320  0.5230 -0.8049  0.7629
   40CHL1   C27 2957   6.555   3.399   4.494  0.5924  0.2595 -0.3800
   40CHL1  H27A 2958   6.664   3.416   4.504  0.4830  0.3631  0.7639
   40CHL1  H27B 2959   6.508   3.473   4.427 -3.6421  0.0896  2.0554
   40CHL1  H27C 2960   6.508   3.426   4.591 -0.1775 -1.4787 -0.2308
   41CHL1    C3 2961   2.808   1.289   3.663  0.7864 -0.0475  0.0010
   41CHL1    H3 2962   2.894   1.360   3.662 -0.3169  1.3648  0.9382
   41CHL1    O3 2963   2.767   1.275   3.531 -0.5155 -0.4708 -0.3833
   41CHL1   H3' 2964   2.836   1.297   3.469  1.0377  0.2807  1.5114
   41CHL1    C4 2965   2.840   1.152   3.714 -1.4052 -0.1858 -1.1440
   41CHL1   H4A 2966   2.746   1.094   3.717 -1.6094  0.1629  2.3774
   41CHL1   H4B 2967   2.901   1.090   3.644 -1.5509 -1.5730 -0.0819
   41CHL1    C5 2968   2.886   1.159   3.861  0.0662 -0.1270 -0.1077
   41CHL1    C6 2969   3.008   1.115   3.894  0.5103 -0.3790 -0.1731
   41CHL1    H6 2970   3.070   1.067   3.816  1.7705  2.3171 -0.9670
   41CHL1    C7 2971   3.058   1.108   4.041  0.8491 -0.2124  0.3200
   41CHL1   H7A 2972   3.093   1.006   4.070  1.3262  0.0602  0.7063
   41CHL1   H7B 2973   3.142   1.180   4.047 -1.7585  2.9511  1.4680
   41CHL1    C8 2974   2.947   1.151   4.140 -0.2621  0.3557 -0.5481
   41CHL1    H8 2975   2.870   1.071   4.150 -0.8051  1.1043  2.0566
   41CHL1   C14 2976   3.006   1.180   4.277  0.3908 -0.4626  0.1346
   41CHL1   H14 2977   3.076   1.265   4.267  3.0308 -2.6538 -1.3407
   41CHL1   C15 2978   3.084   1.070   4.354 -0.3441 -0.2240 -0.1162
   41CHL1  H15A 2979   3.027   0.975   4.354  1.2203 -1.1977  0.6626
   41CHL1  H15B 2980   3.187   1.058   4.315  0.6901 -1.1717  2.6711
   41CHL1   C16 2981   3.086   1.112   4.503  0.2990  0.3658 -0.2375
   41CHL1  H16A 2982   3.057   1.035   4.578  2.4284  0.2846  0.5965
   41CHL1  H16B 2983   3.189   1.146   4.527  0.8831 -1.7332  0.4322
   41CHL1   C17 2984   2.990   1.238   4.504  0.0304  0.6292 -0.2311
   41CHL1   H17 2985   3.044   1.333   4.484 -1.4941  1.8615  1.2086
   41CHL1   C13 2986   2.904   1.225   4.381 -0.6125  0.6443  0.4776
   41CHL1   C18 2987   2.798   1.113   4.403  0.7622 -0.2393  0.4054
   41CHL1  H18A 2988   2.747   1.092   4.306  0.5362  0.7425  0.3098
   41CHL1  H18B 2989   2.844   1.023   4.449 -0.0360 -1.1191 -0.4666
   41CHL1  H18C 2990   2.717   1.156   4.464  1.8306  0.2133  1.5543
   41CHL1   C12 2991   2.843   1.360   4.333  0.0318  0.7264  0.2245
   41CHL1  H12A 2992   2.766   1.398   4.403  0.9139  0.3264  1.4537
   41CHL1  H12B 2993   2.920   1.436   4.308  0.1473  1.3469  2.2326
   41CHL1   C11 2994   2.771   1.340   4.197  0.5934 -0.8081 -0.7991
   41CHL1  H11A 2995   2.678   1.286   4.224 -0.0025  0.4955 -0.1438
   41CHL1  H11B 2996   2.734   1.443   4.177 -1.0617 -0.8269  1.6788
   41CHL1    C9 2997   2.862   1.271   4.084 -0.0149 -0.4639 -0.5633
   41CHL1    H9 2998   2.926   1.360   4.065  0.9517 -1.4245 -1.9904
   41CHL1   C10 2999   2.784   1.236   3.953 -0.3778  0.1334  0.5479
   41CHL1   C19 3000   2.658   1.153   3.975  0.0883  0.0403  0.2891
   41CHL1  H19A 3001   2.605   1.121   3.882  1.3590  1.5926 -1.0352
   41CHL1  H19B 3002   2.663   1.060   4.036  0.4296  0.8356  1.4954
   41CHL1  H19C 3003   2.585   1.213   4.033  2.9710  4.2493 -0.0055
   41CHL1    C1 3004   2.729   1.375   3.890 -0.0433  0.5169  0.8789
   41CHL1   H1A 3005   2.648   1.423   3.950  0.6725  0.5384  1.8445
   41CHL1   H1B 3006   2.822   1.434   3.891 -0.7113  1.5898  0.8496
   41CHL1    C2 3007   2.697   1.360   3.744  0.1433 -0.9589 -0.0818
   41CHL1   H2A 3008   2.665   1.457   3.700 -0.7621 -0.0256  2.4519
   41CHL1   H2B 3009   2.601   1.305   3.735 -1.0130  1.2650 -3.2411
   41CHL1   C20 3010   2.923   1.280   4.637 -0.2326  0.2064 -0.2985
   41CHL1   H20 3011   2.828   1.332   4.612  0.4967  1.4656 -0.4884
   41CHL1   C21 3012   3.014   1.373   4.712 -0.4965  0.1467  0.6926
   41CHL1  H21A 3013   3.106   1.322   4.749 -1.0432  0.1619  2.1693
   41CHL1  H21B 3014   2.957   1.423   4.794 -1.2454 -0.8020  0.7693
   41CHL1  H21C 3015   3.040   1.459   4.646  1.3225 -0.1207  1.0027
   41CHL1   C22 3016   2.866   1.163   4.729 -0.3459  0.2182 -0.4825
   41CHL1  H22A 3017   2.834   1.077   4.666  0.0076 -1.7973  1.9391
   41CHL1  H22B 3018   2.950   1.125   4.791 -0.7556 -0.7918 -0.5176
   41CHL1   C23 3019   2.748   1.191   4.826  0.2515  0.9382 -0.1229
   41CHL1  H23A 3020   2.776   1.273   4.895  1.2775  1.3752 -1.0316
   41CHL1  H23B 3021   2.666   1.232   4.762  1.2048  1.2132 -1.1990
   41CHL1   C24 3022   2.697   1.070   4.907  0.0248 -0.0767 -0.5643
   41CHL1  H24A 3023   2.782   1.034   4.968 -1.0220  2.0030  2.3079
   41CHL1  H24B 3024   2.624   1.100   4.985  0.8754  1.4715 -0.3402
   41CHL1   C25 3025   2.635   0.938   4.841  0.2173 -0.1071  0.6145
   41CHL1   H25 3026   2.710   0.898   4.770 -2.0062 -2.1192 -0.7914
   41CHL1   C26 3027   2.638   0.833   4.953  0.0127 -0.5181  0.4486
   41CHL1  H26A 3028   2.623   0.732   4.910  3.1518 -0.1471 -1.9068
   41CHL1  H26B 3029   2.729   0.838   5.016 -0.9113 -1.3415  1.8840
   41CHL1  H26C 3030   2.555   0.843   5.026  0.8520 -0.7686  1.4544
   41CHL1   C27 3031   2.494   0.961   4.779 -0.1490 -0.1755  0.5257
   41CHL1  H27A 3032   2.432   1.020   4.850 -0.8138 -1.4247  1.0244
   41CHL1  H27B 3033   2.517   1.021   4.689  0.8208  0.5393  1.2393
   41CHL1  H27C 3034   2.433   0.873   4.747  1.6599 -0.9943 -0.8486
   42CHL1    C3 3035   3.673   4.507   3.475 -0.5500 -0.5538  0.7801
   42CHL1    H3 3036   3.679   4.400   3.502  0.3276 -0.3196  1.5596
   42CHL1    O3 3037   3.682   4.521   3.331 -0.7427  0.4654 -0.6005
   42CHL1   H3' 3038   3.642   4.442   3.294 -0.2616  1.0444 -2.4603
   42CHL1    C4 3039   3.533   4.565   3.520  0.4697 -0.1906  0.5059
   42CHL1   H4A 3040   3.522   4.660   3.462 -0.9153  0.3082  1.5417
   42CHL1   H4B 3041   3.454   4.492   3.492 -1.2604  2.2571 -1.5359
   42CHL1    C5 3042   3.521   4.606   3.667 -0.5997  0.0903  0.4204
   42CHL1    C6 3043   3.407   4.563   3.729 -1.4366  0.0013  0.3467
   42CHL1    H6 3044   3.321   4.524   3.672  0.7102 -1.6669 -1.9307
   42CHL1    C7 3045   3.392   4.577   3.877 -0.3665  0.1287  0.1166
   42CHL1   H7A 3046   3.292   4.622   3.900  0.5379  1.7000  1.1630
   42CHL1   H7B 3047   3.404   4.478   3.925 -0.0431  0.9186  1.7103
   42CHL1    C8 3048   3.498   4.677   3.936 -0.6939 -0.0442 -0.3029
   42CHL1    H8 3049   3.465   4.776   3.898  1.7243  0.2549 -1.8640
   42CHL1   C14 3050   3.499   4.662   4.085 -0.2372  0.0491 -0.1273
   42CHL1   H14 3051   3.538   4.563   4.115  2.0939  0.8249 -0.3781
   42CHL1   C15 3052   3.368   4.667   4.165 -0.6179 -0.0349 -0.2076
   42CHL1  H15A 3053   3.316   4.756   4.123 -0.4889 -0.5737 -1.5826
   42CHL1  H15B 3054   3.295   4.584   4.152 -0.3371 -0.0231 -2.3548
   42CHL1   C16 3055   3.407   4.693   4.303 -1.0289 -0.0492 -0.1852
   42CHL1  H16A 3056   3.364   4.782   4.353 -1.2543 -0.3692  0.1928
   42CHL1  H16B 3057   3.393   4.611   4.376  0.0052  0.0416  0.1264
   42CHL1   C17 3058   3.561   4.721   4.302 -0.7171 -0.5380  0.0118
   42CHL1   H17 3059   3.625   4.638   4.337 -0.1492  0.5552  1.7423
   42CHL1   C13 3060   3.583   4.765   4.156 -0.7844 -0.1435  0.1882
   42CHL1   C18 3061   3.542   4.916   4.129  0.5964  0.7195 -0.0439
   42CHL1  H18A 3062   3.531   4.952   4.024 -3.2977  0.4048  0.1056
   42CHL1  H18B 3063   3.445   4.935   4.180 -0.5441  0.8423 -2.1594
   42CHL1  H18C 3064   3.619   4.979   4.177 -0.1400  0.1986  1.9116
   42CHL1   C12 3065   3.733   4.739   4.114 -0.1427  0.3890 -0.4624
   42CHL1  H12A 3066   3.803   4.815   4.155 -0.8102 -0.1382  1.8212
   42CHL1  H12B 3067   3.753   4.632   4.135  1.1619  0.6123 -0.4950
   42CHL1   C11 3068   3.754   4.741   3.963 -0.0203  0.5058  0.0098
   42CHL1  H11A 3069   3.745   4.848   3.932  2.2251  1.0669  1.0691
   42CHL1  H11B 3070   3.855   4.697   3.949  0.6314  1.8495  0.2624
   42CHL1    C9 3071   3.641   4.653   3.884  0.0377 -0.2083 -0.5654
   42CHL1    H9 3072   3.668   4.551   3.918  2.4344  0.1520 -1.2431
   42CHL1   C10 3073   3.647   4.660   3.729  0.4321 -0.1506 -0.5385
   42CHL1   C19 3074   3.671   4.809   3.676  0.1433  0.4288 -0.0314
   42CHL1  H19A 3075   3.663   4.812   3.565 -2.9432 -0.0636  0.0971
   42CHL1  H19B 3076   3.588   4.872   3.715 -1.0618 -0.4759 -1.0433
   42CHL1  H19C 3077   3.768   4.845   3.717  0.6450 -1.6540  0.7172
   42CHL1    C1 3078   3.769   4.577   3.691  0.0442  0.8929 -0.3093
   42CHL1   H1A 3079   3.861   4.615   3.740  0.5461  0.0341 -0.5575
   42CHL1   H1B 3080   3.758   4.470   3.721 -0.5380  0.9193 -0.4052
   42CHL1    C2 3081   3.787   4.579   3.538 -0.3028  0.1795 -0.5841
   42CHL1   H2A 3082   3.886   4.533   3.515  1.8803  4.0406  0.2198
   42CHL1   H2B 3083   3.796   4.677   3.488  0.1711 -0.3051 -1.4801
   42CHL1   C20 3084   3.607   4.829   4.414  0.6761 -0.8561  0.2166
   42CHL1   H20 3085   3.578   4.931   4.380  3.6405  0.1502  0.4329
   42CHL1   C21 3086   3.755   4.837   4.436  0.6538 -0.1522  0.2712
   42CHL1  H21A 3087   3.780   4.885   4.534  1.2943  0.7307 -0.3067
   42CHL1  H21B 3088   3.795   4.899   4.353  0.0720 -0.7065 -0.4322
   42CHL1  H21C 3089   3.797   4.735   4.425  2.6132  0.6924 -0.4486
   42CHL1   C22 3090   3.538   4.802   4.552  0.2540  0.1348  0.6370
   42CHL1  H22A 3091   3.566   4.879   4.626  2.4245  0.4254 -0.4174
   42CHL1  H22B 3092   3.429   4.821   4.542  0.1067 -1.2761 -0.8079
   42CHL1   C23 3093   3.576   4.665   4.620  0.2686  0.5659 -0.2694
   42CHL1  H23A 3094   3.584   4.590   4.539  1.1291  1.8376 -1.4133
   42CHL1  H23B 3095   3.675   4.685   4.665  0.4040  0.4981 -0.5370
   42CHL1   C24 3096   3.461   4.628   4.716 -0.4313  0.3338  0.6473
   42CHL1  H24A 3097   3.432   4.718   4.774  0.8011 -0.1355  2.0277
   42CHL1  H24B 3098   3.378   4.601   4.647 -0.9856  0.3365  1.3087
   42CHL1   C25 3099   3.480   4.502   4.805 -0.3618 -0.0206  0.3244
   42CHL1   H25 3100   3.566   4.529   4.869  0.7825  0.9388 -1.5285
   42CHL1   C26 3101   3.358   4.464   4.898  0.3425 -0.8883  0.3783
   42CHL1  H26A 3102   3.324   4.536   4.976  0.9090 -1.3456  1.0631
   42CHL1  H26B 3103   3.270   4.455   4.831 -0.3609  1.6976  0.8344
   42CHL1  H26C 3104   3.380   4.361   4.932  3.5222 -1.1246 -1.9741
   42CHL1   C27 3105   3.517   4.376   4.732  0.1395 -0.2266 -0.5485
   42CHL1  H27A 3106   3.547   4.287   4.791  2.2854  1.2384  0.7129
   42CHL1  H27B 3107   3.436   4.351   4.661 -1.4478  0.3615  0.9816
   42CHL1  H27C 3108   3.608   4.412   4.680  0.3532 -0.6079 -0.4386
   43CHL1    C3 3109   5.974   5.938   6.289 -0.0050 -0.1534 -0.2631
   43CHL1    H3 3110   5.877   5.888   6.268 -0.6660  1.6061 -1.5480
   43CHL1    O3 3111   5.961   6.000   6.420 -0.0727  0.0415  0.4165
   43CHL1   H3' 3112   6.037   6.057   6.434 -1.2216  1.5453  0.6972
   43CHL1    C4 3113   6.095   5.843   6.280 -0.0682 -0.6679  0.6555
   43CHL1   H4A 3114   6.187   5.897   6.311 -1.7914  2.1892  1.2062
   43CHL1   H4B 3115   6.075   5.770   6.361 -1.5964 -0.2052  0.7182
   43CHL1    C5 3116   6.099   5.780   6.144  0.0397 -0.0681  0.0830
   43CHL1    C6 3117   6.112   5.647   6.134  0.0977 -0.1387  0.5562
   43CHL1    H6 3118   6.113   5.589   6.227  0.7442 -2.1727 -0.6375
   43CHL1    C7 3119   6.129   5.572   6.004 -0.4075  0.6192 -0.5788
   43CHL1   H7A 3120   6.217   5.505   6.008 -0.6041  0.3631 -0.4748
   43CHL1   H7B 3121   6.040   5.508   5.984 -0.1959  0.5740 -1.3871
   43CHL1    C8 3122   6.159   5.664   5.886  0.2158  0.1270  0.2236
   43CHL1    H8 3123   6.269   5.679   5.877  0.4457 -1.3461  0.3301
   43CHL1   C14 3124   6.110   5.589   5.762  0.5291 -0.6165  0.5655
   43CHL1   H14 3125   6.001   5.572   5.764  0.6417 -1.3957  2.2063
   43CHL1   C15 3126   6.159   5.436   5.751  0.1598 -0.5629 -0.5652
   43CHL1  H15A 3127   6.265   5.428   5.782  0.5217  1.1537 -1.2902
   43CHL1  H15B 3128   6.086   5.371   5.805  1.7032 -1.9486 -0.0752
   43CHL1   C16 3129   6.154   5.417   5.600 -0.0994 -0.0391 -0.8840
   43CHL1  H16A 3130   6.255   5.385   5.568  0.5138  1.0300 -0.0798
   43CHL1  H16B 3131   6.085   5.335   5.571 -1.8628  0.6624  1.0181
   43CHL1   C17 3132   6.109   5.555   5.534  0.4455  0.5077 -0.6702
   43CHL1   H17 3133   5.999   5.547   5.531  0.4520  0.1493 -0.0256
   43CHL1   C13 3134   6.143   5.666   5.635 -1.1241 -0.4597  0.5642
   43CHL1   C18 3135   6.294   5.701   5.623 -0.1907 -0.2210  0.3818
   43CHL1  H18A 3136   6.338   5.758   5.708  0.3513  1.5143 -1.0057
   43CHL1  H18B 3137   6.353   5.609   5.606 -0.6930 -0.4279 -0.2623
   43CHL1  H18C 3138   6.320   5.764   5.535 -0.8824  0.5024  0.6788
   43CHL1   C12 3139   6.067   5.796   5.637 -0.2044 -0.3348 -0.4916
   43CHL1  H12A 3140   6.077   5.864   5.550  2.6433  2.7446  1.9905
   43CHL1  H12B 3141   5.959   5.771   5.645 -0.7102  1.8057  0.0432
   43CHL1   C11 3142   6.107   5.878   5.768  0.7677 -0.0412  0.0451
   43CHL1  H11A 3143   6.212   5.908   5.752  0.2868  1.0404 -1.3318
   43CHL1  H11B 3144   6.050   5.973   5.760  0.1135 -0.5157 -1.0766
   43CHL1    C9 3145   6.079   5.794   5.893 -1.2559 -0.5443  0.1146
   43CHL1    H9 3146   5.971   5.770   5.900 -1.6819  1.3397  0.4235
   43CHL1   C10 3147   6.102   5.875   6.025 -0.1336 -0.1991  0.1502
   43CHL1   C19 3148   6.236   5.949   6.020  0.9050 -0.5839  0.2017
   43CHL1  H19A 3149   6.319   5.875   6.031  0.8764 -0.3763  2.0624
   43CHL1  H19B 3150   6.248   6.023   5.939 -0.9921 -0.5134 -0.0483
   43CHL1  H19C 3151   6.250   6.004   6.116 -2.3708  0.5751  0.1273
   43CHL1    C1 3152   5.985   5.970   6.045  0.2702 -0.0601  0.0751
   43CHL1   H1A 3153   6.004   6.047   5.967 -0.4148  0.0678  0.0233
   43CHL1   H1B 3154   5.885   5.928   6.020 -0.1103  1.5062 -1.2115
   43CHL1    C2 3155   5.973   6.050   6.183  0.5448  0.9536 -0.1089
   43CHL1   H2A 3156   5.870   6.091   6.185 -0.3301 -1.0287 -0.8614
   43CHL1   H2B 3157   6.058   6.112   6.215  1.1439 -0.7388  1.7590
   43CHL1   C20 3158   6.148   5.561   5.391 -0.1154 -0.5215  0.0039
   43CHL1   H20 3159   6.259   5.574   5.389  0.0671 -1.9620 -0.9299
   43CHL1   C21 3160   6.094   5.691   5.327 -0.1391  0.2229  0.4666
   43CHL1  H21A 3161   5.998   5.731   5.366 -0.0420  0.9057  0.0303
   43CHL1  H21B 3162   6.090   5.688   5.216  0.3839 -0.9622  0.4694
   43CHL1  H21C 3163   6.167   5.771   5.354 -0.7637  0.3096  1.9666
   43CHL1   C22 3164   6.135   5.436   5.302  0.7685  0.4655 -0.0634
   43CHL1  H22A 3165   6.132   5.340   5.357  0.8735 -0.5286 -1.7255
   43CHL1  H22B 3166   6.045   5.459   5.241 -1.3364  1.2574  3.1084
   43CHL1   C23 3167   6.254   5.433   5.207 -0.2274  0.3300 -0.3240
   43CHL1  H23A 3168   6.268   5.530   5.154 -0.9137  0.7811  0.2949
   43CHL1  H23B 3169   6.339   5.416   5.276 -0.7487 -0.9865  0.0271
   43CHL1   C24 3170   6.244   5.319   5.107  0.1858  0.3615  0.1866
   43CHL1  H24A 3171   6.227   5.223   5.159  1.0883  0.3073  0.3938
   43CHL1  H24B 3172   6.151   5.328   5.046 -0.8255  1.5588  1.8168
   43CHL1   C25 3173   6.376   5.303   5.029  0.2576 -0.5737 -0.2882
   43CHL1   H25 3174   6.426   5.402   5.032 -2.7766  1.1008 -0.4563
   43CHL1   C26 3175   6.464   5.216   5.118 -0.5412  0.8834  0.0591
   43CHL1  H26A 3176   6.559   5.196   5.065 -1.0362 -0.8092 -0.2693
   43CHL1  H26B 3177   6.491   5.269   5.212 -0.2092 -1.3089  1.2619
   43CHL1  H26C 3178   6.421   5.115   5.136  2.4527 -0.1637  1.9530
   43CHL1   C27 3179   6.366   5.247   4.890 -0.8931 -0.3313 -0.2979
   43CHL1  H27A 3180   6.301   5.158   4.879 -2.3405  0.7307 -0.6590
   43CHL1  H27B 3181   6.312   5.324   4.832  1.0123  0.5163 -1.0528
   43CHL1  H27C 3182   6.464   5.230   4.840 -0.1596  0.7966  0.6674
   44CHL1    C3 3183   4.980   0.567   3.068 -0.4751  1.0085 -0.8358
   44CHL1    H3 3184   5.022   0.482   3.125 -0.0461  1.7549 -0.0151
   44CHL1    O3 3185   5.007   0.569   2.929 -0.3882  0.5951 -0.4381
   44CHL1   H3' 3186   4.930   0.603   2.882 -0.9318 -0.9376 -0.7324
   44CHL1    C4 3187   4.834   0.569   3.083 -0.2585  0.2108  0.3890
   44CHL1   H4A 3188   4.790   0.654   3.027  0.9549 -0.3994 -1.5937
   44CHL1   H4B 3189   4.791   0.479   3.034 -0.2322  1.5738 -2.3093
   44CHL1    C5 3190   4.796   0.571   3.227  0.2181  0.8011 -0.5051
   44CHL1    C6 3191   4.716   0.477   3.291 -0.5168  0.2370  0.0318
   44CHL1    H6 3192   4.685   0.389   3.232  0.8509  0.0688 -0.4684
   44CHL1    C7 3193   4.669   0.482   3.433  0.8345  0.5613 -0.3746
   44CHL1   H7A 3194   4.559   0.475   3.427  0.5876  2.8249  0.4877
   44CHL1   H7B 3195   4.699   0.390   3.488  0.9897 -0.3997 -1.9943
   44CHL1    C8 3196   4.688   0.614   3.500  0.2686 -0.1819  1.0313
   44CHL1    H8 3197   4.611   0.678   3.452  1.4972  0.5662 -0.0158
   44CHL1   C14 3198   4.678   0.605   3.649  0.5057 -0.0225 -0.1988
   44CHL1   H14 3199   4.763   0.534   3.661  1.1456  0.5477 -1.2182
   44CHL1   C15 3200   4.553   0.536   3.715 -0.7336  0.6008  0.4804
   44CHL1  H15A 3201   4.452   0.564   3.678 -0.8562 -2.1830 -1.6452
   44CHL1  H15B 3202   4.559   0.425   3.712 -2.4921  0.4429  1.4283
   44CHL1   C16 3203   4.573   0.576   3.858 -0.2590 -0.1915 -0.1166
   44CHL1  H16A 3204   4.487   0.641   3.884  0.7958  0.5927  1.6361
   44CHL1  H16B 3205   4.573   0.495   3.934  1.2084 -1.3034 -1.2317
   44CHL1   C17 3206   4.689   0.678   3.877 -0.3451 -0.0711  1.0470
   44CHL1   H17 3207   4.786   0.627   3.897  0.9216  2.3580  1.5839
   44CHL1   C13 3208   4.705   0.733   3.722 -0.0982  0.1438 -0.5636
   44CHL1   C18 3209   4.598   0.841   3.693  0.7162  0.0177 -0.0905
   44CHL1  H18A 3210   4.591   0.853   3.582  1.3269  0.3562 -0.0974
   44CHL1  H18B 3211   4.499   0.812   3.732  1.2931 -2.8478 -0.5860
   44CHL1  H18C 3212   4.635   0.939   3.732  0.2697 -0.2175  0.9495
   44CHL1   C12 3213   4.851   0.788   3.696 -0.0017  0.1177 -1.2258
   44CHL1  H12A 3214   4.876   0.886   3.742 -0.1563 -0.1596 -0.5353
   44CHL1  H12B 3215   4.926   0.713   3.729 -2.4533 -2.1672 -0.4288
   44CHL1   C11 3216   4.867   0.802   3.543  0.0251  0.5072  0.4474
   44CHL1  H11A 3217   4.814   0.887   3.496  1.3731 -1.2867 -5.0108
   44CHL1  H11B 3218   4.973   0.830   3.525  0.6826 -1.3790  1.1223
   44CHL1    C9 3219   4.829   0.673   3.464 -0.2237 -0.2314  0.0110
   44CHL1    H9 3220   4.909   0.599   3.487  1.0668  1.4926  1.4351
   44CHL1   C10 3221   4.849   0.692   3.306 -0.1942 -0.1582 -1.3125
   44CHL1   C19 3222   4.772   0.827   3.252 -0.2282  0.8397 -0.1050
   44CHL1  H19A 3223   4.773   0.825   3.141 -1.1957  0.3330 -0.1177
   44CHL1  H19B 3224   4.668   0.817   3.290 -0.0113 -1.6829 -0.0119
   44CHL1  H19C 3225   4.825   0.919   3.283  3.3476  0.2192 -3.5176
   44CHL1    C1 3226   4.999   0.705   3.275 -0.6096 -0.3634  0.0168
   44CHL1   H1A 3227   5.053   0.792   3.318 -0.4217 -0.6670  0.4028
   44CHL1   H1B 3228   5.052   0.625   3.330 -0.5038 -0.5536 -0.3530
   44CHL1    C2 3229   5.038   0.694   3.129  0.1089 -0.1466  0.1286
   44CHL1   H2A 3230   5.149   0.700   3.125  0.2091 -0.6198  1.5846
   44CHL1   H2B 3231   4.984   0.778   3.080 -1.9683 -1.6315 -0.2444
   44CHL1   C20 3232   4.647   0.786   3.991  0.9631  0.5463  0.7949
   44CHL1   H20 3233   4.551   0.831   3.959  1.1401 -0.4570 -1.3132
   44CHL1   C21 3234   4.737   0.911   4.005 -0.4458 -0.1416  0.2095
   44CHL1  H21A 3235   4.840   0.876   4.030  0.1392  1.7731  0.5963
   44CHL1  H21B 3236   4.715   0.979   4.089 -0.0766  1.4082 -0.9049
   44CHL1  H21C 3237   4.753   0.972   3.913  2.2180  1.9502  1.9106
   44CHL1   C22 3238   4.621   0.706   4.130  0.2796  0.2193  0.2468
   44CHL1  H22A 3239   4.582   0.788   4.195  1.7511  0.8915  0.3285
   44CHL1  H22B 3240   4.542   0.631   4.110  1.1045 -0.2686 -1.3403
   44CHL1   C23 3241   4.748   0.640   4.183 -0.2452  0.5207 -0.8074
   44CHL1  H23A 3242   4.774   0.559   4.112  1.4836  0.6279 -0.3253
   44CHL1  H23B 3243   4.822   0.723   4.177  1.5569 -0.9312  0.3256
   44CHL1   C24 3244   4.741   0.588   4.328 -0.1529  0.0348  0.4317
   44CHL1  H24A 3245   4.682   0.494   4.334  1.2179 -0.9680 -1.1350
   44CHL1  H24B 3246   4.838   0.555   4.370 -0.7590 -0.3590  1.5642
   44CHL1   C25 3247   4.675   0.680   4.430 -0.0716  0.5714 -0.2242
   44CHL1   H25 3248   4.571   0.696   4.395 -0.3317 -2.7493 -1.2637
   44CHL1   C26 3249   4.655   0.600   4.551 -0.1235  0.3929  0.1215
   44CHL1  H26A 3250   4.753   0.577   4.598  1.3659 -0.3146 -3.0869
   44CHL1  H26B 3251   4.585   0.658   4.616 -0.8401  0.2003 -0.4620
   44CHL1  H26C 3252   4.596   0.510   4.524 -0.3012  1.1007 -2.0302
   44CHL1   C27 3253   4.752   0.802   4.454  0.0017 -0.6981 -0.0535
   44CHL1  H27A 3254   4.757   0.863   4.361  0.3332  0.5261  0.7300
   44CHL1  H27B 3255   4.714   0.872   4.532  0.5001 -0.5754  0.0834
   44CHL1  H27C 3256   4.858   0.777   4.472  0.0314 -2.2193 -2.0887
   45CHL1    C3 3257   6.773   1.215   2.963 -0.0476 -0.0728  0.0583
   45CHL1    H3 3258   6.665   1.234   2.985 -0.0980  2.6893 -2.0061
   45CHL1    O3 3259   6.783   1.205   2.825 -0.4320  0.1219  0.2499
   45CHL1   H3' 3260   6.878   1.195   2.816 -0.4269 -0.5520  0.9382
   45CHL1    C4 3261   6.839   1.343   3.018  0.3641  0.9114 -0.1446
   45CHL1   H4A 3262   6.942   1.331   2.976  0.4418 -0.8882  0.4816
   45CHL1   H4B 3263   6.787   1.435   2.983  0.8693  1.4750  0.5406
   45CHL1    C5 3264   6.837   1.352   3.171 -0.4191  0.2358 -0.1790
   45CHL1    C6 3265   6.776   1.459   3.225  0.2271  0.0986 -0.2844
   45CHL1    H6 3266   6.730   1.538   3.164  3.2993  0.7814 -1.9459
   45CHL1    C7 3267   6.755   1.482   3.374  0.0914  0.1458  0.4687
   45CHL1   H7A 3268   6.767   1.589   3.403 -0.5938 -0.2439  2.3563
   45CHL1   H7B 3269   6.653   1.461   3.412  2.1921 -1.8379  6.1239
   45CHL1    C8 3270   6.858   1.389   3.446  0.1157 -0.2329 -0.2588
   45CHL1    H8 3271   6.962   1.425   3.437  1.1478 -2.7303  0.7754
   45CHL1   C14 3272   6.825   1.391   3.596 -0.2617 -0.1610 -0.7073
   45CHL1   H14 3273   6.725   1.344   3.603 -1.2174  1.7543 -0.6736
   45CHL1   C15 3274   6.815   1.530   3.664 -0.1987 -0.2884  0.1491
   45CHL1  H15A 3275   6.891   1.604   3.630  0.7882 -2.4049 -2.5419
   45CHL1  H15B 3276   6.719   1.568   3.624 -1.8630 -2.9674  1.3501
   45CHL1   C16 3277   6.814   1.502   3.815 -0.0214  0.5068  0.0486
   45CHL1  H16A 3278   6.894   1.564   3.861 -0.5133  1.0358  0.2058
   45CHL1  H16B 3279   6.715   1.521   3.862  0.1656 -0.0603  0.6803
   45CHL1   C17 3280   6.846   1.348   3.829 -0.4354  0.1109 -1.2767
   45CHL1   H17 3281   6.750   1.293   3.837  0.3699 -1.4482 -1.9462
   45CHL1   C13 3282   6.911   1.313   3.692 -0.1565  0.0614 -0.6912
   45CHL1   C18 3283   7.062   1.353   3.701 -0.0346 -0.7709 -0.2445
   45CHL1  H18A 3284   7.095   1.436   3.766 -1.3988  0.5617 -1.1983
   45CHL1  H18B 3285   7.120   1.273   3.752 -0.4727 -1.0268 -0.1461
   45CHL1  H18C 3286   7.112   1.364   3.602  0.3904  0.7850  0.1180
   45CHL1   C12 3287   6.898   1.167   3.646 -0.4739 -0.5896  0.5420
   45CHL1  H12A 3288   6.974   1.113   3.707  3.7002  0.4264 -3.1722
   45CHL1  H12B 3289   6.801   1.120   3.671  0.6892 -2.2143  2.2556
   45CHL1   C11 3290   6.937   1.142   3.497  0.1034 -0.1569 -0.6796
   45CHL1  H11A 3291   7.046   1.151   3.480 -0.1102  0.9466 -1.6585
   45CHL1  H11B 3292   6.909   1.038   3.470  2.8612 -0.9153 -0.8837
   45CHL1    C9 3293   6.857   1.246   3.401 -0.6560 -0.0321  0.4634
   45CHL1    H9 3294   6.751   1.211   3.410 -0.6829  0.0961  0.6657
   45CHL1   C10 3295   6.885   1.232   3.249  0.0827 -0.4190 -0.5789
   45CHL1   C19 3296   7.035   1.233   3.230 -0.8289 -0.1774 -0.4325
   45CHL1  H19A 3297   7.071   1.240   3.125 -1.1840  0.1789 -0.5332
   45CHL1  H19B 3298   7.078   1.323   3.278 -1.9484  0.4935 -0.6503
   45CHL1  H19C 3299   7.074   1.135   3.266 -2.8956 -1.5946 -1.8682
   45CHL1    C1 3300   6.818   1.112   3.187  0.5922 -0.0883  0.2202
   45CHL1   H1A 3301   6.859   1.018   3.231  1.8887  0.5701  0.4694
   45CHL1   H1B 3302   6.711   1.120   3.214  0.1448  0.8647 -1.6681
   45CHL1    C2 3303   6.834   1.094   3.034 -0.1203  0.6518  0.1295
   45CHL1   H2A 3304   6.801   0.991   3.010 -1.3955  0.6628  1.6434
   45CHL1   H2B 3305   6.942   1.085   3.012 -0.1799  1.2903 -0.4414
   45CHL1   C20 3306   6.913   1.309   3.965 -0.4185  0.3091 -0.0870
   45CHL1   H20 3307   7.007   1.365   3.978  0.4062 -0.5688 -1.8572
   45CHL1   C21 3308   6.955   1.159   3.972 -0.1625 -0.3362 -0.1651
   45CHL1  H21A 3309   6.869   1.095   3.941 -1.1440  1.3252 -1.0538
   45CHL1  H21B 3310   6.988   1.130   4.074 -0.1693 -1.8792 -0.5722
   45CHL1  H21C 3311   7.033   1.142   3.895 -0.0692  0.1873 -0.1896
   45CHL1   C22 3312   6.827   1.335   4.080 -0.4184 -0.2755  0.3487
   45CHL1  H22A 3313   6.789   1.439   4.072 -1.8894 -0.7005  1.3323
   45CHL1  H22B 3314   6.740   1.265   4.085 -1.6361  1.0264 -1.3477
   45CHL1   C23 3315   6.890   1.338   4.218  0.0217  0.0586  0.3191
   45CHL1  H23A 3316   6.927   1.237   4.244  1.3375  0.4813  0.1802
   45CHL1  H23B 3317   6.986   1.395   4.219  0.8153 -1.2330 -0.3177
   45CHL1   C24 3318   6.801   1.401   4.329 -0.1990 -0.6009  0.8377
   45CHL1  H24A 3319   6.816   1.511   4.319 -0.4399 -0.4830  1.7279
   45CHL1  H24B 3320   6.693   1.388   4.306  0.1209 -0.8829 -0.6309
   45CHL1   C25 3321   6.833   1.349   4.467 -0.3081 -0.0958 -0.8507
   45CHL1   H25 3322   6.820   1.239   4.458  1.4650 -0.4570  0.3720
   45CHL1   C26 3323   6.979   1.378   4.504 -0.2824  0.7306  0.0316
   45CHL1  H26A 3324   7.054   1.336   4.433 -0.5013  0.2869  0.0572
   45CHL1  H26B 3325   7.000   1.486   4.512 -1.3597  0.7940  3.4084
   45CHL1  H26C 3326   7.011   1.325   4.597  1.9971  0.2769 -0.9352
   45CHL1   C27 3327   6.737   1.416   4.574  0.3826 -0.1450  0.1068
   45CHL1  H27A 3328   6.766   1.383   4.676 -0.8038  0.3702  0.6227
   45CHL1  H27B 3329   6.753   1.525   4.573  2.2004 -0.3321 -2.6891
   45CHL1  H27C 3330   6.629   1.400   4.553 -0.5314  1.4751  3.0484
   46CHL1    C3 3331   1.872   1.975   3.418  0.4199  0.4146 -0.0536
   46CHL1    H3 3332   1.888   2.085   3.420  1.7433  0.2281  1.9988
   46CHL1    O3 3333   1.860   1.924   3.283  0.5977  0.0145 -0.3937
   46CHL1   H3' 3334   1.906   1.841   3.293  0.1320 -0.3088 -0.9247
   46CHL1    C4 3335   1.985   1.902   3.489 -0.8395 -0.4484  0.0568
   46CHL1   H4A 3336   1.967   1.792   3.487  0.0571 -0.5883 -0.5128
   46CHL1   H4B 3337   2.086   1.920   3.447 -0.8998  1.1338  0.5223
   46CHL1    C5 3338   1.994   1.950   3.633  0.0832 -0.8073 -0.5364
   46CHL1    C6 3339   2.104   1.995   3.699 -0.2432  0.6943 -0.3989
   46CHL1    H6 3340   2.196   2.014   3.642 -0.8781  0.0646 -1.6804
   46CHL1    C7 3341   2.109   2.015   3.852 -0.3832  0.0620 -0.6294
   46CHL1   H7A 3342   2.201   1.971   3.896 -0.9379  0.0185  0.5211
   46CHL1   H7B 3343   2.120   2.124   3.870 -1.8061 -0.2007  2.5100
   46CHL1    C8 3344   1.993   1.957   3.925 -0.0905 -0.6793  0.0341
   46CHL1    H8 3345   2.019   1.850   3.935  1.5996 -0.3967 -0.9087
   46CHL1   C14 3346   1.991   2.015   4.066  0.2896  0.3395 -0.8318
   46CHL1   H14 3347   1.964   2.122   4.058 -1.0089 -0.0700 -2.6144
   46CHL1   C15 3348   2.125   2.012   4.151 -0.1550  0.2530 -0.0171
   46CHL1  H15A 3349   2.176   1.915   4.131  1.5595  0.9641  0.6786
   46CHL1  H15B 3350   2.197   2.090   4.118 -1.5473  1.4182 -0.4382
   46CHL1   C16 3351   2.086   2.018   4.298 -0.3785  0.4866 -0.5691
   46CHL1  H16A 3352   2.101   1.914   4.335  0.3524 -0.1492 -2.5458
   46CHL1  H16B 3353   2.128   2.103   4.357 -2.3733  1.5444 -0.6087
   46CHL1   C17 3354   1.937   2.025   4.298 -0.4469  0.4528  0.8758
   46CHL1   H17 3355   1.909   2.132   4.291 -0.6822  0.2761 -1.9282
   46CHL1   C13 3356   1.892   1.960   4.159  0.7443 -0.0653 -0.5796
   46CHL1   C18 3357   1.900   1.811   4.168  0.0581  0.4728 -0.2724
   46CHL1  H18A 3358   1.821   1.778   4.240  0.5822 -0.0530  0.0688
   46CHL1  H18B 3359   1.868   1.779   4.067 -0.2090  1.0138 -0.3634
   46CHL1  H18C 3360   2.000   1.765   4.181 -1.0062 -2.1188 -0.6555
   46CHL1   C12 3361   1.757   2.005   4.090 -0.6513  0.0255 -0.5686
   46CHL1  H12A 3362   1.670   1.964   4.146 -0.2328 -1.4737 -0.9841
   46CHL1  H12B 3363   1.764   2.116   4.090  0.8597 -0.0395 -1.7674
   46CHL1   C11 3364   1.740   1.954   3.946 -0.1372  0.0214  0.4108
   46CHL1  H11A 3365   1.721   1.844   3.943  0.8644 -0.1528  0.3628
   46CHL1  H11B 3366   1.652   2.006   3.903  0.0330  2.6025  2.8497
   46CHL1    C9 3367   1.866   1.987   3.848 -0.3009 -0.3549 -0.1862
   46CHL1    H9 3368   1.861   2.097   3.832  1.2282  0.1540  2.2707
   46CHL1   C10 3369   1.861   1.923   3.707 -0.3772 -0.0816 -0.7866
   46CHL1   C19 3370   1.830   1.767   3.718 -0.2900 -0.7262  0.4931
   46CHL1  H19A 3371   1.811   1.729   3.615 -0.7271 -0.4444  0.4667
   46CHL1  H19B 3372   1.914   1.709   3.762  0.3286 -1.6291 -1.7269
   46CHL1  H19C 3373   1.735   1.746   3.770 -0.0570 -1.8682  0.4794
   46CHL1    C1 3374   1.752   1.995   3.629  0.2528  0.4341 -1.0737
   46CHL1   H1A 3375   1.653   1.975   3.676 -0.0520 -0.2905 -1.9908
   46CHL1   H1B 3376   1.773   2.104   3.633 -0.8533  0.6618 -0.9948
   46CHL1    C2 3377   1.737   1.956   3.487  0.1111 -0.1963  0.5172
   46CHL1   H2A 3378   1.652   2.011   3.442 -1.3957 -0.2493  3.1248
   46CHL1   H2B 3379   1.696   1.853   3.479  0.7323 -0.3610 -0.9962
   46CHL1   C20 3380   1.870   1.968   4.432  0.2003  0.0023  1.1334
   46CHL1   H20 3381   1.900   1.861   4.442 -0.3446 -0.4219 -1.3202
   46CHL1   C21 3382   1.719   1.978   4.421  0.2564  0.8679 -0.0424
   46CHL1  H21A 3383   1.679   1.973   4.525  1.5635 -1.0804  0.4139
   46CHL1  H21B 3384   1.673   1.897   4.360 -0.2269  1.1235 -0.0206
   46CHL1  H21C 3385   1.683   2.074   4.377 -0.0205  0.5867 -0.4383
   46CHL1   C22 3386   1.919   2.041   4.561 -0.7582 -1.0498 -0.0440
   46CHL1  H22A 3387   1.866   2.008   4.653 -2.1019  4.1178  1.3964
   46CHL1  H22B 3388   2.029   2.023   4.568 -0.8537 -1.3229  0.8255
   46CHL1   C23 3389   1.909   2.194   4.564  0.1535  0.0738  0.0109
   46CHL1  H23A 3390   1.980   2.233   4.487 -1.8058 -1.9267 -3.0460
   46CHL1  H23B 3391   1.803   2.229   4.558 -0.1942 -0.7813  0.9772
   46CHL1   C24 3392   1.962   2.246   4.697 -0.7871  0.7828  0.3673
   46CHL1  H24A 3393   1.917   2.211   4.793 -0.5622 -1.7439 -0.3790
   46CHL1  H24B 3394   2.069   2.222   4.713  0.0480  3.0800 -1.3068
   46CHL1   C25 3395   1.949   2.400   4.704  0.1987 -0.1844  0.8686
   46CHL1   H25 3396   1.845   2.425   4.671 -0.1831 -1.6184  0.9097
   46CHL1   C26 3397   1.952   2.445   4.850 -0.0207 -0.0622  0.1121
   46CHL1  H26A 3398   1.935   2.554   4.864 -0.7655 -0.1340 -0.1568
   46CHL1  H26B 3399   1.871   2.397   4.908 -0.2738  0.1901 -0.0271
   46CHL1  H26C 3400   2.051   2.421   4.892 -0.7570  1.5715  3.0143
   46CHL1   C27 3401   2.065   2.464   4.620  0.2406  0.7499  0.0691
   46CHL1  H27A 3402   2.051   2.575   4.622  0.8047  0.8316 -0.1507
   46CHL1  H27B 3403   2.165   2.438   4.661 -0.4491 -0.9487  0.7166
   46CHL1  H27C 3404   2.067   2.432   4.513  1.2107  3.1994 -0.7261
   47CHL1    C3 3405   6.820   2.237   3.474  0.3512  0.2843 -0.4441
   47CHL1    H3 3406   6.802   2.331   3.531  1.4158  0.5027 -0.4418
   47CHL1    O3 3407   6.806   2.256   3.336 -0.1521  0.7712 -0.1532
   47CHL1   H3' 3408   6.810   2.169   3.296 -0.2247  0.1145  1.2070
   47CHL1    C4 3409   6.956   2.195   3.515 -0.4736  0.1794  0.0734
   47CHL1   H4A 3410   6.979   2.101   3.459 -1.1518 -0.5473  0.9830
   47CHL1   H4B 3411   7.028   2.275   3.488 -1.5447  0.8325 -0.9431
   47CHL1    C5 3412   6.944   2.152   3.662 -0.3460  0.5972  0.1504
   47CHL1    C6 3413   7.021   2.209   3.750  0.7632 -0.1976  0.8278
   47CHL1    H6 3414   7.085   2.290   3.713  1.4227 -2.9606 -5.3314
   47CHL1    C7 3415   7.025   2.162   3.889 -0.6324  0.6392 -0.2647
   47CHL1   H7A 3416   7.130   2.170   3.927  0.1463  1.8054 -2.5027
   47CHL1   H7B 3417   6.970   2.239   3.946 -1.3143 -0.7351  1.0264
   47CHL1    C8 3418   6.957   2.024   3.929 -0.2324 -0.8202  0.0403
   47CHL1    H8 3419   7.020   1.938   3.897 -1.7827 -2.3335  0.8350
   47CHL1   C14 3420   6.942   2.015   4.079 -0.4285 -0.3153  0.0692
   47CHL1   H14 3421   6.883   2.106   4.102  0.0308 -0.3583  1.4688
   47CHL1   C15 3422   7.071   2.019   4.163  0.1304 -0.3419 -0.3505
   47CHL1  H15A 3423   7.146   1.940   4.139  0.9432 -0.2585  1.6692
   47CHL1  H15B 3424   7.113   2.122   4.165  0.2208 -0.3846  0.1660
   47CHL1   C16 3425   7.015   1.969   4.302  0.4951  0.5504  0.0866
   47CHL1  H16A 3426   7.079   1.881   4.328 -0.3271 -0.2587 -0.5477
   47CHL1  H16B 3427   7.013   2.044   4.384  0.9970  0.5934  0.0640
   47CHL1   C17 3428   6.868   1.929   4.282 -0.1448 -0.0191  0.5737
   47CHL1   H17 3429   6.801   2.015   4.301  0.2569 -0.0001  2.0309
   47CHL1   C13 3430   6.848   1.900   4.131  0.3831  0.4655  0.3369
   47CHL1   C18 3431   6.914   1.764   4.105  1.0048 -0.2028  0.5659
   47CHL1  H18A 3432   6.936   1.739   3.999  0.8286 -0.8371  0.6768
   47CHL1  H18B 3433   7.008   1.742   4.160  1.3953  1.5711  0.6818
   47CHL1  H18C 3434   6.840   1.685   4.127 -0.9350  1.1403 -0.8522
   47CHL1   C12 3435   6.711   1.921   4.057 -0.2857  0.6441 -0.9302
   47CHL1  H12A 3436   6.641   1.836   4.075  0.6771 -0.0105 -0.1384
   47CHL1  H12B 3437   6.667   2.014   4.099 -0.0291  0.4980 -0.3239
   47CHL1   C11 3438   6.734   1.916   3.907  0.0939  0.3181  0.0775
   47CHL1  H11A 3439   6.762   1.812   3.880 -0.0773  0.7151 -1.7249
   47CHL1  H11B 3440   6.630   1.925   3.870  0.6377  1.6133 -1.1959
   47CHL1    C9 3441   6.824   2.029   3.860  0.6329  0.0941  0.1106
   47CHL1    H9 3442   6.770   2.119   3.897 -1.2949 -1.0269  0.1470
   47CHL1   C10 3443   6.838   2.048   3.705 -0.3235  0.5015 -1.0819
   47CHL1   C19 3444   6.883   1.907   3.646 -0.2414  0.3130 -0.0872
   47CHL1  H19A 3445   6.916   1.921   3.541 -1.1003  3.0975 -0.0634
   47CHL1  H19B 3446   6.962   1.854   3.703  0.6047  0.3702 -1.1836
   47CHL1  H19C 3447   6.790   1.845   3.640  0.3168 -0.4474 -1.1072
   47CHL1    C1 3448   6.700   2.099   3.657  0.0546 -0.2029 -0.0013
   47CHL1   H1A 3449   6.632   2.015   3.679  0.5490 -0.7853 -0.6642
   47CHL1   H1B 3450   6.673   2.185   3.722  2.5095  0.0336  0.8455
   47CHL1    C2 3451   6.709   2.138   3.516  0.4138 -0.4007  0.1658
   47CHL1   H2A 3452   6.618   2.187   3.477  0.2312 -0.2559  0.7666
   47CHL1   H2B 3453   6.726   2.039   3.467  0.4214 -0.9343  1.2265
   47CHL1   C20 3454   6.830   1.809   4.375  0.8975  0.3324  0.4721
   47CHL1   H20 3455   6.890   1.718   4.354  0.1552  0.2600 -1.5150
   47CHL1   C21 3456   6.678   1.776   4.352  0.2204 -0.0229  0.1276
   47CHL1  H21A 3457   6.658   1.683   4.410  3.3055 -2.7891 -2.7930
   47CHL1  H21B 3458   6.658   1.738   4.250 -1.0603 -0.0847  0.3809
   47CHL1  H21C 3459   6.616   1.863   4.384  3.1880  2.3425 -0.1382
   47CHL1   C22 3460   6.853   1.845   4.529  0.0671 -0.2062 -0.2376
   47CHL1  H22A 3461   6.840   1.953   4.551 -0.5729 -0.3015 -0.1450
   47CHL1  H22B 3462   6.775   1.791   4.587 -0.2340  0.4873  0.0103
   47CHL1   C23 3463   6.985   1.785   4.594 -0.4201  0.5036  0.6573
   47CHL1  H23A 3464   6.988   1.675   4.588  1.9117  0.6134 -3.9468
   47CHL1  H23B 3465   7.071   1.815   4.531  1.0825 -3.5713  0.4966
   47CHL1   C24 3466   7.019   1.831   4.737  0.0036  0.1869 -0.3465
   47CHL1  H24A 3467   6.947   1.775   4.799  2.9188 -3.0169  0.4657
   47CHL1  H24B 3468   7.123   1.797   4.758 -0.6261 -1.2078  0.6408
   47CHL1   C25 3469   6.999   1.975   4.781 -0.0501 -0.0851 -0.0487
   47CHL1   H25 3470   6.892   2.001   4.763 -0.1655 -1.0558 -0.9230
   47CHL1   C26 3471   7.049   1.990   4.927  0.0802  0.0263  0.3831
   47CHL1  H26A 3472   7.039   2.090   4.973 -0.2880  0.3837 -0.4489
   47CHL1  H26B 3473   6.989   1.925   4.994 -1.0187  0.7429  0.1128
   47CHL1  H26C 3474   7.157   1.961   4.929  0.3212  0.9142  0.4784
   47CHL1   C27 3475   7.087   2.064   4.694 -0.0286  0.4833 -0.0310
   47CHL1  H27A 3476   7.193   2.036   4.713  0.1222  0.6440 -0.6159
   47CHL1  H27B 3477   7.058   2.049   4.587 -2.9391  0.7035  0.6579
   47CHL1  H27C 3478   7.077   2.171   4.722 -0.0425  0.0025  1.9406
   48CHL1    C3 3479   1.897   4.834   3.304  0.3660  0.2186  0.1412
   48CHL1    H3 3480   1.801   4.803   3.257  1.2324 -1.1718 -0.8205
   48CHL1    O3 3481   1.993   4.835   3.197 -0.6643 -0.7217 -0.3143
   48CHL1   H3' 3482   2.058   4.767   3.217  1.2380  0.4311 -2.1182
   48CHL1    C4 3483   1.906   4.975   3.376 -0.7611 -0.5028  0.1681
   48CHL1   H4A 3484   2.014   5.000   3.383 -0.8210 -0.1518 -0.1411
   48CHL1   H4B 3485   1.851   5.046   3.312 -4.1258 -0.9868  2.2771
   48CHL1    C5 3486   1.846   4.967   3.514 -0.4794 -0.0920  0.1467
   48CHL1    C6 3487   1.757   5.056   3.554  0.6129 -0.4274  0.1244
   48CHL1    H6 3488   1.728   5.140   3.489  1.1177  0.3069  0.8237
   48CHL1    C7 3489   1.709   5.074   3.699 -0.4595 -0.0291  0.5573
   48CHL1   H7A 3490   1.721   5.178   3.736 -2.8415 -0.0203  1.4873
   48CHL1   H7B 3491   1.601   5.047   3.705 -0.1227 -1.4491  0.6514
   48CHL1    C8 3492   1.791   4.991   3.802 -0.2201  0.3610  0.7563
   48CHL1    H8 3493   1.890   5.040   3.815 -0.3894  1.3198 -1.2247
   48CHL1   C14 3494   1.730   4.988   3.934  0.2180  0.5575  0.0653
   48CHL1   H14 3495   1.632   4.950   3.898  1.6392 -1.9901 -1.4193
   48CHL1   C15 3496   1.709   5.123   4.006 -0.9037  0.1271 -0.4636
   48CHL1  H15A 3497   1.802   5.183   4.004 -0.8842  0.3964  2.8138
   48CHL1  H15B 3498   1.635   5.182   3.948 -0.1108 -0.5726 -2.2392
   48CHL1   C16 3499   1.665   5.082   4.145  0.0015  0.2036 -0.9591
   48CHL1  H16A 3500   1.733   5.133   4.217  0.4990 -1.6489 -0.0266
   48CHL1  H16B 3501   1.559   5.105   4.171  1.0768  3.0543  1.4802
   48CHL1   C17 3502   1.694   4.926   4.160 -0.2748 -0.6428  0.9074
   48CHL1   H17 3503   1.602   4.866   4.141  0.8264 -1.9145 -0.6670
   48CHL1   C13 3504   1.787   4.890   4.038  0.5719 -0.3760 -0.2280
   48CHL1   C18 3505   1.936   4.921   4.070 -0.4293 -0.0537  0.8559
   48CHL1  H18A 3506   2.003   4.883   3.990  0.2181  0.9120  0.9244
   48CHL1  H18B 3507   1.950   5.030   4.056  1.0669  0.0825  2.9469
   48CHL1  H18C 3508   1.972   4.888   4.170  1.6063 -2.1742 -0.4790
   48CHL1   C12 3509   1.781   4.749   3.988  0.0361  0.1013 -0.0642
   48CHL1  H12A 3510   1.830   4.670   4.049  0.7147 -0.2020 -0.9776
   48CHL1  H12B 3511   1.675   4.720   3.970  0.3647 -1.5138  0.4642
   48CHL1   C11 3512   1.853   4.740   3.851 -0.5657  0.2296 -0.5302
   48CHL1  H11A 3513   1.963   4.731   3.866 -0.8263 -1.9621  0.4272
   48CHL1  H11B 3514   1.817   4.641   3.819 -0.7379  0.2952 -0.5430
   48CHL1    C9 3515   1.812   4.850   3.746 -0.0184  0.2328  0.4810
   48CHL1    H9 3516   1.707   4.826   3.718 -0.4965  0.6775  1.8420
   48CHL1   C10 3517   1.891   4.852   3.613  0.5727  0.2880 -0.4926
   48CHL1   C19 3518   2.042   4.875   3.646  0.3707  1.2706  0.6405
   48CHL1  H19A 3519   2.092   4.905   3.552 -1.1063  0.4958 -0.4404
   48CHL1  H19B 3520   2.070   4.948   3.724  0.7019  0.8698  0.9026
   48CHL1  H19C 3521   2.090   4.778   3.672 -3.6889 -2.0437 -2.7526
   48CHL1    C1 3522   1.874   4.720   3.542  0.2338  0.4385 -0.0587
   48CHL1   H1A 3523   1.915   4.636   3.603  0.0208 -0.8169 -1.5800
   48CHL1   H1B 3524   1.765   4.700   3.531  0.6235 -2.1468  0.0089
   48CHL1    C2 3525   1.939   4.720   3.399 -0.0945  0.4654 -0.1074
   48CHL1   H2A 3526   1.925   4.615   3.364  0.2503 -0.2637  1.7844
   48CHL1   H2B 3527   2.047   4.727   3.425 -0.2210 -0.3613  0.6898
   48CHL1   C20 3528   1.739   4.897   4.310 -0.2642 -0.5299  0.4663
   48CHL1   H20 3529   1.834   4.954   4.318  0.4128 -1.0821 -2.5041
   48CHL1   C21 3530   1.769   4.740   4.337  0.2175  0.0486  0.1962
   48CHL1  H21A 3531   1.854   4.716   4.270 -1.1769 -0.1956 -1.5422
   48CHL1  H21B 3532   1.682   4.680   4.303  0.7711  0.5277 -2.2109
   48CHL1  H21C 3533   1.793   4.717   4.443  0.5299 -0.8632 -0.0665
   48CHL1   C22 3534   1.646   4.948   4.425 -0.3167  0.1328  0.1415
   48CHL1  H22A 3535   1.702   4.919   4.515 -1.2495 -1.9221  0.1039
   48CHL1  H22B 3536   1.636   5.059   4.414  0.0509  0.2799  1.2476
   48CHL1   C23 3537   1.500   4.891   4.434 -0.0811 -0.3247 -0.0945
   48CHL1  H23A 3538   1.461   4.895   4.330  1.0982  0.3570 -0.5252
   48CHL1  H23B 3539   1.514   4.794   4.487  1.0317  0.9558  2.0699
   48CHL1   C24 3540   1.412   4.983   4.526 -1.0934  0.0859  0.4299
   48CHL1  H24A 3541   1.400   5.083   4.479  3.6396  1.9939  2.6469
   48CHL1  H24B 3542   1.308   4.946   4.532 -0.8161 -0.6778  0.7386
   48CHL1   C25 3543   1.454   5.007   4.672  0.1878 -0.6053 -0.0827
   48CHL1   H25 3544   1.562   5.031   4.671 -0.0526  0.5563  0.6389
   48CHL1   C26 3545   1.364   5.106   4.747 -0.0180 -0.1733 -0.1453
   48CHL1  H26A 3546   1.256   5.107   4.718 -0.0358  1.2886 -0.1426
   48CHL1  H26B 3547   1.371   5.070   4.852  1.3283 -0.3887 -0.2950
   48CHL1  H26C 3548   1.401   5.208   4.722 -2.4535  0.9978  0.7060
   48CHL1   C27 3549   1.449   4.871   4.745 -0.9168  0.5416  1.1309
   48CHL1  H27A 3550   1.361   4.808   4.721  0.2666 -0.9689  0.5390
   48CHL1  H27B 3551   1.532   4.808   4.706  0.5761  2.6932  0.6789
   48CHL1  H27C 3552   1.457   4.879   4.856  0.5563 -2.0219  1.3070
   49CHL1    C3 3553   5.423   2.025   3.173 -0.5044  0.2911 -0.4169
   49CHL1    H3 3554   5.443   2.133   3.189  2.6031 -0.0927 -1.1070
   49CHL1    O3 3555   5.376   2.001   3.041 -0.5306  0.7567  0.6160
   49CHL1   H3' 3556   5.346   1.910   3.034 -0.2202  0.2515  3.9455
   49CHL1    C4 3557   5.556   1.952   3.193 -0.3696 -0.0594  0.2041
   49CHL1   H4A 3558   5.532   1.847   3.165  0.7291  0.3009 -2.4298
   49CHL1   H4B 3559   5.625   1.992   3.116 -1.4283  0.3347 -0.5721
   49CHL1    C5 3560   5.627   1.950   3.326 -0.1887  0.0542  0.0784
   49CHL1    C6 3561   5.755   1.989   3.344  0.3423 -0.2146 -0.2493
   49CHL1    H6 3562   5.818   2.020   3.259 -0.7865  1.7444 -0.4312
   49CHL1    C7 3563   5.828   1.981   3.481  0.3927 -0.0294  0.1649
   49CHL1   H7A 3564   5.925   1.928   3.481  0.4163 -0.0031  0.8439
   49CHL1   H7B 3565   5.851   2.085   3.511 -0.0478  0.9227 -2.5227
   49CHL1    C8 3566   5.741   1.913   3.597 -0.1178 -0.2209 -0.2922
   49CHL1    H8 3567   5.749   1.806   3.569 -2.1446 -0.3549 -0.5057
   49CHL1   C14 3568   5.790   1.959   3.738  0.1494  0.1911  0.2367
   49CHL1   H14 3569   5.767   2.066   3.753  1.9720  0.3891  2.2495
   49CHL1   C15 3570   5.940   1.951   3.779  0.6058  0.4777 -0.0856
   49CHL1  H15A 3571   5.988   1.856   3.750 -2.3284 -0.8510 -0.9328
   49CHL1  H15B 3572   6.005   2.031   3.737 -0.6129  0.9548 -1.0859
   49CHL1   C16 3573   5.939   1.953   3.931  0.3580  0.0440 -0.5017
   49CHL1  H16A 3574   5.994   1.863   3.967 -0.8074 -1.0883 -1.4612
   49CHL1  H16B 3575   5.973   2.047   3.979  0.6491 -1.2456  2.0071
   49CHL1   C17 3576   5.786   1.954   3.973 -0.7425  0.5819  0.4828
   49CHL1   H17 3577   5.758   2.061   3.974  0.7418  0.9960  1.6088
   49CHL1   C13 3578   5.715   1.892   3.855  0.0784 -1.4946  0.4475
   49CHL1   C18 3579   5.728   1.738   3.842 -0.5194 -0.0690 -0.2171
   49CHL1  H18A 3580   5.831   1.709   3.814 -0.6267 -0.8978  0.2202
   49CHL1  H18B 3581   5.692   1.689   3.935 -0.2487  0.0306 -0.0593
   49CHL1  H18C 3582   5.657   1.699   3.765 -0.9234 -2.4305  1.2818
   49CHL1   C12 3583   5.564   1.943   3.845  0.2367 -0.1154  0.1418
   49CHL1  H12A 3584   5.498   1.887   3.915 -0.1785  0.5128  0.2600
   49CHL1  H12B 3585   5.563   2.050   3.875  1.0421 -0.7753  2.7100
   49CHL1   C11 3586   5.499   1.917   3.705 -0.4262 -0.1082 -0.4299
   49CHL1  H11A 3587   5.494   1.806   3.709  1.4192 -0.2290 -0.6966
   49CHL1  H11B 3588   5.397   1.960   3.704 -0.8213 -0.6487  3.1047
   49CHL1    C9 3589   5.589   1.956   3.584 -0.1025  0.6752 -1.1324
   49CHL1    H9 3590   5.593   2.067   3.583  1.5830  0.6534 -0.1570
   49CHL1   C10 3591   5.531   1.921   3.448 -0.8913  1.3827  0.1846
   49CHL1   C19 3592   5.507   1.766   3.448  0.7330  0.4194  0.5895
   49CHL1  H19A 3593   5.491   1.719   3.348 -0.6501 -0.5972  1.2423
   49CHL1  H19B 3594   5.593   1.710   3.489  0.9993  1.4421  1.4594
   49CHL1  H19C 3595   5.410   1.741   3.497  0.9619  0.2020  0.9337
   49CHL1    C1 3596   5.394   1.987   3.420 -0.1129 -0.1753  0.0091
   49CHL1   H1A 3597   5.314   1.944   3.485  0.1105 -0.0995  0.3379
   49CHL1   H1B 3598   5.403   2.094   3.450  0.0752  0.8356 -3.2419
   49CHL1    C2 3599   5.328   1.958   3.276  0.0310  0.3786  0.4842
   49CHL1   H2A 3600   5.227   2.004   3.272 -1.8705 -3.4672 -0.9168
   49CHL1   H2B 3601   5.319   1.849   3.258 -1.1944  0.7488 -1.4243
   49CHL1   C20 3602   5.750   1.890   4.111 -0.2720 -0.2447  0.0278
   49CHL1   H20 3603   5.644   1.856   4.103 -0.1688 -0.3043 -1.1368
   49CHL1   C21 3604   5.769   2.012   4.207 -0.3560  0.5962  0.8137
   49CHL1  H21A 3605   5.714   2.103   4.175 -0.3129 -0.1683 -1.5601
   49CHL1  H21B 3606   5.875   2.041   4.222 -0.6062  2.3360 -0.5821
   49CHL1  H21C 3607   5.733   1.979   4.307  1.1851 -0.2429  1.1234
   49CHL1   C22 3608   5.841   1.774   4.160  0.2344  0.1858  0.1364
   49CHL1  H22A 3609   5.851   1.689   4.089  0.0328 -0.7222  1.1546
   49CHL1  H22B 3610   5.945   1.813   4.162  1.3928 -2.5513 -1.1140
   49CHL1   C23 3611   5.797   1.711   4.292 -0.5619 -0.4452  0.2993
   49CHL1  H23A 3612   5.807   1.786   4.373 -0.2644  0.9271 -0.9455
   49CHL1  H23B 3613   5.688   1.689   4.301 -0.5064 -1.2295 -0.7396
   49CHL1   C24 3614   5.888   1.584   4.328  0.7865 -0.5418  0.5703
   49CHL1  H24A 3615   5.887   1.513   4.242 -0.2194 -1.3056  1.1902
   49CHL1  H24B 3616   5.993   1.619   4.337  0.7465 -0.4738  0.7769
   49CHL1   C25 3617   5.855   1.521   4.467  0.2553 -0.2655 -0.4978
   49CHL1   H25 3618   5.837   1.608   4.534 -1.5005 -2.4331  2.0723
   49CHL1   C26 3619   5.728   1.443   4.460  0.0107 -0.1528  0.0513
   49CHL1  H26A 3620   5.651   1.511   4.417  1.0658  1.5238  0.7130
   49CHL1  H26B 3621   5.731   1.349   4.400 -0.2376 -0.5709  0.6820
   49CHL1  H26C 3622   5.711   1.416   4.566 -1.6948  1.1569  0.1461
   49CHL1   C27 3623   5.976   1.443   4.538 -0.4095  0.0785 -0.0961
   49CHL1  H27A 3624   5.981   1.344   4.488 -1.8134  0.9088 -2.0348
   49CHL1  H27B 3625   6.076   1.490   4.529  0.2766 -1.0227  1.4455
   49CHL1  H27C 3626   5.952   1.436   4.646 -0.6380 -0.7312 -0.1912
   50CHL1    C3 3627   2.755   5.974   2.724 -0.9529  0.0499 -0.2787
   50CHL1    H3 3628   2.694   5.884   2.703 -0.8645  0.2634 -1.5461
   50CHL1    O3 3629   2.795   6.018   2.595  0.4953  0.0148 -0.6769
   50CHL1   H3' 3630   2.855   6.093   2.597 -1.5704  1.7945 -0.9268
   50CHL1    C4 3631   2.662   6.079   2.782 -0.6545 -0.1230  0.2598
   50CHL1   H4A 3632   2.704   6.176   2.749  0.7898 -1.4380 -2.1200
   50CHL1   H4B 3633   2.569   6.082   2.720 -0.2320 -0.1175 -0.3825
   50CHL1    C5 3634   2.646   6.079   2.933 -0.1235  0.1192  0.4014
   50CHL1    C6 3635   2.525   6.107   2.986  0.2786  0.2985 -0.3731
   50CHL1    H6 3636   2.433   6.129   2.931  0.6565  2.7987 -0.0909
   50CHL1    C7 3637   2.506   6.120   3.136  0.5086 -0.3608  0.8601
   50CHL1   H7A 3638   2.426   6.192   3.165 -0.0092 -0.4480 -0.2723
   50CHL1   H7B 3639   2.452   6.029   3.167 -1.6001 -0.0164 -1.4105
   50CHL1    C8 3640   2.635   6.141   3.216 -0.5071  0.6155 -0.4826
   50CHL1    H8 3641   2.670   6.246   3.205  0.6212  0.2549 -0.3602
   50CHL1   C14 3642   2.617   6.106   3.363 -0.3868  0.5025  0.7052
   50CHL1   H14 3643   2.581   6.001   3.370  3.3995 -0.9383  1.5214
   50CHL1   C15 3644   2.507   6.189   3.428  0.0682  0.5611 -0.2782
   50CHL1  H15A 3645   2.527   6.294   3.398 -1.6616  0.5429 -1.6276
   50CHL1  H15B 3646   2.406   6.152   3.400  0.1311 -1.6913  2.1245
   50CHL1   C16 3647   2.546   6.179   3.574  0.7845 -0.5783  1.2396
   50CHL1  H16A 3648   2.563   6.282   3.613 -0.3818  0.0838  0.1014
   50CHL1  H16B 3649   2.456   6.137   3.624 -0.2804 -1.9598 -1.6001
   50CHL1   C17 3650   2.675   6.095   3.582 -0.1639 -0.2283  0.2201
   50CHL1   H17 3651   2.643   5.989   3.588  1.3744 -0.6455  2.0616
   50CHL1   C13 3652   2.744   6.118   3.443  0.4588  0.1819 -0.0185
   50CHL1   C18 3653   2.797   6.267   3.446 -0.5759 -0.1720  0.5186
   50CHL1  H18A 3654   2.715   6.334   3.479 -0.7515  0.0394 -0.3364
   50CHL1  H18B 3655   2.873   6.265   3.527 -1.2997 -1.8479  1.2177
   50CHL1  H18C 3656   2.839   6.304   3.351  0.2134 -1.3243  0.4041
   50CHL1   C12 3657   2.846   6.022   3.393 -0.7331 -0.5765  0.2528
   50CHL1  H12A 3658   2.942   6.035   3.447 -0.1867  1.9238 -1.1296
   50CHL1  H12B 3659   2.819   5.915   3.406 -0.9127 -0.2137  4.1793
   50CHL1   C11 3660   2.876   6.058   3.245 -0.1172 -0.3125 -0.0337
   50CHL1  H11A 3661   2.933   6.153   3.247  0.9933 -0.9614  0.8546
   50CHL1  H11B 3662   2.954   5.988   3.208  2.2832  1.5726  1.2007
   50CHL1    C9 3663   2.745   6.047   3.161  0.3662  0.1611  0.2138
   50CHL1    H9 3664   2.698   5.947   3.171 -1.7051  1.1140  0.5049
   50CHL1   C10 3665   2.772   6.062   3.007  0.6589 -0.4551 -0.3930
   50CHL1   C19 3666   2.858   6.189   2.979 -0.7552  0.2270  0.0563
   50CHL1  H19A 3667   2.964   6.174   3.010 -1.7458 -2.6639  2.5606
   50CHL1  H19B 3668   2.865   6.221   2.873  0.0879 -0.2302 -0.0383
   50CHL1  H19C 3669   2.816   6.278   3.030 -2.0593 -0.1286 -0.3560
   50CHL1    C1 3670   2.839   5.932   2.958  0.4858  0.0289 -1.2347
   50CHL1   H1A 3671   2.928   5.911   3.021 -1.3422  2.2603  2.3961
   50CHL1   H1B 3672   2.770   5.849   2.984 -0.1816  1.3029  1.2802
   50CHL1    C2 3673   2.877   5.947   2.813  0.8667  0.2976  0.6947
   50CHL1   H2A 3674   2.925   5.855   2.773 -0.0225 -0.4652  1.3472
   50CHL1   H2B 3675   2.943   6.033   2.789 -1.4923  1.3784 -2.7534
   50CHL1   C20 3676   2.752   6.141   3.704  0.3628 -0.4287 -0.5635
   50CHL1   H20 3677   2.776   6.250   3.702  2.1129 -0.7970 -2.0396
   50CHL1   C21 3678   2.889   6.070   3.717  0.0698 -0.0245  0.6113
   50CHL1  H21A 3679   2.880   5.959   3.718 -0.7155  0.0144 -0.4953
   50CHL1  H21B 3680   2.938   6.107   3.810 -0.9121  1.2442  0.6488
   50CHL1  H21C 3681   2.959   6.100   3.636 -2.3440 -1.3156 -2.1152
   50CHL1   C22 3682   2.660   6.124   3.833 -0.0148  0.4856  0.3661
   50CHL1  H22A 3683   2.574   6.193   3.837  0.8149  1.5037  1.5363
   50CHL1  H22B 3684   2.625   6.019   3.841 -0.0040  0.5405  1.1617
   50CHL1   C23 3685   2.727   6.152   3.970 -0.6085 -0.3357 -1.0702
   50CHL1  H23A 3686   2.656   6.118   4.048  0.4406 -0.2691 -0.0758
   50CHL1  H23B 3687   2.820   6.095   3.992  0.1231  1.6713  1.4470
   50CHL1   C24 3688   2.747   6.304   3.979 -0.2747 -0.5250  0.2842
   50CHL1  H24A 3689   2.815   6.349   3.904  0.1565  1.9816  2.0238
   50CHL1  H24B 3690   2.655   6.358   3.946  1.5865  3.8586  1.5800
   50CHL1   C25 3691   2.798   6.346   4.124 -0.0248  0.4374 -0.6126
   50CHL1   H25 3692   2.802   6.456   4.140 -1.1444  0.4134 -0.0893
   50CHL1   C26 3693   2.704   6.290   4.237 -0.4983 -0.2147  0.1324
   50CHL1  H26A 3694   2.739   6.313   4.340 -1.8366 -0.1872  0.6029
   50CHL1  H26B 3695   2.599   6.322   4.222 -0.0005  0.3966 -2.6324
   50CHL1  H26C 3696   2.699   6.180   4.223  0.4488 -0.1866 -0.5813
   50CHL1   C27 3697   2.952   6.312   4.148  0.2887  0.2424 -0.2273
   50CHL1  H27A 3698   2.955   6.203   4.124 -1.9937  0.0597  0.0534
   50CHL1  H27B 3699   3.015   6.381   4.088 -0.3897  2.7464  1.7596
   50CHL1  H27C 3700   2.982   6.315   4.255 -0.4743 -1.1001  0.0510
   51CHL1    C3 3701   5.488   0.607   3.280 -0.0726 -0.0806  0.2318
   51CHL1    H3 3702   5.526   0.505   3.299 -1.8039 -0.4662  1.9652
   51CHL1    O3 3703   5.504   0.623   3.141 -0.1427 -0.1263 -0.0878
   51CHL1   H3' 3704   5.466   0.709   3.123 -0.7103 -0.8930 -3.2192
   51CHL1    C4 3705   5.343   0.624   3.324  0.1737 -0.1627 -0.0524
   51CHL1   H4A 3706   5.301   0.722   3.291  1.1775 -0.4942 -2.5187
   51CHL1   H4B 3707   5.284   0.546   3.271  0.1672  0.3538 -0.8301
   51CHL1    C5 3708   5.318   0.617   3.476 -0.2685  0.1436  0.6895
   51CHL1    C6 3709   5.242   0.525   3.526 -0.3231  0.0922 -0.4315
   51CHL1    H6 3710   5.190   0.452   3.462 -1.1742  1.0192 -0.8239
   51CHL1    C7 3711   5.206   0.514   3.677 -0.4025 -0.3751  0.5878
   51CHL1   H7A 3712   5.099   0.503   3.704 -0.4008 -0.3961  0.5865
   51CHL1   H7B 3713   5.259   0.429   3.726  1.3874  1.3438  1.8002
   51CHL1    C8 3714   5.248   0.647   3.749  0.0870  0.5167  0.1199
   51CHL1    H8 3715   5.162   0.713   3.725 -1.7701 -1.5583  0.6856
   51CHL1   C14 3716   5.247   0.636   3.905 -0.4708 -0.3254 -0.1110
   51CHL1   H14 3717   5.330   0.562   3.914  0.7459  0.9499 -0.5577
   51CHL1   C15 3718   5.123   0.570   3.970  0.0089  0.3633  0.8505
   51CHL1  H15A 3719   5.035   0.612   3.917 -0.6629 -2.8805 -0.8609
   51CHL1  H15B 3720   5.119   0.459   3.965 -2.3980  0.4630 -1.8809
   51CHL1   C16 3721   5.142   0.612   4.116 -0.2871  0.5476  0.2907
   51CHL1  H16A 3722   5.052   0.661   4.159 -0.4024  0.7614 -0.1811
   51CHL1  H16B 3723   5.156   0.514   4.166 -3.1399 -0.9453 -1.5047
   51CHL1   C17 3724   5.264   0.717   4.122  0.4722  0.0892 -0.3314
   51CHL1   H17 3725   5.351   0.655   4.153 -1.6778 -2.3929  1.1839
   51CHL1   C13 3726   5.275   0.763   3.974 -0.3351  0.1054 -0.0866
   51CHL1   C18 3727   5.178   0.872   3.945 -0.3150  0.8345 -1.0687
   51CHL1  H18A 3728   5.205   0.966   3.999  2.7485 -0.8184  0.5884
   51CHL1  H18B 3729   5.183   0.902   3.838  2.7208  1.2320 -0.9127
   51CHL1  H18C 3730   5.072   0.860   3.974  0.0598  1.0808  0.4908
   51CHL1   C12 3731   5.421   0.797   3.942 -0.6794 -0.5440  0.3883
   51CHL1  H12A 3732   5.453   0.882   4.007  0.5578  0.8520 -1.9110
   51CHL1  H12B 3733   5.493   0.718   3.972 -0.2237 -0.2339  0.1299
   51CHL1   C11 3734   5.440   0.817   3.791 -0.3605  0.2710 -0.1320
   51CHL1  H11A 3735   5.391   0.914   3.769  2.0478  1.7878  0.7796
   51CHL1  H11B 3736   5.549   0.829   3.774  0.1698 -1.6332  1.4781
   51CHL1    C9 3737   5.387   0.697   3.706  0.4054 -0.1161 -0.2551
   51CHL1    H9 3738   5.460   0.616   3.729 -1.0186 -1.3334  0.1247
   51CHL1   C10 3739   5.394   0.721   3.552 -1.0206  0.2581  0.0636
   51CHL1   C19 3740   5.346   0.871   3.518 -0.1565  0.4177  0.0044
   51CHL1  H19A 3741   5.331   0.882   3.409 -1.4729  0.6132  0.1995
   51CHL1  H19B 3742   5.247   0.899   3.559  0.0465  0.2390  0.6444
   51CHL1  H19C 3743   5.414   0.952   3.553 -0.3409  1.6104 -2.2363
   51CHL1    C1 3744   5.543   0.689   3.518  0.1899  0.4135  0.5039
   51CHL1   H1A 3745   5.597   0.767   3.576 -0.4005  0.2577  1.2883
   51CHL1   H1B 3746   5.570   0.588   3.555 -2.0197 -0.6565 -0.6090
   51CHL1    C2 3747   5.574   0.708   3.364 -0.4089  0.0605 -1.3766
   51CHL1   H2A 3748   5.680   0.679   3.348  0.0566 -0.4689  1.8963
   51CHL1   H2B 3749   5.559   0.810   3.324 -0.0698  0.4322 -0.5808
   51CHL1   C20 3750   5.241   0.816   4.239 -0.1398 -0.0399 -0.3048
   51CHL1   H20 3751   5.162   0.883   4.201  1.9837  1.3280 -2.6532
   51CHL1   C21 3752   5.364   0.902   4.264  0.2903  0.2545 -0.4464
   51CHL1  H21A 3753   5.376   0.982   4.188  2.9448  0.0417 -0.3425
   51CHL1  H21B 3754   5.455   0.839   4.278  0.9094  1.4706  1.4472
   51CHL1  H21C 3755   5.346   0.949   4.363 -1.3177 -0.3182 -0.4413
   51CHL1   C22 3756   5.192   0.754   4.368 -0.1342 -0.2940 -0.3256
   51CHL1  H22A 3757   5.186   0.831   4.448 -0.8658 -0.0019 -0.6538
   51CHL1  H22B 3758   5.085   0.723   4.364 -0.0629 -0.3915 -2.7262
   51CHL1   C23 3759   5.290   0.652   4.430  0.1468  0.4477 -0.4617
   51CHL1  H23A 3760   5.310   0.575   4.352 -0.3530 -1.5401  1.2690
   51CHL1  H23B 3761   5.387   0.699   4.457  1.2021 -0.1761 -2.8855
   51CHL1   C24 3762   5.230   0.612   4.562 -1.0119 -0.2174  0.0418
   51CHL1  H24A 3763   5.306   0.541   4.600  0.2162  1.0207 -0.0211
   51CHL1  H24B 3764   5.225   0.700   4.630 -1.1191 -1.3375  1.5300
   51CHL1   C25 3765   5.096   0.546   4.562  0.5761 -0.6545  0.2829
   51CHL1   H25 3766   5.028   0.621   4.518 -1.9333 -1.2583  2.8064
   51CHL1   C26 3767   5.094   0.431   4.457 -0.5293  0.4267 -1.1637
   51CHL1  H26A 3768   5.010   0.359   4.467  1.0962 -1.3508  0.5977
   51CHL1  H26B 3769   5.087   0.468   4.352 -1.3220  2.4617 -0.4502
   51CHL1  H26C 3770   5.182   0.367   4.473  0.6632  2.3039  0.2484
   51CHL1   C27 3771   5.040   0.512   4.697  0.5211  0.4442 -0.4042
   51CHL1  H27A 3772   4.934   0.479   4.697  0.7160 -0.2999 -2.2397
   51CHL1  H27B 3773   5.098   0.432   4.747 -1.7817 -0.4278  1.0157
   51CHL1  H27C 3774   5.047   0.601   4.764  1.0915  0.7033 -0.8027
   52CHL1    C3 3775   2.274   5.309   3.213 -0.6670 -0.4028 -0.1056
   52CHL1    H3 3776   2.377   5.349   3.206 -0.4956 -0.0048  2.9980
   52CHL1    O3 3777   2.235   5.285   3.079  0.1509 -0.5902 -0.6044
   52CHL1   H3' 3778   2.177   5.209   3.075 -1.0160  0.2538 -0.2175
   52CHL1    C4 3779   2.265   5.184   3.306 -0.0820 -0.0709  0.6378
   52CHL1   H4A 3780   2.162   5.142   3.297  0.3340 -0.9232 -0.5365
   52CHL1   H4B 3781   2.329   5.100   3.269  0.3196 -0.5937  2.4448
   52CHL1    C5 3782   2.290   5.218   3.449  0.3298  0.1027  0.2138
   52CHL1    C6 3783   2.378   5.146   3.512 -0.6152 -0.7527 -0.1954
   52CHL1    H6 3784   2.440   5.072   3.461 -1.6411 -0.7322 -1.5231
   52CHL1    C7 3785   2.416   5.164   3.661 -0.3702  1.2767  0.2182
   52CHL1   H7A 3786   2.448   5.070   3.709  1.0987  0.5879 -1.9801
   52CHL1   H7B 3787   2.506   5.228   3.670  0.4776 -0.0788  2.0602
   52CHL1    C8 3788   2.300   5.231   3.735  0.0836 -0.3395  0.3482
   52CHL1    H8 3789   2.212   5.164   3.744  0.2542 -0.3954  1.8317
   52CHL1   C14 3790   2.336   5.264   3.880  0.1244 -0.0395  0.5981
   52CHL1   H14 3791   2.412   5.343   3.866  0.0911 -0.3981 -2.2286
   52CHL1   C15 3792   2.380   5.149   3.982 -0.3584 -0.6777  0.6072
   52CHL1  H15A 3793   2.300   5.072   3.975  0.6898 -1.7853  0.4473
   52CHL1  H15B 3794   2.475   5.098   3.957  0.3418  0.0193  1.7418
   52CHL1   C16 3795   2.392   5.220   4.118 -0.8222 -0.0240 -0.1926
   52CHL1  H16A 3796   2.358   5.154   4.201  0.2195 -0.1392  0.1588
   52CHL1  H16B 3797   2.499   5.247   4.130 -0.3020 -0.4261 -3.2217
   52CHL1   C17 3798   2.314   5.351   4.095 -0.1700  0.3196 -0.4476
   52CHL1   H17 3799   2.388   5.429   4.067 -0.2240  0.1142 -1.2004
   52CHL1   C13 3800   2.238   5.342   3.957 -0.0657  0.2800 -0.1874
   52CHL1   C18 3801   2.098   5.271   3.970  0.0090 -0.0850 -0.1452
   52CHL1  H18A 3802   2.095   5.178   4.030 -0.5893  0.1154  0.1410
   52CHL1  H18B 3803   2.027   5.350   4.003  1.7245  2.2262 -1.5926
   52CHL1  H18C 3804   2.060   5.237   3.871 -1.5852 -1.3859  0.8671
   52CHL1   C12 3805   2.216   5.482   3.892 -0.4374  0.1414 -0.4783
   52CHL1  H12A 3806   2.143   5.542   3.950 -1.4160  0.3631 -1.8957
   52CHL1  H12B 3807   2.313   5.537   3.890 -1.5383  2.2261  0.6614
   52CHL1   C11 3808   2.173   5.464   3.746 -0.2910  0.6043 -0.4561
   52CHL1  H11A 3809   2.066   5.433   3.745  0.0049 -0.5514  0.9414
   52CHL1  H11B 3810   2.186   5.564   3.700 -0.1797  2.3421  3.0197
   52CHL1    C9 3811   2.260   5.361   3.658 -0.1664  0.1495 -0.3913
   52CHL1    H9 3812   2.356   5.413   3.636  0.7872 -1.9507 -1.4670
   52CHL1   C10 3813   2.210   5.328   3.515  0.4120  0.3612 -0.4966
   52CHL1   C19 3814   2.072   5.270   3.523  0.2695  0.3618  1.2688
   52CHL1  H19A 3815   2.005   5.351   3.559  0.0523 -0.6142  3.1483
   52CHL1  H19B 3816   2.027   5.252   3.423 -0.8239  3.1626  1.1448
   52CHL1  H19C 3817   2.055   5.181   3.587 -0.5857 -0.6143 -0.2576
   52CHL1    C1 3818   2.223   5.453   3.426  0.4557  0.2598  0.5625
   52CHL1   H1A 3819   2.146   5.527   3.457 -0.1730 -0.1441 -0.0038
   52CHL1   H1B 3820   2.321   5.498   3.452  0.2610  1.2204 -0.2641
   52CHL1    C2 3821   2.191   5.428   3.273  0.4911  0.9327  0.3963
   52CHL1   H2A 3822   2.209   5.512   3.202  2.5920  1.6222  1.6407
   52CHL1   H2B 3823   2.082   5.409   3.266  0.6936 -0.9287  1.5902
   52CHL1   C20 3824   2.233   5.405   4.219  0.1634  0.5781 -0.3103
   52CHL1   H20 3825   2.155   5.472   4.176  1.3993  3.3883  1.5040
   52CHL1   C21 3826   2.333   5.485   4.311 -0.5217  0.0980  0.3149
   52CHL1  H21A 3827   2.284   5.526   4.402  0.8859  0.5399  0.9022
   52CHL1  H21B 3828   2.380   5.562   4.246 -3.3938  1.7841  0.0485
   52CHL1  H21C 3829   2.409   5.411   4.344  1.7902  0.6815 -3.2284
   52CHL1   C22 3830   2.171   5.294   4.309  0.6953 -0.4234  0.2430
   52CHL1  H22A 3831   2.111   5.220   4.251  0.6231  0.3630 -0.7183
   52CHL1  H22B 3832   2.247   5.241   4.369  0.5597 -0.4452  0.3956
   52CHL1   C23 3833   2.074   5.353   4.412 -0.1975 -0.2467  0.1870
   52CHL1  H23A 3834   2.134   5.413   4.484  3.2731 -0.7501 -2.0575
   52CHL1  H23B 3835   1.996   5.415   4.363 -0.9138 -0.4648  1.0118
   52CHL1   C24 3836   2.008   5.241   4.488  0.7951  0.1428 -0.1496
   52CHL1  H24A 3837   1.920   5.284   4.540 -1.1004 -2.1729 -1.1839
   52CHL1  H24B 3838   1.961   5.164   4.422  1.8217  0.8074 -1.7289
   52CHL1   C25 3839   2.096   5.171   4.598 -0.6709 -0.2392  0.2034
   52CHL1   H25 3840   2.185   5.133   4.543 -1.8344 -2.0355 -0.5620
   52CHL1   C26 3841   2.130   5.276   4.706 -0.1138  0.5790  0.1771
   52CHL1  H26A 3842   2.200   5.350   4.663 -0.8183 -0.4180 -2.9311
   52CHL1  H26B 3843   2.046   5.327   4.758 -1.9880 -1.8961 -0.2051
   52CHL1  H26C 3844   2.179   5.219   4.787 -0.7903 -2.5908 -1.4760
   52CHL1   C27 3845   2.021   5.056   4.666 -0.6875 -0.2382 -0.2771
   52CHL1  H27A 3846   2.004   4.977   4.589  0.6714  0.1065 -0.9624
   52CHL1  H27B 3847   2.082   5.018   4.751  0.8414 -0.2024 -1.3240
   52CHL1  H27C 3848   1.922   5.098   4.695 -1.2287 -1.6020 -0.0315
   53CHL1    C3 3849   0.475   2.099   3.137  0.2120  0.3237 -0.1505
   53CHL1    H3 3850   0.367   2.073   3.148  1.1294 -3.3433  1.5765
   53CHL1    O3 3851   0.514   2.104   3.000  0.0732 -0.0807  0.1086
   53CHL1   H3' 3852   0.435   2.138   2.958 -1.3115 -1.1010  1.7408
   53CHL1    C4 3853   0.499   2.233   3.204  0.3698 -0.0486  1.0766
   53CHL1   H4A 3854   0.605   2.256   3.180 -0.5335  1.9152 -1.5024
   53CHL1   H4B 3855   0.442   2.313   3.152  2.2377  0.5299 -0.2122
   53CHL1    C5 3856   0.476   2.227   3.349 -0.1861 -0.1849 -0.5744
   53CHL1    C6 3857   0.395   2.318   3.408 -0.7827 -0.4131  0.1814
   53CHL1    H6 3858   0.356   2.395   3.340 -0.8425 -1.6627 -1.2565
   53CHL1    C7 3859   0.393   2.333   3.554 -0.9476 -0.2446  0.5302
   53CHL1   H7A 3860   0.409   2.439   3.581 -2.1399  0.5771 -1.7577
   53CHL1   H7B 3861   0.294   2.298   3.592 -0.0882 -0.8727  2.3558
   53CHL1    C8 3862   0.506   2.251   3.635 -0.1042  0.9410  1.0360
   53CHL1    H8 3863   0.605   2.301   3.630  0.8635 -0.7494  2.2428
   53CHL1   C14 3864   0.471   2.241   3.779  0.5970  0.4478 -0.1021
   53CHL1   H14 3865   0.373   2.190   3.779  1.0922 -0.6547 -2.8655
   53CHL1   C15 3866   0.453   2.378   3.849  0.2699 -0.0558 -0.6192
   53CHL1  H15A 3867   0.543   2.443   3.843  1.6579 -1.5627  2.0131
   53CHL1  H15B 3868   0.357   2.420   3.812  1.3434  0.4364 -3.0229
   53CHL1   C16 3869   0.435   2.343   3.999 -0.2592  0.3302 -0.1835
   53CHL1  H16A 3870   0.519   2.385   4.059 -0.2409 -1.8770  1.4520
   53CHL1  H16B 3871   0.341   2.381   4.045 -0.4370 -0.3901  0.0648
   53CHL1   C17 3872   0.462   2.186   4.008  0.0304 -0.1729  0.5013
   53CHL1   H17 3873   0.363   2.136   4.006  0.5961 -1.3777  1.2915
   53CHL1   C13 3874   0.543   2.153   3.873  0.4097 -0.0333 -0.1115
   53CHL1   C18 3875   0.681   2.198   3.896 -0.7468 -0.1300 -0.3989
   53CHL1  H18A 3876   0.757   2.126   3.934  0.2632  1.0368 -0.1252
   53CHL1  H18B 3877   0.730   2.233   3.803 -0.4616 -0.7958 -0.5038
   53CHL1  H18C 3878   0.684   2.290   3.958  1.1870 -0.9350  0.7979
   53CHL1   C12 3879   0.538   2.009   3.807 -0.6192 -0.1689 -0.6113
   53CHL1  H12A 3880   0.600   1.939   3.866 -0.8335  0.3852  0.2924
   53CHL1  H12B 3881   0.439   1.963   3.828 -0.2129 -0.5859  0.4746
   53CHL1   C11 3882   0.579   2.007   3.661 -0.4375  0.4350  0.4335
   53CHL1  H11A 3883   0.689   2.017   3.666 -0.0383 -2.4504 -0.8448
   53CHL1  H11B 3884   0.581   1.903   3.623 -0.3225  0.5885  0.0173
   53CHL1    C9 3885   0.510   2.109   3.573 -0.2792  0.3974 -0.3351
   53CHL1    H9 3886   0.405   2.075   3.582  0.3446 -1.1776  2.7376
   53CHL1   C10 3887   0.551   2.124   3.424  0.5128 -0.6159  0.1806
   53CHL1   C19 3888   0.704   2.160   3.422  0.0173  0.0937 -0.3013
   53CHL1  H19A 3889   0.759   2.084   3.481 -1.0981  0.6831  1.5896
   53CHL1  H19B 3890   0.739   2.161   3.317 -2.1732 -0.9831 -1.1112
   53CHL1  H19C 3891   0.724   2.259   3.468  0.4698  0.2282 -0.7855
   53CHL1    C1 3892   0.538   1.985   3.362  0.4994  0.4021  0.2647
   53CHL1   H1A 3893   0.601   1.901   3.398  0.6667  0.0728 -0.7750
   53CHL1   H1B 3894   0.434   1.955   3.387  0.0874 -1.9042 -3.5085
   53CHL1    C2 3895   0.547   1.985   3.204 -0.2446  1.1019 -0.4589
   53CHL1   H2A 3896   0.520   1.880   3.177  3.0730 -0.1340  0.5302
   53CHL1   H2B 3897   0.652   1.994   3.170  0.5461  1.3425  1.9011
   53CHL1   C20 3898   0.525   2.135   4.130  0.5567 -0.1452 -0.5232
   53CHL1   H20 3899   0.622   2.182   4.156 -0.2393  2.8094 -2.3600
   53CHL1   C21 3900   0.542   1.980   4.131  0.1151 -0.0202  0.2485
   53CHL1  H21A 3901   0.615   1.949   4.053 -0.8297  0.5723 -0.9108
   53CHL1  H21B 3902   0.437   1.946   4.116 -0.7655  2.7739 -0.6217
   53CHL1  H21C 3903   0.571   1.938   4.230 -0.8154 -2.6405 -0.5008
   53CHL1   C22 3904   0.437   2.170   4.254 -0.4542  0.3223 -0.0600
   53CHL1  H22A 3905   0.403   2.276   4.256  0.0673  0.5172 -0.9416
   53CHL1  H22B 3906   0.349   2.106   4.274  0.6778 -0.3479  3.3477
   53CHL1   C23 3907   0.516   2.167   4.388  0.1962  0.2048  0.6208
   53CHL1  H23A 3908   0.551   2.062   4.400  0.4349 -0.0695 -1.9374
   53CHL1  H23B 3909   0.594   2.246   4.378 -0.5119  0.8091 -0.3279
   53CHL1   C24 3910   0.434   2.198   4.511  0.4248  0.5215 -0.0789
   53CHL1  H24A 3911   0.390   2.300   4.504 -0.8581  0.0118  0.3079
   53CHL1  H24B 3912   0.354   2.122   4.519 -0.4385  1.5280  1.2850
   53CHL1   C25 3913   0.510   2.197   4.646 -0.0681 -0.2040 -0.3455
   53CHL1   H25 3914   0.438   2.203   4.730 -0.6305  0.6594 -0.8734
   53CHL1   C26 3915   0.587   2.065   4.671  0.3609 -0.8253  0.5782
   53CHL1  H26A 3916   0.520   1.978   4.655 -0.9934  0.4220 -0.9598
   53CHL1  H26B 3917   0.674   2.057   4.603 -0.3060 -1.9631 -0.1847
   53CHL1  H26C 3918   0.621   2.065   4.777 -1.2892  1.1334  1.1653
   53CHL1   C27 3919   0.610   2.313   4.668  0.7005 -0.0701 -0.5413
   53CHL1  H27A 3920   0.643   2.313   4.774 -1.1827 -1.5282  0.1098
   53CHL1  H27B 3921   0.696   2.307   4.598  0.8832 -1.7946 -0.2075
   53CHL1  H27C 3922   0.547   2.403   4.652 -0.9058 -1.0542 -0.0171
   54CHL1    C3 3923   3.972   2.166   3.187  0.2227 -0.2217 -0.3097
   54CHL1    H3 3924   4.070   2.220   3.190 -0.4294  1.1705 -2.0022
   54CHL1    O3 3925   3.933   2.158   3.047 -0.1796  0.2829 -0.1547
   54CHL1   H3' 3926   3.939   2.063   3.030 -0.9144  0.3314 -0.7634
   54CHL1    C4 3927   3.991   2.029   3.254  0.2537 -0.2514 -0.1391
   54CHL1   H4A 3928   3.891   1.980   3.249  0.8055 -1.4549  0.0480
   54CHL1   H4B 3929   4.055   1.963   3.192 -0.0236 -0.6311 -0.0288
   54CHL1    C5 3930   4.024   2.046   3.402  0.2881 -0.9355 -1.2926
   54CHL1    C6 3931   4.129   1.988   3.459 -0.8039 -0.4932  0.3657
   54CHL1    H6 3932   4.191   1.915   3.405 -0.6171 -0.7719  0.9501
   54CHL1    C7 3933   4.166   2.000   3.605  0.5568  0.0035  0.3581
   54CHL1   H7A 3934   4.185   1.896   3.641  1.3754 -0.4552 -1.3129
   54CHL1   H7B 3935   4.257   2.059   3.626  0.7447 -0.5354  1.1120
   54CHL1    C8 3936   4.056   2.056   3.698  0.1509  0.3426 -0.1683
   54CHL1    H8 3937   3.984   1.977   3.726  0.4800  0.6295  1.5991
   54CHL1   C14 3938   4.130   2.097   3.823 -0.0062  0.6460 -0.4837
   54CHL1   H14 3939   4.205   2.174   3.794  0.4581 -0.6211 -2.9170
   54CHL1   C15 3940   4.200   1.981   3.891  0.4406  0.0352  0.0360
   54CHL1  H15A 3941   4.132   1.893   3.889 -1.0836  1.1422  0.6413
   54CHL1  H15B 3942   4.287   1.937   3.838 -0.0792 -1.0275  0.0300
   54CHL1   C16 3943   4.231   2.049   4.028  0.5259  0.5552 -0.6070
   54CHL1  H16A 3944   4.211   1.974   4.107  1.9519  2.0199  1.2264
   54CHL1  H16B 3945   4.333   2.091   4.038  0.3965  0.4031  1.8999
   54CHL1   C17 3946   4.140   2.174   4.044  0.7072 -0.1715 -0.3698
   54CHL1   H17 3947   4.198   2.268   4.030 -2.9792  2.3986  0.2293
   54CHL1   C13 3948   4.033   2.160   3.930 -0.3464  1.2181 -0.3326
   54CHL1   C18 3949   3.930   2.054   3.975  0.5633  0.1904  0.0169
   54CHL1  H18A 3950   3.863   2.099   4.052  0.1517 -0.2186 -0.0953
   54CHL1  H18B 3951   3.861   2.039   3.889  1.9316  3.2834 -1.8108
   54CHL1  H18C 3952   3.966   1.952   3.999  0.3371 -0.2247 -1.3338
   54CHL1   C12 3953   3.959   2.277   3.877  0.0460 -0.0047 -0.8361
   54CHL1  H12A 3954   3.888   2.322   3.951  1.4239  0.7944  0.0415
   54CHL1  H12B 3955   4.039   2.353   3.866 -0.9499  1.3991  1.0202
   54CHL1   C11 3956   3.893   2.255   3.736  0.8996  0.0756  0.2521
   54CHL1  H11A 3957   3.808   2.184   3.749  1.6575 -1.1183 -1.0890
   54CHL1  H11B 3958   3.859   2.348   3.687  0.1476 -0.0439  0.5247
   54CHL1    C9 3959   3.985   2.175   3.634  0.7700 -0.3937  0.3926
   54CHL1    H9 3960   4.072   2.241   3.612  0.7865 -0.0874  1.3336
   54CHL1   C10 3961   3.935   2.139   3.495 -0.8077 -0.3206 -0.0659
   54CHL1   C19 3962   3.798   2.071   3.510  1.1768  0.2645  0.5883
   54CHL1  H19A 3963   3.715   2.143   3.525 -0.3686 -1.7842  2.7729
   54CHL1  H19B 3964   3.766   2.016   3.419  0.0433  2.8536 -0.6527
   54CHL1  H19C 3965   3.805   2.003   3.598  0.9163 -1.7199 -0.8506
   54CHL1    C1 3966   3.921   2.275   3.411 -0.3214  0.4648  0.1883
   54CHL1   H1A 3967   3.840   2.338   3.455  0.8804  1.9249  0.3765
   54CHL1   H1B 3968   4.021   2.323   3.406  0.7602 -1.7789 -0.9782
   54CHL1    C2 3969   3.872   2.257   3.258 -0.6021  0.1061  0.0840
   54CHL1   H2A 3970   3.875   2.357   3.210  1.8793  0.8116  1.5666
   54CHL1   H2B 3971   3.768   2.216   3.254 -0.5296 -0.0265 -0.5436
   54CHL1   C20 3972   4.095   2.204   4.189 -0.0047  0.0655 -0.1970
   54CHL1   H20 3973   4.024   2.121   4.211 -0.5426  0.8846  1.3138
   54CHL1   C21 3974   4.019   2.338   4.197  0.6214  0.1389 -0.5063
   54CHL1  H21A 3975   4.067   2.414   4.131 -0.2985  0.8262 -0.4145
   54CHL1  H21B 3976   4.007   2.368   4.303 -4.5482 -3.8708  0.4571
   54CHL1  H21C 3977   3.919   2.322   4.150  0.6625  1.7510 -1.2012
   54CHL1   C22 3978   4.206   2.195   4.299  0.5237 -0.0430  0.0643
   54CHL1  H22A 3979   4.237   2.089   4.294 -1.1334 -0.6597  1.6314
   54CHL1  H22B 3980   4.295   2.259   4.281  0.9227 -0.7035 -0.3400
   54CHL1   C23 3981   4.169   2.232   4.442  0.5631 -0.6624 -0.0889
   54CHL1  H23A 3982   4.163   2.343   4.439  0.8418 -0.6608 -0.6930
   54CHL1  H23B 3983   4.063   2.201   4.456  0.0426  1.8118  2.2864
   54CHL1   C24 3984   4.273   2.194   4.542 -0.1165  0.1558  0.3649
   54CHL1  H24A 3985   4.282   2.084   4.546  0.5168  0.2041  0.3299
   54CHL1  H24B 3986   4.371   2.233   4.508 -0.1750  0.7710  0.8836
   54CHL1   C25 3987   4.232   2.233   4.683 -0.1556  0.0139 -0.2674
   54CHL1   H25 3988   4.133   2.185   4.700  2.1103 -4.4063  2.2598
   54CHL1   C26 3989   4.321   2.173   4.794 -0.3004  0.3749  0.9214
   54CHL1  H26A 3990   4.430   2.187   4.780 -0.3035 -0.3806 -0.0272
   54CHL1  H26B 3991   4.290   2.205   4.895 -0.2404 -3.2598  2.2416
   54CHL1  H26C 3992   4.301   2.064   4.788 -0.0367  0.4018 -1.3032
   54CHL1   C27 3993   4.246   2.380   4.700 -0.5169  0.3269  0.2145
   54CHL1  H27A 3994   4.350   2.417   4.686 -1.0347  1.7208 -0.1208
   54CHL1  H27B 3995   4.195   2.433   4.616  2.2221  0.6768 -1.3470
   54CHL1  H27C 3996   4.205   2.415   4.797 -0.0066  0.2648  0.4515
   55CHL1    C3 3997   2.378   3.157   3.271 -0.3779  0.0728 -0.4495
   55CHL1    H3 3998   2.439   3.064   3.269 -1.5285 -0.8215  2.0802
   55CHL1    O3 3999   2.320   3.182   3.145 -0.2688  0.0608  0.1831
   55CHL1   H3' 4000   2.384   3.226   3.089 -0.7857 -1.5059 -1.7346
   55CHL1    C4 4001   2.260   3.116   3.356  0.1909  0.0750 -0.1034
   55CHL1   H4A 4002   2.177   3.190   3.352  0.8444  0.9192  0.9817
   55CHL1   H4B 4003   2.226   3.018   3.319  3.9345 -0.9163 -1.3000
   55CHL1    C5 4004   2.307   3.097   3.502  0.4261 -0.7723  0.2136
   55CHL1    C6 4005   2.282   2.985   3.567 -0.9583  0.1613  0.0174
   55CHL1    H6 4006   2.227   2.903   3.518 -0.2189  0.1589 -0.8295
   55CHL1    C7 4007   2.334   2.945   3.701  0.2247 -0.1506  0.0420
   55CHL1   H7A 4008   2.246   2.894   3.745 -0.6892  1.7698  0.5613
   55CHL1   H7B 4009   2.426   2.882   3.701  0.3077 -0.1119  2.1211
   55CHL1    C8 4010   2.374   3.077   3.780  0.4941  0.2900 -0.6517
   55CHL1    H8 4011   2.281   3.134   3.804  0.1962  0.1314 -1.3731
   55CHL1   C14 4012   2.455   3.049   3.912 -0.1681  0.5636  0.1103
   55CHL1   H14 4013   2.543   2.995   3.871  1.1578  2.0841  0.8679
   55CHL1   C15 4014   2.379   2.949   4.003  1.1891  0.6030  0.4303
   55CHL1  H15A 4015   2.271   2.965   3.983  0.6687 -2.7010 -0.0087
   55CHL1  H15B 4016   2.405   2.843   3.979 -1.3529 -0.5591  2.3170
   55CHL1   C16 4017   2.418   2.997   4.143  0.4223  0.1287  0.1617
   55CHL1  H16A 4018   2.323   3.044   4.175 -1.3382 -0.8885 -3.1182
   55CHL1  H16B 4019   2.443   2.916   4.215  1.6410 -2.5383 -3.0185
   55CHL1   C17 4020   2.535   3.101   4.123 -0.1981 -0.1255 -0.2040
   55CHL1   H17 4021   2.628   3.042   4.107 -0.4760 -0.1048 -2.1335
   55CHL1   C13 4022   2.502   3.170   3.982 -0.2975 -1.2085 -0.1394
   55CHL1   C18 4023   2.384   3.273   3.999 -0.1944  0.8030 -0.2385
   55CHL1  H18A 4024   2.313   3.230   4.072  1.8336  0.9129  1.9245
   55CHL1  H18B 4025   2.427   3.363   4.050 -3.6727  1.8118  1.1712
   55CHL1  H18C 4026   2.336   3.305   3.904 -0.0079  1.8336 -0.0022
   55CHL1   C12 4027   2.613   3.224   3.892 -0.1215  0.1820  0.1473
   55CHL1  H12A 4028   2.646   3.318   3.942 -0.4176  0.6983 -0.6022
   55CHL1  H12B 4029   2.691   3.145   3.889 -1.9748 -1.7270 -0.2399
   55CHL1   C11 4030   2.567   3.252   3.753  0.2062  0.1069  0.5085
   55CHL1  H11A 4031   2.509   3.345   3.768 -0.5856 -0.7576  3.4380
   55CHL1  H11B 4032   2.655   3.275   3.688 -1.0179  0.5924 -1.0353
   55CHL1    C9 4033   2.467   3.152   3.691 -0.0962  0.3295 -0.3282
   55CHL1    H9 4034   2.528   3.073   3.642  0.8838 -0.1976  1.6424
   55CHL1   C10 4035   2.395   3.199   3.562  0.2704 -0.0276 -0.1989
   55CHL1   C19 4036   2.297   3.311   3.602 -0.3502 -0.6112  0.3771
   55CHL1  H19A 4037   2.235   3.351   3.520 -0.3881  0.9336  1.1177
   55CHL1  H19B 4038   2.232   3.285   3.688  0.3503  1.1207  1.4867
   55CHL1  H19C 4039   2.348   3.405   3.634 -0.7626  0.5033 -2.0185
   55CHL1    C1 4040   2.503   3.255   3.460  0.1968 -0.2087  0.7137
   55CHL1   H1A 4041   2.540   3.348   3.509 -1.6890  1.0417 -0.1143
   55CHL1   H1B 4042   2.585   3.180   3.465 -0.1555 -0.9275 -2.3652
   55CHL1    C2 4043   2.446   3.284   3.321  0.0374 -0.2791  0.0864
   55CHL1   H2A 4044   2.533   3.309   3.257 -0.9446  0.7756 -0.8890
   55CHL1   H2B 4045   2.378   3.371   3.308  2.1931  1.6169  0.7583
   55CHL1   C20 4046   2.575   3.188   4.243 -0.1102 -0.0276  0.8104
   55CHL1   H20 4047   2.497   3.267   4.254  0.1210  0.3984 -0.5062
   55CHL1   C21 4048   2.709   3.273   4.209  0.1144  0.5377  0.3277
   55CHL1  H21A 4049   2.680   3.367   4.157 -1.6149  0.6079  1.3301
   55CHL1  H21B 4050   2.780   3.208   4.154  0.2853  0.9800  0.0249
   55CHL1  H21C 4051   2.745   3.307   4.309 -1.7271 -0.3428  1.3544
   55CHL1   C22 4052   2.590   3.107   4.369 -0.3198  0.1442 -0.1749
   55CHL1  H22A 4053   2.492   3.059   4.389 -0.1951  0.5503  1.5150
   55CHL1  H22B 4054   2.666   3.027   4.356  0.1114  0.6977 -1.2134
   55CHL1   C23 4055   2.626   3.189   4.492  0.0403 -0.0667 -0.2617
   55CHL1  H23A 4056   2.624   3.115   4.575 -1.5478 -0.2297 -0.4172
   55CHL1  H23B 4057   2.733   3.218   4.483  0.8897 -1.1570  4.2113
   55CHL1   C24 4058   2.519   3.296   4.529  0.6268 -0.0909 -0.1906
   55CHL1  H24A 4059   2.507   3.381   4.460  1.5133 -0.3416 -0.6695
   55CHL1  H24B 4060   2.422   3.241   4.536  0.0620  0.9749  0.5387
   55CHL1   C25 4061   2.532   3.352   4.679  0.1444  0.0921  1.2204
   55CHL1   H25 4062   2.441   3.413   4.698 -0.5129 -0.7292  0.7959
   55CHL1   C26 4063   2.522   3.242   4.788  0.0670 -0.1827  0.6435
   55CHL1  H26A 4064   2.452   3.169   4.741  2.3818 -1.2542 -1.3710
   55CHL1  H26B 4065   2.609   3.176   4.805 -0.5626 -1.3935 -0.5800
   55CHL1  H26C 4066   2.474   3.276   4.882 -2.4630 -1.9571  0.1284
   55CHL1   C27 4067   2.658   3.442   4.695  0.7146  0.2674 -0.8594
   55CHL1  H27A 4068   2.748   3.378   4.683  0.9112  0.3842 -0.0836
   55CHL1  H27B 4069   2.655   3.524   4.621  0.1761 -0.2023 -1.3638
   55CHL1  H27C 4070   2.662   3.486   4.797 -0.6559 -2.2828  0.3788
   56CHL1    C3 4071   4.273   3.635   3.458  0.1975  0.0285 -0.6248
   56CHL1    H3 4072   4.353   3.564   3.488  0.9011  1.6717  1.7171
   56CHL1    O3 4073   4.260   3.643   3.311 -0.0478  0.0029 -0.2856
   56CHL1   H3' 4074   4.348   3.671   3.285  0.4646  0.2200  1.4994
   56CHL1    C4 4075   4.135   3.587   3.504 -0.2381 -0.5423  0.4395
   56CHL1   H4A 4076   4.062   3.660   3.463 -0.6538 -1.4063 -0.3891
   56CHL1   H4B 4077   4.103   3.490   3.460 -2.2211  0.2060  0.0983
   56CHL1    C5 4078   4.124   3.593   3.655 -0.8331  0.1573  0.3739
   56CHL1    C6 4079   4.079   3.488   3.717  0.2634 -0.0928  0.1279
   56CHL1    H6 4080   4.047   3.405   3.653 -1.5079  0.9150 -0.3570
   56CHL1    C7 4081   4.049   3.481   3.865  0.1231  1.4392 -0.9387
   56CHL1   H7A 4082   3.964   3.414   3.890  1.2448 -0.1620 -1.2403
   56CHL1   H7B 4083   4.125   3.419   3.917 -0.7103  1.1667 -0.0110
   56CHL1    C8 4084   4.056   3.618   3.936 -0.2070 -0.1232  0.7070
   56CHL1    H8 4085   3.963   3.674   3.911  0.4391  1.9545  2.5798
   56CHL1   C14 4086   4.066   3.599   4.087 -0.1903  0.3668 -0.5655
   56CHL1   H14 4087   4.164   3.549   4.102  0.8266  1.9939 -1.5633
   56CHL1   C15 4088   3.955   3.519   4.147  0.3986  0.8763 -0.1340
   56CHL1  H15A 4089   3.857   3.550   4.104 -0.5708 -0.3977  1.0630
   56CHL1  H15B 4090   3.963   3.408   4.143 -2.9053  0.3656  2.3783
   56CHL1   C16 4091   3.946   3.558   4.305  0.7446  0.5732 -0.1641
   56CHL1  H16A 4092   3.850   3.612   4.319  0.6079 -0.1295  1.8787
   56CHL1  H16B 4093   3.950   3.474   4.377 -2.2532 -0.8957 -1.5458
   56CHL1   C17 4094   4.057   3.673   4.315 -0.0320  0.8577 -0.2822
   56CHL1   H17 4095   4.152   3.619   4.333 -1.1756 -0.5277  2.0679
   56CHL1   C13 4096   4.072   3.726   4.171 -0.2897 -0.1151 -0.1081
   56CHL1   C18 4097   3.947   3.804   4.141 -0.3009 -0.7964 -0.3006
   56CHL1  H18A 4098   3.852   3.751   4.164 -0.1591 -0.9595 -0.0826
   56CHL1  H18B 4099   3.952   3.888   4.213  0.5800 -1.5665  0.5768
   56CHL1  H18C 4100   3.933   3.836   4.036 -1.2141 -2.6247 -0.7758
   56CHL1   C12 4101   4.203   3.802   4.121  0.5769  0.4061 -0.5607
   56CHL1  H12A 4102   4.211   3.903   4.167  0.6751  0.6359 -1.0846
   56CHL1  H12B 4103   4.298   3.746   4.134  1.3019  1.5158 -0.9775
   56CHL1   C11 4104   4.206   3.829   3.967 -0.4871  0.4696  0.1392
   56CHL1  H11A 4105   4.124   3.902   3.953 -0.4406  0.1369 -2.3520
   56CHL1  H11B 4106   4.296   3.887   3.936  0.6299 -1.0381  0.4193
   56CHL1    C9 4107   4.176   3.699   3.883  0.3537 -0.0609  0.6485
   56CHL1    H9 4108   4.268   3.641   3.900 -0.3090 -1.5648 -0.6415
   56CHL1   C10 4109   4.169   3.718   3.731  0.4965  0.0703 -0.0620
   56CHL1   C19 4110   4.055   3.822   3.695  0.1986 -0.3630 -0.4123
   56CHL1  H19A 4111   4.100   3.918   3.728 -0.9156 -0.2787  0.9567
   56CHL1  H19B 4112   4.029   3.834   3.588 -0.7241  1.5065 -0.0165
   56CHL1  H19C 4113   3.961   3.800   3.750 -0.7058 -0.8143 -2.0876
   56CHL1    C1 4114   4.308   3.772   3.669  0.4913  0.2683  0.7013
   56CHL1   H1A 4115   4.319   3.877   3.702 -0.3943  0.0588  1.7078
   56CHL1   H1B 4116   4.389   3.708   3.712  2.4455  0.5305 -2.2580
   56CHL1    C2 4117   4.323   3.773   3.516  0.3913  0.7958 -0.2905
   56CHL1   H2A 4118   4.431   3.794   3.501  1.3724 -0.0030  4.2490
   56CHL1   H2B 4119   4.264   3.855   3.469  1.5955  1.2901 -0.9790
   56CHL1   C20 4120   4.058   3.780   4.426  0.2692  0.6604  0.1584
   56CHL1   H20 4121   3.996   3.865   4.389 -0.8970  0.2916  1.2003
   56CHL1   C21 4122   4.201   3.840   4.446 -0.1446  0.5350  0.2909
   56CHL1  H21A 4123   4.276   3.758   4.447 -1.3593 -0.6277 -0.8403
   56CHL1  H21B 4124   4.209   3.899   4.540  1.9630  0.1638  0.3923
   56CHL1  H21C 4125   4.223   3.909   4.362  0.8195  0.3184  0.3548
   56CHL1   C22 4126   3.994   3.735   4.563 -0.0809  0.2151  0.5197
   56CHL1  H22A 4127   3.997   3.829   4.622 -0.2609  2.4632 -2.8074
   56CHL1  H22B 4128   3.891   3.715   4.527  0.5095 -0.0503 -1.1224
   56CHL1   C23 4129   4.074   3.620   4.630 -0.0770  0.3395  0.2720
   56CHL1  H23A 4130   4.084   3.535   4.559 -0.0242  1.4534 -1.1119
   56CHL1  H23B 4131   4.175   3.665   4.641 -0.9969  1.9983  2.7521
   56CHL1   C24 4132   4.032   3.575   4.772  0.6160  0.0360 -0.2307
   56CHL1  H24A 4133   4.091   3.496   4.822  0.6842 -0.3985 -0.9746
   56CHL1  H24B 4134   4.038   3.667   4.833 -1.1685 -0.2987  0.5165
   56CHL1   C25 4135   3.879   3.533   4.784  0.0433  0.5298  1.1071
   56CHL1   H25 4136   3.823   3.608   4.725  0.0048 -0.8103 -0.6400
   56CHL1   C26 4137   3.870   3.397   4.711 -0.1865  0.2864 -0.0343
   56CHL1  H26A 4138   3.895   3.403   4.602 -0.5001 -0.3908 -0.1470
   56CHL1  H26B 4139   3.940   3.319   4.748 -1.8499 -2.6110 -2.4977
   56CHL1  H26C 4140   3.770   3.354   4.730  0.4100 -1.0700  0.1512
   56CHL1   C27 4141   3.834   3.525   4.926 -0.0261 -0.5966 -1.1785
   56CHL1  H27A 4142   3.736   3.472   4.927  0.1079 -0.8617  0.2020
   56CHL1  H27B 4143   3.909   3.469   4.985 -2.1022 -2.0843  0.2129
   56CHL1  H27C 4144   3.822   3.628   4.968 -0.8308 -0.8330 -0.7979
   57SAPC     N 4145   5.334   2.521   7.485 -0.2299 -0.0112  0.2587
   57SAPC   C12 4146   5.287   2.456   7.355 -0.1840 -0.2679  0.9599
   57SAPC  H12A 4147   5.280   2.541   7.288  0.8637  0.7693  2.1101
   57SAPC  H12B 4148   5.188   2.416   7.367 -0.6929  0.4279 -0.6484
   57SAPC   C13 4149   5.226   2.615   7.537 -0.2565  0.2223  0.8650
   57SAPC  H13A 4150   5.134   2.562   7.558 -1.2574  1.1523 -0.9519
   57SAPC  H13B 4151   5.260   2.653   7.632 -0.0959  0.7418  0.6038
   57SAPC  H13C 4152   5.194   2.690   7.466  0.3680  0.2644  0.6301
   57SAPC   C14 4153   5.357   2.411   7.584  0.1718  0.2195  0.0583
   57SAPC  H14A 4154   5.414   2.331   7.539  0.5960 -0.3283  1.5029
   57SAPC  H14B 4155   5.409   2.436   7.675 -1.0923 -2.0667  1.5122
   57SAPC  H14C 4156   5.262   2.364   7.605 -1.0409  0.9653 -3.1342
   57SAPC   C15 4157   5.471   2.581   7.461  0.3784 -0.4579  0.3820
   57SAPC  H15A 4158   5.482   2.662   7.391  0.5843  0.7009  1.7132
   57SAPC  H15B 4159   5.522   2.622   7.548  2.2187  0.1727 -0.9311
   57SAPC  H15C 4160   5.543   2.508   7.427  1.2951  0.6137 -0.0424
   57SAPC   C11 4161   5.375   2.347   7.291  0.4533 -0.1708  0.6432
   57SAPC  H11A 4162   5.307   2.301   7.216 -0.7493  0.1928  1.4888
   57SAPC  H11B 4163   5.413   2.269   7.361  0.3082 -0.7517  0.0880
   57SAPC     P 4164   5.620   2.329   7.186  0.1757  0.0415  0.0733
   57SAPC   O13 4165   5.729   2.422   7.211 -0.0913  0.1594 -0.1140
   57SAPC   O14 4166   5.626   2.201   7.255 -0.1948  0.5648 -0.0064
   57SAPC   O12 4167   5.482   2.403   7.215 -0.0477 -0.3517 -0.6417
   57SAPC   O11 4168   5.608   2.293   7.035  0.1149  0.5597  0.3257
   57SAPC    C1 4169   5.563   2.393   6.945 -0.1695 -0.5315  0.2794
   57SAPC    HA 4170   5.512   2.338   6.863 -0.0700 -0.7428  0.3599
   57SAPC    HB 4171   5.485   2.456   6.991  0.1455 -0.9515  1.4265
   57SAPC    C2 4172   5.674   2.473   6.874 -0.3329 -0.1425 -0.1431
   57SAPC    HS 4173   5.715   2.541   6.952 -1.4308  1.2687 -0.7612
   57SAPC   O21 4174   5.623   2.541   6.761  0.5602 -0.4797 -0.5188
   57SAPC   C21 4175   5.582   2.671   6.785 -0.0681 -0.0848  0.3401
   57SAPC   O22 4176   5.587   2.727   6.896  0.0567  0.3324  0.0012
   57SAPC   C22 4177   5.529   2.728   6.650 -0.0383  0.3869  0.1783
   57SAPC   H2R 4178   5.611   2.782   6.598 -1.3413  2.1229 -0.1457
   57SAPC   H2S 4179   5.497   2.645   6.583 -0.0336  0.1932  0.4146
   57SAPC    C3 4180   5.800   2.390   6.828 -0.2493 -0.1678  0.9184
   57SAPC    HX 4181   5.755   2.294   6.794  0.5943 -0.4769  0.6496
   57SAPC    HY 4182   5.861   2.370   6.919 -0.6547 -0.6382  1.0885
   57SAPC   O31 4183   5.881   2.458   6.726  0.2881  0.0875  0.7062
   57SAPC   C31 4184   5.845   2.418   6.598  0.1466 -0.1672  0.1297
   57SAPC   O32 4185   5.756   2.342   6.568 -0.3584 -0.3526 -0.3049
   57SAPC   C32 4186   5.943   2.479   6.503  0.1287 -0.5007  0.0289
   57SAPC   H2X 4187   6.037   2.420   6.505  0.7925  0.5318 -0.2121
   57SAPC   H2Y 4188   5.965   2.578   6.548  0.1799 -0.3645 -0.2899
   57SAPC   C23 4189   5.408   2.832   6.655 -0.9764 -0.5306 -0.5570
   57SAPC   H3R 4190   5.460   2.919   6.702 -0.3914 -0.8140 -0.6652
   57SAPC   H3S 4191   5.321   2.795   6.712  1.7390 -3.1866  2.2125
   57SAPC   C24 4192   5.359   2.876   6.513 -0.0058  0.2019 -0.0684
   57SAPC   H4R 4193   5.444   2.914   6.452 -0.9607 -0.0512 -1.6319
   57SAPC   H4S 4194   5.294   2.961   6.542  1.8979  1.3758  0.9258
   57SAPC   C25 4195   5.281   2.768   6.435  0.7157  0.3664  0.7070
   57SAPC   H5R 4196   5.174   2.755   6.461  0.0364 -1.4361 -2.4190
   57SAPC   C26 4197   5.327   2.695   6.333  0.6274  0.1014  0.1737
   57SAPC   H6R 4198   5.273   2.603   6.305 -2.7128  1.1675  2.5487
   57SAPC   C27 4199   5.467   2.707   6.279 -0.1996 -0.5016 -1.0607
   57SAPC   H7R 4200   5.533   2.663   6.357  0.0955  0.7264 -0.5874
   57SAPC   H7S 4201   5.504   2.812   6.283  0.9566 -0.9154  2.0458
   57SAPC   C28 4202   5.511   2.639   6.153  0.2127 -0.7382  0.6913
   57SAPC   H8R 4203   5.565   2.545   6.167  0.0526 -1.1416 -1.1588
   57SAPC   C29 4204   5.483   2.677   6.031 -0.1131  0.4525 -0.4396
   57SAPC   H9R 4205   5.497   2.605   5.948 -1.6132 -0.2633 -0.1022
   57SAPC  C210 4206   5.415   2.801   5.984 -0.0515 -0.8624 -0.2438
   57SAPC  H10R 4207   5.454   2.846   5.890 -0.3825  2.4347  1.0782
   57SAPC  H10S 4208   5.434   2.879   6.061 -3.7258  0.5510 -0.5457
   57SAPC  C211 4209   5.268   2.773   5.974  0.3996 -0.1644 -0.2962
   57SAPC  H11R 4210   5.210   2.812   6.058  0.8243  0.2667 -0.2046
   57SAPC  C212 4211   5.200   2.710   5.875  0.2866  0.0276  0.7627
   57SAPC  H12R 4212   5.090   2.703   5.878  0.1298  1.0049 -1.2727
   57SAPC  C213 4213   5.260   2.654   5.748 -0.2055  0.3193 -0.0477
   57SAPC  H13R 4214   5.367   2.682   5.738 -0.5516  1.4139 -0.8837
   57SAPC  H13S 4215   5.206   2.706   5.666 -1.9945 -0.3479  0.6570
   57SAPC  C214 4216   5.248   2.510   5.723  0.4710  0.3072  0.4415
   57SAPC  H14R 4217   5.188   2.457   5.798 -1.2136  1.3943 -0.0778
   57SAPC  C215 4218   5.287   2.437   5.616 -0.0724 -0.8173  0.9358
   57SAPC  H15R 4219   5.264   2.330   5.606  1.7248 -1.0893 -0.9340
   57SAPC  C216 4220   5.355   2.489   5.490 -0.1130 -0.2971  0.0485
   57SAPC  H16R 4221   5.460   2.455   5.481  0.7088  1.2350  2.6768
   57SAPC  H16S 4222   5.363   2.600   5.497 -3.0063 -0.0390  0.3061
   57SAPC  C217 4223   5.275   2.484   5.359 -0.2199 -0.7566 -0.8728
   57SAPC  H17R 4224   5.331   2.540   5.281  1.8073 -0.6217  0.6069
   57SAPC  H17S 4225   5.180   2.539   5.380 -0.0611 -0.2849 -1.3497
   57SAPC  C218 4226   5.233   2.344   5.312 -0.2095 -0.0515 -0.2096
   57SAPC  H18R 4227   5.223   2.283   5.405 -0.7433  0.4745  0.0803
   57SAPC  H18S 4228   5.314   2.303   5.247  0.3830  1.0824 -0.1994
   57SAPC  C219 4229   5.104   2.337   5.232 -0.1343  0.4625 -0.3633
   57SAPC  H19R 4230   5.024   2.393   5.285 -0.4360 -1.3409  1.2131
   57SAPC  H19S 4231   5.071   2.231   5.227  0.2229  0.3808 -1.1817
   57SAPC  C220 4232   5.116   2.365   5.083  0.3209 -0.3059 -0.7229
   57SAPC  H20R 4233   5.024   2.345   5.024 -0.6328  1.0135  0.2578
   57SAPC  H20S 4234   5.195   2.304   5.034  1.8539  1.1734 -0.1923
   57SAPC  H20T 4235   5.150   2.470   5.075  1.4564 -0.6749 -0.9568
   57SAPC   C33 4236   5.887   2.498   6.363 -0.3146 -0.3220 -0.4298
   57SAPC   H3X 4237   5.787   2.546   6.369 -0.9901 -1.8546  2.0200
   57SAPC   H3Y 4238   5.873   2.397   6.320 -0.1092 -0.1327 -0.9516
   57SAPC   C34 4239   5.974   2.597   6.279  0.0071  0.0245  0.3025
   57SAPC   H4X 4240   6.073   2.551   6.260 -1.0227 -2.7561  1.1557
   57SAPC   H4Y 4241   6.006   2.682   6.343  0.8778  0.6138 -0.8892
   57SAPC   C35 4242   5.899   2.631   6.147 -0.4124 -0.0547 -0.0848
   57SAPC   H5X 4243   5.958   2.711   6.098  2.1949 -1.1196  1.0502
   57SAPC   H5Y 4244   5.795   2.669   6.156 -1.7327 -2.6845 -2.6522
   57SAPC   C36 4245   5.915   2.516   6.042 -0.2798 -0.0218 -0.0722
   57SAPC   H6X 4246   5.843   2.444   6.087 -0.8989  0.6652  0.0400
   57SAPC   H6Y 4247   6.019   2.477   6.056  0.2899  1.5797  0.3481
   57SAPC   C37 4248   5.856   2.556   5.906 -0.1238  0.1207  0.6508
   57SAPC   H7X 4249   5.926   2.632   5.866  0.2825  1.3688  3.5048
   57SAPC   H7Y 4250   5.759   2.608   5.920  1.4887  3.7038 -0.2725
   57SAPC   C38 4251   5.843   2.443   5.802 -0.0653 -0.2011 -0.1711
   57SAPC   H8X 4252   5.757   2.384   5.841 -1.3064  1.1680 -0.7706
   57SAPC   H8Y 4253   5.930   2.376   5.819 -1.2650 -2.0101 -0.7587
   57SAPC   C39 4254   5.811   2.478   5.661 -0.1144 -0.0138 -0.3210
   57SAPC   H9X 4255   5.882   2.554   5.621 -0.7958  2.1637  2.2817
   57SAPC   H9Y 4256   5.713   2.531   5.663  0.3500  0.8703  1.1646
   57SAPC  C310 4257   5.824   2.359   5.564  0.6569  0.2715 -0.0936
   57SAPC  H10X 4258   5.771   2.273   5.610  4.7124 -1.3969  1.9056
   57SAPC  H10Y 4259   5.932   2.334   5.554  0.5662 -0.4233  0.6209
   57SAPC  C311 4260   5.770   2.386   5.432  1.1625 -0.7758  0.3535
   57SAPC  H11X 4261   5.824   2.466   5.377 -0.2756  0.3894  0.5636
   57SAPC  H11Y 4262   5.667   2.426   5.449  0.2802 -1.8449 -2.0375
   57SAPC  C312 4263   5.751   2.260   5.353 -0.3491  0.4001  0.8309
   57SAPC  H12X 4264   5.693   2.186   5.412  0.8278  0.2246  1.7833
   57SAPC  H12Y 4265   5.851   2.217   5.327 -0.6837  0.6548 -1.0515
   57SAPC  C313 4266   5.687   2.290   5.213  0.7713 -0.4139  0.5566
   57SAPC  H13X 4267   5.663   2.397   5.201 -2.7397 -1.1935 -0.7008
   57SAPC  H13Y 4268   5.583   2.250   5.214  0.6987 -0.3279 -0.9846
   57SAPC  C314 4269   5.758   2.232   5.095  0.0288  0.1416 -0.3418
   57SAPC  H14X 4270   5.792   2.127   5.109  1.0135  0.6737  1.5624
   57SAPC  H14Y 4271   5.851   2.293   5.085 -0.9333  1.9153  0.9471
   57SAPC  C315 4272   5.676   2.231   4.966  0.1271 -1.0370 -0.1165
   57SAPC  H15X 4273   5.600   2.149   4.967  2.1690 -3.0383 -0.2504
   57SAPC  H15Y 4274   5.735   2.207   4.874 -1.0977  0.9598 -1.4851
   57SAPC  C316 4275   5.605   2.360   4.950 -0.4944 -0.1837  0.2248
   57SAPC  H16X 4276   5.671   2.447   4.967  0.7214 -0.9958 -0.2123
   57SAPC  H16Y 4277   5.518   2.372   5.018 -0.6932  0.2317 -0.0947
   57SAPC  C317 4278   5.552   2.387   4.805  0.2303 -0.0286  0.1973
   57SAPC  H17X 4279   5.505   2.292   4.770  1.2907 -0.0784 -1.1930
   57SAPC  H17Y 4280   5.627   2.413   4.727 -0.4273 -0.6862 -0.6738
   57SAPC  C318 4281   5.452   2.499   4.803  0.3015 -0.9159  0.0896
   57SAPC  H18X 4282   5.424   2.524   4.698 -0.1852 -2.5115 -0.1990
   57SAPC  H18Y 4283   5.477   2.597   4.848  0.0403 -0.3675 -0.9182
   57SAPC  H18Z 4284   5.357   2.472   4.853 -0.0756 -0.4211 -0.3508
   58SAPC     N 4285   1.389   3.454   7.553 -0.3240 -0.1857 -0.7275
   58SAPC   C12 4286   1.278   3.370   7.489  0.1540  0.5107  0.6784
   58SAPC  H12A 4287   1.210   3.348   7.570 -0.8636  1.8239  0.2070
   58SAPC  H12B 4288   1.319   3.273   7.468  2.1326  1.8456 -2.2624
   58SAPC   C13 4289   1.483   3.506   7.450  0.1537  0.3086 -0.1219
   58SAPC  H13A 4290   1.427   3.574   7.388 -2.5514 -2.6778 -1.2127
   58SAPC  H13B 4291   1.572   3.556   7.486 -0.3080  1.4391 -0.5026
   58SAPC  H13C 4292   1.515   3.419   7.395  1.2329  0.5034  0.1780
   58SAPC   C14 4293   1.342   3.579   7.627 -0.3196 -0.2775  0.0737
   58SAPC  H14A 4294   1.262   3.549   7.693  0.0385  0.0935  0.6853
   58SAPC  H14B 4295   1.421   3.611   7.693  0.3512  1.4376 -1.4776
   58SAPC  H14C 4296   1.309   3.665   7.570 -0.1538  0.5855  1.2390
   58SAPC   C15 4297   1.472   3.368   7.643 -0.5802  0.2000  0.3495
   58SAPC  H15A 4298   1.526   3.292   7.588 -0.3639  0.9444 -0.4831
   58SAPC  H15B 4299   1.551   3.426   7.688 -0.1315 -0.2486  0.1584
   58SAPC  H15C 4300   1.414   3.332   7.727 -1.4172  1.3440  0.2800
   58SAPC   C11 4301   1.180   3.414   7.379 -0.1243  0.0446  0.1804
   58SAPC  H11A 4302   1.146   3.516   7.404 -1.2096  0.1063 -1.3776
   58SAPC  H11B 4303   1.096   3.342   7.375 -0.7672  0.7394  1.0061
   58SAPC     P 4304   1.277   3.287   7.176  0.4495 -0.2155 -0.1168
   58SAPC   O13 4305   1.338   3.185   7.269  0.5834 -0.3095 -0.2115
   58SAPC   O14 4306   1.147   3.259   7.119 -0.1400 -0.1630 -0.4065
   58SAPC   O12 4307   1.254   3.418   7.255 -0.5140 -0.0378 -0.4677
   58SAPC   O11 4308   1.379   3.325   7.059 -0.3795  0.1779  0.0625
   58SAPC    C1 4309   1.520   3.346   7.089 -0.6498  0.6773 -0.0082
   58SAPC    HA 4310   1.532   3.345   7.200 -2.0270  0.4517  0.1487
   58SAPC    HB 4311   1.567   3.254   7.047 -1.9188  0.2798 -0.5953
   58SAPC    C2 4312   1.586   3.475   7.029  0.3253 -0.1927  0.0177
   58SAPC    HS 4313   1.530   3.564   7.067  0.2914  0.3126 -1.1837
   58SAPC   O21 4314   1.597   3.460   6.886 -0.3126 -0.5761 -0.0065
   58SAPC   C21 4315   1.488   3.524   6.829 -0.0475  0.2357  0.4614
   58SAPC   O22 4316   1.396   3.574   6.889 -0.0372 -0.4592 -0.1925
   58SAPC   C22 4317   1.500   3.522   6.677  0.3048  0.5890 -0.4570
   58SAPC   H2R 4318   1.598   3.573   6.660 -0.4758  2.3890  0.2044
   58SAPC   H2S 4319   1.493   3.412   6.664  0.7791  0.3468  1.1875
   58SAPC    C3 4320   1.735   3.491   7.087  0.6729 -0.0417  0.3228
   58SAPC    HX 4321   1.787   3.398   7.055  0.4147  0.0174 -0.2941
   58SAPC    HY 4322   1.725   3.511   7.195 -0.8238  0.2369  0.1603
   58SAPC   O31 4323   1.797   3.599   7.028 -0.7322  0.2900  0.3145
   58SAPC   C31 4324   1.768   3.721   7.072 -0.2307  0.7295  0.2560
   58SAPC   O32 4325   1.665   3.744   7.136  0.2946  0.0735  0.1569
   58SAPC   C32 4326   1.860   3.825   7.005  0.4167 -0.4490  0.0410
   58SAPC   H2X 4327   1.918   3.881   7.082  0.3488  0.3241 -0.4563
   58SAPC   H2Y 4328   1.793   3.909   6.978  0.4534  1.0696  3.9539
   58SAPC   C23 4329   1.378   3.589   6.609  0.2237 -0.4059 -0.7577
   58SAPC   H3R 4330   1.387   3.699   6.626  0.1117 -0.9292  4.3487
   58SAPC   H3S 4331   1.289   3.549   6.661  1.8223 -1.0635  1.6567
   58SAPC   C24 4332   1.347   3.542   6.463  0.6969 -0.1514  0.0112
   58SAPC   H4R 4333   1.348   3.431   6.467  0.5591 -0.2148 -1.3089
   58SAPC   H4S 4334   1.434   3.571   6.400  0.4740  1.0855  0.2355
   58SAPC   C25 4335   1.215   3.594   6.410  0.7795  0.2367  0.0124
   58SAPC   H5R 4336   1.141   3.636   6.479  0.8771 -1.5243  1.2519
   58SAPC   C26 4337   1.197   3.623   6.279  0.0676 -0.1684 -1.0051
   58SAPC   H6R 4338   1.100   3.663   6.248 -0.4400  0.8932  1.7396
   58SAPC   C27 4339   1.301   3.607   6.170 -0.5033  0.2106  0.7556
   58SAPC   H7R 4340   1.242   3.597   6.076  1.1989  0.7285 -0.4199
   58SAPC   H7S 4341   1.368   3.520   6.184 -0.6316  0.1853  1.2222
   58SAPC   C28 4342   1.390   3.729   6.145  1.1546 -0.5990 -0.4104
   58SAPC   H8R 4343   1.395   3.792   6.235  0.4191  0.5260 -1.1310
   58SAPC   C29 4344   1.443   3.773   6.027 -0.1679  0.1850 -0.4563
   58SAPC   H9R 4345   1.500   3.867   6.025  0.4806 -0.1870  0.1129
   58SAPC  C210 4346   1.440   3.710   5.896 -0.2104 -0.5525  0.1553
   58SAPC  H10R 4347   1.366   3.628   5.895 -0.6045 -0.2198  0.8784
   58SAPC  H10S 4348   1.542   3.668   5.884  0.2247  0.6212 -0.4805
   58SAPC  C211 4349   1.408   3.807   5.787 -0.1427  0.3616  0.1747
   58SAPC  H11R 4350   1.345   3.887   5.827  0.7117  0.6397  0.9919
   58SAPC  C212 4351   1.467   3.831   5.666  0.4297 -0.3058 -0.3964
   58SAPC  H12R 4352   1.420   3.909   5.605 -2.3562  1.8455  3.9538
   58SAPC  C213 4353   1.586   3.755   5.608 -0.1578  0.1191  0.3353
   58SAPC  H13R 4354   1.657   3.731   5.690 -0.8844 -0.9564  0.6684
   58SAPC  H13S 4355   1.637   3.807   5.523 -1.9337 -0.8037 -1.3802
   58SAPC  C214 4356   1.552   3.611   5.576  0.1041 -0.2083  0.2885
   58SAPC  H14R 4357   1.521   3.552   5.664 -0.2090  0.1849  0.4427
   58SAPC  C215 4358   1.547   3.543   5.453  0.2512 -0.9542 -0.2028
   58SAPC  H15R 4359   1.520   3.437   5.443 -0.2774 -0.9848  1.2464
   58SAPC  C216 4360   1.597   3.619   5.333  1.0624  0.2652 -0.2516
   58SAPC  H16R 4361   1.629   3.564   5.242  0.6796 -0.8448  0.2568
   58SAPC  H16S 4362   1.682   3.683   5.364  0.5117  0.5254  0.7638
   58SAPC  C217 4363   1.480   3.707   5.281 -1.1236  0.4332  0.0442
   58SAPC  H17R 4364   1.428   3.749   5.370 -0.6983  0.7688  0.1324
   58SAPC  H17S 4365   1.410   3.639   5.228 -0.3303  0.1411 -0.6465
   58SAPC  C218 4366   1.515   3.819   5.184 -0.6617 -0.0103  0.3991
   58SAPC  H18R 4367   1.597   3.874   5.236 -0.7477 -0.2018  0.7384
   58SAPC  H18S 4368   1.439   3.897   5.162  1.1270  2.0438  1.1255
   58SAPC  C219 4369   1.580   3.759   5.064 -0.8458  0.3464  0.1862
   58SAPC  H19R 4370   1.655   3.681   5.086  0.2922  1.7395  1.5290
   58SAPC  H19S 4371   1.638   3.839   5.014 -2.9236  0.9369 -1.4164
   58SAPC  C220 4372   1.480   3.708   4.954  0.0249 -0.0733 -0.1819
   58SAPC  H20R 4373   1.406   3.634   4.990 -0.2862 -0.5228 -1.6698
   58SAPC  H20S 4374   1.533   3.657   4.870  1.2112 -2.7828  2.0274
   58SAPC  H20T 4375   1.413   3.791   4.925 -0.9801 -0.4832  0.9061
   58SAPC   C33 4376   1.958   3.776   6.903  0.4788 -0.1782 -0.1584
   58SAPC   H3X 4377   1.903   3.731   6.818  0.0687  1.1199 -0.6157
   58SAPC   H3Y 4378   2.012   3.690   6.948 -1.7170 -0.5753  1.9479
   58SAPC   C34 4379   2.048   3.888   6.853 -0.2047  0.1319  0.6975
   58SAPC   H4X 4380   2.109   3.916   6.941  0.1691  1.1504  0.1212
   58SAPC   H4Y 4381   1.985   3.974   6.823 -0.7978 -1.4878 -3.4364
   58SAPC   C35 4382   2.137   3.823   6.751  0.3558  0.4051 -0.3910
   58SAPC   H5X 4383   2.078   3.771   6.671  1.7712 -0.9710 -0.5854
   58SAPC   H5Y 4384   2.197   3.746   6.804 -1.7330 -0.6874  0.5258
   58SAPC   C36 4385   2.235   3.911   6.682  0.0211  0.9821 -0.9321
   58SAPC   H6X 4386   2.324   3.850   6.657 -0.3865 -0.7015  1.4261
   58SAPC   H6Y 4387   2.263   3.986   6.759  0.2997  1.0857 -1.1341
   58SAPC   C37 4388   2.169   3.971   6.561  0.0592  0.5632 -0.7353
   58SAPC   H7X 4389   2.106   4.053   6.604 -0.4149  0.1712 -0.6763
   58SAPC   H7Y 4390   2.093   3.904   6.516 -0.9969  0.7373  0.7241
   58SAPC   C38 4391   2.274   4.026   6.457  0.5317 -0.5660 -0.1229
   58SAPC   H8X 4392   2.346   3.946   6.429  0.3640 -1.1511  1.0608
   58SAPC   H8Y 4393   2.334   4.101   6.513 -1.2984 -0.8359  2.3788
   58SAPC   C39 4394   2.211   4.076   6.337  0.5907 -0.5848 -0.3971
   58SAPC   H9X 4395   2.151   4.165   6.366  1.4365  0.2555 -1.1617
   58SAPC   H9Y 4396   2.143   4.004   6.287  1.6452 -1.7761 -0.1721
   58SAPC  C310 4397   2.321   4.103   6.235 -0.5788 -0.1241  0.0429
   58SAPC  H10X 4398   2.390   4.016   6.228 -1.0650 -0.4864 -0.2762
   58SAPC  H10Y 4399   2.379   4.193   6.264 -0.3788  0.1896 -1.2440
   58SAPC  C311 4400   2.259   4.125   6.099 -0.2461  0.0509  0.3201
   58SAPC  H11X 4401   2.194   4.216   6.103 -0.0249  0.1714  1.5298
   58SAPC  H11Y 4402   2.191   4.041   6.074  0.7821  0.2917 -4.0021
   58SAPC  C312 4403   2.366   4.138   5.993 -0.0440  0.7546  0.0797
   58SAPC  H12X 4404   2.418   4.040   5.982 -0.2488  0.7467 -0.8514
   58SAPC  H12Y 4405   2.442   4.206   6.037  1.0552 -0.8182  0.7481
   58SAPC  C313 4406   2.306   4.196   5.868 -0.0617  0.0804  0.3516
   58SAPC  H13X 4407   2.262   4.296   5.884 -0.6503 -0.0869 -0.1757
   58SAPC  H13Y 4408   2.229   4.129   5.823 -0.2900  1.0886 -0.8035
   58SAPC  C314 4409   2.409   4.236   5.759  0.0306  0.2807 -0.8134
   58SAPC  H14X 4410   2.464   4.144   5.731 -0.3325 -0.6067  1.1839
   58SAPC  H14Y 4411   2.491   4.305   5.789  1.0712 -1.3994  0.3664
   58SAPC  C315 4412   2.326   4.274   5.634  0.1509  0.4836  0.6957
   58SAPC  H15X 4413   2.283   4.377   5.635  3.1241  1.8146  0.6744
   58SAPC  H15Y 4414   2.245   4.197   5.627  1.6776 -1.0463 -1.3817
   58SAPC  C316 4415   2.412   4.283   5.510 -0.1799  0.0830 -0.3223
   58SAPC  H16X 4416   2.460   4.183   5.504  1.5783  0.9712 -1.7169
   58SAPC  H16Y 4417   2.495   4.351   5.536  0.5650 -1.5479  1.8475
   58SAPC  C317 4418   2.348   4.323   5.378 -0.4019  0.2243  0.0924
   58SAPC  H17X 4419   2.277   4.407   5.392  0.4483  1.0913 -0.7059
   58SAPC  H17Y 4420   2.275   4.241   5.357  0.4609 -1.2619  2.5915
   58SAPC  C318 4421   2.440   4.363   5.265 -0.3329  0.0135  0.5080
   58SAPC  H18X 4422   2.474   4.466   5.285  1.1283 -0.0011 -1.5866
   58SAPC  H18Y 4423   2.385   4.374   5.169  1.4346 -0.0765 -0.5465
   58SAPC  H18Z 4424   2.529   4.297   5.268 -0.2043  0.1931  0.6117
   59SAPC     N 4425   0.835   5.214   6.938 -0.9694  0.4788 -0.6321
   59SAPC   C12 4426   0.817   5.066   6.896 -0.0018  0.5927 -0.8764
   59SAPC  H12A 4427   0.713   5.038   6.885  0.2927 -1.8892  1.4259
   59SAPC  H12B 4428   0.847   5.011   6.984 -2.0153  0.2262 -0.3530
   59SAPC   C13 4429   0.978   5.249   6.952 -0.5005  1.0069  0.4713
   59SAPC  H13A 4430   1.001   5.347   6.990  0.2732  1.4325 -1.0287
   59SAPC  H13B 4431   1.025   5.172   7.012 -0.3215 -0.7704 -1.8223
   59SAPC  H13C 4432   1.028   5.244   6.857  1.6916 -0.3166  1.6148
   59SAPC   C14 4433   0.769   5.303   6.845  0.1336  0.5931  0.1542
   59SAPC  H14A 4434   0.783   5.280   6.741 -1.6085  0.6615 -0.1249
   59SAPC  H14B 4435   0.666   5.301   6.878  0.4848 -0.0427  1.2630
   59SAPC  H14C 4436   0.808   5.403   6.856  1.3864 -0.0059  1.5336
   59SAPC   C15 4437   0.752   5.219   7.063 -0.3223  0.5183 -0.9706
   59SAPC  H15A 4438   0.653   5.181   7.044 -1.2584  0.9873  2.4201
   59SAPC  H15B 4439   0.788   5.155   7.142 -0.0665  1.1086 -0.6006
   59SAPC  H15C 4440   0.741   5.320   7.100  0.5917  0.2712  0.0232
   59SAPC   C11 4441   0.889   5.010   6.770  0.2887  0.4269 -0.2609
   59SAPC  H11A 4442   0.868   5.085   6.691 -1.3538  0.6096  0.3266
   59SAPC  H11B 4443   0.838   4.916   6.742  0.6471  0.1519  0.0031
   59SAPC     P 4444   1.079   4.874   6.885  0.0906  0.1477  0.4291
   59SAPC   O13 4445   1.099   4.918   7.024 -0.4533  0.4975 -0.5659
   59SAPC   O14 4446   0.983   4.764   6.875  0.3341 -0.5535  0.1832
   59SAPC   O12 4447   1.028   4.995   6.800  0.1878 -0.4521  0.6991
   59SAPC   O11 4448   1.214   4.825   6.821  0.8036 -0.2128  0.2984
   59SAPC    C1 4449   1.253   4.858   6.694  0.2651 -0.3568  1.0540
   59SAPC    HA 4450   1.322   4.777   6.664 -0.3469 -1.2119  1.8795
   59SAPC    HB 4451   1.166   4.837   6.628  0.1109  0.0335  1.1306
   59SAPC    C2 4452   1.304   5.001   6.675 -0.1775  0.4415 -0.0591
   59SAPC    HS 4453   1.238   5.070   6.731 -1.0665  0.0002 -0.5573
   59SAPC   O21 4454   1.289   5.034   6.537 -0.3308 -0.2026  0.2781
   59SAPC   C21 4455   1.310   5.164   6.509 -0.7436  0.1484 -0.3515
   59SAPC   O22 4456   1.307   5.251   6.590 -0.2042  0.0816 -0.6729
   59SAPC   C22 4457   1.328   5.181   6.361 -0.5940  0.0226 -0.6855
   59SAPC   H2R 4458   1.235   5.149   6.310 -1.8831  0.2022  1.4233
   59SAPC   H2S 4459   1.337   5.291   6.347 -1.6234  0.1184 -0.6427
   59SAPC    C3 4460   1.457   5.018   6.731 -0.1950 -0.2755  0.1342
   59SAPC    HX 4461   1.475   4.944   6.812 -1.2487  0.8579  1.4399
   59SAPC    HY 4462   1.453   5.117   6.781 -2.7506 -1.2540  2.0654
   59SAPC   O31 4463   1.560   5.018   6.638 -0.3416 -0.1687  0.0371
   59SAPC   C31 4464   1.676   5.051   6.688 -0.1816 -0.3503 -0.4587
   59SAPC   O32 4465   1.698   5.074   6.804  0.0905 -0.3660 -0.1918
   59SAPC   C32 4466   1.781   5.062   6.582  0.1500  0.1961 -0.2387
   59SAPC   H2X 4467   1.773   4.979   6.508  1.1201  1.6756 -2.0938
   59SAPC   H2Y 4468   1.881   5.040   6.626  0.4660 -0.6181 -1.2891
   59SAPC   C23 4469   1.456   5.119   6.303  0.1774  0.3742  0.5264
   59SAPC   H3R 4470   1.442   5.009   6.295  0.5901  0.4095 -0.8543
   59SAPC   H3S 4471   1.545   5.114   6.369 -0.9436  0.7176  2.1409
   59SAPC   C24 4472   1.500   5.174   6.168 -0.3179 -0.9380  0.5848
   59SAPC   H4R 4473   1.507   5.283   6.188  1.8407 -1.1418  1.2045
   59SAPC   H4S 4474   1.414   5.164   6.098  1.3299 -0.1609 -1.6802
   59SAPC   C25 4475   1.632   5.131   6.115  0.4236 -0.1057 -0.9897
   59SAPC   H5R 4476   1.715   5.154   6.184 -0.6689  0.4814  0.1800
   59SAPC   C26 4477   1.668   5.078   5.999  0.7051 -0.1074 -0.6490
   59SAPC   H6R 4478   1.774   5.054   5.986  0.5170 -0.3084 -1.9862
   59SAPC   C27 4479   1.575   5.038   5.887  0.1605 -0.1036 -0.8457
   59SAPC   H7R 4480   1.644   5.018   5.803  0.1549  0.1320 -0.9075
   59SAPC   H7S 4481   1.519   5.129   5.855  1.4331  1.1167  0.2763
   59SAPC   C28 4482   1.474   4.929   5.911  0.2880 -0.3548  0.4828
   59SAPC   H8R 4483   1.426   4.907   6.008  0.2526 -2.7025 -0.0079
   59SAPC   C29 4484   1.425   4.854   5.810  0.4289 -0.0593  0.1851
   59SAPC   H9R 4485   1.349   4.776   5.825 -0.1084  0.0984 -1.4608
   59SAPC  C210 4486   1.474   4.857   5.668 -0.5853  0.7839  0.1490
   59SAPC  H10R 4487   1.575   4.812   5.660 -1.4390 -1.2528  0.2347
   59SAPC  H10S 4488   1.481   4.960   5.626 -1.1300  2.3253  3.4733
   59SAPC  C211 4489   1.368   4.790   5.581  0.0220  0.5456 -0.0264
   59SAPC  H11R 4490   1.284   4.750   5.639  1.2547 -0.6000  1.0382
   59SAPC  C212 4491   1.371   4.772   5.453 -0.5170  0.7898  1.0493
   59SAPC  H12R 4492   1.285   4.726   5.403  1.3706  1.2946 -3.1500
   59SAPC  C213 4493   1.488   4.821   5.369  0.3428  0.6566  0.1150
   59SAPC  H13R 4494   1.559   4.881   5.429  1.6035 -1.5034  0.8763
   59SAPC  H13S 4495   1.439   4.886   5.293  0.0911  1.5874  1.0473
   59SAPC  C214 4496   1.580   4.725   5.296  0.4453  0.1976  0.1168
   59SAPC  H14R 4497   1.673   4.698   5.349  0.6102 -0.2085 -0.3683
   59SAPC  C215 4498   1.549   4.659   5.180 -0.1110  0.2371  0.1632
   59SAPC  H15R 4499   1.622   4.587   5.139 -1.1951 -0.5275 -0.4572
   59SAPC  C216 4500   1.420   4.659   5.098 -0.9517  0.3748  0.3887
   59SAPC  H16R 4501   1.434   4.635   4.991  0.1180  1.3948  0.2721
   59SAPC  H16S 4502   1.380   4.762   5.115 -1.8439 -0.3630  3.5814
   59SAPC  C217 4503   1.329   4.557   5.163  0.2733  0.0879  0.4649
   59SAPC  H17R 4504   1.324   4.562   5.274 -2.2759 -1.1906  0.4608
   59SAPC  H17S 4505   1.376   4.460   5.139 -1.4718 -0.3915 -1.2785
   59SAPC  C218 4506   1.183   4.552   5.107  0.7095 -0.4267 -0.0570
   59SAPC  H18R 4507   1.192   4.544   4.997 -0.9331 -1.1553 -0.1636
   59SAPC  H18S 4508   1.136   4.650   5.128  1.4551 -0.1142  0.1991
   59SAPC  C219 4509   1.100   4.430   5.166 -0.5583 -0.7350  0.2798
   59SAPC  H19R 4510   1.100   4.457   5.273  1.7152  0.6393  0.0046
   59SAPC  H19S 4511   1.161   4.338   5.151 -0.0704 -0.4942  0.8146
   59SAPC  C220 4512   0.955   4.421   5.104 -0.1638  0.6162  0.3089
   59SAPC  H20R 4513   0.896   4.345   5.159 -2.0768  2.1641  0.4769
   59SAPC  H20S 4514   0.954   4.385   4.999 -1.6816 -0.3401  0.6148
   59SAPC  H20T 4515   0.905   4.517   5.127  1.8361  1.4600  1.3329
   59SAPC   C33 4516   1.774   5.198   6.505  0.0238 -0.3045 -0.1217
   59SAPC   H3X 4517   1.666   5.216   6.491 -0.1233  0.2677  1.5468
   59SAPC   H3Y 4518   1.825   5.183   6.407  1.7428  1.4370  0.4374
   59SAPC   C34 4519   1.842   5.323   6.579  0.5541 -0.0716  0.8639
   59SAPC   H4X 4520   1.945   5.298   6.610 -0.9391 -1.4146  5.5023
   59SAPC   H4Y 4521   1.793   5.332   6.678  1.5132  0.5988  1.2901
   59SAPC   C35 4522   1.840   5.454   6.513  0.2138 -0.5418  0.2873
   59SAPC   H5X 4523   1.872   5.536   6.582  1.9301 -0.7415 -0.2322
   59SAPC   H5Y 4524   1.733   5.477   6.493  0.5447  2.0532  1.0742
   59SAPC   C36 4525   1.922   5.480   6.387 -0.0565  0.4265  0.4776
   59SAPC   H6X 4526   2.014   5.419   6.394 -0.2371  0.3461  3.1867
   59SAPC   H6Y 4527   1.960   5.585   6.380 -0.2507  0.6386  2.1529
   59SAPC   C37 4528   1.835   5.452   6.258  0.5443 -0.1678 -0.7267
   59SAPC   H7X 4529   1.762   5.534   6.245 -0.6816 -1.3018 -1.2583
   59SAPC   H7Y 4530   1.774   5.359   6.265 -2.6702  1.3990 -4.5681
   59SAPC   C38 4531   1.916   5.441   6.131 -1.3317 -0.5137 -0.0126
   59SAPC   H8X 4532   1.974   5.346   6.141  1.0959  0.8402 -0.4893
   59SAPC   H8Y 4533   1.988   5.525   6.121 -1.3199 -0.1784  2.2376
   59SAPC   C39 4534   1.833   5.446   5.995 -0.5900  0.2827 -0.1528
   59SAPC   H9X 4535   1.755   5.523   6.006 -0.4402  0.4324 -0.1364
   59SAPC   H9Y 4536   1.789   5.345   5.978 -0.9393  0.3520  0.3348
   59SAPC  C310 4537   1.913   5.490   5.870 -0.2789 -0.0303 -0.0832
   59SAPC  H10X 4538   2.013   5.443   5.858 -1.1634 -2.0499  0.0817
   59SAPC  H10Y 4539   1.916   5.602   5.870  0.5945 -0.0436  0.3672
   59SAPC  C311 4540   1.840   5.468   5.735  0.0875  0.1482 -0.3104
   59SAPC  H11X 4541   1.880   5.526   5.649 -1.4451  0.7761 -0.6360
   59SAPC  H11Y 4542   1.731   5.491   5.746  0.3726  1.3678  0.1227
   59SAPC  C312 4543   1.848   5.325   5.683 -0.3318  0.5029 -0.2087
   59SAPC  H12X 4544   1.835   5.250   5.763  0.8585 -1.6283 -1.9096
   59SAPC  H12Y 4545   1.951   5.311   5.644 -0.6348 -0.8315 -0.5935
   59SAPC  C313 4546   1.748   5.271   5.574 -0.1868  0.7051 -0.0560
   59SAPC  H13X 4547   1.651   5.256   5.627 -0.2123  0.6227 -0.1234
   59SAPC  H13Y 4548   1.780   5.168   5.545  0.2602 -0.0542  2.8607
   59SAPC  C314 4549   1.743   5.363   5.452  0.0862  0.9193 -0.3040
   59SAPC  H14X 4550   1.841   5.377   5.401  0.8353 -0.4635  0.7094
   59SAPC  H14Y 4551   1.697   5.458   5.486 -1.0042  0.4966 -0.5624
   59SAPC  C315 4552   1.638   5.308   5.350  0.4787 -0.1104  0.0356
   59SAPC  H15X 4553   1.581   5.389   5.300  0.0552 -0.3205  0.1802
   59SAPC  H15Y 4554   1.560   5.254   5.407 -1.6535  1.2615 -1.4691
   59SAPC  C316 4555   1.699   5.217   5.241 -0.1744  0.4097  0.1537
   59SAPC  H16X 4556   1.755   5.142   5.301 -1.8255 -2.0465 -1.1790
   59SAPC  H16Y 4557   1.762   5.286   5.180 -0.6037 -0.3686 -1.2254
   59SAPC  C317 4558   1.593   5.156   5.148  0.2138  0.0070 -0.0934
   59SAPC  H17X 4559   1.526   5.232   5.104  0.5317  1.0218  1.1109
   59SAPC  H17Y 4560   1.526   5.096   5.213  0.0304 -1.6017 -1.6910
   59SAPC  C318 4561   1.636   5.057   5.034  0.1680 -0.0226 -0.5303
   59SAPC  H18X 4562   1.561   5.045   4.953 -0.9192 -1.8791  0.6718
   59SAPC  H18Y 4563   1.655   4.953   5.066  1.7376  0.8445  1.6067
   59SAPC  H18Z 4564   1.727   5.092   4.981 -0.1793 -0.7521 -1.6508
   60SAPC     N 4565   6.879   6.301   6.848 -0.1189 -0.0666  0.2894
   60SAPC   C12 4566   6.761   6.306   6.749 -1.0905  0.6445  0.1874
   60SAPC  H12A 4567   6.783   6.394   6.690  1.2390  1.4172  2.0651
   60SAPC  H12B 4568   6.668   6.318   6.803 -0.4698  0.1501  1.3778
   60SAPC   C13 4569   6.875   6.191   6.949  0.2293  0.7545 -0.5304
   60SAPC  H13A 4570   6.947   6.201   7.029 -0.2588 -2.4643  0.4711
   60SAPC  H13B 4571   6.780   6.207   6.996 -0.3912 -0.6365 -1.2616
   60SAPC  H13C 4572   6.884   6.092   6.908 -1.8360  1.3310 -2.5849
   60SAPC   C14 4573   7.008   6.278   6.772  0.3368  0.2578 -0.9187
   60SAPC  H14A 4574   7.015   6.177   6.734 -0.6073  0.4795 -1.7067
   60SAPC  H14B 4575   7.027   6.350   6.694  0.5387  0.9764 -0.2128
   60SAPC  H14C 4576   7.092   6.281   6.841 -0.7505 -0.0062  0.4557
   60SAPC   C15 4577   6.888   6.443   6.908 -0.3913 -0.0768 -0.7166
   60SAPC  H15A 4578   6.794   6.472   6.953 -0.0895 -2.2165  1.4773
   60SAPC  H15B 4579   6.970   6.454   6.977  0.0444  0.5220 -1.3082
   60SAPC  H15C 4580   6.909   6.517   6.832  1.0463  0.3323  0.0427
   60SAPC   C11 4581   6.744   6.193   6.646  0.0622 -0.0671 -0.0722
   60SAPC  H11A 4582   6.842   6.159   6.606  1.2188  2.1783  0.7122
   60SAPC  H11B 4583   6.674   6.205   6.560  0.6280 -0.5564 -0.6098
   60SAPC     P 4584   6.708   5.941   6.690 -0.2636  0.1155  0.2668
   60SAPC   O13 4585   6.847   5.903   6.724  0.0055  0.2859  0.1783
   60SAPC   O14 4586   6.605   5.868   6.765  0.1108 -0.1773 -0.0118
   60SAPC   O12 4587   6.686   6.089   6.727  0.6637  0.1987 -0.0041
   60SAPC   O11 4588   6.671   5.929   6.540 -0.8170  0.1976  0.4778
   60SAPC    C1 4589   6.534   5.907   6.493  0.1466 -0.9504  0.3204
   60SAPC    HA 4590   6.512   5.799   6.507 -0.4118 -1.1561 -1.7954
   60SAPC    HB 4591   6.467   5.961   6.563  0.1442  1.1963 -1.2355
   60SAPC    C2 4592   6.507   5.947   6.340 -0.3861 -0.2029  0.4815
   60SAPC    HS 4593   6.398   5.946   6.320 -0.7052 -1.9200  2.0080
   60SAPC   O21 4594   6.574   5.862   6.248  0.3243  0.3817 -0.0840
   60SAPC   C21 4595   6.519   5.748   6.223  0.2028 -0.5758 -0.2261
   60SAPC   O22 4596   6.420   5.703   6.279 -0.0241  0.2204 -0.3418
   60SAPC   C22 4597   6.597   5.666   6.119 -0.2482 -0.0817  0.2377
   60SAPC   H2R 4598   6.633   5.735   6.040  0.9778  0.6725  1.4239
   60SAPC   H2S 4599   6.683   5.626   6.176 -1.4514 -0.2803  1.9957
   60SAPC    C3 4600   6.560   6.095   6.309 -0.1960  0.2723 -0.8976
   60SAPC    HX 4601   6.664   6.111   6.346 -1.2155  1.5800  1.6634
   60SAPC    HY 4602   6.496   6.168   6.362  1.1631  0.4792  0.5525
   60SAPC   O31 4603   6.543   6.134   6.173  0.0478  0.1545  0.0646
   60SAPC   C31 4604   6.641   6.100   6.090  0.0763  0.2479 -0.2351
   60SAPC   O32 4605   6.748   6.054   6.122  0.3339  0.1695  0.2155
   60SAPC   C32 4606   6.595   6.132   5.950 -0.1788 -0.2084  0.5419
   60SAPC   H2X 4607   6.565   6.239   5.949 -2.0120 -0.6898 -1.2515
   60SAPC   H2Y 4608   6.508   6.067   5.930  0.1234 -0.0450 -1.4989
   60SAPC   C23 4609   6.505   5.550   6.074 -0.4701  0.2138  0.0055
   60SAPC   H3R 4610   6.399   5.582   6.062 -0.3127  0.2909 -1.2962
   60SAPC   H3S 4611   6.525   5.471   6.150 -0.6625  0.3178  0.1658
   60SAPC   C24 4612   6.534   5.485   5.938 -0.3698  0.6745  0.2201
   60SAPC   H4R 4613   6.497   5.551   5.857 -0.2213  0.5273  0.0297
   60SAPC   H4S 4614   6.482   5.387   5.931 -0.5871  0.6518  1.8921
   60SAPC   C25 4615   6.677   5.451   5.917  0.2952  0.8548  0.8332
   60SAPC   H5R 4616   6.728   5.399   5.999 -0.1195  0.5244  0.8846
   60SAPC   C26 4617   6.748   5.477   5.808 -0.2017 -0.1093 -0.4593
   60SAPC   H6R 4618   6.851   5.437   5.804 -0.6266 -1.3304  0.5218
   60SAPC   C27 4619   6.703   5.519   5.668 -0.3034 -0.1736  0.7282
   60SAPC   H7R 4620   6.762   5.603   5.625 -0.7404 -0.0825  0.2903
   60SAPC   H7S 4621   6.601   5.562   5.681 -2.2257 -3.5370 -1.3955
   60SAPC   C28 4622   6.685   5.402   5.582  0.0393  0.1432 -0.5277
   60SAPC   H8R 4623   6.656   5.304   5.622  0.3000 -1.9496 -4.8742
   60SAPC   C29 4624   6.700   5.397   5.451  0.1025 -0.1944  0.3659
   60SAPC   H9R 4625   6.685   5.302   5.396 -1.8381  1.1788 -1.6786
   60SAPC  C210 4626   6.753   5.514   5.364  0.5120 -0.0460  0.1234
   60SAPC  H10R 4627   6.823   5.483   5.283 -0.6972  0.9977 -1.3902
   60SAPC  H10S 4628   6.802   5.596   5.420  0.0540  0.7984 -0.6789
   60SAPC  C211 4629   6.631   5.569   5.286 -0.3541 -0.6793 -0.3393
   60SAPC  H11R 4630   6.538   5.509   5.279 -0.4332 -1.3620  3.6454
   60SAPC  C212 4631   6.624   5.688   5.216 -0.1644  0.5684  0.1956
   60SAPC  H12R 4632   6.533   5.715   5.160 -1.1314 -0.7996  1.0440
   60SAPC  C213 4633   6.731   5.793   5.206 -0.1708 -0.4791  0.1021
   60SAPC  H13R 4634   6.757   5.822   5.309  0.0294  0.9818 -0.3383
   60SAPC  H13S 4635   6.692   5.892   5.174 -3.2330 -1.4404  0.4757
   60SAPC  C214 4636   6.859   5.751   5.149 -0.5380  0.1333 -0.3191
   60SAPC  H14R 4637   6.886   5.653   5.191 -2.1293 -0.0100  0.4827
   60SAPC  C215 4638   6.943   5.821   5.070 -0.4051  0.3027 -0.7353
   60SAPC  H15R 4639   7.033   5.772   5.030 -0.2335  0.4104 -0.4811
   60SAPC  C216 4640   6.905   5.954   5.016 -0.0497 -0.8507  0.3893
   60SAPC  H16R 4641   6.999   6.012   5.012  0.6095 -1.8639  0.9485
   60SAPC  H16S 4642   6.811   5.998   5.056 -0.8292 -0.0660 -2.1295
   60SAPC  C217 4643   6.871   5.939   4.865  0.8188  1.0824  0.0813
   60SAPC  H17R 4644   6.829   6.030   4.817 -1.0850 -0.5769 -1.5663
   60SAPC  H17S 4645   6.782   5.873   4.860  1.5697  0.0174  0.4829
   60SAPC  C218 4646   6.980   5.873   4.788 -0.0618 -0.2156  1.0038
   60SAPC  H18R 4647   7.005   5.769   4.817  2.1584 -0.8351 -2.4875
   60SAPC  H18S 4648   7.074   5.931   4.802  0.0206  0.6227 -2.1873
   60SAPC  C219 4649   6.953   5.876   4.631 -0.2726  0.1880  0.1380
   60SAPC  H19R 4650   7.039   5.825   4.582  1.1775  1.8770  0.8262
   60SAPC  H19S 4651   6.963   5.975   4.582  0.0896  0.9109  1.6023
   60SAPC  C220 4652   6.816   5.816   4.594 -0.4237  0.1326  0.0054
   60SAPC  H20R 4653   6.804   5.720   4.650 -1.6996  1.4165  2.0681
   60SAPC  H20S 4654   6.800   5.786   4.488 -0.1724  0.7564 -0.2111
   60SAPC  H20T 4655   6.735   5.884   4.625 -0.5183 -0.1651  0.4281
   60SAPC   C33 4656   6.694   6.103   5.841 -0.7985  0.1141  0.1632
   60SAPC   H3X 4657   6.739   6.002   5.857 -0.0038  0.8901  3.4267
   60SAPC   H3Y 4658   6.771   6.182   5.844 -0.4664 -0.1530 -0.8717
   60SAPC   C34 4659   6.631   6.098   5.702 -0.4404 -0.6595 -0.2351
   60SAPC   H4X 4660   6.562   6.183   5.686 -3.2897 -2.6331  0.7308
   60SAPC   H4Y 4661   6.564   6.010   5.693 -1.8932  0.5647 -2.1163
   60SAPC   C35 4662   6.738   6.100   5.590  0.7197 -0.4785  0.6758
   60SAPC   H5X 4663   6.755   5.999   5.546 -2.1712 -0.6707 -0.2624
   60SAPC   H5Y 4664   6.832   6.150   5.623  0.0968  1.7270 -0.6377
   60SAPC   C36 4665   6.695   6.195   5.471 -0.1818 -0.4736 -0.3313
   60SAPC   H6X 4666   6.787   6.231   5.420  0.6814  0.5538  1.8444
   60SAPC   H6Y 4667   6.656   6.286   5.521  0.0395 -0.3452 -0.3962
   60SAPC   C37 4668   6.592   6.129   5.371  0.1327 -0.0494 -0.6598
   60SAPC   H7X 4669   6.503   6.109   5.434 -0.0239  1.1769 -0.4732
   60SAPC   H7Y 4670   6.636   6.030   5.345  0.5713 -0.5414  1.7215
   60SAPC   C38 4671   6.570   6.226   5.257  0.3219 -0.0158  1.0398
   60SAPC   H8X 4672   6.661   6.278   5.220 -1.4302  1.7064 -1.1739
   60SAPC   H8Y 4673   6.505   6.314   5.277  0.7385  0.3013  1.0157
   60SAPC   C39 4674   6.511   6.139   5.142 -0.5243 -0.6789 -0.0085
   60SAPC   H9X 4675   6.430   6.082   5.193 -1.4354  0.4195 -0.1920
   60SAPC   H9Y 4676   6.587   6.072   5.098 -0.4345  0.1033 -1.0827
   60SAPC  C310 4677   6.453   6.228   5.033  0.5204  0.2142 -0.1626
   60SAPC  H10X 4678   6.367   6.272   5.087 -1.1848 -1.5909 -1.2318
   60SAPC  H10Y 4679   6.404   6.160   4.959 -2.5018  3.1410 -1.0930
   60SAPC  C311 4680   6.544   6.337   4.980 -0.1351  0.0361 -0.3369
   60SAPC  H11X 4681   6.566   6.411   5.059 -2.8295  1.1292 -0.5001
   60SAPC  H11Y 4682   6.486   6.397   4.907 -1.1373  1.4938  1.5903
   60SAPC  C312 4683   6.671   6.281   4.912 -0.3574  0.1273 -0.8999
   60SAPC  H12X 4684   6.657   6.207   4.831  1.9633  0.3174 -1.5412
   60SAPC  H12Y 4685   6.743   6.237   4.984 -1.5606  0.1093  0.3303
   60SAPC  C313 4686   6.751   6.385   4.827 -0.3455 -0.3712  0.2428
   60SAPC  H13X 4687   6.835   6.339   4.772  0.4390  1.3868 -0.0871
   60SAPC  H13Y 4688   6.805   6.463   4.885 -1.6427  1.9605 -1.5236
   60SAPC  C314 4689   6.669   6.460   4.719  0.0170 -0.2911  0.2296
   60SAPC  H14X 4690   6.616   6.543   4.772 -0.3211 -0.3649  0.0093
   60SAPC  H14Y 4691   6.591   6.391   4.681 -0.3220 -0.1206  0.6092
   60SAPC  C315 4692   6.756   6.514   4.600  0.6108  0.4104  0.1427
   60SAPC  H15X 4693   6.798   6.420   4.557  0.9864  0.9927 -0.7927
   60SAPC  H15Y 4694   6.838   6.581   4.634  0.8358 -0.2661  0.9603
   60SAPC  C316 4695   6.671   6.578   4.489  0.2397 -1.2841  0.7791
   60SAPC  H16X 4696   6.616   6.662   4.536 -0.7623 -1.5417  0.0894
   60SAPC  H16Y 4697   6.609   6.501   4.439  1.1502 -0.8700 -1.0410
   60SAPC  C317 4698   6.766   6.630   4.371  0.7820 -0.5367 -0.5031
   60SAPC  H17X 4699   6.716   6.631   4.272  0.9854 -0.2885 -0.6044
   60SAPC  H17Y 4700   6.843   6.550   4.375  2.0706  0.7167  1.7906
   60SAPC  C318 4701   6.822   6.767   4.393  0.0526  0.4128 -0.2843
   60SAPC  H18X 4702   6.903   6.782   4.469 -1.0183  2.5761  0.5370
   60SAPC  H18Y 4703   6.734   6.829   4.420 -1.2768 -0.9425 -1.3729
   60SAPC  H18Z 4704   6.877   6.804   4.304  1.4062  0.8805  0.7052
   61SAPC     N 4705   3.219   4.873   7.898 -0.6239  0.4569  0.0965
   61SAPC   C12 4706   3.352   4.927   7.859 -0.4502  0.3548  0.3686
   61SAPC  H12A 4707   3.384   5.004   7.928 -0.5928  1.6550 -0.9742
   61SAPC  H12B 4708   3.338   4.985   7.769  1.0133  2.0521  1.1604
   61SAPC   C13 4709   3.223   4.807   8.034  0.7093  0.0112  0.2528
   61SAPC  H13A 4710   3.241   4.888   8.104  0.7638 -0.2426  0.5347
   61SAPC  H13B 4711   3.126   4.765   8.052 -0.1613  1.5207 -0.7058
   61SAPC  H13C 4712   3.306   4.738   8.034  2.7386  2.2607 -0.8198
   61SAPC   C14 4713   3.117   4.980   7.905  0.3920  0.0789  0.1232
   61SAPC  H14A 4714   3.137   5.065   7.969  0.5723  0.4450 -0.4096
   61SAPC  H14B 4715   3.101   5.025   7.808  1.2174  1.0824  0.4449
   61SAPC  H14C 4716   3.021   4.938   7.930 -0.0142  1.3946  0.8692
   61SAPC   C15 4717   3.166   4.778   7.795  0.2580 -0.6490 -0.3894
   61SAPC  H15A 4718   3.244   4.724   7.743  1.4101 -1.0305  1.6563
   61SAPC  H15B 4719   3.102   4.700   7.833  0.1928 -1.0996 -1.3782
   61SAPC  H15C 4720   3.108   4.834   7.723  0.4260 -0.6678 -0.5387
   61SAPC   C11 4721   3.467   4.816   7.838 -0.0525 -0.4051  0.2013
   61SAPC  H11A 4722   3.443   4.734   7.909 -0.6448  0.5250  1.1064
   61SAPC  H11B 4723   3.561   4.870   7.861 -1.2733  1.3341  1.3002
   61SAPC     P 4724   3.502   4.863   7.586  0.2994  0.5145  0.1458
   61SAPC   O13 4725   3.396   4.963   7.558 -0.6559 -0.6703 -0.2378
   61SAPC   O14 4726   3.643   4.900   7.612  0.2406 -0.6176  0.3497
   61SAPC   O12 4727   3.461   4.767   7.704 -0.5234  0.5566  0.1040
   61SAPC   O11 4728   3.492   4.770   7.460 -0.0269  0.5812  0.0713
   61SAPC    C1 4729   3.440   4.640   7.467 -0.0005  0.1636 -0.4714
   61SAPC    HA 4730   3.431   4.593   7.568  1.9997 -0.6126 -0.6195
   61SAPC    HB 4731   3.343   4.639   7.414 -0.3151 -0.7645  0.0937
   61SAPC    C2 4732   3.537   4.551   7.387  0.1132 -0.6771 -0.0910
   61SAPC    HS 4733   3.639   4.564   7.430 -0.1305  0.1551  0.2433
   61SAPC   O21 4734   3.554   4.592   7.250  0.2313 -0.1241  0.5081
   61SAPC   C21 4735   3.640   4.522   7.169  0.4958 -0.3357 -0.1123
   61SAPC   O22 4736   3.722   4.442   7.220 -0.1540  0.1979  0.3951
   61SAPC   C22 4737   3.623   4.553   7.014 -0.2767  0.5489  0.2833
   61SAPC   H2R 4738   3.719   4.592   6.976 -0.5160  0.1693 -0.7312
   61SAPC   H2S 4739   3.609   4.461   6.954  0.1700 -0.2956  1.4217
   61SAPC    C3 4740   3.500   4.407   7.397  0.0221  0.3077 -0.5586
   61SAPC    HX 4741   3.486   4.393   7.506  0.0644  0.2996 -0.5538
   61SAPC    HY 4742   3.576   4.336   7.357  1.5304  1.4308  0.2149
   61SAPC   O31 4743   3.376   4.394   7.332  0.3979  0.3162  0.0274
   61SAPC   C31 4744   3.326   4.270   7.338  0.9872 -0.0498  0.2545
   61SAPC   O32 4745   3.373   4.177   7.400 -0.6978  0.4763  0.2469
   61SAPC   C32 4746   3.205   4.261   7.239 -0.3248  0.1777 -0.2896
   61SAPC   H2X 4747   3.179   4.362   7.200 -0.2507 -0.0848 -1.0361
   61SAPC   H2Y 4748   3.110   4.225   7.282 -0.3460  0.7039  0.1090
   61SAPC   C23 4749   3.507   4.650   6.983  0.4123 -0.3005 -0.2449
   61SAPC   H3R 4750   3.536   4.743   7.036 -2.3150  0.1183  0.6612
   61SAPC   H3S 4751   3.416   4.615   7.037  0.8164 -1.2630 -0.1725
   61SAPC   C24 4752   3.475   4.666   6.829 -0.1279 -0.0107 -0.1238
   61SAPC   H4R 4753   3.383   4.727   6.819  1.2552  2.4387  0.9665
   61SAPC   H4S 4754   3.454   4.568   6.781  1.8058  1.2152 -3.8313
   61SAPC   C25 4755   3.592   4.737   6.766 -0.5368 -0.1078  0.2791
   61SAPC   H5R 4756   3.631   4.821   6.825  3.2232 -1.0661 -0.6116
   61SAPC   C26 4757   3.655   4.693   6.654  0.2612  0.3366  0.2989
   61SAPC   H6R 4758   3.731   4.759   6.611 -0.7945  0.3235 -1.7226
   61SAPC   C27 4759   3.612   4.589   6.557  0.8388  1.1858  0.0684
   61SAPC   H7R 4760   3.522   4.535   6.594  1.1579 -0.9073 -2.0239
   61SAPC   H7S 4761   3.690   4.510   6.556  0.2585  0.4251  3.5519
   61SAPC   C28 4762   3.558   4.655   6.433  0.5222 -0.3418  0.4163
   61SAPC   H8R 4763   3.479   4.731   6.444 -0.1571 -1.1329  1.1433
   61SAPC   C29 4764   3.599   4.621   6.306  0.6069 -0.3793  0.0001
   61SAPC   H9R 4765   3.563   4.685   6.225  1.9032  0.1163 -0.2054
   61SAPC  C210 4766   3.713   4.531   6.262 -0.1184 -0.0054 -0.1988
   61SAPC  H10R 4767   3.791   4.531   6.341 -0.6974 -4.4444  0.6505
   61SAPC  H10S 4768   3.759   4.582   6.175 -1.0699 -1.1149 -1.3979
   61SAPC  C211 4769   3.668   4.391   6.233 -0.2060 -0.4875 -0.5873
   61SAPC  H11R 4770   3.613   4.341   6.315  1.3299 -2.6861 -0.7969
   61SAPC  C212 4771   3.698   4.318   6.120  0.0332 -0.0347  0.7359
   61SAPC  H12R 4772   3.657   4.217   6.104 -0.9374  0.3531  0.6926
   61SAPC  C213 4773   3.776   4.368   5.997  0.0924  0.3170 -0.2611
   61SAPC  H13R 4774   3.878   4.392   6.036 -0.4908  0.5061  1.1942
   61SAPC  H13S 4775   3.726   4.459   5.959 -1.8975 -0.5396  0.2117
   61SAPC  C214 4776   3.798   4.254   5.898  0.0540 -0.4346 -0.0956
   61SAPC  H14R 4777   3.838   4.164   5.947  0.2249 -0.0504  0.4823
   61SAPC  C215 4778   3.767   4.250   5.768  0.1812  0.7585  0.8171
   61SAPC  H15R 4779   3.800   4.164   5.709 -1.3652 -0.0924  1.1430
   61SAPC  C216 4780   3.715   4.370   5.690 -0.2329 -0.0078  0.4744
   61SAPC  H16R 4781   3.665   4.440   5.761  0.0107  1.7670 -1.0211
   61SAPC  H16S 4782   3.640   4.323   5.623  0.1690  0.1509 -0.0878
   61SAPC  C217 4783   3.818   4.442   5.610 -0.4147  0.6979  0.0507
   61SAPC  H17R 4784   3.863   4.385   5.527  0.0406 -0.4874  1.0825
   61SAPC  H17S 4785   3.898   4.479   5.678 -0.5426 -0.4797  0.8719
   61SAPC  C218 4786   3.775   4.565   5.535 -0.0043 -0.3046  0.3528
   61SAPC  H18R 4787   3.746   4.644   5.608 -1.4706  1.3490 -1.8813
   61SAPC  H18S 4788   3.684   4.543   5.474  0.1534 -0.9857  0.3523
   61SAPC  C219 4789   3.887   4.618   5.439  0.0026 -1.1497 -0.2950
   61SAPC  H19R 4790   3.990   4.600   5.477 -0.4476  1.3531  2.4932
   61SAPC  H19S 4791   3.883   4.728   5.451  2.0117 -1.1479  0.8284
   61SAPC  C220 4792   3.869   4.575   5.300  0.2050 -0.3743 -0.2355
   61SAPC  H20R 4793   3.768   4.601   5.261  0.0603 -0.8112 -0.1591
   61SAPC  H20S 4794   3.892   4.468   5.279  0.3273 -0.3339 -0.3049
   61SAPC  H20T 4795   3.939   4.632   5.235  0.7940 -1.5467 -0.6621
   61SAPC   C33 4796   3.242   4.178   7.124  0.2669 -0.1652  0.8901
   61SAPC   H3X 4797   3.156   4.173   7.054  0.3981 -1.4753  0.8077
   61SAPC   H3Y 4798   3.256   4.075   7.162 -0.7411 -0.6265  0.0376
   61SAPC   C34 4799   3.362   4.237   7.057 -0.5236 -0.2087  0.0178
   61SAPC   H4X 4800   3.450   4.196   7.110  0.3384  3.1232  1.3890
   61SAPC   H4Y 4801   3.364   4.348   7.065  0.2170 -0.0288 -2.0731
   61SAPC   C35 4802   3.376   4.236   6.904  1.3005  0.2493  0.0240
   61SAPC   H5X 4803   3.388   4.131   6.867  0.9959  0.0708  0.4203
   61SAPC   H5Y 4804   3.467   4.281   6.860  1.9288 -0.1618  0.8595
   61SAPC   C36 4805   3.247   4.279   6.834  0.7495 -0.5876 -0.0340
   61SAPC   H6X 4806   3.222   4.383   6.863  0.1362 -0.5155 -0.7904
   61SAPC   H6Y 4807   3.156   4.219   6.858 -1.8143  2.5954 -1.0912
   61SAPC   C37 4808   3.264   4.288   6.685 -0.0544 -0.0714  0.2035
   61SAPC   H7X 4809   3.339   4.365   6.660  0.3706 -0.8543 -1.0225
   61SAPC   H7Y 4810   3.166   4.313   6.639 -0.6017 -2.7431 -0.2795
   61SAPC   C38 4811   3.301   4.155   6.618  0.5362  1.1281  0.0538
   61SAPC   H8X 4812   3.225   4.075   6.632  0.4828  0.9002 -1.4089
   61SAPC   H8Y 4813   3.394   4.105   6.653 -0.0404 -1.2845 -1.6158
   61SAPC   C39 4814   3.309   4.167   6.461  0.6326 -0.3323  0.5182
   61SAPC   H9X 4815   3.393   4.237   6.442 -0.9144  1.1979 -1.0798
   61SAPC   H9Y 4816   3.217   4.227   6.442  1.0136  0.1348  0.1311
   61SAPC  C310 4817   3.318   4.035   6.392  0.1482 -0.5498 -0.1800
   61SAPC  H10X 4818   3.230   3.970   6.414 -0.6355  0.2690 -0.8431
   61SAPC  H10Y 4819   3.402   3.985   6.445  0.4718  0.0087 -0.1675
   61SAPC  C311 4820   3.329   4.045   6.240 -0.9578  0.1593 -0.4503
   61SAPC  H11X 4821   3.419   4.111   6.230 -1.8996  1.7651  1.1490
   61SAPC  H11Y 4822   3.245   4.109   6.206 -0.4036  0.5307 -1.1570
   61SAPC  C312 4823   3.353   3.917   6.162  0.6285 -0.3867 -0.1874
   61SAPC  H12X 4824   3.265   3.854   6.188  2.5760 -2.3597  2.1900
   61SAPC  H12Y 4825   3.437   3.867   6.215  0.7584 -1.5218 -1.4039
   61SAPC  C313 4826   3.365   3.923   6.013  0.0487  0.1719  0.8520
   61SAPC  H13X 4827   3.382   3.824   5.964  1.6195  1.4024 -1.2738
   61SAPC  H13Y 4828   3.455   3.983   5.986  1.1284 -0.6307  2.4966
   61SAPC  C314 4829   3.245   3.998   5.947  0.4257  1.3465  0.1734
   61SAPC  H14X 4830   3.230   4.096   5.997  1.2943  1.5425  0.0730
   61SAPC  H14Y 4831   3.157   3.933   5.968  0.2152  1.3013 -0.8313
   61SAPC  C315 4832   3.252   4.031   5.795 -0.1394 -0.1455 -0.8463
   61SAPC  H15X 4833   3.341   4.096   5.780  0.6950 -1.3424 -1.1981
   61SAPC  H15Y 4834   3.157   4.086   5.778  1.4998  2.7731 -1.3818
   61SAPC  C316 4835   3.259   3.912   5.703 -0.0213 -0.0937  0.6372
   61SAPC  H16X 4836   3.172   3.849   5.730  2.1456 -2.7024  2.0451
   61SAPC  H16Y 4837   3.350   3.849   5.702 -1.2807 -2.0437 -0.9694
   61SAPC  C317 4838   3.250   3.961   5.559  0.4292 -0.3845 -0.4160
   61SAPC  H17X 4839   3.204   4.062   5.558  1.6270  0.1807 -0.4999
   61SAPC  H17Y 4840   3.180   3.897   5.501  0.1134  0.0701 -0.5397
   61SAPC  C318 4841   3.385   3.981   5.492  0.2696 -0.1615 -0.1441
   61SAPC  H18X 4842   3.433   4.057   5.557  1.2624  1.1655 -2.2963
   61SAPC  H18Y 4843   3.373   4.025   5.391 -0.3152 -0.8584 -0.3833
   61SAPC  H18Z 4844   3.440   3.885   5.499 -0.2763 -0.3672  1.7770
   62SAPC     N 4845   1.456   4.516   7.361  0.2318 -0.0073 -0.1383
   62SAPC   C12 4846   1.545   4.484   7.240  0.3037  0.0859  0.1722
   62SAPC  H12A 4847   1.477   4.494   7.157 -0.0902 -1.5988  0.2487
   62SAPC  H12B 4848   1.570   4.379   7.242  0.4278  0.0052 -2.2893
   62SAPC   C13 4849   1.419   4.658   7.345 -0.0175  0.4528  0.2723
   62SAPC  H13A 4850   1.343   4.668   7.268 -0.8864 -0.4076  0.9980
   62SAPC  H13B 4851   1.366   4.686   7.434 -0.6603 -0.2385  0.1170
   62SAPC  H13C 4852   1.504   4.721   7.323  0.8003 -1.5031 -2.9030
   62SAPC   C14 4853   1.334   4.430   7.372 -0.0910 -0.3288 -0.0604
   62SAPC  H14A 4854   1.358   4.328   7.398 -3.5423 -1.5973 -1.2429
   62SAPC  H14B 4855   1.273   4.467   7.453  0.8752  1.5947 -0.1628
   62SAPC  H14C 4856   1.279   4.417   7.280  1.5245 -2.1515 -0.8254
   62SAPC   C15 4857   1.538   4.512   7.486  1.0623 -1.1453  0.6938
   62SAPC  H15A 4858   1.617   4.585   7.484  0.5451 -0.5800 -0.2010
   62SAPC  H15B 4859   1.474   4.538   7.569 -0.2238 -0.0772 -0.5681
   62SAPC  H15C 4860   1.585   4.417   7.506 -0.0615 -1.3902  2.4262
   62SAPC   C11 4861   1.682   4.545   7.209  0.3105 -0.0578  0.3726
   62SAPC  H11A 4862   1.675   4.652   7.177  2.8181 -0.2936 -1.2781
   62SAPC  H11B 4863   1.711   4.489   7.118 -1.7492  0.2852 -0.5501
   62SAPC     P 4864   1.863   4.401   7.331 -0.4880  0.1863 -0.1517
   62SAPC   O13 4865   1.954   4.428   7.443  0.4341 -0.2960 -0.7079
   62SAPC   O14 4866   1.790   4.275   7.332  0.3554 -0.6148 -0.0967
   62SAPC   O12 4867   1.774   4.527   7.319 -0.0240  0.2723  0.1593
   62SAPC   O11 4868   1.948   4.412   7.197 -0.4414 -0.6906 -0.4090
   62SAPC    C1 4869   2.043   4.515   7.180 -0.4407 -0.9924  0.9790
   62SAPC    HA 4870   2.010   4.613   7.219  1.0161 -0.4157  0.8281
   62SAPC    HB 4871   2.139   4.492   7.230  0.3472  2.0654  1.0811
   62SAPC    C2 4872   2.081   4.531   7.033 -0.1975  0.4937 -0.0119
   62SAPC    HS 4873   2.135   4.628   7.023  1.3503 -0.5230 -2.3190
   62SAPC   O21 4874   1.970   4.529   6.945 -0.6337 -0.0934 -0.1985
   62SAPC   C21 4875   1.893   4.636   6.958  0.5038 -1.0364 -0.3922
   62SAPC   O22 4876   1.916   4.732   7.028 -0.2479 -0.5343 -0.0099
   62SAPC   C22 4877   1.782   4.634   6.850 -0.9582  0.1716  0.4842
   62SAPC   H2R 4878   1.697   4.570   6.883 -0.8501 -0.3021 -0.1412
   62SAPC   H2S 4879   1.739   4.736   6.841  0.7816  0.8605 -0.5127
   62SAPC    C3 4880   2.189   4.425   6.993 -0.4939  0.1048 -0.1757
   62SAPC    HX 4881   2.157   4.321   7.017 -2.2208  0.3086 -1.3528
   62SAPC    HY 4882   2.274   4.432   7.064 -0.2571 -2.8575 -0.0597
   62SAPC   O31 4883   2.226   4.443   6.853 -0.0806  0.4854  0.1167
   62SAPC   C31 4884   2.158   4.365   6.768 -0.0677  0.0501  0.6999
   62SAPC   O32 4885   2.072   4.279   6.801 -0.3006  0.5403  0.5054
   62SAPC   C32 4886   2.215   4.388   6.630  0.1105 -0.4818 -0.1204
   62SAPC   H2X 4887   2.229   4.287   6.586 -3.8404 -0.5845 -1.5459
   62SAPC   H2Y 4888   2.312   4.443   6.633  0.0722 -0.3482 -1.0212
   62SAPC   C23 4889   1.828   4.589   6.708 -0.3937  0.4097 -0.1226
   62SAPC   H3R 4890   1.883   4.493   6.714  0.0024  0.5548 -1.2437
   62SAPC   H3S 4891   1.891   4.666   6.658  0.6244 -2.3634 -3.4369
   62SAPC   C24 4892   1.712   4.553   6.619  1.0562 -0.1242 -0.1681
   62SAPC   H4R 4893   1.643   4.484   6.672  0.2339  0.4905 -0.4232
   62SAPC   H4S 4894   1.730   4.485   6.534 -1.2671 -0.6849 -0.2571
   62SAPC   C25 4895   1.625   4.675   6.573  0.1952  0.5324 -0.2687
   62SAPC   H5R 4896   1.553   4.706   6.650 -0.6720 -0.5081 -0.6355
   62SAPC   C26 4897   1.625   4.748   6.460 -0.1199 -0.5793  0.3508
   62SAPC   H6R 4898   1.546   4.820   6.432 -0.3364 -1.2051 -0.6848
   62SAPC   C27 4899   1.723   4.716   6.347  0.2963 -0.8523  0.7927
   62SAPC   H7R 4900   1.722   4.606   6.331 -1.3868 -0.8506  0.7245
   62SAPC   H7S 4901   1.822   4.745   6.389 -0.3881  1.4931  0.9366
   62SAPC   C28 4902   1.713   4.789   6.213  0.6310 -0.7827 -0.3226
   62SAPC   H8R 4903   1.759   4.888   6.207  0.9276 -0.8282  0.8453
   62SAPC   C29 4904   1.692   4.735   6.094 -0.5928 -0.4051 -0.3826
   62SAPC   H9R 4905   1.710   4.794   6.003 -0.2707 -1.5490 -1.0751
   62SAPC  C210 4906   1.658   4.594   6.068 -0.9463 -0.0763 -0.1009
   62SAPC  H10R 4907   1.715   4.521   6.130  0.5100  0.3390 -0.8908
   62SAPC  H10S 4908   1.673   4.564   5.962  0.1941  1.7497 -0.5014
   62SAPC  C211 4909   1.510   4.595   6.095 -0.2373 -0.2802 -0.1107
   62SAPC  H11R 4910   1.474   4.649   6.184 -1.3129 -0.7052 -0.2692
   62SAPC  C212 4911   1.421   4.519   6.034 -0.3583  0.5509  0.3697
   62SAPC  H12R 4912   1.319   4.534   6.072 -0.4840  0.5139  0.0491
   62SAPC  C213 4913   1.438   4.425   5.917 -0.0086 -0.5037 -0.7420
   62SAPC  H13R 4914   1.534   4.370   5.926  0.8810  0.9210 -1.2123
   62SAPC  H13S 4915   1.447   4.471   5.816 -3.0798  1.4659 -0.2727
   62SAPC  C214 4916   1.318   4.332   5.921 -0.3513  0.2835 -0.2897
   62SAPC  H14R 4917   1.299   4.280   6.017 -1.8707 -0.9862 -1.2295
   62SAPC  C215 4918   1.237   4.313   5.811 -0.8707 -0.5293 -0.0455
   62SAPC  H15R 4919   1.157   4.238   5.820 -1.2962 -0.2047 -0.9186
   62SAPC  C216 4920   1.260   4.367   5.670  0.2236 -0.7987 -0.1244
   62SAPC  H16R 4921   1.304   4.469   5.665  1.8762 -1.5361 -2.2246
   62SAPC  H16S 4922   1.167   4.374   5.610  1.0035 -0.5382 -1.3375
   62SAPC  C217 4923   1.356   4.272   5.599 -0.1817  0.3587  1.0254
   62SAPC  H17R 4924   1.310   4.172   5.592  1.3970 -0.2881 -1.4919
   62SAPC  H17S 4925   1.449   4.262   5.660 -0.4686 -2.6574  1.1246
   62SAPC  C218 4926   1.396   4.312   5.455 -0.3242 -0.3951  0.4032
   62SAPC  H18R 4927   1.451   4.409   5.454  0.8314 -1.0083  1.5558
   62SAPC  H18S 4928   1.305   4.327   5.393 -1.2505 -2.0809  1.2928
   62SAPC  C219 4929   1.490   4.205   5.391 -0.3782 -1.0116  0.6780
   62SAPC  H19R 4930   1.447   4.102   5.389  0.5682 -1.4130  0.1327
   62SAPC  H19S 4931   1.591   4.199   5.436  0.5063  0.0087 -1.0541
   62SAPC  C220 4932   1.520   4.238   5.241  0.4019  0.5325 -0.1955
   62SAPC  H20R 4933   1.588   4.159   5.204 -0.1314  0.0006 -0.0479
   62SAPC  H20S 4934   1.569   4.338   5.233  0.9791  0.2248 -0.4814
   62SAPC  H20T 4935   1.420   4.241   5.193 -0.6181  2.3311  1.8358
   62SAPC   C33 4936   2.121   4.468   6.544 -0.8098 -0.8048  0.2443
   62SAPC   H3X 4937   2.083   4.560   6.593 -0.1203 -0.4936  0.2036
   62SAPC   H3Y 4938   2.026   4.414   6.524 -1.2631  0.6711 -1.9601
   62SAPC   C34 4939   2.183   4.488   6.408 -0.4406 -0.5448  0.2422
   62SAPC   H4X 4940   2.231   4.395   6.371  1.3601  1.0936 -1.7936
   62SAPC   H4Y 4941   2.265   4.563   6.407 -1.4219  0.5641 -1.4071
   62SAPC   C35 4942   2.079   4.513   6.291 -0.1657  0.7044 -0.1844
   62SAPC   H5X 4943   2.015   4.598   6.322 -2.2748 -1.1503  0.7747
   62SAPC   H5Y 4944   2.019   4.421   6.274 -1.1296  1.2967 -0.0325
   62SAPC   C36 4945   2.150   4.558   6.156 -0.3135 -0.1505 -0.6203
   62SAPC   H6X 4946   2.231   4.492   6.120  0.0185  0.4741 -1.0412
   62SAPC   H6Y 4947   2.201   4.656   6.169 -1.9301  0.6294  0.1926
   62SAPC   C37 4948   2.053   4.581   6.039  0.3413  1.3227  0.6557
   62SAPC   H7X 4949   2.116   4.605   5.951  0.4338 -0.1874  0.2700
   62SAPC   H7Y 4950   1.984   4.667   6.050  0.2813  1.3958 -0.2087
   62SAPC   C38 4951   1.965   4.454   5.986  0.2157 -0.2870 -0.8112
   62SAPC   H8X 4952   1.884   4.432   6.059 -0.8155  0.1071 -1.8158
   62SAPC   H8Y 4953   2.035   4.368   5.981  1.2717  0.3007  1.8381
   62SAPC   C39 4954   1.894   4.478   5.854 -0.2068 -0.3546  0.4725
   62SAPC   H9X 4955   1.874   4.587   5.851  3.2503  0.3719 -0.4059
   62SAPC   H9Y 4956   1.804   4.415   5.838  0.9428 -2.6175  2.3156
   62SAPC  C310 4957   1.984   4.452   5.734  0.5883  0.7745 -0.7215
   62SAPC  H10X 4958   2.012   4.345   5.727  0.2631  0.2943  3.1331
   62SAPC  H10Y 4959   2.074   4.517   5.741  1.2853 -0.3109  1.1613
   62SAPC  C311 4960   1.915   4.501   5.605  1.0460  0.4299 -0.8726
   62SAPC  H11X 4961   1.861   4.597   5.620 -0.3230 -0.3154 -0.9139
   62SAPC  H11Y 4962   1.840   4.429   5.566  1.2860 -0.9311  1.0167
   62SAPC  C312 4963   2.010   4.540   5.495  0.0292  0.5788  0.4612
   62SAPC  H12X 4964   2.093   4.467   5.489  0.4694  1.1672 -1.3314
   62SAPC  H12Y 4965   2.063   4.634   5.524  2.2291 -0.9130  1.5619
   62SAPC  C313 4966   1.950   4.556   5.356  0.0959 -0.2938 -0.6421
   62SAPC  H13X 4967   1.936   4.665   5.336 -1.3160 -0.4894 -0.7875
   62SAPC  H13Y 4968   1.855   4.499   5.356  0.9585 -1.7860  0.7231
   62SAPC  C314 4969   2.051   4.517   5.239  0.3074 -0.3426 -0.0145
   62SAPC  H14X 4970   2.081   4.412   5.259 -0.2349  0.0899  3.8275
   62SAPC  H14Y 4971   2.137   4.587   5.242 -2.2368  3.0062  0.1589
   62SAPC  C315 4972   1.973   4.520   5.104  0.2506 -0.7429 -0.4231
   62SAPC  H15X 4973   1.894   4.443   5.093 -2.3473  1.9521 -2.1353
   62SAPC  H15Y 4974   2.035   4.502   5.014 -0.0226  0.9646 -0.9890
   62SAPC  C316 4975   1.905   4.658   5.079  0.3012  0.4294  0.7837
   62SAPC  H16X 4976   1.995   4.724   5.081  1.7267 -1.4256  0.8738
   62SAPC  H16Y 4977   1.839   4.694   5.161  0.7074  0.5268  1.0742
   62SAPC  C317 4978   1.846   4.671   4.938  0.1548  0.4689 -0.6597
   62SAPC  H17X 4979   1.761   4.742   4.946  0.6391  0.9901 -0.0561
   62SAPC  H17Y 4980   1.818   4.568   4.906 -0.8105 -0.3989  2.6640
   62SAPC  C318 4981   1.930   4.747   4.832  0.5091 -0.6459 -0.6597
   62SAPC  H18X 4982   2.027   4.694   4.819 -0.7348 -2.7377 -1.9614
   62SAPC  H18Y 4983   1.953   4.851   4.863 -1.2763 -0.1037 -1.0732
   62SAPC  H18Z 4984   1.885   4.744   4.731  0.9276  3.1528 -1.0873
   63SAPC     N 4985   1.711   0.010   6.869 -0.3294  0.0601 -0.7075
   63SAPC   C12 4986   1.821   0.061   6.971  0.6003  0.2905  0.4107
   63SAPC  H12A 4987   1.900  -0.011   6.986 -0.5389 -1.0043  0.3968
   63SAPC  H12B 4988   1.777   0.071   7.069 -0.8260  0.6197 -0.2442
   63SAPC   C13 4989   1.597   0.105   6.845  0.0042  0.0290  0.4676
   63SAPC  H13A 4990   1.636   0.206   6.835  4.9752 -1.6167  0.6121
   63SAPC  H13B 4991   1.530   0.077   6.765 -1.0608 -2.8044  2.2183
   63SAPC  H13C 4992   1.543   0.113   6.939 -0.2341  2.1562  0.2031
   63SAPC   C14 4993   1.788  -0.011   6.741 -0.4470  0.0658 -0.6640
   63SAPC  H14A 4994   1.721  -0.024   6.658  0.3817  1.0900 -1.5238
   63SAPC  H14B 4995   1.845   0.080   6.725 -0.5388  0.5376  1.4500
   63SAPC  H14C 4996   1.855  -0.096   6.744 -1.6679 -0.9082  0.7036
   63SAPC   C15 4997   1.640  -0.109   6.909 -1.3648 -0.4040 -0.3088
   63SAPC  H15A 4998   1.572  -0.087   6.991  1.5528 -1.5087  2.6532
   63SAPC  H15B 4999   1.593  -0.150   6.821  0.1451 -4.2984  0.4749
   63SAPC  H15C 5000   1.712  -0.185   6.935 -0.8745  0.3712  0.6945
   63SAPC   C11 5001   1.889   0.200   6.932 -0.0858  0.3973 -0.6395
   63SAPC  H11A 5002   1.948   0.223   7.024 -0.7094 -1.5152  0.3130
   63SAPC  H11B 5003   1.809   0.277   6.927 -0.9647 -0.5668 -4.4658
   63SAPC     P 5004   2.124   0.141   6.822 -0.1251 -0.1504  0.0635
   63SAPC   O13 5005   2.198   0.255   6.885 -0.1713 -0.0955  0.2863
   63SAPC   O14 5006   2.124   0.015   6.896 -0.3611  0.4151  0.0115
   63SAPC   O12 5007   1.975   0.204   6.810  0.7416  0.2743  0.3022
   63SAPC   O11 5008   2.182   0.108   6.677  0.2896 -0.2956  0.7109
   63SAPC    C1 5009   2.317   0.067   6.666 -0.0940  0.2011 -0.2767
   63SAPC    HA 5010   2.360   0.012   6.753 -2.9404  1.3938  2.0489
   63SAPC    HB 5011   2.332  -0.009   6.586 -0.1026  0.8906 -0.9440
   63SAPC    C2 5012   2.410   0.186   6.629  1.0268  0.2881  0.2658
   63SAPC    HS 5013   2.392   0.268   6.702  0.0786 -0.9254  1.4529
   63SAPC   O21 5014   2.372   0.234   6.502  0.7284 -0.3112  0.6820
   63SAPC   C21 5015   2.273   0.312   6.489  0.7019  0.4319 -0.2078
   63SAPC   O22 5016   2.213   0.360   6.584  0.4961 -0.3024 -0.2147
   63SAPC   C22 5017   2.248   0.351   6.348 -0.1459 -0.4482 -0.3573
   63SAPC   H2R 5018   2.338   0.377   6.289  0.4556  2.4979  1.6207
   63SAPC   H2S 5019   2.207   0.259   6.300  0.4731 -0.1902 -1.4068
   63SAPC    C3 5020   2.562   0.153   6.639 -0.8217 -0.5122  0.3589
   63SAPC    HX 5021   2.588   0.141   6.747 -1.2665 -1.1616  0.3995
   63SAPC    HY 5022   2.619   0.240   6.598  0.1095 -1.3142 -0.0953
   63SAPC   O31 5023   2.577   0.024   6.582 -0.2001  0.6169 -0.4007
   63SAPC   C31 5024   2.657   0.006   6.478 -0.1287  0.3360 -0.1455
   63SAPC   O32 5025   2.732   0.087   6.432  0.4677 -0.0231 -0.3851
   63SAPC   C32 5026   2.641  -0.141   6.427 -0.0606 -0.0742  0.0334
   63SAPC   H2X 5027   2.543  -0.141   6.375  0.3822  0.2461 -0.8201
   63SAPC   H2Y 5028   2.648  -0.211   6.513 -0.8830 -0.9646 -0.5965
   63SAPC   C23 5029   2.136   0.460   6.338  0.1211  0.1859  0.1481
   63SAPC   H3R 5030   2.185   0.551   6.378 -0.4053  0.2310  0.7269
   63SAPC   H3S 5031   2.049   0.436   6.404 -0.1431 -2.0769 -0.9331
   63SAPC   C24 5032   2.096   0.479   6.188  0.3915 -0.7556  1.3132
   63SAPC   H4R 5033   2.191   0.462   6.134 -0.8744 -0.2988 -1.1984
   63SAPC   H4S 5034   2.075   0.588   6.186  3.5554 -0.0729 -0.0784
   63SAPC   C25 5035   1.982   0.385   6.134 -0.2509  0.6162 -0.5169
   63SAPC   H5R 5036   1.993   0.286   6.180  2.0836  1.5173  1.0778
   63SAPC   C26 5037   1.866   0.418   6.077 -0.3698 -0.1436  0.2059
   63SAPC   H6R 5038   1.790   0.346   6.043 -1.2632  0.5535  0.6822
   63SAPC   C27 5039   1.833   0.549   6.008  0.0585 -0.0627  0.2111
   63SAPC   H7R 5040   1.866   0.545   5.902 -0.4401 -1.4781  0.0966
   63SAPC   H7S 5041   1.881   0.643   6.044 -0.8840  1.0529 -1.2769
   63SAPC   C28 5042   1.684   0.568   6.007  0.1221  0.1145 -0.3923
   63SAPC   H8R 5043   1.643   0.627   6.090 -0.5419 -1.5286  0.5049
   63SAPC   C29 5044   1.604   0.521   5.906  0.3439 -0.5055 -0.7703
   63SAPC   H9R 5045   1.496   0.538   5.915  0.5623  0.4114  0.3734
   63SAPC  C210 5046   1.645   0.440   5.787  0.3285  0.3846  0.1333
   63SAPC  H10R 5047   1.564   0.368   5.760  0.9241  0.4671 -2.1479
   63SAPC  H10S 5048   1.737   0.383   5.810 -0.1989 -1.3836 -1.7628
   63SAPC  C211 5049   1.658   0.527   5.666 -0.3296 -0.2279  0.0324
   63SAPC  H11R 5050   1.584   0.606   5.651  1.1911  1.1889 -0.2788
   63SAPC  C212 5051   1.749   0.517   5.566  0.3761 -0.2212  0.2809
   63SAPC  H12R 5052   1.751   0.595   5.489 -1.4069 -1.6413 -1.3185
   63SAPC  C213 5053   1.851   0.403   5.545 -0.9541  0.1956  0.2652
   63SAPC  H13R 5054   1.803   0.308   5.511  0.4160 -0.7007  0.7084
   63SAPC  H13S 5055   1.890   0.366   5.642 -0.3040 -2.2402 -0.8370
   63SAPC  C214 5056   1.961   0.433   5.441 -0.3321  0.9483 -0.3387
   63SAPC  H14R 5057   1.930   0.454   5.338  1.1020  0.2279 -0.9463
   63SAPC  C215 5058   2.095   0.431   5.469 -0.1025 -0.1061 -0.3733
   63SAPC  H15R 5059   2.170   0.454   5.392  0.3665  1.3139  0.4692
   63SAPC  C216 5060   2.145   0.404   5.609  0.0180 -0.0704  0.0838
   63SAPC  H16R 5061   2.150   0.295   5.629 -0.8695 -0.0740  0.3146
   63SAPC  H16S 5062   2.077   0.441   5.689  0.3937 -0.7761  0.7409
   63SAPC  C217 5063   2.275   0.464   5.645 -0.1597 -0.8842  0.0320
   63SAPC  H17R 5064   2.274   0.575   5.641  0.6410 -0.7856  1.7158
   63SAPC  H17S 5065   2.351   0.435   5.569  1.9120  0.3784  1.5081
   63SAPC  C218 5066   2.327   0.428   5.780 -0.3777 -0.1551  0.0836
   63SAPC  H18R 5067   2.316   0.318   5.781 -0.1192 -0.2771 -2.5691
   63SAPC  H18S 5068   2.264   0.477   5.857  1.4587  0.8715  1.0256
   63SAPC  C219 5069   2.475   0.463   5.792 -0.6672 -0.0938 -0.3592
   63SAPC  H19R 5070   2.494   0.571   5.777 -2.5059  0.3558  0.3241
   63SAPC  H19S 5071   2.532   0.401   5.720  0.3614 -0.0743  0.4070
   63SAPC  C220 5072   2.529   0.425   5.930  0.1767  0.0705  0.2595
   63SAPC  H20R 5073   2.504   0.318   5.950  0.6343 -0.1468 -0.2730
   63SAPC  H20S 5074   2.485   0.488   6.010 -0.6440  0.6783 -0.6535
   63SAPC  H20T 5075   2.640   0.432   5.935  0.1834 -0.6567  1.4423
   63SAPC   C33 5076   2.753  -0.186   6.332 -0.7159  0.6699  0.6634
   63SAPC   H3X 5077   2.853  -0.190   6.382 -2.1844  0.4227  3.7994
   63SAPC   H3Y 5078   2.756  -0.107   6.253  0.9960 -0.4545 -0.4842
   63SAPC   C34 5079   2.699  -0.318   6.262 -0.4864  0.5566 -0.7152
   63SAPC   H4X 5080   2.589  -0.331   6.275 -0.2256 -0.4389  0.6889
   63SAPC   H4Y 5081   2.735  -0.413   6.307 -2.1720 -0.4510 -1.3575
   63SAPC   C35 5082   2.717  -0.320   6.108  0.1259 -0.4688  0.3578
   63SAPC   H5X 5083   2.679  -0.226   6.064 -0.5268 -1.3906 -1.1087
   63SAPC   H5Y 5084   2.649  -0.399   6.071  1.2927 -0.9553 -0.8196
   63SAPC   C36 5085   2.855  -0.368   6.060  0.5159 -0.1989 -0.3953
   63SAPC   H6X 5086   2.884  -0.464   6.106  2.7499  1.1575  1.2306
   63SAPC   H6Y 5087   2.933  -0.302   6.104 -1.7884  2.0161  0.7083
   63SAPC   C37 5088   2.864  -0.386   5.908 -0.3972  0.4920  0.7604
   63SAPC   H7X 5089   2.777  -0.445   5.874  0.0806 -0.0563  0.4666
   63SAPC   H7Y 5090   2.949  -0.450   5.877 -0.8760  1.3142 -2.7041
   63SAPC   C38 5091   2.872  -0.258   5.820 -0.0872 -0.4692 -0.1588
   63SAPC   H8X 5092   2.932  -0.185   5.879 -0.2723  0.2912 -0.8865
   63SAPC   H8Y 5093   2.772  -0.217   5.795 -0.6448 -0.9276  1.2536
   63SAPC   C39 5094   2.955  -0.272   5.689  0.6952 -0.9768 -0.4780
   63SAPC   H9X 5095   2.937  -0.375   5.652 -1.1020 -1.1133  0.6540
   63SAPC   H9Y 5096   3.061  -0.252   5.714  0.4990 -0.2411 -0.1997
   63SAPC  C310 5097   2.912  -0.172   5.576 -0.1349 -0.0961  0.2612
   63SAPC  H10X 5098   2.882  -0.074   5.618  0.2178  0.5890 -1.0565
   63SAPC  H10Y 5099   2.816  -0.211   5.537 -1.0937  2.0715  0.3544
   63SAPC  C311 5100   3.024  -0.162   5.471 -0.6129 -0.7119 -0.5583
   63SAPC  H11X 5101   3.112  -0.116   5.521 -0.6875 -0.0966 -0.9783
   63SAPC  H11Y 5102   2.995  -0.091   5.390  0.6887  2.7422  1.7839
   63SAPC  C312 5103   3.062  -0.297   5.407 -0.2820  0.1880  0.4866
   63SAPC  H12X 5104   2.966  -0.352   5.393  0.1203 -0.1434 -1.1861
   63SAPC  H12Y 5105   3.122  -0.346   5.486 -1.2273 -0.5892  0.7401
   63SAPC  C313 5106   3.138  -0.287   5.272  0.6046  0.1211 -0.2956
   63SAPC  H13X 5107   3.199  -0.380   5.275  1.2178  0.5169 -0.1559
   63SAPC  H13Y 5108   3.217  -0.209   5.261 -2.0047  2.9728  0.0066
   63SAPC  C314 5109   3.052  -0.280   5.150  0.7533 -0.3256  0.9825
   63SAPC  H14X 5110   2.967  -0.214   5.177  0.0282 -0.4317 -0.8798
   63SAPC  H14Y 5111   3.013  -0.383   5.135  0.5523 -0.4344  2.1818
   63SAPC  C315 5112   3.133  -0.230   5.030 -0.2644 -0.4234 -0.5886
   63SAPC  H15X 5113   3.228  -0.287   5.013 -0.7209 -0.9319 -1.5024
   63SAPC  H15Y 5114   3.155  -0.127   5.063  1.4439 -0.9752  0.1510
   63SAPC  C316 5115   3.044  -0.227   4.911  0.8875 -0.1507 -0.1343
   63SAPC  H16X 5116   2.967  -0.148   4.928  0.5744 -0.1475 -1.4054
   63SAPC  H16Y 5117   2.992  -0.325   4.911 -0.7327  0.6623  1.1894
   63SAPC  C317 5118   3.125  -0.204   4.782  0.2858  0.0779 -0.2248
   63SAPC  H17X 5119   3.209  -0.277   4.778 -0.0236 -0.5376  2.6692
   63SAPC  H17Y 5120   3.186  -0.111   4.785 -0.0420  0.3779 -1.6918
   63SAPC  C318 5121   3.054  -0.220   4.650 -0.1158  0.0310  0.8402
   63SAPC  H18X 5122   2.959  -0.163   4.642 -1.3002 -2.1654 -2.7096
   63SAPC  H18Y 5123   3.018  -0.324   4.638 -0.5545  0.1966  0.7139
   63SAPC  H18Z 5124   3.131  -0.199   4.573 -1.9247  0.0855 -1.0241
   64SAPC     N 5125   1.199   2.891   6.992 -0.0600 -0.2747  0.6678
   64SAPC   C12 5126   1.085   2.785   6.981  0.6619 -0.3239  0.1202
   64SAPC  H12A 5127   0.994   2.816   7.031  0.5340 -0.2810 -0.1371
   64SAPC  H12B 5128   1.126   2.704   7.040  1.3411  0.3339  0.5528
   64SAPC   C13 5129   1.132   3.025   6.961 -0.1295  0.3743 -0.5914
   64SAPC  H13A 5130   1.076   3.009   6.870  0.5365 -0.0393 -0.9356
   64SAPC  H13B 5131   1.074   3.062   7.044  0.9489  1.5377 -0.3230
   64SAPC  H13C 5132   1.206   3.103   6.948 -0.0330  0.3806 -0.0153
   64SAPC   C14 5133   1.270   2.889   7.126  0.6374 -0.7357  0.5027
   64SAPC  H14A 5134   1.337   2.973   7.129  0.4155 -0.5378 -0.0627
   64SAPC  H14B 5135   1.197   2.908   7.204 -0.7550 -0.4920 -0.8221
   64SAPC  H14C 5136   1.329   2.800   7.139  0.5193 -0.5755  2.6261
   64SAPC   C15 5137   1.297   2.860   6.882 -0.1087  0.3756 -0.3074
   64SAPC  H15A 5138   1.249   2.874   6.786  0.7103  2.0322 -0.5122
   64SAPC  H15B 5139   1.383   2.925   6.883  0.8696 -0.7767 -2.4951
   64SAPC  H15C 5140   1.320   2.754   6.884  0.1996  0.4497  0.0822
   64SAPC   C11 5141   1.053   2.723   6.843  0.4442 -1.0672 -0.1243
   64SAPC  H11A 5142   0.971   2.649   6.854 -0.8055  0.2564 -0.2250
   64SAPC  H11B 5143   1.136   2.664   6.798  1.3958 -1.1750  1.6687
   64SAPC     P 5144   0.882   2.876   6.743  0.2987  0.1793 -0.0320
   64SAPC   O13 5145   0.817   2.828   6.621 -0.7160  0.6783 -0.2756
   64SAPC   O14 5146   0.808   2.847   6.868  0.0819 -0.6490 -0.1156
   64SAPC   O12 5147   1.028   2.826   6.749 -0.3968  0.1464  0.3396
   64SAPC   O11 5148   0.899   3.032   6.734  0.1217  0.1223 -0.1062
   64SAPC    C1 5149   0.983   3.083   6.627 -0.6071  0.7455  0.0641
   64SAPC    HA 5150   1.085   3.103   6.665 -0.7342  1.7531 -0.0902
   64SAPC    HB 5151   1.001   3.019   6.539 -0.4326  1.6780 -0.5982
   64SAPC    C2 5152   0.926   3.218   6.568  0.0829  0.4659  0.7868
   64SAPC    HS 5153   0.996   3.253   6.489  0.1958  1.7417  1.4243
   64SAPC   O21 5154   0.917   3.326   6.672 -0.2825 -0.0720 -0.0705
   64SAPC   C21 5155   1.032   3.358   6.735  1.0891 -0.2695 -0.5360
   64SAPC   O22 5156   1.142   3.314   6.699 -0.0175  0.4631  0.5177
   64SAPC   C22 5157   1.011   3.460   6.855  0.7016  0.5409 -0.4211
   64SAPC   H2R 5158   0.930   3.431   6.925  0.5139 -1.6383 -1.4745
   64SAPC   H2S 5159   1.105   3.451   6.914 -0.0760 -1.6615  0.5690
   64SAPC    C3 5160   0.789   3.187   6.502 -0.0601 -0.9220  0.0810
   64SAPC    HX 5161   0.762   3.280   6.448  1.9058 -1.2051 -1.5309
   64SAPC    HY 5162   0.708   3.157   6.572  1.4688 -2.0852  1.4220
   64SAPC   O31 5163   0.806   3.080   6.401 -0.5596 -0.0214  0.4801
   64SAPC   C31 5164   0.708   3.048   6.330 -0.1690  0.3052 -0.1471
   64SAPC   O32 5165   0.609   3.112   6.308  0.8934 -0.1015 -0.2776
   64SAPC   C32 5166   0.720   2.907   6.272  1.0372 -0.5888  0.4920
   64SAPC   H2X 5167   0.653   2.900   6.185  2.8863 -3.7090 -0.8385
   64SAPC   H2Y 5168   0.685   2.832   6.346 -1.6750 -2.2382 -2.2625
   64SAPC   C23 5169   0.993   3.608   6.814  0.6014  0.1183 -0.3750
   64SAPC   H3R 5170   0.883   3.618   6.802  0.6461  1.0983  0.0025
   64SAPC   H3S 5171   1.031   3.629   6.711 -1.9108 -1.7860 -1.7912
   64SAPC   C24 5172   1.060   3.702   6.910  0.0090 -0.8678 -0.4541
   64SAPC   H4R 5173   1.168   3.674   6.913  0.2850  0.1870 -0.0430
   64SAPC   H4S 5174   1.015   3.687   7.010  0.7709 -1.1429 -0.1461
   64SAPC   C25 5175   1.047   3.848   6.872 -0.0529 -0.3763  0.7999
   64SAPC   H5R 5176   0.948   3.889   6.848 -0.0338  0.0659  1.4639
   64SAPC   C26 5177   1.149   3.939   6.863 -0.3032 -0.4670  0.1637
   64SAPC   H6R 5178   1.111   4.042   6.855 -0.9293 -0.5585  1.7309
   64SAPC   C27 5179   1.301   3.920   6.876  0.1629  0.0214  0.2765
   64SAPC   H7R 5180   1.337   3.837   6.812 -0.6097 -1.3552  1.5647
   64SAPC   H7S 5181   1.328   3.891   6.980  1.5787 -1.4489 -0.4700
   64SAPC   C28 5182   1.387   4.041   6.851  0.4792 -0.0275  0.8910
   64SAPC   H8R 5183   1.355   4.134   6.901  0.7770  0.9166 -0.6274
   64SAPC   C29 5184   1.506   4.050   6.783  0.6463 -0.1014 -0.1293
   64SAPC   H9R 5185   1.565   4.142   6.796 -1.0852  0.8100  1.7213
   64SAPC  C210 5186   1.580   3.937   6.708 -0.1421 -0.6124 -0.3278
   64SAPC  H10R 5187   1.548   3.952   6.602  2.2120 -0.9689 -1.1426
   64SAPC  H10S 5188   1.560   3.830   6.729 -0.7240 -1.0165 -2.6160
   64SAPC  C211 5189   1.729   3.953   6.700 -0.2826 -0.4377 -0.6804
   64SAPC  H11R 5190   1.786   3.880   6.757  0.1074  0.1551 -0.3028
   64SAPC  C212 5191   1.797   4.057   6.641  0.1673  0.4986 -0.8802
   64SAPC  H12R 5192   1.907   4.065   6.649  0.0081  1.9726  0.3503
   64SAPC  C213 5193   1.740   4.161   6.556 -0.0898  0.0973 -0.0336
   64SAPC  H13R 5194   1.773   4.258   6.600  1.4279 -0.0396 -0.8086
   64SAPC  H13S 5195   1.629   4.155   6.557 -0.0018 -2.6347 -0.7297
   64SAPC  C214 5196   1.795   4.168   6.419  0.1414 -0.0011  0.7544
   64SAPC  H14R 5197   1.902   4.147   6.402  1.2216  4.3572  0.9160
   64SAPC  C215 5198   1.736   4.236   6.313  0.1118  0.1071  0.2942
   64SAPC  H15R 5199   1.772   4.213   6.211 -1.0226 -0.5037  0.0175
   64SAPC  C216 5200   1.599   4.296   6.310 -0.0297  0.0517 -0.0053
   64SAPC  H16R 5201   1.601   4.383   6.241 -3.1201  0.4385  0.2515
   64SAPC  H16S 5202   1.575   4.315   6.417 -1.2813 -0.2483 -0.2173
   64SAPC  C217 5203   1.486   4.204   6.257 -1.7662  0.5372 -0.2232
   64SAPC  H17R 5204   1.511   4.162   6.158  1.3980  2.2791 -0.3071
   64SAPC  H17S 5205   1.397   4.269   6.245 -2.3603 -0.5488 -1.9082
   64SAPC  C218 5206   1.451   4.096   6.358  0.0628 -0.2539 -0.7033
   64SAPC  H18R 5207   1.443   4.145   6.457 -0.4713 -0.8436 -0.4437
   64SAPC  H18S 5208   1.523   4.011   6.355 -1.4124 -1.5596 -0.7233
   64SAPC  C219 5209   1.313   4.041   6.316 -0.6990  0.0478 -0.1962
   64SAPC  H19R 5210   1.331   3.985   6.221  1.6169 -0.0087  0.2146
   64SAPC  H19S 5211   1.234   4.118   6.301 -1.5928 -1.1442 -1.9958
   64SAPC  C220 5212   1.263   3.946   6.423  0.0376  0.0127  0.0920
   64SAPC  H20R 5213   1.162   3.914   6.389 -0.3217  1.0361  0.1467
   64SAPC  H20S 5214   1.242   3.996   6.520 -3.3687 -2.5114  0.8212
   64SAPC  H20T 5215   1.329   3.858   6.440  0.4412  0.0458 -1.1691
   64SAPC   C33 5216   0.862   2.876   6.232 -0.1007 -0.3219  0.5975
   64SAPC   H3X 5217   0.930   2.860   6.319  2.9946  1.8495 -1.2353
   64SAPC   H3Y 5218   0.906   2.963   6.178  0.9403 -1.6736 -0.8100
   64SAPC   C34 5219   0.866   2.757   6.133 -0.3305 -0.4654 -0.0078
   64SAPC   H4X 5220   0.790   2.685   6.171  0.7601 -0.9927  1.2321
   64SAPC   H4Y 5221   0.964   2.706   6.140 -0.0884 -0.2087 -1.3275
   64SAPC   C35 5222   0.857   2.802   5.984  0.3929  0.0102  0.2444
   64SAPC   H5X 5223   0.952   2.856   5.964  0.4204 -0.5153 -1.1807
   64SAPC   H5Y 5224   0.772   2.873   5.978  2.6757  2.9710  1.0405
   64SAPC   C36 5225   0.868   2.692   5.878 -0.8003  0.3395 -0.0234
   64SAPC   H6X 5226   0.773   2.635   5.869  0.9782 -2.8307 -0.3477
   64SAPC   H6Y 5227   0.951   2.625   5.909  0.6511  2.5118  1.0285
   64SAPC   C37 5228   0.902   2.752   5.744  0.0991 -0.1461  0.4731
   64SAPC   H7X 5229   1.008   2.785   5.746  0.0447  0.0129  0.9301
   64SAPC   H7Y 5230   0.840   2.843   5.730  0.1299  0.2906  2.7746
   64SAPC   C38 5231   0.896   2.649   5.628 -0.2712 -0.0380 -0.3937
   64SAPC   H8X 5232   0.801   2.592   5.636 -2.0095  2.5883 -1.1845
   64SAPC   H8Y 5233   0.976   2.572   5.630 -1.4534 -1.2775  0.1000
   64SAPC   C39 5234   0.914   2.711   5.490 -0.3929  0.0050 -0.7148
   64SAPC   H9X 5235   0.940   2.628   5.421 -0.1855 -1.7883  1.4151
   64SAPC   H9Y 5236   1.008   2.770   5.495 -0.7666  0.4897  1.1999
   64SAPC  C310 5237   0.799   2.796   5.432 -0.5235 -0.2463  0.6892
   64SAPC  H10X 5238   0.779   2.892   5.486 -0.7793  0.3719 -0.4788
   64SAPC  H10Y 5239   0.709   2.731   5.440 -0.5702 -0.2411  0.2065
   64SAPC  C311 5240   0.826   2.809   5.278  0.1714  0.2072 -0.4751
   64SAPC  H11X 5241   0.858   2.706   5.252  0.0125 -0.4651  1.8140
   64SAPC  H11Y 5242   0.912   2.879   5.280 -0.9776  1.8393 -2.9837
   64SAPC  C312 5243   0.702   2.855   5.203 -0.8841  0.6500  0.3835
   64SAPC  H12X 5244   0.688   2.959   5.242  2.3110  0.9474  1.0087
   64SAPC  H12Y 5245   0.614   2.792   5.226 -0.7247 -0.3467 -1.5440
   64SAPC  C313 5246   0.728   2.846   5.057 -0.7514 -0.2579  0.0063
   64SAPC  H13X 5247   0.734   2.740   5.025 -1.2999 -0.0720 -0.7362
   64SAPC  H13Y 5248   0.816   2.908   5.031  1.0770 -2.3947  0.7388
   64SAPC  C314 5249   0.609   2.894   4.969  0.3375 -0.1473  0.7679
   64SAPC  H14X 5250   0.516   2.842   4.999 -0.1936 -0.0013 -0.5205
   64SAPC  H14Y 5251   0.628   2.869   4.862 -1.0734  1.5039  0.0727
   64SAPC  C315 5252   0.585   3.044   4.971 -0.6820  0.3857 -0.5494
   64SAPC  H15X 5253   0.572   3.080   5.075  1.2374  0.4655 -0.2920
   64SAPC  H15Y 5254   0.495   3.078   4.917 -0.4288  1.4965 -0.2947
   64SAPC  C316 5255   0.699   3.118   4.913 -0.7695  0.3096 -0.6596
   64SAPC  H16X 5256   0.713   3.093   4.806 -0.2696  0.3045 -0.5986
   64SAPC  H16Y 5257   0.786   3.105   4.981 -1.6354  0.3890  0.4982
   64SAPC  C317 5258   0.677   3.268   4.923 -0.1354  0.5057 -0.3433
   64SAPC  H17X 5259   0.645   3.301   5.024 -3.3616 -0.6279 -0.8741
   64SAPC  H17Y 5260   0.593   3.300   4.858 -0.3396  1.5303  0.3904
   64SAPC  C318 5261   0.807   3.349   4.886  0.1881  0.3375 -0.1414
   64SAPC  H18X 5262   0.892   3.324   4.953 -2.1479 -0.2893  2.8095
   64SAPC  H18Y 5263   0.780   3.456   4.894 -1.3042 -0.1288  1.9570
   64SAPC  H18Z 5264   0.840   3.332   4.781  2.5832 -1.3753  0.7983
   65SAPC     N 5265   5.010   2.097   2.700 -0.0643  0.4576  0.2680
   65SAPC   C12 5266   5.142   2.061   2.632  0.8470  0.0230 -0.2512
   65SAPC  H12A 5267   5.189   2.145   2.582  1.5607 -0.7792 -0.9592
   65SAPC  H12B 5268   5.124   1.983   2.560 -0.9535 -0.4354  0.6496
   65SAPC   C13 5269   5.029   2.223   2.773  0.0599  0.0989  0.1100
   65SAPC  H13A 5270   4.936   2.274   2.797  0.7066  0.1127  2.9626
   65SAPC  H13B 5271   5.081   2.206   2.866 -1.6648  0.6840  1.2393
   65SAPC  H13C 5272   5.082   2.294   2.712 -1.5012  0.7190 -0.5947
   65SAPC   C14 5273   4.905   2.131   2.600 -0.6095  0.0440 -0.0808
   65SAPC  H14A 5274   4.902   2.046   2.533 -0.1743 -0.4615  0.5207
   65SAPC  H14B 5275   4.805   2.140   2.642 -0.3213 -0.4733  0.7548
   65SAPC  H14C 5276   4.930   2.222   2.547  1.2417  0.3089  1.1511
   65SAPC   C15 5277   4.964   1.982   2.781 -0.4205  0.4880  0.3711
   65SAPC  H15A 5278   4.915   1.908   2.720  0.1105  0.3935  0.0516
   65SAPC  H15B 5279   5.044   1.917   2.814 -0.0235  0.2704 -0.9709
   65SAPC  H15C 5280   4.890   2.013   2.853  0.0414 -1.9979  2.0275
   65SAPC   C11 5281   5.258   2.000   2.713 -0.4718 -0.6085  0.3080
   65SAPC  H11A 5282   5.239   1.901   2.758 -0.2448 -0.7862  0.0123
   65SAPC  H11B 5283   5.279   2.069   2.798 -0.9048 -1.5443  1.1912
   65SAPC     P 5284   5.371   1.869   2.519  0.1475  0.2668  0.1446
   65SAPC   O13 5285   5.240   1.871   2.452 -0.2387 -0.5295 -0.3500
   65SAPC   O14 5286   5.492   1.878   2.434 -0.2888  0.2420  0.1131
   65SAPC   O12 5287   5.365   1.984   2.623 -0.1592 -0.1601 -0.2055
   65SAPC   O11 5288   5.394   1.737   2.602  0.5389  0.2562 -0.6379
   65SAPC    C1 5289   5.283   1.643   2.626 -0.5673 -0.4266  0.5159
   65SAPC    HA 5290   5.184   1.667   2.580  0.3075  1.1495 -0.6161
   65SAPC    HB 5291   5.306   1.544   2.581  0.2021 -0.9560  1.9979
   65SAPC    C2 5292   5.256   1.624   2.782 -0.3810 -0.2066  0.1245
   65SAPC    HS 5293   5.213   1.717   2.825  0.7679 -0.4396  1.8568
   65SAPC   O21 5294   5.373   1.585   2.843  0.0157 -0.1794 -0.4784
   65SAPC   C21 5295   5.393   1.617   2.969  0.3385  0.0352  0.2707
   65SAPC   O22 5296   5.340   1.713   3.024  0.0597 -0.0113 -0.0644
   65SAPC   C22 5297   5.483   1.510   3.036 -0.2172 -0.2084  0.4862
   65SAPC   H2R 5298   5.480   1.409   2.988  0.4774  1.0486 -2.4018
   65SAPC   H2S 5299   5.585   1.548   3.017  0.2949  0.0652  3.3617
   65SAPC    C3 5300   5.158   1.515   2.800  1.1303 -0.3806  0.3830
   65SAPC    HX 5301   5.198   1.419   2.762  0.1537 -1.8238  2.8062
   65SAPC    HY 5302   5.064   1.523   2.741  1.1312  0.1543  0.4477
   65SAPC   O31 5303   5.118   1.498   2.939  0.4874 -0.3725 -0.9395
   65SAPC   C31 5304   5.023   1.588   2.981  1.0169  0.3202 -0.3372
   65SAPC   O32 5305   4.990   1.688   2.922 -0.1950 -0.1200  0.1122
   65SAPC   C32 5306   4.962   1.554   3.115  0.4017 -1.0331  0.3233
   65SAPC   H2X 5307   4.931   1.447   3.115  1.0921 -1.2961 -1.8836
   65SAPC   H2Y 5308   4.867   1.611   3.125  0.1222 -1.8203  2.6177
   65SAPC   C23 5309   5.459   1.500   3.189 -0.5140 -0.1740 -0.0133
   65SAPC   H3R 5310   5.385   1.565   3.240 -0.3148 -0.2736  0.4072
   65SAPC   H3S 5311   5.559   1.514   3.233 -0.7626  0.9506  0.2082
   65SAPC   C24 5312   5.415   1.360   3.234 -0.0064  0.3741  0.1497
   65SAPC   H4R 5313   5.336   1.320   3.168  1.4672 -1.7804 -0.4246
   65SAPC   H4S 5314   5.373   1.365   3.337  0.2096 -0.5931  0.2910
   65SAPC   C25 5315   5.534   1.266   3.220 -0.7153  0.0430 -0.4113
   65SAPC   H5R 5316   5.567   1.245   3.117  2.4560 -2.2067  0.9014
   65SAPC   C26 5317   5.600   1.208   3.321  0.6226 -0.1169  0.6094
   65SAPC   H6R 5318   5.687   1.142   3.308 -1.3748 -2.9167  0.6249
   65SAPC   C27 5319   5.565   1.225   3.464  0.5736  0.1587 -0.3595
   65SAPC   H7R 5320   5.623   1.148   3.520  1.0055  1.8974  1.7286
   65SAPC   H7S 5321   5.457   1.203   3.478  0.6424  0.4965  0.8181
   65SAPC   C28 5322   5.604   1.363   3.521 -0.0404  0.3308  0.0078
   65SAPC   H8R 5323   5.688   1.419   3.479 -1.2150  0.5411 -2.2331
   65SAPC   C29 5324   5.538   1.424   3.623 -0.0667  0.0313 -0.6067
   65SAPC   H9R 5325   5.572   1.520   3.665 -1.8721  0.5659 -0.2934
   65SAPC  C210 5326   5.426   1.367   3.706 -0.7705  0.1507 -0.2909
   65SAPC  H10R 5327   5.347   1.355   3.628  0.5310  3.9126 -2.4628
   65SAPC  H10S 5328   5.382   1.448   3.768  1.5587  0.9365  0.4214
   65SAPC  C211 5329   5.450   1.240   3.795 -0.0778  0.3819  0.2722
   65SAPC  H11R 5330   5.459   1.146   3.738  1.3409  0.0351  1.0267
   65SAPC  C212 5331   5.441   1.246   3.925  0.0779  0.4791 -0.1000
   65SAPC  H12R 5332   5.442   1.149   3.976 -2.5674 -0.2452 -1.2478
   65SAPC  C213 5333   5.417   1.368   4.009  0.1347 -0.0268 -0.6059
   65SAPC  H13R 5334   5.312   1.405   4.020 -0.3602 -2.1045  3.5426
   65SAPC  H13S 5335   5.472   1.450   3.957  1.1142  0.0904  0.5715
   65SAPC  C214 5336   5.480   1.348   4.147  0.2609 -0.1565  0.5041
   65SAPC  H14R 5337   5.590   1.333   4.147  0.3864  0.7470  0.8269
   65SAPC  C215 5338   5.412   1.348   4.265  1.2559  0.2770 -0.2830
   65SAPC  H15R 5339   5.458   1.347   4.365 -0.7158 -2.1910  0.7029
   65SAPC  C216 5340   5.261   1.368   4.284  0.2212 -0.5472  0.4106
   65SAPC  H16R 5341   5.226   1.281   4.343  1.1710 -2.4770 -1.7319
   65SAPC  H16S 5342   5.204   1.369   4.189 -0.6293  2.9561  0.7959
   65SAPC  C217 5343   5.230   1.500   4.351  0.0501  0.2896 -0.0949
   65SAPC  H17R 5344   5.123   1.501   4.381  0.5291  3.2814  1.9514
   65SAPC  H17S 5345   5.249   1.590   4.289  1.1158 -0.8670 -1.5199
   65SAPC  C218 5346   5.293   1.525   4.488 -0.1770  0.4435  0.3098
   65SAPC  H18R 5347   5.396   1.560   4.464 -0.4705 -0.4803 -2.8381
   65SAPC  H18S 5348   5.310   1.429   4.541  3.3122  1.6230  1.6132
   65SAPC  C219 5349   5.209   1.617   4.585 -0.0685 -0.2171  0.5560
   65SAPC  H19R 5350   5.223   1.724   4.559 -1.2759 -0.4012 -0.9761
   65SAPC  H19S 5351   5.274   1.612   4.675  1.6603  0.7755 -0.5588
   65SAPC  C220 5352   5.071   1.574   4.615  0.3296  0.3009 -0.4950
   65SAPC  H20R 5353   5.062   1.465   4.635  0.4639  0.5962  1.2911
   65SAPC  H20S 5354   5.001   1.602   4.533 -0.0292  0.3775 -0.1623
   65SAPC  H20T 5355   5.037   1.613   4.713  1.8889  0.2221  0.0971
   65SAPC   C33 5356   5.054   1.581   3.234  0.3454 -0.6747 -0.0991
   65SAPC   H3X 5357   5.160   1.559   3.210  0.9579  1.7551  0.1382
   65SAPC   H3Y 5358   5.032   1.499   3.305 -1.2513  1.0994  1.5775
   65SAPC   C34 5359   5.042   1.718   3.302  0.0301  0.4249 -0.0618
   65SAPC   H4X 5360   4.937   1.752   3.316  0.3660  0.7933  1.9508
   65SAPC   H4Y 5361   5.104   1.791   3.246 -0.3128  0.9069  0.1790
   65SAPC   C35 5362   5.119   1.715   3.435  0.0416 -0.5952 -0.7378
   65SAPC   H5X 5363   5.126   1.823   3.459  0.1919 -0.4858 -1.2711
   65SAPC   H5Y 5364   5.222   1.676   3.418  0.5821  0.8081 -0.7831
   65SAPC   C36 5365   5.039   1.641   3.541 -0.7966  0.6022 -0.1720
   65SAPC   H6X 5366   5.038   1.535   3.506  2.7723  0.5280 -0.4770
   65SAPC   H6Y 5367   4.936   1.678   3.557 -1.6383 -0.6177 -2.3457
   65SAPC   C37 5368   5.103   1.641   3.682  0.7119 -0.0824 -0.9822
   65SAPC   H7X 5369   5.190   1.572   3.681 -0.8599 -2.1851  0.0161
   65SAPC   H7Y 5370   5.032   1.588   3.749  2.7678 -2.8655 -0.8496
   65SAPC   C38 5371   5.141   1.772   3.739 -0.7637  0.0605  0.3389
   65SAPC   H8X 5372   5.052   1.837   3.728  2.5297  5.1556  0.6413
   65SAPC   H8Y 5373   5.221   1.823   3.681  0.7598 -2.1061  0.3721
   65SAPC   C39 5374   5.181   1.746   3.883 -0.3189 -0.4514  0.2047
   65SAPC   H9X 5375   5.257   1.668   3.899 -0.9561 -1.7483 -2.5073
   65SAPC   H9Y 5376   5.081   1.723   3.926 -1.5483  1.9963 -1.0552
   65SAPC  C310 5377   5.218   1.874   3.952 -0.7479  0.3702  0.4283
   65SAPC  H10X 5378   5.131   1.941   3.939  0.3309  1.5170 -1.3369
   65SAPC  H10Y 5379   5.293   1.932   3.893  1.0056 -1.0343  1.1718
   65SAPC  C311 5380   5.272   1.853   4.089 -0.1471  0.6559 -0.2852
   65SAPC  H11X 5381   5.355   1.780   4.091 -0.0148  0.8344  1.0420
   65SAPC  H11Y 5382   5.188   1.820   4.153  0.4039  0.5285  0.3736
   65SAPC  C312 5383   5.319   1.979   4.165  0.4894  0.1373  0.2788
   65SAPC  H12X 5384   5.240   2.055   4.151 -0.7464 -1.3658 -1.2317
   65SAPC  H12Y 5385   5.416   2.000   4.114  0.3230  1.3054  0.4179
   65SAPC  C313 5386   5.340   1.960   4.316 -0.0155  0.3987  0.2278
   65SAPC  H13X 5387   5.403   1.871   4.334  0.3993  0.3715 -1.2236
   65SAPC  H13Y 5388   5.244   1.933   4.364  0.1273 -0.8914 -0.1811
   65SAPC  C314 5389   5.389   2.091   4.386  0.0955  0.8979  0.0803
   65SAPC  H14X 5390   5.321   2.175   4.362  0.2145  1.3883  1.3900
   65SAPC  H14Y 5391   5.487   2.120   4.343 -0.0279 -0.2704 -1.0785
   65SAPC  C315 5392   5.395   2.080   4.539 -0.2852 -0.7736 -0.6024
   65SAPC  H15X 5393   5.294   2.067   4.582  0.2686 -0.4044  0.8750
   65SAPC  H15Y 5394   5.438   2.172   4.586 -0.0052 -0.6052 -1.1780
   65SAPC  C316 5395   5.488   1.968   4.571  0.7354  0.4684 -0.4662
   65SAPC  H16X 5396   5.571   1.967   4.498 -0.4526  0.7341 -1.8722
   65SAPC  H16Y 5397   5.439   1.869   4.561 -1.6716  1.4788  0.4060
   65SAPC  C317 5398   5.533   1.968   4.716 -0.1229 -0.0406 -1.4266
   65SAPC  H17X 5399   5.562   2.071   4.749  1.8783 -0.1774 -2.5801
   65SAPC  H17Y 5400   5.629   1.913   4.723 -0.8402 -1.0867  1.4685
   65SAPC  C318 5401   5.427   1.920   4.814 -0.1674  0.0957  0.0389
   65SAPC  H18X 5402   5.340   1.990   4.813 -1.0570 -0.9404  1.1145
   65SAPC  H18Y 5403   5.466   1.918   4.918 -0.4055  2.2260  0.2204
   65SAPC  H18Z 5404   5.396   1.819   4.780 -0.7451  0.3378 -0.1772
   66SAPC     N 5405   1.581   3.373   2.595 -0.8047 -0.3104  0.4725
   66SAPC   C12 5406   1.675   3.293   2.688 -0.4417  0.4006 -0.1985
   66SAPC  H12A 5407   1.753   3.253   2.625 -1.1949 -0.6872 -0.4676
   66SAPC  H12B 5408   1.619   3.206   2.719  0.2416 -0.8539 -2.2378
   66SAPC   C13 5409   1.546   3.289   2.485  0.2113  0.1310  0.5308
   66SAPC  H13A 5410   1.464   3.336   2.433  0.2779 -0.8049 -0.4335
   66SAPC  H13B 5411   1.622   3.276   2.409 -0.7655 -2.0517 -0.1476
   66SAPC  H13C 5412   1.528   3.192   2.528  0.4957 -0.0689  0.1958
   66SAPC   C14 5413   1.459   3.409   2.687 -0.3246 -0.0218 -0.1075
   66SAPC  H14A 5414   1.414   3.318   2.725  1.4844 -0.0694  2.0832
   66SAPC  H14B 5415   1.491   3.464   2.774  1.4172  1.7889 -1.7907
   66SAPC  H14C 5416   1.383   3.457   2.627 -1.0114 -0.5912  0.2945
   66SAPC   C15 5417   1.637   3.508   2.552 -0.4583  0.6771 -0.1139
   66SAPC  H15A 5418   1.643   3.580   2.632 -2.4112  0.1815  0.5203
   66SAPC  H15B 5419   1.737   3.488   2.516  1.1536  0.5478  3.9691
   66SAPC  H15C 5420   1.585   3.547   2.465  0.4513  1.4269 -0.3491
   66SAPC   C11 5421   1.719   3.361   2.815  0.1466 -0.8470  0.1134
   66SAPC  H11A 5422   1.769   3.292   2.887 -0.3451  2.1346  3.5940
   66SAPC  H11B 5423   1.629   3.403   2.864  0.3511 -1.0024  0.6316
   66SAPC     P 5424   1.957   3.445   2.729 -0.1624  0.1050  0.5320
   66SAPC   O13 5425   1.971   3.302   2.696  0.5468 -0.0164  0.4140
   66SAPC   O14 5426   1.987   3.543   2.621  0.2802  0.0699  0.4139
   66SAPC   O12 5427   1.811   3.470   2.792  0.0690  0.0431  0.5589
   66SAPC   O11 5428   2.053   3.475   2.853  0.8417  0.1658 -0.5075
   66SAPC    C1 5429   2.039   3.595   2.937  0.4532  0.9016 -0.5079
   66SAPC    HA 5430   2.134   3.650   2.950  0.2735  0.7235  2.3288
   66SAPC    HB 5431   1.967   3.672   2.902 -3.8884 -1.9069  1.2650
   66SAPC    C2 5432   1.994   3.558   3.079 -0.4598 -0.2258  0.5434
   66SAPC    HS 5433   1.897   3.505   3.079  1.0406 -3.2042  1.9232
   66SAPC   O21 5434   1.990   3.680   3.151  0.2885 -0.6046  0.0894
   66SAPC   C21 5435   1.883   3.717   3.216 -0.5638 -0.1336  0.5351
   66SAPC   O22 5436   1.784   3.649   3.231 -0.7604 -0.4352  0.3908
   66SAPC   C22 5437   1.906   3.857   3.269 -0.0117 -0.3766  0.6266
   66SAPC   H2R 5438   1.988   3.862   3.343  0.2904  1.7804  0.2081
   66SAPC   H2S 5439   1.946   3.917   3.184  0.5672  0.3486  1.3989
   66SAPC    C3 5440   2.094   3.455   3.150  0.3442 -0.3041 -0.7432
   66SAPC    HX 5441   2.189   3.511   3.159  0.1266  0.5838 -3.2555
   66SAPC    HY 5442   2.111   3.360   3.094  0.7057  0.4128 -1.8792
   66SAPC   O31 5443   2.032   3.427   3.281 -0.3350 -0.5391 -0.2954
   66SAPC   C31 5444   1.923   3.353   3.278  0.4070 -0.2825  0.1018
   66SAPC   O32 5445   1.880   3.295   3.179 -0.3577 -0.1432 -0.3442
   66SAPC   C32 5446   1.854   3.346   3.421 -0.2605  0.0537 -0.1400
   66SAPC   H2X 5447   1.896   3.430   3.480  0.2456 -1.0211  1.0946
   66SAPC   H2Y 5448   1.888   3.255   3.476 -0.1392  0.6020  0.7096
   66SAPC   C23 5449   1.784   3.941   3.323  0.9251  1.0283 -0.6439
   66SAPC   H3R 5450   1.693   3.918   3.263  1.4280  0.7336 -1.2916
   66SAPC   H3S 5451   1.800   4.047   3.296  1.5054  0.8617 -0.9623
   66SAPC   C24 5452   1.747   3.944   3.473  0.0500 -0.2750  0.0376
   66SAPC   H4R 5453   1.732   3.840   3.508 -1.5197  0.2566  1.0695
   66SAPC   H4S 5454   1.656   4.008   3.478 -0.0337  0.0181 -3.0912
   66SAPC   C25 5455   1.847   4.017   3.561  0.7309  0.0476 -1.0868
   66SAPC   H5R 5456   1.913   4.087   3.506  1.7620 -1.9136 -2.4506
   66SAPC   C26 5457   1.844   4.030   3.697  0.0655  0.4300 -0.4340
   66SAPC   H6R 5458   1.915   4.093   3.752 -1.2938  0.2666  1.6257
   66SAPC   C27 5459   1.767   3.947   3.797  0.1168  0.0673 -0.2341
   66SAPC   H7R 5460   1.766   3.841   3.762  2.0243  0.1814 -0.6922
   66SAPC   H7S 5461   1.659   3.972   3.809  0.3568  0.6111  0.9915
   66SAPC   C28 5462   1.821   3.932   3.935 -0.5098  0.2527 -0.7216
   66SAPC   H8R 5463   1.931   3.936   3.944 -0.6809  1.5587  1.6239
   66SAPC   C29 5464   1.760   3.943   4.053  0.0951  0.0399 -0.4866
   66SAPC   H9R 5465   1.821   3.937   4.145  1.0202 -1.4982 -1.1528
   66SAPC  C210 5466   1.615   3.977   4.070 -0.5064 -0.5272 -0.3780
   66SAPC  H10R 5467   1.548   3.922   4.001  0.0611 -3.6224  1.3438
   66SAPC  H10S 5468   1.611   4.082   4.035 -1.3902  0.4009  2.2727
   66SAPC  C211 5469   1.572   3.970   4.217  0.3673  0.2669 -1.1087
   66SAPC  H11R 5470   1.637   4.027   4.285 -0.0267  0.8324 -1.1943
   66SAPC  C212 5471   1.454   3.916   4.257  0.5122  0.3162 -0.7802
   66SAPC  H12R 5472   1.431   3.910   4.365  0.4225  0.7102 -0.7776
   66SAPC  C213 5473   1.353   3.842   4.170  0.5636 -0.8162  1.0248
   66SAPC  H13R 5474   1.314   3.751   4.220 -1.4042  1.6020  4.3557
   66SAPC  H13S 5475   1.406   3.796   4.084  2.3870 -0.9923  2.1900
   66SAPC  C214 5476   1.231   3.916   4.126 -0.2592 -0.5798  0.6473
   66SAPC  H14R 5477   1.222   4.015   4.175 -0.2027 -0.4824  0.4623
   66SAPC  C215 5478   1.154   3.892   4.021 -0.5032  0.1457 -0.3903
   66SAPC  H15R 5479   1.073   3.962   3.994 -0.2263  0.6135 -0.0104
   66SAPC  C216 5480   1.172   3.785   3.918  0.9532 -0.7607 -0.4184
   66SAPC  H16R 5481   1.234   3.702   3.958  0.2615 -0.7357  0.7537
   66SAPC  H16S 5482   1.223   3.830   3.830 -0.4705 -2.9479 -2.4980
   66SAPC  C217 5483   1.038   3.732   3.862 -0.6236  0.2055 -0.5120
   66SAPC  H17R 5484   0.978   3.820   3.831  0.2572  1.6501  1.6111
   66SAPC  H17S 5485   0.987   3.683   3.948 -1.0529  1.9359  0.2618
   66SAPC  C218 5486   1.050   3.638   3.744 -0.8982  0.2325  0.3974
   66SAPC  H18R 5487   1.135   3.568   3.758 -0.0649  0.5977 -2.1928
   66SAPC  H18S 5488   1.058   3.697   3.650 -2.3187  2.3509  1.5139
   66SAPC  C219 5489   0.913   3.562   3.728 -0.5306  0.1252 -0.3568
   66SAPC  H19R 5490   0.832   3.632   3.698  0.1920  0.1128 -2.5189
   66SAPC  H19S 5491   0.892   3.522   3.829  0.4720  2.4325  0.8354
   66SAPC  C220 5492   0.917   3.460   3.617  0.3279 -0.3015 -0.1196
   66SAPC  H20R 5493   0.964   3.501   3.525  0.7134  0.2152  0.3026
   66SAPC  H20S 5494   0.818   3.424   3.583  0.4008 -0.0997 -0.5513
   66SAPC  H20T 5495   0.983   3.379   3.657  1.8330 -0.2879 -2.3932
   66SAPC   C33 5496   1.706   3.379   3.408  0.5026  0.0078 -0.0173
   66SAPC   H3X 5497   1.652   3.301   3.351  0.6082  0.0281 -0.1449
   66SAPC   H3Y 5498   1.683   3.474   3.356  0.1347  0.2680  0.6098
   66SAPC   C34 5499   1.647   3.404   3.547 -0.7718  0.5612  0.2025
   66SAPC   H4X 5500   1.694   3.326   3.610 -0.6471 -0.0729 -0.6476
   66SAPC   H4Y 5501   1.537   3.388   3.544 -0.6189 -0.9833  1.4905
   66SAPC   C35 5502   1.694   3.537   3.602  0.3334  0.0608  0.3019
   66SAPC   H5X 5503   1.649   3.606   3.527 -1.6035 -3.6391 -2.2701
   66SAPC   H5Y 5504   1.805   3.547   3.597  0.5998 -2.5456 -0.4133
   66SAPC   C36 5505   1.625   3.576   3.728 -0.2162 -0.2300  0.2722
   66SAPC   H6X 5506   1.514   3.570   3.724 -0.3045  0.5601  1.0414
   66SAPC   H6Y 5507   1.652   3.682   3.747  2.4839 -0.6236 -0.9641
   66SAPC   C37 5508   1.670   3.501   3.853  0.2090  0.1830 -0.6673
   66SAPC   H7X 5509   1.781   3.509   3.858  0.4784 -2.6674  0.0022
   66SAPC   H7Y 5510   1.641   3.394   3.850 -0.7776  0.4347 -0.3827
   66SAPC   C38 5511   1.621   3.568   3.977  0.2620 -0.7079 -0.0008
   66SAPC   H8X 5512   1.513   3.594   3.983  0.3361 -0.7085  1.8453
   66SAPC   H8Y 5513   1.674   3.665   3.984 -1.5442  0.2418  1.3792
   66SAPC   C39 5514   1.663   3.511   4.114  0.2287 -0.2213  0.1448
   66SAPC   H9X 5515   1.773   3.502   4.128  0.4804  0.8982 -0.8620
   66SAPC   H9Y 5516   1.619   3.409   4.114 -0.2920 -0.0059 -0.5290
   66SAPC  C310 5517   1.589   3.587   4.228  0.5998 -0.3546 -0.2456
   66SAPC  H10X 5518   1.480   3.588   4.208  0.4734 -1.2022  0.3579
   66SAPC  H10Y 5519   1.631   3.690   4.219 -0.8591  0.3423  0.5729
   66SAPC  C311 5520   1.637   3.539   4.363 -0.8042 -0.3125  0.5880
   66SAPC  H11X 5521   1.726   3.603   4.381 -1.6389  0.1018  3.9998
   66SAPC  H11Y 5522   1.660   3.431   4.354  2.4822  0.3790 -0.6494
   66SAPC  C312 5523   1.542   3.580   4.483 -0.5949  0.9434  0.2602
   66SAPC  H12X 5524   1.443   3.552   4.441 -1.2454 -0.9119  2.7824
   66SAPC  H12Y 5525   1.530   3.689   4.495 -0.7073  0.9559  0.0349
   66SAPC  C313 5526   1.573   3.519   4.618 -0.1694  0.5333  0.7690
   66SAPC  H13X 5527   1.495   3.539   4.694  1.0034  1.1195  1.8369
   66SAPC  H13Y 5528   1.664   3.570   4.655 -0.7958  1.8049  0.6123
   66SAPC  C314 5529   1.594   3.365   4.614 -0.2047  0.0417  0.0450
   66SAPC  H14X 5530   1.686   3.332   4.560 -0.4985  3.2741 -2.7685
   66SAPC  H14Y 5531   1.506   3.337   4.553 -0.9195  0.8880  0.6710
   66SAPC  C315 5532   1.591   3.289   4.753 -1.2269 -0.3259 -0.1104
   66SAPC  H15X 5533   1.603   3.182   4.726 -2.1933 -0.6395  0.6631
   66SAPC  H15Y 5534   1.496   3.317   4.803 -0.7750 -0.3841  0.7970
   66SAPC  C316 5535   1.696   3.328   4.867 -0.6758  0.1858 -0.4938
   66SAPC  H16X 5536   1.694   3.439   4.872  2.7559  0.4731 -2.1792
   66SAPC  H16Y 5537   1.795   3.298   4.826 -1.5435 -1.2012 -1.6893
   66SAPC  C317 5538   1.679   3.258   5.004  0.4082 -0.4192 -1.1104
   66SAPC  H17X 5539   1.703   3.151   4.982 -2.3468 -1.0153 -1.5309
   66SAPC  H17Y 5540   1.575   3.257   5.042  1.5141 -0.2570  2.3336
   66SAPC  C318 5541   1.758   3.323   5.122  0.7118  1.3274 -0.3622
   66SAPC  H18X 5542   1.704   3.318   5.219 -1.5030 -0.4908 -1.5795
   66SAPC  H18Y 5543   1.751   3.433   5.104 -0.8763  1.1716 -0.8502
   66SAPC  H18Z 5544   1.860   3.281   5.130 -1.1341 -3.4279  2.6565
   67SAPC     N 5545   0.076   4.678   2.481 -0.0952  0.3892  0.0114
   67SAPC   C12 5546   0.053   4.526   2.465  0.2487  0.0378 -0.4228
   67SAPC  H12A 5547   0.143   4.474   2.494 -0.6720 -1.2181  0.2999
   67SAPC  H12B 5548   0.043   4.503   2.360 -0.7521 -0.3846 -0.2496
   67SAPC   C13 5549  -0.038   4.746   2.420  0.1936 -0.3577  0.4934
   67SAPC  H13A 5550  -0.041   4.843   2.466 -0.7382 -0.5933  0.9538
   67SAPC  H13B 5551  -0.036   4.746   2.312 -1.6362 -2.0021  0.3985
   67SAPC  H13C 5552  -0.131   4.700   2.452  0.8175 -0.5247  2.1786
   67SAPC   C14 5553   0.083   4.715   2.627 -0.1607  0.5092  0.1993
   67SAPC  H14A 5554   0.090   4.822   2.641 -1.1409  0.7564 -1.0653
   67SAPC  H14B 5555   0.002   4.680   2.688  1.5378  0.4966  2.5944
   67SAPC  H14C 5556   0.159   4.662   2.683  0.7465  1.6478  0.0832
   67SAPC   C15 5557   0.197   4.727   2.411  0.2681 -0.7721  0.6152
   67SAPC  H15A 5558   0.290   4.690   2.451  0.9885  0.5125  0.1565
   67SAPC  H15B 5559   0.200   4.706   2.305  1.4050  1.5840  0.1135
   67SAPC  H15C 5560   0.206   4.834   2.419  2.8676 -0.9121  0.1440
   67SAPC   C11 5561  -0.062   4.460   2.545  0.2301 -0.3293  0.3843
   67SAPC  H11A 5562  -0.051   4.481   2.654 -2.0041  1.0827  0.4096
   67SAPC  H11B 5563  -0.049   4.352   2.526  2.1562 -0.1140  0.2643
   67SAPC     P 5564  -0.319   4.422   2.506  0.2253  0.4644  0.2137
   67SAPC   O13 5565  -0.433   4.481   2.437  0.6495 -0.5688  0.3655
   67SAPC   O14 5566  -0.283   4.286   2.474 -0.5683  0.8487 -0.4897
   67SAPC   O12 5567  -0.189   4.513   2.504 -0.6143  0.0138  0.0591
   67SAPC   O11 5568  -0.356   4.428   2.660 -0.2372  0.4243  0.2261
   67SAPC    C1 5569  -0.428   4.534   2.721 -0.2026 -0.1412  0.4044
   67SAPC    HA 5570  -0.502   4.592   2.663  1.7565  1.2686 -0.8106
   67SAPC    HB 5571  -0.481   4.496   2.811 -1.3472 -3.8184 -1.6499
   67SAPC    C2 5572  -0.317   4.629   2.792  0.2398  0.5374 -0.0718
   67SAPC    HS 5573  -0.241   4.656   2.715 -0.2974 -0.0308 -0.8265
   67SAPC   O21 5574  -0.258   4.546   2.900 -0.1297  0.1051 -0.0684
   67SAPC   C21 5575  -0.139   4.592   2.950  0.5712 -0.2495  0.7006
   67SAPC   O22 5576  -0.079   4.685   2.891  0.0841  0.2286 -0.2176
   67SAPC   C22 5577  -0.108   4.540   3.087 -0.3167 -0.0364  0.0488
   67SAPC   H2R 5578  -0.076   4.628   3.148  0.0903  0.6737 -1.1667
   67SAPC   H2S 5579  -0.195   4.497   3.142 -0.8491  0.8672 -0.0731
   67SAPC    C3 5580  -0.386   4.757   2.839  0.3493  1.1774 -0.9243
   67SAPC    HX 5581  -0.404   4.813   2.744  3.2450  0.7609 -1.8169
   67SAPC    HY 5582  -0.315   4.806   2.908 -1.7974  1.2326  1.3728
   67SAPC   O31 5583  -0.511   4.729   2.920 -0.5639 -0.1394 -0.1915
   67SAPC   C31 5584  -0.500   4.705   3.050 -0.2257  0.2107 -0.5092
   67SAPC   O32 5585  -0.396   4.696   3.110 -0.0346 -0.1937 -0.7993
   67SAPC   C32 5586  -0.640   4.694   3.118  0.2839  1.1515 -0.2174
   67SAPC   H2X 5587  -0.692   4.606   3.075  1.9142 -0.0063  0.1080
   67SAPC   H2Y 5588  -0.699   4.780   3.079 -1.6840 -0.3469 -0.7266
   67SAPC   C23 5589   0.018   4.448   3.103 -0.0025  0.0935 -0.0894
   67SAPC   H3R 5590   0.040   4.411   3.205 -0.7842 -1.8762 -0.6037
   67SAPC   H3S 5591   0.102   4.506   3.059 -0.1639  0.4453  0.0569
   67SAPC   C24 5592   0.020   4.316   3.014 -0.0990  0.0563 -0.1720
   67SAPC   H4R 5593  -0.012   4.331   2.909  1.4893 -0.6381 -0.7879
   67SAPC   H4S 5594  -0.055   4.251   3.065  0.1253  1.8454  2.6604
   67SAPC   C25 5595   0.150   4.245   2.988 -0.3734  0.1911  0.3435
   67SAPC   H5R 5596   0.230   4.306   2.942  0.7408 -2.4674 -1.5210
   67SAPC   C26 5597   0.188   4.121   3.011 -0.3860  0.5850 -0.2424
   67SAPC   H6R 5598   0.285   4.093   2.968  0.6373  0.8995  1.7575
   67SAPC   C27 5599   0.108   4.018   3.086 -0.9091  0.2209  0.4053
   67SAPC   H7R 5600   0.050   3.943   3.028 -0.4042  0.2022 -0.0726
   67SAPC   H7S 5601   0.027   4.068   3.144 -0.7653 -0.5764  1.3236
   67SAPC   C28 5602   0.213   3.955   3.178 -0.5889  0.2864  0.4383
   67SAPC   H8R 5603   0.309   3.931   3.129 -1.1453 -3.0683  0.7455
   67SAPC   C29 5604   0.210   3.934   3.311 -0.1240  0.1509  0.2890
   67SAPC   H9R 5605   0.296   3.902   3.372  0.1994  0.1058 -0.1865
   67SAPC  C210 5606   0.100   3.974   3.397 -0.2690  0.2594  0.2633
   67SAPC  H10R 5607   0.091   3.892   3.472  2.0603 -0.1466  0.1902
   67SAPC  H10S 5608   0.000   3.970   3.350  0.6732  0.9324 -1.9076
   67SAPC  C211 5609   0.122   4.106   3.463  0.1084 -0.0248 -0.0429
   67SAPC  H11R 5610   0.060   4.179   3.408 -1.5213 -3.0676 -2.5970
   67SAPC  C212 5611   0.194   4.144   3.570 -0.2553  0.5847 -0.5110
   67SAPC  H12R 5612   0.196   4.254   3.581 -1.7298  0.5442  0.2958
   67SAPC  C213 5613   0.280   4.053   3.654  0.9259  0.0177 -0.1648
   67SAPC  H13R 5614   0.299   3.956   3.605 -3.6829  0.0242 -2.5170
   67SAPC  H13S 5615   0.219   4.023   3.742 -0.9881  1.4572 -0.9286
   67SAPC  C214 5616   0.401   4.121   3.711  0.2509 -0.4036  0.5363
   67SAPC  H14R 5617   0.386   4.150   3.815  0.6759  0.0840  0.4619
   67SAPC  C215 5618   0.514   4.151   3.649  0.7942  0.6721 -0.1788
   67SAPC  H15R 5619   0.591   4.201   3.709  1.3409 -0.8961  0.5092
   67SAPC  C216 5620   0.560   4.118   3.509 -0.2420  0.2961 -0.1750
   67SAPC  H16R 5621   0.596   4.215   3.468 -3.3849  1.4259 -0.5510
   67SAPC  H16S 5622   0.478   4.076   3.447 -0.1025  0.0906 -0.2205
   67SAPC  C217 5623   0.687   4.023   3.499  0.5962  0.4776 -0.3214
   67SAPC  H17R 5624   0.774   4.081   3.536 -0.1982  0.3265  1.9437
   67SAPC  H17S 5625   0.707   4.001   3.392 -0.2145 -2.9309  0.1027
   67SAPC  C218 5626   0.677   3.896   3.585 -0.4540  0.0979 -0.1451
   67SAPC  H18R 5627   0.669   3.906   3.696 -0.3609 -0.4779 -0.0812
   67SAPC  H18S 5628   0.773   3.844   3.568 -0.1678  0.8851 -0.9934
   67SAPC  C219 5629   0.577   3.792   3.538 -0.0409  0.6062 -0.2820
   67SAPC  H19R 5630   0.476   3.833   3.558  0.0249  1.4916 -1.6236
   67SAPC  H19S 5631   0.594   3.702   3.601  2.1055  0.9064 -0.3542
   67SAPC  C220 5632   0.591   3.743   3.386 -0.1038  0.8183  0.1785
   67SAPC  H20R 5633   0.532   3.807   3.316  2.2149  0.5954 -2.1325
   67SAPC  H20S 5634   0.551   3.641   3.375  2.0199  0.1180 -2.0882
   67SAPC  H20T 5635   0.695   3.739   3.347 -0.8690  0.5116 -1.9346
   67SAPC   C33 5636  -0.629   4.683   3.277  0.9101 -0.1785  0.0556
   67SAPC   H3X 5637  -0.722   4.724   3.321 -0.6682 -4.1573  0.8799
   67SAPC   H3Y 5638  -0.545   4.746   3.314  0.2668  0.6004  0.2146
   67SAPC   C34 5639  -0.606   4.539   3.330  0.6493 -0.2424  0.6146
   67SAPC   H4X 5640  -0.509   4.501   3.291  0.4678 -0.3985  0.3080
   67SAPC   H4Y 5641  -0.694   4.474   3.309  0.5134  0.2430 -0.4177
   67SAPC   C35 5642  -0.581   4.545   3.482 -0.4774  0.1475 -0.4322
   67SAPC   H5X 5643  -0.485   4.598   3.503  1.3813 -2.8393 -0.7818
   67SAPC   H5Y 5644  -0.553   4.441   3.509 -0.9961 -0.7062 -2.8875
   67SAPC   C36 5645  -0.691   4.607   3.570 -0.0039  0.5493  0.8944
   67SAPC   H6X 5646  -0.794   4.574   3.545  0.0421  1.9739 -1.4421
   67SAPC   H6Y 5647  -0.697   4.717   3.554  0.0165  0.5862  1.1321
   67SAPC   C37 5648  -0.653   4.597   3.718  0.0838  0.0333 -0.7038
   67SAPC   H7X 5649  -0.551   4.639   3.731  0.6496 -0.9741 -1.7393
   67SAPC   H7Y 5650  -0.639   4.492   3.751 -0.5734  0.7103  1.9550
   67SAPC   C38 5651  -0.745   4.662   3.823 -0.5027 -0.7601 -0.3341
   67SAPC   H8X 5652  -0.837   4.600   3.824 -0.3493 -0.9835  0.1779
   67SAPC   H8Y 5653  -0.771   4.769   3.806 -1.3080 -0.4755  2.2617
   67SAPC   C39 5654  -0.676   4.656   3.963  0.4193  0.5259  0.0540
   67SAPC   H9X 5655  -0.577   4.707   3.963  1.3115 -1.1143  1.5597
   67SAPC   H9Y 5656  -0.663   4.550   3.993 -0.2097  0.5185  0.3181
   67SAPC  C310 5657  -0.763   4.714   4.070 -0.3737  0.5358  0.3397
   67SAPC  H10X 5658  -0.862   4.669   4.053 -0.8180  0.3528  3.0156
   67SAPC  H10Y 5659  -0.772   4.824   4.059  1.7078  0.7891  0.7208
   67SAPC  C311 5660  -0.708   4.682   4.208 -1.2499 -0.0729  0.3138
   67SAPC  H11X 5661  -0.620   4.745   4.235 -1.7338  0.0315  1.7011
   67SAPC  H11Y 5662  -0.659   4.583   4.211  1.5914  1.2259  0.3529
   67SAPC  C312 5663  -0.812   4.680   4.320 -0.1682 -0.2366 -0.0714
   67SAPC  H12X 5664  -0.886   4.598   4.308 -1.8128  1.1564  0.1176
   67SAPC  H12Y 5665  -0.864   4.775   4.296  3.6989  1.4393 -2.9879
   67SAPC  C313 5666  -0.750   4.700   4.457  0.0136  0.5184 -0.3498
   67SAPC  H13X 5667  -0.829   4.727   4.530  0.6350  0.1403  0.4921
   67SAPC  H13Y 5668  -0.682   4.787   4.462  2.8197 -1.5643  2.8184
   67SAPC  C314 5669  -0.666   4.578   4.511  0.8577  0.1730  0.2915
   67SAPC  H14X 5670  -0.595   4.553   4.429 -2.9285  0.1806 -3.3822
   67SAPC  H14Y 5671  -0.746   4.502   4.513  0.5237  0.4798 -0.7573
   67SAPC  C315 5672  -0.593   4.589   4.643 -0.4097 -0.4221  0.3493
   67SAPC  H15X 5673  -0.671   4.606   4.720  0.2840 -0.5434  1.0919
   67SAPC  H15Y 5674  -0.526   4.677   4.636 -1.0817  0.0797  0.0538
   67SAPC  C316 5675  -0.510   4.465   4.667  0.4891 -0.2329 -0.0262
   67SAPC  H16X 5676  -0.441   4.443   4.583 -1.5839 -2.2530 -1.2985
   67SAPC  H16Y 5677  -0.583   4.382   4.666  1.1509 -0.8766  1.6093
   67SAPC  C317 5678  -0.441   4.460   4.808 -0.9484 -0.1461  0.2880
   67SAPC  H17X 5679  -0.508   4.493   4.891  0.1337 -1.4604  1.7364
   67SAPC  H17Y 5680  -0.347   4.520   4.809 -1.2064  0.2697 -0.0438
   67SAPC  C318 5681  -0.392   4.320   4.839  0.3459  0.9623 -0.2570
   67SAPC  H18X 5682  -0.332   4.322   4.932 -1.2392  0.8268  0.8146
   67SAPC  H18Y 5683  -0.338   4.271   4.756  0.5925  0.5266  0.1535
   67SAPC  H18Z 5684  -0.483   4.259   4.860  1.5923 -0.7161  0.4923
   68SAPC     N 5685   1.215   6.583   2.246 -0.3936 -0.5600 -0.4378
   68SAPC   C12 5686   1.201   6.555   2.392 -0.5950 -0.2816  0.1632
   68SAPC  H12A 5687   1.209   6.647   2.447 -0.0488 -0.6284  0.6855
   68SAPC  H12B 5688   1.288   6.499   2.422  0.1333  1.5260  1.6294
   68SAPC   C13 5689   1.112   6.677   2.199 -0.1955  0.0455 -0.2701
   68SAPC  H13A 5690   1.127   6.775   2.243  2.2506  0.2645 -1.4050
   68SAPC  H13B 5691   1.119   6.692   2.092  0.1587  1.0908 -0.1142
   68SAPC  H13C 5692   1.014   6.641   2.227  0.2916 -1.8434 -0.8601
   68SAPC   C14 5693   1.351   6.642   2.218  0.3862  0.7904 -0.5271
   68SAPC  H14A 5694   1.362   6.739   2.265 -0.5967 -0.7065  3.2062
   68SAPC  H14B 5695   1.424   6.574   2.257  0.1292  1.1296  0.5902
   68SAPC  H14C 5696   1.357   6.649   2.111 -2.0434  3.7037 -0.6182
   68SAPC   C15 5697   1.202   6.447   2.177 -0.3150 -1.0559 -0.8972
   68SAPC  H15A 5698   1.104   6.405   2.189 -1.3864  0.9774 -2.0578
   68SAPC  H15B 5699   1.229   6.464   2.073  2.0964  3.3342  0.1686
   68SAPC  H15C 5700   1.283   6.385   2.215  1.1808  1.2186 -0.1753
   68SAPC   C11 5701   1.073   6.485   2.444 -0.4523 -0.4763  0.5326
   68SAPC  H11A 5702   1.074   6.487   2.555  2.4000  0.4261  0.5614
   68SAPC  H11B 5703   1.088   6.380   2.411 -0.2053 -0.0516 -0.7844
   68SAPC     P 5704   0.825   6.459   2.405  0.0160  0.0159  0.0651
   68SAPC   O13 5705   0.708   6.538   2.357 -0.4637 -0.0100  0.8367
   68SAPC   O14 5706   0.841   6.317   2.355  0.1336  0.4788  0.4374
   68SAPC   O12 5707   0.949   6.544   2.386 -0.4640 -0.3865 -0.4560
   68SAPC   O11 5708   0.811   6.447   2.562  0.1621 -0.5803 -0.3726
   68SAPC    C1 5709   0.770   6.565   2.639  0.1489 -0.5854 -0.0474
   68SAPC    HA 5710   0.715   6.637   2.574 -1.2650 -0.7272  0.9408
   68SAPC    HB 5711   0.703   6.542   2.725  0.2125  1.5381  0.6466
   68SAPC    C2 5712   0.898   6.641   2.693 -0.1669  0.0447  0.7915
   68SAPC    HS 5713   0.960   6.659   2.602 -0.7058  0.6604  0.5339
   68SAPC   O21 5714   0.962   6.557   2.790  0.0473 -0.4265 -0.3513
   68SAPC   C21 5715   1.087   6.571   2.824  0.2023 -0.5645 -0.5416
   68SAPC   O22 5716   1.157   6.666   2.787 -0.2128  0.4224 -0.1724
   68SAPC   C22 5717   1.133   6.461   2.909  0.1532  0.6169  0.3916
   68SAPC   H2R 5718   1.076   6.474   3.003  0.8170  1.0734  0.7335
   68SAPC   H2S 5719   1.106   6.366   2.857 -1.3441  1.0939  0.2517
   68SAPC    C3 5720   0.865   6.782   2.751 -0.6612  0.6879  0.1005
   68SAPC    HX 5721   0.807   6.849   2.685 -4.7280 -1.0673  1.5957
   68SAPC    HY 5722   0.968   6.820   2.770 -0.0016 -1.1734  0.4746
   68SAPC   O31 5723   0.794   6.766   2.873 -0.0853  0.1843 -0.4107
   68SAPC   C31 5724   0.793   6.879   2.945  0.2447  1.0086 -0.8600
   68SAPC   O32 5725   0.846   6.979   2.919 -0.7388 -0.3777  0.0887
   68SAPC   C32 5726   0.708   6.852   3.066 -0.2637 -0.4873 -0.1908
   68SAPC   H2X 5727   0.705   6.743   3.087  1.2419 -0.2018  1.7880
   68SAPC   H2Y 5728   0.604   6.885   3.045 -0.7761 -0.1611  2.5555
   68SAPC   C23 5729   1.290   6.477   2.942  0.3174  0.0338  0.2004
   68SAPC   H3R 5730   1.313   6.578   2.983 -2.3812  1.4650 -1.4978
   68SAPC   H3S 5731   1.346   6.483   2.846  0.0343 -1.1499 -0.0602
   68SAPC   C24 5732   1.333   6.351   3.018 -0.2325 -0.3949 -0.0023
   68SAPC   H4R 5733   1.442   6.332   3.004 -0.7091 -3.8339 -0.0307
   68SAPC   H4S 5734   1.280   6.269   2.964 -0.0676 -0.3482 -0.2404
   68SAPC   C25 5735   1.302   6.355   3.162 -0.0942  0.0460 -0.7771
   68SAPC   H5R 5736   1.330   6.452   3.204 -0.3550 -0.0894 -0.2846
   68SAPC   C26 5737   1.232   6.265   3.235 -0.3011 -0.3530  0.4404
   68SAPC   H6R 5738   1.222   6.284   3.343  0.3563 -0.9734  0.6227
   68SAPC   C27 5739   1.176   6.138   3.191  0.0452  0.1681 -0.3431
   68SAPC   H7R 5740   1.219   6.050   3.243 -1.5453 -0.7274 -0.4576
   68SAPC   H7S 5741   1.205   6.123   3.085 -2.3564  0.4240 -1.1153
   68SAPC   C28 5742   1.028   6.135   3.215 -0.0668  0.4286  0.0918
   68SAPC   H8R 5743   0.974   6.213   3.160 -0.6121  0.0451  0.0776
   68SAPC   C29 5744   0.955   6.055   3.296 -0.4553  0.0952 -0.4159
   68SAPC   H9R 5745   0.846   6.066   3.310 -0.0496  1.4691  2.2710
   68SAPC  C210 5746   1.024   5.948   3.379  0.2381  0.3559  0.3308
   68SAPC  H10R 5747   1.065   6.015   3.458 -0.4126 -0.2058  1.1668
   68SAPC  H10S 5748   1.099   5.893   3.319 -1.8534 -0.2217 -1.9179
   68SAPC  C211 5749   0.933   5.851   3.458  0.0068  0.7737 -0.1078
   68SAPC  H11R 5750   0.888   5.762   3.411  1.5687 -0.8498  1.2894
   68SAPC  C212 5751   0.895   5.862   3.592  0.0584 -0.5636  0.8600
   68SAPC  H12R 5752   0.827   5.784   3.629  1.2486 -1.2541  1.6307
   68SAPC  C213 5753   0.929   5.973   3.693  0.7575  0.1714  0.7099
   68SAPC  H13R 5754   0.839   6.038   3.682  0.4825 -0.4357 -1.0819
   68SAPC  H13S 5755   1.029   6.017   3.674  0.9719 -0.7481 -0.3784
   68SAPC  C214 5756   0.945   5.913   3.830  0.1184 -0.1398 -0.8308
   68SAPC  H14R 5757   0.975   5.808   3.824 -0.3076 -0.2187 -1.8726
   68SAPC  C215 5758   0.943   5.978   3.952 -0.0416  0.1508  0.2135
   68SAPC  H15R 5759   0.946   5.914   4.041 -0.2687 -1.1261 -0.6645
   68SAPC  C216 5760   0.906   6.120   3.972  0.0495  0.4971  0.0297
   68SAPC  H16R 5761   0.804   6.122   4.014  0.1009 -0.4592  0.2170
   68SAPC  H16S 5762   0.907   6.172   3.874 -0.1134  0.0241 -0.2224
   68SAPC  C217 5763   1.017   6.173   4.068  0.7049  0.8033 -0.3822
   68SAPC  H17R 5764   1.118   6.164   4.021  0.2053 -1.7076 -1.1832
   68SAPC  H17S 5765   1.026   6.124   4.167  0.8902 -0.1241 -0.8416
   68SAPC  C218 5766   1.007   6.324   4.093 -0.1313 -0.1724  0.2546
   68SAPC  H18R 5767   1.024   6.383   4.001 -0.0545 -1.2584 -0.4474
   68SAPC  H18S 5768   1.090   6.366   4.154 -0.2247  1.1163 -0.4770
   68SAPC  C219 5769   0.869   6.360   4.161 -0.3424 -0.3929  0.5179
   68SAPC  H19R 5770   0.852   6.290   4.246  0.2336  0.5135  1.3954
   68SAPC  H19S 5771   0.791   6.346   4.082  0.0170 -1.5315  0.3419
   68SAPC  C220 5772   0.852   6.507   4.215  0.1877 -0.0264 -0.2068
   68SAPC  H20R 5773   0.754   6.518   4.266 -0.0258 -1.0737 -0.3487
   68SAPC  H20S 5774   0.849   6.579   4.131 -0.9637 -1.3298 -1.3299
   68SAPC  H20T 5775   0.928   6.533   4.292  0.5452 -1.2561 -0.1110
   68SAPC   C33 5776   0.764   6.913   3.201  0.0254 -0.0665 -0.2554
   68SAPC   H3X 5777   0.753   7.023   3.197  1.7225  0.1051 -0.8763
   68SAPC   H3Y 5778   0.874   6.900   3.207  0.2953  2.0933  0.2718
   68SAPC   C34 5779   0.700   6.855   3.328 -0.5018 -0.2497 -0.6260
   68SAPC   H4X 5780   0.703   6.744   3.326  1.3197 -0.2444  0.1895
   68SAPC   H4Y 5781   0.594   6.888   3.328 -0.3681  0.2435  0.7610
   68SAPC   C35 5782   0.756   6.905   3.462 -0.1144  0.3185  0.2202
   68SAPC   H5X 5783   0.738   7.013   3.480  1.3322  0.4763  0.8345
   68SAPC   H5Y 5784   0.867   6.900   3.461 -0.1481 -0.8395  0.3444
   68SAPC   C36 5785   0.700   6.832   3.581  0.2372  0.7033 -0.5243
   68SAPC   H6X 5786   0.714   6.722   3.578  1.5146  0.8561 -0.7616
   68SAPC   H6Y 5787   0.590   6.845   3.593  0.1643 -1.2547  1.3453
   68SAPC   C37 5788   0.761   6.881   3.721  0.9239 -1.0277  0.7749
   68SAPC   H7X 5789   0.772   6.991   3.733 -2.0852 -0.5173 -0.4240
   68SAPC   H7Y 5790   0.866   6.845   3.724  1.3570  0.2239  2.3690
   68SAPC   C38 5791   0.690   6.822   3.841  0.9826 -0.4740 -0.4433
   68SAPC   H8X 5792   0.669   6.716   3.816 -3.4676  0.0566  0.2356
   68SAPC   H8Y 5793   0.585   6.858   3.846  0.8896 -0.8311  0.4680
   68SAPC   C39 5794   0.762   6.847   3.971 -0.0617 -0.8451 -0.1498
   68SAPC   H9X 5795   0.803   6.949   3.958 -0.5184 -0.9204 -2.8422
   68SAPC   H9Y 5796   0.860   6.795   3.975  0.8665  0.9151  1.9246
   68SAPC  C310 5797   0.680   6.843   4.105  0.5077  0.3149  0.2430
   68SAPC  H10X 5798   0.654   6.738   4.131  1.4681  0.4911  2.0591
   68SAPC  H10Y 5799   0.594   6.910   4.087  0.2987  0.9435  3.1034
   68SAPC  C311 5800   0.754   6.923   4.215  0.5339  0.4020 -0.6479
   68SAPC  H11X 5801   0.763   7.034   4.209 -0.2517  0.4251 -1.7222
   68SAPC  H11Y 5802   0.859   6.887   4.208  1.2447  2.3755 -0.7261
   68SAPC  C312 5803   0.707   6.890   4.352 -0.3376 -0.5341 -0.0416
   68SAPC  H12X 5804   0.737   6.965   4.429 -3.5895  0.8736 -0.0057
   68SAPC  H12Y 5805   0.755   6.797   4.389  2.4148  1.4817  1.9799
   68SAPC  C313 5806   0.558   6.867   4.369  0.1594  0.6556  0.5257
   68SAPC  H13X 5807   0.539   6.855   4.478 -3.2351 -2.2459 -0.1717
   68SAPC  H13Y 5808   0.521   6.774   4.319 -1.3551 -0.1580  2.9468
   68SAPC  C314 5809   0.476   6.997   4.353  0.4344  1.0170 -0.3828
   68SAPC  H14X 5810   0.462   7.027   4.247 -2.1674  1.5991  0.0528
   68SAPC  H14Y 5811   0.528   7.062   4.426 -1.2320 -0.0096  1.8381
   68SAPC  C315 5812   0.329   6.970   4.400  0.8814  0.5223 -0.5506
   68SAPC  H15X 5813   0.333   6.929   4.503  1.8493  0.0722 -0.7602
   68SAPC  H15Y 5814   0.313   6.885   4.330  0.9193  1.9173 -2.3271
   68SAPC  C316 5815   0.234   7.078   4.376 -0.2664 -0.1923  0.2244
   68SAPC  H16X 5816   0.231   7.095   4.266 -1.1748 -0.3608  0.2180
   68SAPC  H16Y 5817   0.274   7.175   4.413 -0.7069  0.0510  0.0692
   68SAPC  C317 5818   0.097   7.069   4.440 -0.1564  0.1489  0.3622
   68SAPC  H17X 5819   0.066   6.965   4.419 -0.0500  0.1133  0.3819
   68SAPC  H17Y 5820   0.018   7.126   4.385 -2.0241 -1.6735  1.0148
   68SAPC  C318 5821   0.106   7.086   4.598  0.4628  0.5147  0.3491
   68SAPC  H18X 5822   0.161   7.182   4.606  3.9682 -1.0971 -1.9176
   68SAPC  H18Y 5823   0.160   7.007   4.653  4.0555  0.9512 -2.1947
   68SAPC  H18Z 5824   0.003   7.086   4.641 -0.3415  2.4652 -1.3856
   69SAPC     N 5825   2.320   3.380   2.580  0.3994 -0.5508 -0.4341
   69SAPC   C12 5826   2.304   3.378   2.733  0.2463  0.6442 -0.0641
   69SAPC  H12A 5827   2.348   3.286   2.769  2.9791  2.1408  0.7266
   69SAPC  H12B 5828   2.198   3.371   2.748  0.4675 -2.5912  0.7412
   69SAPC   C13 5829   2.245   3.275   2.507 -0.6870  0.2651 -0.8589
   69SAPC  H13A 5830   2.260   3.172   2.537 -2.5616 -0.2293 -1.5054
   69SAPC  H13B 5831   2.140   3.290   2.525  0.0385  2.1612  2.6390
   69SAPC  H13C 5832   2.259   3.280   2.400 -0.1777 -0.9769 -0.8765
   69SAPC   C14 5833   2.277   3.512   2.539 -0.9838 -0.0390 -0.3391
   69SAPC  H14A 5834   2.292   3.531   2.434 -3.1315 -0.5920 -0.7825
   69SAPC  H14B 5835   2.172   3.529   2.558 -0.4902  0.2390  2.6430
   69SAPC  H14C 5836   2.327   3.582   2.605 -0.6586 -0.9330  0.3845
   69SAPC   C15 5837   2.462   3.361   2.538  0.0147 -0.2206 -0.1077
   69SAPC  H15A 5838   2.525   3.414   2.608 -0.8566  0.8689 -0.1269
   69SAPC  H15B 5839   2.498   3.259   2.539 -1.1740 -0.6573 -0.5680
   69SAPC  H15C 5840   2.488   3.403   2.442  0.3225  0.3861  0.2332
   69SAPC   C11 5841   2.367   3.479   2.825 -0.3878 -0.4971 -0.3066
   69SAPC  H11A 5842   2.337   3.458   2.930  2.4524  1.2745  0.9863
   69SAPC  H11B 5843   2.327   3.582   2.809  0.5379  0.2863  1.8784
   69SAPC     P 5844   2.607   3.369   2.879 -0.2603  0.1195  0.0529
   69SAPC   O13 5845   2.534   3.242   2.903 -0.2451  0.0512 -0.6697
   69SAPC   O14 5846   2.729   3.363   2.789 -1.1464  0.0837 -0.3881
   69SAPC   O12 5847   2.515   3.483   2.819 -0.2441  0.3278 -0.1044
   69SAPC   O11 5848   2.643   3.432   3.008  0.8274 -0.2391 -0.3403
   69SAPC    C1 5849   2.595   3.548   3.071  0.4216 -0.4091 -0.2653
   69SAPC    HA 5850   2.493   3.560   3.030 -0.1319 -2.9221  0.1834
   69SAPC    HB 5851   2.583   3.525   3.179 -2.4237 -0.4124 -0.5220
   69SAPC    C2 5852   2.686   3.678   3.066 -0.1712 -0.0071 -0.5677
   69SAPC    HS 5853   2.712   3.693   2.959 -0.8224  0.2838 -0.6898
   69SAPC   O21 5854   2.802   3.658   3.149  0.5891  0.4781 -0.2294
   69SAPC   C21 5855   2.898   3.743   3.127  0.8102  0.2379  0.6208
   69SAPC   O22 5856   2.906   3.825   3.039  0.7841 -0.0995  0.4365
   69SAPC   C22 5857   3.005   3.704   3.224 -0.0150  0.3747 -0.3875
   69SAPC   H2R 5858   2.988   3.599   3.253  0.1753 -0.0314 -1.6737
   69SAPC   H2S 5859   3.104   3.705   3.175  0.5529  0.3336  0.7451
   69SAPC    C3 5860   2.603   3.805   3.111  0.7429  0.2373 -0.7740
   69SAPC    HX 5861   2.529   3.825   3.031  1.5465  0.7346 -1.4165
   69SAPC    HY 5862   2.673   3.890   3.126  1.6406 -0.7036  0.6567
   69SAPC   O31 5863   2.550   3.774   3.240 -0.6036 -0.5297 -0.3132
   69SAPC   C31 5864   2.426   3.736   3.256 -0.1185  0.0620  0.3568
   69SAPC   O32 5865   2.344   3.722   3.164  0.4287  0.0188  0.3595
   69SAPC   C32 5866   2.401   3.712   3.405  0.0049  0.3201 -0.4958
   69SAPC   H2X 5867   2.447   3.799   3.454 -2.0435  0.8071  0.6957
   69SAPC   H2Y 5868   2.462   3.622   3.431 -1.8601 -1.3260 -1.5279
   69SAPC   C23 5869   2.995   3.780   3.360  0.4158  0.0963 -0.6282
   69SAPC   H3R 5870   3.014   3.887   3.337  3.1249 -0.5478 -1.7992
   69SAPC   H3S 5871   3.072   3.731   3.424 -1.3190 -1.1777  0.5789
   69SAPC   C24 5872   2.857   3.769   3.436  0.5521 -0.7762 -0.3964
   69SAPC   H4R 5873   2.776   3.803   3.368 -0.5761 -0.4865  1.0436
   69SAPC   H4S 5874   2.859   3.844   3.517  1.0417 -1.3539  0.1381
   69SAPC   C25 5875   2.817   3.632   3.476 -0.7128 -0.1932  0.2034
   69SAPC   H5R 5876   2.804   3.566   3.389 -1.5829 -0.9117  0.8644
   69SAPC   C26 5877   2.791   3.578   3.590 -0.0771  0.4900  0.2195
   69SAPC   H6R 5878   2.771   3.470   3.600 -1.6983  0.6190 -1.2712
   69SAPC   C27 5879   2.777   3.651   3.718 -0.0097  0.2676  0.0065
   69SAPC   H7R 5880   2.817   3.754   3.707  0.5367  0.2094  1.1959
   69SAPC   H7S 5881   2.845   3.602   3.791  0.8525  1.1910 -0.1543
   69SAPC   C28 5882   2.631   3.654   3.758 -0.2207 -0.3844  0.1564
   69SAPC   H8R 5883   2.557   3.647   3.678  0.0538  3.2674 -0.5772
   69SAPC   C29 5884   2.583   3.661   3.886 -1.1250  0.0614 -0.5071
   69SAPC   H9R 5885   2.475   3.654   3.904 -0.8812 -2.7004  0.3379
   69SAPC  C210 5886   2.671   3.675   4.006 -0.0374  0.3502  0.5952
   69SAPC  H10R 5887   2.698   3.782   4.014 -1.4569  0.7311  0.4565
   69SAPC  H10S 5888   2.770   3.626   3.990 -0.9664 -2.0110  1.7082
   69SAPC  C211 5889   2.631   3.634   4.141 -0.2256  0.2126 -0.6831
   69SAPC  H11R 5890   2.528   3.598   4.151  0.0222 -0.8460 -1.6360
   69SAPC  C212 5891   2.711   3.642   4.251  0.2669  0.7159 -0.0886
   69SAPC  H12R 5892   2.670   3.601   4.345 -3.0618  0.4862 -1.5100
   69SAPC  C213 5893   2.852   3.708   4.246  0.1534 -0.1288  0.3118
   69SAPC  H13R 5894   2.873   3.746   4.144  1.7525 -0.7097  0.3993
   69SAPC  H13S 5895   2.928   3.627   4.248 -0.1397 -0.4008  0.3862
   69SAPC  C214 5896   2.879   3.811   4.350 -0.1551  0.3720  0.4382
   69SAPC  H14R 5897   2.844   3.912   4.326 -1.2381 -0.0717  0.1148
   69SAPC  C215 5898   2.917   3.799   4.472  0.0266 -0.3488  0.0496
   69SAPC  H15R 5899   2.931   3.885   4.540 -0.3722  0.0016 -0.3117
   69SAPC  C216 5900   2.961   3.673   4.550 -0.4671 -0.2118  0.8595
   69SAPC  H16R 5901   3.013   3.606   4.478 -0.9878  1.6825 -1.3968
   69SAPC  H16S 5902   2.868   3.626   4.588 -1.3278  0.8824  0.1727
   69SAPC  C217 5903   3.059   3.690   4.667  0.3414  0.1917 -0.2087
   69SAPC  H17R 5904   3.129   3.772   4.639  2.2074 -0.8879  1.0643
   69SAPC  H17S 5905   3.116   3.595   4.678  0.3431  0.3216  1.1592
   69SAPC  C218 5906   3.006   3.717   4.806 -0.5119 -0.5428  0.1876
   69SAPC  H18R 5907   2.948   3.812   4.809  0.3783  0.0090  2.5554
   69SAPC  H18S 5908   3.092   3.729   4.875 -0.5143 -1.2732  0.3173
   69SAPC  C219 5909   2.934   3.603   4.880  0.2872 -0.2172  0.0293
   69SAPC  H19R 5910   2.995   3.510   4.890  0.7203 -0.1887 -1.9307
   69SAPC  H19S 5911   2.850   3.572   4.815 -1.1867 -0.0801  1.7821
   69SAPC  C220 5912   2.894   3.656   5.016  0.5861  0.1116 -0.7539
   69SAPC  H20R 5913   2.819   3.737   5.001 -1.8813 -2.0805 -1.0900
   69SAPC  H20S 5914   2.987   3.686   5.067  0.7142  0.9107 -1.4246
   69SAPC  H20T 5915   2.848   3.570   5.069 -1.9337  0.9970 -1.3609
   69SAPC   C33 5916   2.254   3.688   3.434 -0.5046  0.0025 -0.1947
   69SAPC   H3X 5917   2.216   3.589   3.401  0.2045 -0.2583 -0.2508
   69SAPC   H3Y 5918   2.194   3.765   3.382 -0.6278  1.3740  1.8866
   69SAPC   C34 5919   2.228   3.705   3.587 -1.0043 -0.7425 -0.7931
   69SAPC   H4X 5920   2.255   3.809   3.615 -0.2392 -1.4546  1.3147
   69SAPC   H4Y 5921   2.300   3.646   3.648  0.1333 -0.9314 -2.2672
   69SAPC   C35 5922   2.080   3.673   3.625  0.5208 -0.1415 -0.0018
   69SAPC   H5X 5923   2.066   3.570   3.584 -1.7831 -0.4634  1.4147
   69SAPC   H5Y 5924   2.017   3.753   3.579 -0.8163 -1.5644 -0.7744
   69SAPC   C36 5925   2.057   3.661   3.778  0.5362 -0.8546  0.0529
   69SAPC   H6X 5926   1.951   3.647   3.807  0.5604  1.2477  1.4247
   69SAPC   H6Y 5927   2.089   3.763   3.808  1.1328 -0.1402 -2.7288
   69SAPC   C37 5928   2.143   3.555   3.855  0.4602  0.6428 -0.3212
   69SAPC   H7X 5929   2.249   3.587   3.864  0.7394 -0.6553  1.9878
   69SAPC   H7Y 5930   2.141   3.457   3.803 -0.3655 -0.4368  1.6147
   69SAPC   C38 5931   2.079   3.547   3.992  0.0516 -0.3474  0.4116
   69SAPC   H8X 5932   2.134   3.463   4.040  0.6669 -0.2354 -0.0778
   69SAPC   H8Y 5933   1.969   3.534   3.993 -0.1861  1.3976  0.3618
   69SAPC   C39 5934   2.101   3.682   4.078  0.1805 -0.2872  0.4321
   69SAPC   H9X 5935   2.053   3.772   4.035  2.1665  0.5239 -0.2199
   69SAPC   H9Y 5936   2.211   3.699   4.086 -0.0975  1.9278  0.2483
   69SAPC  C310 5937   2.034   3.678   4.218  0.1700 -0.2980 -0.8240
   69SAPC  H10X 5938   2.073   3.594   4.278 -0.2364  0.9903  1.3736
   69SAPC  H10Y 5939   1.926   3.655   4.201 -0.0645 -0.2524  0.4710
   69SAPC  C311 5940   2.042   3.807   4.306  0.1544  0.5174 -0.4803
   69SAPC  H11X 5941   1.999   3.893   4.250 -2.3298 -0.7037 -0.5828
   69SAPC  H11Y 5942   2.148   3.837   4.320 -0.6827  2.3929  3.2689
   69SAPC  C312 5943   1.979   3.801   4.439  0.5968 -0.0292 -0.1387
   69SAPC  H12X 5944   2.033   3.729   4.504 -1.4565 -1.0507  0.4968
   69SAPC  H12Y 5945   1.874   3.767   4.433  0.8126 -0.6224 -0.8011
   69SAPC  C313 5946   1.977   3.948   4.486 -0.0423  1.1548 -0.0000
   69SAPC  H13X 5947   1.930   4.018   4.414 -0.6182  1.7654  0.9441
   69SAPC  H13Y 5948   2.082   3.982   4.494 -0.4441  3.0187 -1.7442
   69SAPC  C314 5949   1.899   3.963   4.622 -0.5347 -0.6043 -0.3959
   69SAPC  H14X 5950   1.809   3.899   4.612 -1.2292 -0.1168  2.0463
   69SAPC  H14Y 5951   1.865   4.067   4.639 -1.5323 -0.7977 -1.1253
   69SAPC  C315 5952   1.975   3.908   4.753  0.3821  0.4637  0.0196
   69SAPC  H15X 5953   2.076   3.955   4.763  0.1929  0.9764 -0.4393
   69SAPC  H15Y 5954   1.992   3.799   4.738  1.3367  0.3547  1.5697
   69SAPC  C316 5955   1.886   3.906   4.880  0.3924  0.1460 -0.5548
   69SAPC  H16X 5956   1.788   3.861   4.853 -1.7805  1.7826  3.5796
   69SAPC  H16Y 5957   1.872   4.011   4.915 -2.8504 -0.2147 -0.4415
   69SAPC  C317 5958   1.946   3.830   5.004 -0.2494  0.2397 -0.2533
   69SAPC  H17X 5959   1.892   3.869   5.093  1.3003  3.1513 -0.4643
   69SAPC  H17Y 5960   2.053   3.858   5.018  0.2044 -0.3661 -2.2186
   69SAPC  C318 5961   1.944   3.672   4.997 -0.7374 -0.1510  0.2670
   69SAPC  H18X 5962   1.840   3.635   4.986 -0.7560  0.2892 -1.3463
   69SAPC  H18Y 5963   2.001   3.635   5.084  1.3093  0.4981 -0.7172
   69SAPC  H18Z 5964   1.996   3.650   4.901 -0.2449 -0.4523  0.6036
   70SAPC     N 5965   0.607   0.231   2.345  0.2929  0.5767  0.0063
   70SAPC   C12 5966   0.650   0.222   2.492 -0.1366 -0.0094 -0.1510
   70SAPC  H12A 5967   0.611   0.305   2.549 -0.5906 -0.0492 -0.4003
   70SAPC  H12B 5968   0.754   0.251   2.500 -0.0312 -0.8098  1.9832
   70SAPC   C13 5969   0.460   0.220   2.330 -0.3595  0.4561  0.2738
   70SAPC  H13A 5970   0.430   0.210   2.227 -0.8241 -0.3163  0.4779
   70SAPC  H13B 5971   0.427   0.146   2.401 -0.1264 -0.3768 -0.4683
   70SAPC  H13C 5972   0.414   0.307   2.375 -2.1252 -1.0123  1.4549
   70SAPC   C14 5973   0.662   0.362   2.299 -0.1933 -0.5637 -0.4710
   70SAPC  H14A 5974   0.618   0.435   2.365 -2.5244 -0.8682 -1.5736
   70SAPC  H14B 5975   0.769   0.372   2.313 -0.4190  0.8690  0.4351
   70SAPC  H14C 5976   0.637   0.388   2.197  0.1248  0.5173 -0.2814
   70SAPC   C15 5977   0.664   0.122   2.264 -0.1755  0.0540  0.1594
   70SAPC  H15A 5978   0.631   0.024   2.297  0.5863 -0.4407 -0.5090
   70SAPC  H15B 5979   0.634   0.133   2.161  0.4332 -1.7451 -0.2369
   70SAPC  H15C 5980   0.771   0.119   2.261 -0.1865 -1.2157  0.4647
   70SAPC   C11 5981   0.621   0.087   2.553 -0.8162 -0.0867  1.1262
   70SAPC  H11A 5982   0.693   0.067   2.636  2.5663  0.9288 -1.3417
   70SAPC  H11B 5983   0.638   0.008   2.477  0.7005  1.0654  0.1979
   70SAPC     P 5984   0.419  -0.062   2.640 -0.0899 -0.0407 -0.1324
   70SAPC   O13 5985   0.287  -0.032   2.692  0.0431 -0.3177 -0.7292
   70SAPC   O14 5986   0.440  -0.146   2.519 -0.3438  0.2997  0.4033
   70SAPC   O12 5987   0.490   0.082   2.605  0.1669 -0.1374 -0.3543
   70SAPC   O11 5988   0.503  -0.121   2.755  0.2074 -0.5160 -0.3834
   70SAPC    C1 5989   0.496  -0.256   2.785 -0.4395  0.3802  0.8154
   70SAPC    HA 5990   0.491  -0.324   2.698 -0.3810  0.0014  1.1035
   70SAPC    HB 5991   0.584  -0.282   2.848  1.0482  0.4074 -1.1866
   70SAPC    C2 5992   0.375  -0.293   2.870 -0.2158 -0.0394 -0.3379
   70SAPC    HS 5993   0.287  -0.250   2.819  1.0071  2.4960 -0.4732
   70SAPC   O21 5994   0.396  -0.217   2.992  0.0898  0.3494  0.1223
   70SAPC   C21 5995   0.284  -0.212   3.060  0.0576  0.0376 -0.1781
   70SAPC   O22 5996   0.174  -0.243   3.020  0.6086 -0.4540 -0.6582
   70SAPC   C22 5997   0.305  -0.191   3.208 -0.2917 -0.1345 -0.0622
   70SAPC   H2R 5998   0.371  -0.101   3.210 -1.0238  0.4091  0.1566
   70SAPC   H2S 5999   0.210  -0.164   3.260 -0.3084  4.3282 -1.9211
   70SAPC    C3 6000   0.369  -0.449   2.904  0.1554 -0.0043 -0.9545
   70SAPC    HX 6001   0.376  -0.497   2.804 -3.0241  1.7388 -2.1467
   70SAPC    HY 6002   0.268  -0.460   2.948 -0.1143  2.8054 -0.7345
   70SAPC   O31 6003   0.480  -0.494   2.985  0.0109  0.3426 -0.1960
   70SAPC   C31 6004   0.450  -0.593   3.068  0.4264  0.4563 -0.2452
   70SAPC   O32 6005   0.341  -0.636   3.107 -0.3134 -0.0826  0.2805
   70SAPC   C32 6006   0.579  -0.655   3.129  0.6247  0.1486  0.1618
   70SAPC   H2X 6007   0.636  -0.589   3.198  1.6332  0.0499 -0.5439
   70SAPC   H2Y 6008   0.657  -0.661   3.050  0.3624 -0.0587 -0.0812
   70SAPC   C23 6009   0.375  -0.304   3.286  0.2583  0.5580 -1.0299
   70SAPC   H3R 6010   0.477  -0.319   3.243  0.0042 -0.9377 -1.1560
   70SAPC   H3S 6011   0.324  -0.402   3.282  0.3134  0.5011 -0.4699
   70SAPC   C24 6012   0.399  -0.271   3.447 -0.1646  0.2208 -0.1323
   70SAPC   H4R 6013   0.467  -0.183   3.452 -0.4663  0.5111 -0.8302
   70SAPC   H4S 6014   0.452  -0.359   3.489 -3.1031 -0.7382  1.8387
   70SAPC   C25 6015   0.279  -0.244   3.534 -0.0546  0.6244  0.0588
   70SAPC   H5R 6016   0.252  -0.138   3.537  1.1071  0.9096  1.6568
   70SAPC   C26 6017   0.210  -0.338   3.605 -1.0253 -0.3340  0.2433
   70SAPC   H6R 6018   0.111  -0.309   3.645 -1.3256 -0.6533 -0.2505
   70SAPC   C27 6019   0.244  -0.483   3.628  0.3477  0.5187 -0.5214
   70SAPC   H7R 6020   0.208  -0.491   3.733  2.1519  2.5068  0.3345
   70SAPC   H7S 6021   0.355  -0.488   3.639  0.2260 -1.0761  0.3719
   70SAPC   C28 6022   0.182  -0.589   3.537  0.1115  0.5101  0.3094
   70SAPC   H8R 6023   0.237  -0.613   3.445 -0.8132  1.6792 -0.5852
   70SAPC   C29 6024   0.069  -0.653   3.554 -0.6223 -0.2171  0.0400
   70SAPC   H9R 6025   0.046  -0.726   3.476 -0.4228  1.9278 -2.1566
   70SAPC  C210 6026  -0.031  -0.621   3.664  0.0275 -0.1291  0.1883
   70SAPC  H10R 6027   0.023  -0.619   3.761 -0.0841  4.4494  0.4021
   70SAPC  H10S 6028  -0.106  -0.702   3.673 -1.6743  1.5222  2.1591
   70SAPC  C211 6029  -0.116  -0.494   3.654 -0.6681  0.3591 -0.4821
   70SAPC  H11R 6030  -0.103  -0.445   3.556  1.4960  4.3342  1.5487
   70SAPC  C212 6031  -0.203  -0.447   3.752 -0.3332 -0.2072  0.4110
   70SAPC  H12R 6032  -0.274  -0.368   3.724 -0.3432 -0.2902  0.1990
   70SAPC  C213 6033  -0.216  -0.494   3.894  0.6097  0.3723  0.4453
   70SAPC  H13R 6034  -0.147  -0.580   3.906  0.9404  0.0947 -2.5800
   70SAPC  H13S 6035  -0.315  -0.540   3.914 -0.2056  1.8167 -0.0967
   70SAPC  C214 6036  -0.192  -0.386   3.992  0.4167  0.1339  0.2733
   70SAPC  H14R 6037  -0.284  -0.355   4.042 -0.3147 -0.1089 -0.8702
   70SAPC  C215 6038  -0.076  -0.348   4.045 -0.3900  0.2171  0.0982
   70SAPC  H15R 6039  -0.075  -0.265   4.117 -1.9806  0.1028  0.2771
   70SAPC  C216 6040   0.063  -0.396   4.004  0.4811 -0.3198  0.5625
   70SAPC  H16R 6041   0.060  -0.467   3.919 -1.8530  0.8352 -0.4197
   70SAPC  H16S 6042   0.111  -0.459   4.081  1.4122  0.2943  0.5032
   70SAPC  C217 6043   0.161  -0.285   3.954  0.5731  0.6894  0.1095
   70SAPC  H17R 6044   0.133  -0.224   3.866  0.6242  1.1392  0.4046
   70SAPC  H17S 6045   0.249  -0.342   3.918 -0.8681 -1.1947 -0.6204
   70SAPC  C218 6046   0.201  -0.191   4.065  0.4607 -0.3926 -0.7484
   70SAPC  H18R 6047   0.267  -0.255   4.127  4.0180  0.0169 -3.7493
   70SAPC  H18S 6048   0.110  -0.150   4.114  0.2437 -0.3919 -1.1436
   70SAPC  C219 6049   0.292  -0.072   4.015  0.4121 -0.1720 -0.0266
   70SAPC  H19R 6050   0.379  -0.117   3.964 -1.3943 -0.3308 -3.2513
   70SAPC  H19S 6051   0.328  -0.004   4.095 -0.2485  1.0762 -0.7433
   70SAPC  C220 6052   0.222   0.016   3.901  0.4480  1.0116  0.3922
   70SAPC  H20R 6053   0.296   0.095   3.875  0.5837  0.1455 -2.1387
   70SAPC  H20S 6054   0.135   0.072   3.940 -0.6121  0.3311 -0.8867
   70SAPC  H20T 6055   0.195  -0.039   3.808  1.6757 -1.0489  1.1923
   70SAPC   C33 6056   0.556  -0.791   3.191 -0.7776 -0.3668 -0.0113
   70SAPC   H3X 6057   0.645  -0.852   3.163  0.4836  0.5442  1.7721
   70SAPC   H3Y 6058   0.470  -0.843   3.144  0.4125 -2.3331 -0.1118
   70SAPC   C34 6059   0.530  -0.779   3.340  0.3454  0.3095  0.2937
   70SAPC   H4X 6060   0.431  -0.732   3.352 -0.9592 -1.9073 -0.9688
   70SAPC   H4Y 6061   0.610  -0.711   3.376 -0.2626  1.6277 -0.7567
   70SAPC   C35 6062   0.509  -0.912   3.413 -0.6258  0.6456  0.3806
   70SAPC   H5X 6063   0.598  -0.977   3.403 -0.4423  1.2064 -2.5901
   70SAPC   H5Y 6064   0.444  -0.977   3.352  1.0093  1.0029 -1.8647
   70SAPC   C36 6065   0.449  -0.899   3.547 -0.3270 -0.3986 -0.5036
   70SAPC   H6X 6066   0.430  -1.001   3.586 -1.3744  0.7925  2.4082
   70SAPC   H6Y 6067   0.344  -0.861   3.542 -1.0700 -2.2303  0.3426
   70SAPC   C37 6068   0.533  -0.817   3.650  0.0340 -0.0172 -0.3198
   70SAPC   H7X 6069   0.632  -0.862   3.675 -0.0109 -0.4270 -0.8686
   70SAPC   H7Y 6070   0.550  -0.714   3.613 -1.1054  0.6124  0.8318
   70SAPC   C38 6071   0.451  -0.813   3.777 -0.3015  0.4273 -0.5123
   70SAPC   H8X 6072   0.439  -0.913   3.825 -1.8152  0.6795 -0.2863
   70SAPC   H8Y 6073   0.347  -0.784   3.749 -0.6372  0.0751  0.3195
   70SAPC   C39 6074   0.493  -0.695   3.863  0.2465 -0.1152  0.2371
   70SAPC   H9X 6075   0.501  -0.611   3.790  0.9394 -0.6377 -0.2957
   70SAPC   H9Y 6076   0.596  -0.712   3.899 -0.4331 -2.2572  1.3171
   70SAPC  C310 6077   0.390  -0.671   3.976 -0.0733  0.7390  0.6356
   70SAPC  H10X 6078   0.354  -0.773   4.002 -2.4791  1.4927  0.4894
   70SAPC  H10Y 6079   0.308  -0.605   3.942 -1.5725 -2.3734 -2.3333
   70SAPC  C311 6080   0.457  -0.617   4.100  0.4242 -0.2780  0.4569
   70SAPC  H11X 6081   0.507  -0.518   4.090  0.7506 -0.1073  3.1427
   70SAPC  H11Y 6082   0.539  -0.676   4.146 -0.8979 -1.5256  1.3134
   70SAPC  C312 6083   0.346  -0.606   4.204 -1.2645 -0.1437  0.8829
   70SAPC  H12X 6084   0.329  -0.705   4.251 -0.8305 -1.4959 -1.6011
   70SAPC  H12Y 6085   0.257  -0.572   4.146  0.6417  1.7053 -1.1469
   70SAPC  C313 6086   0.392  -0.498   4.303  0.3408  0.7019 -0.0516
   70SAPC  H13X 6087   0.422  -0.412   4.239 -0.2046  0.4151 -0.7076
   70SAPC  H13Y 6088   0.476  -0.537   4.363 -0.8725 -2.5234 -0.2163
   70SAPC  C314 6089   0.276  -0.456   4.394  0.6579 -0.2645 -0.1281
   70SAPC  H14X 6090   0.221  -0.547   4.428  0.6696 -0.4337 -0.5525
   70SAPC  H14Y 6091   0.215  -0.389   4.330 -0.8505 -1.2440  0.2063
   70SAPC  C315 6092   0.311  -0.378   4.517  0.1367  0.8165 -0.5500
   70SAPC  H15X 6093   0.381  -0.293   4.501 -0.1073  1.0621 -0.3438
   70SAPC  H15Y 6094   0.350  -0.453   4.589  0.2824  2.8137  1.5702
   70SAPC  C316 6095   0.189  -0.310   4.582 -0.3522 -0.6207  0.3575
   70SAPC  H16X 6096   0.099  -0.375   4.581 -3.5134  3.3441 -0.0276
   70SAPC  H16Y 6097   0.162  -0.221   4.521 -3.2752 -0.3128  1.9219
   70SAPC  C317 6098   0.198  -0.256   4.720 -0.0072  0.6354  0.3214
   70SAPC  H17X 6099   0.241  -0.154   4.724  2.0376 -0.1690  0.1902
   70SAPC  H17Y 6100   0.263  -0.312   4.791 -0.2722  0.2229  0.2412
   70SAPC  C318 6101   0.065  -0.241   4.792 -0.2241 -0.6712 -0.2495
   70SAPC  H18X 6102   0.071  -0.205   4.897  2.4259  1.7056 -1.1034
   70SAPC  H18Y 6103   0.016  -0.340   4.800 -1.2267 -0.1448  0.2840
   70SAPC  H18Z 6104   0.004  -0.176   4.726 -0.7447 -0.3763  0.5074
   71SAPC     N 6105   3.865   4.619   2.968 -0.2821 -0.0363 -0.1373
   71SAPC   C12 6106   3.987   4.654   2.878  0.8226 -0.6588  0.4027
   71SAPC  H12A 6107   4.015   4.752   2.915 -0.9654 -0.4566  1.2881
   71SAPC  H12B 6108   3.954   4.663   2.776  1.4666 -0.2244  0.2263
   71SAPC   C13 6109   3.911   4.591   3.109  0.0560  0.9798  0.7155
   71SAPC  H13A 6110   3.831   4.591   3.181 -1.9764  1.0471 -1.4183
   71SAPC  H13B 6111   3.957   4.493   3.112  0.8731  1.3223 -0.1200
   71SAPC  H13C 6112   3.982   4.660   3.153  2.1307 -1.4864  1.4743
   71SAPC   C14 6113   3.757   4.726   2.952 -0.4297  0.4977  0.6628
   71SAPC  H14A 6114   3.670   4.714   3.014 -1.4573 -1.2806 -1.0263
   71SAPC  H14B 6115   3.797   4.826   2.964  2.9868 -0.6933  0.3188
   71SAPC  H14C 6116   3.718   4.723   2.852 -1.5352 -1.0821  1.1095
   71SAPC   C15 6117   3.806   4.491   2.909 -1.1549  0.1214  0.7327
   71SAPC  H15A 6118   3.712   4.467   2.957 -1.1844 -0.4884  0.3876
   71SAPC  H15B 6119   3.784   4.509   2.804 -0.4347  2.3491  0.9192
   71SAPC  H15C 6120   3.876   4.409   2.911  0.5890  1.5031 -0.4340
   71SAPC   C11 6121   4.110   4.554   2.876  0.3654 -0.6601  0.6221
   71SAPC  H11A 6122   4.144   4.540   2.981 -0.3846 -1.0971  0.8183
   71SAPC  H11B 6123   4.190   4.606   2.819  0.0806 -0.2616  0.5832
   71SAPC     P 6124   4.201   4.335   2.785  0.3285 -0.4241 -0.2266
   71SAPC   O13 6125   4.170   4.272   2.655  0.2061  0.6047 -0.6233
   71SAPC   O14 6126   4.326   4.409   2.808  0.8279  0.5484 -0.0922
   71SAPC   O12 6127   4.080   4.425   2.828 -0.0558  0.1129  0.2456
   71SAPC   O11 6128   4.186   4.225   2.898  0.0558  0.7491  0.5605
   71SAPC    C1 6129   4.059   4.171   2.936  0.0429 -0.2690  0.3210
   71SAPC    HA 6130   3.970   4.215   2.886  0.3763  1.6389  1.3282
   71SAPC    HB 6131   4.059   4.064   2.906 -4.3489 -0.6392  0.8710
   71SAPC    C2 6132   4.040   4.192   3.087  0.1920  0.1021 -0.3970
   71SAPC    HS 6133   4.023   4.302   3.092  2.4985  0.5569 -1.0586
   71SAPC   O21 6134   4.153   4.150   3.167  0.1957  0.0599  0.0984
   71SAPC   C21 6135   4.237   4.238   3.214  0.0327 -0.2605  0.2407
   71SAPC   O22 6136   4.234   4.360   3.200  0.7283 -0.4759 -0.4633
   71SAPC   C22 6137   4.340   4.174   3.301 -0.0540  0.1769 -0.8885
   71SAPC   H2R 6138   4.300   4.090   3.363 -2.6508  0.4818 -2.0176
   71SAPC   H2S 6139   4.414   4.134   3.229  0.9356 -0.2152  0.3048
   71SAPC    C3 6140   3.910   4.129   3.150  0.1302 -0.1309 -0.1535
   71SAPC    HX 6141   3.908   4.021   3.127  2.6567 -0.1036 -0.8823
   71SAPC    HY 6142   3.829   4.182   3.096  1.4508  1.5686 -0.5790
   71SAPC   O31 6143   3.886   4.168   3.285  0.3664  0.3417  0.2812
   71SAPC   C31 6144   3.921   4.076   3.383  0.2186 -0.4199  0.1202
   71SAPC   O32 6145   3.973   3.970   3.347 -0.4420 -0.1686  0.2122
   71SAPC   C32 6146   3.906   4.131   3.518  0.2359 -0.0774 -0.1465
   71SAPC   H2X 6147   3.941   4.050   3.585  1.7386 -2.1178 -3.2009
   71SAPC   H2Y 6148   3.799   4.148   3.543  1.3356  2.1459  3.7991
   71SAPC   C23 6149   4.425   4.274   3.392  0.1044 -0.2232  0.2425
   71SAPC   H3R 6150   4.359   4.312   3.473  1.8635  0.2096  1.5308
   71SAPC   H3S 6151   4.449   4.366   3.334  0.9365 -0.3239  0.4156
   71SAPC   C24 6152   4.556   4.223   3.444  0.1469  0.2286  0.0462
   71SAPC   H4R 6153   4.612   4.307   3.491 -1.5053 -0.9055  4.5356
   71SAPC   H4S 6154   4.626   4.188   3.366  0.3290  0.9533 -0.1313
   71SAPC   C25 6155   4.533   4.115   3.548  0.0658 -0.9012  0.2479
   71SAPC   H5R 6156   4.476   4.029   3.509 -1.9389  2.0595 -4.1369
   71SAPC   C26 6157   4.558   4.125   3.683  0.2279 -0.3287  0.4810
   71SAPC   H6R 6158   4.521   4.041   3.744 -2.2959  1.9014  2.3005
   71SAPC   C27 6159   4.626   4.240   3.753 -0.1083  0.7343  0.5083
   71SAPC   H7R 6160   4.562   4.268   3.840 -1.9820  2.3061 -1.2646
   71SAPC   H7S 6161   4.624   4.333   3.692 -0.7673  1.6416  1.8741
   71SAPC   C28 6162   4.770   4.217   3.806  0.3578 -0.3384  0.2619
   71SAPC   H8R 6163   4.839   4.194   3.723  0.7440 -2.0095  1.0143
   71SAPC   C29 6164   4.824   4.218   3.928 -0.7897 -0.9699  0.5651
   71SAPC   H9R 6165   4.932   4.205   3.945 -0.6839  0.5775  1.1749
   71SAPC  C210 6166   4.757   4.252   4.056 -1.0103  0.8672  0.3904
   71SAPC  H10R 6167   4.649   4.239   4.036 -0.7620  1.3636 -1.4448
   71SAPC  H10S 6168   4.775   4.359   4.082  0.3042  1.0182 -1.0221
   71SAPC  C211 6169   4.796   4.151   4.169  0.4486  0.5979  0.4181
   71SAPC  H11R 6170   4.819   4.049   4.136 -4.3737 -0.8560  0.7011
   71SAPC  C212 6171   4.791   4.170   4.299  0.7023  0.6784  0.0753
   71SAPC  H12R 6172   4.821   4.081   4.355  0.2352 -0.0491 -0.7990
   71SAPC  C213 6173   4.765   4.297   4.374 -0.2498 -0.2432 -0.4152
   71SAPC  H13R 6174   4.708   4.280   4.468  0.0873  2.4497  0.3453
   71SAPC  H13S 6175   4.710   4.371   4.313  0.9748  0.4986 -0.6489
   71SAPC  C214 6176   4.894   4.365   4.430 -0.1226  0.2844  0.2007
   71SAPC  H14R 6177   4.964   4.399   4.352  0.7165 -1.7751 -0.0029
   71SAPC  C215 6178   4.936   4.385   4.560 -0.7980 -0.4543  0.6973
   71SAPC  H15R 6179   5.028   4.441   4.582 -1.2795 -0.1157  1.9437
   71SAPC  C216 6180   4.859   4.351   4.685 -0.0787  0.1255  0.5729
   71SAPC  H16R 6181   4.751   4.372   4.668 -1.2517 -3.1000  2.9057
   71SAPC  H16S 6182   4.886   4.416   4.770 -1.8381  1.9591 -0.1866
   71SAPC  C217 6183   4.886   4.209   4.740  0.2553  0.2771  0.0347
   71SAPC  H17R 6184   4.993   4.204   4.769 -0.0145  0.9198  1.1755
   71SAPC  H17S 6185   4.863   4.133   4.662 -1.1379 -0.7860  1.4329
   71SAPC  C218 6186   4.810   4.178   4.873 -0.0457 -0.2683 -0.2219
   71SAPC  H18R 6187   4.701   4.174   4.848 -0.3045  1.2876  0.5150
   71SAPC  H18S 6188   4.814   4.265   4.942  0.0555  1.1890 -1.9987
   71SAPC  C219 6189   4.845   4.045   4.942 -0.2173  1.1148  0.2230
   71SAPC  H19R 6190   4.937   4.067   5.001 -0.7497  2.1331  0.6879
   71SAPC  H19S 6191   4.863   3.966   4.866  1.3283  0.4883  1.1765
   71SAPC  C220 6192   4.741   4.002   5.043 -0.1572  0.4490 -0.0129
   71SAPC  H20R 6193   4.745   4.070   5.131 -0.1281  1.9697 -1.1633
   71SAPC  H20S 6194   4.763   3.899   5.080  1.0086  0.3087 -1.0403
   71SAPC  H20T 6195   4.641   4.000   4.995 -0.6405 -2.0326  0.9099
   71SAPC   C33 6196   3.986   4.262   3.549 -0.1653  0.0704  1.4606
   71SAPC   H3X 6197   3.918   4.341   3.586  1.7991  2.3562  0.4237
   71SAPC   H3Y 6198   4.023   4.313   3.457  0.9759  0.0525  1.8878
   71SAPC   C34 6199   4.106   4.242   3.638 -0.2089  0.1470  0.4247
   71SAPC   H4X 6200   4.174   4.327   3.618 -0.1763  0.0241 -0.0096
   71SAPC   H4Y 6201   4.164   4.152   3.609  0.9920  1.1625 -0.3967
   71SAPC   C35 6202   4.061   4.241   3.787 -0.4368 -0.0267 -0.3806
   71SAPC   H5X 6203   3.988   4.157   3.785  0.3716 -0.7254 -1.6632
   71SAPC   H5Y 6204   4.017   4.335   3.825 -0.8615 -0.7605  1.0111
   71SAPC   C36 6205   4.192   4.223   3.879  0.1581 -0.4235 -0.1297
   71SAPC   H6X 6206   4.251   4.315   3.859  0.7728 -0.9456 -0.7683
   71SAPC   H6Y 6207   4.247   4.132   3.846 -0.8016 -0.7261 -0.9573
   71SAPC   C37 6208   4.160   4.204   4.027  0.0227 -0.7533 -0.8735
   71SAPC   H7X 6209   4.112   4.106   4.045 -0.2691 -0.3612  0.6390
   71SAPC   H7Y 6210   4.103   4.292   4.064  0.3631 -1.6956  2.2104
   71SAPC   C38 6211   4.287   4.216   4.117 -0.6006  0.3106 -0.0546
   71SAPC   H8X 6212   4.348   4.303   4.085  0.8854 -0.8015 -0.3673
   71SAPC   H8Y 6213   4.355   4.128   4.107  0.7005  1.4280 -1.7432
   71SAPC   C39 6214   4.240   4.227   4.259  0.8265 -0.5269  0.4228
   71SAPC   H9X 6215   4.184   4.133   4.277  0.5634 -0.1750  1.4750
   71SAPC   H9Y 6216   4.167   4.310   4.269  0.5797 -0.7063  0.1493
   71SAPC  C310 6217   4.361   4.243   4.348  0.0409 -0.8163 -0.1804
   71SAPC  H10X 6218   4.409   4.340   4.322  0.3213 -1.5315 -2.5309
   71SAPC  H10Y 6219   4.446   4.175   4.324  1.1446 -0.4885  2.4277
   71SAPC  C311 6220   4.329   4.242   4.495 -0.0448 -0.4961 -0.5308
   71SAPC  H11X 6221   4.312   4.134   4.515  0.2761 -0.1889  1.6491
   71SAPC  H11Y 6222   4.229   4.287   4.513  0.0617 -0.1848 -0.7161
   71SAPC  C312 6223   4.436   4.304   4.590 -0.3895  0.1070  0.1260
   71SAPC  H12X 6224   4.491   4.389   4.545  0.6537  0.3738  1.7868
   71SAPC  H12Y 6225   4.512   4.224   4.601  0.1108  0.7872  2.2617
   71SAPC  C313 6226   4.368   4.346   4.726 -0.1329 -0.0881  0.7079
   71SAPC  H13X 6227   4.313   4.252   4.748  0.3586 -0.6508 -0.4005
   71SAPC  H13Y 6228   4.295   4.428   4.711 -0.5725 -0.8795 -2.0567
   71SAPC  C314 6229   4.467   4.375   4.829  0.2989  0.5905 -0.7443
   71SAPC  H14X 6230   4.518   4.472   4.814  1.5159  0.2571  0.9702
   71SAPC  H14Y 6231   4.546   4.298   4.827 -1.3372 -1.1801 -3.1823
   71SAPC  C315 6232   4.398   4.369   4.962 -1.1755 -0.5400  0.4816
   71SAPC  H15X 6233   4.372   4.262   4.977  3.4261 -1.6783  2.0199
   71SAPC  H15Y 6234   4.303   4.426   4.948 -0.9592  0.0853  1.4891
   71SAPC  C316 6235   4.483   4.414   5.079 -0.6038  0.4344 -0.1279
   71SAPC  H16X 6236   4.518   4.517   5.056 -2.8715  1.0627 -1.0273
   71SAPC  H16Y 6237   4.578   4.356   5.078 -1.5342 -1.1839  0.3140
   71SAPC  C317 6238   4.410   4.410   5.218  0.0684  0.8255  0.1172
   71SAPC  H17X 6239   4.361   4.310   5.220  1.1403  0.2883  1.8074
   71SAPC  H17Y 6240   4.333   4.489   5.220  0.0790  0.8375  0.0598
   71SAPC  C318 6241   4.502   4.419   5.336  0.5579  0.0593 -0.0269
   71SAPC  H18X 6242   4.441   4.415   5.429  1.4465  0.1898  0.5847
   71SAPC  H18Y 6243   4.554   4.516   5.320 -0.6733  0.5767 -1.0485
   71SAPC  H18Z 6244   4.578   4.338   5.339  2.1019  1.4718  1.5375
   72SAPC     N 6245   3.855   1.399   2.779 -0.2631 -0.6308 -0.2730
   72SAPC   C12 6246   3.847   1.458   2.923 -0.3068 -0.0761  0.4106
   72SAPC  H12A 6247   3.749   1.504   2.931 -1.3614 -1.8777 -1.1696
   72SAPC  H12B 6248   3.909   1.545   2.939 -0.5165 -0.2996  2.7876
   72SAPC   C13 6249   3.984   1.334   2.756 -0.5153 -0.7954  0.7388
   72SAPC  H13A 6250   4.063   1.407   2.766 -1.1051  0.1193 -0.9624
   72SAPC  H13B 6251   4.012   1.259   2.829  3.7123 -0.6860 -0.5044
   72SAPC  H13C 6252   3.986   1.286   2.659  0.9795 -0.4492  0.5773
   72SAPC   C14 6253   3.749   1.293   2.745 -0.1033  0.3519  0.3003
   72SAPC  H14A 6254   3.784   1.235   2.661 -1.2301 -2.1592  1.4908
   72SAPC  H14B 6255   3.739   1.228   2.830 -2.3052  0.5866  0.2813
   72SAPC  H14C 6256   3.652   1.332   2.719 -0.8771 -0.4069  1.9260
   72SAPC   C15 6257   3.854   1.507   2.682 -0.1392 -0.0158  0.8943
   72SAPC  H15A 6258   3.881   1.470   2.584 -1.8839  0.4822  0.1850
   72SAPC  H15B 6259   3.770   1.575   2.669 -0.8260 -0.9836  0.0633
   72SAPC  H15C 6260   3.934   1.577   2.701 -1.2509  2.0072 -1.2171
   72SAPC   C11 6261   3.865   1.355   3.042 -0.8702  0.9418  0.2060
   72SAPC  H11A 6262   3.874   1.404   3.141 -1.3781  0.4424  0.5083
   72SAPC  H11B 6263   3.959   1.299   3.025 -0.7440  0.6508  1.7364
   72SAPC     P 6264   3.773   1.114   3.072  0.1581  0.0638  0.1946
   72SAPC   O13 6265   3.635   1.071   3.115 -0.0285 -0.4285 -0.3720
   72SAPC   O14 6266   3.832   1.042   2.956 -1.0344 -0.2315  0.1013
   72SAPC   O12 6267   3.757   1.265   3.032 -0.1549 -0.1194  0.3851
   72SAPC   O11 6268   3.864   1.123   3.201 -0.2623 -0.4248  0.3403
   72SAPC    C1 6269   3.819   1.193   3.318  0.2947  0.7238  0.0756
   72SAPC    HA 6270   3.899   1.263   3.349  0.2739  1.0313 -0.5605
   72SAPC    HB 6271   3.723   1.247   3.304  0.4838  0.9370 -0.4330
   72SAPC    C2 6272   3.813   1.095   3.436  0.2980 -0.4982 -0.0846
   72SAPC    HS 6273   3.723   1.032   3.420 -0.3260  0.6194 -1.0727
   72SAPC   O21 6274   3.802   1.177   3.558  0.2097 -0.2331  0.4591
   72SAPC   C21 6275   3.715   1.125   3.643  0.1263 -0.0714 -0.4281
   72SAPC   O22 6276   3.634   1.038   3.625 -0.2065 -0.1573 -0.3195
   72SAPC   C22 6277   3.729   1.215   3.772 -0.0559  0.3237 -0.3950
   72SAPC   H2R 6278   3.822   1.275   3.759 -0.7032  1.8539  1.6512
   72SAPC   H2S 6279   3.636   1.275   3.767 -1.4306 -1.5724  1.0025
   72SAPC    C3 6280   3.937   0.998   3.439 -0.2776 -1.2719 -0.1590
   72SAPC    HX 6281   4.020   1.070   3.426 -1.0478 -0.5991 -1.6881
   72SAPC    HY 6282   3.925   0.936   3.347  0.0311 -1.3940 -0.1173
   72SAPC   O31 6283   3.951   0.926   3.563  0.2857  0.4021  0.3871
   72SAPC   C31 6284   3.859   0.830   3.585 -0.1057 -0.2848  0.0495
   72SAPC   O32 6285   3.787   0.787   3.498 -0.3132  0.2819 -0.7946
   72SAPC   C32 6286   3.841   0.803   3.736  0.2161 -0.3315  0.6039
   72SAPC   H2X 6287   3.885   0.884   3.798 -1.1234  2.2297 -1.5896
   72SAPC   H2Y 6288   3.904   0.712   3.742  1.7318  0.5227 -1.3513
   72SAPC   C23 6289   3.731   1.132   3.898 -0.0806  0.5602 -0.7685
   72SAPC   H3R 6290   3.827   1.080   3.917 -1.3552 -2.4523 -1.8364
   72SAPC   H3S 6291   3.651   1.055   3.905  0.7287 -0.4194 -1.8742
   72SAPC   C24 6292   3.712   1.220   4.028  1.1513 -0.4656  0.1354
   72SAPC   H4R 6293   3.766   1.317   4.024  0.8860 -0.3560 -1.2590
   72SAPC   H4S 6294   3.767   1.171   4.111 -0.1498 -0.5586  0.9676
   72SAPC   C25 6295   3.569   1.257   4.059 -0.6524 -0.1008  0.0208
   72SAPC   H5R 6296   3.508   1.293   3.975  0.6812  1.0532 -0.5209
   72SAPC   C26 6297   3.523   1.264   4.184 -0.4311 -0.0664 -0.1701
   72SAPC   H6R 6298   3.416   1.280   4.202 -0.4012 -1.9591  2.2202
   72SAPC   C27 6299   3.607   1.229   4.314  0.3272 -0.7545  0.1206
   72SAPC   H7R 6300   3.681   1.309   4.335 -1.6609  1.0245  0.6643
   72SAPC   H7S 6301   3.669   1.137   4.300 -0.0671 -1.0744  0.4605
   72SAPC   C28 6302   3.510   1.223   4.430  0.3252 -0.3716 -0.4048
   72SAPC   H8R 6303   3.464   1.124   4.447  0.6902 -0.2627  1.4379
   72SAPC   C29 6304   3.488   1.309   4.531 -0.0894 -0.1858 -0.5038
   72SAPC   H9R 6305   3.403   1.297   4.600 -0.3813 -0.5267 -0.9180
   72SAPC  C210 6306   3.560   1.444   4.535  0.2068  0.1854 -0.0283
   72SAPC  H10R 6307   3.547   1.497   4.438 -3.0342 -1.5241 -0.6735
   72SAPC  H10S 6308   3.667   1.419   4.552 -0.3395 -1.7411  0.7642
   72SAPC  C211 6309   3.514   1.521   4.653  0.0630  0.5676  0.1177
   72SAPC  H11R 6310   3.580   1.535   4.740 -3.2599  3.3229  2.4769
   72SAPC  C212 6311   3.401   1.591   4.655 -0.2066  0.1524 -0.5916
   72SAPC  H12R 6312   3.374   1.652   4.742 -0.2700 -1.1114  0.2968
   72SAPC  C213 6313   3.306   1.608   4.541 -0.5238 -0.2089  0.4000
   72SAPC  H13R 6314   3.215   1.654   4.583 -0.6768  0.7452 -0.9248
   72SAPC  H13S 6315   3.277   1.509   4.500  0.8016 -1.4619  2.3051
   72SAPC  C214 6316   3.341   1.709   4.433  0.1898  1.1463  0.3471
   72SAPC  H14R 6317   3.418   1.781   4.463  0.4251  0.3170  1.8873
   72SAPC  C215 6318   3.295   1.710   4.304 -0.4203 -0.9149  0.3903
   72SAPC  H15R 6319   3.338   1.782   4.232 -2.1467  0.3840  0.5997
   72SAPC  C216 6320   3.192   1.618   4.235 -0.0698  0.4102  0.3639
   72SAPC  H16R 6321   3.101   1.664   4.192 -0.8003 -2.0747 -0.9936
   72SAPC  H16S 6322   3.141   1.556   4.312  2.3977 -0.9443  1.0224
   72SAPC  C217 6323   3.247   1.533   4.120 -0.0710  0.3227 -1.2129
   72SAPC  H17R 6324   3.165   1.463   4.098 -0.9376  0.4993  1.2125
   72SAPC  H17S 6325   3.336   1.476   4.154  0.3942  0.6342 -1.8739
   72SAPC  C218 6326   3.280   1.623   4.004 -0.5722 -0.3888 -0.6980
   72SAPC  H18R 6327   3.376   1.676   4.021  0.3022 -1.7235 -1.3261
   72SAPC  H18S 6328   3.209   1.709   4.001  0.6342  0.6785  0.1402
   72SAPC  C219 6329   3.304   1.553   3.868  0.0883  0.5365 -0.4426
   72SAPC  H19R 6330   3.362   1.460   3.885 -2.5682 -1.3219 -0.9425
   72SAPC  H19S 6331   3.360   1.635   3.817  3.9051 -2.1429 -1.0062
   72SAPC  C220 6332   3.176   1.524   3.781 -0.8318 -0.4174  0.1137
   72SAPC  H20R 6333   3.101   1.605   3.787 -1.0244 -0.5192 -0.8152
   72SAPC  H20S 6334   3.127   1.438   3.832 -0.0483 -0.2461  1.2022
   72SAPC  H20T 6335   3.194   1.489   3.678 -1.8433  0.8600 -0.5179
   72SAPC   C33 6336   3.711   0.743   3.792  0.4414  0.1787 -0.4841
   72SAPC   H3X 6337   3.676   0.667   3.719 -0.7634  1.6544 -1.4977
   72SAPC   H3Y 6338   3.629   0.818   3.790  0.3542  0.0757 -0.7709
   72SAPC   C34 6339   3.743   0.691   3.938 -0.6647 -0.2601  0.1619
   72SAPC   H4X 6340   3.842   0.641   3.930  0.1623  0.7707  2.9199
   72SAPC   H4Y 6341   3.674   0.604   3.949  1.5637 -1.9709  1.6071
   72SAPC   C35 6342   3.746   0.797   4.045 -0.4402  0.8911 -0.0265
   72SAPC   H5X 6343   3.644   0.833   4.067  0.4620  3.6813 -0.0299
   72SAPC   H5Y 6344   3.804   0.885   4.008 -1.5747  1.6200 -0.0982
   72SAPC   C36 6345   3.807   0.724   4.172 -0.5071  0.0894  0.0395
   72SAPC   H6X 6346   3.917   0.711   4.158 -0.4145 -0.4621  1.1481
   72SAPC   H6Y 6347   3.758   0.625   4.170  0.8898 -0.6183 -1.4492
   72SAPC   C37 6348   3.774   0.774   4.314  0.3174  0.2490  0.4200
   72SAPC   H7X 6349   3.672   0.743   4.345  0.6421 -1.8026 -0.3752
   72SAPC   H7Y 6350   3.796   0.882   4.324  2.5161  0.0074 -0.9707
   72SAPC   C38 6351   3.887   0.712   4.403 -0.0137 -0.2162 -0.1213
   72SAPC   H8X 6352   3.970   0.786   4.403  0.1235 -0.3316  1.8571
   72SAPC   H8Y 6353   3.918   0.616   4.356  1.4813  0.0333  0.3138
   72SAPC   C39 6354   3.844   0.678   4.556 -0.0733  0.1873 -0.5870
   72SAPC   H9X 6355   3.789   0.762   4.603 -0.5243  1.6443 -3.5036
   72SAPC   H9Y 6356   3.935   0.658   4.617 -0.7247 -2.0001 -0.2669
   72SAPC  C310 6357   3.757   0.546   4.563 -0.9803 -0.2132  0.1787
   72SAPC  H10X 6358   3.823   0.463   4.530 -2.0789 -0.9727 -0.1496
   72SAPC  H10Y 6359   3.675   0.572   4.492 -0.0228  2.2082 -0.1263
   72SAPC  C311 6360   3.687   0.526   4.700 -0.3089  0.1094  0.7342
   72SAPC  H11X 6361   3.617   0.610   4.717 -2.6486 -1.9553  1.9434
   72SAPC  H11Y 6362   3.763   0.535   4.781 -0.0424 -1.5402  0.7056
   72SAPC  C312 6363   3.599   0.394   4.711 -0.0992  0.2176  0.5114
   72SAPC  H12X 6364   3.660   0.306   4.684  0.9062  0.3486  2.2147
   72SAPC  H12Y 6365   3.520   0.421   4.637  0.2683  1.6136  0.5899
   72SAPC  C313 6366   3.529   0.365   4.848 -0.2963 -0.3837  0.1267
   72SAPC  H13X 6367   3.605   0.349   4.928  0.8813  0.0344 -0.8953
   72SAPC  H13Y 6368   3.484   0.264   4.836 -2.1285  0.4135  0.0025
   72SAPC  C314 6369   3.427   0.468   4.897 -0.2267 -0.9852 -0.0969
   72SAPC  H14X 6370   3.476   0.566   4.883 -0.3563 -1.0319 -0.8937
   72SAPC  H14Y 6371   3.417   0.460   5.008 -0.7547 -0.2924 -0.0883
   72SAPC  C315 6372   3.290   0.467   4.814  0.1172 -0.9767 -0.9861
   72SAPC  H15X 6373   3.315   0.508   4.714  1.2496  0.4830 -0.1426
   72SAPC  H15Y 6374   3.233   0.541   4.873  2.6251  0.2313  0.0912
   72SAPC  C316 6375   3.205   0.341   4.818  0.2170 -0.4230  0.8359
   72SAPC  H16X 6376   3.249   0.259   4.757 -1.9373 -0.9216 -0.1433
   72SAPC  H16Y 6377   3.113   0.367   4.761  2.9286  1.5552 -3.1425
   72SAPC  C317 6378   3.172   0.284   4.959 -0.2034  0.2344 -0.4514
   72SAPC  H17X 6379   3.116   0.369   5.004  1.1479  2.1173 -2.1175
   72SAPC  H17Y 6380   3.265   0.262   5.017  0.5483 -1.2299 -2.1390
   72SAPC  C318 6381   3.090   0.157   4.964 -0.0958 -0.2508  0.2566
   72SAPC  H18X 6382   3.158   0.073   4.940  3.5341  2.0725  1.6309
   72SAPC  H18Y 6383   3.006   0.161   4.891 -0.3311  0.7624  0.5677
   72SAPC  H18Z 6384   3.052   0.138   5.067  2.0887 -0.3165  1.1016
   73SLPC     N 6385   4.596   3.534   7.664  0.4793  0.0796  0.4475
   73SLPC   C13 6386   4.672   3.660   7.659  0.4837 -0.0965 -1.1468
   73SLPC  H13A 6387   4.779   3.653   7.661  0.5931  0.9180  1.6916
   73SLPC  H13B 6388   4.639   3.712   7.570  0.1171  0.7156 -0.5506
   73SLPC  H13C 6389   4.642   3.715   7.747 -0.7225 -0.0842 -1.5403
   73SLPC   C14 6390   4.447   3.555   7.674 -0.0300 -0.4989 -0.8136
   73SLPC  H14A 6391   4.405   3.455   7.675 -1.5687  0.0994  1.2073
   73SLPC  H14B 6392   4.431   3.606   7.768  3.9214  1.6761 -1.0976
   73SLPC  H14C 6393   4.406   3.618   7.596 -1.8014 -2.2319 -1.3635
   73SLPC   C15 6394   4.635   3.472   7.793 -0.2367 -0.1103 -0.4370
   73SLPC  H15A 6395   4.627   3.538   7.878  3.3229 -2.2624  1.8519
   73SLPC  H15B 6396   4.560   3.397   7.813 -0.4970  0.3287  0.2562
   73SLPC  H15C 6397   4.739   3.441   7.802 -0.5650 -0.9863  0.5831
   73SLPC   C12 6398   4.630   3.443   7.545 -0.1484  0.0134 -0.0606
   73SLPC  H12A 6399   4.733   3.413   7.548 -0.2428 -0.2943  0.1511
   73SLPC  H12B 6400   4.626   3.492   7.449  0.9133 -1.9495 -1.1612
   73SLPC   C11 6401   4.559   3.310   7.520  0.2966 -0.0347 -0.8154
   73SLPC  H11A 6402   4.457   3.335   7.484  0.7331  1.2500 -1.2283
   73SLPC  H11B 6403   4.560   3.258   7.618  1.0361 -1.8203 -1.7214
   73SLPC     P 6404   4.582   3.099   7.375 -0.1043 -0.3445  0.1295
   73SLPC   O13 6405   4.574   3.002   7.486  0.0638  0.4348  0.2650
   73SLPC   O14 6406   4.461   3.115   7.290 -0.0419  0.0200  0.1552
   73SLPC   O12 6407   4.641   3.234   7.424  0.5328 -0.1878  0.1993
   73SLPC   O11 6408   4.695   3.062   7.275 -0.3529  0.4158  0.1177
   73SLPC    C1 6409   4.758   3.159   7.195 -0.7365 -0.3417 -0.5802
   73SLPC    HA 6410   4.701   3.254   7.183 -1.1018 -0.2830  1.2933
   73SLPC    HB 6411   4.847   3.202   7.245 -2.5319  1.5423  1.1963
   73SLPC    C2 6412   4.786   3.092   7.060 -0.3545  0.9690 -0.2912
   73SLPC    HS 6413   4.836   3.159   6.987 -1.1259  1.6535 -0.1952
   73SLPC   O21 6414   4.664   3.036   7.001  0.7761 -0.4604 -0.0583
   73SLPC   C21 6415   4.592   3.124   6.933  0.7277  0.3178 -0.7856
   73SLPC   O22 6416   4.615   3.243   6.931  0.4272 -0.0150 -0.1383
   73SLPC   C22 6417   4.463   3.062   6.888  0.2101  0.1611  0.6402
   73SLPC   H2R 6418   4.491   2.961   6.852  0.2549  0.9628 -1.7915
   73SLPC   H2S 6419   4.394   3.054   6.974  0.2990 -1.0173  0.6098
   73SLPC    C3 6420   4.896   2.981   7.075 -0.0075 -0.1887 -0.7601
   73SLPC    HX 6421   4.892   2.929   7.173  3.5184  0.9460  0.1323
   73SLPC    HY 6422   4.998   3.022   7.091  0.2663 -0.0501 -2.6112
   73SLPC   O31 6423   4.902   2.893   6.959  0.4717  0.5527 -0.3973
   73SLPC   C31 6424   4.836   2.781   6.960 -0.4487 -0.0929  0.0265
   73SLPC   O32 6425   4.786   2.730   7.057  0.4570  0.3800 -0.6112
   73SLPC   C32 6426   4.835   2.725   6.819  0.2825 -0.2373  0.4673
   73SLPC   H2X 6427   4.734   2.678   6.822  0.4309 -0.6355 -0.3243
   73SLPC   H2Y 6428   4.918   2.651   6.815 -0.6209 -1.2902  0.5761
   73SLPC   C23 6429   4.387   3.137   6.773  0.3887 -0.1867 -0.0714
   73SLPC   H3R 6430   4.454   3.145   6.685  0.0672  3.3689 -0.1331
   73SLPC   H3S 6431   4.382   3.244   6.803 -1.2550 -0.6676  1.5027
   73SLPC   C24 6432   4.250   3.088   6.733 -0.1459  0.2679  0.6830
   73SLPC   H4R 6433   4.186   3.085   6.824 -0.4579 -2.2810  0.4642
   73SLPC   H4S 6434   4.256   2.983   6.698  1.0617  0.6727 -0.3936
   73SLPC   C25 6435   4.183   3.166   6.615 -0.8990 -0.5743  0.3676
   73SLPC   H5R 6436   4.254   3.168   6.530 -1.4960 -0.6737 -0.1424
   73SLPC   H5S 6437   4.179   3.266   6.663  1.9286  0.0925 -0.6186
   73SLPC   C26 6438   4.043   3.132   6.573 -0.7390 -0.6297  0.1038
   73SLPC   H6R 6439   4.019   3.218   6.506 -0.7093 -0.0335  0.8419
   73SLPC   H6S 6440   3.974   3.127   6.660 -1.1874  0.9750 -0.1221
   73SLPC   C27 6441   4.042   3.002   6.493 -0.2331  0.3669 -0.4244
   73SLPC   H7R 6442   4.086   2.926   6.562 -2.2499 -0.0794  0.4269
   73SLPC   H7S 6443   4.100   3.006   6.398 -1.5386  0.8718 -1.2179
   73SLPC   C28 6444   3.896   2.960   6.473  0.0077 -0.2042  0.4053
   73SLPC   H8R 6445   3.844   3.050   6.436  0.1510 -0.3334 -0.1316
   73SLPC   H8S 6446   3.863   2.925   6.573  1.5829 -2.7937  0.1159
   73SLPC   C29 6447   3.866   2.850   6.382 -0.0575  0.6850  0.3887
   73SLPC   H9R 6448   3.832   2.760   6.435  0.4243  1.3527  1.9254
   73SLPC  C210 6449   3.869   2.868   6.246 -0.2117  1.1389  0.3172
   73SLPC  H10R 6450   3.821   2.784   6.193 -0.1836 -0.3778  2.5676
   73SLPC  C211 6451   3.897   2.985   6.157  0.2218 -0.2361 -0.0185
   73SLPC  H11R 6452   3.979   2.955   6.089 -1.1153 -1.2683 -1.2312
   73SLPC  H11S 6453   3.923   3.077   6.215  0.0709  0.6258 -1.2873
   73SLPC  C212 6454   3.774   3.016   6.076  0.4239 -0.8165 -0.6069
   73SLPC  H12R 6455   3.687   2.955   6.104  0.1142 -0.7460 -1.3848
   73SLPC  C213 6456   3.752   3.107   5.982 -0.0084 -0.4384 -0.4917
   73SLPC  H13R 6457   3.658   3.106   5.926 -0.5626 -1.2208  0.4157
   73SLPC  C214 6458   3.857   3.208   5.940  0.6280  0.4989 -0.8995
   73SLPC  H14R 6459   3.951   3.199   5.999  0.7016  0.0744 -1.0734
   73SLPC  H14S 6460   3.822   3.311   5.963  0.2740  0.6326 -1.9864
   73SLPC  C215 6461   3.908   3.199   5.792  0.4791 -0.5075 -0.1894
   73SLPC  H15R 6462   3.960   3.101   5.782  0.1630 -0.8391  1.2523
   73SLPC  H15S 6463   3.991   3.273   5.786 -0.4078  0.4879 -0.3958
   73SLPC  C216 6464   3.799   3.228   5.685 -0.4736  0.2664  0.3055
   73SLPC  H16R 6465   3.741   3.318   5.714  0.5590  1.4747 -1.2162
   73SLPC  H16S 6466   3.735   3.138   5.675 -0.6786  0.3999  0.4085
   73SLPC  C217 6467   3.846   3.257   5.539 -0.2344  0.9794 -0.7243
   73SLPC  H17R 6468   3.927   3.181   5.528 -0.4390  0.4881  0.8955
   73SLPC  H17S 6469   3.901   3.353   5.547 -0.6095  1.0190  2.6865
   73SLPC  C218 6470   3.754   3.254   5.423  0.2960 -0.4020  0.2246
   73SLPC  H18R 6471   3.797   3.323   5.347  2.1668 -1.0569  0.6353
   73SLPC  H18S 6472   3.660   3.298   5.464  1.1796  1.4440  0.3663
   73SLPC  H18T 6473   3.736   3.151   5.387  1.3182 -0.4693 -0.1278
   73SLPC   C33 6474   4.847   2.821   6.702  0.3980 -0.2105 -0.1528
   73SLPC   H3X 6475   4.855   2.745   6.622 -0.7062 -1.6807  1.0755
   73SLPC   H3Y 6476   4.935   2.889   6.706 -2.2154  3.4596  0.4031
   73SLPC   C34 6477   4.728   2.918   6.669 -0.2891  0.3758  0.3419
   73SLPC   H4X 6478   4.705   2.986   6.753 -1.8076 -0.3397  0.5255
   73SLPC   H4Y 6479   4.638   2.855   6.654  0.0185 -0.4499  1.7879
   73SLPC   C35 6480   4.751   3.011   6.550  0.2310 -0.3022 -0.1341
   73SLPC   H5X 6481   4.838   3.079   6.563 -1.5245  2.4473 -1.7034
   73SLPC   H5Y 6482   4.663   3.078   6.543  0.3919  0.1889  1.8672
   73SLPC   C36 6483   4.765   2.946   6.411  0.0931 -0.0512 -0.3834
   73SLPC   H6X 6484   4.690   2.865   6.399  0.5061 -0.4907 -0.0626
   73SLPC   H6Y 6485   4.867   2.902   6.412  0.6825  1.2206 -1.5891
   73SLPC   C37 6486   4.738   3.046   6.296 -0.4547  0.6168 -0.1663
   73SLPC   H7X 6487   4.812   3.129   6.306  1.2560 -0.6829 -1.3787
   73SLPC   H7Y 6488   4.634   3.085   6.292 -1.0028 -0.5602  1.4641
   73SLPC   C38 6489   4.760   2.964   6.166  0.5182 -0.0948  0.5063
   73SLPC   H8X 6490   4.672   2.897   6.169  0.4752 -0.0198  1.1738
   73SLPC   H8Y 6491   4.845   2.894   6.183  1.4269  1.0415  0.8018
   73SLPC   C39 6492   4.770   3.053   6.046  0.4866  0.4904 -0.0971
   73SLPC   H9X 6493   4.847   3.130   6.069  0.4323 -0.1995  2.6888
   73SLPC   H9Y 6494   4.682   3.117   6.027 -0.3270 -0.9940 -1.6306
   73SLPC  C310 6495   4.798   2.967   5.923  0.4417 -0.4216  0.7835
   73SLPC  H10X 6496   4.732   2.878   5.919 -2.1838  1.3126  2.0539
   73SLPC  H10Y 6497   4.901   2.930   5.939  0.1833 -1.2306  0.6159
   73SLPC  C311 6498   4.761   3.046   5.801  0.4998  0.5070 -0.1417
   73SLPC  H11X 6499   4.803   3.148   5.790 -1.4998  1.2270 -1.5657
   73SLPC  H11Y 6500   4.650   3.048   5.801  0.3521 -1.9510 -2.1357
   73SLPC  C312 6501   4.798   2.975   5.667 -0.3354 -0.0520  0.1994
   73SLPC  H12X 6502   4.754   2.873   5.665 -4.0511  1.3133  2.0352
   73SLPC  H12Y 6503   4.907   2.957   5.676 -0.1232  1.6598  1.9900
   73SLPC  C313 6504   4.760   3.045   5.534  0.3338  0.2990  0.7231
   73SLPC  H13X 6505   4.799   3.149   5.527  0.4258  0.1647 -1.0860
   73SLPC  H13Y 6506   4.651   3.055   5.552  0.0940 -1.7010  0.6165
   73SLPC  C314 6507   4.798   2.958   5.409  0.0603  0.1036 -0.8838
   73SLPC  H14X 6508   4.751   2.859   5.427  0.1329  0.0215 -1.1410
   73SLPC  H14Y 6509   4.909   2.952   5.411  0.0261 -0.6556  1.6477
   73SLPC  C315 6510   4.736   3.027   5.286 -0.3647  0.1247  0.0481
   73SLPC  H15X 6511   4.771   3.132   5.283  0.9570 -0.3250 -0.5962
   73SLPC  H15Y 6512   4.625   3.019   5.298 -0.0703 -2.2803  1.7991
   73SLPC  C316 6513   4.765   2.977   5.149  0.1850  0.7755  0.0291
   73SLPC  H16X 6514   4.736   2.870   5.144 -0.2059  0.8870 -0.0939
   73SLPC  H16Y 6515   4.875   2.979   5.130 -0.0113 -1.2956 -1.8992
   73SLPC  C317 6516   4.688   3.042   5.035 -0.2118  0.0562 -0.3390
   73SLPC  H17X 6517   4.651   3.141   5.071  0.1534 -0.7529  2.5571
   73SLPC  H17Y 6518   4.602   2.981   5.000  1.9974 -2.1226 -2.3685
   73SLPC  C318 6519   4.778   3.054   4.912  0.4040 -0.8489  0.4193
   73SLPC  H18X 6520   4.717   3.083   4.823 -0.1371  0.7551  1.2855
   73SLPC  H18Y 6521   4.844   2.968   4.884 -0.3521 -1.9617  1.9099
   73SLPC  H18Z 6522   4.838   3.145   4.931  0.5230 -0.7838 -0.2456
   74SLPC     N 6523   1.654   5.864   7.411  0.3106 -0.6005 -0.2476
   74SLPC   C13 6524   1.557   5.944   7.501 -0.5177  0.8278 -0.3403
   74SLPC  H13A 6525   1.572   6.051   7.490  0.5025  0.7182 -0.1099
   74SLPC  H13B 6526   1.455   5.922   7.474 -0.8363  0.8591  0.7600
   74SLPC  H13C 6527   1.569   5.905   7.601 -0.5735 -1.5675 -1.2083
   74SLPC   C14 6528   1.657   5.722   7.466 -0.1884  0.0487 -0.7428
   74SLPC  H14A 6529   1.565   5.665   7.456 -1.3291  1.1334  2.3248
   74SLPC  H14B 6530   1.740   5.676   7.414  0.1142 -2.0268  1.4047
   74SLPC  H14C 6531   1.691   5.710   7.568 -1.7338 -2.8020 -0.4382
   74SLPC   C15 6532   1.792   5.931   7.427  0.8073 -0.1643 -0.3261
   74SLPC  H15A 6533   1.822   5.921   7.531 -2.0961  0.2708  0.6471
   74SLPC  H15B 6534   1.867   5.896   7.358 -0.5640  0.7100 -2.3203
   74SLPC  H15C 6535   1.785   6.037   7.408 -1.0027 -0.2872 -0.4772
   74SLPC   C12 6536   1.605   5.867   7.263  0.0937  0.2916  0.4945
   74SLPC  H12A 6537   1.594   5.966   7.221  1.4145  0.0962 -0.3633
   74SLPC  H12B 6538   1.512   5.815   7.248 -0.5163  1.7038 -0.9277
   74SLPC   C11 6539   1.709   5.805   7.165  0.6209  0.0389  1.2013
   74SLPC  H11A 6540   1.727   5.698   7.189  3.3176  0.5665  1.8530
   74SLPC  H11B 6541   1.806   5.859   7.163 -0.0762  1.3430 -0.5716
   74SLPC     P 6542   1.567   5.701   6.968  0.3973  0.4576  0.2718
   74SLPC   O13 6543   1.510   5.602   7.072 -0.2031  0.1261  0.6248
   74SLPC   O14 6544   1.472   5.765   6.884 -0.0997 -0.0493  0.2980
   74SLPC   O12 6545   1.650   5.811   7.032 -0.1967  0.6568 -0.2335
   74SLPC   O11 6546   1.674   5.625   6.884  0.2891 -0.1168  0.0579
   74SLPC    C1 6547   1.783   5.691   6.819 -0.1710 -0.2829  0.5522
   74SLPC    HA 6548   1.850   5.749   6.886 -0.2241  1.5875 -0.9484
   74SLPC    HB 6549   1.848   5.610   6.781 -0.6447 -0.4553  0.0948
   74SLPC    C2 6550   1.746   5.793   6.699  0.0869  0.0008  0.1292
   74SLPC    HS 6551   1.682   5.873   6.742  0.3286 -0.3828  1.2288
   74SLPC   O21 6552   1.694   5.718   6.596  0.3015  0.4485  0.4404
   74SLPC   C21 6553   1.577   5.761   6.544 -0.1924 -0.2247 -0.1013
   74SLPC   O22 6554   1.532   5.875   6.560  0.2248  0.4501  0.2346
   74SLPC   C22 6555   1.533   5.672   6.433 -0.4141  0.4620 -0.0371
   74SLPC   H2R 6556   1.615   5.672   6.358 -0.2942 -2.3831 -0.0453
   74SLPC   H2S 6557   1.527   5.564   6.462  3.1934  0.1997  0.1969
   74SLPC    C3 6558   1.868   5.872   6.651  0.1732  0.7168 -0.6151
   74SLPC    HX 6559   1.949   5.798   6.630  0.0254 -0.2605  1.9567
   74SLPC    HY 6560   1.889   5.937   6.739 -0.6796  1.9000 -1.2586
   74SLPC   O31 6561   1.840   5.940   6.531  0.2421  0.7348  0.4385
   74SLPC   C31 6562   1.794   6.062   6.535 -0.3280 -0.4770  0.3747
   74SLPC   O32 6563   1.780   6.131   6.635 -0.2723  0.6538  0.4645
   74SLPC   C32 6564   1.779   6.113   6.390 -1.1145 -0.3899 -0.5436
   74SLPC   H2X 6565   1.879   6.092   6.348 -0.7280 -2.7297  1.3253
   74SLPC   H2Y 6566   1.756   6.222   6.389 -2.8522 -0.7258 -0.4341
   74SLPC   C23 6567   1.402   5.721   6.370  0.1647  0.4997  0.4231
   74SLPC   H3R 6568   1.401   5.831   6.358  1.5724  0.4821 -0.0878
   74SLPC   H3S 6569   1.319   5.689   6.436 -0.0919  0.1519 -0.0562
   74SLPC   C24 6570   1.372   5.649   6.237 -0.7815 -0.1874  1.0925
   74SLPC   H4R 6571   1.262   5.660   6.226 -0.5073  1.4263 -0.6002
   74SLPC   H4S 6572   1.395   5.542   6.252 -1.2232 -0.4933 -0.2537
   74SLPC   C25 6573   1.452   5.690   6.111 -0.4357  0.0870  0.3552
   74SLPC   H5R 6574   1.561   5.701   6.131 -0.3753  4.9759 -1.2961
   74SLPC   H5S 6575   1.426   5.795   6.084  0.7022 -0.0908 -1.6337
   74SLPC   C26 6576   1.425   5.607   5.987  0.3588  0.2108  0.0800
   74SLPC   H6R 6577   1.318   5.615   5.962  0.1637 -0.4163  0.6755
   74SLPC   H6S 6578   1.454   5.503   6.013  2.6634  1.0295  1.1251
   74SLPC   C27 6579   1.517   5.664   5.874 -0.3582  0.7081  0.0581
   74SLPC   H7R 6580   1.624   5.658   5.904  0.9735  0.9814 -3.9739
   74SLPC   H7S 6581   1.501   5.773   5.855  1.9725  1.3748  1.4796
   74SLPC   C28 6582   1.484   5.582   5.749 -0.0756 -0.3922 -0.2306
   74SLPC   H8R 6583   1.492   5.474   5.775  0.7769 -0.8126 -2.0813
   74SLPC   H8S 6584   1.561   5.616   5.677  0.4484  0.0080  0.5049
   74SLPC   C29 6585   1.342   5.592   5.689 -0.9388 -0.4401 -0.7151
   74SLPC   H9R 6586   1.263   5.541   5.747  0.5840 -0.7811  1.1722
   74SLPC  C210 6587   1.303   5.678   5.601  0.3657  0.2556  0.3069
   74SLPC  H10R 6588   1.200   5.677   5.561  0.8039  0.3119 -0.8868
   74SLPC  C211 6589   1.392   5.769   5.525 -0.1121  0.2410  1.0456
   74SLPC  H11R 6590   1.485   5.713   5.504 -0.8865 -0.2391 -1.3761
   74SLPC  H11S 6591   1.414   5.856   5.590  1.4249  1.4453 -0.9498
   74SLPC  C212 6592   1.324   5.824   5.398 -0.1341  0.3027 -0.1006
   74SLPC  H12R 6593   1.266   5.913   5.429 -2.4211 -0.8678 -0.8106
   74SLPC  C213 6594   1.320   5.785   5.269  0.4985 -0.1826 -0.2256
   74SLPC  H13R 6595   1.262   5.848   5.200  0.0435 -0.1331  0.1939
   74SLPC  C214 6596   1.384   5.655   5.218 -0.0478 -0.0816 -0.1422
   74SLPC  H14R 6597   1.402   5.588   5.305 -0.7736 -1.5023 -1.0711
   74SLPC  H14S 6598   1.482   5.676   5.170  0.1204  0.2619  0.3447
   74SLPC  C215 6599   1.294   5.574   5.121 -0.3060  0.0452 -0.2139
   74SLPC  H15R 6600   1.194   5.568   5.168  1.4257  0.7932  4.0526
   74SLPC  H15S 6601   1.347   5.477   5.111 -2.0148 -0.8992 -0.3875
   74SLPC  C216 6602   1.288   5.630   4.975  0.8617  0.2742 -1.2899
   74SLPC  H16R 6603   1.385   5.680   4.954  0.5984  0.9277 -0.9837
   74SLPC  H16S 6604   1.209   5.708   4.983 -1.3873 -2.0451  3.0718
   74SLPC  C217 6605   1.249   5.540   4.860  0.3009  0.3049 -0.0547
   74SLPC  H17R 6606   1.150   5.497   4.885  1.1853 -2.0603 -0.3415
   74SLPC  H17S 6607   1.332   5.466   4.861  1.2513  1.1530 -3.2422
   74SLPC  C218 6608   1.258   5.607   4.721  0.1732  0.8351  0.4247
   74SLPC  H18R 6609   1.245   5.540   4.633  0.0718  1.3379  0.0483
   74SLPC  H18S 6610   1.364   5.639   4.712  0.9518 -1.5193  0.7726
   74SLPC  H18T 6611   1.193   5.697   4.716  0.4053  1.0952  1.7731
   74SLPC   C33 6612   1.678   6.023   6.313  0.2903 -0.2377 -0.2259
   74SLPC   H3X 6613   1.576   6.033   6.356 -1.3269 -1.1927 -3.5326
   74SLPC   H3Y 6614   1.705   5.916   6.321  0.1743 -0.2336  0.2573
   74SLPC   C34 6615   1.661   6.053   6.170 -0.4998  0.0958 -0.5074
   74SLPC   H4X 6616   1.654   6.163   6.157  0.4666  0.0391 -1.6591
   74SLPC   H4Y 6617   1.573   6.003   6.124  0.5772 -1.6102 -0.8177
   74SLPC   C35 6618   1.770   5.997   6.075 -0.5402  0.3576 -0.4841
   74SLPC   H5X 6619   1.773   5.886   6.085  0.6565  0.3164 -1.0533
   74SLPC   H5Y 6620   1.865   6.044   6.108 -0.1383 -3.0794  4.3881
   74SLPC   C36 6621   1.742   6.027   5.926  0.3324 -0.6633 -0.7020
   74SLPC   H6X 6622   1.760   6.135   5.908  0.0061 -0.5748 -0.5156
   74SLPC   H6Y 6623   1.634   6.010   5.903  0.2776  1.4083 -2.2254
   74SLPC   C37 6624   1.836   5.962   5.835  0.4694  0.6846  0.0356
   74SLPC   H7X 6625   1.820   5.852   5.843  1.4199  0.4344 -1.1334
   74SLPC   H7Y 6626   1.942   5.981   5.866  0.6599  1.3059 -0.9531
   74SLPC   C38 6627   1.817   5.991   5.684  0.0825  0.3892  0.0991
   74SLPC   H8X 6628   1.836   6.099   5.661 -1.8020  0.4882 -1.1943
   74SLPC   H8Y 6629   1.709   5.969   5.673 -0.1444  1.0273  0.9638
   74SLPC   C39 6630   1.913   5.913   5.592 -0.4839  0.1173 -0.1722
   74SLPC   H9X 6631   1.923   5.806   5.618 -1.6211 -0.2707 -1.2359
   74SLPC   H9Y 6632   2.013   5.957   5.613 -2.0049  3.3617  0.9633
   74SLPC  C310 6633   1.889   5.922   5.444  0.3776  0.2838 -0.3062
   74SLPC  H10X 6634   1.975   5.904   5.375 -1.7620 -1.1825 -2.7407
   74SLPC  H10Y 6635   1.857   6.028   5.438 -2.5281 -0.5682 -1.7579
   74SLPC  C311 6636   1.774   5.840   5.403 -0.1493 -0.6403  0.4515
   74SLPC  H11X 6637   1.677   5.882   5.437  0.5961  1.9180 -0.3210
   74SLPC  H11Y 6638   1.778   5.733   5.431 -0.5513 -1.3617 -2.0270
   74SLPC  C312 6639   1.764   5.842   5.246 -0.2128 -0.2277  0.2908
   74SLPC  H12X 6640   1.671   5.788   5.217 -1.0936  0.8648  0.9645
   74SLPC  H12Y 6641   1.860   5.798   5.211  1.1849  1.8593  1.2779
   74SLPC  C313 6642   1.755   5.988   5.195 -0.0600  0.1094 -0.1387
   74SLPC  H13X 6643   1.854   6.031   5.219  1.7063 -3.1036 -1.1354
   74SLPC  H13Y 6644   1.672   6.033   5.254  0.2852 -2.1371  2.2187
   74SLPC  C314 6645   1.752   6.008   5.039 -0.0073 -0.3777  0.1055
   74SLPC  H14X 6646   1.850   5.983   4.994  0.0861 -0.1856  0.1991
   74SLPC  H14Y 6647   1.741   6.117   5.021 -1.8785 -0.5449  0.0872
   74SLPC  C315 6648   1.655   5.918   4.957  0.3394 -0.2306 -0.4903
   74SLPC  H15X 6649   1.565   5.897   5.018  1.1173 -1.3562  0.3198
   74SLPC  H15Y 6650   1.706   5.821   4.936  0.7367 -0.1119 -0.0909
   74SLPC  C316 6651   1.613   5.981   4.825 -0.2226 -0.0604 -0.3726
   74SLPC  H16X 6652   1.701   5.975   4.758  0.8645  0.8547  0.9285
   74SLPC  H16Y 6653   1.597   6.088   4.848 -0.0553  0.2369 -1.5547
   74SLPC  C317 6654   1.494   5.907   4.754  0.5383 -1.1249 -0.7709
   74SLPC  H17X 6655   1.403   5.885   4.813  1.5149  1.8397  2.1643
   74SLPC  H17Y 6656   1.532   5.810   4.717  0.1312 -1.1315 -1.1718
   74SLPC  C318 6657   1.452   5.987   4.632  0.1857  0.1908  0.0629
   74SLPC  H18X 6658   1.347   5.976   4.598  0.2695  1.9647 -0.8982
   74SLPC  H18Y 6659   1.516   5.969   4.543 -0.8848 -1.1281 -0.4809
   74SLPC  H18Z 6660   1.447   6.097   4.650  1.5709  0.0026  1.8812
   75SLPC     N 6661   2.717   4.267   7.860  0.1985  0.6084  0.5723
   75SLPC   C13 6662   2.581   4.318   7.914 -0.4052  0.2150 -0.5160
   75SLPC  H13A 6663   2.546   4.258   7.996  0.4191  0.2511 -0.1223
   75SLPC  H13B 6664   2.599   4.415   7.957  3.8636 -0.3872 -0.4317
   75SLPC  H13C 6665   2.514   4.323   7.829  0.5363  0.8938 -1.2483
   75SLPC   C14 6666   2.695   4.143   7.783 -0.1106 -0.6951 -0.2098
   75SLPC  H14A 6667   2.784   4.124   7.725 -0.0561 -0.0540 -0.3399
   75SLPC  H14B 6668   2.672   4.069   7.859  2.2774  0.1624  1.4839
   75SLPC  H14C 6669   2.621   4.159   7.707  0.2718 -0.4377 -0.5316
   75SLPC   C15 6670   2.799   4.235   7.984 -0.2775 -0.8920  0.4901
   75SLPC  H15A 6671   2.759   4.152   8.039 -1.4623 -0.0570  0.9066
   75SLPC  H15B 6672   2.900   4.207   7.954 -0.3508 -0.1474 -0.5027
   75SLPC  H15C 6673   2.808   4.322   8.047  0.3071  0.6916 -1.6292
   75SLPC   C12 6674   2.775   4.382   7.779  0.0678  0.5770 -0.8348
   75SLPC  H12A 6675   2.874   4.349   7.755 -0.0048 -1.1437  0.9764
   75SLPC  H12B 6676   2.795   4.467   7.843 -0.5672 -0.3839  0.6972
   75SLPC   C11 6677   2.710   4.428   7.639  0.4063 -0.5818 -0.0109
   75SLPC  H11A 6678   2.762   4.519   7.604  0.9101 -1.1688 -0.7987
   75SLPC  H11B 6679   2.601   4.451   7.644  0.2481 -1.4296  1.1260
   75SLPC     P 6680   2.878   4.312   7.471 -0.1357  0.4011  0.0464
   75SLPC   O13 6681   2.978   4.362   7.568  0.2000  0.1300 -0.6518
   75SLPC   O14 6682   2.893   4.173   7.417 -0.2795 -1.0338 -0.2884
   75SLPC   O12 6683   2.732   4.329   7.531  0.3700  0.6462 -0.2012
   75SLPC   O11 6684   2.857   4.421   7.350 -0.6532  0.1705  0.1979
   75SLPC    C1 6685   2.734   4.433   7.275 -0.1417  0.0298  0.0383
   75SLPC    HA 6686   2.692   4.332   7.255  1.2461 -0.8838  1.5357
   75SLPC    HB 6687   2.665   4.491   7.340  0.9970 -0.9617  2.2511
   75SLPC    C2 6688   2.769   4.496   7.140 -0.1347  0.4178 -0.2986
   75SLPC    HS 6689   2.819   4.593   7.157  1.1731 -0.5160  1.6675
   75SLPC   O21 6690   2.648   4.493   7.059  0.6559 -0.3059  0.3803
   75SLPC   C21 6691   2.635   4.595   6.979  0.9507  0.5534 -0.3066
   75SLPC   O22 6692   2.722   4.669   6.946  0.0242 -0.1892  0.5036
   75SLPC   C22 6693   2.489   4.599   6.925 -0.5850  0.0382  0.3749
   75SLPC   H2R 6694   2.462   4.496   6.894 -1.1517  0.8395 -2.0827
   75SLPC   H2S 6695   2.426   4.632   7.010 -1.1511 -1.1306  0.4174
   75SLPC    C3 6696   2.890   4.419   7.076 -0.1674  0.4239 -0.2619
   75SLPC    HX 6697   2.892   4.309   7.094 -0.0430  0.4415 -0.1705
   75SLPC    HY 6698   2.976   4.447   7.140 -0.9332  2.2536  0.0133
   75SLPC   O31 6699   2.916   4.451   6.938 -0.2612 -0.1577  0.0290
   75SLPC   C31 6700   2.993   4.555   6.899  0.7562 -0.5104 -0.5810
   75SLPC   O32 6701   3.041   4.643   6.969 -0.4964 -0.1396 -0.1440
   75SLPC   C32 6702   2.995   4.546   6.757 -0.0191 -0.2182  0.1917
   75SLPC   H2X 6703   2.893   4.565   6.718 -0.0422  0.4033  0.5477
   75SLPC   H2Y 6704   3.032   4.447   6.721  1.1359  0.7513 -1.4451
   75SLPC   C23 6705   2.481   4.695   6.807 -0.1773  0.3986 -0.0397
   75SLPC   H3R 6706   2.517   4.796   6.836  1.5321 -0.0352 -0.5344
   75SLPC   H3S 6707   2.377   4.696   6.769 -0.4364  0.4539  0.6432
   75SLPC   C24 6708   2.564   4.648   6.690 -0.1466  0.9761  0.6454
   75SLPC   H4R 6709   2.545   4.538   6.686 -3.8852  1.4229  1.7633
   75SLPC   H4S 6710   2.667   4.681   6.716 -0.0141  0.5400  0.6753
   75SLPC   C25 6711   2.519   4.711   6.556 -0.2405  1.0247 -0.2961
   75SLPC   H5R 6712   2.411   4.709   6.531  0.0041  3.0931 -1.8113
   75SLPC   H5S 6713   2.573   4.664   6.470  2.6303  1.8436  0.9152
   75SLPC   C26 6714   2.573   4.852   6.547  0.2542  0.3162 -0.3132
   75SLPC   H6R 6715   2.678   4.856   6.583  0.1433  1.2859 -0.0589
   75SLPC   H6S 6716   2.516   4.907   6.625  1.6323 -1.2580  1.9182
   75SLPC   C27 6717   2.562   4.910   6.404 -0.3437  0.1611  0.1459
   75SLPC   H7R 6718   2.583   5.020   6.405  0.4503  0.0733 -1.8585
   75SLPC   H7S 6719   2.460   4.889   6.366  0.1695 -0.6953 -0.8052
   75SLPC   C28 6720   2.663   4.855   6.307 -0.5656 -0.1326  0.1571
   75SLPC   H8R 6721   2.641   4.748   6.285 -1.6521 -0.0310  0.7058
   75SLPC   H8S 6722   2.764   4.843   6.351 -1.4570 -0.1386  2.3233
   75SLPC   C29 6723   2.663   4.935   6.176 -0.5546 -1.1159 -0.1045
   75SLPC   H9R 6724   2.721   5.028   6.180 -0.7917 -1.0038  1.2502
   75SLPC  C210 6725   2.606   4.899   6.057 -0.1912 -0.4653 -0.1551
   75SLPC  H10R 6726   2.627   4.961   5.969 -0.7946  0.0910  0.0810
   75SLPC  C211 6727   2.519   4.778   6.027 -0.2818  0.0402  0.1478
   75SLPC  H11R 6728   2.491   4.709   6.109 -0.0227  0.1844  0.3618
   75SLPC  H11S 6729   2.588   4.713   5.969  1.5595 -2.0350  4.1916
   75SLPC  C212 6730   2.390   4.817   5.960 -0.5337  0.6606  0.3467
   75SLPC  H12R 6731   2.328   4.889   6.016 -0.0727  1.0662  0.3427
   75SLPC  C213 6732   2.347   4.769   5.842  0.7257  0.0194  0.3022
   75SLPC  H13R 6733   2.252   4.806   5.801  1.1043  1.8026  0.9322
   75SLPC  C214 6734   2.417   4.670   5.757  0.8202 -0.0843 -0.4805
   75SLPC  H14R 6735   2.342   4.610   5.701 -1.6144  0.7837  1.6404
   75SLPC  H14S 6736   2.483   4.605   5.818  0.3914 -2.2201 -2.1717
   75SLPC  C215 6737   2.496   4.737   5.646  0.2674 -0.0524 -0.2805
   75SLPC  H15R 6738   2.549   4.658   5.589  1.5275  1.8913 -1.9364
   75SLPC  H15S 6739   2.570   4.812   5.681  1.2139 -1.3416  0.5958
   75SLPC  C216 6740   2.415   4.816   5.542  0.3473 -0.4595  1.0659
   75SLPC  H16R 6741   2.389   4.911   5.594  0.0586  0.3083 -0.4442
   75SLPC  H16S 6742   2.323   4.761   5.512  1.0193 -0.7790 -0.4667
   75SLPC  C217 6743   2.490   4.858   5.423  0.1462  0.4574 -0.2291
   75SLPC  H17R 6744   2.577   4.914   5.464  0.2185  0.1785  0.0072
   75SLPC  H17S 6745   2.430   4.918   5.351  0.2504  2.1872  1.0769
   75SLPC  C218 6746   2.548   4.738   5.341 -0.1115  0.0814  0.1322
   75SLPC  H18R 6747   2.576   4.773   5.240 -3.4168 -0.4794 -1.1045
   75SLPC  H18S 6748   2.464   4.669   5.317 -1.5299  1.2168  1.6072
   75SLPC  H18T 6749   2.641   4.693   5.382  1.2893  1.6923 -1.1578
   75SLPC   C33 6750   3.087   4.651   6.691  0.0579  0.2394 -0.0344
   75SLPC   H3X 6751   3.195   4.627   6.701 -0.4286 -2.8487 -1.1975
   75SLPC   H3Y 6752   3.049   4.745   6.736  0.3099  0.3268 -0.0028
   75SLPC   C34 6753   3.078   4.661   6.536  0.1199  0.3320 -0.0240
   75SLPC   H4X 6754   3.112   4.761   6.501  1.1555 -0.7306 -2.2800
   75SLPC   H4Y 6755   2.974   4.661   6.496  0.2635  1.0930 -0.4163
   75SLPC   C35 6756   3.134   4.544   6.453 -0.4105 -0.3949  0.0158
   75SLPC   H5X 6757   3.074   4.452   6.469  1.3758 -1.3863  1.3889
   75SLPC   H5Y 6758   3.235   4.526   6.497 -0.3515  1.9402  1.0018
   75SLPC   C36 6759   3.156   4.568   6.303 -0.0236 -0.8066  0.9919
   75SLPC   H6X 6760   3.178   4.676   6.289  1.2633 -1.3002 -1.2137
   75SLPC   H6Y 6761   3.058   4.563   6.250  1.6717 -2.5518 -2.2595
   75SLPC   C37 6762   3.254   4.470   6.235  0.3211  1.3285  0.7596
   75SLPC   H7X 6763   3.204   4.373   6.259 -0.7424  1.5812 -0.3402
   75SLPC   H7Y 6764   3.357   4.471   6.276  1.2809  1.5016 -1.5119
   75SLPC   C38 6765   3.279   4.489   6.087 -0.2207  0.2725  0.0052
   75SLPC   H8X 6766   3.354   4.572   6.082 -1.3104  1.2140 -1.7786
   75SLPC   H8Y 6767   3.193   4.514   6.021  0.8838  1.3787 -1.0958
   75SLPC   C39 6768   3.340   4.370   6.018  0.1377  0.2823  0.6118
   75SLPC   H9X 6769   3.256   4.301   5.995 -0.2515  1.6056 -2.3565
   75SLPC   H9Y 6770   3.414   4.316   6.081  0.9818  1.3606  0.5687
   75SLPC  C310 6771   3.403   4.393   5.883  0.4458 -0.1952  0.0458
   75SLPC  H10X 6772   3.466   4.308   5.850 -2.5697 -1.2952 -3.6270
   75SLPC  H10Y 6773   3.462   4.487   5.877 -1.2793  0.9530  0.1708
   75SLPC  C311 6774   3.293   4.419   5.778 -0.5801  0.4631 -0.1172
   75SLPC  H11X 6775   3.233   4.511   5.795 -0.4104  0.1574  2.4934
   75SLPC  H11Y 6776   3.216   4.339   5.770 -0.0752 -0.0322 -0.0334
   75SLPC  C312 6777   3.367   4.429   5.637 -0.2702 -0.1004  0.2203
   75SLPC  H12X 6778   3.429   4.339   5.619  3.0569  1.9983  0.4674
   75SLPC  H12Y 6779   3.444   4.509   5.630  0.0609 -0.5366 -2.5046
   75SLPC  C313 6780   3.258   4.454   5.521 -0.5466 -0.6691  0.7111
   75SLPC  H13X 6781   3.169   4.511   5.556 -0.1408  1.2958 -1.2806
   75SLPC  H13Y 6782   3.231   4.350   5.491  1.1117 -0.0311 -3.6881
   75SLPC  C314 6783   3.307   4.518   5.387  0.0383  0.1022 -0.3426
   75SLPC  H14X 6784   3.386   4.594   5.404 -0.0573 -0.2008  1.6655
   75SLPC  H14Y 6785   3.220   4.565   5.337 -1.6585 -2.7013 -0.2329
   75SLPC  C315 6786   3.352   4.408   5.294  0.0914  0.4768  0.2193
   75SLPC  H15X 6787   3.355   4.448   5.191 -0.5431  1.5635  0.6032
   75SLPC  H15Y 6788   3.275   4.328   5.286  0.8911 -0.0985 -3.1216
   75SLPC  C316 6789   3.485   4.349   5.330 -0.0171  0.4047 -0.3922
   75SLPC  H16X 6790   3.492   4.314   5.435 -0.4263  0.8102 -0.2292
   75SLPC  H16Y 6791   3.553   4.437   5.326 -0.5202  0.7766 -1.1264
   75SLPC  C317 6792   3.534   4.244   5.220 -0.6167 -0.3549  0.5874
   75SLPC  H17X 6793   3.548   4.312   5.133  1.6942  0.2488  1.3543
   75SLPC  H17Y 6794   3.457   4.166   5.201  0.6346 -1.2566 -0.9905
   75SLPC  C318 6795   3.676   4.182   5.259 -0.5351 -0.1334 -0.5055
   75SLPC  H18X 6796   3.663   4.150   5.364  0.6318  0.7158 -0.0799
   75SLPC  H18Y 6797   3.759   4.256   5.259  0.5009 -1.2677 -0.8462
   75SLPC  H18Z 6798   3.704   4.097   5.193  1.5315  0.5916 -0.6171
   76SLPC     N 6799   5.437   4.493   7.416 -0.0699  0.6289 -0.0240
   76SLPC   C13 6800   5.332   4.411   7.486 -0.8139 -0.3779  0.2040
   76SLPC  H13A 6801   5.371   4.396   7.586  0.2596  1.7262  0.1559
   76SLPC  H13B 6802   5.239   4.466   7.485  0.4738  1.9915  1.6843
   76SLPC  H13C 6803   5.311   4.317   7.437 -3.0059  0.9131 -1.5013
   76SLPC   C14 6804   5.566   4.414   7.411  0.5534 -0.1898  0.4293
   76SLPC  H14A 6805   5.636   4.434   7.491  0.3426  1.1096  0.2986
   76SLPC  H14B 6806   5.545   4.308   7.405  0.1769 -0.1698  1.2778
   76SLPC  H14C 6807   5.627   4.451   7.330  0.7590  1.1374  1.1640
   76SLPC   C15 6808   5.463   4.616   7.499 -0.1818 -0.2175  0.4568
   76SLPC  H15A 6809   5.381   4.686   7.498  0.0290  0.0311  0.3129
   76SLPC  H15B 6810   5.487   4.597   7.603 -0.9224  1.6644  1.0022
   76SLPC  H15C 6811   5.546   4.667   7.453 -0.7644 -0.8242 -1.3626
   76SLPC   C12 6812   5.404   4.531   7.269 -0.1301  0.2029  0.2775
   76SLPC  H12A 6813   5.485   4.589   7.229 -0.3433  1.0761  1.0805
   76SLPC  H12B 6814   5.309   4.582   7.261 -0.0492  0.3559  0.2905
   76SLPC   C11 6815   5.389   4.413   7.175 -0.1437 -0.3365 -0.0485
   76SLPC  H11A 6816   5.318   4.335   7.210  0.3505 -1.2117 -0.9389
   76SLPC  H11B 6817   5.485   4.361   7.156 -0.2096 -0.3434 -0.3756
   76SLPC     P 6818   5.217   4.533   7.033 -0.0107 -0.3411  0.0552
   76SLPC   O13 6819   5.132   4.489   7.147  0.0128  0.1451  0.7334
   76SLPC   O14 6820   5.244   4.678   7.025  0.2423 -0.0316  0.0975
   76SLPC   O12 6821   5.351   4.465   7.038 -0.2185 -0.1512  1.1035
   76SLPC   O11 6822   5.154   4.479   6.893 -0.2122 -0.3398 -0.1210
   76SLPC    C1 6823   5.175   4.344   6.841 -0.1279  0.0541 -0.3653
   76SLPC    HA 6824   5.183   4.262   6.914  0.0139 -0.4300 -0.9164
   76SLPC    HB 6825   5.101   4.316   6.762 -1.4374 -1.5876  1.3522
   76SLPC    C2 6826   5.313   4.323   6.763 -0.4563 -0.5890 -0.5979
   76SLPC    HS 6827   5.394   4.333   6.839 -0.2186 -0.1171 -0.9111
   76SLPC   O21 6828   5.314   4.430   6.665  0.3944 -0.1641 -0.0560
   76SLPC   C21 6829   5.434   4.443   6.617 -0.1052 -0.1201 -0.3720
   76SLPC   O22 6830   5.539   4.412   6.673 -0.0072 -0.3276 -0.7666
   76SLPC   C22 6831   5.428   4.511   6.476  0.2233 -0.8239  0.2451
   76SLPC   H2R 6832   5.372   4.607   6.484 -0.5716 -1.1668 -0.9111
   76SLPC   H2S 6833   5.536   4.535   6.474  0.2298 -0.5210  2.1098
   76SLPC    C3 6834   5.315   4.176   6.702 -0.4983  0.1697  0.2156
   76SLPC    HX 6835   5.214   4.173   6.658 -0.1535  1.9708 -0.8124
   76SLPC    HY 6836   5.326   4.112   6.792  3.2307  0.5589  0.1934
   76SLPC   O31 6837   5.417   4.147   6.604 -0.0232  0.3477 -0.2817
   76SLPC   C31 6838   5.416   4.020   6.567 -0.2026  0.4480 -0.1272
   76SLPC   O32 6839   5.347   3.932   6.612 -0.0049 -0.1017  0.5947
   76SLPC   C32 6840   5.517   3.999   6.451  0.1263  0.0727 -0.5505
   76SLPC   H2X 6841   5.620   3.988   6.490 -0.6580 -0.3366  1.5647
   76SLPC   H2Y 6842   5.509   4.087   6.383 -0.3251 -0.5790 -1.3500
   76SLPC   C23 6843   5.383   4.433   6.351 -0.2688 -0.9965 -0.4703
   76SLPC   H3R 6844   5.389   4.324   6.372 -1.0254 -1.2112 -1.2696
   76SLPC   H3S 6845   5.449   4.457   6.264 -0.0266  0.4183  0.0751
   76SLPC   C24 6846   5.232   4.456   6.306 -1.4784  0.0900  0.3759
   76SLPC   H4R 6847   5.209   4.553   6.259  1.5756 -0.7141 -3.2656
   76SLPC   H4S 6848   5.174   4.432   6.398 -0.2390 -0.0688  1.1360
   76SLPC   C25 6849   5.187   4.355   6.201  1.1689 -0.0661 -0.0015
   76SLPC   H5R 6850   5.080   4.367   6.174  1.7554  2.1235 -1.6693
   76SLPC   H5S 6851   5.200   4.252   6.241  2.0313  0.3057  0.7192
   76SLPC   C26 6852   5.270   4.372   6.068  0.1063  0.3535 -0.5560
   76SLPC   H6R 6853   5.379   4.351   6.079  0.2937  0.3339 -2.2056
   76SLPC   H6S 6854   5.267   4.475   6.028  1.2959  0.2490 -0.9408
   76SLPC   C27 6855   5.224   4.271   5.959 -0.8627  0.0813  0.0835
   76SLPC   H7R 6856   5.113   4.266   5.952 -0.8718 -3.2725  1.1105
   76SLPC   H7S 6857   5.256   4.171   5.994 -0.8278 -0.7909 -2.2946
   76SLPC   C28 6858   5.287   4.291   5.816 -0.2454  0.6645 -0.4683
   76SLPC   H8R 6859   5.251   4.202   5.760  1.1000  0.4061 -0.9672
   76SLPC   H8S 6860   5.397   4.276   5.829 -0.2504  2.7126  3.8783
   76SLPC   C29 6861   5.265   4.423   5.746  0.6009 -0.1904  0.4796
   76SLPC   H9R 6862   5.319   4.510   5.785  0.3814  1.0197 -1.7785
   76SLPC  C210 6863   5.190   4.434   5.632 -0.3476  0.4288 -0.3113
   76SLPC  H10R 6864   5.176   4.535   5.592  2.0923  0.9384 -0.0093
   76SLPC  C211 6865   5.093   4.331   5.587 -0.2733 -0.0226 -0.4353
   76SLPC  H11R 6866   5.080   4.252   5.664 -1.2474  0.2743 -0.2789
   76SLPC  H11S 6867   5.135   4.273   5.501  1.7067 -0.0504  0.5030
   76SLPC  C212 6868   4.963   4.396   5.562  0.4144 -0.1417 -0.1501
   76SLPC  H12R 6869   4.938   4.473   5.637 -1.2652 -0.0735 -0.7350
   76SLPC  C213 6870   4.869   4.368   5.473 -0.3888 -0.3336 -0.1020
   76SLPC  H13R 6871   4.778   4.430   5.475  0.9022  1.6558  1.2210
   76SLPC  C214 6872   4.881   4.256   5.360  0.3658 -0.5202 -0.6420
   76SLPC  H14R 6873   4.792   4.190   5.371 -0.4234  0.7769  1.4793
   76SLPC  H14S 6874   4.974   4.199   5.380 -0.5406 -1.3994  1.3413
   76SLPC  C215 6875   4.879   4.318   5.219 -0.3465  0.2295  0.2417
   76SLPC  H15R 6876   4.786   4.378   5.205  0.1009  0.4399 -2.1356
   76SLPC  H15S 6877   4.882   4.241   5.139  0.1287  0.7944 -0.2961
   76SLPC  C216 6878   5.002   4.409   5.190 -0.2429 -0.2247  0.0138
   76SLPC  H16R 6879   5.092   4.354   5.224  0.2516 -0.2652 -1.3123
   76SLPC  H16S 6880   4.985   4.495   5.258  0.2972  0.2881 -0.4861
   76SLPC  C217 6881   5.003   4.463   5.041  0.3366 -0.5430 -0.1121
   76SLPC  H17R 6882   4.897   4.476   5.010  0.3347  0.7101  0.3249
   76SLPC  H17S 6883   5.044   4.390   4.969  0.6854  0.9874 -1.5272
   76SLPC  C218 6884   5.058   4.598   5.017 -0.8259 -1.1046 -1.2154
   76SLPC  H18R 6885   5.158   4.615   5.063 -1.4219  1.8496 -0.8001
   76SLPC  H18S 6886   4.997   4.677   5.066  0.0899 -0.8661 -0.4139
   76SLPC  H18T 6887   5.061   4.631   4.911  2.9227 -1.4473 -1.3469
   76SLPC   C33 6888   5.477   3.881   6.364 -0.4252 -0.0934 -0.4341
   76SLPC   H3X 6889   5.369   3.892   6.340 -0.7559 -2.4676 -0.2033
   76SLPC   H3Y 6890   5.485   3.783   6.414 -0.2812  0.1453  0.0178
   76SLPC   C34 6891   5.553   3.867   6.235  0.2288  0.6834  0.2063
   76SLPC   H4X 6892   5.544   3.764   6.195 -0.2450  0.2381  1.3826
   76SLPC   H4Y 6893   5.663   3.875   6.245  0.6772 -0.7074 -2.6357
   76SLPC   C35 6894   5.522   3.971   6.129 -0.4451 -0.6868 -0.6488
   76SLPC   H5X 6895   5.523   4.074   6.169 -0.0977 -0.9515  0.0499
   76SLPC   H5Y 6896   5.424   3.950   6.081 -0.6586 -1.1604 -0.0195
   76SLPC   C36 6897   5.627   3.968   6.014  0.5003 -0.2249  0.2884
   76SLPC   H6X 6898   5.653   3.866   5.980  2.8076 -0.1535  1.6785
   76SLPC   H6Y 6899   5.718   4.016   6.055  1.7959 -0.5258 -2.0883
   76SLPC   C37 6900   5.581   4.056   5.893  0.7611 -0.1125 -0.1988
   76SLPC   H7X 6901   5.546   4.152   5.937  3.5835  0.6445  0.5832
   76SLPC   H7Y 6902   5.492   4.004   5.851 -0.1529  1.1293  0.1471
   76SLPC   C38 6903   5.690   4.087   5.792  0.0506 -0.1851 -0.6779
   76SLPC   H8X 6904   5.725   3.991   5.749 -1.0952 -1.5023  1.1742
   76SLPC   H8Y 6905   5.771   4.138   5.848 -0.3299 -0.2187 -0.0955
   76SLPC   C39 6906   5.633   4.181   5.683  0.6513  0.4133 -0.8355
   76SLPC   H9X 6907   5.717   4.194   5.613  0.6396  0.5170 -0.8312
   76SLPC   H9Y 6908   5.589   4.276   5.721  1.1672  0.5777 -0.6364
   76SLPC  C310 6909   5.528   4.106   5.601  0.5347  0.2826  0.0139
   76SLPC  H10X 6910   5.446   4.079   5.671  1.9882  3.0827  3.0645
   76SLPC  H10Y 6911   5.567   4.008   5.564 -1.7170  0.5000 -3.3522
   76SLPC  C311 6912   5.479   4.180   5.480  0.0937  0.2461 -0.0822
   76SLPC  H11X 6913   5.566   4.187   5.410  0.9436 -0.4641  0.8786
   76SLPC  H11Y 6914   5.442   4.281   5.508  0.1313  0.1980  0.1430
   76SLPC  C312 6915   5.375   4.101   5.397  0.7572 -0.3588  0.2426
   76SLPC  H12X 6916   5.271   4.102   5.436  0.3173  0.8054 -0.9008
   76SLPC  H12Y 6917   5.424   4.001   5.385 -1.1475 -1.1995 -0.9893
   76SLPC  C313 6918   5.366   4.158   5.252  0.0090  0.3174  0.4363
   76SLPC  H13X 6919   5.467   4.136   5.213 -0.4350 -1.6836  0.3064
   76SLPC  H13Y 6920   5.338   4.264   5.266  0.0137  0.5409 -1.0742
   76SLPC  C314 6921   5.260   4.077   5.171  0.2752  0.4509  0.2766
   76SLPC  H14X 6922   5.164   4.065   5.227 -1.3249 -2.4457 -2.7515
   76SLPC  H14Y 6923   5.305   3.975   5.162  0.3003  0.4830  0.0376
   76SLPC  C315 6924   5.231   4.132   5.033 -0.2514 -0.5540 -0.0433
   76SLPC  H15X 6925   5.185   4.234   5.029 -1.2210 -0.9265  1.1086
   76SLPC  H15Y 6926   5.159   4.064   4.983  0.0842  0.2823 -1.7567
   76SLPC  C316 6927   5.357   4.139   4.942  0.1935  0.4944 -0.8703
   76SLPC  H16X 6928   5.421   4.050   4.953  0.4785  0.7575 -0.3751
   76SLPC  H16Y 6929   5.428   4.217   4.975 -0.8469  0.7953  0.7630
   76SLPC  C317 6930   5.317   4.153   4.798 -0.5782  1.0236 -0.3204
   76SLPC  H17X 6931   5.252   4.239   4.773  0.1068  1.3203 -1.1283
   76SLPC  H17Y 6932   5.251   4.065   4.781  0.6482 -0.4849  2.0214
   76SLPC  C318 6933   5.431   4.146   4.687 -0.0177 -0.0089 -0.1955
   76SLPC  H18X 6934   5.464   4.252   4.680 -0.3665  0.0568 -0.9602
   76SLPC  H18Y 6935   5.394   4.118   4.586  0.0568  0.3301 -0.3171
   76SLPC  H18Z 6936   5.516   4.085   4.724 -0.3940  0.9379  2.3777
   77SLPC     N 6937   4.153   4.409   7.435 -0.2714 -0.3176 -0.2286
   77SLPC   C13 6938   4.165   4.535   7.512 -0.2026  0.7878 -0.1355
   77SLPC  H13A 6939   4.197   4.512   7.613 -3.0717 -0.1280  0.6686
   77SLPC  H13B 6940   4.237   4.597   7.460 -0.4904  1.4698  0.2645
   77SLPC  H13C 6941   4.070   4.587   7.514 -1.6334 -1.6983  1.1801
   77SLPC   C14 6942   4.079   4.436   7.314 -0.6466  0.1311 -0.5353
   77SLPC  H14A 6943   4.036   4.350   7.264 -0.3520 -0.2469 -0.1502
   77SLPC  H14B 6944   3.996   4.502   7.333 -0.6680  0.4468 -1.6404
   77SLPC  H14C 6945   4.147   4.477   7.242  0.1661 -3.5107 -2.0570
   77SLPC   C15 6946   4.075   4.310   7.521 -0.0832 -0.7547 -0.3451
   77SLPC  H15A 6947   3.975   4.347   7.534  0.8431  1.8845  0.0090
   77SLPC  H15B 6948   4.079   4.214   7.474  0.4475 -0.9997  0.1784
   77SLPC  H15C 6949   4.125   4.300   7.617  0.2018 -0.5601 -0.4705
   77SLPC   C12 6950   4.287   4.352   7.396 -0.3049 -0.2568  0.7441
   77SLPC  H12A 6951   4.340   4.329   7.487 -1.8074 -0.9105  1.4758
   77SLPC  H12B 6952   4.352   4.424   7.348  1.0443 -1.6841  0.3210
   77SLPC   C11 6953   4.299   4.230   7.307  0.6467 -0.2465  0.5902
   77SLPC  H11A 6954   4.409   4.215   7.302  0.8754  0.8965  1.5967
   77SLPC  H11B 6955   4.276   4.259   7.203 -0.2630 -2.1737  0.2136
   77SLPC     P 6956   4.286   3.989   7.408 -0.0466  0.0057  0.3527
   77SLPC   O13 6957   4.344   4.032   7.537 -0.3088 -0.4027  0.3466
   77SLPC   O14 6958   4.195   3.868   7.410  0.3232 -0.7773  0.1686
   77SLPC   O12 6959   4.221   4.120   7.348  0.4811 -0.2748 -0.2136
   77SLPC   O11 6960   4.395   3.950   7.308 -0.5246 -0.0665 -0.5298
   77SLPC    C1 6961   4.396   3.868   7.189  0.6978 -0.8969 -0.3021
   77SLPC    HA 6962   4.468   3.785   7.207  1.5910 -0.0057  0.3436
   77SLPC    HB 6963   4.298   3.822   7.165 -0.6562  1.9970 -0.6730
   77SLPC    C2 6964   4.453   3.943   7.066 -0.7026 -0.3917  0.2345
   77SLPC    HS 6965   4.545   3.988   7.108 -0.9184 -0.0864  0.3828
   77SLPC   O21 6966   4.359   4.045   7.027 -0.1107  0.4490  0.4143
   77SLPC   C21 6967   4.399   4.158   6.973  0.5092  0.0609 -0.0588
   77SLPC   O22 6968   4.515   4.195   6.957 -0.0157  0.5473 -0.0532
   77SLPC   C22 6969   4.272   4.235   6.929 -0.2518 -0.2045  0.3125
   77SLPC   H2R 6970   4.195   4.158   6.910 -0.3087  0.3055 -1.8429
   77SLPC   H2S 6971   4.235   4.308   7.004  0.0117 -0.4072  0.6427
   77SLPC    C3 6972   4.488   3.856   6.934 -0.5685 -0.5640 -0.0859
   77SLPC    HX 6973   4.386   3.833   6.895 -1.3955 -0.9440  2.1437
   77SLPC    HY 6974   4.528   3.756   6.959 -1.2886 -0.8947 -0.2378
   77SLPC   O31 6975   4.580   3.916   6.836  0.3119 -0.3663  0.6202
   77SLPC   C31 6976   4.703   3.931   6.864 -0.6139 -0.0057 -0.0624
   77SLPC   O32 6977   4.760   3.898   6.971 -0.1977  0.4755  0.3165
   77SLPC   C32 6978   4.756   4.029   6.756 -0.0952 -0.2174  0.4992
   77SLPC   H2X 6979   4.733   4.135   6.782  0.6312 -0.4046  1.9710
   77SLPC   H2Y 6980   4.709   4.013   6.656  2.5073  0.8067 -1.0126
   77SLPC   C23 6981   4.295   4.313   6.803 -0.0852 -0.7685 -0.1409
   77SLPC   H3R 6982   4.374   4.389   6.819 -0.8690 -0.3098  1.8885
   77SLPC   H3S 6983   4.202   4.371   6.787  0.6736  0.7054  0.5663
   77SLPC   C24 6984   4.323   4.231   6.679 -0.1255  0.5128  0.0358
   77SLPC   H4R 6985   4.396   4.151   6.701 -0.3073  0.6701  1.2898
   77SLPC   H4S 6986   4.379   4.291   6.605  1.9543 -2.3019 -0.8582
   77SLPC   C25 6987   4.195   4.169   6.604 -0.2417  0.4415  0.4654
   77SLPC   H5R 6988   4.128   4.243   6.556 -1.4771 -2.3405 -2.4392
   77SLPC   H5S 6989   4.132   4.123   6.684 -1.4379 -0.0066 -0.6891
   77SLPC   C26 6990   4.233   4.060   6.495  0.3240 -0.0453  0.0316
   77SLPC   H6R 6991   4.139   4.013   6.460 -0.6352  1.0178  1.0852
   77SLPC   H6S 6992   4.295   3.979   6.537  2.5232  1.0186 -0.9599
   77SLPC   C27 6993   4.311   4.136   6.386 -0.0073  0.6704 -0.2662
   77SLPC   H7R 6994   4.397   4.194   6.425  0.9579 -0.3587 -0.8280
   77SLPC   H7S 6995   4.246   4.220   6.354 -1.1016 -0.9062 -2.4908
   77SLPC   C28 6996   4.360   4.048   6.265  0.6631  0.3723 -0.2348
   77SLPC   H8R 6997   4.451   3.999   6.306  0.8467  1.8145  1.1944
   77SLPC   H8S 6998   4.379   4.122   6.185 -1.9800  0.0559 -1.2725
   77SLPC   C29 6999   4.263   3.941   6.211  0.4344 -0.5069  0.0633
   77SLPC   H9R 7000   4.225   3.879   6.293 -0.1484  1.3694  1.2699
   77SLPC  C210 7001   4.235   3.920   6.085  0.2505 -0.6258  0.3353
   77SLPC  H10R 7002   4.161   3.843   6.059 -1.0393  0.5655  0.3591
   77SLPC  C211 7003   4.303   3.990   5.970  0.5161  0.0875  0.4064
   77SLPC  H11R 7004   4.413   3.989   5.985  0.8027 -0.1971 -1.4294
   77SLPC  H11S 7005   4.278   4.098   5.964  1.2822  0.2282 -0.3439
   77SLPC  C212 7006   4.289   3.927   5.834 -0.4403  0.2030 -0.1450
   77SLPC  H12R 7007   4.363   3.847   5.822  0.6611  0.9896  1.0138
   77SLPC  C213 7008   4.202   3.944   5.737  0.1475 -0.4176  0.1814
   77SLPC  H13R 7009   4.214   3.892   5.640  1.0703 -1.3107  0.7541
   77SLPC  C214 7010   4.098   4.045   5.740 -0.0579 -0.1482 -0.2945
   77SLPC  H14R 7011   4.059   4.061   5.843 -2.2448  0.4550 -1.1625
   77SLPC  H14S 7012   4.013   3.995   5.688  0.1812 -1.9287  0.9403
   77SLPC  C215 7013   4.136   4.181   5.680 -0.5215 -0.6665 -0.4237
   77SLPC  H15R 7014   4.205   4.243   5.740 -1.3701  0.3432 -0.4543
   77SLPC  H15S 7015   4.041   4.236   5.662 -0.2740 -0.3800 -0.8595
   77SLPC  C216 7016   4.210   4.163   5.549  0.3452  0.2398 -0.6778
   77SLPC  H16R 7017   4.310   4.114   5.561  0.6968  0.7667 -1.4000
   77SLPC  H16S 7018   4.228   4.264   5.506  2.9811  0.4385  0.6811
   77SLPC  C217 7019   4.134   4.086   5.437  0.3700  0.2024 -0.7505
   77SLPC  H17R 7020   4.067   4.012   5.484  2.3607 -0.9619  0.3897
   77SLPC  H17S 7021   4.206   4.033   5.371 -2.1399 -2.3109 -1.6396
   77SLPC  C218 7022   4.043   4.191   5.357  0.9285 -0.1355 -0.3338
   77SLPC  H18R 7023   3.980   4.124   5.296  1.7828  0.7217 -2.2535
   77SLPC  H18S 7024   4.107   4.245   5.284 -0.0282  2.5334  0.6607
   77SLPC  H18T 7025   3.997   4.264   5.427  1.3973 -0.2258  0.0765
   77SLPC   C33 7026   4.911   4.024   6.748  0.5715  0.0955  0.2431
   77SLPC   H3X 7027   4.937   4.004   6.854  1.0234 -1.9822 -0.2129
   77SLPC   H3Y 7028   4.948   4.124   6.717  1.8150  1.0657  4.2081
   77SLPC   C34 7029   4.979   3.904   6.663  0.1756  0.3703  0.0405
   77SLPC   H4X 7030   4.931   3.811   6.699 -0.5428  0.7195  0.0048
   77SLPC   H4Y 7031   5.086   3.911   6.690  1.0586 -0.6893 -2.8878
   77SLPC   C35 7032   4.964   3.931   6.513 -0.3469  0.7119  0.2468
   77SLPC   H5X 7033   4.998   4.031   6.480  0.0407  0.7060  0.6177
   77SLPC   H5Y 7034   4.858   3.909   6.487  0.5285  0.1817 -3.3580
   77SLPC   C36 7035   5.050   3.830   6.431 -0.2416 -0.0398 -0.1863
   77SLPC   H6X 7036   5.037   3.723   6.456  3.6838 -0.3971  0.9878
   77SLPC   H6Y 7037   5.158   3.847   6.450 -0.4539 -0.3824  1.4648
   77SLPC   C37 7038   5.025   3.857   6.286 -0.2792 -0.1046 -0.7508
   77SLPC   H7X 7039   5.013   3.959   6.244  1.7387 -0.3369 -2.0591
   77SLPC   H7Y 7040   4.933   3.802   6.260 -0.7218  0.8345 -1.1856
   77SLPC   C38 7041   5.143   3.800   6.195  0.4753  0.0412 -0.5406
   77SLPC   H8X 7042   5.155   3.695   6.228 -0.4858  1.0916  3.9697
   77SLPC   H8Y 7043   5.236   3.859   6.212  0.2583  0.7658 -1.7942
   77SLPC   C39 7044   5.116   3.811   6.044  0.0824 -0.5613 -0.3388
   77SLPC   H9X 7045   5.149   3.910   6.008 -0.1112 -0.7183 -0.9748
   77SLPC   H9Y 7046   5.009   3.791   6.017 -0.9570 -0.1863  3.0976
   77SLPC  C310 7047   5.201   3.709   5.967  1.0567 -0.1553 -1.2047
   77SLPC  H10X 7048   5.183   3.606   6.003 -0.2932  0.5563  0.2655
   77SLPC  H10Y 7049   5.307   3.732   5.993  0.7565  2.2690 -1.8876
   77SLPC  C311 7050   5.179   3.708   5.813  1.5064 -0.2782  0.2222
   77SLPC  H11X 7051   5.070   3.688   5.804  1.3753 -0.5561  2.0708
   77SLPC  H11Y 7052   5.240   3.634   5.757  0.1744 -0.8880 -0.4634
   77SLPC  C312 7053   5.210   3.841   5.740 -0.1465  0.7138  0.2972
   77SLPC  H12X 7054   5.316   3.871   5.730 -0.3770  1.8672  1.0133
   77SLPC  H12Y 7055   5.168   3.927   5.798 -2.2642  0.8164 -1.2496
   77SLPC  C313 7056   5.132   3.852   5.605 -0.1268 -0.7133  0.1432
   77SLPC  H13X 7057   5.160   3.951   5.564 -1.3007  0.6773  2.4570
   77SLPC  H13Y 7058   5.025   3.847   5.634  0.8192 -0.8565  4.1569
   77SLPC  C314 7059   5.158   3.745   5.499  0.0854  0.3850 -0.2516
   77SLPC  H14X 7060   5.111   3.780   5.405  0.3428  1.0439 -0.1338
   77SLPC  H14Y 7061   5.128   3.641   5.526  1.9709  0.2387  1.5027
   77SLPC  C315 7062   5.304   3.719   5.472  0.0595 -0.0410  0.1520
   77SLPC  H15X 7063   5.345   3.657   5.555  2.2674  1.4930  0.2756
   77SLPC  H15Y 7064   5.355   3.817   5.465  0.4940 -0.2674  0.1403
   77SLPC  C316 7065   5.314   3.637   5.340  0.4934  0.6346 -0.5552
   77SLPC  H16X 7066   5.418   3.645   5.300  0.8901 -0.6610  0.1550
   77SLPC  H16Y 7067   5.252   3.687   5.264 -1.5956 -0.5707  0.2681
   77SLPC  C317 7068   5.275   3.487   5.367 -0.5377 -0.8943  0.4737
   77SLPC  H17X 7069   5.168   3.483   5.396 -0.7859  0.4477 -0.1553
   77SLPC  H17Y 7070   5.328   3.456   5.460 -1.9234 -0.7583  1.3452
   77SLPC  C318 7071   5.303   3.397   5.248 -0.2925  0.3821 -1.0504
   77SLPC  H18X 7072   5.229   3.405   5.166 -0.6754 -2.1257 -1.0405
   77SLPC  H18Y 7073   5.309   3.287   5.266 -0.9289  0.2448 -1.6540
   77SLPC  H18Z 7074   5.402   3.414   5.200 -0.2973 -1.6281 -1.8692
   78SLPC     N 7075   1.200   0.510   7.360 -0.0651  0.2594  0.6294
   78SLPC   C13 7076   1.077   0.463   7.429  1.0960  0.5512  0.7622
   78SLPC  H13A 7077   1.024   0.550   7.466  1.2850  0.6597  0.7827
   78SLPC  H13B 7078   1.009   0.419   7.358  0.9644  0.2663  1.0646
   78SLPC  H13C 7079   1.112   0.395   7.505 -0.6752 -0.3769  0.8017
   78SLPC   C14 7080   1.300   0.547   7.462 -0.2018  0.1006 -0.0022
   78SLPC  H14A 7081   1.282   0.642   7.510  1.9223  1.6350 -1.9961
   78SLPC  H14B 7082   1.302   0.475   7.544  0.8936  0.1923  0.0694
   78SLPC  H14C 7083   1.399   0.562   7.421  0.6764 -1.8785  1.2221
   78SLPC   C15 7084   1.173   0.625   7.269  0.4015 -0.4796  0.2494
   78SLPC  H15A 7085   1.080   0.613   7.216  0.2944  0.9327  0.0831
   78SLPC  H15B 7086   1.172   0.715   7.328 -2.3030  0.0949 -0.5372
   78SLPC  H15C 7087   1.251   0.623   7.195 -0.8448 -2.2512 -1.1067
   78SLPC   C12 7088   1.245   0.390   7.273  0.2337 -0.6256 -0.2905
   78SLPC  H12A 7089   1.158   0.351   7.221  0.0793  0.0681 -0.5630
   78SLPC  H12B 7090   1.277   0.316   7.345  2.2886  0.4801  0.0048
   78SLPC   C11 7091   1.365   0.413   7.177  0.2124  0.4741  0.6079
   78SLPC  H11A 7092   1.412   0.319   7.141  1.7732  1.6814 -0.6903
   78SLPC  H11B 7093   1.445   0.467   7.232  2.2358  0.7805 -2.3523
   78SLPC     P 7094   1.238   0.427   6.950  0.2009  0.2350 -0.2450
   78SLPC   O13 7095   1.319   0.379   6.832  0.0360  0.3781  0.0651
   78SLPC   O14 7096   1.145   0.324   6.998 -0.3706  0.5429 -0.2276
   78SLPC   O12 7097   1.335   0.491   7.064  0.0730  0.3318 -0.2210
   78SLPC   O11 7098   1.157   0.552   6.904 -0.1813  0.0131  0.2563
   78SLPC    C1 7099   1.233   0.671   6.873  0.2774 -0.2691 -0.4964
   78SLPC    HA 7100   1.194   0.758   6.930 -2.4953 -2.7850  1.7214
   78SLPC    HB 7101   1.344   0.675   6.884  0.2272  1.3618 -0.3560
   78SLPC    C2 7102   1.224   0.702   6.725  0.9476  0.3282  0.1199
   78SLPC    HS 7103   1.280   0.796   6.704  0.6488 -0.2114 -3.9160
   78SLPC   O21 7104   1.081   0.720   6.686  0.2145  0.5113 -0.4254
   78SLPC   C21 7105   1.050   0.829   6.626  0.2242 -0.1724  0.0516
   78SLPC   O22 7106   1.127   0.919   6.593 -0.1992 -0.1217 -0.4188
   78SLPC   C22 7107   0.909   0.813   6.566  0.3250 -0.1479 -0.3371
   78SLPC   H2R 7108   0.842   0.740   6.617 -3.3712  1.7867 -1.9993
   78SLPC   H2S 7109   0.855   0.909   6.578 -1.2942 -1.3461  3.2953
   78SLPC    C3 7110   1.306   0.603   6.646  0.5011 -0.0391  0.4997
   78SLPC    HX 7111   1.239   0.514   6.646 -0.0462  0.2839 -2.3011
   78SLPC    HY 7112   1.398   0.570   6.698  0.4383 -2.1563 -0.6418
   78SLPC   O31 7113   1.313   0.641   6.508  0.3488 -0.0565  0.9083
   78SLPC   C31 7114   1.424   0.723   6.494  0.1373  0.2143  0.5735
   78SLPC   O32 7115   1.504   0.756   6.579  0.4435 -0.2166 -0.4044
   78SLPC   C32 7116   1.447   0.755   6.347  0.0203  0.4618  0.0687
   78SLPC   H2X 7117   1.531   0.688   6.317 -1.5157 -0.5540 -2.1859
   78SLPC   H2Y 7118   1.477   0.861   6.348 -0.8916  0.7280 -0.1295
   78SLPC   C23 7119   0.905   0.781   6.417  0.0228  0.1431  0.0729
   78SLPC   H3R 7120   0.960   0.692   6.381  1.5326  1.5646 -1.3377
   78SLPC   H3S 7121   0.943   0.861   6.349 -2.4106  0.4977 -0.9881
   78SLPC   C24 7122   0.761   0.769   6.356 -0.5977 -0.1762 -0.3635
   78SLPC   H4R 7123   0.735   0.875   6.336  0.8965  0.0824 -1.1025
   78SLPC   H4S 7124   0.697   0.734   6.439  0.9962  1.3501  1.6277
   78SLPC   C25 7125   0.743   0.688   6.233  0.0332  0.0067 -0.3972
   78SLPC   H5R 7126   0.634   0.692   6.211 -0.1552  2.2933  0.7480
   78SLPC   H5S 7127   0.784   0.589   6.261  1.0811  0.3846 -0.5284
   78SLPC   C26 7128   0.819   0.738   6.103 -0.3674 -0.9332 -0.2410
   78SLPC   H6R 7129   0.925   0.750   6.134 -0.4367  1.7962 -0.8063
   78SLPC   H6S 7130   0.786   0.843   6.086  1.7065 -0.3964 -1.2465
   78SLPC   C27 7131   0.802   0.654   5.977  0.4301 -1.2240 -0.0748
   78SLPC   H7R 7132   0.692   0.641   5.971  0.1048  0.4711  1.2708
   78SLPC   H7S 7133   0.849   0.558   6.007  0.1282 -1.1717  0.5848
   78SLPC   C28 7134   0.863   0.718   5.845 -0.1804 -0.3887  0.0842
   78SLPC   H8R 7135   0.892   0.633   5.780 -1.6777  0.3321 -1.6142
   78SLPC   H8S 7136   0.963   0.752   5.881  1.1618 -0.9878 -2.7816
   78SLPC   C29 7137   0.781   0.834   5.787  0.1645 -0.1143 -0.2759
   78SLPC   H9R 7138   0.700   0.873   5.850 -0.1256 -1.9657  0.5454
   78SLPC  C210 7139   0.799   0.895   5.670  0.5379  0.4157 -0.6053
   78SLPC  H10R 7140   0.734   0.976   5.634  0.8523 -0.0730 -2.3720
   78SLPC  C211 7141   0.893   0.837   5.567 -0.7051 -0.3226  0.3551
   78SLPC  H11R 7142   0.836   0.791   5.484  1.0223 -1.0981 -0.4488
   78SLPC  H11S 7143   0.954   0.750   5.601 -2.0900 -0.8708  1.5471
   78SLPC  C212 7144   0.987   0.945   5.521 -0.4984  1.0857  0.6924
   78SLPC  H12R 7145   1.054   0.976   5.603  0.2090  0.5185  0.3354
   78SLPC  C213 7146   0.999   1.017   5.408  0.2741  0.1629 -0.1257
   78SLPC  H13R 7147   1.074   1.097   5.396  1.6509 -1.0945 -0.1502
   78SLPC  C214 7148   0.910   0.989   5.292 -0.5917 -1.2593  0.0270
   78SLPC  H14R 7149   0.866   1.086   5.263 -0.2249  0.1757  3.7241
   78SLPC  H14S 7150   0.817   0.931   5.309 -1.5308 -0.0295 -0.7579
   78SLPC  C215 7151   1.007   0.940   5.180 -0.7013  0.5018  0.0099
   78SLPC  H15R 7152   1.043   0.838   5.208 -0.5793  0.3666 -0.6345
   78SLPC  H15S 7153   1.087   1.015   5.164 -0.5093 -0.1374 -2.4387
   78SLPC  C216 7154   0.935   0.926   5.041 -0.5229 -0.6584 -0.4714
   78SLPC  H16R 7155   0.886   1.024   5.026 -0.2785 -0.5771 -0.7480
   78SLPC  H16S 7156   0.855   0.850   5.056 -0.2212 -1.5192 -2.7117
   78SLPC  C217 7157   1.020   0.888   4.915  0.8206 -1.3011 -0.3624
   78SLPC  H17R 7158   1.065   0.981   4.874 -1.9533  0.8950  1.1671
   78SLPC  H17S 7159   0.950   0.855   4.834 -0.9722  1.0654  0.0980
   78SLPC  C218 7160   1.123   0.786   4.961  1.0927  0.0862  0.4852
   78SLPC  H18R 7161   1.180   0.744   4.875  0.5028 -0.9345  0.5754
   78SLPC  H18S 7162   1.062   0.707   5.011  0.0292  1.7586  1.9302
   78SLPC  H18T 7163   1.196   0.823   5.035 -0.9588 -2.2401  3.9877
   78SLPC   C33 7164   1.333   0.744   6.243 -0.1134 -0.2049  0.0793
   78SLPC   H3X 7165   1.239   0.760   6.299  0.6362 -1.9034  1.9619
   78SLPC   H3Y 7166   1.347   0.641   6.203 -1.8539 -1.1803  1.8207
   78SLPC   C34 7167   1.322   0.856   6.138 -0.7381 -0.6358 -0.1094
   78SLPC   H4X 7168   1.420   0.866   6.086 -1.0462  0.0435 -0.5694
   78SLPC   H4Y 7169   1.295   0.953   6.185 -1.2148 -0.0967 -1.4385
   78SLPC   C35 7170   1.215   0.828   6.032 -0.1113  0.0786  0.2300
   78SLPC   H5X 7171   1.123   0.799   6.088  0.5570  2.9609  3.0467
   78SLPC   H5Y 7172   1.238   0.752   5.954  0.5639 -1.1729  1.6025
   78SLPC   C36 7173   1.174   0.960   5.963  0.0337 -0.2112  1.0179
   78SLPC   H6X 7174   1.144   1.029   6.045 -1.9932  0.1620  0.0315
   78SLPC   H6Y 7175   1.080   0.953   5.904  2.4706  0.8594 -3.4190
   78SLPC   C37 7176   1.274   1.029   5.866  0.0676 -0.5135  0.0177
   78SLPC   H7X 7177   1.359   1.072   5.924 -2.0868  1.0128  2.2915
   78SLPC   H7Y 7178   1.233   1.119   5.815  3.1652  1.9809  1.5481
   78SLPC   C38 7179   1.308   0.931   5.754  0.0907  0.0457 -0.2703
   78SLPC   H8X 7180   1.219   0.877   5.716 -1.4141  1.1004  1.5601
   78SLPC   H8Y 7181   1.385   0.860   5.791  0.6738  0.6880 -0.2113
   78SLPC   C39 7182   1.378   1.014   5.642  0.2350 -0.8196  0.7441
   78SLPC   H9X 7183   1.477   1.056   5.668  0.3899 -0.3912 -0.4551
   78SLPC   H9Y 7184   1.303   1.096   5.630 -1.0726 -1.8192  1.8922
   78SLPC  C310 7185   1.390   0.945   5.507  0.1572 -1.1727  0.0711
   78SLPC  H10X 7186   1.290   0.905   5.479 -1.0829  2.5418 -1.4044
   78SLPC  H10Y 7187   1.480   0.880   5.499  1.4232  0.4917  0.3507
   78SLPC  C311 7188   1.406   1.048   5.388  0.4107  0.7343 -0.8646
   78SLPC  H11X 7189   1.489   1.120   5.404  0.5163  0.1175  1.8017
   78SLPC  H11Y 7190   1.314   1.111   5.393 -0.0720 -0.0191  0.3220
   78SLPC  C312 7191   1.428   0.979   5.254  0.2820  0.2082 -0.0726
   78SLPC  H12X 7192   1.352   0.900   5.235 -1.2243  1.6433 -0.1982
   78SLPC  H12Y 7193   1.525   0.925   5.267  0.3839  0.8494  2.3969
   78SLPC  C313 7194   1.442   1.075   5.136  0.5689  0.4032 -0.4061
   78SLPC  H13X 7195   1.514   1.153   5.170  0.3854 -0.3821  1.9470
   78SLPC  H13Y 7196   1.348   1.130   5.113  0.0804 -0.1290  0.2919
   78SLPC  C314 7197   1.501   1.002   5.011  0.2160  0.1376 -0.0892
   78SLPC  H14X 7198   1.419   0.961   4.948  0.5839  2.0852 -1.9300
   78SLPC  H14Y 7199   1.558   0.910   5.038 -0.4315 -1.3589 -3.3185
   78SLPC  C315 7200   1.593   1.087   4.929  0.1112 -0.3655 -0.1329
   78SLPC  H15X 7201   1.678   1.121   4.991  1.1610 -0.0941 -1.6812
   78SLPC  H15Y 7202   1.541   1.182   4.902 -1.5287 -1.4737 -1.0561
   78SLPC  C316 7203   1.629   1.022   4.795  1.1072  0.1460  0.8433
   78SLPC  H16X 7204   1.540   0.979   4.745 -1.0191 -1.6372  5.5484
   78SLPC  H16Y 7205   1.702   0.938   4.797 -1.1790 -2.0597 -1.4921
   78SLPC  C317 7206   1.682   1.118   4.682 -0.4067 -0.3194 -0.1096
   78SLPC  H17X 7207   1.723   1.069   4.591 -1.0081  1.0836 -1.1704
   78SLPC  H17Y 7208   1.774   1.152   4.734 -0.2053 -1.8241  0.5857
   78SLPC  C318 7209   1.582   1.226   4.647  0.1950  0.0861  0.5259
   78SLPC  H18X 7210   1.617   1.290   4.564  1.5210 -1.1024  0.1244
   78SLPC  H18Y 7211   1.552   1.285   4.736 -1.5841 -2.8270  2.0243
   78SLPC  H18Z 7212   1.491   1.183   4.600  0.8184  0.0297 -0.6642
   79SLPC     N 7213   6.449   4.282   6.983 -0.1877  1.0057  0.2560
   79SLPC   C13 7214   6.307   4.307   7.004  0.0677 -0.5404 -0.1878
   79SLPC  H13A 7215   6.275   4.303   7.107  0.4161 -0.4161 -0.0763
   79SLPC  H13B 7216   6.288   4.411   6.981  0.6631 -0.7349 -1.6354
   79SLPC  H13C 7217   6.246   4.244   6.940  0.5976 -0.3633 -0.8842
   79SLPC   C14 7218   6.483   4.145   7.042 -0.0265  0.4794 -0.5379
   79SLPC  H14A 7219   6.580   4.127   6.999 -0.0918 -1.6850  0.0564
   79SLPC  H14B 7220   6.490   4.148   7.150  2.1314 -0.0653 -0.6139
   79SLPC  H14C 7221   6.415   4.068   7.009 -0.6579  0.4786  0.6709
   79SLPC   C15 7222   6.529   4.397   7.048  0.4395  0.8863 -0.5680
   79SLPC  H15A 7223   6.491   4.496   7.026 -1.9422  0.3825  0.9303
   79SLPC  H15B 7224   6.533   4.391   7.156 -0.8373  0.8177 -0.5020
   79SLPC  H15C 7225   6.628   4.380   7.010  0.6252  1.7020 -0.4683
   79SLPC   C12 7226   6.481   4.280   6.832  1.0056 -0.2531  0.5320
   79SLPC  H12A 7227   6.428   4.367   6.796  2.3774 -0.4185 -2.2026
   79SLPC  H12B 7228   6.428   4.191   6.801 -1.6504  0.6213  2.2150
   79SLPC   C11 7229   6.626   4.273   6.783 -0.5110  0.1227  0.4738
   79SLPC  H11A 7230   6.684   4.347   6.843  1.2313  0.5420 -1.6299
   79SLPC  H11B 7231   6.628   4.306   6.677  1.7866  1.3709  0.8315
   79SLPC     P 7232   6.646   4.025   6.687 -0.6369  0.5887  0.1203
   79SLPC   O13 7233   6.704   3.902   6.734  0.7337  0.1798 -0.6381
   79SLPC   O14 7234   6.503   4.018   6.657 -0.1478 -0.7317 -0.1131
   79SLPC   O12 7235   6.668   4.137   6.799 -0.0461 -0.3017 -0.0220
   79SLPC   O11 7236   6.724   4.080   6.562  0.3206 -0.1815 -0.0876
   79SLPC    C1 7237   6.859   4.126   6.575 -0.6659 -1.2920  0.3642
   79SLPC    HA 7238   6.885   4.141   6.682  0.0956 -1.2781  0.1785
   79SLPC    HB 7239   6.926   4.047   6.535 -0.4606 -1.4388  0.9848
   79SLPC    C2 7240   6.876   4.246   6.481 -0.2709  0.4378  0.1340
   79SLPC    HS 7241   6.783   4.306   6.489 -2.0520 -2.2144  0.6139
   79SLPC   O21 7242   6.884   4.180   6.355  0.4771  0.5165  0.1939
   79SLPC   C21 7243   6.842   4.255   6.256  0.0864  0.2632 -0.4718
   79SLPC   O22 7244   6.799   4.368   6.261 -0.6352 -0.2941 -0.2299
   79SLPC   C22 7245   6.866   4.177   6.124 -1.0625 -0.2484  0.0534
   79SLPC   H2R 7246   6.916   4.079   6.142 -1.6469 -0.6498 -0.4696
   79SLPC   H2S 7247   6.761   4.163   6.092 -0.5932 -1.3070 -1.1193
   79SLPC    C3 7248   7.000   4.335   6.512  0.1295  0.5750 -0.6410
   79SLPC    HX 7249   7.080   4.265   6.544 -0.3564 -0.0178 -0.7312
   79SLPC    HY 7250   7.002   4.392   6.607  2.1327 -0.7144  0.1655
   79SLPC   O31 7251   7.052   4.411   6.400 -0.7193  0.0351 -0.4219
   79SLPC   C31 7252   7.005   4.530   6.395  0.8190  0.6225  0.2695
   79SLPC   O32 7253   6.919   4.583   6.462  0.4463 -0.1648 -0.0397
   79SLPC   C32 7254   7.092   4.606   6.297  0.1725  0.4034 -0.1556
   79SLPC   H2X 7255   7.100   4.552   6.201 -4.3879  1.5891 -1.4260
   79SLPC   H2Y 7256   7.194   4.619   6.341 -0.8018 -0.3740  2.5233
   79SLPC   C23 7257   6.955   4.256   6.022 -0.5471 -0.3830 -0.5507
   79SLPC   H3R 7258   7.048   4.262   6.083 -2.8030 -0.9116  3.1890
   79SLPC   H3S 7259   6.925   4.361   6.002  0.7754  0.0879 -0.1462
   79SLPC   C24 7260   6.985   4.190   5.885  0.5667  0.3413 -0.1410
   79SLPC   H4R 7261   6.885   4.170   5.843  0.8711 -0.1653 -0.6286
   79SLPC   H4S 7262   7.041   4.096   5.900 -1.3167 -0.7740  0.1760
   79SLPC   C25 7263   7.066   4.275   5.789 -0.0415  0.3047 -0.6647
   79SLPC   H5R 7264   7.148   4.315   5.853 -0.2660 -2.1326  1.3097
   79SLPC   H5S 7265   7.001   4.358   5.753 -5.2104 -3.3601 -0.8329
   79SLPC   C26 7266   7.113   4.205   5.667 -0.5397  0.0269 -0.2053
   79SLPC   H6R 7267   7.024   4.167   5.613 -0.8282  1.4149 -0.7633
   79SLPC   H6S 7268   7.173   4.115   5.692  1.2241  1.6227  1.6958
   79SLPC   C27 7269   7.204   4.292   5.581  0.1572  0.3893  0.8316
   79SLPC   H7R 7270   7.286   4.333   5.644  1.0701  1.4490 -0.9712
   79SLPC   H7S 7271   7.145   4.383   5.558  2.5100  1.7510 -0.0949
   79SLPC   C28 7272   7.285   4.230   5.468  0.5752  0.0365  0.5502
   79SLPC   H8R 7273   7.341   4.147   5.516 -1.7384 -2.1896 -0.3764
   79SLPC   H8S 7274   7.367   4.301   5.443  0.8687  0.0468  1.4918
   79SLPC   C29 7275   7.211   4.190   5.342  0.1987  0.3895 -0.6731
   79SLPC   H9R 7276   7.103   4.181   5.359  0.6087  0.4217  2.4537
   79SLPC  C210 7277   7.272   4.183   5.222 -0.3102  0.6845 -0.2147
   79SLPC  H10R 7278   7.214   4.162   5.131  1.4025  0.0285 -1.2144
   79SLPC  C211 7279   7.412   4.207   5.200 -0.6577  0.0657 -0.1176
   79SLPC  H11R 7280   7.480   4.131   5.243 -0.4503  0.7995  0.8830
   79SLPC  H11S 7281   7.445   4.302   5.247  0.3757 -0.0180 -0.6416
   79SLPC  C212 7282   7.474   4.228   5.059 -0.0052 -0.5522  0.4229
   79SLPC  H12R 7283   7.513   4.330   5.048  1.5834 -1.0184  1.3994
   79SLPC  C213 7284   7.476   4.144   4.950  0.4739  0.2011 -0.0364
   79SLPC  H13R 7285   7.535   4.173   4.862 -1.7407  1.2583 -1.2397
   79SLPC  C214 7286   7.423   3.998   4.955 -0.0468 -0.0571  0.1077
   79SLPC  H14R 7287   7.327   3.988   4.899  0.6986 -0.3927 -1.1541
   79SLPC  H14S 7288   7.405   3.952   5.054  1.6925  1.1644  1.0335
   79SLPC  C215 7289   7.524   3.907   4.878 -0.5166  0.2358 -0.4707
   79SLPC  H15R 7290   7.547   3.953   4.779  1.0055  1.2607  0.3283
   79SLPC  H15S 7291   7.485   3.806   4.854  1.7557 -0.5516 -1.0709
   79SLPC  C216 7292   7.653   3.889   4.963  0.0732 -0.2413  0.2851
   79SLPC  H16R 7293   7.633   3.922   5.067  0.0751 -0.6311  0.4111
   79SLPC  H16S 7294   7.743   3.939   4.921  0.4355 -1.8678 -0.9887
   79SLPC  C217 7295   7.674   3.738   4.967  0.1282 -0.6922 -0.2976
   79SLPC  H17R 7296   7.697   3.700   4.866 -0.4289 -4.1615  0.7534
   79SLPC  H17S 7297   7.572   3.703   4.992  0.0225 -0.6436 -0.6619
   79SLPC  C218 7298   7.786   3.686   5.062  0.1617 -0.1422  0.1522
   79SLPC  H18R 7299   7.771   3.735   5.161  0.6295 -1.5679  0.9521
   79SLPC  H18S 7300   7.889   3.710   5.028  0.6063 -1.6096  0.4017
   79SLPC  H18T 7301   7.770   3.576   5.061 -1.5772  0.0686 -1.2864
   79SLPC   C33 7302   7.035   4.749   6.260  0.1894  1.0502 -0.0268
   79SLPC   H3X 7303   7.123   4.814   6.239 -0.1646  1.6954  0.4602
   79SLPC   H3Y 7304   6.984   4.802   6.343 -0.7216  0.9145 -0.4833
   79SLPC   C34 7305   6.930   4.742   6.142  0.5789  0.4322  0.7077
   79SLPC   H4X 7306   6.878   4.840   6.145 -1.0431 -0.3548 -0.1001
   79SLPC   H4Y 7307   6.851   4.664   6.146 -0.4144  1.2805 -1.0780
   79SLPC   C35 7308   6.995   4.723   6.009 -0.5036 -0.5157  0.9638
   79SLPC   H5X 7309   7.001   4.616   5.978  1.2149  0.0698 -0.9234
   79SLPC   H5Y 7310   7.092   4.778   6.005 -1.5254  1.2924 -0.6102
   79SLPC   C36 7311   6.913   4.810   5.912  0.5521  0.4751 -1.2889
   79SLPC   H6X 7312   6.912   4.913   5.952 -0.5429  0.7817 -2.0387
   79SLPC   H6Y 7313   6.809   4.772   5.926 -0.2323  1.9351 -2.7313
   79SLPC   C37 7314   6.944   4.810   5.771 -0.0746  0.2862 -0.1166
   79SLPC   H7X 7315   6.949   4.704   5.738  0.1628  0.2446  0.0489
   79SLPC   H7Y 7316   7.043   4.862   5.767 -1.1352  2.3391 -2.3266
   79SLPC   C38 7317   6.857   4.898   5.679  0.0334  0.1014 -0.0946
   79SLPC   H8X 7318   6.851   5.005   5.709 -0.8422 -0.5553  2.3101
   79SLPC   H8Y 7319   6.751   4.864   5.678 -0.3853  1.3364  0.3000
   79SLPC   C39 7320   6.920   4.892   5.543  0.1163 -0.2085  0.3829
   79SLPC   H9X 7321   6.929   4.788   5.504 -1.5167 -0.1803 -0.1406
   79SLPC   H9Y 7322   7.027   4.916   5.562  0.0386 -1.2896  2.4439
   79SLPC  C310 7323   6.846   4.973   5.437  0.1806  0.6700 -0.4781
   79SLPC  H10X 7324   6.815   5.075   5.469  0.6135  1.2449 -1.8033
   79SLPC  H10Y 7325   6.751   4.919   5.420 -0.0919  0.9786  0.0350
   79SLPC  C311 7326   6.925   4.996   5.305 -0.9130 -0.2313 -0.3722
   79SLPC  H11X 7327   6.941   4.892   5.271 -2.7966 -0.5270 -0.4689
   79SLPC  H11Y 7328   7.025   5.042   5.325 -1.9009  0.2437  5.2047
   79SLPC  C312 7329   6.864   5.067   5.189 -0.1452 -0.1340  0.3443
   79SLPC  H12X 7330   6.852   5.176   5.209  2.2244 -0.0545  1.7538
   79SLPC  H12Y 7331   6.765   5.021   5.166  0.0783 -0.3875 -0.1186
   79SLPC  C313 7332   6.956   5.050   5.071 -0.2708 -0.0151  0.1553
   79SLPC  H13X 7333   6.972   4.940   5.065 -0.3634 -0.1111  1.3500
   79SLPC  H13Y 7334   7.052   5.104   5.083  0.2719  0.0663 -3.5159
   79SLPC  C314 7335   6.887   5.093   4.947 -0.4802 -0.2649 -0.3153
   79SLPC  H14X 7336   6.792   5.036   4.943 -0.3602 -0.6846  1.7347
   79SLPC  H14Y 7337   6.953   5.072   4.860  1.0492 -2.6246  1.2902
   79SLPC  C315 7338   6.867   5.243   4.935  0.0448  0.3246 -0.3132
   79SLPC  H15X 7339   6.948   5.309   4.972 -0.5554  1.7183 -1.4050
   79SLPC  H15Y 7340   6.776   5.255   4.996 -0.6246 -1.6748 -0.8388
   79SLPC  C316 7341   6.824   5.282   4.791 -0.2870  0.7243 -1.0650
   79SLPC  H16X 7342   6.764   5.201   4.744  1.7521  0.2202 -2.9242
   79SLPC  H16Y 7343   6.922   5.278   4.740  0.7001 -1.4435  0.8191
   79SLPC  C317 7344   6.744   5.412   4.786 -0.2479  0.5220  0.7453
   79SLPC  H17X 7345   6.644   5.393   4.829 -0.4777 -0.7393 -0.2805
   79SLPC  H17Y 7346   6.740   5.443   4.679 -0.6158 -2.9723 -0.3693
   79SLPC  C318 7347   6.811   5.528   4.859 -0.1447 -0.6203  0.5885
   79SLPC  H18X 7348   6.738   5.611   4.865  0.0290 -0.2605 -1.4497
   79SLPC  H18Y 7349   6.907   5.558   4.811 -1.4666  0.1397 -1.7370
   79SLPC  H18Z 7350   6.829   5.494   4.964  1.3145 -1.3579  0.1397
   80SLPC     N 7351   6.635   2.854   7.053  0.0974  0.2816  0.3286
   80SLPC   C13 7352   6.787   2.841   7.051 -0.2273  0.3083  0.0897
   80SLPC  H13A 7353   6.831   2.866   7.147 -0.2441  3.1232 -0.5653
   80SLPC  H13B 7354   6.826   2.748   7.013  0.3284 -0.0654  1.4922
   80SLPC  H13C 7355   6.827   2.925   6.997 -2.0953  3.8717  3.6340
   80SLPC   C14 7356   6.608   2.991   7.112  0.2611 -0.6135 -0.1927
   80SLPC  H14A 7357   6.501   3.003   7.123  0.3047  1.1795 -1.2402
   80SLPC  H14B 7358   6.661   3.009   7.204  0.9991 -3.1905 -0.0508
   80SLPC  H14C 7359   6.643   3.071   7.048 -1.7240  0.0456 -0.5421
   80SLPC   C15 7360   6.576   2.755   7.145 -0.3545  1.0196 -0.5126
   80SLPC  H15A 7361   6.469   2.762   7.155 -0.6944 -1.1310 -2.0347
   80SLPC  H15B 7362   6.597   2.653   7.117 -3.0236  0.4115 -0.5246
   80SLPC  H15C 7363   6.614   2.760   7.247  1.9508 -1.5493 -1.1331
   80SLPC   C12 7364   6.574   2.843   6.911  0.4720 -0.1276 -0.5028
   80SLPC  H12A 7365   6.586   2.746   6.866 -3.6590 -0.4340 -1.3912
   80SLPC  H12B 7366   6.638   2.909   6.854  0.1590  2.8735  2.3098
   80SLPC   C11 7367   6.423   2.882   6.899 -0.0651 -0.5417 -0.3034
   80SLPC  H11A 7368   6.366   2.818   6.969 -0.8085  1.4477  1.0189
   80SLPC  H11B 7369   6.393   2.865   6.794  1.0356  2.0380 -1.1141
   80SLPC     P 7370   6.443   3.140   6.841 -0.2402  0.2546  0.0460
   80SLPC   O13 7371   6.344   3.243   6.868 -0.3042 -0.2226  0.6349
   80SLPC   O14 7372   6.585   3.182   6.871 -0.0334  0.6547 -0.0919
   80SLPC   O12 7373   6.392   3.016   6.926 -0.1121  0.4932  0.9741
   80SLPC   O11 7374   6.433   3.097   6.691 -0.1241 -0.0879 -0.4026
   80SLPC    C1 7375   6.307   3.074   6.626  0.0462  0.7284  0.1782
   80SLPC    HA 7376   6.269   2.973   6.652  0.6231  0.7608  1.2308
   80SLPC    HB 7377   6.237   3.151   6.665  1.9909  1.1176  3.1959
   80SLPC    C2 7378   6.330   3.085   6.476  0.9269 -0.3717 -0.6870
   80SLPC    HS 7379   6.234   3.101   6.421  0.6599 -0.0482 -0.1358
   80SLPC   O21 7380   6.408   2.970   6.429  0.6432 -0.6196  0.7164
   80SLPC   C21 7381   6.340   2.857   6.416  0.2215  0.7098  0.2378
   80SLPC   O22 7382   6.222   2.836   6.445 -0.3718 -0.2430  0.1709
   80SLPC   C22 7383   6.434   2.766   6.342 -0.1008 -0.0036  0.5389
   80SLPC   H2R 7384   6.533   2.767   6.391 -0.1670  2.9335  0.8127
   80SLPC   H2S 7385   6.380   2.669   6.342  0.8155 -0.5245  0.2774
   80SLPC    C3 7386   6.389   3.225   6.438  0.0499  0.3538 -0.1215
   80SLPC    HX 7387   6.487   3.223   6.491  0.0306  1.0180 -0.0640
   80SLPC    HY 7388   6.328   3.306   6.483  0.9056  1.6655 -1.2667
   80SLPC   O31 7389   6.401   3.248   6.297  0.3679  0.1624 -0.0438
   80SLPC   C31 7390   6.516   3.223   6.236  0.5688  0.7950  0.4270
   80SLPC   O32 7391   6.616   3.181   6.294  0.1461  0.0029  0.0155
   80SLPC   C32 7392   6.494   3.263   6.092  0.0772  0.0629  0.6011
   80SLPC   H2X 7393   6.537   3.179   6.034 -0.7567 -2.7605  3.7230
   80SLPC   H2Y 7394   6.541   3.362   6.075  0.9573  0.3098  3.7562
   80SLPC   C23 7395   6.473   2.819   6.202  0.4588 -0.4791 -0.1769
   80SLPC   H3R 7396   6.554   2.757   6.158  1.5778  0.8911 -0.1449
   80SLPC   H3S 7397   6.513   2.923   6.208 -0.6619 -0.0445  0.2174
   80SLPC   C24 7398   6.351   2.835   6.104 -0.0153 -0.2274 -0.1576
   80SLPC   H4R 7399   6.267   2.899   6.138 -0.4758 -2.9264  4.7511
   80SLPC   H4S 7400   6.303   2.736   6.095  0.0452 -0.1781 -1.1374
   80SLPC   C25 7401   6.390   2.872   5.960 -0.1692  0.4334  0.7800
   80SLPC   H5R 7402   6.441   2.782   5.919 -1.1710  0.3062 -0.2428
   80SLPC   H5S 7403   6.467   2.953   5.961  1.4334 -0.8887 -1.8388
   80SLPC   C26 7404   6.268   2.914   5.876 -0.4347  0.1459  0.2253
   80SLPC   H6R 7405   6.220   2.993   5.937 -3.1269  1.2189 -2.9871
   80SLPC   H6S 7406   6.205   2.822   5.878  0.8257 -0.7928 -1.2246
   80SLPC   C27 7407   6.295   2.963   5.734  0.4641  0.1759 -0.0072
   80SLPC   H7R 7408   6.336   3.066   5.741 -0.4769  0.5030  1.0531
   80SLPC   H7S 7409   6.199   2.969   5.677  1.2400 -0.1947 -1.4007
   80SLPC   C28 7410   6.386   2.868   5.649 -0.0444  0.1649  0.3692
   80SLPC   H8R 7411   6.488   2.868   5.694  1.0012  1.3984 -1.8431
   80SLPC   H8S 7412   6.406   2.914   5.550  1.0997 -0.5475  0.2487
   80SLPC   C29 7413   6.337   2.728   5.639  0.5331  0.0706  0.1309
   80SLPC   H9R 7414   6.364   2.650   5.712  2.1734 -0.5833 -1.1082
   80SLPC  C210 7415   6.251   2.679   5.550  0.0049  0.0465 -0.1219
   80SLPC  H10R 7416   6.230   2.571   5.552 -0.1349  0.0887  1.1181
   80SLPC  C211 7417   6.181   2.750   5.436 -0.3780  0.1837 -0.8848
   80SLPC  H11R 7418   6.247   2.752   5.346  0.9221 -1.1791 -0.0139
   80SLPC  H11S 7419   6.164   2.852   5.474  0.7434 -0.5454  1.7656
   80SLPC  C212 7420   6.042   2.688   5.403  0.0939 -0.5946  0.1823
   80SLPC  H12R 7421   5.976   2.677   5.490  0.7620 -1.6618  0.5908
   80SLPC  C213 7422   5.998   2.646   5.285  0.0104  0.3643  0.0309
   80SLPC  H13R 7423   5.892   2.622   5.271  0.4925 -1.6659 -0.4814
   80SLPC  C214 7424   6.076   2.654   5.153  1.0593 -0.5896 -0.3270
   80SLPC  H14R 7425   6.110   2.757   5.129 -2.0244  0.5320 -0.3444
   80SLPC  H14S 7426   6.007   2.619   5.072  0.2328 -2.0232  0.9372
   80SLPC  C215 7427   6.197   2.559   5.141  0.2412 -0.3937 -0.1983
   80SLPC  H15R 7428   6.178   2.453   5.169  1.1158 -0.5760 -0.2631
   80SLPC  H15S 7429   6.277   2.593   5.210  1.4508 -1.1212 -1.2039
   80SLPC  C216 7430   6.241   2.538   4.994  0.1814  0.0930  0.1164
   80SLPC  H16R 7431   6.268   2.641   4.963  0.3157  0.1424  0.3924
   80SLPC  H16S 7432   6.155   2.497   4.936 -1.1208  0.4928  1.6763
   80SLPC  C217 7433   6.364   2.442   4.989  0.2714 -0.1376  0.0713
   80SLPC  H17R 7434   6.324   2.340   5.010  0.7051  0.0012  1.6816
   80SLPC  H17S 7435   6.440   2.468   5.066  0.0412  1.1735 -0.1205
   80SLPC  C218 7436   6.430   2.456   4.853  0.1209 -0.3179 -0.5382
   80SLPC  H18R 7437   6.467   2.560   4.838  2.4303 -0.9745  0.3275
   80SLPC  H18S 7438   6.349   2.447   4.777  0.2696  0.5179 -0.8084
   80SLPC  H18T 7439   6.503   2.375   4.836 -2.4369 -2.5623 -1.5679
   80SLPC   C33 7440   6.344   3.269   6.053  0.7362  0.5918 -0.1396
   80SLPC   H3X 7441   6.287   3.336   6.120 -1.4471 -1.0668 -0.2479
   80SLPC   H3Y 7442   6.314   3.162   6.055  2.2336  0.1434 -0.3746
   80SLPC   C34 7443   6.327   3.322   5.911  0.6253  0.6840  0.1158
   80SLPC   H4X 7444   6.381   3.249   5.847  0.3049 -0.6667  1.3272
   80SLPC   H4Y 7445   6.373   3.422   5.899 -1.5089  1.5713 -1.2846
   80SLPC   C35 7446   6.183   3.323   5.851  0.0532 -0.7043  0.2395
   80SLPC   H5X 7447   6.121   3.383   5.922  1.9206 -0.0913  1.4179
   80SLPC   H5Y 7448   6.141   3.221   5.834  0.7105 -1.0075  0.4282
   80SLPC   C36 7449   6.163   3.388   5.715 -0.2067  0.1207  0.6055
   80SLPC   H6X 7450   6.214   3.487   5.717 -1.7003  1.0659 -2.2020
   80SLPC   H6Y 7451   6.056   3.417   5.702  0.1415  0.2520 -2.8152
   80SLPC   C37 7452   6.206   3.305   5.595  0.2823  0.2081 -0.2861
   80SLPC   H7X 7453   6.161   3.203   5.600 -0.5355  0.5706 -0.1876
   80SLPC   H7Y 7454   6.317   3.300   5.596  0.3890  2.0483  0.0020
   80SLPC   C38 7455   6.183   3.369   5.454  0.7384 -0.2757  0.0511
   80SLPC   H8X 7456   6.243   3.459   5.430  0.5838 -1.0412 -3.8102
   80SLPC   H8Y 7457   6.075   3.396   5.447  0.3992 -0.3529  3.4547
   80SLPC   C39 7458   6.217   3.274   5.333 -0.2728  0.6501 -0.1129
   80SLPC   H9X 7459   6.326   3.278   5.354 -0.6699  2.2591  2.0101
   80SLPC   H9Y 7460   6.185   3.326   5.240 -0.6590  0.3540 -0.1476
   80SLPC  C310 7461   6.155   3.129   5.338 -0.4265 -0.7089 -0.4481
   80SLPC  H10X 7462   6.057   3.127   5.389 -0.6037 -0.8940 -0.7908
   80SLPC  H10Y 7463   6.222   3.072   5.405  3.1671  1.4932 -1.8278
   80SLPC  C311 7464   6.153   3.051   5.208 -0.2912 -0.0553 -0.0603
   80SLPC  H11X 7465   6.119   2.950   5.241 -0.7028 -0.8274 -2.5976
   80SLPC  H11Y 7466   6.251   3.039   5.158 -0.0945 -1.1104  0.5374
   80SLPC  C312 7467   6.044   3.105   5.108  0.1765 -0.3456 -0.5163
   80SLPC  H12X 7468   6.075   3.208   5.081  0.5226 -0.7464 -1.7001
   80SLPC  H12Y 7469   5.950   3.106   5.168  0.8468  2.3901  0.6637
   80SLPC  C313 7470   6.017   3.021   4.985  0.6548  0.1386 -0.2354
   80SLPC  H13X 7471   5.965   2.930   5.022 -0.6542  2.2915  3.7704
   80SLPC  H13Y 7472   6.106   2.986   4.928  0.5936  0.1022 -0.3081
   80SLPC  C314 7473   5.911   3.095   4.900 -0.4589 -0.6848  0.7755
   80SLPC  H14X 7474   5.872   3.177   4.964 -0.2194 -1.2231  1.6360
   80SLPC  H14Y 7475   5.826   3.030   4.871  0.6177 -1.7582 -0.0898
   80SLPC  C315 7476   5.959   3.156   4.767  0.2885  0.5128 -0.3033
   80SLPC  H15X 7477   5.991   3.076   4.696 -1.1926 -1.8786  1.5489
   80SLPC  H15Y 7478   6.052   3.212   4.785  0.5164 -0.2871  1.1533
   80SLPC  C316 7479   5.854   3.231   4.686 -0.1600  0.3676 -0.3554
   80SLPC  H16X 7480   5.752   3.187   4.694 -0.2851  0.7087 -0.0004
   80SLPC  H16Y 7481   5.891   3.235   4.582 -1.1558 -0.4270 -0.7598
   80SLPC  C317 7482   5.831   3.381   4.727  0.4093  0.4437  0.6795
   80SLPC  H17X 7483   5.929   3.432   4.723 -0.4686  2.2742  1.3731
   80SLPC  H17Y 7484   5.789   3.400   4.829  0.1449 -0.8636  0.8424
   80SLPC  C318 7485   5.732   3.448   4.624  0.8963 -0.4389  0.1841
   80SLPC  H18X 7486   5.672   3.379   4.561  2.0871 -2.0767  0.7571
   80SLPC  H18Y 7487   5.795   3.505   4.553 -0.6067  1.8563  0.5920
   80SLPC  H18Z 7488   5.675   3.524   4.682  0.2568 -0.5578 -0.2771
   81SLPC     N 7489   2.698   5.838   2.233 -0.2203  0.4641 -0.3893
   81SLPC   C13 7490   2.765   5.722   2.173  0.5940 -0.8912  0.0176
   81SLPC  H13A 7491   2.843   5.679   2.234  0.4836 -0.5596  0.3978
   81SLPC  H13B 7492   2.694   5.641   2.167  1.8583 -2.2235  1.9407
   81SLPC  H13C 7493   2.797   5.747   2.073  1.1645  0.2900  0.4801
   81SLPC   C14 7494   2.579   5.876   2.150 -0.2126  0.6187 -0.9893
   81SLPC  H14A 7495   2.543   5.975   2.174 -0.4937  0.8337 -2.2430
   81SLPC  H14B 7496   2.596   5.867   2.044  0.3373 -0.8770 -0.7886
   81SLPC  H14C 7497   2.503   5.805   2.179 -0.6076  1.4838  0.1942
   81SLPC   C15 7498   2.794   5.951   2.218 -0.4711  0.0102 -0.1438
   81SLPC  H15A 7499   2.891   5.924   2.258  0.7286  0.4766 -2.5379
   81SLPC  H15B 7500   2.812   5.971   2.113 -1.5733  3.0842  0.1529
   81SLPC  H15C 7501   2.759   6.039   2.268 -0.1407 -1.1929  2.3290
   81SLPC   C12 7502   2.650   5.808   2.373  0.0140 -0.2477 -0.2149
   81SLPC  H12A 7503   2.608   5.899   2.415 -0.3850 -0.1078 -0.8981
   81SLPC  H12B 7504   2.739   5.794   2.433  0.1572  1.0844 -0.0910
   81SLPC   C11 7505   2.543   5.698   2.398 -0.0750  0.0579  0.7205
   81SLPC  H11A 7506   2.449   5.709   2.340  0.2740  1.7743  0.4209
   81SLPC  H11B 7507   2.515   5.704   2.506 -0.8976 -0.0928  0.5175
   81SLPC     P 7508   2.680   5.486   2.464  0.1693 -0.1163  0.2150
   81SLPC   O13 7509   2.584   5.415   2.558 -0.7757 -0.6180 -0.5940
   81SLPC   O14 7510   2.765   5.402   2.372  0.1901 -0.0850 -0.0046
   81SLPC   O12 7511   2.587   5.567   2.367 -0.1202 -0.5836  0.4064
   81SLPC   O11 7512   2.768   5.589   2.547  0.1829 -0.5295  0.3979
   81SLPC    C1 7513   2.874   5.527   2.635  0.6952 -0.4117 -0.3868
   81SLPC    HA 7514   2.919   5.434   2.593 -1.9031 -2.5134  1.1577
   81SLPC    HB 7515   2.951   5.607   2.645  0.0875  0.2117 -0.6287
   81SLPC    C2 7516   2.828   5.486   2.776 -0.2349  0.3730 -0.0665
   81SLPC    HS 7517   2.787   5.382   2.781  1.8832 -0.4718  1.0686
   81SLPC   O21 7518   2.740   5.588   2.833 -0.2731  0.2046 -0.1561
   81SLPC   C21 7519   2.638   5.543   2.906  0.5399  0.1254  0.6475
   81SLPC   O22 7520   2.614   5.423   2.926  0.2462  0.7747 -0.1076
   81SLPC   C22 7521   2.543   5.657   2.937 -0.0484 -0.0045 -0.4599
   81SLPC   H2R 7522   2.609   5.745   2.949 -0.1605  0.6602 -3.7593
   81SLPC   H2S 7523   2.480   5.677   2.848  1.7352  0.6574 -1.6264
   81SLPC    C3 7524   2.948   5.478   2.870 -0.8508 -0.2233  0.1341
   81SLPC    HX 7525   2.996   5.577   2.882  0.4460 -0.5219 -2.0756
   81SLPC    HY 7526   3.024   5.410   2.826  0.9364  2.3844 -1.0898
   81SLPC   O31 7527   2.911   5.442   3.008 -0.5622  0.2170  0.2347
   81SLPC   C31 7528   2.911   5.310   3.029  0.1894  0.1012 -0.2236
   81SLPC   O32 7529   2.958   5.226   2.955  0.2770  0.3908 -0.2401
   81SLPC   C32 7530   2.843   5.284   3.160 -0.3631 -0.4072  0.3424
   81SLPC   H2X 7531   2.750   5.345   3.163  0.3230  0.6321  0.6857
   81SLPC   H2Y 7532   2.924   5.310   3.231 -1.7095 -0.5074  1.9801
   81SLPC   C23 7533   2.456   5.623   3.060  0.2766 -0.4139  0.0482
   81SLPC   H3R 7534   2.384   5.542   3.036  1.5970 -1.3307 -0.9730
   81SLPC   H3S 7535   2.396   5.711   3.090 -0.9804 -1.1117 -0.3832
   81SLPC   C24 7536   2.520   5.582   3.191  0.1537  0.6382  0.1161
   81SLPC   H4R 7537   2.574   5.485   3.177  0.3538  0.4357  2.0190
   81SLPC   H4S 7538   2.430   5.573   3.256 -1.1769 -1.0930 -1.8456
   81SLPC   C25 7539   2.626   5.682   3.244  0.6768  0.0844  0.3363
   81SLPC   H5R 7540   2.587   5.783   3.269  1.6309  0.0603  2.1143
   81SLPC   H5S 7541   2.694   5.714   3.162 -1.9500 -1.2544 -2.5571
   81SLPC   C26 7542   2.702   5.624   3.367  0.4075  0.0830  0.1004
   81SLPC   H6R 7543   2.786   5.695   3.376  0.3580  0.5813 -2.6789
   81SLPC   H6S 7544   2.739   5.524   3.337  0.4333 -0.2979  1.3297
   81SLPC   C27 7545   2.629   5.613   3.505 -0.6864 -0.2814 -0.0759
   81SLPC   H7R 7546   2.700   5.560   3.572  1.6744  2.9557  0.2577
   81SLPC   H7S 7547   2.537   5.551   3.496 -1.5708  1.1269 -1.3029
   81SLPC   C28 7548   2.581   5.735   3.586  0.6853 -0.3056  0.2077
   81SLPC   H8R 7549   2.512   5.797   3.526 -0.3561 -0.5108  1.1499
   81SLPC   H8S 7550   2.675   5.791   3.609  0.2663  0.3767  0.2720
   81SLPC   C29 7551   2.521   5.689   3.718  0.5060  0.1373  0.4997
   81SLPC   H9R 7552   2.412   5.698   3.735  0.7783  0.0180  2.6166
   81SLPC  C210 7553   2.583   5.641   3.828  0.3457 -0.2325  0.5887
   81SLPC  H10R 7554   2.530   5.629   3.923  3.0208  1.5058  2.4581
   81SLPC  C211 7555   2.734   5.610   3.841  0.3823 -0.2457 -0.5463
   81SLPC  H11R 7556   2.777   5.680   3.916 -0.7325 -1.3477  1.1846
   81SLPC  H11S 7557   2.799   5.635   3.754 -1.0919  0.7852 -1.4004
   81SLPC  C212 7558   2.745   5.471   3.886  0.0877  0.2945  0.1718
   81SLPC  H12R 7559   2.716   5.395   3.812  0.5017 -0.9657  1.2576
   81SLPC  C213 7560   2.775   5.422   4.008  0.3183  0.4280  0.3161
   81SLPC  H13R 7561   2.789   5.313   4.017  0.7769  0.4326 -0.2565
   81SLPC  C214 7562   2.802   5.505   4.130  0.2971  0.4962  0.0821
   81SLPC  H14R 7563   2.794   5.615   4.115 -0.8854  0.3414 -0.5106
   81SLPC  H14S 7564   2.907   5.496   4.166  0.0446 -1.9291  0.3794
   81SLPC  C215 7565   2.705   5.475   4.242  0.1413  0.6072  0.2182
   81SLPC  H15R 7566   2.691   5.367   4.260 -0.1781  0.3953 -1.1883
   81SLPC  H15S 7567   2.604   5.500   4.203  0.0446 -1.1771 -0.7517
   81SLPC  C216 7568   2.722   5.547   4.372 -0.4043 -0.0124  0.5256
   81SLPC  H16R 7569   2.626   5.536   4.426 -1.1358  0.7565 -0.5686
   81SLPC  H16S 7570   2.729   5.655   4.347 -1.5364 -0.1344 -0.3954
   81SLPC  C217 7571   2.841   5.485   4.450 -0.1458  0.4473 -0.4488
   81SLPC  H17R 7572   2.939   5.490   4.399 -0.5083  1.1409 -1.0989
   81SLPC  H17S 7573   2.816   5.379   4.471  0.0571  0.5855  0.5478
   81SLPC  C218 7574   2.864   5.551   4.586 -0.1070  0.6372 -0.2949
   81SLPC  H18R 7575   2.766   5.558   4.637 -0.7199  0.2706 -1.3868
   81SLPC  H18S 7576   2.923   5.645   4.585  1.2985 -0.1283  1.9644
   81SLPC  H18T 7577   2.927   5.482   4.646  1.7931 -1.9616 -4.7508
   81SLPC   C33 7578   2.825   5.133   3.181 -0.2576  1.0633 -0.9356
   81SLPC   H3X 7579   2.923   5.083   3.174 -0.5127  0.6211 -1.4492
   81SLPC   H3Y 7580   2.752   5.101   3.103 -2.9618  1.1583  1.3653
   81SLPC   C34 7581   2.749   5.093   3.309 -0.1786 -0.2322 -0.0354
   81SLPC   H4X 7582   2.737   4.983   3.293  0.8768 -0.6949  1.9576
   81SLPC   H4Y 7583   2.652   5.145   3.308 -0.9042 -1.5266  0.3052
   81SLPC   C35 7584   2.834   5.118   3.432 -0.0109 -0.3862 -0.3974
   81SLPC   H5X 7585   2.856   5.227   3.436 -3.1109  0.3247 -0.1351
   81SLPC   H5Y 7586   2.929   5.061   3.416 -0.5412 -1.2491 -0.5592
   81SLPC   C36 7587   2.765   5.057   3.561  0.5464 -0.3857  0.4097
   81SLPC   H6X 7588   2.744   4.949   3.548 -0.5329 -0.0863 -0.4914
   81SLPC   H6Y 7589   2.674   5.116   3.584  0.2834 -0.9828  0.9118
   81SLPC   C37 7590   2.839   5.076   3.696 -0.2958 -0.6488 -0.4235
   81SLPC   H7X 7591   2.882   5.178   3.702 -0.9654 -0.3270 -0.9184
   81SLPC   H7Y 7592   2.921   5.001   3.693 -1.5564 -2.1455  0.6579
   81SLPC   C38 7593   2.761   5.041   3.824  0.5432 -0.4641 -0.6868
   81SLPC   H8X 7594   2.723   4.937   3.809 -1.0561 -0.0314  0.1072
   81SLPC   H8Y 7595   2.669   5.104   3.829  2.0189  1.6920  1.6512
   81SLPC   C39 7596   2.849   5.046   3.950 -0.3614 -0.0573 -0.3637
   81SLPC   H9X 7597   2.902   5.142   3.937 -1.8120  0.9037  0.4540
   81SLPC   H9Y 7598   2.917   4.959   3.965  0.4069  0.9275  2.7669
   81SLPC  C310 7599   2.761   5.049   4.077  0.1353 -0.1312 -0.4232
   81SLPC  H10X 7600   2.715   4.948   4.081 -0.4291  0.1549  1.1120
   81SLPC  H10Y 7601   2.686   5.130   4.071  1.0200  0.8157  0.7309
   81SLPC  C311 7602   2.839   5.057   4.203  0.0792  0.2674 -0.4128
   81SLPC  H11X 7603   2.913   5.140   4.202 -2.5404  2.7375 -0.8049
   81SLPC  H11Y 7604   2.896   4.964   4.224  0.7053  0.1985 -2.2867
   81SLPC  C312 7605   2.748   5.059   4.328 -0.6106 -0.2506 -0.0612
   81SLPC  H12X 7606   2.659   4.992   4.322 -1.2388  0.6069 -0.5948
   81SLPC  H12Y 7607   2.704   5.161   4.339 -0.4312 -0.1755 -0.0420
   81SLPC  C313 7608   2.823   5.029   4.461  0.0916  0.0297 -0.3134
   81SLPC  H13X 7609   2.887   5.117   4.482 -1.7710  1.3949 -0.0960
   81SLPC  H13Y 7610   2.876   4.933   4.444 -0.2312 -0.0213 -1.0465
   81SLPC  C314 7611   2.723   5.000   4.577  0.8050  0.3326 -0.0215
   81SLPC  H14X 7612   2.776   4.941   4.654 -0.6633 -0.0456  0.7371
   81SLPC  H14Y 7613   2.640   4.939   4.534  0.6407 -0.5589  1.5091
   81SLPC  C315 7614   2.667   5.127   4.648 -0.5836  0.1180  0.1273
   81SLPC  H15X 7615   2.634   5.201   4.572  4.0273  2.1463 -0.1858
   81SLPC  H15Y 7616   2.754   5.165   4.706  0.5833 -0.0477 -1.4538
   81SLPC  C316 7617   2.543   5.092   4.729 -0.0189 -0.8030  0.4715
   81SLPC  H16X 7618   2.463   5.053   4.663 -1.0193 -0.4341  1.4447
   81SLPC  H16Y 7619   2.515   5.184   4.784  2.2035 -1.0179  2.1198
   81SLPC  C317 7620   2.562   4.975   4.825 -0.2190  0.8922 -0.1419
   81SLPC  H17X 7621   2.657   4.976   4.882 -0.0073 -0.2108 -0.4507
   81SLPC  H17Y 7622   2.565   4.880   4.766  1.4613  0.6580  0.2568
   81SLPC  C318 7623   2.442   4.952   4.920  0.1438 -0.7679 -0.1665
   81SLPC  H18X 7624   2.422   4.849   4.958 -2.5977  0.1914  1.2831
   81SLPC  H18Y 7625   2.351   4.988   4.868  1.2727  0.5199 -1.3339
   81SLPC  H18Z 7626   2.447   4.999   5.021 -1.4798 -0.2863 -0.2795
   82SLPC     N 7627   6.262   4.819   2.390 -0.2416  0.3949  0.5954
   82SLPC   C13 7628   6.261   4.954   2.322 -0.3811  0.6518 -0.3642
   82SLPC  H13A 7629   6.227   4.928   2.223 -1.8676 -3.4936  1.0218
   82SLPC  H13B 7630   6.194   5.021   2.374  1.5248  2.6698 -0.3971
   82SLPC  H13C 7631   6.359   4.996   2.308  0.2309 -1.1564 -1.8905
   82SLPC   C14 7632   6.289   4.843   2.540 -0.4668  0.2562 -1.0243
   82SLPC  H14A 7633   6.198   4.883   2.583 -1.7991 -1.3320 -2.2238
   82SLPC  H14B 7634   6.305   4.750   2.592  0.5265 -0.9547 -3.3977
   82SLPC  H14C 7635   6.378   4.902   2.553  0.5825 -1.1247 -1.7677
   82SLPC   C15 7636   6.384   4.740   2.353  0.1079 -0.1406  0.1844
   82SLPC  H15A 7637   6.395   4.731   2.246 -0.8992  1.3293 -0.0775
   82SLPC  H15B 7638   6.477   4.780   2.390  1.7557 -0.8295 -2.9000
   82SLPC  H15C 7639   6.389   4.641   2.395  1.3544  0.9426  2.8289
   82SLPC   C12 7640   6.136   4.739   2.364 -0.3605  0.7744  0.1736
   82SLPC  H12A 7641   6.157   4.636   2.392  0.6694  1.0146  0.3466
   82SLPC  H12B 7642   6.115   4.734   2.258 -2.9227 -1.4134  0.6625
   82SLPC   C11 7643   6.011   4.778   2.440 -0.6554 -0.2380 -0.4793
   82SLPC  H11A 7644   6.040   4.798   2.545 -1.8824  0.6516 -0.2916
   82SLPC  H11B 7645   5.931   4.702   2.451 -2.1441  1.4754  1.1406
   82SLPC     P 7646   5.824   4.963   2.431 -0.3903 -0.3978  0.1606
   82SLPC   O13 7647   5.780   5.070   2.337 -0.1652 -0.2276  0.1796
   82SLPC   O14 7648   5.727   4.854   2.459 -0.9411  0.1699  0.3924
   82SLPC   O12 7649   5.969   4.903   2.392  0.0907  0.5566 -0.1991
   82SLPC   O11 7650   5.872   5.034   2.566  0.4951  0.1069 -0.4579
   82SLPC    C1 7651   5.991   5.118   2.563  0.2514  0.7404  0.1324
   82SLPC    HA 7652   6.059   5.080   2.484 -0.0209  0.7552 -0.1146
   82SLPC    HB 7653   5.954   5.221   2.547  0.8062  0.9245  0.0347
   82SLPC    C2 7654   6.067   5.118   2.694  1.0425 -0.2363 -0.3494
   82SLPC    HS 7655   6.110   5.017   2.714 -1.4234 -1.2553  0.0870
   82SLPC   O21 7656   5.963   5.157   2.791 -0.1338  0.1225 -0.1300
   82SLPC   C21 7657   5.967   5.101   2.912 -0.0540  0.6544  0.0462
   82SLPC   O22 7658   6.043   5.016   2.952 -0.0105  0.2304  0.3966
   82SLPC   C22 7659   5.858   5.164   2.997  0.5518 -0.7300 -0.3172
   82SLPC   H2R 7660   5.849   5.272   2.974 -0.3733 -0.8092 -0.3290
   82SLPC   H2S 7661   5.761   5.122   2.964 -0.7569  1.8329  0.0170
   82SLPC    C3 7662   6.180   5.223   2.703  0.3805 -0.8476  1.1961
   82SLPC    HX 7663   6.147   5.327   2.682  0.3476 -1.2749 -1.1086
   82SLPC    HY 7664   6.255   5.195   2.626 -2.3928 -0.0745 -2.0049
   82SLPC   O31 7665   6.246   5.227   2.828  0.0859  0.6192 -0.2470
   82SLPC   C31 7666   6.328   5.124   2.862 -0.1493 -0.1794  0.0101
   82SLPC   O32 7667   6.340   5.018   2.800  0.3010 -0.8593  0.3333
   82SLPC   C32 7668   6.399   5.140   3.000  0.6307  0.1904 -0.2508
   82SLPC   H2X 7669   6.425   5.246   3.016 -3.0218  0.9322  1.7636
   82SLPC   H2Y 7670   6.484   5.068   2.996 -1.5333 -2.5872  0.5656
   82SLPC   C23 7671   5.873   5.139   3.149 -0.0503 -0.5288 -0.4431
   82SLPC   H3R 7672   5.914   5.037   3.165  2.0912  0.0486 -1.6890
   82SLPC   H3S 7673   5.771   5.136   3.191  0.5021 -0.5957  0.9306
   82SLPC   C24 7674   5.962   5.237   3.220 -0.4006 -0.3985  0.0714
   82SLPC   H4R 7675   5.913   5.337   3.217  1.8168  0.7560 -0.1434
   82SLPC   H4S 7676   6.060   5.255   3.171 -0.7369  0.1170 -0.4266
   82SLPC   C25 7677   5.977   5.198   3.362  0.4224 -0.2668  0.1776
   82SLPC   H5R 7678   6.064   5.261   3.392 -1.2336  1.8647  0.7560
   82SLPC   H5S 7679   6.004   5.093   3.385 -3.5231 -1.0879  1.8777
   82SLPC   C26 7680   5.862   5.234   3.455  0.0964 -0.3465  0.4566
   82SLPC   H6R 7681   5.784   5.163   3.421 -0.7038  0.7274 -0.0168
   82SLPC   H6S 7682   5.845   5.342   3.438 -1.6598 -0.4921  1.1423
   82SLPC   C27 7683   5.908   5.214   3.603 -0.1501 -0.2735  0.4288
   82SLPC   H7R 7684   5.996   5.276   3.629 -1.2370  1.5477 -0.0413
   82SLPC   H7S 7685   5.924   5.105   3.618 -0.5222 -0.6794 -1.7049
   82SLPC   C28 7686   5.801   5.265   3.709  0.7193 -0.1567  0.2377
   82SLPC   H8R 7687   5.767   5.367   3.682  0.0041  0.2022  2.3226
   82SLPC   H8S 7688   5.859   5.279   3.803  0.2430  1.7187  0.2982
   82SLPC   C29 7689   5.690   5.171   3.726 -0.1979  0.2183  0.7368
   82SLPC   H9R 7690   5.659   5.128   3.630 -1.4020  0.6910  0.8938
   82SLPC  C210 7691   5.624   5.139   3.843 -0.6803 -0.7067 -0.2100
   82SLPC  H10R 7692   5.544   5.064   3.848 -1.2740 -0.0113  1.3715
   82SLPC  C211 7693   5.656   5.185   3.984  0.3465  0.0574  0.3682
   82SLPC  H11R 7694   5.729   5.269   3.989  0.6321 -0.2041  0.6718
   82SLPC  H11S 7695   5.702   5.095   4.030  0.9031 -0.0263 -0.3216
   82SLPC  C212 7696   5.539   5.227   4.061 -0.3219  0.5415  0.0944
   82SLPC  H12R 7697   5.439   5.220   4.015  0.4168 -0.7619 -1.4023
   82SLPC  C213 7698   5.544   5.268   4.187  0.2208 -0.8547 -0.2194
   82SLPC  H13R 7699   5.451   5.283   4.244  0.6649  0.9337  0.0882
   82SLPC  C214 7700   5.665   5.268   4.276  0.2265  0.0861 -0.2297
   82SLPC  H14R 7701   5.750   5.312   4.220 -1.3224 -0.2940 -3.0942
   82SLPC  H14S 7702   5.693   5.163   4.298  2.1371 -0.0702 -2.9594
   82SLPC  C215 7703   5.641   5.346   4.406  0.2194 -0.3183  0.3657
   82SLPC  H15R 7704   5.567   5.426   4.386  1.0770 -0.0443 -1.9819
   82SLPC  H15S 7705   5.726   5.418   4.412 -0.4408  0.5760 -0.5782
   82SLPC  C216 7706   5.606   5.271   4.532  0.3556  0.5082  0.1820
   82SLPC  H16R 7707   5.687   5.204   4.567 -0.5909 -0.2035  1.0803
   82SLPC  H16S 7708   5.518   5.206   4.513  0.6528 -0.1838  1.1069
   82SLPC  C217 7709   5.544   5.362   4.643 -0.4592  0.3251  0.8440
   82SLPC  H17R 7710   5.494   5.296   4.717 -1.9888  0.8999  0.3447
   82SLPC  H17S 7711   5.469   5.431   4.599 -0.8861 -0.1928  0.7492
   82SLPC  C218 7712   5.652   5.443   4.724 -0.0060 -0.1497 -0.2505
   82SLPC  H18R 7713   5.739   5.384   4.760  1.0712  1.1298 -0.6601
   82SLPC  H18S 7714   5.604   5.493   4.811  1.6431 -1.4502  1.4977
   82SLPC  H18T 7715   5.704   5.513   4.655  2.8401  0.7720  2.5384
   82SLPC   C33 7716   6.309   5.088   3.112  0.4475 -0.3876  0.1169
   82SLPC   H3X 7717   6.256   4.994   3.087 -1.4163  0.3448  1.1480
   82SLPC   H3Y 7718   6.246   5.172   3.147  1.8052 -0.2068  2.3154
   82SLPC   C34 7719   6.390   5.053   3.239 -0.2901  0.0885 -0.0977
   82SLPC   H4X 7720   6.476   5.122   3.251  0.6745 -1.3762  2.0743
   82SLPC   H4Y 7721   6.450   4.962   3.214  0.9972  0.8234  0.2109
   82SLPC   C35 7722   6.301   5.040   3.360  0.0374 -0.0790  0.5135
   82SLPC   H5X 7723   6.223   4.963   3.344  2.1035 -2.5822  1.6711
   82SLPC   H5Y 7724   6.242   5.132   3.381  1.4424  1.7129 -2.6666
   82SLPC   C36 7725   6.372   4.986   3.477  0.7434 -1.1126  0.4914
   82SLPC   H6X 7726   6.478   5.019   3.469  0.0755  0.7544 -1.8891
   82SLPC   H6Y 7727   6.379   4.876   3.461 -2.3648 -1.1954 -1.1210
   82SLPC   C37 7728   6.312   5.036   3.614 -0.0918 -0.3677 -0.1688
   82SLPC   H7X 7729   6.204   5.010   3.621 -0.5008  0.7466 -1.8143
   82SLPC   H7Y 7730   6.309   5.144   3.590  1.2430 -0.7285 -2.1989
   82SLPC   C38 7731   6.393   5.007   3.742 -0.1937  0.0685 -0.4263
   82SLPC   H8X 7732   6.478   5.079   3.749  0.3649 -0.5585 -0.6933
   82SLPC   H8Y 7733   6.441   4.907   3.745 -1.1142 -0.4725 -2.3603
   82SLPC   C39 7734   6.311   5.029   3.878  0.4386 -0.8063 -0.5835
   82SLPC   H9X 7735   6.375   5.038   3.969  0.4642 -2.3858 -0.4170
   82SLPC   H9Y 7736   6.242   4.945   3.899 -1.7338  0.8017 -1.0018
   82SLPC  C310 7737   6.227   5.160   3.864  0.6027  0.3802 -0.1766
   82SLPC  H10X 7738   6.139   5.138   3.801 -0.2478 -2.0444  1.7224
   82SLPC  H10Y 7739   6.292   5.232   3.810  0.4136  0.1848 -0.6670
   82SLPC  C311 7740   6.185   5.212   4.000 -0.1765 -0.6197 -0.7202
   82SLPC  H11X 7741   6.146   5.316   3.992 -1.2134 -0.5482  3.3059
   82SLPC  H11Y 7742   6.267   5.202   4.074 -1.9419  0.1859  1.4587
   82SLPC  C312 7743   6.066   5.128   4.053  0.6000 -0.6421  0.1277
   82SLPC  H12X 7744   6.058   5.036   3.992  2.1420  1.3657 -3.3447
   82SLPC  H12Y 7745   5.965   5.175   4.046 -0.0901 -1.7896  1.7102
   82SLPC  C313 7746   6.084   5.078   4.198  0.1419 -0.2467 -0.3748
   82SLPC  H13X 7747   6.172   5.010   4.207  0.5550  0.2034 -0.9047
   82SLPC  H13Y 7748   5.995   5.013   4.210 -1.0152  1.3768  0.2064
   82SLPC  C314 7749   6.083   5.195   4.304  0.1492  0.2013  0.1204
   82SLPC  H14X 7750   6.012   5.275   4.272  0.2958  0.3926  0.2713
   82SLPC  H14Y 7751   6.188   5.229   4.316 -0.5658  2.0841  1.5065
   82SLPC  C315 7752   6.051   5.144   4.444  0.4940 -0.2507 -0.0944
   82SLPC  H15X 7753   6.143   5.096   4.484  0.6951  0.8636  0.8293
   82SLPC  H15Y 7754   5.975   5.064   4.437  1.6817 -1.2652 -2.9961
   82SLPC  C316 7755   5.998   5.253   4.539  0.5229  0.7790  0.1040
   82SLPC  H16X 7756   5.961   5.203   4.631  0.4902  0.3162 -0.1571
   82SLPC  H16Y 7757   5.909   5.299   4.492  1.2446  0.3567 -1.7415
   82SLPC  C317 7758   6.106   5.346   4.578 -0.2189 -0.3576  0.4323
   82SLPC  H17X 7759   6.134   5.418   4.498 -3.8074  1.5848  0.7037
   82SLPC  H17Y 7760   6.202   5.300   4.609 -0.2956 -0.7265  0.1295
   82SLPC  C318 7761   6.059   5.429   4.696 -0.2908 -0.5586 -0.6531
   82SLPC  H18X 7762   5.960   5.477   4.678  1.0471  2.4114 -0.8130
   82SLPC  H18Y 7763   6.128   5.515   4.714 -1.9773  0.5992  0.5778
   82SLPC  H18Z 7764   6.064   5.367   4.789 -4.5936  0.4079  0.4296
   83SLPC     N 7765   1.057   0.822   2.130 -0.1210  0.6083 -0.7804
   83SLPC   C13 7766   1.143   0.906   2.036 -0.4029  0.5823  0.2559
   83SLPC  H13A 7767   1.232   0.851   2.010 -0.7467 -0.9039  1.9864
   83SLPC  H13B 7768   1.082   0.927   1.950 -0.3183  1.3134  0.3728
   83SLPC  H13C 7769   1.172   1.002   2.077 -2.9844  1.1345  0.9783
   83SLPC   C14 7770   1.144   0.827   2.257  0.4283 -0.3511  0.1797
   83SLPC  H14A 7771   1.164   0.925   2.298  2.1350 -0.9547  0.8722
   83SLPC  H14B 7772   1.075   0.772   2.320  0.1628 -0.7611 -0.4580
   83SLPC  H14C 7773   1.239   0.780   2.241  0.1182 -0.9698  0.1336
   83SLPC   C15 7774   1.039   0.690   2.072 -0.6924 -0.5404  0.0536
   83SLPC  H15A 7775   0.981   0.692   1.980 -2.0379 -0.7791  0.8608
   83SLPC  H15B 7776   1.138   0.652   2.051  0.3703  0.5733  2.6465
   83SLPC  H15C 7777   0.991   0.629   2.147  0.9807 -0.5147  1.1775
   83SLPC   C12 7778   0.921   0.893   2.147  0.2719  1.0026  0.1535
   83SLPC  H12A 7779   0.886   0.914   2.047 -0.6866  0.0882  0.2796
   83SLPC  H12B 7780   0.938   0.988   2.196 -2.2445  1.3095  0.5424
   83SLPC   C11 7781   0.810   0.822   2.226  0.2094 -0.1414  0.5875
   83SLPC  H11A 7782   0.800   0.715   2.198 -0.8385  0.5552 -1.9944
   83SLPC  H11B 7783   0.717   0.874   2.195 -0.4590 -1.1007  0.9546
   83SLPC     P 7784   0.820   0.981   2.434  0.2986  0.3103  0.0685
   83SLPC   O13 7785   0.916   1.068   2.377 -0.4388 -0.4386 -0.7384
   83SLPC   O14 7786   0.678   1.030   2.442 -0.5585  0.2554  0.3892
   83SLPC   O12 7787   0.832   0.838   2.366 -0.1977 -0.3941  0.3580
   83SLPC   O11 7788   0.856   0.944   2.583 -0.3039 -0.3727 -0.5079
   83SLPC    C1 7789   0.959   0.854   2.626  0.1226 -0.7628 -0.1161
   83SLPC    HA 7790   0.933   0.747   2.608  2.5685 -1.3365 -0.6891
   83SLPC    HB 7791   1.047   0.866   2.559  0.2911 -0.7022  0.1183
   83SLPC    C2 7792   0.996   0.874   2.779  0.4470  0.0804  0.7157
   83SLPC    HS 7793   1.106   0.872   2.790  0.6582 -0.9181 -1.1562
   83SLPC   O21 7794   0.923   0.791   2.867 -0.1221 -0.5853  0.3942
   83SLPC   C21 7795   0.971   0.671   2.869  0.2795  0.3945  0.2273
   83SLPC   O22 7796   1.060   0.630   2.797  0.1296  0.2138  0.2363
   83SLPC   C22 7797   0.895   0.586   2.971 -0.1877 -0.0275 -0.7002
   83SLPC   H2R 7798   0.790   0.623   2.967  0.7825  3.0868  0.1853
   83SLPC   H2S 7799   0.899   0.481   2.934  0.9848 -1.2419  2.4760
   83SLPC    C3 7800   0.969   1.020   2.823 -0.4157 -0.2143 -0.1201
   83SLPC    HX 7801   0.859   1.036   2.828 -0.3526  0.2773 -0.2284
   83SLPC    HY 7802   1.005   1.089   2.743 -0.6127 -1.0992 -0.9929
   83SLPC   O31 7803   1.036   1.037   2.951 -0.5071 -0.0582 -0.0136
   83SLPC   C31 7804   0.978   1.097   3.047 -0.1613 -0.3861 -0.1007
   83SLPC   O32 7805   0.873   1.154   3.039  0.0403  0.0969 -0.3915
   83SLPC   C32 7806   1.070   1.090   3.164  0.1976  0.1013 -0.2286
   83SLPC   H2X 7807   1.163   1.139   3.129  1.4464 -0.8653  1.5897
   83SLPC   H2Y 7808   1.093   0.989   3.205 -1.3521  0.7033  2.3300
   83SLPC   C23 7809   0.959   0.590   3.114  0.0409 -0.5352  0.7368
   83SLPC   H3R 7810   1.069   0.577   3.101 -0.2603  0.0946 -4.1869
   83SLPC   H3S 7811   0.911   0.512   3.176 -0.1357 -1.3318 -0.3707
   83SLPC   C24 7812   0.944   0.730   3.187 -0.0185  0.3689  0.4050
   83SLPC   H4R 7813   0.855   0.781   3.146 -0.3884 -0.2222  0.4562
   83SLPC   H4S 7814   1.034   0.793   3.173 -0.2389  0.4422 -0.7372
   83SLPC   C25 7815   0.918   0.711   3.343 -0.6621 -0.4272  0.1650
   83SLPC   H5R 7816   0.991   0.642   3.392  0.3127  1.3613  1.3424
   83SLPC   H5S 7817   0.822   0.656   3.355 -0.9031 -1.2248 -3.9848
   83SLPC   C26 7818   0.912   0.842   3.419 -0.0849  0.4110  0.0262
   83SLPC   H6R 7819   0.862   0.918   3.355 -1.0991  0.2642  0.6162
   83SLPC   H6S 7820   1.013   0.882   3.442  0.4142  0.7997 -2.5220
   83SLPC   C27 7821   0.845   0.835   3.555 -0.4140 -0.8981  0.1665
   83SLPC   H7R 7822   0.749   0.781   3.541  0.9208 -3.5650  0.6185
   83SLPC   H7S 7823   0.831   0.939   3.593 -0.1350  0.3310 -2.8447
   83SLPC   C28 7824   0.928   0.765   3.665 -0.0705 -0.3466 -0.5135
   83SLPC   H8R 7825   1.021   0.815   3.700 -0.1048 -1.3348  1.1428
   83SLPC   H8S 7826   0.971   0.670   3.627 -0.4024 -1.0956  0.8945
   83SLPC   C29 7827   0.844   0.719   3.785  0.0865 -0.2555 -0.0899
   83SLPC   H9R 7828   0.781   0.633   3.760  0.5776 -0.4571 -0.6367
   83SLPC  C210 7829   0.852   0.765   3.909  0.1223 -0.1330  0.3870
   83SLPC  H10R 7830   0.785   0.710   3.977 -1.1928 -0.3246 -1.0129
   83SLPC  C211 7831   0.934   0.881   3.971  0.3946  0.3370  0.7717
   83SLPC  H11R 7832   0.906   0.977   3.922  1.2372  0.6781  0.9464
   83SLPC  H11S 7833   1.044   0.868   3.960  0.3904  1.2725 -0.6116
   83SLPC  C212 7834   0.909   0.887   4.119  0.2916 -0.1976  0.3363
   83SLPC  H12R 7835   0.818   0.942   4.145  0.3201  0.0690 -0.1321
   83SLPC  C213 7836   0.985   0.821   4.211  0.0124 -0.4487  0.4447
   83SLPC  H13R 7837   0.957   0.826   4.317  0.1826  1.1512  0.4418
   83SLPC  C214 7838   1.106   0.733   4.183 -0.4438 -0.0507 -0.2140
   83SLPC  H14R 7839   1.149   0.743   4.081 -0.5884 -1.8704 -0.4859
   83SLPC  H14S 7840   1.072   0.628   4.196  2.2891 -0.9255  0.4106
   83SLPC  C215 7841   1.222   0.744   4.283  0.6013  0.1864  0.0406
   83SLPC  H15R 7842   1.261   0.848   4.294  0.6001  0.3996 -1.6935
   83SLPC  H15S 7843   1.310   0.693   4.238 -1.1215 -3.0943  0.1131
   83SLPC  C216 7844   1.203   0.670   4.420 -0.1552  0.1362 -0.4491
   83SLPC  H16R 7845   1.149   0.577   4.393 -0.0113 -0.3464  0.8541
   83SLPC  H16S 7846   1.133   0.729   4.483  0.3132  1.1674 -0.8677
   83SLPC  C217 7847   1.330   0.630   4.492 -0.5039 -0.3148  0.1945
   83SLPC  H17R 7848   1.402   0.565   4.439 -0.9873 -1.2673  0.6695
   83SLPC  H17S 7849   1.314   0.568   4.583  1.2196  0.7803  1.2945
   83SLPC  C218 7850   1.396   0.749   4.572 -0.2679 -0.5805 -0.5078
   83SLPC  H18R 7851   1.480   0.712   4.634 -0.9767 -0.7837  0.3738
   83SLPC  H18S 7852   1.331   0.796   4.649  1.6178  0.2039  0.6763
   83SLPC  H18T 7853   1.441   0.820   4.500  1.1401 -0.8981  0.0270
   83SLPC   C33 7854   1.000   1.172   3.271  0.1559 -0.8408 -0.3523
   83SLPC   H3X 7855   0.901   1.134   3.303 -0.3719  1.2993  0.6969
   83SLPC   H3Y 7856   0.980   1.275   3.235 -2.7040 -1.0965  0.2688
   83SLPC   C34 7857   1.084   1.170   3.403 -0.3740  0.0938  0.7058
   83SLPC   H4X 7858   1.190   1.201   3.387 -0.5346 -0.0697 -0.7986
   83SLPC   H4Y 7859   1.093   1.066   3.442  3.3516  0.2317  0.6318
   83SLPC   C35 7860   1.018   1.261   3.515 -0.4392 -0.2037  0.0195
   83SLPC   H5X 7861   0.924   1.213   3.548 -1.2779  0.0910 -1.8641
   83SLPC   H5Y 7862   1.000   1.365   3.480 -0.2494  0.7028  2.3630
   83SLPC   C36 7863   1.115   1.271   3.637  0.0347 -0.2775  0.9052
   83SLPC   H6X 7864   1.217   1.303   3.607  0.5105 -0.9624  1.7297
   83SLPC   H6Y 7865   1.125   1.173   3.689  0.9978 -0.7415 -0.1094
   83SLPC   C37 7866   1.066   1.381   3.739  1.0767  0.6558 -0.4806
   83SLPC   H7X 7867   0.958   1.371   3.766  1.4796  1.1211  1.4323
   83SLPC   H7Y 7868   1.081   1.481   3.694 -1.2694  2.2616  1.9354
   83SLPC   C38 7869   1.135   1.372   3.874 -0.9490  0.3185 -0.0308
   83SLPC   H8X 7870   1.130   1.475   3.915  0.6499  1.2930 -2.0429
   83SLPC   H8Y 7871   1.241   1.339   3.868 -0.0248  2.7886  1.0695
   83SLPC   C39 7872   1.073   1.269   3.969 -0.5457  0.3350  0.0981
   83SLPC   H9X 7873   1.092   1.169   3.924  1.7959 -0.2952  2.2122
   83SLPC   H9Y 7874   0.963   1.280   3.984 -0.6249 -0.1254 -0.1130
   83SLPC  C310 7875   1.152   1.271   4.105  0.0935  0.5711 -0.0987
   83SLPC  H10X 7876   1.123   1.370   4.147 -1.5873 -0.3916  1.1383
   83SLPC  H10Y 7877   1.260   1.253   4.087 -0.4769 -2.2004 -1.2843
   83SLPC  C311 7878   1.109   1.167   4.208  0.2235  0.4145 -0.1413
   83SLPC  H11X 7879   1.151   1.066   4.187 -0.7453 -0.3412  1.3663
   83SLPC  H11Y 7880   0.999   1.152   4.199 -0.1710  2.1301  1.3595
   83SLPC  C312 7881   1.150   1.198   4.355 -0.0434  1.2255  0.4822
   83SLPC  H12X 7882   1.112   1.301   4.377 -1.2668  1.1657 -1.1999
   83SLPC  H12Y 7883   1.261   1.192   4.360  0.1395  0.3786 -2.7930
   83SLPC  C313 7884   1.090   1.102   4.459  0.7741  0.3711  0.4949
   83SLPC  H13X 7885   1.122   0.996   4.448 -1.6588 -0.2220 -2.0489
   83SLPC  H13Y 7886   0.980   1.096   4.441  0.9653  1.2095 -1.1423
   83SLPC  C314 7887   1.112   1.141   4.608 -0.0447 -0.8053  1.2662
   83SLPC  H14X 7888   1.213   1.104   4.637  0.3581 -2.0572 -1.4053
   83SLPC  H14Y 7889   1.032   1.083   4.659 -0.8937 -2.0400 -1.3087
   83SLPC  C315 7890   1.101   1.295   4.643 -0.4966  0.1890  1.0390
   83SLPC  H15X 7891   1.012   1.340   4.592 -0.8712  1.3218  2.6207
   83SLPC  H15Y 7892   1.189   1.340   4.592 -1.7511  0.6839 -0.8374
   83SLPC  C316 7893   1.093   1.325   4.791 -0.3887  1.6476 -0.4413
   83SLPC  H16X 7894   1.106   1.435   4.804  1.0185  1.3618  0.8935
   83SLPC  H16Y 7895   1.182   1.274   4.834 -1.5938 -1.3422 -1.2754
   83SLPC  C317 7896   0.961   1.265   4.857  0.1157 -0.1703  0.4743
   83SLPC  H17X 7897   0.998   1.235   4.957  2.7457  0.1875 -0.3001
   83SLPC  H17Y 7898   0.927   1.174   4.803  1.7560 -1.4501  1.5126
   83SLPC  C318 7899   0.844   1.357   4.869 -0.4803  0.1096  0.2047
   83SLPC  H18X 7900   0.872   1.464   4.886  1.8194 -0.1144 -1.6062
   83SLPC  H18Y 7901   0.781   1.320   4.952  0.4020 -3.0420 -0.4019
   83SLPC  H18Z 7902   0.783   1.348   4.777  0.7022  2.1061 -0.8536
   84SLPC     N 7903   0.764   2.389   2.483 -0.2669  0.1311 -0.7953
   84SLPC   C13 7904   0.833   2.272   2.558  0.5170  0.1213 -0.2150
   84SLPC  H13A 7905   0.806   2.263   2.662 -4.0400 -2.1377 -1.3112
   84SLPC  H13B 7906   0.794   2.185   2.507  1.0170  0.4403 -1.1700
   84SLPC  H13C 7907   0.941   2.270   2.553  0.6976  2.7966  1.0698
   84SLPC   C14 7908   0.618   2.390   2.511  0.6668 -0.1323 -0.1844
   84SLPC  H14A 7909   0.584   2.294   2.474  1.7343 -0.6712  0.1902
   84SLPC  H14B 7910   0.595   2.380   2.616 -0.7101 -0.6208 -0.5082
   84SLPC  H14C 7911   0.583   2.474   2.452  5.2391  1.9916 -0.3162
   84SLPC   C15 7912   0.783   2.377   2.339 -0.5343 -0.4061  0.3025
   84SLPC  H15A 7913   0.885   2.349   2.317 -0.4158  0.0077  0.3221
   84SLPC  H15B 7914   0.741   2.285   2.301 -1.9598 -0.3795  1.7020
   84SLPC  H15C 7915   0.760   2.466   2.282  1.2128 -1.0673 -1.5492
   84SLPC   C12 7916   0.828   2.522   2.528  0.7254 -0.1263  0.0787
   84SLPC  H12A 7917   0.813   2.529   2.635  0.7614 -0.6694  0.1208
   84SLPC  H12B 7918   0.767   2.602   2.488  1.9092 -0.1564 -1.8724
   84SLPC   C11 7919   0.975   2.548   2.484 -0.3940  0.9140  0.1811
   84SLPC  H11A 7920   1.014   2.652   2.491  1.7707  0.2068 -0.5438
   84SLPC  H11B 7921   0.969   2.537   2.373  0.6872  1.0098  0.1014
   84SLPC     P 7922   1.099   2.466   2.695  0.1153 -0.5926  0.0354
   84SLPC   O13 7923   1.030   2.355   2.764 -0.1959 -0.5767 -0.2158
   84SLPC   O14 7924   1.245   2.477   2.702  0.2332 -0.1730 -0.1144
   84SLPC   O12 7925   1.070   2.457   2.540  0.3378 -0.5106 -0.4215
   84SLPC   O11 7926   1.028   2.606   2.735 -0.8003 -0.1431 -0.8655
   84SLPC    C1 7927   1.100   2.689   2.830  1.0359  0.2513  0.0288
   84SLPC    HA 7928   1.211   2.687   2.827  1.0202 -0.2231 -0.4672
   84SLPC    HB 7929   1.085   2.797   2.805  0.0627  0.7714  2.5925
   84SLPC    C2 7930   1.059   2.666   2.978  0.9284  0.1725  0.4848
   84SLPC    HS 7931   1.104   2.744   3.043 -0.5993  1.6740 -0.1867
   84SLPC   O21 7932   1.089   2.533   3.015  0.2366 -0.4710 -0.3601
   84SLPC   C21 7933   1.216   2.506   3.044 -0.0661  0.3647  0.1169
   84SLPC   O22 7934   1.309   2.581   3.070  0.3559  0.4365 -0.2349
   84SLPC   C22 7935   1.217   2.359   3.058  0.4032  0.7321  1.0667
   84SLPC   H2R 7936   1.129   2.304   3.020  1.8080 -0.5709 -0.4841
   84SLPC   H2S 7937   1.301   2.311   3.003 -1.4326 -1.6623  0.1664
   84SLPC    C3 7938   0.909   2.691   3.003 -0.3001  0.0105  0.0914
   84SLPC    HX 7939   0.855   2.612   2.947  0.4838  0.2269 -0.9998
   84SLPC    HY 7940   0.882   2.789   2.958  2.4460  0.3997 -0.9155
   84SLPC   O31 7941   0.874   2.697   3.139 -0.0181 -0.0389 -0.3049
   84SLPC   C31 7942   0.846   2.581   3.204  0.2871  0.1759  0.6732
   84SLPC   O32 7943   0.834   2.472   3.148 -0.2143 -0.3352 -0.4934
   84SLPC   C32 7944   0.825   2.609   3.351  0.2369 -0.2500 -0.2266
   84SLPC   H2X 7945   0.717   2.604   3.381  0.5879 -0.8822  1.0200
   84SLPC   H2Y 7946   0.874   2.706   3.375 -0.2621  0.0163 -0.2645
   84SLPC   C23 7947   1.225   2.326   3.207 -0.9936 -0.7949 -0.8418
   84SLPC   H3R 7948   1.132   2.368   3.249 -0.9332 -0.5895 -0.9121
   84SLPC   H3S 7949   1.312   2.376   3.255 -1.0987 -0.0637 -1.3955
   84SLPC   C24 7950   1.256   2.177   3.232  0.7043  0.3194 -0.5548
   84SLPC   H4R 7951   1.352   2.139   3.191 -0.0432 -1.0415 -1.1128
   84SLPC   H4S 7952   1.178   2.117   3.181  0.5831  1.0833 -1.2927
   84SLPC   C25 7953   1.264   2.133   3.383  0.0275 -0.6808  0.3700
   84SLPC   H5R 7954   1.312   2.033   3.394 -1.9969 -1.9444 -1.5384
   84SLPC   H5S 7955   1.161   2.121   3.421  0.0760 -2.4926  0.0466
   84SLPC   C26 7956   1.345   2.241   3.463  0.0866  0.5641 -0.0988
   84SLPC   H6R 7957   1.295   2.340   3.462  0.0071  0.5230 -0.2740
   84SLPC   H6S 7958   1.446   2.266   3.425  0.6772  1.7353  2.1093
   84SLPC   C27 7959   1.353   2.202   3.617  0.8251 -0.1735  0.4779
   84SLPC   H7R 7960   1.408   2.107   3.631  2.0158  0.2796 -0.8695
   84SLPC   H7S 7961   1.248   2.190   3.651  0.7146 -0.2028  0.1370
   84SLPC   C28 7962   1.408   2.302   3.708 -0.3805 -0.7065 -0.5835
   84SLPC   H8R 7963   1.387   2.268   3.812 -0.4373  0.0087 -0.3580
   84SLPC   H8S 7964   1.354   2.398   3.696  3.5806  1.5244 -2.4850
   84SLPC   C29 7965   1.557   2.324   3.690  0.4464 -0.1399  0.3321
   84SLPC   H9R 7966   1.607   2.247   3.630  0.5691  2.8549 -3.8690
   84SLPC  C210 7967   1.631   2.419   3.752  0.8971 -0.3709 -0.0421
   84SLPC  H10R 7968   1.741   2.419   3.757  0.9246 -1.9746  0.0577
   84SLPC  C211 7969   1.573   2.538   3.839  0.5028 -0.6578 -0.4045
   84SLPC  H11R 7970   1.516   2.504   3.928  0.6598 -2.0888 -0.8228
   84SLPC  H11S 7971   1.505   2.601   3.778  0.8195  1.2131  1.0658
   84SLPC  C212 7972   1.692   2.632   3.869 -0.6024 -0.0150  0.5642
   84SLPC  H12R 7973   1.747   2.664   3.780 -1.0701  0.0402  0.2918
   84SLPC  C213 7974   1.727   2.690   3.987 -0.3544  0.1688 -0.3362
   84SLPC  H13R 7975   1.809   2.763   3.984  0.4537 -0.7347 -1.0687
   84SLPC  C214 7976   1.655   2.668   4.116 -0.3599 -0.4808 -0.4554
   84SLPC  H14R 7977   1.547   2.686   4.101 -0.3876 -0.1479  0.1013
   84SLPC  H14S 7978   1.689   2.743   4.191  1.8387 -3.4376  1.7602
   84SLPC  C215 7979   1.673   2.532   4.171 -0.5854  0.5351  0.3897
   84SLPC  H15R 7980   1.776   2.499   4.196 -1.5771 -0.8406  3.0274
   84SLPC  H15S 7981   1.636   2.449   4.105  0.8590  0.1571  0.0179
   84SLPC  C216 7982   1.585   2.512   4.294 -0.0573 -0.1468 -0.6371
   84SLPC  H16R 7983   1.478   2.526   4.265  0.4719 -1.1366 -3.3564
   84SLPC  H16S 7984   1.602   2.586   4.375 -0.6554 -0.8536  0.1494
   84SLPC  C217 7985   1.614   2.376   4.364  0.3840  0.3343 -0.0605
   84SLPC  H17R 7986   1.720   2.380   4.398  0.7865 -1.2488 -1.0247
   84SLPC  H17S 7987   1.608   2.299   4.285 -3.7164 -1.0270  1.3428
   84SLPC  C218 7988   1.515   2.358   4.482  0.6934  0.3474  0.4237
   84SLPC  H18R 7989   1.501   2.448   4.545 -1.5480  0.1253  0.3329
   84SLPC  H18S 7990   1.546   2.268   4.539 -1.0927 -1.3691 -1.1611
   84SLPC  H18T 7991   1.418   2.319   4.445  2.1521 -4.5151  1.0035
   84SLPC   C33 7992   0.902   2.510   3.442  0.7337 -0.6541  0.5032
   84SLPC   H3X 7993   1.009   2.538   3.435  0.9312 -0.8422  2.2969
   84SLPC   H3Y 7994   0.878   2.404   3.416  0.2880 -0.4894  0.2162
   84SLPC   C34 7995   0.868   2.524   3.588 -0.2106  0.4924  0.2129
   84SLPC   H4X 7996   0.765   2.489   3.612  0.4231 -1.7151 -0.1646
   84SLPC   H4Y 7997   0.879   2.633   3.607  1.2283  0.5516 -0.8175
   84SLPC   C35 7998   0.966   2.442   3.683  0.4061  0.4254  0.8390
   84SLPC   H5X 7999   1.067   2.471   3.647  0.6223 -1.2794 -0.0068
   84SLPC   H5Y 8000   0.955   2.335   3.658  1.2744  0.1883  1.4496
   84SLPC   C36 8001   0.946   2.452   3.833 -0.3350 -0.6438 -0.3637
   84SLPC   H6X 8002   1.021   2.377   3.866  0.9929 -0.1159 -2.0195
   84SLPC   H6Y 8003   0.844   2.418   3.857  0.0775 -2.3337 -0.8771
   84SLPC   C37 8004   0.961   2.587   3.906  0.0160 -0.7388  0.5221
   84SLPC   H7X 8005   0.896   2.594   3.995 -0.8990  1.1689 -0.2411
   84SLPC   H7Y 8006   0.944   2.672   3.836 -0.4126 -1.5650 -0.4076
   84SLPC   C38 8007   1.102   2.613   3.956 -0.0568 -0.2497 -0.7274
   84SLPC   H8X 8008   1.179   2.610   3.876 -0.4393  3.8562 -1.4563
   84SLPC   H8Y 8009   1.119   2.530   4.028 -1.1966 -0.2495 -0.4410
   84SLPC   C39 8010   1.130   2.745   4.033  0.2937 -0.1762  0.0584
   84SLPC   H9X 8011   1.075   2.827   3.981  0.8924  1.4937  1.9015
   84SLPC   H9Y 8012   1.238   2.768   4.022  0.8504 -2.0124  1.2142
   84SLPC  C310 8013   1.099   2.732   4.179 -0.4790 -0.6154  0.2541
   84SLPC  H10X 8014   1.164   2.655   4.224  1.1199  0.4947 -0.0629
   84SLPC  H10Y 8015   0.991   2.706   4.187 -1.1401  1.0323 -1.9561
   84SLPC  C311 8016   1.120   2.872   4.251  0.0297  0.9388  0.3488
   84SLPC  H11X 8017   1.040   2.946   4.228 -0.0025  0.9145  0.3817
   84SLPC  H11Y 8018   1.218   2.917   4.223  0.2155  0.2519 -0.1391
   84SLPC  C312 8019   1.127   2.850   4.400  0.3060  0.5352  0.8264
   84SLPC  H12X 8020   1.218   2.789   4.417  0.6259  0.6563 -0.3980
   84SLPC  H12Y 8021   1.040   2.784   4.418  1.6182 -2.1940 -1.8806
   84SLPC  C313 8022   1.101   2.985   4.487 -0.6777 -0.2687  0.1822
   84SLPC  H13X 8023   1.058   2.962   4.587  2.5327 -0.4285  1.6306
   84SLPC  H13Y 8024   1.025   3.047   4.433  0.0581  0.7589  0.2862
   84SLPC  C314 8025   1.233   3.072   4.504  0.9224  0.2410  0.1009
   84SLPC  H14X 8026   1.251   3.129   4.410  1.2266  0.4775  0.2981
   84SLPC  H14Y 8027   1.312   2.998   4.528  0.0859 -0.7877 -0.2506
   84SLPC  C315 8028   1.221   3.178   4.612 -0.6451  0.1386  0.4831
   84SLPC  H15X 8029   1.326   3.200   4.638  0.0517  1.0445 -2.7074
   84SLPC  H15Y 8030   1.168   3.127   4.696  0.9438 -1.2096  0.6996
   84SLPC  C316 8031   1.150   3.304   4.551 -1.0060  0.6728 -0.2937
   84SLPC  H16X 8032   1.041   3.279   4.550 -0.8444 -0.1728  0.8526
   84SLPC  H16Y 8033   1.196   3.329   4.453  1.5893  2.3321  1.2449
   84SLPC  C317 8034   1.172   3.420   4.646  0.0018 -0.2696  0.8600
   84SLPC  H17X 8035   1.281   3.429   4.660 -0.0319  1.4803  0.1831
   84SLPC  H17Y 8036   1.117   3.382   4.736 -0.2399 -1.3212  0.2829
   84SLPC  C318 8037   1.129   3.560   4.592 -0.4094 -0.0794  0.3289
   84SLPC  H18X 8038   1.141   3.636   4.672  0.4036 -0.4744  0.5970
   84SLPC  H18Y 8039   1.023   3.563   4.559 -0.2058 -0.3837 -0.3714
   84SLPC  H18Z 8040   1.198   3.594   4.511 -0.4521  1.1464  0.7907
   85SLPC     N 8041   5.460   0.323   2.487  0.7678 -0.0056  0.5117
   85SLPC   C13 8042   5.434   0.230   2.598 -0.1373 -0.8179  0.6348
   85SLPC  H13A 8043   5.367   0.152   2.565 -0.8451  0.2894 -0.6672
   85SLPC  H13B 8044   5.528   0.204   2.644  0.4508  1.9244  1.1595
   85SLPC  H13C 8045   5.372   0.286   2.666  0.0141  0.2389 -0.0711
   85SLPC   C14 8046   5.326   0.389   2.451  0.4140  0.2664  0.1355
   85SLPC  H14A 8047   5.276   0.449   2.526 -0.8221 -0.7016  0.1249
   85SLPC  H14B 8048   5.337   0.448   2.362  2.8531 -1.1767 -0.5983
   85SLPC  H14C 8049   5.257   0.310   2.425  4.1285 -2.7059 -1.6016
   85SLPC   C15 8050   5.514   0.258   2.366 -0.3082 -0.2101 -0.4546
   85SLPC  H15A 8051   5.614   0.220   2.382 -0.2774 -0.2831 -0.8103
   85SLPC  H15B 8052   5.453   0.174   2.339 -1.9329  0.0915  2.0125
   85SLPC  H15C 8053   5.519   0.329   2.285 -1.1962  0.8474  0.3933
   85SLPC   C12 8054   5.558   0.425   2.538  0.2032 -0.6671  0.5964
   85SLPC  H12A 8055   5.587   0.494   2.460 -1.1336  0.3361  0.9512
   85SLPC  H12B 8056   5.649   0.373   2.563 -0.3051 -0.6522  2.5763
   85SLPC   C11 8057   5.535   0.512   2.660 -0.2471  0.2576 -0.3677
   85SLPC  H11A 8058   5.622   0.575   2.685 -2.0244  2.7223 -0.0110
   85SLPC  H11B 8059   5.525   0.444   2.746 -0.8766  1.6930  0.7360
   85SLPC     P 8060   5.415   0.734   2.623  0.1383 -0.2572  0.0143
   85SLPC   O13 8061   5.450   0.740   2.477  0.0664  0.0545 -0.1435
   85SLPC   O14 8062   5.282   0.787   2.657  0.2992  0.3871 -1.0342
   85SLPC   O12 8063   5.418   0.586   2.654  0.4903  0.0512  0.0528
   85SLPC   O11 8064   5.535   0.798   2.710 -0.0014  0.2583  0.5431
   85SLPC    C1 8065   5.536   0.773   2.847  0.8006 -0.4160  0.1637
   85SLPC    HA 8066   5.437   0.730   2.875 -0.6191  3.8664  2.7066
   85SLPC    HB 8067   5.618   0.702   2.868  1.3214  0.6751  2.1415
   85SLPC    C2 8068   5.579   0.897   2.936  0.5410  0.6225  0.1371
   85SLPC    HS 8069   5.599   0.861   3.039 -0.9469 -4.0613 -0.9651
   85SLPC   O21 8070   5.479   0.998   2.938  0.2224 -0.1949  0.0834
   85SLPC   C21 8071   5.375   0.971   3.021  0.1720 -0.5775 -0.4722
   85SLPC   O22 8072   5.378   0.883   3.108 -0.4493  0.1344 -0.7656
   85SLPC   C22 8073   5.274   1.092   3.007 -0.3902  0.9094  0.0947
   85SLPC   H2R 8074   5.340   1.182   3.010  0.2037  0.4816  0.1297
   85SLPC   H2S 8075   5.236   1.088   2.903  2.0213  0.6968 -0.8337
   85SLPC    C3 8076   5.708   0.958   2.889 -0.3400  0.0892  0.2436
   85SLPC    HX 8077   5.679   1.001   2.791  1.2656  0.1669 -0.2178
   85SLPC    HY 8078   5.788   0.881   2.882 -0.8226 -0.3647 -0.4631
   85SLPC   O31 8079   5.746   1.059   2.982  0.1947 -0.1160 -0.3190
   85SLPC   C31 8080   5.851   1.129   2.947  0.1443  0.7492  0.0436
   85SLPC   O32 8081   5.901   1.113   2.833  0.1452  0.2434  0.1634
   85SLPC   C32 8082   5.898   1.218   3.056 -0.0739 -0.0616  0.0538
   85SLPC   H2X 8083   5.897   1.164   3.153 -1.7814  3.1198  1.9734
   85SLPC   H2Y 8084   5.818   1.294   3.069  0.5052  0.5428  0.1558
   85SLPC   C23 8085   5.168   1.095   3.115  0.2938  0.0771 -0.2539
   85SLPC   H3R 8086   5.222   1.123   3.209 -0.8175  0.9838  0.1305
   85SLPC   H3S 8087   5.131   0.994   3.140  1.6747 -1.1746 -2.8717
   85SLPC   C24 8088   5.049   1.198   3.102 -0.5583 -0.1549  0.3295
   85SLPC   H4R 8089   5.000   1.186   3.003 -0.9386 -1.5127  0.6565
   85SLPC   H4S 8090   5.101   1.296   3.108  1.2609 -1.1161  1.1040
   85SLPC   C25 8091   4.945   1.189   3.220  0.0281  0.4970  0.2336
   85SLPC   H5R 8092   4.864   1.263   3.203 -0.6005 -0.0267  0.9008
   85SLPC   H5S 8093   4.891   1.098   3.186 -0.7187  1.1713 -0.4291
   85SLPC   C26 8094   5.004   1.177   3.366 -0.2204  0.1982  0.2514
   85SLPC   H6R 8095   5.097   1.238   3.361 -2.3616  3.6744 -2.1554
   85SLPC   H6S 8096   5.033   1.070   3.375 -1.3223 -0.4781 -2.8563
   85SLPC   C27 8097   4.909   1.226   3.472 -0.4513 -0.5116 -0.7074
   85SLPC   H7R 8098   4.824   1.155   3.469  0.2976 -1.4157 -1.7526
   85SLPC   H7S 8099   4.868   1.324   3.442  0.3185 -0.5176 -1.8411
   85SLPC   C28 8100   4.949   1.222   3.618 -0.5923 -0.2498  0.7892
   85SLPC   H8R 8101   5.033   1.291   3.641 -2.2496  1.8476  0.8372
   85SLPC   H8S 8102   4.985   1.117   3.626  0.7054  0.1087  0.0299
   85SLPC   C29 8103   4.830   1.240   3.708 -0.1956  0.6165 -0.5045
   85SLPC   H9R 8104   4.726   1.230   3.673 -0.0340 -1.7797 -0.4636
   85SLPC  C210 8105   4.841   1.241   3.845 -0.4135 -0.0410 -0.3238
   85SLPC  H10R 8106   4.751   1.237   3.909  1.5426  0.1734  2.6402
   85SLPC  C211 8107   4.964   1.254   3.922 -0.1655 -0.8711  0.5843
   85SLPC  H11R 8108   5.050   1.285   3.857 -2.4461  0.5023 -2.0168
   85SLPC  H11S 8109   4.990   1.157   3.968 -2.4322 -2.1023 -0.5895
   85SLPC  C212 8110   4.954   1.366   4.028 -0.5024  0.2384 -0.1198
   85SLPC  H12R 8111   4.998   1.464   4.002 -0.2630  0.0944 -0.2554
   85SLPC  C213 8112   4.911   1.345   4.151 -0.3191 -0.0166 -0.5501
   85SLPC  H13R 8113   4.915   1.429   4.222 -0.8107 -2.5717  2.7304
   85SLPC  C214 8114   4.852   1.227   4.214  0.7027  0.3643 -0.3169
   85SLPC  H14R 8115   4.872   1.138   4.150 -0.6624 -0.1387 -0.0722
   85SLPC  H14S 8116   4.743   1.242   4.232  0.8567  0.4311  0.6103
   85SLPC  C215 8117   4.896   1.204   4.359  0.0182  0.1742 -0.1833
   85SLPC  H15R 8118   5.003   1.191   4.385 -0.3343  0.4662  1.5449
   85SLPC  H15S 8119   4.847   1.105   4.371 -1.2248  0.7406 -0.3382
   85SLPC  C216 8120   4.838   1.312   4.454 -0.4341  0.1419  0.4503
   85SLPC  H16R 8121   4.729   1.329   4.440 -0.0603  1.2565 -1.4398
   85SLPC  H16S 8122   4.896   1.406   4.441  0.9445 -0.6764  0.4584
   85SLPC  C217 8123   4.854   1.264   4.598  0.8781 -0.9784 -0.7156
   85SLPC  H17R 8124   4.957   1.279   4.635  0.2562 -2.8238  2.0885
   85SLPC  H17S 8125   4.824   1.157   4.601 -1.1189 -0.4447 -0.3640
   85SLPC  C218 8126   4.765   1.338   4.704  0.6058 -0.4747 -0.3139
   85SLPC  H18R 8127   4.792   1.314   4.808  0.7522 -0.6990 -0.4032
   85SLPC  H18S 8128   4.658   1.311   4.690  0.5868 -0.5706  0.0187
   85SLPC  H18T 8129   4.778   1.447   4.688 -2.3359  0.1482  0.8902
   85SLPC   C33 8130   6.038   1.291   3.030 -0.7715  0.5546  0.0714
   85SLPC   H3X 8131   6.052   1.366   3.111 -0.8920 -1.0393  1.6132
   85SLPC   H3Y 8132   6.042   1.347   2.934 -0.3890 -1.0422 -0.8858
   85SLPC   C34 8133   6.154   1.188   3.031 -0.3032 -0.2326  0.0857
   85SLPC   H4X 8134   6.147   1.126   2.939 -0.6722  2.7945 -2.0753
   85SLPC   H4Y 8135   6.148   1.117   3.116 -0.3927  1.6114  1.6886
   85SLPC   C35 8136   6.292   1.261   3.029 -0.4540 -0.4896  0.6814
   85SLPC   H5X 8137   6.283   1.332   2.944  1.8088 -0.1609  0.6602
   85SLPC   H5Y 8138   6.367   1.185   2.999 -0.5187 -0.0795 -0.5731
   85SLPC   C36 8139   6.334   1.323   3.169  0.6702  0.7442  0.5302
   85SLPC   H6X 8140   6.251   1.385   3.210 -0.6527 -1.0053  0.6007
   85SLPC   H6Y 8141   6.425   1.384   3.150 -0.0984  2.3309  1.6717
   85SLPC   C37 8142   6.377   1.213   3.269  0.0071  0.5641  0.7094
   85SLPC   H7X 8143   6.460   1.147   3.235 -1.0911 -0.1024 -0.7718
   85SLPC   H7Y 8144   6.298   1.137   3.281  0.1573  0.0874 -1.0217
   85SLPC   C38 8145   6.400   1.262   3.410  0.1833 -0.4662  0.3143
   85SLPC   H8X 8146   6.306   1.319   3.424  0.0698 -0.3563 -0.8213
   85SLPC   H8Y 8147   6.487   1.332   3.407 -0.9794  1.1641  2.0357
   85SLPC   C39 8148   6.439   1.161   3.513 -0.6261  0.5283  0.5423
   85SLPC   H9X 8149   6.540   1.119   3.493 -1.4116 -0.9138 -0.6606
   85SLPC   H9Y 8150   6.361   1.082   3.505  0.7649 -0.9564  0.9730
   85SLPC  C310 8151   6.450   1.222   3.656  0.5411  0.2952 -0.0793
   85SLPC  H10X 8152   6.352   1.269   3.684  0.3394 -0.1774  0.0153
   85SLPC  H10Y 8153   6.525   1.304   3.664  3.0738 -1.8599 -0.7558
   85SLPC  C311 8154   6.477   1.119   3.766  0.0222 -0.1698  0.3179
   85SLPC  H11X 8155   6.579   1.075   3.763  0.0538 -0.2930  2.1812
   85SLPC  H11Y 8156   6.408   1.034   3.748 -1.5597  0.9624  0.8027
   85SLPC  C312 8157   6.453   1.167   3.899  0.6126  0.1948 -0.6183
   85SLPC  H12X 8158   6.376   1.248   3.902 -1.1118 -1.3858  1.4910
   85SLPC  H12Y 8159   6.545   1.215   3.938  0.6824  0.4154 -1.0480
   85SLPC  C313 8160   6.407   1.060   3.992  0.6806  0.6727 -0.0913
   85SLPC  H13X 8161   6.480   0.978   3.978 -0.4402 -0.2536 -0.7160
   85SLPC  H13Y 8162   6.311   1.016   3.956  0.4821  0.0120  1.1846
   85SLPC  C314 8163   6.401   1.099   4.143 -0.3094 -0.1008  0.0773
   85SLPC  H14X 8164   6.501   1.144   4.159  1.2286 -2.8809 -1.0382
   85SLPC  H14Y 8165   6.377   1.008   4.203 -0.4244 -0.1092  0.0197
   85SLPC  C315 8166   6.294   1.209   4.183  0.5900  0.0825 -0.2757
   85SLPC  H15X 8167   6.192   1.184   4.146  0.9608 -1.0968 -0.5280
   85SLPC  H15Y 8168   6.337   1.307   4.152  3.2412 -0.5941  0.9595
   85SLPC  C316 8169   6.268   1.225   4.340  0.2512 -0.1625 -0.1102
   85SLPC  H16X 8170   6.209   1.134   4.365 -1.4702  0.2640 -2.2772
   85SLPC  H16Y 8171   6.200   1.312   4.351  0.9616  0.3000  0.7085
   85SLPC  C317 8172   6.386   1.242   4.421 -0.5489 -0.1127 -0.7869
   85SLPC  H17X 8173   6.440   1.333   4.387 -0.2751 -1.1321 -3.2259
   85SLPC  H17Y 8174   6.456   1.159   4.399  1.1334  0.9311  0.3772
   85SLPC  C318 8175   6.359   1.240   4.571  0.5837 -0.3049 -0.5259
   85SLPC  H18X 8176   6.453   1.221   4.627 -0.1717  0.7243  1.1661
   85SLPC  H18Y 8177   6.309   1.145   4.602  1.8785 -1.0685 -0.6744
   85SLPC  H18Z 8178   6.306   1.329   4.610  0.2606  0.7170 -3.1200
   86SLPC     N 8179   3.363   1.416   2.915  0.1248  0.9902  0.6459
   86SLPC   C13 8180   3.405   1.413   2.769 -0.4726 -0.1729  0.0900
   86SLPC  H13A 8181   3.371   1.326   2.714  0.7969 -0.2957 -0.5214
   86SLPC  H13B 8182   3.357   1.492   2.714 -1.0249 -0.5915 -0.0479
   86SLPC  H13C 8183   3.511   1.432   2.767 -0.2486 -1.3377 -1.5601
   86SLPC   C14 8184   3.441   1.309   2.974 -0.8517 -0.4201 -0.7460
   86SLPC  H14A 8185   3.389   1.287   3.067  0.1338  0.9403  0.1469
   86SLPC  H14B 8186   3.450   1.218   2.917  1.1562 -1.3567  0.9157
   86SLPC  H14C 8187   3.544   1.338   2.989 -0.9389 -0.5962  0.3375
   86SLPC   C15 8188   3.213   1.377   2.904  0.5312  0.8771  0.0593
   86SLPC  H15A 8189   3.166   1.457   2.849 -1.9516  0.5833  1.6049
   86SLPC  H15B 8190   3.197   1.285   2.848  2.9362 -0.0896  0.7963
   86SLPC  H15C 8191   3.164   1.382   3.000 -2.9752 -2.2890 -1.2902
   86SLPC   C12 8192   3.368   1.555   2.982 -0.5232 -0.0604  0.3713
   86SLPC  H12A 8193   3.334   1.539   3.084  0.6592 -2.4683  0.4769
   86SLPC  H12B 8194   3.321   1.633   2.924  0.1257 -1.7944 -2.6695
   86SLPC   C11 8195   3.526   1.597   3.009 -0.3321  0.0016  0.0169
   86SLPC  H11A 8196   3.583   1.527   3.074 -2.5864 -0.3313  1.7862
   86SLPC  H11B 8197   3.513   1.682   3.079 -0.1189  0.8260 -0.9214
   86SLPC     P 8198   3.584   1.765   2.831  0.1449  0.0981 -0.3570
   86SLPC   O13 8199   3.680   1.772   2.721 -0.0247  0.8760  0.4302
   86SLPC   O14 8200   3.440   1.786   2.795 -0.5367 -0.4043  0.6499
   86SLPC   O12 8201   3.604   1.621   2.887 -0.0992  0.3971  0.3484
   86SLPC   O11 8202   3.623   1.861   2.949  0.6507 -0.6119 -0.5054
   86SLPC    C1 8203   3.596   1.999   2.950  0.3810  0.3048 -0.1772
   86SLPC    HA 8204   3.689   2.055   2.974  1.2185 -0.8881 -0.5597
   86SLPC    HB 8205   3.558   2.028   2.850  0.7941 -0.8047 -0.6658
   86SLPC    C2 8206   3.489   2.033   3.058  0.4884  0.0557  0.1776
   86SLPC    HS 8207   3.407   1.961   3.038 -1.3377  1.4413  2.0754
   86SLPC   O21 8208   3.455   2.168   3.029  0.4171  0.0144  0.8054
   86SLPC   C21 8209   3.337   2.207   3.064 -0.0048  0.2452 -0.3078
   86SLPC   O22 8210   3.262   2.143   3.137  0.7440  0.6568  0.2971
   86SLPC   C22 8211   3.315   2.353   3.014  0.3514  0.0004  1.0826
   86SLPC   H2R 8212   3.331   2.348   2.904 -2.5277  1.1250  0.5297
   86SLPC   H2S 8213   3.210   2.376   3.039  0.8959  0.7890  2.7991
   86SLPC    C3 8214   3.537   2.014   3.211  0.8424 -0.3026  0.4163
   86SLPC    HX 8215   3.623   2.084   3.212  0.3350  0.4568 -2.1302
   86SLPC    HY 8216   3.584   1.914   3.226  0.0991 -0.5618  1.1430
   86SLPC   O31 8217   3.434   2.044   3.308 -0.6319  0.3107 -0.3279
   86SLPC   C31 8218   3.360   1.940   3.343  0.1516 -0.2182 -0.4845
   86SLPC   O32 8219   3.378   1.825   3.306  0.1408 -0.2019 -0.1440
   86SLPC   C32 8220   3.255   1.987   3.446 -0.3980  0.7292 -0.8868
   86SLPC   H2X 8221   3.194   1.902   3.483  0.8512  0.8896  1.7845
   86SLPC   H2Y 8222   3.194   2.072   3.409  1.4741  2.6450  0.1958
   86SLPC   C23 8223   3.415   2.452   3.087  0.1658 -0.3638  0.4920
   86SLPC   H3R 8224   3.410   2.548   3.031  1.9084  0.0680  1.0370
   86SLPC   H3S 8225   3.523   2.429   3.075  0.9371  2.9761  0.0858
   86SLPC   C24 8226   3.387   2.466   3.239  0.4223 -0.4755  0.3178
   86SLPC   H4R 8227   3.382   2.364   3.284  0.6041  0.4712  2.5777
   86SLPC   H4S 8228   3.285   2.509   3.251  1.4441  1.6517  1.9010
   86SLPC   C25 8229   3.482   2.565   3.309 -0.3172  0.2475  0.5189
   86SLPC   H5R 8230   3.479   2.666   3.262  0.4383 -0.7478 -1.8070
   86SLPC   H5S 8231   3.585   2.528   3.287 -0.8957  0.4387 -3.0202
   86SLPC   C26 8232   3.468   2.566   3.467  0.1089 -0.7710  0.5369
   86SLPC   H6R 8233   3.375   2.618   3.500  0.8449  0.1626  1.2219
   86SLPC   H6S 8234   3.550   2.628   3.508  1.0973 -3.7486  3.4293
   86SLPC   C27 8235   3.479   2.429   3.525  0.0579 -0.1592 -0.0983
   86SLPC   H7R 8236   3.570   2.382   3.481 -0.5091 -0.1586 -1.2951
   86SLPC   H7S 8237   3.394   2.362   3.499 -0.4029  0.5424 -0.4262
   86SLPC   C28 8238   3.502   2.435   3.674 -0.6722  0.2374 -0.7011
   86SLPC   H8R 8239   3.589   2.503   3.687 -1.6530  2.0794 -2.9350
   86SLPC   H8S 8240   3.528   2.333   3.711  1.3769  1.3386  1.1102
   86SLPC   C29 8241   3.393   2.476   3.773  0.0814  0.4252  0.2330
   86SLPC   H9R 8242   3.297   2.518   3.742 -0.4605  0.6738  2.1471
   86SLPC  C210 8243   3.419   2.498   3.903 -0.1130 -0.4765  0.2240
   86SLPC  H10R 8244   3.344   2.544   3.969 -0.1426  1.8907 -1.3533
   86SLPC  C211 8245   3.549   2.462   3.968 -0.0793  0.0876 -0.2409
   86SLPC  H11R 8246   3.588   2.366   3.928 -0.1713 -0.9234  1.9602
   86SLPC  H11S 8247   3.507   2.430   4.066 -0.8744  4.4001  1.0478
   86SLPC  C212 8248   3.657   2.569   3.987 -0.4712  0.2989 -0.3123
   86SLPC  H12R 8249   3.694   2.617   3.895  0.6235  1.0480  0.4991
   86SLPC  C213 8250   3.697   2.626   4.099  0.3012  0.2501 -0.3175
   86SLPC  H13R 8251   3.778   2.700   4.093 -0.7184  1.4764  0.6285
   86SLPC  C214 8252   3.631   2.592   4.234  0.2322  0.4772 -0.2867
   86SLPC  H14R 8253   3.703   2.554   4.310 -1.9882 -1.5517  0.9425
   86SLPC  H14S 8254   3.549   2.517   4.234 -1.0727  1.8523 -0.6553
   86SLPC  C215 8255   3.582   2.730   4.290  0.6895  0.2980 -0.5419
   86SLPC  H15R 8256   3.499   2.715   4.361  0.7055 -0.5202 -0.6850
   86SLPC  H15S 8257   3.536   2.783   4.203 -1.0288  0.8999  0.6945
   86SLPC  C216 8258   3.690   2.816   4.362 -0.8023 -0.2172  0.1255
   86SLPC  H16R 8259   3.777   2.831   4.295 -2.2757  3.3767 -1.2723
   86SLPC  H16S 8260   3.729   2.755   4.445  0.2662 -1.5617 -1.3085
   86SLPC  C217 8261   3.635   2.953   4.408 -0.5596  0.1388  0.2961
   86SLPC  H17R 8262   3.584   2.991   4.316  2.5335  1.4539 -1.0217
   86SLPC  H17S 8263   3.724   3.018   4.426 -1.2719  1.2487 -0.0513
   86SLPC  C218 8264   3.551   2.944   4.531 -0.6241 -0.5133 -0.3349
   86SLPC  H18R 8265   3.531   3.044   4.576  0.1418 -1.1591  1.5422
   86SLPC  H18S 8266   3.606   2.878   4.600  1.5113 -0.6154 -2.0151
   86SLPC  H18T 8267   3.458   2.897   4.493  0.1288 -0.1787 -2.8030
   86SLPC   C33 8268   3.321   2.044   3.576  0.0398  0.2363  0.1794
   86SLPC   H3X 8269   3.238   2.095   3.630 -0.3656 -1.2298  0.9948
   86SLPC   H3Y 8270   3.393   2.113   3.528 -0.7797 -0.4665 -2.1602
   86SLPC   C34 8271   3.399   1.942   3.660  0.3036  0.5402 -0.6076
   86SLPC   H4X 8272   3.449   1.871   3.590 -0.0344 -0.1695 -0.1473
   86SLPC   H4Y 8273   3.325   1.883   3.718 -0.3583  0.0018 -1.9699
   86SLPC   C35 8274   3.504   2.006   3.753  0.3356  0.4276 -0.8987
   86SLPC   H5X 8275   3.567   2.076   3.696  0.5199  2.0474  1.1728
   86SLPC   H5Y 8276   3.577   1.935   3.799  1.5541  2.6983  0.8717
   86SLPC   C36 8277   3.441   2.087   3.872  0.2463  0.1951 -0.5761
   86SLPC   H6X 8278   3.364   2.154   3.828  1.1360  1.4948 -0.2166
   86SLPC   H6Y 8279   3.513   2.152   3.927  1.2834 -3.1318  2.4369
   86SLPC   C37 8280   3.383   1.991   3.978 -0.2953  0.8247 -0.3881
   86SLPC   H7X 8281   3.461   1.917   4.005 -1.3645 -0.4117 -0.5955
   86SLPC   H7Y 8282   3.296   1.933   3.940 -0.6925 -0.2198  1.9125
   86SLPC   C38 8283   3.325   2.069   4.095  0.1103  0.5867 -0.1807
   86SLPC   H8X 8284   3.249   2.007   4.149 -1.5627  2.7675  0.1245
   86SLPC   H8Y 8285   3.278   2.165   4.065 -2.2712  0.2493  2.1144
   86SLPC   C39 8286   3.431   2.091   4.205 -0.0438  0.4838  0.2508
   86SLPC   H9X 8287   3.497   2.167   4.157 -2.9919  0.3121 -4.8009
   86SLPC   H9Y 8288   3.482   1.996   4.231 -0.7240 -0.3808 -1.3782
   86SLPC  C310 8289   3.364   2.141   4.336  0.3255  0.4935 -0.3061
   86SLPC  H10X 8290   3.278   2.079   4.370  0.0250  1.8381  1.5972
   86SLPC  H10Y 8291   3.318   2.240   4.315 -1.1620 -0.5982 -2.5353
   86SLPC  C311 8292   3.461   2.149   4.462  1.1861  0.6069  0.6190
   86SLPC  H11X 8293   3.464   2.052   4.515  0.4066  0.1130 -0.1977
   86SLPC  H11Y 8294   3.413   2.225   4.528  2.6234  2.3037 -0.2021
   86SLPC  C312 8295   3.603   2.202   4.439 -0.2432  0.3783  0.2502
   86SLPC  H12X 8296   3.594   2.302   4.391 -1.2524  0.2539  0.1468
   86SLPC  H12Y 8297   3.666   2.144   4.368 -1.5983  1.4319 -1.9155
   86SLPC  C313 8298   3.675   2.218   4.576 -0.2735 -0.2551 -0.0047
   86SLPC  H13X 8299   3.712   2.115   4.597  1.3097 -0.0647 -1.5931
   86SLPC  H13Y 8300   3.603   2.241   4.657 -0.3735  0.7816 -0.3659
   86SLPC  C314 8301   3.783   2.324   4.574  0.3629  0.2037 -0.0715
   86SLPC  H14X 8302   3.844   2.326   4.482  1.7874 -0.5375  0.8208
   86SLPC  H14Y 8303   3.842   2.307   4.667 -0.6074 -0.5403  0.4288
   86SLPC  C315 8304   3.717   2.459   4.592  0.3116 -0.5523 -0.3872
   86SLPC  H15X 8305   3.620   2.473   4.540  0.4285  0.6336 -0.3078
   86SLPC  H15Y 8306   3.782   2.535   4.545  0.4555 -0.2722  0.2508
   86SLPC  C316 8307   3.688   2.496   4.742  0.3996 -1.0044  0.1723
   86SLPC  H16X 8308   3.784   2.510   4.797  1.0313 -1.1680 -0.8585
   86SLPC  H16Y 8309   3.620   2.423   4.790  2.5250 -1.6574  2.3780
   86SLPC  C317 8310   3.627   2.638   4.747  0.2152 -0.7032 -0.9759
   86SLPC  H17X 8311   3.535   2.629   4.685 -0.4573  0.6577 -0.2156
   86SLPC  H17Y 8312   3.694   2.710   4.695  1.1650 -2.9759 -3.0989
   86SLPC  C318 8313   3.590   2.687   4.890  0.3956 -0.2728 -0.1543
   86SLPC  H18X 8314   3.679   2.686   4.956 -0.7908 -1.0011  1.5082
   86SLPC  H18Y 8315   3.513   2.622   4.938  1.0087  1.0231  2.8080
   86SLPC  H18Z 8316   3.562   2.794   4.890  1.2815 -0.0228  1.0661
   87SLPC     N 8317   2.578   4.324   2.436  0.1822  0.1623 -0.3235
   87SLPC   C13 8318   2.667   4.249   2.345  0.3787  0.3346 -0.2077
   87SLPC  H13A 8319   2.754   4.224   2.404  0.0529 -1.2587 -0.3550
   87SLPC  H13B 8320   2.630   4.149   2.326  1.0071 -0.1282  0.9025
   87SLPC  H13C 8321   2.698   4.299   2.255  0.2685  0.5761 -0.1134
   87SLPC   C14 8322   2.440   4.319   2.367 -0.4532  0.0742  0.0180
   87SLPC  H14A 8323   2.361   4.347   2.436 -2.7872 -0.5324 -2.2552
   87SLPC  H14B 8324   2.454   4.375   2.276  0.9988  0.9207  0.7182
   87SLPC  H14C 8325   2.415   4.223   2.323  2.8773 -1.0216  0.2708
   87SLPC   C15 8326   2.623   4.462   2.456  0.7583 -0.0601  0.5367
   87SLPC  H15A 8327   2.551   4.517   2.515  1.2079 -2.3251  3.4518
   87SLPC  H15B 8328   2.710   4.470   2.519  0.9092  2.9228  0.1024
   87SLPC  H15C 8329   2.646   4.512   2.363  0.0382 -0.2185  0.2629
   87SLPC   C12 8330   2.574   4.252   2.572  0.3601  0.4255 -0.0567
   87SLPC  H12A 8331   2.674   4.237   2.609 -0.4177 -0.5355  1.8012
   87SLPC  H12B 8332   2.537   4.152   2.554  1.0065  0.2257 -0.2965
   87SLPC   C11 8333   2.501   4.327   2.685 -0.0582 -0.0652  0.3740
   87SLPC  H11A 8334   2.535   4.433   2.689  1.8771 -0.5809 -1.0850
   87SLPC  H11B 8335   2.517   4.284   2.787 -1.7491 -0.3423  0.5462
   87SLPC     P 8336   2.253   4.430   2.687  0.0642 -0.8835 -0.2801
   87SLPC   O13 8337   2.285   4.538   2.588  0.4864  0.3324 -0.8207
   87SLPC   O14 8338   2.113   4.377   2.693  0.0977 -0.0260  0.2658
   87SLPC   O12 8339   2.361   4.321   2.672 -0.0208  0.1997 -0.0630
   87SLPC   O11 8340   2.288   4.492   2.836 -0.3849  0.5630  0.0789
   87SLPC    C1 8341   2.287   4.398   2.943  0.1650  0.6172 -0.0060
   87SLPC    HA 8342   2.208   4.321   2.928  0.7314 -0.2980  1.4887
   87SLPC    HB 8343   2.388   4.353   2.945  1.0311  2.5025  0.9222
   87SLPC    C2 8344   2.263   4.464   3.081 -0.4076 -0.2992  1.0188
   87SLPC    HS 8345   2.163   4.512   3.078  0.3833  1.3886 -0.0192
   87SLPC   O21 8346   2.375   4.549   3.096 -0.8254  0.2993 -0.3333
   87SLPC   C21 8347   2.351   4.657   3.163 -0.5041 -0.8496  0.0293
   87SLPC   O22 8348   2.240   4.692   3.199  0.3185 -0.5795 -0.0960
   87SLPC   C22 8349   2.481   4.735   3.201  0.7731  0.1703  0.2121
   87SLPC   H2R 8350   2.573   4.674   3.190 -1.4531 -3.1749 -1.9286
   87SLPC   H2S 8351   2.477   4.812   3.120  0.9678  1.1914  1.1484
   87SLPC    C3 8352   2.267   4.348   3.190  0.0765  0.3226 -0.4534
   87SLPC    HX 8353   2.361   4.292   3.173 -0.1035 -0.2178  0.2649
   87SLPC    HY 8354   2.183   4.278   3.169  0.1648 -0.7396  2.2965
   87SLPC   O31 8355   2.265   4.398   3.324  0.8183  0.3037 -0.2058
   87SLPC   C31 8356   2.145   4.394   3.392 -0.8080  0.3844 -0.7359
   87SLPC   O32 8357   2.041   4.373   3.334 -0.2101 -0.4024 -0.5168
   87SLPC   C32 8358   2.174   4.424   3.543  0.3863  0.4687 -0.5723
   87SLPC   H2X 8359   2.170   4.535   3.547 -1.2211  0.4754 -1.3607
   87SLPC   H2Y 8360   2.270   4.374   3.567  0.4712  0.8047 -0.2094
   87SLPC   C23 8361   2.467   4.813   3.331 -0.0356  0.2750 -0.3711
   87SLPC   H3R 8362   2.374   4.873   3.341 -2.2349 -3.0507  0.9774
   87SLPC   H3S 8363   2.554   4.882   3.342 -0.2087  0.3477  0.6126
   87SLPC   C24 8364   2.475   4.721   3.456 -0.1439 -0.3699  0.0711
   87SLPC   H4R 8365   2.571   4.665   3.452  0.2410  0.2749  0.2489
   87SLPC   H4S 8366   2.390   4.650   3.456 -1.0980  0.6939  1.8724
   87SLPC   C25 8367   2.468   4.796   3.590 -0.2028 -0.7600  0.4781
   87SLPC   H5R 8368   2.369   4.846   3.592 -0.1423 -0.3660 -2.3225
   87SLPC   H5S 8369   2.553   4.867   3.595  0.1823 -1.2336  0.7186
   87SLPC   C26 8370   2.469   4.708   3.722 -0.2709 -0.3187  0.9348
   87SLPC   H6R 8371   2.566   4.654   3.720  1.3285  2.3511  0.4139
   87SLPC   H6S 8372   2.383   4.638   3.724 -0.2232 -0.3914  3.3583
   87SLPC   C27 8373   2.457   4.796   3.838 -0.3076  0.2250 -1.1888
   87SLPC   H7R 8374   2.363   4.855   3.841 -0.1828  0.6149 -3.4766
   87SLPC   H7S 8375   2.544   4.865   3.837  1.0166 -1.2675  1.0196
   87SLPC   C28 8376   2.493   4.732   3.977  0.4238 -0.0396  0.4506
   87SLPC   H8R 8377   2.527   4.805   4.053 -2.9930  0.6916  1.4460
   87SLPC   H8S 8378   2.565   4.651   3.954 -0.6331 -0.4335 -1.7562
   87SLPC   C29 8379   2.365   4.676   4.036  0.4292  0.6487  0.9748
   87SLPC   H9R 8380   2.335   4.578   3.997  0.4751  1.5567 -1.5060
   87SLPC  C210 8381   2.286   4.740   4.127 -0.7837 -0.3086 -0.0529
   87SLPC  H10R 8382   2.193   4.696   4.164 -1.4197  1.3562  0.4400
   87SLPC  C211 8383   2.304   4.879   4.177 -0.1203 -0.2170 -0.2155
   87SLPC  H11R 8384   2.259   4.927   4.087 -0.4073  0.0739  0.0852
   87SLPC  H11S 8385   2.412   4.908   4.179  0.1907 -1.3696  0.6203
   87SLPC  C212 8386   2.252   4.918   4.313  0.6121 -0.7562  0.2402
   87SLPC  H12R 8387   2.185   5.004   4.302  0.5748 -0.9118 -0.8360
   87SLPC  C213 8388   2.278   4.868   4.431 -0.0478 -0.2232 -0.5926
   87SLPC  H13R 8389   2.232   4.901   4.525  1.3337 -1.8224  0.7163
   87SLPC  C214 8390   2.367   4.759   4.468  0.1282  0.9236  0.3934
   87SLPC  H14R 8391   2.453   4.793   4.530  2.5440 -1.3517 -1.4777
   87SLPC  H14S 8392   2.424   4.725   4.379 -0.0528  0.4309  0.4581
   87SLPC  C215 8393   2.303   4.642   4.529  0.3781  0.4923 -0.2759
   87SLPC  H15R 8394   2.220   4.590   4.477  0.3355 -2.5837  2.5258
   87SLPC  H15S 8395   2.260   4.676   4.626 -1.6284  1.4882 -1.4590
   87SLPC  C216 8396   2.411   4.526   4.564  0.5989 -0.8516  0.3021
   87SLPC  H16R 8397   2.451   4.500   4.464 -1.7732  0.5365 -1.1026
   87SLPC  H16S 8398   2.354   4.449   4.619 -1.1578  1.3013  1.6759
   87SLPC  C217 8399   2.535   4.562   4.640  0.6163 -0.2482 -0.5308
   87SLPC  H17R 8400   2.502   4.593   4.741 -1.5459  1.2215 -1.6234
   87SLPC  H17S 8401   2.585   4.655   4.606  1.1230  0.8114  2.7414
   87SLPC  C218 8402   2.647   4.455   4.650 -0.3690 -0.4710 -0.4160
   87SLPC  H18R 8403   2.740   4.494   4.697  0.0806 -0.5100 -1.2487
   87SLPC  H18S 8404   2.673   4.446   4.542  0.1254  1.2092 -0.4700
   87SLPC  H18T 8405   2.609   4.359   4.691 -2.1437 -0.0456 -0.9757
   87SLPC   C33 8406   2.072   4.371   3.647 -0.1176 -0.1892 -0.7883
   87SLPC   H3X 8407   2.084   4.263   3.671  1.7073  0.3545  1.0075
   87SLPC   H3Y 8408   1.966   4.382   3.614 -0.2713  2.9781  0.4499
   87SLPC   C34 8409   2.085   4.445   3.782  0.0299 -0.7558  0.0802
   87SLPC   H4X 8410   2.069   4.555   3.776  1.3478 -0.4960  1.0312
   87SLPC   H4Y 8411   2.191   4.440   3.814  0.5968  0.0300 -1.5553
   87SLPC   C35 8412   1.997   4.384   3.888  0.0441 -0.0941 -0.3686
   87SLPC   H5X 8413   2.007   4.273   3.888 -3.1184 -0.4872 -0.1811
   87SLPC   H5Y 8414   1.894   4.414   3.859 -0.0664 -1.5148 -1.5764
   87SLPC   C36 8415   2.023   4.430   4.033  0.0985  0.5960  1.0199
   87SLPC   H6X 8416   2.007   4.539   4.046 -0.0054  0.4267  2.4834
   87SLPC   H6Y 8417   2.127   4.404   4.064 -0.6610 -1.4112  2.1098
   87SLPC   C37 8418   1.933   4.360   4.128 -0.4946  0.3871  0.5256
   87SLPC   H7X 8419   1.943   4.251   4.109 -0.7086  0.8386 -2.7922
   87SLPC   H7Y 8420   1.829   4.384   4.099 -0.3175  0.6449  0.0983
   87SLPC   C38 8421   1.970   4.390   4.272 -0.6471  0.4369 -0.1607
   87SLPC   H8X 8422   1.946   4.494   4.303  1.1190  1.6495 -2.5791
   87SLPC   H8Y 8423   2.073   4.375   4.311 -2.1690 -0.0586  4.2101
   87SLPC   C39 8424   1.873   4.314   4.365  0.7891  0.3957 -0.6379
   87SLPC   H9X 8425   1.898   4.207   4.353  0.1299  0.3754 -2.0779
   87SLPC   H9Y 8426   1.766   4.335   4.345  0.4103  0.8876  1.6403
   87SLPC  C310 8427   1.890   4.358   4.511  0.1469  0.0712  0.4666
   87SLPC  H10X 8428   1.822   4.297   4.575  0.5592 -0.4022  0.4579
   87SLPC  H10Y 8429   1.871   4.467   4.522  2.4343  0.4764  0.7341
   87SLPC  C311 8430   2.020   4.311   4.564 -0.3093  0.8103 -0.8702
   87SLPC  H11X 8431   2.111   4.363   4.526  0.8051 -0.9275 -0.6726
   87SLPC  H11Y 8432   2.020   4.201   4.548 -2.6184  0.9280 -2.1290
   87SLPC  C312 8433   2.023   4.314   4.718  0.0421  0.3009 -0.3366
   87SLPC  H12X 8434   1.943   4.256   4.770  0.8752 -1.0786 -0.5287
   87SLPC  H12Y 8435   2.015   4.420   4.750  0.8146 -0.2104  1.7788
   87SLPC  C313 8436   2.153   4.253   4.769  0.1667  0.1781 -0.1917
   87SLPC  H13X 8437   2.238   4.310   4.728 -1.3382  3.3993  0.8709
   87SLPC  H13Y 8438   2.167   4.154   4.721 -0.8956 -0.1201  0.0696
   87SLPC  C314 8439   2.160   4.258   4.921  0.7096  0.1644  0.5244
   87SLPC  H14X 8440   2.058   4.230   4.955 -0.2352  1.2180 -1.3311
   87SLPC  H14Y 8441   2.165   4.367   4.945 -1.6268  0.9321 -1.9130
   87SLPC  C315 8442   2.265   4.164   4.983 -0.5914 -0.2344 -0.0851
   87SLPC  H15X 8443   2.246   4.057   4.960  0.2237 -0.1938 -1.0023
   87SLPC  H15Y 8444   2.261   4.179   5.093  2.3292 -0.1934  0.0992
   87SLPC  C316 8445   2.407   4.190   4.939 -0.2528  0.1925 -0.6885
   87SLPC  H16X 8446   2.449   4.293   4.944  3.2467 -1.1335  1.0119
   87SLPC  H16Y 8447   2.412   4.167   4.830  0.9688  3.0042 -1.3254
   87SLPC  C317 8448   2.506   4.099   5.016  0.4212  0.1032  0.2128
   87SLPC  H17X 8449   2.448   4.008   5.040  0.0357  0.2661 -0.0856
   87SLPC  H17Y 8450   2.549   4.157   5.100  0.4522  2.7238 -1.4900
   87SLPC  C318 8451   2.628   4.048   4.932 -0.2126  0.0946 -0.2700
   87SLPC  H18X 8452   2.713   4.010   4.992 -1.2259 -0.5356  0.8149
   87SLPC  H18Y 8453   2.677   4.132   4.879 -1.8674  1.8707  0.8774
   87SLPC  H18Z 8454   2.599   3.960   4.871 -2.0669 -1.2055  2.2866
   88SLPC     N 8455   3.682   2.190   2.565 -0.0699  0.1682 -0.2303
   88SLPC   C13 8456   3.624   2.311   2.498  0.5715  0.5640  0.1817
   88SLPC  H13A 8457   3.543   2.362   2.548 -0.5240 -0.0415 -0.9208
   88SLPC  H13B 8458   3.691   2.394   2.484  0.1153  1.1166  1.1096
   88SLPC  H13C 8459   3.576   2.281   2.406 -0.7936  1.3236  0.6162
   88SLPC   C14 8460   3.778   2.136   2.467  0.3419 -0.1304 -0.6168
   88SLPC  H14A 8461   3.853   2.211   2.450 -1.7479  1.6373 -2.5797
   88SLPC  H14B 8462   3.838   2.057   2.510  1.9475  0.7979 -1.0904
   88SLPC  H14C 8463   3.736   2.119   2.369 -0.4712  2.5493 -0.7972
   88SLPC   C15 8464   3.571   2.092   2.585  0.4897  0.0040  0.2918
   88SLPC  H15A 8465   3.493   2.134   2.648 -0.0932 -1.3479  0.5086
   88SLPC  H15B 8466   3.519   2.070   2.493 -1.1082  1.4576  0.7829
   88SLPC  H15C 8467   3.612   1.998   2.618  0.8531  0.3741  0.9061
   88SLPC   C12 8468   3.749   2.228   2.695 -0.3897  0.3781  0.1820
   88SLPC  H12A 8469   3.832   2.292   2.669 -0.2069  0.7895  1.7129
   88SLPC  H12B 8470   3.797   2.145   2.745  1.6347  2.4984  1.9389
   88SLPC   C11 8471   3.665   2.304   2.799  0.3079  0.6101  0.6663
   88SLPC  H11A 8472   3.722   2.311   2.894  0.1659 -1.1907  0.9098
   88SLPC  H11B 8473   3.568   2.253   2.817  0.8452 -0.4907  0.5511
   88SLPC     P 8474   3.739   2.552   2.742  0.4048  0.1978  0.3806
   88SLPC   O13 8475   3.841   2.518   2.639  0.3073  0.5427  0.1476
   88SLPC   O14 8476   3.677   2.685   2.734 -0.3321 -0.2332  0.6144
   88SLPC   O12 8477   3.632   2.441   2.748  0.0242  0.1407 -0.7075
   88SLPC   O11 8478   3.811   2.529   2.883 -0.3476  0.3860  0.2582
   88SLPC    C1 8479   3.761   2.612   2.994  0.3242  0.1458  0.4478
   88SLPC    HA 8480   3.660   2.657   2.986  1.0109  2.1682  2.1546
   88SLPC    HB 8481   3.752   2.559   3.091 -1.6585  0.5115  0.5042
   88SLPC    C2 8482   3.866   2.726   3.021  0.6013 -0.8634  0.1374
   88SLPC    HS 8483   3.878   2.771   2.921  1.0625 -2.1286 -0.4032
   88SLPC   O21 8484   3.986   2.661   3.059 -0.9283  0.2038 -0.3509
   88SLPC   C21 8485   4.090   2.741   3.048  0.2642  0.6639  0.5028
   88SLPC   O22 8486   4.094   2.854   3.014 -0.6032  0.1762  0.2180
   88SLPC   C22 8487   4.213   2.654   3.060  0.2686 -0.2844  0.2900
   88SLPC   H2R 8488   4.196   2.553   3.103  1.2636 -0.5481  0.0725
   88SLPC   H2S 8489   4.260   2.625   2.964  1.3558 -1.1701  1.0605
   88SLPC    C3 8490   3.810   2.820   3.141  0.9735  0.0732  0.4294
   88SLPC    HX 8491   3.720   2.870   3.099  1.5584  0.3872 -0.4713
   88SLPC    HY 8492   3.881   2.905   3.151  0.9044  0.5590 -2.5417
   88SLPC   O31 8493   3.780   2.742   3.261  0.4026 -0.8059  0.2595
   88SLPC   C31 8494   3.887   2.737   3.338 -0.1805  0.3735 -0.2049
   88SLPC   O32 8495   3.989   2.797   3.319 -0.8619 -0.0937  0.7304
   88SLPC   C32 8496   3.861   2.639   3.449  1.1256 -0.3484 -0.4109
   88SLPC   H2X 8497   3.884   2.541   3.404 -0.5793 -1.1209  0.3254
   88SLPC   H2Y 8498   3.754   2.643   3.478  0.6738 -2.9042 -1.5110
   88SLPC   C23 8499   4.312   2.724   3.163 -0.0531 -0.2539 -0.2688
   88SLPC   H3R 8500   4.255   2.748   3.255  0.1232 -0.7240 -0.0354
   88SLPC   H3S 8501   4.352   2.816   3.114  1.5682 -1.1533 -0.7234
   88SLPC   C24 8502   4.428   2.623   3.198  0.1327 -0.8690  0.3508
   88SLPC   H4R 8503   4.470   2.574   3.108 -3.7383 -0.0105 -2.1933
   88SLPC   H4S 8504   4.372   2.545   3.253  2.3932 -2.3733  0.6503
   88SLPC   C25 8505   4.533   2.692   3.287 -0.1452  0.5023  0.4546
   88SLPC   H5R 8506   4.578   2.772   3.224  0.3025  1.9146  2.4436
   88SLPC   H5S 8507   4.614   2.622   3.315 -0.4115 -0.0527 -0.1456
   88SLPC   C26 8508   4.480   2.761   3.414 -0.4200  0.1250 -0.2341
   88SLPC   H6R 8509   4.418   2.690   3.473 -1.9254 -0.0492 -1.9432
   88SLPC   H6S 8510   4.410   2.837   3.373 -1.2150  0.3732  1.4931
   88SLPC   C27 8511   4.591   2.837   3.503  0.4333  0.5287  0.3443
   88SLPC   H7R 8512   4.607   2.935   3.455 -0.4863  0.8006  0.5639
   88SLPC   H7S 8513   4.683   2.776   3.501  0.0109 -0.1111 -1.4061
   88SLPC   C28 8514   4.543   2.881   3.645 -0.4078 -0.1832 -0.4339
   88SLPC   H8R 8515   4.503   2.788   3.692 -2.1717  0.8486  0.1816
   88SLPC   H8S 8516   4.470   2.964   3.635  1.1589  1.0597 -2.0914
   88SLPC   C29 8517   4.657   2.923   3.734  0.2629  0.3986 -0.6770
   88SLPC   H9R 8518   4.753   2.912   3.680  0.0929  0.5295 -1.0072
   88SLPC  C210 8519   4.646   3.000   3.847  0.0104 -0.8887 -0.5848
   88SLPC  H10R 8520   4.739   3.030   3.896  0.9828 -1.7413 -1.8354
   88SLPC  C211 8521   4.520   3.038   3.913  0.3245  0.7126 -0.3524
   88SLPC  H11R 8522   4.441   2.974   3.870  2.3290 -1.6447 -0.7563
   88SLPC  H11S 8523   4.494   3.141   3.881  0.2495  0.9283  0.3714
   88SLPC  C212 8524   4.523   3.019   4.062 -0.4054  0.0133  0.4076
   88SLPC  H12R 8525   4.564   2.926   4.104  0.5804 -0.1307 -0.8000
   88SLPC  C213 8526   4.489   3.107   4.155  0.4339  0.0296  0.1076
   88SLPC  H13R 8527   4.494   3.070   4.258  1.5406 -0.3127 -0.0531
   88SLPC  C214 8528   4.428   3.242   4.139 -1.0729  0.2688 -0.4015
   88SLPC  H14R 8529   4.355   3.234   4.056  0.8573  0.8819 -2.2465
   88SLPC  H14S 8530   4.513   3.311   4.123 -1.1563  0.1002 -1.6107
   88SLPC  C215 8531   4.356   3.276   4.267 -0.6770  0.4102  0.1548
   88SLPC  H15R 8532   4.319   3.380   4.256  1.9665  1.3849 -0.2534
   88SLPC  H15S 8533   4.421   3.274   4.358 -1.2754  1.5759  0.6143
   88SLPC  C216 8534   4.242   3.183   4.297 -0.0606 -0.5698 -0.2215
   88SLPC  H16R 8535   4.270   3.076   4.308  0.4581 -0.2554  1.9148
   88SLPC  H16S 8536   4.181   3.178   4.204  1.0866  0.5251 -1.0678
   88SLPC  C217 8537   4.169   3.221   4.424 -0.5267  0.8247  0.0379
   88SLPC  H17R 8538   4.157   3.332   4.423 -0.6418  0.8476 -2.2724
   88SLPC  H17S 8539   4.224   3.184   4.512 -0.1127 -3.2983 -1.7625
   88SLPC  C218 8540   4.025   3.160   4.428 -0.5641 -1.0328 -0.8689
   88SLPC  H18R 8541   4.016   3.060   4.381 -1.0284 -0.4975 -1.9535
   88SLPC  H18S 8542   3.959   3.225   4.367  1.3124  0.3244 -1.5431
   88SLPC  H18T 8543   3.980   3.170   4.529 -0.1961  2.7607 -0.9357
   88SLPC   C33 8544   3.952   2.647   3.579  0.1158 -0.7609 -0.7218
   88SLPC   H3X 8545   3.890   2.600   3.659 -2.0200  1.2016 -1.1316
   88SLPC   H3Y 8546   3.959   2.755   3.603 -0.9261 -1.2843  2.5159
   88SLPC   C34 8547   4.089   2.581   3.560  0.1563  0.2272  0.1121
   88SLPC   H4X 8548   4.130   2.587   3.457  1.7921  0.4003  0.7463
   88SLPC   H4Y 8549   4.073   2.473   3.582  2.6149  0.0822  1.4939
   88SLPC   C35 8550   4.188   2.638   3.663  0.3938  0.9765  0.1436
   88SLPC   H5X 8551   4.204   2.746   3.643  1.0694  0.8981  0.2404
   88SLPC   H5Y 8552   4.287   2.588   3.650 -1.3036 -2.0584 -2.9540
   88SLPC   C36 8553   4.144   2.629   3.806 -0.0725 -0.7756 -0.0466
   88SLPC   H6X 8554   4.123   2.526   3.842  0.5002  0.1411  3.2153
   88SLPC   H6Y 8555   4.052   2.689   3.820  0.8421  1.9029 -3.7243
   88SLPC   C37 8556   4.240   2.693   3.897 -0.2938 -0.2850  0.4602
   88SLPC   H7X 8557   4.255   2.802   3.882  0.6955 -0.3785  0.7411
   88SLPC   H7Y 8558   4.344   2.658   3.880  0.1678  1.2529 -0.0038
   88SLPC   C38 8559   4.211   2.653   4.045  0.7270  0.6528 -0.7419
   88SLPC   H8X 8560   4.234   2.547   4.065  1.6935  1.3930  2.7730
   88SLPC   H8Y 8561   4.103   2.673   4.059  1.1753  2.3346  0.7881
   88SLPC   C39 8562   4.286   2.736   4.152 -0.0621 -0.1112  0.3061
   88SLPC   H9X 8563   4.272   2.845   4.132  0.7235  0.0626  0.6643
   88SLPC   H9Y 8564   4.395   2.716   4.143 -0.4162 -1.6292 -0.8785
   88SLPC  C310 8565   4.246   2.709   4.292 -0.0876  0.1300 -0.4612
   88SLPC  H10X 8566   4.297   2.776   4.366  0.9401 -0.5131 -0.5686
   88SLPC  H10Y 8567   4.273   2.608   4.328 -1.1947 -0.1246 -0.3157
   88SLPC  C311 8568   4.091   2.720   4.318 -0.5535  0.2781  0.3771
   88SLPC  H11X 8569   4.031   2.654   4.251 -0.5596 -1.4631  2.0068
   88SLPC  H11Y 8570   4.052   2.821   4.297 -2.9307 -0.5116  0.7607
   88SLPC  C312 8571   4.053   2.697   4.466  0.7030  0.0321 -0.1486
   88SLPC  H12X 8572   4.120   2.612   4.489 -1.7776 -1.5631  1.6381
   88SLPC  H12Y 8573   3.949   2.659   4.475 -0.1952  2.3689  0.1658
   88SLPC  C313 8574   4.062   2.808   4.569 -0.4616  0.0808 -0.9565
   88SLPC  H13X 8575   3.988   2.887   4.542 -1.1819  0.2931  1.4705
   88SLPC  H13Y 8576   4.167   2.845   4.564 -0.1085 -0.1417  2.4915
   88SLPC  C314 8577   4.029   2.760   4.711  0.5630  0.6505 -0.2935
   88SLPC  H14X 8578   4.110   2.688   4.738  0.2268  1.1647  2.3469
   88SLPC  H14Y 8579   3.932   2.706   4.706  1.9954 -2.0966 -0.7547
   88SLPC  C315 8580   4.023   2.877   4.811  0.8379  0.3003  0.5214
   88SLPC  H15X 8581   4.110   2.941   4.783 -0.4634  1.8229 -0.1905
   88SLPC  H15Y 8582   4.044   2.831   4.909 -1.2994 -0.5688  0.6251
   88SLPC  C316 8583   3.891   2.962   4.816 -0.1837  0.4646  0.0701
   88SLPC  H16X 8584   3.823   2.923   4.737 -1.5239  4.2610 -0.9118
   88SLPC  H16Y 8585   3.909   3.068   4.786  0.2788 -0.1088 -1.8359
   88SLPC  C317 8586   3.812   2.968   4.951  0.0027  0.1671 -0.2423
   88SLPC  H17X 8587   3.876   3.007   5.033  1.4561 -2.0694 -0.2521
   88SLPC  H17Y 8588   3.783   2.865   4.982 -0.3578  0.1627 -0.5816
   88SLPC  C318 8589   3.685   3.063   4.943 -0.1633 -0.2597  0.1046
   88SLPC  H18X 8590   3.650   3.089   5.045 -0.4004 -0.4962  0.0855
   88SLPC  H18Y 8591   3.602   3.011   4.890  0.2860 -3.7251  2.4430
   88SLPC  H18Z 8592   3.699   3.160   4.891  0.6950 -0.8022 -0.7125
   89SAPE     N 8593   2.560   5.730   7.160  0.3346  0.0692 -0.0695
   89SAPE   HN1 8594   2.591   5.641   7.116  1.0096 -1.0675  2.5194
   89SAPE   HN2 8595   2.458   5.723   7.178 -0.2013  3.6477 -0.9108
   89SAPE   HN3 8596   2.578   5.818   7.108 -0.2485  0.0988 -0.2217
   89SAPE   C12 8597   2.623   5.744   7.295  0.3509  0.2236  0.0799
   89SAPE  H12A 8598   2.627   5.644   7.344  1.8107  1.3048  2.3061
   89SAPE  H12B 8599   2.556   5.806   7.358 -0.9505 -0.9036 -0.1414
   89SAPE   C11 8600   2.769   5.794   7.282  0.0820  0.3269 -0.1343
   89SAPE  H11A 8601   2.836   5.734   7.217  1.8959  2.4028 -0.3030
   89SAPE  H11B 8602   2.819   5.778   7.380  1.3882 -2.1968 -1.1034
   89SAPE     P 8603   2.817   6.047   7.313 -0.2134  0.3122 -0.6504
   89SAPE   O13 8604   2.790   6.172   7.245  0.2343  0.4286  0.1045
   89SAPE   O14 8605   2.767   6.039   7.453  0.3373 -0.0708  0.0319
   89SAPE   O12 8606   2.775   5.925   7.223  0.0649  0.5735  0.4519
   89SAPE   O11 8607   2.977   6.025   7.319  0.0425  0.3889 -0.2113
   89SAPE    C1 8608   3.058   6.091   7.218  0.0453  0.7305 -0.1809
   89SAPE    HA 8609   3.057   6.199   7.245 -0.5541  0.5004  0.7873
   89SAPE    HB 8610   3.163   6.059   7.236  0.3797  1.8047 -0.1832
   89SAPE    C2 8611   3.026   6.067   7.061  0.2477  0.4955  0.1264
   89SAPE    HS 8612   2.923   6.100   7.037  0.1079  0.6931  0.9827
   89SAPE   O21 8613   3.044   5.928   7.029 -0.2841 -0.4309 -0.3342
   89SAPE   C21 8614   2.971   5.882   6.930  0.4437  0.0669  0.0708
   89SAPE   O22 8615   2.880   5.939   6.868 -0.1033 -0.1032 -0.7808
   89SAPE   C22 8616   3.005   5.730   6.893 -0.2703  0.0993 -0.1482
   89SAPE   H2R 8617   2.975   5.662   6.975  1.7610 -1.2280 -0.4155
   89SAPE   H2S 8618   2.935   5.713   6.809  1.5859 -0.1947 -1.7104
   89SAPE    C3 8619   3.131   6.139   6.966  1.0558 -0.5520 -1.0126
   89SAPE    HX 8620   3.233   6.122   7.006  0.9409  0.1251 -0.4169
   89SAPE    HY 8621   3.118   6.249   6.967  2.2698 -0.3985 -0.0422
   89SAPE   O31 8622   3.116   6.082   6.834  0.4128  0.2588 -0.0390
   89SAPE   C31 8623   3.041   6.154   6.742  0.2070 -0.1438  0.3284
   89SAPE   O32 8624   3.007   6.269   6.761 -0.2108  0.4038 -0.5793
   89SAPE   C32 8625   3.045   6.085   6.606 -0.3293  0.0043  0.3860
   89SAPE   H2X 8626   3.086   5.983   6.620  0.5970  0.2134 -0.6244
   89SAPE   H2Y 8627   3.112   6.137   6.533 -2.1102  3.3057  0.8881
   89SAPE   C23 8628   3.149   5.707   6.857 -0.2616  0.3131  0.3398
   89SAPE   H3R 8629   3.214   5.730   6.944  1.7022 -3.0067 -0.0811
   89SAPE   H3S 8630   3.177   5.774   6.772  0.7232 -0.9916 -0.4046
   89SAPE   C24 8631   3.183   5.564   6.808 -0.1387  0.1420  0.3880
   89SAPE   H4R 8632   3.162   5.491   6.889  1.8394 -0.5741  0.3191
   89SAPE   H4S 8633   3.292   5.547   6.790 -0.3844  0.5205 -1.6464
   89SAPE   C25 8634   3.101   5.528   6.683  0.1461  0.4691 -0.5294
   89SAPE   H5R 8635   3.021   5.456   6.705  0.4781  0.1244 -0.4405
   89SAPE   C26 8636   3.119   5.560   6.553 -0.2289 -0.0616 -0.1134
   89SAPE   H6R 8637   3.054   5.509   6.480 -0.6995 -2.0215  1.5978
   89SAPE   C27 8638   3.235   5.643   6.501  0.8471 -0.0327 -0.0960
   89SAPE   H7R 8639   3.303   5.577   6.444 -0.1889 -4.5923  3.3486
   89SAPE   H7S 8640   3.288   5.690   6.587 -2.3745  2.2863  0.8205
   89SAPE   C28 8641   3.181   5.760   6.421  0.2419 -0.8118  0.9989
   89SAPE   H8R 8642   3.129   5.836   6.481  0.9177  0.4412  0.0288
   89SAPE   C29 8643   3.170   5.768   6.285 -0.0488 -0.6561  0.2777
   89SAPE   H9R 8644   3.123   5.857   6.241  1.4972  0.5194  0.8787
   89SAPE  C210 8645   3.225   5.660   6.190  0.7667 -0.0922 -0.1199
   89SAPE  H10R 8646   3.141   5.642   6.119  0.3694  0.1390  0.2922
   89SAPE  H10S 8647   3.246   5.562   6.238 -1.7010 -0.6175  0.0226
   89SAPE  C211 8648   3.344   5.712   6.112  1.0305 -0.2087  0.8211
   89SAPE  H11R 8649   3.415   5.754   6.184 -1.5609  0.5223  3.1284
   89SAPE  C212 8650   3.356   5.711   5.979 -0.1528 -0.1114 -0.3953
   89SAPE  H12R 8651   3.450   5.753   5.942  1.2372 -0.7926  2.1183
   89SAPE  C213 8652   3.259   5.666   5.874 -0.9633 -0.0442 -0.2291
   89SAPE  H13R 8653   3.174   5.614   5.923  1.3302 -2.7327  1.1755
   89SAPE  H13S 8654   3.302   5.586   5.809 -1.4525  2.8504 -4.5912
   89SAPE  C214 8655   3.212   5.768   5.780  1.1645 -0.3799 -0.6561
   89SAPE  H14R 8656   3.176   5.862   5.824 -1.9074 -2.0749  0.7708
   89SAPE  C215 8657   3.214   5.762   5.647  0.4046  0.5522 -0.0346
   89SAPE  H15R 8658   3.187   5.852   5.589 -0.9121 -0.6901 -1.4236
   89SAPE  C216 8659   3.261   5.649   5.564 -0.3190  0.0290  0.3036
   89SAPE  H16R 8660   3.284   5.553   5.615 -0.0084 -0.5798 -0.9223
   89SAPE  H16S 8661   3.356   5.687   5.519  0.1100  0.3017  1.4059
   89SAPE  C217 8662   3.170   5.618   5.443  0.2191  0.4695  0.0941
   89SAPE  H17R 8663   3.168   5.707   5.376 -0.3151  0.0842 -0.4125
   89SAPE  H17S 8664   3.069   5.601   5.485 -1.4796  4.0310 -2.0866
   89SAPE  C218 8665   3.226   5.501   5.354  0.3075  0.1034  0.7855
   89SAPE  H18R 8666   3.328   5.522   5.316 -0.2430 -1.0733 -1.5714
   89SAPE  H18S 8667   3.155   5.509   5.268 -1.0419  1.0158  1.9317
   89SAPE  C219 8668   3.210   5.366   5.419  0.3874 -0.2828 -0.1241
   89SAPE  H19R 8669   3.104   5.347   5.447 -0.1935 -0.6276 -2.3939
   89SAPE  H19S 8670   3.276   5.358   5.509 -1.0072 -1.4236  0.8328
   89SAPE  C220 8671   3.257   5.258   5.317  0.0470  0.0625 -0.0408
   89SAPE  H20R 8672   3.201   5.260   5.221 -1.8079  0.9976  1.0140
   89SAPE  H20S 8673   3.248   5.155   5.358  1.9968  0.0161  0.3730
   89SAPE  H20T 8674   3.364   5.283   5.301  0.4387 -1.0208  0.7375
   89SAPE   C33 8675   2.904   6.089   6.536 -0.6801  0.9929  0.1863
   89SAPE   H3X 8676   2.862   6.192   6.538  1.4414  1.9943 -2.2205
   89SAPE   H3Y 8677   2.835   6.022   6.591 -0.4962  0.8863  0.2891
   89SAPE   C34 8678   2.906   6.060   6.384 -0.3358 -0.1130  0.1481
   89SAPE   H4X 8679   2.808   6.069   6.333  0.1175 -0.0431 -0.7129
   89SAPE   H4Y 8680   2.945   5.958   6.363 -0.3542 -0.1302  0.1951
   89SAPE   C35 8681   2.991   6.160   6.307  0.5503  0.4492 -0.3364
   89SAPE   H5X 8682   3.093   6.149   6.349 -0.6233 -1.8147  2.2297
   89SAPE   H5Y 8683   2.960   6.267   6.310  2.1606  1.0109 -1.9068
   89SAPE   C36 8684   2.996   6.113   6.155 -0.0156  0.4447  0.3414
   89SAPE   H6X 8685   2.897   6.141   6.114 -0.0592  0.7970  0.6837
   89SAPE   H6Y 8686   3.009   6.003   6.141 -0.9392  0.5664 -1.8372
   89SAPE   C37 8687   3.109   6.178   6.075  0.7574 -0.2157  0.0100
   89SAPE   H7X 8688   3.206   6.157   6.124  0.8898  0.5175  0.0718
   89SAPE   H7Y 8689   3.097   6.289   6.076  0.7230 -0.2134 -0.5980
   89SAPE   C38 8690   3.114   6.133   5.927  0.3755  0.1500  1.3741
   89SAPE   H8X 8691   3.068   6.032   5.930  2.1759 -0.7267  0.4579
   89SAPE   H8Y 8692   3.223   6.119   5.918  0.5614  0.3892  3.0072
   89SAPE   C39 8693   3.060   6.236   5.826 -1.0117 -0.4116 -0.4414
   89SAPE   H9X 8694   3.119   6.329   5.841  0.6675 -1.6108  0.7809
   89SAPE   H9Y 8695   2.956   6.266   5.850 -0.6013  0.1511  0.7263
   89SAPE  C310 8696   3.068   6.193   5.677  0.3465 -0.0620 -0.3547
   89SAPE  H10X 8697   3.006   6.102   5.664  2.0032 -1.6026  1.8057
   89SAPE  H10Y 8698   3.172   6.167   5.646 -0.2348 -2.8536 -0.2286
   89SAPE  C311 8699   3.037   6.304   5.572  0.1112  0.4692  0.3232
   89SAPE  H11X 8700   3.065   6.400   5.622  0.4067  0.0205  1.0301
   89SAPE  H11Y 8701   2.927   6.307   5.555  0.2441 -0.2793 -0.7309
   89SAPE  C312 8702   3.109   6.291   5.441  0.6497  1.1513 -0.4750
   89SAPE  H12X 8703   3.218   6.275   5.455  0.4670  0.3641  0.1681
   89SAPE  H12Y 8704   3.095   6.388   5.389 -0.7977  0.9082 -0.5867
   89SAPE  C313 8705   3.065   6.175   5.362  0.3461  0.1498  0.7068
   89SAPE  H13X 8706   2.959   6.151   5.386 -0.3836  1.7051 -0.7338
   89SAPE  H13Y 8707   3.132   6.098   5.406  1.7728  0.9827  0.0578
   89SAPE  C314 8708   3.096   6.200   5.214 -0.2680 -0.6276  0.2550
   89SAPE  H14X 8709   3.205   6.183   5.199 -0.5756 -1.4291 -1.3138
   89SAPE  H14Y 8710   3.074   6.306   5.188  3.3500  0.3493  0.6674
   89SAPE  C315 8711   3.031   6.107   5.106  0.3449  0.0165  0.1375
   89SAPE  H15X 8712   2.952   6.165   5.052  0.4106 -0.0872 -0.0698
   89SAPE  H15Y 8713   2.982   6.035   5.176  1.3168 -1.2933 -0.4889
   89SAPE  C316 8714   3.130   6.040   5.011 -0.5102 -0.1364  0.0986
   89SAPE  H16X 8715   3.231   6.020   5.052  0.0988  0.2616 -1.1600
   89SAPE  H16Y 8716   3.134   6.108   4.923 -0.7781 -1.0292 -0.6212
   89SAPE  C317 8717   3.079   5.912   4.935  0.3761 -0.4260  0.1784
   89SAPE  H17X 8718   3.104   5.823   4.996  1.3274 -1.1509 -1.1868
   89SAPE  H17Y 8719   3.141   5.918   4.843  1.1577  1.1425  0.7611
   89SAPE  C318 8720   2.931   5.918   4.895  0.8549 -0.3701 -0.8592
   89SAPE  H18X 8721   2.910   6.006   4.830  0.1256  2.7985  3.2098
   89SAPE  H18Y 8722   2.861   5.927   4.981 -0.4211 -2.4987 -1.5960
   89SAPE  H18Z 8723   2.909   5.819   4.851  1.3300 -0.6177 -0.5471
   90SAPE     N 8724   4.519   2.260   7.000 -0.3617  0.6518 -0.1276
   90SAPE   HN1 8725   4.447   2.326   7.036 -1.5039 -1.5724  1.9030
   90SAPE   HN2 8726   4.534   2.183   7.068  1.9966  0.6049 -0.5990
   90SAPE   HN3 8727   4.609   2.309   6.978  0.6332 -1.1392 -0.2636
   90SAPE   C12 8728   4.457   2.204   6.870 -0.4013  0.1660 -0.3900
   90SAPE  H12A 8729   4.536   2.204   6.792 -0.0086  1.6034 -0.0289
   90SAPE  H12B 8730   4.379   2.280   6.846 -0.8021  0.8586  2.6382
   90SAPE   C11 8731   4.401   2.060   6.902 -0.7625 -0.1925  0.4768
   90SAPE  H11A 8732   4.487   1.994   6.928  0.2301 -0.3216 -2.6786
   90SAPE  H11B 8733   4.350   2.016   6.813 -0.3775 -3.6309  1.7851
   90SAPE     P 8734   4.159   2.116   6.979  0.4974  0.2942  0.2064
   90SAPE   O13 8735   4.079   2.078   7.100 -0.0873 -0.7590  0.4164
   90SAPE   O14 8736   4.156   2.256   6.941 -0.4468  0.2021  0.1948
   90SAPE   O12 8737   4.307   2.061   7.004  0.0157  0.2229  0.2812
   90SAPE   O11 8738   4.118   2.031   6.860  0.4770 -0.2216  0.5446
   90SAPE    C1 8739   4.087   1.890   6.877 -0.3999  0.4444 -0.5286
   90SAPE    HA 8740   4.180   1.830   6.865  0.3352  0.8370  2.4548
   90SAPE    HB 8741   4.048   1.861   6.976  1.0267  0.6016  0.1034
   90SAPE    C2 8742   3.987   1.840   6.773  0.2678  0.3324 -0.0315
   90SAPE    HS 8743   3.971   1.731   6.791  1.5735 -0.0554 -1.0546
   90SAPE   O21 8744   4.033   1.871   6.643 -0.3409 -0.5842  0.5892
   90SAPE   C21 8745   3.990   1.798   6.548 -0.1175  0.5512 -0.1580
   90SAPE   O22 8746   3.936   1.688   6.551 -0.2861  0.5129  0.1859
   90SAPE   C22 8747   4.021   1.870   6.414  0.1769 -1.5761 -0.4071
   90SAPE   H2R 8748   4.028   1.979   6.433  0.7771 -1.2109 -2.4182
   90SAPE   H2S 8749   4.118   1.837   6.372  0.6197  0.0277 -0.7248
   90SAPE    C3 8750   3.849   1.909   6.792  0.2750  0.5728 -0.5584
   90SAPE    HX 8751   3.855   2.019   6.778  1.5127  0.4842 -0.8640
   90SAPE    HY 8752   3.822   1.888   6.898 -1.2614  2.0051 -0.6410
   90SAPE   O31 8753   3.745   1.856   6.707 -0.2041 -0.1276 -0.1479
   90SAPE   C31 8754   3.680   1.751   6.754  0.8337  0.6274  0.2324
   90SAPE   O32 8755   3.699   1.686   6.856 -0.4462  0.8290 -0.0133
   90SAPE   C32 8756   3.568   1.720   6.653 -0.2923 -0.2100 -0.3413
   90SAPE   H2X 8757   3.595   1.626   6.600 -4.1155 -0.9078 -1.2929
   90SAPE   H2Y 8758   3.571   1.796   6.572  1.1149  0.5012  0.3317
   90SAPE   C23 8759   3.916   1.847   6.305  0.4246  0.0298  0.6487
   90SAPE   H3R 8760   3.823   1.833   6.363  0.5331  1.4139  1.1942
   90SAPE   H3S 8761   3.924   1.746   6.258 -2.8801  0.5892 -1.4880
   90SAPE   C24 8762   3.909   1.966   6.202  0.3578  0.1070 -0.5141
   90SAPE   H4R 8763   3.993   1.943   6.134  0.2976 -1.3250 -0.1303
   90SAPE   H4S 8764   3.936   2.064   6.247  1.0073  0.5584 -1.8332
   90SAPE   C25 8765   3.772   1.984   6.144  0.7345  0.9675  0.3518
   90SAPE   H5R 8766   3.696   2.020   6.216  0.1304  2.8639 -1.1616
   90SAPE   C26 8767   3.731   1.984   6.014 -0.3146  0.1330 -0.0216
   90SAPE   H6R 8768   3.625   1.997   5.986 -0.4595  0.1471  0.5310
   90SAPE   C27 8769   3.818   1.946   5.896  0.3342  0.0124  0.6498
   90SAPE   H7R 8770   3.925   1.951   5.928  1.1685 -0.1541 -1.9080
   90SAPE   H7S 8771   3.813   2.021   5.814 -1.7285 -0.7853 -0.0136
   90SAPE   C28 8772   3.797   1.796   5.870  0.8637 -0.1204 -0.9938
   90SAPE   H8R 8773   3.767   1.740   5.960 -2.4008  1.2701 -1.0656
   90SAPE   C29 8774   3.796   1.726   5.758  0.4824 -0.1656  0.2655
   90SAPE   H9R 8775   3.805   1.617   5.773 -0.2052 -0.3981 -0.9183
   90SAPE  C210 8776   3.817   1.780   5.620 -0.2327  0.0624 -0.2075
   90SAPE  H10R 8777   3.843   1.888   5.624 -2.4182  0.6597 -0.8864
   90SAPE  H10S 8778   3.718   1.782   5.570 -0.3501  0.7298  0.0376
   90SAPE  C211 8779   3.915   1.713   5.532 -0.1220  0.1370  0.1969
   90SAPE  H11R 8780   4.005   1.666   5.575 -1.1450 -3.4402 -1.2201
   90SAPE  C212 8781   3.906   1.694   5.402 -0.2760 -0.6520 -0.1984
   90SAPE  H12R 8782   3.990   1.655   5.344 -1.4150 -0.6435 -1.9470
   90SAPE  C213 8783   3.786   1.728   5.304 -0.1746 -0.3079  0.3020
   90SAPE  H13R 8784   3.817   1.817   5.246 -0.1038 -1.1534 -1.0077
   90SAPE  H13S 8785   3.691   1.742   5.361 -1.5047  0.9081 -2.0597
   90SAPE  C214 8786   3.764   1.618   5.199 -0.7164  0.3975 -0.6619
   90SAPE  H14R 8787   3.732   1.520   5.237 -0.1818  0.6153  0.4167
   90SAPE  C215 8788   3.768   1.622   5.068  0.0705  0.1368 -0.7124
   90SAPE  H15R 8789   3.733   1.535   5.011 -3.1482  1.8264 -1.5913
   90SAPE  C216 8790   3.802   1.744   4.985  0.3718 -0.2208 -0.6029
   90SAPE  H16R 8791   3.877   1.713   4.908 -0.0511 -1.5220 -0.5179
   90SAPE  H16S 8792   3.853   1.830   5.033  0.1220 -0.6454  0.4478
   90SAPE  C217 8793   3.676   1.802   4.924  1.1019 -0.4688 -0.0811
   90SAPE  H17R 8794   3.618   1.728   4.864  1.4467 -1.8125  1.1808
   90SAPE  H17S 8795   3.710   1.884   4.857 -0.7039  0.8973  0.6189
   90SAPE  C218 8796   3.577   1.860   5.029 -0.6688  0.4424 -0.4361
   90SAPE  H18R 8797   3.648   1.926   5.083 -0.0874  2.2091 -3.2024
   90SAPE  H18S 8798   3.532   1.787   5.100 -4.4974 -0.0917 -3.1327
   90SAPE  C219 8799   3.467   1.937   4.965  0.2660 -0.3860 -0.1225
   90SAPE  H19R 8800   3.399   1.974   5.045 -0.7688 -0.2116 -1.0661
   90SAPE  H19S 8801   3.410   1.867   4.900  0.7267  0.0834 -1.0479
   90SAPE  C220 8802   3.498   2.060   4.880  0.9530 -0.5438  0.1792
   90SAPE  H20R 8803   3.554   2.143   4.928  1.3831  1.0057 -2.7783
   90SAPE  H20S 8804   3.407   2.117   4.852  1.7993 -0.2121 -2.0893
   90SAPE  H20T 8805   3.557   2.043   4.788 -1.5278  0.5942 -1.7663
   90SAPE   C33 8806   3.423   1.713   6.705  0.9114 -0.1080 -0.1786
   90SAPE   H3X 8807   3.407   1.810   6.757 -0.5339  2.5270 -4.9336
   90SAPE   H3Y 8808   3.420   1.640   6.788 -1.0597  0.2799  0.1408
   90SAPE   C34 8809   3.328   1.685   6.593  0.0676 -0.4036 -0.5386
   90SAPE   H4X 8810   3.361   1.612   6.517 -1.2336  1.9047 -3.5309
   90SAPE   H4Y 8811   3.316   1.783   6.542  0.9389  0.3208  0.5893
   90SAPE   C35 8812   3.188   1.645   6.643  0.8918 -0.6524 -0.0792
   90SAPE   H5X 8813   3.149   1.730   6.703  0.4654 -0.8142 -0.1264
   90SAPE   H5Y 8814   3.197   1.565   6.720  1.9878 -0.8901 -0.4377
   90SAPE   C36 8815   3.093   1.609   6.529 -0.0555 -0.2766 -0.5970
   90SAPE   H6X 8816   3.146   1.518   6.493 -0.0832  0.5867 -2.9234
   90SAPE   H6Y 8817   3.089   1.685   6.449  1.8570  1.2491  0.6521
   90SAPE   C37 8818   2.952   1.569   6.578 -0.1732  0.1050  0.3374
   90SAPE   H7X 8819   2.913   1.656   6.635 -1.1295 -0.6710  0.8857
   90SAPE   H7Y 8820   2.946   1.494   6.659 -1.7795  1.8584  1.9436
   90SAPE   C38 8821   2.851   1.532   6.465 -0.0011 -0.3796  0.9375
   90SAPE   H8X 8822   2.760   1.496   6.518 -0.8537  0.1163 -0.1267
   90SAPE   H8Y 8823   2.903   1.447   6.416  1.9255  0.4624  1.4192
   90SAPE   C39 8824   2.817   1.641   6.364  0.1012  0.3146 -0.2766
   90SAPE   H9X 8825   2.902   1.660   6.295 -1.6843  0.9961 -2.4304
   90SAPE   H9Y 8826   2.793   1.733   6.420  0.9909  1.2311 -1.3606
   90SAPE  C310 8827   2.705   1.601   6.270  0.4658 -0.6370 -0.2038
   90SAPE  H10X 8828   2.611   1.586   6.328 -0.4895  4.5068  0.0270
   90SAPE  H10Y 8829   2.744   1.504   6.234  0.0846 -0.8185 -0.1347
   90SAPE  C311 8830   2.688   1.685   6.153  0.4977  0.1195  0.2264
   90SAPE  H11X 8831   2.781   1.701   6.094 -1.3045  0.2602 -2.7956
   90SAPE  H11Y 8832   2.657   1.789   6.178  0.9714  0.9026 -2.1352
   90SAPE  C312 8833   2.573   1.636   6.060 -0.1327  0.3202  0.4828
   90SAPE  H12X 8834   2.493   1.597   6.127 -1.6555  1.8535 -0.3693
   90SAPE  H12Y 8835   2.613   1.550   6.001  1.4904  1.1772  0.2850
   90SAPE  C313 8836   2.538   1.737   5.952 -0.6672 -0.0252  0.0885
   90SAPE  H13X 8837   2.630   1.751   5.891 -0.5886 -3.8102 -0.9498
   90SAPE  H13Y 8838   2.517   1.832   6.006  1.5532  0.4379  0.2381
   90SAPE  C314 8839   2.427   1.686   5.868  0.1624 -0.7839  0.0610
   90SAPE  H14X 8840   2.328   1.692   5.917 -0.2953  0.1277 -0.9266
   90SAPE  H14Y 8841   2.444   1.579   5.847 -0.7375 -0.9522  0.1848
   90SAPE  C315 8842   2.403   1.774   5.742  0.1058  0.0963  0.2846
   90SAPE  H15X 8843   2.399   1.880   5.772  1.9731  0.2643  0.0120
   90SAPE  H15Y 8844   2.306   1.730   5.710  0.5364 -1.0668  0.5351
   90SAPE  C316 8845   2.491   1.744   5.617  0.5570  0.0414 -0.1123
   90SAPE  H16X 8846   2.515   1.636   5.624  0.0838 -0.0017  1.1515
   90SAPE  H16Y 8847   2.585   1.801   5.638  0.5893  0.7172 -1.9345
   90SAPE  C317 8848   2.432   1.775   5.479  0.5981 -0.6181 -0.0494
   90SAPE  H17X 8849   2.332   1.729   5.475  0.5913 -1.0000  2.6218
   90SAPE  H17Y 8850   2.499   1.717   5.411 -0.6955 -1.9304 -0.2429
   90SAPE  C318 8851   2.422   1.922   5.448 -0.2708 -0.2912 -0.3172
   90SAPE  H18X 8852   2.334   1.981   5.483  0.7378  1.3952 -0.4814
   90SAPE  H18Y 8853   2.421   1.932   5.337  0.2952  0.2328 -0.2821
   90SAPE  H18Z 8854   2.509   1.976   5.491  0.7221  0.3790 -2.9360
   91SAPE     N 8855   1.301   5.962   6.793  0.2992 -0.0011 -0.8469
   91SAPE   HN1 8856   1.377   5.916   6.846 -0.2632 -0.5030 -0.4610
   91SAPE   HN2 8857   1.332   5.992   6.699  0.7231 -3.2055 -1.8435
   91SAPE   HN3 8858   1.270   6.047   6.845  0.5536 -1.3026  1.5923
   91SAPE   C12 8859   1.192   5.854   6.778  0.0891  0.0852 -0.9206
   91SAPE  H12A 8860   1.234   5.760   6.735 -0.0114 -0.4268  0.0627
   91SAPE  H12B 8861   1.106   5.896   6.721 -0.2686 -0.5015 -0.8270
   91SAPE   C11 8862   1.136   5.795   6.917 -0.7961  0.1694  0.1149
   91SAPE  H11A 8863   1.211   5.727   6.963 -1.5133 -0.2540  0.6916
   91SAPE  H11B 8864   1.048   5.738   6.882 -1.1320  1.1046 -0.5854
   91SAPE     P 8865   0.976   5.882   7.100  0.2519  0.2425  0.3748
   91SAPE   O13 8866   0.998   5.756   7.177 -0.6336  0.6607  0.2173
   91SAPE   O14 8867   0.940   6.000   7.178 -0.9135  0.0950  0.0836
   91SAPE   O12 8868   1.107   5.901   7.015 -0.0410 -0.2179  0.0999
   91SAPE   O11 8869   0.866   5.848   6.990  0.4633 -0.8756 -0.1980
   91SAPE    C1 8870   0.835   5.944   6.891  0.3039 -0.4657 -0.6493
   91SAPE    HA 8871   0.744   5.997   6.928  1.1274  0.1408  0.5909
   91SAPE    HB 8872   0.918   6.016   6.871 -0.6118  1.0635  0.7522
   91SAPE    C2 8873   0.783   5.883   6.759  0.0818 -0.1805 -0.0487
   91SAPE    HS 8874   0.683   5.841   6.782  0.5814 -1.3664  0.0053
   91SAPE   O21 8875   0.874   5.784   6.710 -0.8270  0.4463 -0.3359
   91SAPE   C21 8876   0.833   5.677   6.634 -0.2066  0.2043  0.3549
   91SAPE   O22 8877   0.716   5.649   6.606 -0.5490  0.3300 -0.6279
   91SAPE   C22 8878   0.959   5.600   6.591  0.1303 -0.3969  0.0149
   91SAPE   H2R 8879   1.029   5.675   6.548  0.3558 -0.0287  1.0021
   91SAPE   H2S 8880   1.009   5.557   6.680  4.2794  1.1755 -1.3035
   91SAPE    C3 8881   0.749   5.990   6.649 -0.3102  0.0030  0.5130
   91SAPE    HX 8882   0.842   6.049   6.635 -0.6285  0.6346  0.9911
   91SAPE    HY 8883   0.671   6.061   6.684  0.3585 -0.1556  2.4495
   91SAPE   O31 8884   0.708   5.934   6.521  0.2128 -0.2922  0.2741
   91SAPE   C31 8885   0.795   5.937   6.422  0.3961  0.4209  0.7213
   91SAPE   O32 8886   0.910   5.966   6.432 -0.2052  0.5784 -0.2778
   91SAPE   C32 8887   0.728   5.906   6.287  0.1969 -0.0205 -0.6765
   91SAPE   H2X 8888   0.745   5.995   6.224  0.5671 -0.2502 -0.9096
   91SAPE   H2Y 8889   0.620   5.890   6.304 -0.2489  3.4529  0.5293
   91SAPE   C23 8890   0.918   5.485   6.499 -0.2309  0.7575  0.8346
   91SAPE   H3R 8891   0.872   5.524   6.405  1.1926 -0.9879 -0.6368
   91SAPE   H3S 8892   0.843   5.424   6.554 -1.5834  0.9520 -0.7171
   91SAPE   C24 8893   1.033   5.385   6.468  0.1440 -0.3963  0.2344
   91SAPE   H4R 8894   1.075   5.354   6.566  0.5341  0.1295  0.2377
   91SAPE   H4S 8895   1.114   5.449   6.427 -0.8574 -0.2349 -1.5813
   91SAPE   C25 8896   0.987   5.269   6.387  0.3100  1.0167  0.0222
   91SAPE   H5R 8897   0.975   5.171   6.436  2.9665  0.0122 -1.1717
   91SAPE   C26 8898   0.990   5.276   6.256 -0.8135  0.5391 -0.5723
   91SAPE   H6R 8899   0.959   5.185   6.202 -1.1746  0.3392 -0.0399
   91SAPE   C27 8900   1.039   5.390   6.169  0.2389  1.1201  0.2248
   91SAPE   H7R 8901   1.035   5.484   6.229  1.3605  2.5102 -1.7315
   91SAPE   H7S 8902   0.970   5.391   6.082 -0.7660 -1.2151  0.9109
   91SAPE   C28 8903   1.172   5.370   6.118  0.1277 -0.1464 -0.0948
   91SAPE   H8R 8904   1.253   5.427   6.167  0.4407 -0.1883 -0.5502
   91SAPE   C29 8905   1.199   5.294   6.007 -0.7395  0.1680 -0.4486
   91SAPE   H9R 8906   1.304   5.291   5.972 -0.5842  2.8576 -0.4587
   91SAPE  C210 8907   1.112   5.205   5.915 -0.1172  0.9073 -0.4673
   91SAPE  H10R 8908   1.035   5.156   5.979  0.5593  1.0478  0.4674
   91SAPE  H10S 8909   1.164   5.113   5.880  0.3300  0.5400  1.1099
   91SAPE  C211 8910   1.058   5.281   5.786 -0.3003 -0.4818 -0.4376
   91SAPE  H11R 8911   0.984   5.359   5.808  1.4235  0.8818  0.8447
   91SAPE  C212 8912   1.103   5.268   5.660 -0.1420 -0.7500 -0.2763
   91SAPE  H12R 8913   1.044   5.316   5.580 -0.0337  0.6676  0.4619
   91SAPE  C213 8914   1.211   5.183   5.606  0.2369 -0.0018  0.6386
   91SAPE  H13R 8915   1.167   5.091   5.562  0.5441  0.5199 -0.8315
   91SAPE  H13S 8916   1.284   5.139   5.677  0.2153 -2.4116 -0.7157
   91SAPE  C214 8917   1.281   5.269   5.502 -0.8839  0.2376 -0.6003
   91SAPE  H14R 8918   1.384   5.300   5.525 -1.3767  3.8810 -2.5397
   91SAPE  C215 8919   1.238   5.285   5.377  0.1366  0.3231 -0.6497
   91SAPE  H15R 8920   1.292   5.352   5.309  3.1864 -0.2565  1.0115
   91SAPE  C216 8921   1.100   5.243   5.331 -0.1066 -0.5603 -0.0538
   91SAPE  H16R 8922   1.041   5.337   5.321 -1.1274 -1.2409 -0.6428
   91SAPE  H16S 8923   1.047   5.187   5.411  0.8646 -1.2786  0.1052
   91SAPE  C217 8924   1.096   5.152   5.207 -0.8832  0.7262 -0.0160
   91SAPE  H17R 8925   1.057   5.064   5.262  0.4891  1.0759  1.6017
   91SAPE  H17S 8926   1.197   5.133   5.165 -0.9332  0.6148 -0.0854
   91SAPE  C218 8927   1.006   5.203   5.089 -0.0545  0.5169 -0.4698
   91SAPE  H18R 8928   1.017   5.308   5.055  0.2000  0.4216 -0.6776
   91SAPE  H18S 8929   0.900   5.205   5.123 -0.0152 -1.0526 -0.2076
   91SAPE  C219 8930   1.009   5.107   4.965 -0.3383 -0.0959 -0.6987
   91SAPE  H19R 8931   1.108   5.117   4.915  0.5444  0.0650  1.0027
   91SAPE  H19S 8932   0.935   5.145   4.891 -0.0594 -0.7820 -1.3505
   91SAPE  C220 8933   0.962   4.965   4.998  0.2662  0.1268  0.5694
   91SAPE  H20R 8934   0.873   4.968   5.064 -0.7207  2.4172 -0.7417
   91SAPE  H20S 8935   1.037   4.892   5.035 -0.9886 -1.4260  0.1741
   91SAPE  H20T 8936   0.928   4.917   4.904  0.7956  1.1545 -0.1687
   91SAPE   C33 8937   0.805   5.802   6.198  0.3285 -0.6864 -0.4338
   91SAPE   H3X 8938   0.870   5.732   6.256  0.7280  1.1416  1.4618
   91SAPE   H3Y 8939   0.884   5.861   6.147 -0.6975  1.4779  0.3427
   91SAPE   C34 8940   0.727   5.727   6.087  0.0087  0.2326 -0.4807
   91SAPE   H4X 8941   0.685   5.806   6.020  0.3486 -1.9661 -3.5008
   91SAPE   H4Y 8942   0.651   5.668   6.142  1.2774 -0.4109  0.6123
   91SAPE   C35 8943   0.817   5.635   6.003  0.1517  0.4524 -0.1004
   91SAPE   H5X 8944   0.761   5.563   5.940  1.0496  0.7621 -1.2659
   91SAPE   H5Y 8945   0.864   5.583   6.090 -0.5837  0.8607  0.5599
   91SAPE   C36 8946   0.918   5.707   5.909 -0.0577 -0.2476 -0.2763
   91SAPE   H6X 8947   0.973   5.630   5.851  1.4844  1.2597 -0.9047
   91SAPE   H6Y 8948   0.967   5.780   5.976  0.9942 -1.0181 -0.1876
   91SAPE   C37 8949   0.850   5.799   5.798 -0.4487  0.2763  0.1174
   91SAPE   H7X 8950   0.773   5.864   5.846 -2.1704 -0.5195 -1.4619
   91SAPE   H7Y 8951   0.793   5.724   5.740 -0.8575 -1.2714  2.4138
   91SAPE   C38 8952   0.952   5.871   5.715 -0.0214  0.3747 -0.6768
   91SAPE   H8X 8953   1.047   5.816   5.700  1.0105  2.6161 -2.9515
   91SAPE   H8Y 8954   0.982   5.964   5.768  1.2201 -0.8115  0.8065
   91SAPE   C39 8955   0.895   5.898   5.575  0.2736  0.8559  0.2106
   91SAPE   H9X 8956   0.794   5.942   5.589 -0.0962 -0.5115  2.4621
   91SAPE   H9Y 8957   0.882   5.800   5.525 -3.7701  1.4715 -0.2932
   91SAPE  C310 8958   0.977   5.986   5.475  0.5013 -0.6198 -0.2985
   91SAPE  H10X 8959   1.087   5.972   5.481  0.6829  0.7892 -0.1528
   91SAPE  H10Y 8960   0.956   6.093   5.497 -0.7769 -1.0304  0.5867
   91SAPE  C311 8961   0.955   5.964   5.320 -0.0984 -0.3230  0.0830
   91SAPE  H11X 8962   0.852   5.999   5.296 -0.5751 -1.6456  0.0931
   91SAPE  H11Y 8963   0.964   5.854   5.305  3.6756  0.0205 -1.0284
   91SAPE  C312 8964   1.049   6.041   5.226 -0.2136  1.5824  0.4557
   91SAPE  H12X 8965   1.148   6.021   5.271 -0.9202 -1.4431  0.9404
   91SAPE  H12Y 8966   1.033   6.150   5.218  0.0543  1.4715 -3.5317
   91SAPE  C313 8967   1.041   5.988   5.079 -0.1839  0.6715  0.1688
   91SAPE  H13X 8968   0.938   5.995   5.036  0.0515 -0.6197 -0.6454
   91SAPE  H13Y 8969   1.054   5.878   5.074 -0.4122  0.6445  0.1410
   91SAPE  C314 8970   1.131   6.068   4.990 -0.0244  0.2162  0.1329
   91SAPE  H14X 8971   1.236   6.063   5.028  0.3838  2.1431 -0.6139
   91SAPE  H14Y 8972   1.104   6.175   4.999 -0.6484  0.0576  0.1619
   91SAPE  C315 8973   1.122   6.024   4.846 -0.7342 -0.1652  0.1778
   91SAPE  H15X 8974   1.121   5.913   4.843  0.5425 -0.1839 -0.5197
   91SAPE  H15Y 8975   1.208   6.071   4.793 -0.8602  0.8604  0.8530
   91SAPE  C316 8976   0.993   6.076   4.779 -0.5616 -0.3127  0.4043
   91SAPE  H16X 8977   1.008   6.183   4.756 -0.8665 -1.0756 -4.1782
   91SAPE  H16Y 8978   0.909   6.080   4.852 -0.2134  3.2038  0.7934
   91SAPE  C317 8979   0.952   6.000   4.654  1.3857  0.2345 -1.0279
   91SAPE  H17X 8980   0.854   6.045   4.625  0.0739 -2.3022 -0.8268
   91SAPE  H17Y 8981   0.936   5.892   4.672  2.1918  0.1587 -0.7519
   91SAPE  C318 8982   1.050   6.014   4.534  0.9338  0.3744 -0.8176
   91SAPE  H18X 8983   1.139   5.953   4.559 -0.7948 -1.5433  1.0760
   91SAPE  H18Y 8984   1.084   6.119   4.519 -0.8677  1.3397  1.2709
   91SAPE  H18Z 8985   1.017   5.976   4.435 -0.1497  1.9086 -1.0805
   92SAPE     N 8986   2.771   0.061   7.274 -0.2789  0.0607 -0.4257
   92SAPE   HN1 8987   2.779   0.125   7.356  0.6432 -0.7343  0.1207
   92SAPE   HN2 8988   2.732   0.106   7.189 -1.3306  1.1843  0.6123
   92SAPE   HN3 8989   2.711  -0.022   7.289 -0.0039 -0.1316 -0.3830
   92SAPE   C12 8990   2.913   0.005   7.252 -0.5911 -0.6111  0.2749
   92SAPE  H12A 8991   2.906  -0.059   7.162  0.9042 -0.7132  0.2067
   92SAPE  H12B 8992   2.937  -0.047   7.347  0.6304 -1.0460 -0.2595
   92SAPE   C11 8993   3.006   0.126   7.219  0.4316 -0.3735  0.3190
   92SAPE  H11A 8994   2.982   0.218   7.275  0.2781 -0.1933 -0.0400
   92SAPE  H11B 8995   2.977   0.153   7.115  0.8060  0.3463  0.3985
   92SAPE     P 8996   3.219   0.007   7.113  0.0825  0.1604 -0.1668
   92SAPE   O13 8997   3.366   0.029   7.120 -0.7229 -0.3519 -0.1682
   92SAPE   O14 8998   3.169  -0.130   7.137 -0.5690 -0.0978 -0.0797
   92SAPE   O12 8999   3.146   0.095   7.228 -0.3421 -0.1667 -0.6739
   92SAPE   O11 9000   3.161   0.056   6.974 -0.7001  0.0121 -0.5576
   92SAPE    C1 9001   3.072  -0.018   6.894  0.5029 -0.0381 -0.1466
   92SAPE    HA 9002   3.000  -0.075   6.956 -0.8471  2.7475  0.9894
   92SAPE    HB 9003   3.020   0.056   6.830  0.5823 -0.3577 -0.5918
   92SAPE    C2 9004   3.142  -0.127   6.808 -1.0289 -0.4947  0.0229
   92SAPE    HS 9005   3.198  -0.191   6.878 -0.1846 -0.9364 -1.0308
   92SAPE   O21 9006   3.241  -0.062   6.716 -0.6531 -0.4466 -0.6736
   92SAPE   C21 9007   3.360  -0.130   6.703  0.2215  0.3606 -0.1887
   92SAPE   O22 9008   3.396  -0.233   6.745 -0.1377  0.3831  0.4824
   92SAPE   C22 9009   3.460  -0.040   6.620  1.1174  0.8314 -0.0816
   92SAPE   H2R 9010   3.444   0.066   6.652 -1.5504  0.3974  0.2072
   92SAPE   H2S 9011   3.554  -0.087   6.656 -0.5275 -1.1979  1.8156
   92SAPE    C3 9012   3.049  -0.210   6.720  0.6584  0.8969  0.2686
   92SAPE    HX 9013   3.018  -0.137   6.642  0.5866 -0.7090 -1.2504
   92SAPE    HY 9014   2.962  -0.237   6.784  2.5407  0.2512  2.7445
   92SAPE   O31 9015   3.113  -0.329   6.674  0.5584  0.7409 -0.2945
   92SAPE   C31 9016   3.039  -0.385   6.581 -0.9777  0.7509  0.3303
   92SAPE   O32 9017   2.924  -0.360   6.548  0.3450 -0.2005 -0.6029
   92SAPE   C32 9018   3.114  -0.493   6.508 -0.5351  0.0584  0.9459
   92SAPE   H2X 9019   3.065  -0.593   6.512  0.2741 -0.3849  0.1767
   92SAPE   H2Y 9020   3.213  -0.497   6.559 -0.8335  0.0156  1.5276
   92SAPE   C23 9021   3.462  -0.087   6.476  0.3187 -0.3543  0.0752
   92SAPE   H3R 9022   3.376  -0.063   6.409  1.9875  0.5681 -1.8609
   92SAPE   H3S 9023   3.463  -0.198   6.471  0.1167 -0.3491 -0.1022
   92SAPE   C24 9024   3.593  -0.045   6.407 -0.1124  0.1399 -0.3154
   92SAPE   H4R 9025   3.625  -0.090   6.310  0.3244 -1.7181  0.6353
   92SAPE   H4S 9026   3.670  -0.062   6.485 -2.0282 -0.2758  1.5734
   92SAPE   C25 9027   3.581   0.102   6.375 -0.3109 -0.1547  0.0850
   92SAPE   H5R 9028   3.580   0.175   6.457 -1.7099  0.6029 -0.5659
   92SAPE   C26 9029   3.572   0.161   6.254 -0.3580 -0.1365  0.0773
   92SAPE   H6R 9030   3.580   0.270   6.259 -0.3711 -0.1081 -0.5035
   92SAPE   C27 9031   3.554   0.103   6.110 -0.2695  0.1009  0.1492
   92SAPE   H7R 9032   3.464   0.129   6.050 -0.5296  1.0560  0.9407
   92SAPE   H7S 9033   3.547  -0.007   6.128 -0.4339  0.4363  2.3973
   92SAPE   C28 9034   3.674   0.138   6.025  0.2249  0.0081  0.2959
   92SAPE   H8R 9035   3.768   0.128   6.082  0.6654  0.4031 -0.3491
   92SAPE   C29 9036   3.681   0.166   5.894 -0.6845 -0.5003 -0.1218
   92SAPE   H9R 9037   3.779   0.174   5.845 -0.1981 -2.7341  0.4230
   92SAPE  C210 9038   3.556   0.184   5.806  0.3625  0.6288  0.0171
   92SAPE  H10R 9039   3.571   0.226   5.705 -0.2768 -0.7200 -0.6632
   92SAPE  H10S 9040   3.481   0.246   5.859  0.8888  0.1706  1.3434
   92SAPE  C211 9041   3.479   0.056   5.777 -0.0109  0.1085  0.0745
   92SAPE  H11R 9042   3.507  -0.032   5.838  0.2226  0.4486  0.4643
   92SAPE  C212 9043   3.375   0.049   5.690  0.2345  0.0801  0.2161
   92SAPE  H12R 9044   3.333  -0.052   5.685  2.2906 -0.8002 -0.1745
   92SAPE  C213 9045   3.307   0.153   5.601  0.3481 -0.0075  0.0039
   92SAPE  H13R 9046   3.380   0.232   5.570 -0.2412  0.7583  0.5184
   92SAPE  H13S 9047   3.230   0.205   5.662 -0.4047 -2.0667  0.8912
   92SAPE  C214 9048   3.242   0.101   5.476 -0.3993 -0.0757 -0.0067
   92SAPE  H14R 9049   3.136   0.132   5.468 -0.5240  0.1594  2.0024
   92SAPE  C215 9050   3.291   0.039   5.374  0.0648  0.8210  0.1824
   92SAPE  H15R 9051   3.216   0.018   5.296 -0.3342  0.0176  0.7755
   92SAPE  C216 9052   3.431  -0.003   5.363  0.8318 -0.3257 -0.4335
   92SAPE  H16R 9053   3.437  -0.112   5.382 -2.6345 -0.3092  1.6116
   92SAPE  H16S 9054   3.494   0.049   5.438 -0.9989  0.5077  0.6188
   92SAPE  C217 9055   3.491   0.027   5.224  0.0225 -0.2621 -0.4028
   92SAPE  H17R 9056   3.601   0.020   5.221  0.0349  0.2045 -1.0392
   92SAPE  H17S 9057   3.467   0.133   5.202  3.5150  0.7717  0.2756
   92SAPE  C218 9058   3.453  -0.073   5.117 -0.1373 -0.1215 -0.4844
   92SAPE  H18R 9059   3.345  -0.099   5.126 -0.2162 -0.0610 -1.1738
   92SAPE  H18S 9060   3.505  -0.171   5.118 -1.5048 -0.9079  1.9481
   92SAPE  C219 9061   3.460  -0.020   4.972  0.1520 -0.0515 -0.0268
   92SAPE  H19R 9062   3.410   0.079   4.967  0.0686 -0.1431 -1.2336
   92SAPE  H19S 9063   3.409  -0.097   4.910  1.6077  0.2993 -1.7377
   92SAPE  C220 9064   3.603  -0.025   4.917 -0.6201 -0.6671  0.3670
   92SAPE  H20R 9065   3.633  -0.131   4.908  0.2453 -0.3368 -0.9399
   92SAPE  H20S 9066   3.671   0.031   4.985  2.5259 -1.0584 -2.2181
   92SAPE  H20T 9067   3.618   0.017   4.815 -0.5726 -1.7042 -0.0623
   92SAPE   C33 9068   3.144  -0.461   6.362 -0.1697  0.5121 -0.1457
   92SAPE   H3X 9069   3.051  -0.437   6.306  0.5496 -1.5337 -2.3729
   92SAPE   H3Y 9070   3.194  -0.548   6.314 -1.7146 -0.0454 -0.8010
   92SAPE   C34 9071   3.252  -0.342   6.358 -0.5856  0.1152  0.3940
   92SAPE   H4X 9072   3.330  -0.366   6.434 -0.8326 -1.4714  0.1891
   92SAPE   H4Y 9073   3.212  -0.242   6.382  0.2958  1.6073 -3.5695
   92SAPE   C35 9074   3.324  -0.344   6.220  0.1087 -0.2952 -0.5010
   92SAPE   H5X 9075   3.346  -0.452   6.207 -2.0722 -1.0661  1.3598
   92SAPE   H5Y 9076   3.417  -0.285   6.230 -0.2547  0.0584  1.0603
   92SAPE   C36 9077   3.239  -0.284   6.107 -0.5715 -0.1586  0.4827
   92SAPE   H6X 9078   3.192  -0.187   6.134  0.6158  0.1555  1.5104
   92SAPE   H6Y 9079   3.163  -0.358   6.076 -1.1364  1.0591 -1.2532
   92SAPE   C37 9080   3.310  -0.258   5.971 -0.2359 -0.3511  0.7344
   92SAPE   H7X 9081   3.400  -0.194   5.984 -0.9475  1.0050 -0.6345
   92SAPE   H7Y 9082   3.231  -0.199   5.919  0.4458  1.1196  1.3125
   92SAPE   C38 9083   3.341  -0.381   5.884 -0.6619 -0.2032 -0.7799
   92SAPE   H8X 9084   3.253  -0.444   5.860 -0.6448 -0.4904 -0.1013
   92SAPE   H8Y 9085   3.420  -0.436   5.940 -0.3348  0.7528 -0.2892
   92SAPE   C39 9086   3.404  -0.341   5.751 -0.4741 -0.3332 -0.1063
   92SAPE   H9X 9087   3.507  -0.312   5.781 -0.8239  1.3915 -0.4621
   92SAPE   H9Y 9088   3.352  -0.254   5.706 -1.1210 -1.3550 -1.3836
   92SAPE  C310 9089   3.423  -0.461   5.668  0.4274 -0.0920  0.5845
   92SAPE  H10X 9090   3.323  -0.501   5.645  0.2873 -0.0245  1.0777
   92SAPE  H10Y 9091   3.484  -0.538   5.720  0.4677 -1.2613 -1.1152
   92SAPE  C311 9092   3.510  -0.426   5.543 -0.6074 -1.3341  0.6560
   92SAPE  H11X 9093   3.606  -0.375   5.564 -0.3045 -0.9762 -1.3999
   92SAPE  H11Y 9094   3.448  -0.348   5.494 -0.2734 -0.3614  1.7428
   92SAPE  C312 9095   3.524  -0.541   5.443 -0.3687  0.2834  0.0742
   92SAPE  H12X 9096   3.430  -0.598   5.433  0.5108 -1.0769 -0.7464
   92SAPE  H12Y 9097   3.583  -0.624   5.485  0.0302  0.0593 -0.8949
   92SAPE  C313 9098   3.593  -0.483   5.317  0.6310 -0.4829  0.0100
   92SAPE  H13X 9099   3.697  -0.472   5.357  0.5261  1.5667 -0.2039
   92SAPE  H13Y 9100   3.552  -0.384   5.290  1.4624  0.4986  2.0982
   92SAPE  C314 9101   3.594  -0.579   5.206  0.2427  0.0102 -0.1765
   92SAPE  H14X 9102   3.492  -0.602   5.167  0.7050 -1.6260 -0.5074
   92SAPE  H14Y 9103   3.635  -0.675   5.245 -1.7017 -1.0059 -0.4832
   92SAPE  C315 9104   3.686  -0.539   5.091  0.9331  0.2356 -0.3409
   92SAPE  H15X 9105   3.705  -0.627   5.026  1.5583 -1.7262  2.3411
   92SAPE  H15Y 9106   3.784  -0.516   5.139  0.7837  0.2955 -0.0615
   92SAPE  C316 9107   3.642  -0.412   5.009 -0.5198 -0.5132  0.2864
   92SAPE  H16X 9108   3.643  -0.325   5.079 -0.3722 -0.1361 -0.1794
   92SAPE  H16Y 9109   3.541  -0.424   4.965  0.7641 -0.7841 -2.8081
   92SAPE  C317 9110   3.754  -0.393   4.896  0.8174  0.3068 -0.3398
   92SAPE  H17X 9111   3.843  -0.348   4.946  0.4547  1.8134 -1.0191
   92SAPE  H17Y 9112   3.723  -0.322   4.816  0.1022 -1.5316 -1.7809
   92SAPE  C318 9113   3.799  -0.517   4.813 -0.4509  0.4276 -0.4324
   92SAPE  H18X 9114   3.879  -0.580   4.859  1.0542  1.4881 -1.5192
   92SAPE  H18Y 9115   3.834  -0.477   4.715  2.6649  0.4489  0.5913
   92SAPE  H18Z 9116   3.712  -0.578   4.779  0.7115 -1.3077 -0.4742
   93SAPE     N 9117   3.213   3.517   7.539  0.0695  0.8458 -0.2664
   93SAPE   HN1 9118   3.189   3.433   7.483 -0.1148 -0.5677  1.8137
   93SAPE   HN2 9119   3.123   3.546   7.583  0.3585 -0.9264  1.6506
   93SAPE   HN3 9120   3.264   3.592   7.488  0.7698 -0.1498 -1.0595
   93SAPE   C12 9121   3.302   3.472   7.650 -0.2363 -0.4570  0.2390
   93SAPE  H12A 9122   3.255   3.386   7.702 -1.6436 -1.5940 -2.6491
   93SAPE  H12B 9123   3.304   3.554   7.725 -0.1260  0.0338 -0.2860
   93SAPE   C11 9124   3.434   3.425   7.590  0.1981 -0.2730 -0.5206
   93SAPE  H11A 9125   3.416   3.346   7.513  2.8383  0.1585 -1.6826
   93SAPE  H11B 9126   3.497   3.385   7.672  0.2609  2.5717  0.9456
   93SAPE     P 9127   3.601   3.616   7.602 -0.2816 -0.0818 -0.1277
   93SAPE   O13 9128   3.545   3.660   7.732  0.0223  0.4021 -0.4578
   93SAPE   O14 9129   3.737   3.550   7.603 -0.0800 -0.2540 -0.4269
   93SAPE   O12 9130   3.500   3.528   7.518  0.1008 -0.0361 -0.3039
   93SAPE   O11 9131   3.623   3.742   7.505  0.4942  0.6771  0.8309
   93SAPE    C1 9132   3.510   3.817   7.463 -0.0991 -0.1144  0.8440
   93SAPE    HA 9133   3.409   3.778   7.491 -0.1066 -0.4979  0.3042
   93SAPE    HB 9134   3.530   3.918   7.504  0.1910  1.2581 -2.3522
   93SAPE    C2 9135   3.509   3.849   7.296  0.3872 -0.7087 -0.1383
   93SAPE    HS 9136   3.410   3.897   7.276  1.6857  1.7149 -1.1493
   93SAPE   O21 9137   3.518   3.722   7.234  0.5354  0.4960  0.3661
   93SAPE   C21 9138   3.415   3.640   7.251 -0.5690 -0.4680  0.3622
   93SAPE   O22 9139   3.302   3.674   7.286 -0.2228  0.3057  0.2867
   93SAPE   C22 9140   3.466   3.498   7.224  0.2014  0.0299 -0.0332
   93SAPE   H2R 9141   3.555   3.484   7.289  0.3328  3.5310  0.6996
   93SAPE   H2S 9142   3.380   3.430   7.246 -0.9740  1.7362  0.8773
   93SAPE    C3 9143   3.614   3.953   7.262 -0.0638 -0.0384  0.5515
   93SAPE    HX 9144   3.716   3.931   7.301  0.4539 -1.5696 -1.5296
   93SAPE    HY 9145   3.577   4.049   7.304 -0.8578  0.4777 -1.2478
   93SAPE   O31 9146   3.612   3.964   7.111  0.0866 -0.3970 -0.5951
   93SAPE   C31 9147   3.730   3.952   7.056  0.4111  0.0305  0.3723
   93SAPE   O32 9148   3.835   3.930   7.115  0.3489 -0.1370 -0.3216
   93SAPE   C32 9149   3.713   3.947   6.901 -0.1589 -0.5500  0.1330
   93SAPE   H2X 9150   3.626   4.007   6.867 -1.1871 -1.4130  1.1527
   93SAPE   H2Y 9151   3.682   3.844   6.873 -1.2823  0.2934 -1.9629
   93SAPE   C23 9152   3.498   3.499   7.068  0.4008  0.0981  0.6835
   93SAPE   H3R 9153   3.574   3.575   7.040  1.3311 -0.0563  2.6342
   93SAPE   H3S 9154   3.399   3.518   7.021 -0.6577 -1.5548  2.0828
   93SAPE   C24 9155   3.539   3.354   7.023  0.2159  0.2039 -1.1039
   93SAPE   H4R 9156   3.454   3.287   7.051 -0.4796  1.1701 -0.8473
   93SAPE   H4S 9157   3.621   3.336   7.095 -1.0458 -4.0703 -0.4468
   93SAPE   C25 9158   3.600   3.335   6.887 -0.3310 -0.4650  0.5115
   93SAPE   H5R 9159   3.523   3.292   6.821 -1.8598  0.9661  1.2689
   93SAPE   C26 9160   3.706   3.384   6.828 -0.3824  0.5403  0.3532
   93SAPE   H6R 9161   3.736   3.365   6.724  0.4054  0.1602  0.6353
   93SAPE   C27 9162   3.804   3.480   6.889  0.2450  0.8652  0.0972
   93SAPE   H7R 9163   3.775   3.489   6.996  2.0602 -1.5004  0.8801
   93SAPE   H7S 9164   3.785   3.583   6.852  1.0244  0.9709 -0.0175
   93SAPE   C28 9165   3.951   3.455   6.884  0.7331  0.7031 -0.3565
   93SAPE   H8R 9166   3.985   3.391   6.967  2.0561 -1.1548 -2.2176
   93SAPE   C29 9167   4.033   3.487   6.782  0.2398 -0.8114 -0.2059
   93SAPE   H9R 9168   4.141   3.471   6.794  0.4665  0.3954 -0.4716
   93SAPE  C210 9169   3.987   3.561   6.656  0.1777 -0.1426 -0.5732
   93SAPE  H10R 9170   3.885   3.601   6.676  0.5516  0.7159 -0.3263
   93SAPE  H10S 9171   3.971   3.489   6.573  3.6929  0.1961 -1.7358
   93SAPE  C211 9172   4.077   3.670   6.611 -0.6788 -0.4964  0.6112
   93SAPE  H11R 9173   4.100   3.737   6.695  0.6564 -0.1465 -0.0092
   93SAPE  C212 9174   4.135   3.687   6.493  0.2582 -0.5886 -0.6038
   93SAPE  H12R 9175   4.203   3.773   6.489  0.3145 -0.5529  0.6774
   93SAPE  C213 9176   4.122   3.619   6.356 -0.4136  0.9771 -0.0455
   93SAPE  H13R 9177   4.094   3.703   6.289  0.0564  2.0804  1.0905
   93SAPE  H13S 9178   4.029   3.559   6.370  0.2930 -0.1293  0.0166
   93SAPE  C214 9179   4.221   3.517   6.303 -0.4085  0.5790  0.3821
   93SAPE  H14R 9180   4.305   3.501   6.372 -0.1801  1.4578  0.3243
   93SAPE  C215 9181   4.219   3.467   6.176 -0.1543  0.1297  0.0158
   93SAPE  H15R 9182   4.288   3.385   6.151  1.5009  1.6416 -0.5818
   93SAPE  C216 9183   4.104   3.496   6.080 -0.2739  0.0068 -0.9833
   93SAPE  H16R 9184   4.024   3.557   6.126  0.5973  0.0774  0.5108
   93SAPE  H16S 9185   4.058   3.400   6.048  1.7628 -0.8855 -1.4149
   93SAPE  C217 9186   4.157   3.568   5.949  0.5520  1.1466  0.2864
   93SAPE  H17R 9187   4.221   3.655   5.977  1.5867  0.2740  0.7410
   93SAPE  H17S 9188   4.076   3.595   5.878  0.3244  1.4459  0.6567
   93SAPE  C218 9189   4.248   3.472   5.866 -0.1879  0.0153  0.5408
   93SAPE  H18R 9190   4.202   3.372   5.848  1.5125 -0.8311  0.6130
   93SAPE  H18S 9191   4.339   3.439   5.921 -0.2858 -1.3764 -0.0825
   93SAPE  C219 9192   4.284   3.537   5.734  0.0803  0.0362  0.2464
   93SAPE  H19R 9193   4.322   3.640   5.750 -1.8657  0.7786  0.3564
   93SAPE  H19S 9194   4.189   3.539   5.676  0.2044 -2.4992 -0.1619
   93SAPE  C220 9195   4.386   3.458   5.656  0.4305 -0.0240 -0.5728
   93SAPE  H20R 9196   4.345   3.359   5.629 -0.9708  0.4354 -0.2137
   93SAPE  H20S 9197   4.475   3.439   5.721 -0.0414  1.5185  0.5895
   93SAPE  H20T 9198   4.417   3.511   5.564 -0.8418 -0.3988 -1.2351
   93SAPE   C33 9199   3.842   3.979   6.827  0.0278 -0.2127  0.4828
   93SAPE   H3X 9200   3.933   3.938   6.877 -0.3332 -1.0251  0.4767
   93SAPE   H3Y 9201   3.855   4.088   6.807 -0.1866  0.3267  2.9298
   93SAPE   C34 9202   3.838   3.925   6.682  0.0256  0.2863  0.3638
   93SAPE   H4X 9203   3.828   3.815   6.693 -0.0136  0.3121  0.5945
   93SAPE   H4Y 9204   3.934   3.958   6.637 -0.0971 -0.5151 -0.4930
   93SAPE   C35 9205   3.721   3.979   6.602  0.0086 -0.6938  0.3727
   93SAPE   H5X 9206   3.717   4.090   6.599  2.6799 -0.5536 -0.0818
   93SAPE   H5Y 9207   3.621   3.951   6.641  0.5006 -1.1369  1.3283
   93SAPE   C36 9208   3.734   3.918   6.464 -0.9941  0.4622 -0.0363
   93SAPE   H6X 9209   3.633   3.895   6.423 -0.0980 -1.3268 -1.3457
   93SAPE   H6Y 9210   3.764   3.812   6.478 -1.7498 -0.0415 -1.8961
   93SAPE   C37 9211   3.821   3.992   6.360  0.1253  1.3148  0.4054
   93SAPE   H7X 9212   3.924   3.965   6.391  0.3303  0.9398 -0.5980
   93SAPE   H7Y 9213   3.805   4.102   6.357  0.8617  1.4372  0.6552
   93SAPE   C38 9214   3.802   3.943   6.220 -0.3196  0.5232  0.5501
   93SAPE   H8X 9215   3.885   3.977   6.155 -0.1069 -0.8140  0.0940
   93SAPE   H8Y 9216   3.700   3.980   6.196  0.0054  0.3976 -1.1062
   93SAPE   C39 9217   3.803   3.789   6.200 -0.0323  0.6563  0.5311
   93SAPE   H9X 9218   3.705   3.747   6.229  0.0297 -0.8951 -1.2845
   93SAPE   H9Y 9219   3.889   3.751   6.261 -0.0195  0.4775  0.4037
   93SAPE  C310 9220   3.838   3.743   6.059 -0.3928  0.0606  0.1112
   93SAPE  H10X 9221   3.851   3.633   6.055  0.2414  0.1398 -0.2767
   93SAPE  H10Y 9222   3.935   3.791   6.034  0.9305 -1.6443  1.7606
   93SAPE  C311 9223   3.746   3.786   5.944 -0.5086  0.3492  0.7855
   93SAPE  H11X 9224   3.739   3.896   5.955 -1.0945  0.3202  0.7150
   93SAPE  H11Y 9225   3.645   3.740   5.952 -0.6525  0.1166 -1.5133
   93SAPE  C312 9226   3.802   3.741   5.806  0.3469  0.3778  0.0065
   93SAPE  H12X 9227   3.816   3.631   5.800  1.9787  0.6128 -1.2271
   93SAPE  H12Y 9228   3.898   3.796   5.798  0.4124  0.3479  0.5245
   93SAPE  C313 9229   3.708   3.772   5.689  0.3511  0.4033  0.3089
   93SAPE  H13X 9230   3.689   3.881   5.683  1.4802  0.6913  1.4813
   93SAPE  H13Y 9231   3.614   3.728   5.727  0.6739  0.2920  0.9859
   93SAPE  C314 9232   3.756   3.718   5.553  0.0807  0.6293  0.1298
   93SAPE  H14X 9233   3.674   3.684   5.486 -0.2336  3.2957 -0.9876
   93SAPE  H14Y 9234   3.815   3.630   5.587  1.6690  2.0152  1.1070
   93SAPE  C315 9235   3.850   3.813   5.485  0.1843  0.1437  0.1525
   93SAPE  H15X 9236   3.949   3.834   5.531  0.1584  1.3273 -0.3089
   93SAPE  H15Y 9237   3.798   3.910   5.491  0.9587  0.6921 -1.3716
   93SAPE  C316 9238   3.879   3.789   5.343  0.8798 -0.2926  0.1699
   93SAPE  H16X 9239   3.918   3.881   5.296 -0.5354  1.0911  1.6123
   93SAPE  H16Y 9240   3.790   3.756   5.286  0.8823 -0.6662  0.3779
   93SAPE  C317 9241   3.987   3.682   5.324 -0.1188  0.8523 -0.2426
   93SAPE  H17X 9242   3.948   3.583   5.354  0.5894  0.6081 -0.1058
   93SAPE  H17Y 9243   4.068   3.706   5.397  0.1197 -3.1868  1.0527
   93SAPE  C318 9244   4.040   3.691   5.183  0.3115 -1.4930 -0.0733
   93SAPE  H18X 9245   4.124   3.621   5.166  1.0195 -0.4821 -0.8618
   93SAPE  H18Y 9246   4.076   3.795   5.168 -2.1612 -0.4434  0.6182
   93SAPE  H18Z 9247   3.963   3.666   5.106  0.7976  1.4952 -1.6631
   94SAPE     N 9248   5.371   6.769   6.731  0.1643 -0.1959  0.4483
   94SAPE   HN1 9249   5.380   6.670   6.700 -0.4706  1.0261 -4.4448
   94SAPE   HN2 9250   5.456   6.819   6.697 -1.3913  1.0383 -1.9704
   94SAPE   HN3 9251   5.382   6.773   6.834  0.1155  0.9047  0.4273
   94SAPE   C12 9252   5.235   6.833   6.695 -0.3815 -0.4935  0.1006
   94SAPE  H12A 9253   5.207   6.817   6.588 -0.3736 -1.1785  0.1990
   94SAPE  H12B 9254   5.262   6.939   6.714  0.7520 -0.5625 -0.9999
   94SAPE   C11 9255   5.114   6.792   6.790 -0.1649  0.2708  0.4767
   94SAPE  H11A 9256   5.088   6.684   6.783 -2.6088  0.8566 -0.3034
   94SAPE  H11B 9257   5.019   6.835   6.754 -0.7863 -1.1616  0.3633
   94SAPE     P 9258   5.062   6.954   6.990  0.3547 -0.0198  0.4175
   94SAPE   O13 9259   4.918   6.911   6.989  0.2497 -0.0421  0.2143
   94SAPE   O14 9260   5.120   6.979   7.125 -0.2975 -0.7598  0.3447
   94SAPE   O12 9261   5.137   6.831   6.925 -0.4605 -0.2907  0.3576
   94SAPE   O11 9262   5.089   7.070   6.896 -0.5282 -0.0713  0.2947
   94SAPE    C1 9263   5.004   7.174   6.868  0.0700  0.1113 -0.3215
   94SAPE    HA 9264   4.912   7.173   6.929  0.9598  1.6488  1.1257
   94SAPE    HB 9265   5.056   7.270   6.891  0.1279 -0.5797  2.8829
   94SAPE    C2 9266   4.957   7.178   6.714  0.1730  0.7889 -0.0473
   94SAPE    HS 9267   4.901   7.274   6.705 -0.4525  0.5100  0.7590
   94SAPE   O21 9268   4.874   7.071   6.690  0.5459  0.6892 -0.6339
   94SAPE   C21 9269   4.750   7.061   6.739 -0.0694  0.2467  0.2710
   94SAPE   O22 9270   4.688   7.140   6.809  0.2286  0.8039 -0.2990
   94SAPE   C22 9271   4.695   6.920   6.713  0.0727 -0.4295 -0.6674
   94SAPE   H2R 9272   4.777   6.847   6.729 -0.9830 -1.1599  1.8301
   94SAPE   H2S 9273   4.615   6.891   6.783  2.3202 -0.7107  1.9476
   94SAPE    C3 9274   5.079   7.187   6.615 -0.2876 -0.1229 -0.0013
   94SAPE    HX 9275   5.136   7.096   6.641 -0.5509 -0.0646  0.8200
   94SAPE    HY 9276   5.135   7.278   6.646 -0.6333  0.2826 -0.5597
   94SAPE   O31 9277   5.049   7.203   6.483  0.4172  0.3203  0.3423
   94SAPE   C31 9278   5.062   7.099   6.405 -0.5723  0.6809  0.1600
   94SAPE   O32 9279   5.107   6.994   6.444  0.1383 -0.4282 -0.2158
   94SAPE   C32 9280   5.037   7.149   6.268  0.2926  0.7489  0.8586
   94SAPE   H2X 9281   5.130   7.179   6.216 -0.4470 -3.1651 -3.3702
   94SAPE   H2Y 9282   4.973   7.240   6.273  1.8907  2.1515 -1.9624
   94SAPE   C23 9283   4.642   6.896   6.574 -0.0926  0.0513 -0.5146
   94SAPE   H3R 9284   4.574   6.981   6.550 -0.5942 -0.3429 -0.5017
   94SAPE   H3S 9285   4.566   6.815   6.579 -0.8771  0.8128  0.1023
   94SAPE   C24 9286   4.748   6.892   6.465  0.0847  0.5103 -0.6710
   94SAPE   H4R 9287   4.800   6.989   6.478 -0.3320  0.9490 -2.1175
   94SAPE   H4S 9288   4.690   6.882   6.370 -0.8466 -0.2264 -0.0441
   94SAPE   C25 9289   4.840   6.774   6.484  0.8702  0.4219  0.7168
   94SAPE   H5R 9290   4.941   6.807   6.511  0.7511  0.5222  1.0536
   94SAPE   C26 9291   4.808   6.638   6.462  0.5270  0.3203 -0.5581
   94SAPE   H6R 9292   4.886   6.561   6.468  0.2841  0.0238 -1.1984
   94SAPE   C27 9293   4.661   6.588   6.446 -0.1071 -0.7507  0.3505
   94SAPE   H7R 9294   4.613   6.658   6.374 -0.9848 -3.5902 -2.0328
   94SAPE   H7S 9295   4.616   6.599   6.546 -0.2100 -1.7215  0.4240
   94SAPE   C28 9296   4.639   6.448   6.402  0.8251  0.1599  0.0486
   94SAPE   H8R 9297   4.659   6.377   6.484  0.9835  1.6214  1.3115
   94SAPE   C29 9298   4.591   6.397   6.290 -0.4722 -0.2101  0.2573
   94SAPE   H9R 9299   4.563   6.291   6.287  0.2894 -0.4004 -0.4320
   94SAPE  C210 9300   4.560   6.464   6.165  0.0888 -0.1119  0.2711
   94SAPE  H10R 9301   4.607   6.410   6.080 -0.8541 -1.1402  0.3743
   94SAPE  H10S 9302   4.608   6.564   6.161  1.2019 -0.6814 -1.2826
   94SAPE  C211 9303   4.413   6.476   6.152  0.5155 -0.0866  0.3512
   94SAPE  H11R 9304   4.346   6.474   6.239 -3.2517 -1.6401 -2.3212
   94SAPE  C212 9305   4.351   6.472   6.034  0.1930  0.6262 -0.1768
   94SAPE  H12R 9306   4.242   6.477   6.023  0.1804 -0.6282 -0.8494
   94SAPE  C213 9307   4.406   6.463   5.894 -0.1379  0.0442 -0.0789
   94SAPE  H13R 9308   4.356   6.381   5.837 -2.5235  1.3061  0.0976
   94SAPE  H13S 9309   4.515   6.440   5.883  0.0720  1.2811 -0.7070
   94SAPE  C214 9310   4.393   6.604   5.837  0.0997 -0.2250  1.0241
   94SAPE  H14R 9311   4.410   6.686   5.908  2.9633 -0.7036  1.0226
   94SAPE  C215 9312   4.355   6.639   5.710  0.0733  0.3501  0.3719
   94SAPE  H15R 9313   4.353   6.746   5.687 -0.0014  0.2724  0.0082
   94SAPE  C216 9314   4.327   6.541   5.604 -0.0140 -0.3568 -0.0104
   94SAPE  H16R 9315   4.371   6.439   5.617 -0.9131 -0.7363  0.1073
   94SAPE  H16S 9316   4.360   6.581   5.506  0.1319 -2.8674 -1.0640
   94SAPE  C217 9317   4.175   6.505   5.591  0.0123 -0.4847  0.3202
   94SAPE  H17R 9318   4.115   6.597   5.571 -1.8250 -1.7312 -0.2500
   94SAPE  H17S 9319   4.152   6.456   5.688  0.6289 -4.3238 -1.3039
   94SAPE  C218 9320   4.141   6.408   5.475 -0.5295 -0.6121  0.3714
   94SAPE  H18R 9321   4.034   6.381   5.488 -0.8627  0.5459  0.1425
   94SAPE  H18S 9322   4.205   6.319   5.487  0.1297 -0.0355  1.2609
   94SAPE  C219 9323   4.175   6.466   5.338  0.6071 -0.6625  0.2533
   94SAPE  H19R 9324   4.277   6.509   5.335  0.7597 -1.0379 -1.7449
   94SAPE  H19S 9325   4.108   6.551   5.312  0.3411 -1.3710 -1.5553
   94SAPE  C220 9326   4.170   6.369   5.220  0.5050 -0.4866  0.1588
   94SAPE  H20R 9327   4.236   6.280   5.233  0.5392 -0.5909 -0.6614
   94SAPE  H20S 9328   4.199   6.415   5.124  1.6196  1.4983  1.3860
   94SAPE  H20T 9329   4.066   6.332   5.208  0.0584  0.5745  0.7038
   94SAPE   C33 9330   4.964   7.033   6.192 -0.5889  0.3089 -0.1733
   94SAPE   H3X 9331   4.888   7.081   6.126  0.4658 -0.1515 -1.7817
   94SAPE   H3Y 9332   4.911   6.964   6.262  0.1200  1.6819  1.7789
   94SAPE   C34 9333   5.063   6.950   6.108  0.2972 -0.5201  0.5026
   94SAPE   H4X 9334   5.014   6.853   6.084 -2.6134  0.2892  2.4892
   94SAPE   H4Y 9335   5.162   6.922   6.150  2.2440 -0.9858 -3.9090
   94SAPE   C35 9336   5.074   7.017   5.968  0.2865 -0.3153 -0.4306
   94SAPE   H5X 9337   5.117   7.118   5.981 -0.4463 -0.0238 -0.2360
   94SAPE   H5Y 9338   4.970   7.041   5.940  0.0349  2.3499  2.3112
   94SAPE   C36 9339   5.137   6.941   5.855  0.5112  0.1692 -0.0667
   94SAPE   H6X 9340   5.083   6.845   5.859  0.4183  0.2494  0.8437
   94SAPE   H6Y 9341   5.246   6.920   5.868  0.2472 -0.9142  0.4840
   94SAPE   C37 9342   5.125   7.013   5.720 -0.8748  0.0870 -0.2333
   94SAPE   H7X 9343   5.205   7.090   5.715 -0.4873 -0.1121  1.9664
   94SAPE   H7Y 9344   5.030   7.070   5.721  0.6654  2.8428 -0.3020
   94SAPE   C38 9345   5.134   6.917   5.605 -0.9331 -0.0192  0.3363
   94SAPE   H8X 9346   5.052   6.842   5.605 -1.1545  0.2202  0.0276
   94SAPE   H8Y 9347   5.232   6.864   5.599 -2.5279 -3.2556  0.9559
   94SAPE   C39 9348   5.105   6.979   5.461  0.2530  0.2933 -0.5685
   94SAPE   H9X 9349   5.198   7.033   5.433  0.1153  0.5239 -0.5757
   94SAPE   H9Y 9350   5.031   7.059   5.476  1.7375  1.3359  1.8276
   94SAPE  C310 9351   5.086   6.871   5.355  0.4172 -0.1831  0.4654
   94SAPE  H10X 9352   5.015   6.789   5.377  0.6330 -0.5194 -0.0901
   94SAPE  H10Y 9353   5.184   6.824   5.335  0.8075  1.4234 -1.7801
   94SAPE  C311 9354   5.053   6.935   5.214 -0.1944 -0.3897  0.6314
   94SAPE  H11X 9355   5.134   7.011   5.205 -2.9343  2.7427  0.6124
   94SAPE  H11Y 9356   4.960   6.994   5.227 -0.6390 -0.3619 -2.0982
   94SAPE  C312 9357   5.030   6.826   5.108  1.0478 -0.2194 -0.5195
   94SAPE  H12X 9358   4.956   6.757   5.153 -2.1169  3.7420  0.9347
   94SAPE  H12Y 9359   5.128   6.773   5.106  0.8953 -0.6160  1.0432
   94SAPE  C313 9360   4.994   6.883   4.968 -0.4897  0.2183 -0.5899
   94SAPE  H13X 9361   5.077   6.947   4.930  0.6787 -0.1464  1.2470
   94SAPE  H13Y 9362   4.910   6.950   4.994  0.2467  0.7177  0.5742
   94SAPE  C314 9363   4.962   6.770   4.869 -0.0868 -0.0230  0.3734
   94SAPE  H14X 9364   4.882   6.714   4.922 -0.3027  1.6484  1.9040
   94SAPE  H14Y 9365   5.050   6.702   4.862 -0.4798 -0.5710  0.6889
   94SAPE  C315 9366   4.922   6.812   4.724  0.5700 -0.3346  0.2619
   94SAPE  H15X 9367   4.947   6.723   4.662 -0.7361 -1.8159  1.7550
   94SAPE  H15Y 9368   4.999   6.886   4.695  1.5118 -1.5413 -0.3983
   94SAPE  C316 9369   4.776   6.862   4.697 -0.9884  0.5592 -0.3048
   94SAPE  H16X 9370   4.749   6.931   4.779 -2.2218 -0.0472 -0.1760
   94SAPE  H16Y 9371   4.706   6.777   4.687  1.4214 -1.5489 -0.3782
   94SAPE  C317 9372   4.760   6.929   4.557  0.7817 -0.3813 -0.2655
   94SAPE  H17X 9373   4.653   6.959   4.547  0.5568 -1.7067 -2.4655
   94SAPE  H17Y 9374   4.774   6.856   4.474  5.1581 -0.6361  0.4825
   94SAPE  C318 9375   4.845   7.046   4.519 -0.9866 -0.3191  0.4094
   94SAPE  H18X 9376   4.954   7.036   4.537 -0.7327  3.6691  2.2915
   94SAPE  H18Y 9377   4.827   7.143   4.571 -1.0664 -1.3283  2.3250
   94SAPE  H18Z 9378   4.825   7.065   4.411 -1.1350  3.4912  0.9639
   95SAPE     N 9379   6.863   4.958   6.726  0.4115  0.0882  0.2865
   95SAPE   HN1 9380   6.939   4.996   6.786 -1.4926  0.3218  2.7091
   95SAPE   HN2 9381   6.831   5.037   6.666 -1.1648  1.0476  2.2812
   95SAPE   HN3 9382   6.786   4.935   6.791  0.7318  1.0612  1.0451
   95SAPE   C12 9383   6.903   4.831   6.662 -0.1633  0.0446  0.0897
   95SAPE  H12A 9384   6.956   4.861   6.568  0.4826  2.2838  1.0823
   95SAPE  H12B 9385   6.814   4.770   6.636  0.6409 -0.6007 -1.2634
   95SAPE   C11 9386   7.003   4.758   6.747 -0.4357 -0.4812  0.1531
   95SAPE  H11A 9387   7.029   4.658   6.705 -1.1577  0.6060 -3.1831
   95SAPE  H11B 9388   6.958   4.731   6.845 -1.6194 -1.5102 -0.6402
   95SAPE     P 9389   7.249   4.782   6.831  0.0855  0.2812  0.0914
   95SAPE   O13 9390   7.308   4.881   6.924 -0.0182  0.3848  0.5038
   95SAPE   O14 9391   7.215   4.645   6.882 -0.1167  0.0730  0.2079
   95SAPE   O12 9392   7.119   4.847   6.774  0.3490 -0.4449  0.3272
   95SAPE   O11 9393   7.339   4.771   6.705 -0.1458  0.5893  0.5045
   95SAPE    C1 9394   7.338   4.665   6.608 -0.0260  0.1515  0.5127
   95SAPE    HA 9395   7.261   4.593   6.646  0.6812  0.1170  1.9637
   95SAPE    HB 9396   7.311   4.702   6.507 -0.9323  2.0469  1.4101
   95SAPE    C2 9397   7.475   4.587   6.589 -0.3442  0.0561  0.0292
   95SAPE    HS 9398   7.510   4.580   6.695 -1.2661  2.6905  0.5940
   95SAPE   O21 9399   7.568   4.668   6.514  0.1898  0.2207 -0.5116
   95SAPE   C21 9400   7.698   4.647   6.537  0.3279 -0.3593  0.1455
   95SAPE   O22 9401   7.732   4.577   6.630  0.2201  0.5110 -0.2588
   95SAPE   C22 9402   7.793   4.706   6.435  0.4461  0.5043 -0.3330
   95SAPE   H2R 9403   7.887   4.706   6.494  1.1332 -0.5513 -1.3766
   95SAPE   H2S 9404   7.799   4.625   6.358  0.1154  0.5250 -0.3796
   95SAPE    C3 9405   7.461   4.445   6.529  0.2858  0.5572 -0.0042
   95SAPE    HX 9406   7.403   4.378   6.597  1.4323  0.1896  0.6379
   95SAPE    HY 9407   7.560   4.395   6.525 -0.4055 -0.8144 -0.3022
   95SAPE   O31 9408   7.385   4.459   6.409 -0.1572  0.8074 -0.9800
   95SAPE   C31 9409   7.443   4.405   6.301 -1.1951 -0.0128  0.1727
   95SAPE   O32 9410   7.551   4.347   6.302 -0.1731  0.4621 -0.0502
   95SAPE   C32 9411   7.367   4.432   6.171 -0.0965  0.1607  0.1673
   95SAPE   H2X 9412   7.367   4.543   6.163 -0.3659  0.5026  3.4575
   95SAPE   H2Y 9413   7.264   4.400   6.195 -0.2729  0.8876  0.4201
   95SAPE   C23 9414   7.747   4.844   6.371  0.3672  0.4450 -0.6142
   95SAPE   H3R 9415   7.763   4.916   6.454  0.1209  0.8643 -0.9269
   95SAPE   H3S 9416   7.639   4.845   6.343  0.4147  0.5972 -0.7955
   95SAPE   C24 9417   7.843   4.903   6.263 -0.4867  0.1609  0.5027
   95SAPE   H4R 9418   7.824   5.013   6.265 -3.7246 -0.2782  0.3772
   95SAPE   H4S 9419   7.806   4.860   6.168  0.1090  2.1532 -0.7019
   95SAPE   C25 9420   7.992   4.870   6.296  0.7378 -0.3439  0.5932
   95SAPE   H5R 9421   8.030   4.918   6.388  3.1953 -0.0536 -0.4848
   95SAPE   C26 9422   8.080   4.797   6.222  0.4392 -0.2713 -0.4871
   95SAPE   H6R 9423   8.181   4.797   6.265  0.9994 -0.1159 -1.7390
   95SAPE   C27 9424   8.045   4.736   6.088 -0.0046  0.1613 -0.8707
   95SAPE   H7R 9425   7.942   4.693   6.089 -0.7546  1.8828  0.5491
   95SAPE   H7S 9426   8.101   4.642   6.066 -1.8545 -1.0205 -0.7223
   95SAPE   C28 9427   8.058   4.833   5.974 -0.6068 -0.3154  0.3899
   95SAPE   H8R 9428   8.093   4.933   6.003  1.6082 -1.1146  0.7023
   95SAPE   C29 9429   8.011   4.820   5.848  0.2858  0.4736  0.8845
   95SAPE   H9R 9430   8.027   4.903   5.778  1.2754  0.1933  0.7741
   95SAPE  C210 9431   7.946   4.696   5.786  0.0509  0.2619  0.0217
   95SAPE  H10R 9432   7.836   4.699   5.802  0.2799 -1.7709  2.7703
   95SAPE  H10S 9433   7.976   4.611   5.851 -2.9543  0.8161  2.3740
   95SAPE  C211 9434   7.966   4.685   5.639 -0.3326  0.0913  0.5565
   95SAPE  H11R 9435   8.026   4.597   5.610 -2.7310 -0.6692 -2.8072
   95SAPE  C212 9436   7.898   4.753   5.545  0.1199 -0.3954  0.4928
   95SAPE  H12R 9437   7.928   4.742   5.439 -3.0689 -2.7976 -0.3324
   95SAPE  C213 9438   7.806   4.878   5.569  0.6806  0.1729 -0.0137
   95SAPE  H13R 9439   7.851   4.972   5.534 -1.6049  1.4714  0.3301
   95SAPE  H13S 9440   7.793   4.884   5.680 -0.9061 -1.1292 -0.0961
   95SAPE  C214 9441   7.662   4.864   5.524 -0.4651 -0.3440 -0.4456
   95SAPE  H14R 9442   7.609   4.791   5.587 -0.8323  0.3500  0.0596
   95SAPE  C215 9443   7.593   4.935   5.427 -0.4658  0.4012 -0.2090
   95SAPE  H15R 9444   7.493   4.894   5.402 -0.2209  1.2597 -2.9748
   95SAPE  C216 9445   7.648   5.044   5.340 -0.4674 -0.2813 -0.2076
   95SAPE  H16R 9446   7.653   5.002   5.237  0.5767 -0.3950 -0.1238
   95SAPE  H16S 9447   7.754   5.066   5.366 -0.8983  4.2355 -1.4461
   95SAPE  C217 9448   7.552   5.165   5.333 -0.3167 -0.1285  0.3466
   95SAPE  H17R 9449   7.451   5.125   5.311 -0.1833 -0.7790  0.8880
   95SAPE  H17S 9450   7.579   5.221   5.241 -1.6999 -1.5751 -0.9888
   95SAPE  C218 9451   7.553   5.253   5.463 -0.2467  0.3826  0.1813
   95SAPE  H18R 9452   7.515   5.194   5.548 -2.4224 -0.0422 -1.0245
   95SAPE  H18S 9453   7.484   5.337   5.437  1.4561  1.8184  0.0680
   95SAPE  C219 9454   7.691   5.307   5.503  0.2044 -0.6468  0.3848
   95SAPE  H19R 9455   7.746   5.333   5.410  0.0216  0.2013  0.5067
   95SAPE  H19S 9456   7.737   5.222   5.559 -0.1284 -1.9798 -1.2980
   95SAPE  C220 9457   7.672   5.434   5.594  0.3346 -0.2095  0.4584
   95SAPE  H20R 9458   7.768   5.456   5.645  0.0432  0.9212  0.5446
   95SAPE  H20S 9459   7.589   5.405   5.662 -2.6357  0.6849 -2.4503
   95SAPE  H20T 9460   7.643   5.526   5.538  1.6183 -1.2847 -2.1784
   95SAPE   C33 9461   7.419   4.367   6.038 -0.7461 -0.4207  0.1464
   95SAPE   H3X 9462   7.334   4.374   5.967 -0.3240  2.5737 -0.2030
   95SAPE   H3Y 9463   7.446   4.260   6.049 -1.1228 -0.5102  0.1949
   95SAPE   C34 9464   7.529   4.439   5.953 -0.1848  0.7860 -0.0193
   95SAPE   H4X 9465   7.615   4.455   6.020 -0.1854  0.1554  0.1313
   95SAPE   H4Y 9466   7.489   4.541   5.930 -0.1514  0.6444 -0.7368
   95SAPE   C35 9467   7.566   4.350   5.829 -0.6577 -0.3561  0.1453
   95SAPE   H5X 9468   7.475   4.320   5.774  0.7940  0.4085 -2.9228
   95SAPE   H5Y 9469   7.620   4.256   5.853 -0.0449  0.0780  0.5222
   95SAPE   C36 9470   7.669   4.419   5.735  0.6021  0.9120  0.1877
   95SAPE   H6X 9471   7.762   4.449   5.788  0.9572  2.5856 -1.3200
   95SAPE   H6Y 9472   7.636   4.516   5.693 -2.2259 -0.9910 -2.3905
   95SAPE   C37 9473   7.710   4.327   5.615  0.1124 -0.3702  0.5468
   95SAPE   H7X 9474   7.786   4.386   5.559  0.1285 -1.1896 -0.3176
   95SAPE   H7Y 9475   7.616   4.314   5.556  0.7687 -1.4616 -0.3019
   95SAPE   C38 9476   7.767   4.182   5.640  0.0773 -0.2174 -0.1884
   95SAPE   H8X 9477   7.686   4.122   5.687 -0.4930 -0.0575 -0.9690
   95SAPE   H8Y 9478   7.855   4.176   5.708  0.8965  0.2946 -1.1791
   95SAPE   C39 9479   7.796   4.119   5.501  0.1046 -0.1542 -1.2922
   95SAPE   H9X 9480   7.705   4.141   5.441 -1.2218 -0.5903  0.4889
   95SAPE   H9Y 9481   7.804   4.009   5.509 -1.4303 -0.4853 -3.2767
   95SAPE  C310 9482   7.922   4.162   5.428  0.0228  0.1178  0.0844
   95SAPE  H10X 9483   8.002   4.157   5.505 -0.8231  0.4924  1.0098
   95SAPE  H10Y 9484   7.905   4.266   5.392 -0.0130  0.8753  2.1901
   95SAPE  C311 9485   7.962   4.067   5.307 -0.0741  0.4217  0.3716
   95SAPE  H11X 9486   7.899   4.106   5.225 -0.7293  0.5135  0.9036
   95SAPE  H11Y 9487   7.928   3.962   5.322 -0.8303  0.2351 -2.1655
   95SAPE  C312 9488   8.109   4.067   5.263 -0.3636  0.0057  0.4407
   95SAPE  H12X 9489   8.171   4.017   5.340 -1.2444 -1.5773  0.1595
   95SAPE  H12Y 9490   8.154   4.169   5.262 -1.0050  0.3190  1.4706
   95SAPE  C313 9491   8.138   4.007   5.119  0.8804  0.9947  0.3955
   95SAPE  H13X 9492   8.132   3.898   5.140 -1.7751  1.0061 -0.0318
   95SAPE  H13Y 9493   8.242   4.033   5.090  0.3281  0.7094 -2.0014
   95SAPE  C314 9494   8.049   4.066   5.004 -0.0456  0.2049  0.4422
   95SAPE  H14X 9495   8.038   4.176   5.002 -1.8353  0.0528 -1.4482
   95SAPE  H14Y 9496   7.945   4.039   5.032  0.0373  0.9696  1.5830
   95SAPE  C315 9497   8.089   4.005   4.871 -0.1371 -0.0428  0.2330
   95SAPE  H15X 9498   8.093   3.895   4.876 -0.8118 -0.0664  0.3179
   95SAPE  H15Y 9499   8.188   4.048   4.842  0.5319 -2.1715 -0.8206
   95SAPE  C316 9500   7.986   4.040   4.758  0.1360  0.2409 -0.3387
   95SAPE  H16X 9501   7.970   4.150   4.751 -2.9982 -0.0428  0.5902
   95SAPE  H16Y 9502   7.889   4.000   4.795  0.7842 -1.3912 -0.3297
   95SAPE  C317 9503   8.001   3.981   4.620 -0.6517 -0.9163 -0.6627
   95SAPE  H17X 9504   7.914   3.996   4.553  0.7445 -0.2226 -2.4337
   95SAPE  H17Y 9505   8.001   3.872   4.641 -1.1655 -0.6650  0.7028
   95SAPE  C318 9506   8.128   4.006   4.537  0.0379  0.0753 -0.4264
   95SAPE  H18X 9507   8.124   4.106   4.489 -1.7446  0.1817 -0.1062
   95SAPE  H18Y 9508   8.145   3.930   4.458 -0.1346 -0.7052  0.2722
   95SAPE  H18Z 9509   8.216   4.000   4.604  0.7843 -3.0215 -1.5075
   96SAPE     N 9510   4.638   0.116   7.255 -0.1052  0.0127 -0.2903
   96SAPE   HN1 9511   4.559   0.135   7.320  0.1386  2.7819 -0.6808
   96SAPE   HN2 9512   4.719   0.062   7.292  1.1953  1.7098 -0.5216
   96SAPE   HN3 9513   4.670   0.212   7.229  0.3662 -0.1710 -0.4008
   96SAPE   C12 9514   4.570   0.061   7.136 -0.2599 -0.0028  0.1929
   96SAPE  H12A 9515   4.518  -0.033   7.166 -2.5506  1.3156  0.5536
   96SAPE  H12B 9516   4.642   0.049   7.051 -0.3374  2.4588 -0.2888
   96SAPE   C11 9517   4.463   0.163   7.080 -0.8850  0.4102  0.1090
   96SAPE  H11A 9518   4.412   0.107   6.998 -1.3476  0.9343  0.0373
   96SAPE  H11B 9519   4.523   0.244   7.033 -0.5027 -0.3827 -0.8128
   96SAPE     P 9520   4.325   0.352   7.180  0.0744 -0.5389 -0.1015
   96SAPE   O13 9521   4.217   0.366   7.275 -0.0498 -0.1370 -0.5220
   96SAPE   O14 9522   4.447   0.435   7.204  0.1535  0.0189 -0.3392
   96SAPE   O12 9523   4.370   0.206   7.175 -0.1519  0.1114 -0.7225
   96SAPE   O11 9524   4.271   0.376   7.030 -0.4571 -0.3706 -0.2035
   96SAPE    C1 9525   4.351   0.433   6.935 -0.4127 -0.7072  1.0511
   96SAPE    HA 9526   4.404   0.523   6.972  0.4146 -0.3595 -0.8355
   96SAPE    HB 9527   4.434   0.370   6.896  0.0764  0.0306  0.8649
   96SAPE    C2 9528   4.271   0.491   6.808 -0.2324  0.6911  0.4483
   96SAPE    HS 9529   4.199   0.565   6.850 -0.8442 -0.1343  0.8790
   96SAPE   O21 9530   4.200   0.381   6.743 -0.1753  0.3814 -0.2252
   96SAPE   C21 9531   4.089   0.427   6.674 -0.1006 -0.3661  0.3564
   96SAPE   O22 9532   4.071   0.545   6.652  0.1424 -0.6653  0.1250
   96SAPE   C22 9533   4.003   0.308   6.620 -0.0769 -0.0393 -0.1552
   96SAPE   H2R 9534   3.971   0.238   6.700  0.1930 -0.6928 -0.6106
   96SAPE   H2S 9535   3.909   0.355   6.584  0.0207  0.3946  0.1374
   96SAPE    C3 9536   4.367   0.554   6.702  0.3229 -0.4761 -0.2415
   96SAPE    HX 9537   4.412   0.645   6.746  0.0977 -0.9232  0.9374
   96SAPE    HY 9538   4.299   0.589   6.621 -0.1522  0.8776  0.7158
   96SAPE   O31 9539   4.459   0.457   6.647 -0.0209 -0.3204 -0.1860
   96SAPE   C31 9540   4.527   0.487   6.534  0.6638 -0.4865 -0.0415
   96SAPE   O32 9541   4.505   0.588   6.464  0.0783  0.2066 -0.8364
   96SAPE   C32 9542   4.634   0.383   6.516  0.2582 -0.3917  0.4156
   96SAPE   H2X 9543   4.593   0.280   6.512  0.5497 -0.5201 -3.5710
   96SAPE   H2Y 9544   4.711   0.392   6.595 -0.2161 -1.0712  0.9623
   96SAPE   C23 9545   4.089   0.233   6.511 -0.0375 -0.8208  0.2008
   96SAPE   H3R 9546   4.026   0.150   6.472  1.0185 -1.2358 -0.6579
   96SAPE   H3S 9547   4.174   0.181   6.560  0.5168  0.8389  1.0868
   96SAPE   C24 9548   4.150   0.320   6.402  0.0191  0.2329  0.7107
   96SAPE   H4R 9549   4.208   0.251   6.337  0.6280  0.2919  1.1769
   96SAPE   H4S 9550   4.230   0.389   6.437  0.5240 -0.6331  1.2993
   96SAPE   C25 9551   4.032   0.389   6.344  0.2499  0.0116  0.0459
   96SAPE   H5R 9552   3.977   0.448   6.419 -0.0686  0.4266 -0.5070
   96SAPE   C26 9553   3.979   0.382   6.220  0.1033 -0.3648 -0.6714
   96SAPE   H6R 9554   3.889   0.445   6.209 -0.4483 -1.1540 -0.8300
   96SAPE   C27 9555   4.035   0.317   6.097 -0.1844  0.2800 -0.1017
   96SAPE   H7R 9556   3.957   0.307   6.018  1.5435 -1.0977 -1.7287
   96SAPE   H7S 9557   4.041   0.208   6.122 -0.0077  0.1246 -0.7941
   96SAPE   C28 9558   4.167   0.364   6.041  0.8710 -0.6448  0.0432
   96SAPE   H8R 9559   4.206   0.463   6.071 -0.9490  1.0663 -2.7670
   96SAPE   C29 9560   4.208   0.316   5.922  0.3333  0.2525  0.4391
   96SAPE   H9R 9561   4.305   0.362   5.899  0.3074 -0.4124 -1.1513
   96SAPE  C210 9562   4.172   0.190   5.845 -0.0557 -0.1920  0.0455
   96SAPE  H10R 9563   4.118   0.118   5.910  1.2892 -0.8771  0.4280
   96SAPE  H10S 9564   4.265   0.138   5.815  1.5094  2.5187 -0.1788
   96SAPE  C211 9565   4.083   0.218   5.726  0.7748  0.0744  0.0233
   96SAPE  H11R 9566   3.981   0.252   5.749  0.6750  0.7362 -1.2954
   96SAPE  C212 9567   4.131   0.215   5.600  0.3608 -0.3445  0.5120
   96SAPE  H12R 9568   4.057   0.235   5.521  1.0079  0.5971  0.1289
   96SAPE  C213 9569   4.263   0.177   5.541 -0.6556 -0.4532  0.0298
   96SAPE  H13R 9570   4.234   0.137   5.442 -1.2078 -0.2551  0.1125
   96SAPE  H13S 9571   4.296   0.089   5.602 -2.2519 -2.9023 -2.4096
   96SAPE  C214 9572   4.365   0.289   5.522 -0.5953  0.3386  0.5589
   96SAPE  H14R 9573   4.427   0.332   5.602  0.9768 -0.1270 -0.3619
   96SAPE  C215 9574   4.396   0.345   5.407  0.1653 -0.3525 -0.1211
   96SAPE  H15R 9575   4.477   0.419   5.401 -0.2641  0.1492  0.2292
   96SAPE  C216 9576   4.335   0.323   5.268  0.2931 -0.4804 -0.3742
   96SAPE  H16R 9577   4.241   0.265   5.269 -0.2781  0.4206 -0.1806
   96SAPE  H16S 9578   4.406   0.254   5.218  3.0393  2.4189 -0.8424
   96SAPE  C217 9579   4.319   0.447   5.187  0.7576  0.5347 -0.4597
   96SAPE  H17R 9580   4.274   0.537   5.235 -0.7671 -0.5820  0.2643
   96SAPE  H17S 9581   4.245   0.416   5.111  1.8383  0.7402 -1.6494
   96SAPE  C218 9582   4.435   0.496   5.103  0.3000  0.0291 -0.0563
   96SAPE  H18R 9583   4.465   0.405   5.046  0.3827  0.3652 -0.5585
   96SAPE  H18S 9584   4.517   0.521   5.174 -0.7601 -0.8982  1.5553
   96SAPE  C219 9585   4.388   0.602   5.004  0.7200 -0.2082  0.3001
   96SAPE  H19R 9586   4.313   0.679   5.035  0.3262  1.5222 -4.2090
   96SAPE  H19S 9587   4.339   0.548   4.920  2.0131  1.0727 -1.3523
   96SAPE  C220 9588   4.507   0.678   4.948  0.3290 -0.6342 -0.0570
   96SAPE  H20R 9589   4.575   0.719   5.026 -0.4977  0.6331  0.0222
   96SAPE  H20S 9590   4.469   0.773   4.904  0.4005  0.1159  1.4542
   96SAPE  H20T 9591   4.557   0.621   4.867 -0.5466  0.7780 -1.6619
   96SAPE   C33 9592   4.708   0.383   6.381 -0.0935 -0.1227 -0.1569
   96SAPE   H3X 9593   4.782   0.301   6.376  1.1833  0.9188  0.9076
   96SAPE   H3Y 9594   4.766   0.476   6.364 -0.8792  0.2261 -1.0366
   96SAPE   C34 9595   4.601   0.366   6.272  0.3516 -0.8157  0.1348
   96SAPE   H4X 9596   4.526   0.446   6.289  0.9487 -0.8207  3.3385
   96SAPE   H4Y 9597   4.538   0.274   6.269 -0.3416 -0.3411  0.0218
   96SAPE   C35 9598   4.665   0.371   6.132 -0.2348  1.7325 -0.1063
   96SAPE   H5X 9599   4.712   0.271   6.118 -1.1564  1.3965 -0.9279
   96SAPE   H5Y 9600   4.743   0.450   6.131  2.3489 -0.6651 -0.1448
   96SAPE   C36 9601   4.561   0.393   6.024  0.3712  0.4638 -0.5118
   96SAPE   H6X 9602   4.513   0.493   6.035 -0.6557 -0.0405 -0.2419
   96SAPE   H6Y 9603   4.472   0.334   6.055  2.0882 -1.9504  0.1409
   96SAPE   C37 9604   4.609   0.360   5.882  0.1007  0.4347 -0.4416
   96SAPE   H7X 9605   4.551   0.270   5.854  0.4926 -1.2272  3.4350
   96SAPE   H7Y 9606   4.716   0.339   5.904  0.3987 -0.5797 -2.6522
   96SAPE   C38 9607   4.586   0.482   5.788  0.1988  0.7812 -0.0492
   96SAPE   H8X 9608   4.612   0.571   5.849 -0.4008  0.3070  0.9346
   96SAPE   H8Y 9609   4.479   0.496   5.761  0.0119 -1.2829 -0.5633
   96SAPE   C39 9610   4.669   0.466   5.665 -0.4975  0.4857 -0.3102
   96SAPE   H9X 9611   4.657   0.373   5.605  0.8812 -0.5898  1.0082
   96SAPE   H9Y 9612   4.770   0.441   5.704 -1.3130 -2.1734  0.3328
   96SAPE  C310 9613   4.668   0.594   5.578 -0.2408  0.2618  1.1029
   96SAPE  H10X 9614   4.724   0.673   5.633  0.5270  0.8315 -0.4498
   96SAPE  H10Y 9615   4.565   0.630   5.561 -0.2783  0.4357  1.6716
   96SAPE  C311 9616   4.758   0.584   5.448  0.3332 -0.2746 -0.0913
   96SAPE  H11X 9617   4.711   0.505   5.386 -0.0154  1.3312 -1.9623
   96SAPE  H11Y 9618   4.861   0.569   5.486  0.8838 -0.4788 -1.5738
   96SAPE  C312 9619   4.767   0.705   5.358 -0.9668  0.5448  0.9351
   96SAPE  H12X 9620   4.661   0.732   5.340 -1.3948 -1.0889  0.8796
   96SAPE  H12Y 9621   4.811   0.692   5.257 -0.8305  2.9245  0.6207
   96SAPE  C313 9622   4.846   0.827   5.414  0.3010 -0.0684  0.5090
   96SAPE  H13X 9623   4.946   0.798   5.452 -0.1738 -0.9154  1.1693
   96SAPE  H13Y 9624   4.795   0.868   5.504 -0.3045  0.4999 -0.0767
   96SAPE  C314 9625   4.852   0.937   5.303 -0.0506 -0.1819  0.6985
   96SAPE  H14X 9626   4.840   1.029   5.365  1.0224  0.0026  0.6490
   96SAPE  H14Y 9627   4.753   0.939   5.253 -0.9974 -1.5764  2.4263
   96SAPE  C315 9628   4.972   0.943   5.216  0.0266  0.0924 -0.1039
   96SAPE  H15X 9629   5.065   0.928   5.276  0.9149 -0.7698 -1.6011
   96SAPE  H15Y 9630   4.974   1.043   5.167 -1.4138  0.2502  0.1359
   96SAPE  C316 9631   4.992   0.833   5.108  0.7047  0.6857  0.4155
   96SAPE  H16X 9632   5.009   0.734   5.156  1.1196 -0.4120 -1.8764
   96SAPE  H16Y 9633   5.084   0.848   5.047 -1.1395  2.2387 -2.1519
   96SAPE  C317 9634   4.875   0.824   5.008 -0.3623 -0.7936 -0.6825
   96SAPE  H17X 9635   4.779   0.808   5.061 -1.4665  1.0565 -1.9990
   96SAPE  H17Y 9636   4.891   0.731   4.950  0.9668 -0.9927 -0.0459
   96SAPE  C318 9637   4.842   0.950   4.927  0.3344  0.5700  0.3107
   96SAPE  H18X 9638   4.921   0.964   4.849  1.9896 -2.5637  1.2421
   96SAPE  H18Y 9639   4.841   1.040   4.991  1.6922  0.4787  0.4902
   96SAPE  H18Z 9640   4.743   0.938   4.879  0.9322 -1.9486 -0.4554
   97SAPE     N 9641   3.598   0.991   7.090 -0.1112 -0.6401 -0.5266
   97SAPE   HN1 9642   3.496   1.015   7.086 -0.3652 -1.7928 -2.3641
   97SAPE   HN2 9643   3.612   0.901   7.140  2.5727 -0.9608 -1.6907
   97SAPE   HN3 9644   3.663   1.064   7.124  0.6986 -2.3499  1.8605
   97SAPE   C12 9645   3.631   0.962   6.941 -0.3108  0.2282  0.4954
   97SAPE  H12A 9646   3.553   0.889   6.913 -0.2775 -0.1157  1.2640
   97SAPE  H12B 9647   3.728   0.909   6.951 -0.8905 -0.6207  1.8355
   97SAPE   C11 9648   3.632   1.082   6.854  0.2926  0.2624  0.1265
   97SAPE  H11A 9649   3.527   1.119   6.846  0.6382  1.2597  0.0314
   97SAPE  H11B 9650   3.665   1.045   6.755  0.9519  0.5553  0.2323
   97SAPE     P 9651   3.863   1.231   6.869  0.0829 -0.3417  0.1565
   97SAPE   O13 9652   3.903   1.348   6.950 -0.5918 -0.2298  0.2172
   97SAPE   O14 9653   3.956   1.118   6.885 -0.8288 -0.4938 -0.1203
   97SAPE   O12 9654   3.717   1.186   6.907  0.1142 -0.2790 -0.7273
   97SAPE   O11 9655   3.856   1.279   6.714 -0.1261 -0.5410 -0.2738
   97SAPE    C1 9656   3.772   1.395   6.677 -0.1266  0.1906 -0.0229
   97SAPE    HA 9657   3.690   1.408   6.751  0.3781 -1.4072  0.8574
   97SAPE    HB 9658   3.828   1.490   6.685  0.4501 -0.1166 -0.3833
   97SAPE    C2 9659   3.732   1.377   6.527 -0.4355  0.1569  0.1218
   97SAPE    HS 9660   3.686   1.474   6.498 -0.2752  0.6069  1.2859
   97SAPE   O21 9661   3.645   1.271   6.520  0.3651  0.4724  0.0243
   97SAPE   C21 9662   3.520   1.288   6.576 -0.0301 -0.2796 -0.1813
   97SAPE   O22 9663   3.485   1.392   6.628 -0.1991  0.0163 -0.1746
   97SAPE   C22 9664   3.436   1.159   6.571  0.3030 -0.3839 -0.3277
   97SAPE   H2R 9665   3.445   1.116   6.673  1.8313 -0.3036 -0.4032
   97SAPE   H2S 9666   3.331   1.175   6.538  0.0710 -1.6074 -0.2365
   97SAPE    C3 9667   3.843   1.354   6.414 -0.1073 -0.2270 -0.2153
   97SAPE    HX 9668   3.916   1.279   6.451  1.0381  1.3669  0.9299
   97SAPE    HY 9669   3.910   1.443   6.418 -1.6566  0.9376  3.2731
   97SAPE   O31 9670   3.797   1.325   6.286  0.8730 -0.5803 -0.3508
   97SAPE   C31 9671   3.772   1.196   6.255 -0.3178 -0.0892 -0.8826
   97SAPE   O32 9672   3.805   1.099   6.324 -0.0478  0.3887  0.5161
   97SAPE   C32 9673   3.713   1.191   6.116  0.4057  0.5712 -0.0494
   97SAPE   H2X 9674   3.674   1.292   6.089 -0.0610  0.4398  0.1384
   97SAPE   H2Y 9675   3.627   1.121   6.118  2.2244 -1.8056 -1.1034
   97SAPE   C23 9676   3.495   1.050   6.481  0.6100  0.0862 -0.1853
   97SAPE   H3R 9677   3.451   0.958   6.527 -0.3203  1.5846  2.0722
   97SAPE   H3S 9678   3.605   1.038   6.492  0.4787  0.4755  1.9483
   97SAPE   C24 9679   3.432   1.063   6.338  0.6780  0.2581  0.0260
   97SAPE   H4R 9680   3.485   0.988   6.275  0.3377  0.8873 -1.0302
   97SAPE   H4S 9681   3.457   1.160   6.291  0.2909 -0.6552 -2.2089
   97SAPE   C25 9682   3.288   1.043   6.334  0.6641 -0.4056  0.5804
   97SAPE   H5R 9683   3.244   0.970   6.403 -1.4521  1.6544  1.5590
   97SAPE   C26 9684   3.209   1.101   6.241 -0.9496  0.0368  0.0701
   97SAPE   H6R 9685   3.102   1.078   6.243 -1.0943  0.3757 -1.7566
   97SAPE   C27 9686   3.246   1.200   6.139  0.1181  0.1712  0.3936
   97SAPE   H7R 9687   3.202   1.171   6.041 -0.5321 -2.4334  1.3800
   97SAPE   H7S 9688   3.356   1.207   6.125  0.2153 -2.5078 -0.7825
   97SAPE   C28 9689   3.206   1.338   6.181  0.7169  0.0562 -0.2337
   97SAPE   H8R 9690   3.235   1.351   6.287 -0.2492 -0.0490  0.0564
   97SAPE   C29 9691   3.127   1.430   6.114 -0.5155  0.5581 -0.6150
   97SAPE   H9R 9692   3.096   1.519   6.171 -0.5194 -0.7001  1.4410
   97SAPE  C210 9693   3.066   1.431   5.973 -0.3837  0.3114 -0.1838
   97SAPE  H10R 9694   3.066   1.325   5.938  1.0939  1.0270 -2.5956
   97SAPE  H10S 9695   3.150   1.478   5.918  1.7957 -0.0783  2.5841
   97SAPE  C211 9696   2.933   1.482   5.969 -0.3796 -0.2032 -0.6792
   97SAPE  H11R 9697   2.872   1.465   6.059  0.6360  0.0316  0.0717
   97SAPE  C212 9698   2.882   1.554   5.869  0.4093 -0.1609  0.0053
   97SAPE  H12R 9699   2.779   1.593   5.877  0.4255  0.1498 -1.0771
   97SAPE  C213 9700   2.954   1.585   5.741 -0.4372 -0.4972  0.1469
   97SAPE  H13R 9701   2.995   1.499   5.683 -1.7998  0.0819 -1.7524
   97SAPE  H13S 9702   3.035   1.652   5.775 -1.7803  0.7148  1.0678
   97SAPE  C214 9703   2.869   1.668   5.656  0.5281  0.3188 -0.2182
   97SAPE  H14R 9704   2.805   1.736   5.714 -0.6563  0.7309 -1.9513
   97SAPE  C215 9705   2.876   1.692   5.526 -0.2834 -0.4709 -0.3096
   97SAPE  H15R 9706   2.796   1.754   5.484  0.7300  2.6096  1.9231
   97SAPE  C216 9707   2.966   1.616   5.427 -0.1285  0.5617  0.1595
   97SAPE  H16R 9708   2.910   1.570   5.342  1.2579 -0.8637 -0.0313
   97SAPE  H16S 9709   3.009   1.528   5.481  2.1683  1.3418 -0.2883
   97SAPE  C217 9710   3.084   1.700   5.376  0.5561 -0.2060  0.5561
   97SAPE  H17R 9711   3.147   1.715   5.466  2.0384  0.8301 -0.6032
   97SAPE  H17S 9712   3.054   1.804   5.348 -0.2750  0.1371  2.5428
   97SAPE  C218 9713   3.159   1.640   5.256 -0.1254 -0.6622 -0.2147
   97SAPE  H18R 9714   3.088   1.624   5.172  1.1948  1.3272 -1.8334
   97SAPE  H18S 9715   3.182   1.541   5.299 -1.6317 -1.1145 -0.4179
   97SAPE  C219 9716   3.277   1.727   5.206 -0.5482 -0.0517  0.2241
   97SAPE  H19R 9717   3.230   1.822   5.175  0.9917  1.6479  2.7258
   97SAPE  H19S 9718   3.330   1.681   5.120 -0.3928 -2.9707  1.7402
   97SAPE  C220 9719   3.370   1.774   5.321 -0.2481  0.1994  0.2537
   97SAPE  H20R 9720   3.459   1.832   5.287 -0.7154 -0.0162 -1.4670
   97SAPE  H20S 9721   3.389   1.688   5.389 -0.4687  0.0070  0.0724
   97SAPE  H20T 9722   3.320   1.842   5.392  0.9916 -1.7682  3.2011
   97SAPE   C33 9723   3.811   1.147   6.000 -0.3297  0.1845  0.1485
   97SAPE   H3X 9724   3.754   1.104   5.914  0.6738  0.9784 -0.9348
   97SAPE   H3Y 9725   3.885   1.071   6.034 -2.8635 -1.9119  1.4216
   97SAPE   C34 9726   3.893   1.269   5.957 -0.4662 -0.0022 -0.2528
   97SAPE   H4X 9727   3.937   1.314   6.049 -1.5704 -0.3772  0.4767
   97SAPE   H4Y 9728   3.841   1.349   5.901  0.7569 -0.1210 -1.6237
   97SAPE   C35 9729   4.015   1.236   5.862  0.1686  0.3864 -0.5127
   97SAPE   H5X 9730   4.085   1.157   5.899 -0.8546 -1.9683 -3.2019
   97SAPE   H5Y 9731   4.073   1.329   5.846 -1.0079  1.0311 -1.1044
   97SAPE   C36 9732   3.972   1.198   5.720  1.1180 -0.3199 -0.6350
   97SAPE   H6X 9733   3.918   1.101   5.718 -0.1199  0.3353 -3.4734
   97SAPE   H6Y 9734   4.067   1.167   5.670  1.2660 -0.6838 -0.1439
   97SAPE   C37 9735   3.898   1.311   5.637  0.4884  0.3650 -0.6574
   97SAPE   H7X 9736   3.963   1.398   5.661  0.5742 -0.0143  0.5541
   97SAPE   H7Y 9737   3.798   1.337   5.676 -0.2039  1.6685 -3.0985
   97SAPE   C38 9738   3.885   1.266   5.494 -0.0559 -0.2963 -0.0046
   97SAPE   H8X 9739   3.988   1.250   5.456 -0.3479 -3.2543  0.1537
   97SAPE   H8Y 9740   3.839   1.352   5.441 -1.1455  0.3199  1.8440
   97SAPE   C39 9741   3.803   1.145   5.464  0.1094 -0.0356 -0.1477
   97SAPE   H9X 9742   3.697   1.176   5.456 -0.3085  0.2644  4.3188
   97SAPE   H9Y 9743   3.806   1.076   5.551 -0.9603  0.8560  0.6242
   97SAPE  C310 9744   3.856   1.071   5.340  0.6523  0.1777 -0.4232
   97SAPE  H10X 9745   3.797   0.977   5.338 -0.1777  0.7002 -1.9770
   97SAPE  H10Y 9746   3.964   1.056   5.362  0.6055  1.8526  1.1911
   97SAPE  C311 9747   3.843   1.149   5.208  1.1290 -0.0819  0.0939
   97SAPE  H11X 9748   3.917   1.231   5.201 -0.8153  1.6050 -2.9092
   97SAPE  H11Y 9749   3.746   1.202   5.217  1.1113 -0.3364  1.8635
   97SAPE  C312 9750   3.843   1.062   5.092 -1.0091  0.3609 -0.7001
   97SAPE  H12X 9751   3.761   0.990   5.115  0.4135 -0.7693  1.2038
   97SAPE  H12Y 9752   3.942   1.011   5.093 -1.4030 -0.4354 -0.7355
   97SAPE  C313 9753   3.830   1.138   4.964  0.5749 -0.3145 -0.4193
   97SAPE  H13X 9754   3.764   1.225   4.986  1.7925  0.6188 -0.3263
   97SAPE  H13Y 9755   3.755   1.079   4.908  0.9169  0.6598 -1.9741
   97SAPE  C314 9756   3.956   1.176   4.891  0.0645 -0.0471  1.3375
   97SAPE  H14X 9757   3.992   1.080   4.849 -1.1579 -0.2766  0.7707
   97SAPE  H14Y 9758   4.029   1.231   4.955  2.6413  1.2769 -2.4433
   97SAPE  C315 9759   3.917   1.263   4.771 -0.1167  0.1033  0.8092
   97SAPE  H15X 9760   3.884   1.359   4.814  1.6957  1.1122  0.0531
   97SAPE  H15Y 9761   3.833   1.207   4.724  0.2844  0.2089 -0.0530
   97SAPE  C316 9762   4.022   1.287   4.667 -0.7386  0.2692  0.3223
   97SAPE  H16X 9763   4.065   1.194   4.623 -3.9964 -0.6996 -1.0934
   97SAPE  H16Y 9764   4.099   1.340   4.727  0.8316 -2.0089  0.4335
   97SAPE  C317 9765   3.958   1.372   4.559  0.2908  0.0576  0.1584
   97SAPE  H17X 9766   3.917   1.460   4.612 -0.1751  0.7261 -1.2750
   97SAPE  H17Y 9767   3.886   1.296   4.521  1.6564 -2.2705  1.9342
   97SAPE  C318 9768   4.047   1.410   4.450 -0.9559 -0.4442  0.7538
   97SAPE  H18X 9769   4.145   1.440   4.493 -1.1410  0.0061  0.8637
   97SAPE  H18Y 9770   4.005   1.485   4.381  2.1282  0.6312 -0.1403
   97SAPE  H18Z 9771   4.085   1.332   4.380  0.7105  1.0186 -0.0397
   98SAPE     N 9772   4.051   2.233   7.316 -0.4551  0.0971 -0.3144
   98SAPE   HN1 9773   4.126   2.212   7.385 -0.6744  1.6133  0.4207
   98SAPE   HN2 9774   3.962   2.206   7.362 -0.6950 -0.7632 -1.2446
   98SAPE   HN3 9775   4.067   2.173   7.233 -1.9849 -0.9982  0.1392
   98SAPE   C12 9776   4.059   2.382   7.298 -0.0020 -0.2279 -0.0899
   98SAPE  H12A 9777   4.130   2.397   7.214 -0.7532 -1.2316 -0.9389
   98SAPE  H12B 9778   4.105   2.424   7.390  1.8464 -3.2222  0.4826
   98SAPE   C11 9779   3.918   2.440   7.271 -0.2391  0.3021  0.0592
   98SAPE  H11A 9780   3.948   2.540   7.309 -0.7337  0.3170  0.4105
   98SAPE  H11B 9781   3.845   2.407   7.348 -1.4368  3.5510  0.4584
   98SAPE     P 9782   3.733   2.361   7.100  0.5987 -0.0120 -0.3611
   98SAPE   O13 9783   3.713   2.233   7.174  0.0285  0.1598 -0.1794
   98SAPE   O14 9784   3.636   2.472   7.131  0.1414  0.0900  0.2973
   98SAPE   O12 9785   3.876   2.417   7.135 -0.0072 -0.3787 -0.2568
   98SAPE   O11 9786   3.736   2.318   6.947 -0.4681 -0.8438 -0.1076
   98SAPE    C1 9787   3.614   2.324   6.875 -0.2100 -0.5298  0.3555
   98SAPE    HA 9788   3.531   2.277   6.933 -0.9408 -0.3706 -0.5403
   98SAPE    HB 9789   3.596   2.431   6.854  0.8269 -0.8421 -2.5077
   98SAPE    C2 9790   3.626   2.267   6.734  0.4738  0.8362  0.1254
   98SAPE    HS 9791   3.696   2.181   6.740 -0.0218  0.2802 -1.5646
   98SAPE   O21 9792   3.678   2.367   6.646 -0.8198 -0.2138 -0.2591
   98SAPE   C21 9793   3.787   2.332   6.582  0.4562  0.5340 -0.5866
   98SAPE   O22 9794   3.834   2.219   6.589 -0.2091  0.3249 -0.2880
   98SAPE   C22 9795   3.839   2.451   6.492 -0.2213 -0.3084 -0.7771
   98SAPE   H2R 9796   3.776   2.541   6.507  0.0515  0.2510 -2.6965
   98SAPE   H2S 9797   3.944   2.453   6.527 -0.7278  0.3457  0.7702
   98SAPE    C3 9798   3.489   2.206   6.683  0.1959 -0.0332  0.6934
   98SAPE    HX 9799   3.421   2.294   6.687 -0.9659 -0.8418 -0.4709
   98SAPE    HY 9800   3.466   2.124   6.755 -0.9272 -0.0249  0.3551
   98SAPE   O31 9801   3.498   2.159   6.546  0.1990  0.4577  0.0329
   98SAPE   C31 9802   3.387   2.117   6.492  0.0368 -0.6053 -0.4337
   98SAPE   O32 9803   3.278   2.119   6.549 -0.0943 -0.3341  0.5946
   98SAPE   C32 9804   3.418   2.081   6.350  1.0529  0.4415 -0.2727
   98SAPE   H2X 9805   3.506   2.014   6.338  1.3219  0.9632 -1.3987
   98SAPE   H2Y 9806   3.463   2.161   6.288  2.9764 -2.2568 -2.6136
   98SAPE   C23 9807   3.811   2.401   6.347 -0.3278 -0.6312 -0.3100
   98SAPE   H3R 9808   3.841   2.295   6.330  1.5886  0.1387 -2.2674
   98SAPE   H3S 9809   3.873   2.459   6.275 -1.5242 -1.2491 -1.8691
   98SAPE   C24 9810   3.667   2.428   6.310  0.1529  0.2239 -0.4526
   98SAPE   H4R 9811   3.638   2.534   6.302  0.2269  0.6803  3.5071
   98SAPE   H4S 9812   3.602   2.385   6.389 -2.5956  1.1518 -2.0839
   98SAPE   C25 9813   3.638   2.355   6.180  0.6691  0.0644  0.2290
   98SAPE   H5R 9814   3.611   2.250   6.195  1.2484  0.0455  1.2565
   98SAPE   C26 9815   3.643   2.409   6.055  0.1692  0.1123 -1.0261
   98SAPE   H6R 9816   3.617   2.344   5.969  0.8962  0.7788 -1.7616
   98SAPE   C27 9817   3.690   2.550   6.018  0.9676 -0.1384  0.1422
   98SAPE   H7R 9818   3.718   2.606   6.110 -2.3833 -0.3730  1.4619
   98SAPE   H7S 9819   3.616   2.613   5.964 -0.8310 -2.5801 -0.3863
   98SAPE   C28 9820   3.809   2.531   5.931  0.0403  0.3154  0.2418
   98SAPE   H8R 9821   3.872   2.448   5.967 -0.2069  0.6441  1.4722
   98SAPE   C29 9822   3.856   2.609   5.837  0.2528  0.0188 -0.7914
   98SAPE   H9R 9823   3.944   2.572   5.783 -0.4829 -0.5034 -1.6781
   98SAPE  C210 9824   3.790   2.735   5.788 -0.5372 -0.3520 -0.1968
   98SAPE  H10R 9825   3.796   2.816   5.864 -0.6313 -1.5137  1.0850
   98SAPE  H10S 9826   3.682   2.724   5.766 -0.4462  0.9155 -1.4610
   98SAPE  C211 9827   3.857   2.792   5.662  0.0057  0.3029 -0.4188
   98SAPE  H11R 9828   3.952   2.844   5.681 -0.8255  0.9741  2.3267
   98SAPE  C212 9829   3.814   2.786   5.537 -0.6154 -0.7718  0.2708
   98SAPE  H12R 9830   3.881   2.843   5.471 -0.8995  0.3466  0.9179
   98SAPE  C213 9831   3.680   2.736   5.494 -0.4183  0.3202  0.4076
   98SAPE  H13R 9832   3.600   2.811   5.511 -0.2020  0.9564 -1.2159
   98SAPE  H13S 9833   3.649   2.650   5.557  0.2144 -2.3837 -2.7160
   98SAPE  C214 9834   3.665   2.680   5.347 -0.1021 -0.0262 -0.1681
   98SAPE  H14R 9835   3.760   2.644   5.304  0.7052  3.7337 -1.8910
   98SAPE  C215 9836   3.543   2.672   5.286  0.1144  0.1796  0.2375
   98SAPE  H15R 9837   3.545   2.621   5.189 -1.9531  1.2876 -0.4648
   98SAPE  C216 9838   3.405   2.717   5.328 -0.2068  0.4104 -0.8257
   98SAPE  H16R 9839   3.392   2.792   5.409  2.7787  0.9861 -0.7466
   98SAPE  H16S 9840   3.359   2.624   5.368 -1.8606  1.7515  0.5532
   98SAPE  C217 9841   3.311   2.768   5.212 -0.1085  0.1719 -0.5554
   98SAPE  H17R 9842   3.205   2.764   5.244  0.0053  1.3716  0.0199
   98SAPE  H17S 9843   3.319   2.685   5.139  0.7692 -0.3091  0.0576
   98SAPE  C218 9844   3.338   2.911   5.155  0.3788 -0.1704  0.5032
   98SAPE  H18R 9845   3.286   2.907   5.057  0.7673 -1.2328  0.3324
   98SAPE  H18S 9846   3.447   2.932   5.150  0.2866 -0.0489 -1.8002
   98SAPE  C219 9847   3.274   3.017   5.238  0.4405 -0.6310  0.4556
   98SAPE  H19R 9848   3.293   3.028   5.347 -0.6935 -1.7088  0.7753
   98SAPE  H19S 9849   3.165   2.998   5.240  0.2658  0.2764  2.6608
   98SAPE  C220 9850   3.290   3.156   5.184  0.0402 -0.1550  0.7814
   98SAPE  H20R 9851   3.294   3.160   5.073 -0.7756 -1.5039  0.6779
   98SAPE  H20S 9852   3.386   3.201   5.217 -0.0831  1.2106 -0.6150
   98SAPE  H20T 9853   3.201   3.214   5.218 -1.1735 -1.9147  0.7256
   98SAPE   C33 9854   3.291   2.027   6.283  0.2816  0.5684 -0.3456
   98SAPE   H3X 9855   3.214   2.105   6.305  1.2488  1.6919 -0.8124
   98SAPE   H3Y 9856   3.260   1.927   6.320  0.4833 -0.4328 -2.6992
   98SAPE   C34 9857   3.294   1.994   6.137  0.1886 -0.6623  0.4280
   98SAPE   H4X 9858   3.373   1.920   6.114 -2.3655 -2.8820 -1.9221
   98SAPE   H4Y 9859   3.318   2.076   6.066  0.9695 -1.2515 -0.0005
   98SAPE   C35 9860   3.155   1.943   6.093  0.3786  0.8304  0.4302
   98SAPE   H5X 9861   3.066   1.981   6.148  1.0070 -0.5015  2.5038
   98SAPE   H5Y 9862   3.155   1.834   6.118  3.8786  0.1346 -1.9410
   98SAPE   C36 9863   3.122   1.943   5.945 -0.2890 -0.3664  0.6921
   98SAPE   H6X 9864   3.119   2.051   5.917 -1.2387 -0.6224 -0.2653
   98SAPE   H6Y 9865   3.016   1.911   5.934 -0.1104 -1.0789  0.9895
   98SAPE   C37 9866   3.211   1.846   5.856 -0.4158 -0.1227  0.8821
   98SAPE   H7X 9867   3.196   1.744   5.897 -0.1182 -0.4135  0.2724
   98SAPE   H7Y 9868   3.317   1.864   5.881 -0.3883 -1.8211  2.1663
   98SAPE   C38 9869   3.170   1.867   5.706 -0.1367  0.2551 -0.8719
   98SAPE   H8X 9870   3.060   1.879   5.696 -0.4874 -0.7661  1.0773
   98SAPE   H8Y 9871   3.200   1.770   5.661  0.4297  0.1890 -0.3693
   98SAPE   C39 9872   3.247   1.977   5.633 -0.2854 -0.1115  0.5052
   98SAPE   H9X 9873   3.231   2.070   5.691 -1.2193 -0.6883  1.2172
   98SAPE   H9Y 9874   3.205   1.985   5.530  0.0194  0.4341  0.4205
   98SAPE  C310 9875   3.399   1.942   5.628 -0.7412  0.2723 -0.3247
   98SAPE  H10X 9876   3.415   1.840   5.588  0.7992 -0.5418  2.1337
   98SAPE  H10Y 9877   3.441   1.946   5.731  0.4062  0.9920 -0.8025
   98SAPE  C311 9878   3.457   2.060   5.544  0.1308  0.1511  0.1983
   98SAPE  H11X 9879   3.451   2.145   5.615 -2.0231  2.5279 -2.5728
   98SAPE  H11Y 9880   3.392   2.095   5.460  0.0737  2.4493  1.1142
   98SAPE  C312 9881   3.597   2.043   5.488 -0.0426  0.6741 -0.2152
   98SAPE  H12X 9882   3.602   1.939   5.449 -0.9512  0.3855  0.4229
   98SAPE  H12Y 9883   3.672   2.053   5.570  0.1121  0.2334 -0.2949
   98SAPE  C313 9884   3.613   2.141   5.375  0.3141  0.3792  0.7902
   98SAPE  H13X 9885   3.549   2.230   5.394 -1.5073 -0.7971  0.4272
   98SAPE  H13Y 9886   3.591   2.105   5.272  2.0946 -0.7194  0.7374
   98SAPE  C314 9887   3.757   2.192   5.377  0.3531 -0.2035  0.4388
   98SAPE  H14X 9888   3.827   2.106   5.371  0.5700  0.0729 -1.7839
   98SAPE  H14Y 9889   3.767   2.240   5.477  0.3857 -0.8239  0.7431
   98SAPE  C315 9890   3.794   2.297   5.274 -0.0028 -0.0220 -0.3966
   98SAPE  H15X 9891   3.894   2.333   5.306 -0.5407  0.0145  1.3957
   98SAPE  H15Y 9892   3.727   2.385   5.284  1.1888  0.8537  0.0841
   98SAPE  C316 9893   3.794   2.257   5.120  0.8989 -0.5430 -0.1097
   98SAPE  H16X 9894   3.826   2.355   5.077  2.5849 -0.8846  0.3175
   98SAPE  H16Y 9895   3.687   2.242   5.094  0.4707 -0.1205  1.3154
   98SAPE  C317 9896   3.886   2.147   5.070 -0.0763 -0.2310 -0.5640
   98SAPE  H17X 9897   3.874   2.043   5.107  0.1394 -0.1512 -0.2649
   98SAPE  H17Y 9898   3.984   2.177   5.113 -1.4391  1.5046  1.5435
   98SAPE  C318 9899   3.881   2.158   4.914 -0.1412 -0.0455 -1.1068
   98SAPE  H18X 9900   3.947   2.079   4.873  0.9766  0.3236 -0.0593
   98SAPE  H18Y 9901   3.929   2.251   4.878  1.2265  0.7432  2.3545
   98SAPE  H18Z 9902   3.774   2.149   4.884 -0.9542 -1.8393  1.8328
   99SAPE     N 9903   1.691   1.372   7.112  0.6146  0.1099 -0.4525
   99SAPE   HN1 9904   1.722   1.344   7.207  0.5330  2.3924  0.3010
   99SAPE   HN2 9905   1.673   1.474   7.099 -0.6082  0.2639  1.9883
   99SAPE   HN3 9906   1.599   1.324   7.107 -0.0393  1.2152  0.3850
   99SAPE   C12 9907   1.785   1.321   7.005  0.5057  0.7438  0.1961
   99SAPE  H12A 9908   1.780   1.210   7.007 -0.2123  0.7750  0.1975
   99SAPE  H12B 9909   1.887   1.360   7.025  1.0237 -1.0971  1.2879
   99SAPE   C11 9910   1.759   1.369   6.863  0.6722  0.2326  0.5806
   99SAPE  H11A 9911   1.834   1.327   6.793  1.3867  1.6516  0.4647
   99SAPE  H11B 9912   1.769   1.479   6.854 -0.9220  0.3919  0.5486
   99SAPE     P 9913   1.548   1.398   6.719  0.2304  0.1948  0.3393
   99SAPE   O13 9914   1.414   1.340   6.704  0.5132  0.2031 -0.2668
   99SAPE   O14 9915   1.548   1.538   6.767 -0.0988  0.0307 -0.0639
   99SAPE   O12 9916   1.628   1.311   6.825  0.6805 -0.0512  0.2377
   99SAPE   O11 9917   1.634   1.378   6.583  0.3910  0.2919  0.0494
   99SAPE    C1 9918   1.615   1.261   6.499  0.5436 -0.7527 -0.2053
   99SAPE    HA 9919   1.513   1.222   6.522 -0.7153  2.6125  0.5417
   99SAPE    HB 9920   1.632   1.301   6.397  0.0727 -1.7550 -0.6969
   99SAPE    C2 9921   1.725   1.157   6.530  0.2549  0.0439  0.3097
   99SAPE    HS 9922   1.714   1.116   6.633  1.1450 -1.1739 -0.0599
   99SAPE   O21 9923   1.859   1.220   6.515  0.5146  0.5848 -0.3231
   99SAPE   C21 9924   1.963   1.156   6.554  0.1567  0.3811  0.3625
   99SAPE   O22 9925   1.968   1.044   6.609  0.0324 -0.4796  0.0346
   99SAPE   C22 9926   2.090   1.229   6.518 -0.3520 -0.2677 -0.1468
   99SAPE   H2R 9927   2.066   1.337   6.530 -0.5687 -0.2892 -0.3886
   99SAPE   H2S 9928   2.173   1.208   6.590 -0.0194  1.1139 -0.0834
   99SAPE    C3 9929   1.709   1.034   6.438 -0.5494  0.6161  0.1352
   99SAPE    HX 9930   1.604   0.998   6.447 -0.3502 -0.5758 -1.6967
   99SAPE    HY 9931   1.782   0.961   6.480 -0.8484 -1.4580 -2.5911
   99SAPE   O31 9932   1.750   1.073   6.306 -0.0344 -0.0900 -0.0215
   99SAPE   C31 9933   1.766   0.974   6.217  0.3660  0.4962  0.0139
   99SAPE   O32 9934   1.745   0.856   6.248 -0.3480 -0.2122  0.2175
   99SAPE   C32 9935   1.788   1.031   6.079 -0.2125 -0.0463 -0.4692
   99SAPE   H2X 9936   1.891   1.071   6.078  0.4987 -1.4879  2.5244
   99SAPE   H2Y 9937   1.720   1.116   6.057 -0.4804 -0.4107 -1.0538
   99SAPE   C23 9938   2.128   1.205   6.369 -0.1113  1.0535  0.0016
   99SAPE   H3R 9939   2.033   1.203   6.310  0.0243 -0.2710 -0.1985
   99SAPE   H3S 9940   2.187   1.111   6.368  0.9489  1.7036  0.2948
   99SAPE   C24 9941   2.219   1.316   6.311 -0.0216  0.2606 -0.3076
   99SAPE   H4R 9942   2.155   1.406   6.318 -1.7946 -0.9112 -0.8422
   99SAPE   H4S 9943   2.241   1.300   6.203  0.4434 -3.6817  0.2236
   99SAPE   C25 9944   2.352   1.326   6.380  0.4570 -1.4256  0.3779
   99SAPE   H5R 9945   2.424   1.243   6.379  2.0785 -0.1181  2.1620
   99SAPE   C26 9946   2.386   1.433   6.458 -0.2749 -0.0623  0.2168
   99SAPE   H6R 9947   2.484   1.418   6.505  0.5961  0.8193 -1.2295
   99SAPE   C27 9948   2.309   1.556   6.501  0.0481 -0.3112 -0.1454
   99SAPE   H7R 9949   2.254   1.523   6.592 -1.8134 -1.4923 -1.6296
   99SAPE   H7S 9950   2.231   1.583   6.427  2.0017  1.4555 -1.7134
   99SAPE   C28 9951   2.401   1.677   6.534 -0.7072  0.1420  0.2954
   99SAPE   H8R 9952   2.455   1.666   6.629  0.6362 -1.6801 -0.6186
   99SAPE   C29 9953   2.411   1.787   6.463 -1.0414 -0.2773 -0.2015
   99SAPE   H9R 9954   2.461   1.876   6.504 -0.6156  0.1620 -1.6365
   99SAPE  C210 9955   2.346   1.807   6.335 -0.1609 -0.6756  0.4774
   99SAPE  H10R 9956   2.374   1.723   6.268  1.7418  1.1186 -1.0995
   99SAPE  H10S 9957   2.387   1.902   6.297 -1.2926 -0.6693 -0.7906
   99SAPE  C211 9958   2.203   1.849   6.336 -0.1506 -0.6423 -0.3414
   99SAPE  H11R 9959   2.159   1.859   6.436  0.4614 -0.2985 -0.1064
   99SAPE  C212 9960   2.126   1.860   6.226  0.2784 -0.1902  0.4962
   99SAPE  H12R 9961   2.022   1.895   6.225 -0.5201 -2.1794 -3.0683
   99SAPE  C213 9962   2.185   1.847   6.086  0.9983  0.0484 -0.3003
   99SAPE  H13R 9963   2.145   1.753   6.044  1.6417 -1.3626  2.0610
   99SAPE  H13S 9964   2.292   1.820   6.090  1.0163  0.1355 -0.1812
   99SAPE  C214 9965   2.155   1.968   5.999 -0.3763  0.1843  0.6439
   99SAPE  H14R 9966   2.225   2.051   6.014  0.2131 -0.2182  0.1698
   99SAPE  C215 9967   2.056   1.980   5.908 -1.0056 -0.3697 -0.1579
   99SAPE  H15R 9968   2.057   2.072   5.847  2.7435  0.7099  1.2492
   99SAPE  C216 9969   1.955   1.872   5.887 -0.9413 -0.0065 -0.9290
   99SAPE  H16R 9970   1.853   1.917   5.889 -0.5655  0.9072  1.7912
   99SAPE  H16S 9971   1.958   1.788   5.959  0.5831  1.9206  1.3836
   99SAPE  C217 9972   1.979   1.814   5.745  0.5469  0.1162 -0.1237
   99SAPE  H17R 9973   1.897   1.741   5.731  0.8883 -0.3981  0.4962
   99SAPE  H17S 9974   2.067   1.747   5.751  1.4076  1.3202  1.8147
   99SAPE  C218 9975   1.989   1.913   5.634 -0.3504 -0.4744 -0.5455
   99SAPE  H18R 9976   2.072   1.985   5.648  0.4417 -1.4448 -0.1160
   99SAPE  H18S 9977   1.898   1.977   5.635  0.4404  0.6745 -0.8390
   99SAPE  C219 9978   1.989   1.841   5.499  0.4092 -0.2802 -0.2683
   99SAPE  H19R 9979   1.905   1.768   5.497  1.1363 -1.1388 -0.0917
   99SAPE  H19S 9980   2.079   1.776   5.492 -0.0142 -0.8285 -0.7461
   99SAPE  C220 9981   1.970   1.934   5.376  0.0169 -0.1020  1.1629
   99SAPE  H20R 9982   2.045   2.015   5.369 -0.8417  0.5246 -2.1913
   99SAPE  H20S 9983   1.870   1.981   5.385  0.3491  0.7469  0.4772
   99SAPE  H20T 9984   1.965   1.864   5.290 -1.2894 -0.5568  1.5874
   99SAPE   C33 9985   1.755   0.935   5.963 -0.5686  0.5160 -0.5964
   99SAPE   H3X 9986   1.661   0.888   5.998  1.4651 -1.7733  2.3003
   99SAPE   H3Y 9987   1.830   0.853   5.956 -0.9350  0.0654  0.6051
   99SAPE   C34 9988   1.748   0.995   5.823  0.5679  0.3147  0.0121
   99SAPE   H4X 9989   1.850   1.034   5.801  1.0428 -1.9177 -2.1379
   99SAPE   H4Y 9990   1.689   1.089   5.825 -1.2606 -0.7749  0.5909
   99SAPE   C35 9991   1.717   0.887   5.720  0.3239 -0.6575 -0.0749
   99SAPE   H5X 9992   1.608   0.874   5.731 -0.0999  2.3081 -0.0334
   99SAPE   H5Y 9993   1.775   0.796   5.749 -2.0559 -2.4102 -0.4730
   99SAPE   C36 9994   1.749   0.924   5.575  0.1550  0.0743 -0.2915
   99SAPE   H6X 9995   1.702   1.024   5.561 -1.6893 -0.8322 -0.9079
   99SAPE   H6Y 9996   1.688   0.855   5.513  0.7821 -0.6524 -0.1097
   99SAPE   C37 9997   1.883   0.914   5.519 -0.5899  0.3419  0.2920
   99SAPE   H7X 9998   1.933   0.816   5.536  0.5620  0.4429 -2.0557
   99SAPE   H7Y 9999   1.939   0.996   5.569 -3.2407  1.1972  2.0746
   99SAPE   C3810000   1.897   0.941   5.368 -0.2973  0.2417  0.1652
   99SAPE   H8X10001   2.005   0.960   5.353  0.0868 -2.3628 -0.7671
   99SAPE   H8Y10002   1.840   1.033   5.339  0.9993  1.0615  0.1467
   99SAPE   C3910003   1.864   0.813   5.292  0.1855 -0.3293 -0.2417
   99SAPE   H9X10004   1.770   0.766   5.327 -0.4134  1.2670  0.3974
   99SAPE   H9Y10005   1.943   0.742   5.326  0.3998  0.0777  0.1240
   99SAPE  C31010006   1.863   0.823   5.136 -0.6481 -0.0109 -0.0005
   99SAPE  H10X10007   1.938   0.896   5.099 -0.0633 -1.4594 -1.8526
   99SAPE  H10Y10008   1.764   0.869   5.113 -0.7570 -0.0893  0.3050
   99SAPE  C31110009   1.859   0.693   5.059  0.3093  0.7281  0.1141
   99SAPE  H11X10010   1.778   0.633   5.106  0.8561 -0.5239 -0.4822
   99SAPE  H11Y10011   1.952   0.636   5.077 -0.5359 -1.5138 -1.9991
   99SAPE  C31210012   1.833   0.712   4.916 -0.1429  0.2982  0.3656
   99SAPE  H12X10013   1.907   0.779   4.867  0.5839 -0.5713  0.2578
   99SAPE  H12Y10014   1.731   0.758   4.921 -0.0660  0.3777  2.8549
   99SAPE  C31310015   1.828   0.578   4.838 -0.0194  0.4186  0.1509
   99SAPE  H13X10016   1.736   0.532   4.879 -0.6537  3.0039  1.8647
   99SAPE  H13Y10017   1.920   0.518   4.858  0.7868  0.6778 -2.4055
   99SAPE  C31410018   1.828   0.602   4.687  0.5423  0.3937  0.1637
   99SAPE  H14X10019   1.919   0.660   4.662  0.7522  0.0072  0.0255
   99SAPE  H14Y10020   1.744   0.666   4.653  2.3866  1.7734 -2.0446
   99SAPE  C31510021   1.819   0.466   4.610 -0.3403 -0.8983 -0.4643
   99SAPE  H15X10022   1.728   0.413   4.645  0.3585 -2.0038 -0.2716
   99SAPE  H15Y10023   1.903   0.398   4.635 -0.5764 -0.5043  1.5547
   99SAPE  C31610024   1.807   0.476   4.457 -0.0154 -0.0877 -0.4857
   99SAPE  H16X10025   1.749   0.565   4.424 -1.6275 -1.4324 -1.4184
   99SAPE  H16Y10026   1.756   0.386   4.415  0.1730  0.6622 -2.4497
   99SAPE  C31710027   1.949   0.493   4.398 -0.4607 -0.3639  0.5802
   99SAPE  H17X10028   2.032   0.424   4.424  1.3930  0.2643 -2.9524
   99SAPE  H17Y10029   1.987   0.593   4.429 -0.5021 -0.0179 -0.4400
   99SAPE  C31810030   1.942   0.498   4.244  0.9313  0.2418  0.2254
   99SAPE  H18X10031   1.860   0.567   4.213  2.2358  1.6959 -0.1028
   99SAPE  H18Y10032   1.922   0.399   4.197 -0.5931  0.3385  0.6135
   99SAPE  H18Z10033   2.029   0.548   4.197 -0.3102  1.2250 -1.1301
  100SAPE     N10034   6.084   0.387   6.665  0.1645  0.4843 -0.2248
  100SAPE   HN110035   6.018   0.467   6.671  0.4221  0.7090 -0.3822
  100SAPE   HN210036   6.087   0.356   6.565  0.2671  1.3908 -0.5107
  100SAPE   HN310037   6.051   0.311   6.727  0.2213  1.1872  0.6936
  100SAPE   C1210038   6.225   0.428   6.696 -0.1686  0.6912 -0.0478
  100SAPE  H12A10039   6.222   0.468   6.799 -1.2318  2.2786 -0.6575
  100SAPE  H12B10040   6.246   0.519   6.637  0.4269  0.7283  0.2145
  100SAPE   C1110041   6.317   0.308   6.668  1.1956  0.0600 -0.9344
  100SAPE  H11A10042   6.418   0.340   6.701  1.3909 -1.1162 -0.3350
  100SAPE  H11B10043   6.318   0.284   6.560 -0.0422  2.3735 -1.5233
  100SAPE     P10044   6.323   0.042   6.722 -0.0129 -0.0541 -0.3214
  100SAPE   O1310045   6.470   0.022   6.744 -0.0223 -0.3051 -0.1188
  100SAPE   O1410046   6.230  -0.045   6.801 -0.7766  0.3294  0.0217
  100SAPE   O1210047   6.287   0.192   6.749 -0.1344  0.2093  0.1855
  100SAPE   O1110048   6.294   0.024   6.570 -0.0525  0.1420 -0.1904
  100SAPE    C110049   6.306  -0.112   6.522  0.4701 -0.1882  0.3414
  100SAPE    HA10050   6.411  -0.148   6.525  0.3242 -0.5624  1.7845
  100SAPE    HB10051   6.253  -0.184   6.589 -0.4284  1.1179  1.0753
  100SAPE    C210052   6.261  -0.114   6.377  0.2904 -0.3929  0.1670
  100SAPE    HS10053   6.217  -0.211   6.345 -0.9253  0.5015 -0.9575
  100SAPE   O2110054   6.374  -0.085   6.291 -0.1968 -0.2488  0.6855
  100SAPE   C2110055   6.472  -0.167   6.276  0.4581 -0.5354 -0.0451
  100SAPE   O2210056   6.484  -0.279   6.316  0.3079  0.1928  0.3154
  100SAPE   C2210057   6.568  -0.120   6.169 -0.5006 -0.6377 -0.1387
  100SAPE   H2R10058   6.562  -0.009   6.165  1.8450 -0.4561  0.1410
  100SAPE   H2S10059   6.670  -0.148   6.202 -1.7504 -4.2263  1.0674
  100SAPE    C310060   6.140  -0.020   6.354 -0.2538 -0.6534  0.3534
  100SAPE    HX10061   6.180   0.076   6.392 -1.2843 -0.2426  0.4445
  100SAPE    HY10062   6.058  -0.058   6.419 -0.0519  1.4267  1.9076
  100SAPE   O3110063   6.112  -0.007   6.213  0.0064  0.0070 -0.2462
  100SAPE   C3110064   6.007  -0.077   6.166  0.6425  1.2884  0.0163
  100SAPE   O3210065   5.938  -0.150   6.230 -0.2653 -0.2022  0.4191
  100SAPE   C3210066   6.003  -0.055   6.014  0.2573 -0.2718 -0.6414
  100SAPE   H2X10067   6.085  -0.003   5.961  0.4414 -2.1538 -2.3607
  100SAPE   H2Y10068   5.902  -0.012   5.995  1.8286  4.0774 -0.3179
  100SAPE   C2310069   6.553  -0.174   6.026  0.6563 -0.7270 -0.4749
  100SAPE   H3R10070   6.574  -0.282   6.031  2.0907 -0.4146  2.1212
  100SAPE   H3S10071   6.628  -0.126   5.960 -0.5101  0.4376 -0.9993
  100SAPE   C2410072   6.425  -0.148   5.955  0.3244 -0.5928 -0.1275
  100SAPE   H4R10073   6.339  -0.204   5.997 -2.0442  2.4101 -0.5683
  100SAPE   H4S10074   6.442  -0.178   5.849 -0.3816 -2.4290  0.2528
  100SAPE   C2510075   6.361  -0.003   5.969 -0.5953  1.2694  0.2229
  100SAPE   H5R10076   6.326   0.015   6.071  2.5323  0.5632  1.5449
  100SAPE   C2610077   6.362   0.101   5.887  0.2589 -0.2500 -0.2738
  100SAPE   H6R10078   6.300   0.186   5.921  0.5597 -0.7916  1.7387
  100SAPE   C2710079   6.428   0.109   5.753  0.1595  0.1428  0.5725
  100SAPE   H7R10080   6.460   0.005   5.736 -4.9473 -1.3651 -1.6677
  100SAPE   H7S10081   6.516   0.176   5.759  1.0608 -1.1450  3.2374
  100SAPE   C2810082   6.322   0.149   5.652  0.0902  0.3031 -0.6718
  100SAPE   H8R10083   6.254   0.069   5.617  0.6953 -0.6216  0.2061
  100SAPE   C2910084   6.306   0.268   5.598 -0.4201 -0.0767  0.6453
  100SAPE   H9R10085   6.231   0.283   5.519  0.8428  1.1440 -0.3960
  100SAPE  C21010086   6.405   0.385   5.617 -0.2174  0.0525 -0.0395
  100SAPE  H10R10087   6.412   0.422   5.721 -1.7820  2.8785 -0.8426
  100SAPE  H10S10088   6.359   0.479   5.580  0.2184 -0.0661 -0.9214
  100SAPE  C21110089   6.533   0.361   5.545 -0.1383 -0.0620 -0.0850
  100SAPE  H11R10090   6.615   0.315   5.602  0.8354 -0.4143 -1.7076
  100SAPE  C21210091   6.548   0.376   5.410  0.1398 -0.4633 -0.6329
  100SAPE  H12R10092   6.647   0.349   5.370 -0.0599 -1.8538 -0.2323
  100SAPE  C21310093   6.442   0.428   5.309 -0.3604  0.6683  0.0429
  100SAPE  H13R10094   6.487   0.509   5.247  0.8420 -1.0171 -1.3953
  100SAPE  H13S10095   6.355   0.465   5.368 -0.7591  2.6630 -1.6903
  100SAPE  C21410096   6.387   0.324   5.213 -0.5164 -0.0365  0.4767
  100SAPE  H14R10097   6.432   0.228   5.240  0.1205  0.4983  1.4090
  100SAPE  C21510098   6.312   0.341   5.101 -0.0062 -0.2658 -0.0465
  100SAPE  H15R10099   6.305   0.256   5.032  1.3384  1.5284 -2.5251
  100SAPE  C21610100   6.259   0.480   5.055 -0.4446 -0.0462  0.4261
  100SAPE  H16R10101   6.238   0.544   5.143  2.2791 -0.0507  1.1874
  100SAPE  H16S10102   6.155   0.457   5.023 -0.1838 -0.0073 -0.4751
  100SAPE  C21710103   6.347   0.543   4.949  0.3160 -0.5319  0.2884
  100SAPE  H17R10104   6.366   0.485   4.857  0.8767  0.0134  0.0503
  100SAPE  H17S10105   6.448   0.565   4.992 -0.5043 -0.0312  2.0790
  100SAPE  C21810106   6.284   0.665   4.886 -0.0509 -0.0406  0.5144
  100SAPE  H18R10107   6.273   0.738   4.968 -2.0337 -2.1319  2.2481
  100SAPE  H18S10108   6.178   0.638   4.867  0.1590 -0.2912 -0.3785
  100SAPE  C21910109   6.357   0.718   4.760  0.4871 -0.1652 -0.0401
  100SAPE  H19R10110   6.335   0.665   4.665 -0.5622 -0.3373  0.2892
  100SAPE  H19S10111   6.465   0.702   4.781  0.2387 -2.4442 -0.2220
  100SAPE  C22010112   6.322   0.871   4.748  0.1523 -0.0219  0.2466
  100SAPE  H20R10113   6.364   0.909   4.652 -0.2818  0.5361  0.2675
  100SAPE  H20S10114   6.367   0.924   4.835 -0.5274  0.1793  0.4794
  100SAPE  H20T10115   6.212   0.874   4.735  0.3215 -1.6429 -2.2759
  100SAPE   C3310116   6.000  -0.190   5.940 -0.3111 -0.4491  0.2868
  100SAPE   H3X10117   5.921  -0.257   5.980 -0.5514  0.6378  1.7442
  100SAPE   H3Y10118   6.099  -0.237   5.960 -0.9607 -1.8142  0.3716
  100SAPE   C3410119   5.974  -0.168   5.785  0.4011 -0.2551 -0.3235
  100SAPE   H4X10120   6.051  -0.096   5.750 -0.4609  0.5801 -0.5304
  100SAPE   H4Y10121   5.878  -0.126   5.750  0.9840  2.2032  0.7791
  100SAPE   C3510122   6.017  -0.304   5.724  0.0520 -0.1238  0.6041
  100SAPE   H5X10123   5.946  -0.383   5.758 -1.5913 -0.1664 -2.4860
  100SAPE   H5Y10124   6.119  -0.335   5.755  1.4456  2.9892 -0.4879
  100SAPE   C3610125   6.030  -0.320   5.569 -0.2741 -0.2924  0.9035
  100SAPE   H6X10126   5.923  -0.336   5.542  0.2310 -2.5791  0.0301
  100SAPE   H6Y10127   6.090  -0.411   5.550 -0.7786 -0.5164  0.3349
  100SAPE   C3710128   6.090  -0.210   5.483 -0.5813  0.0379  0.4272
  100SAPE   H7X10129   6.186  -0.191   5.537 -1.4982  2.0993  1.4491
  100SAPE   H7Y10130   6.014  -0.129   5.485 -2.9970 -2.0898 -0.6793
  100SAPE   C3810131   6.113  -0.272   5.340  0.4771  0.7431  0.3234
  100SAPE   H8X10132   6.009  -0.287   5.302  0.6360 -1.5597  0.6687
  100SAPE   H8Y10133   6.154  -0.375   5.345 -1.5398 -0.0455  1.9496
  100SAPE   C3910134   6.190  -0.197   5.229 -0.5875 -0.5723  0.2514
  100SAPE   H9X10135   6.297  -0.202   5.260 -0.4055  1.1090  0.0068
  100SAPE   H9Y10136   6.176  -0.087   5.220  2.4711 -0.0428  0.8698
  100SAPE  C31010137   6.162  -0.275   5.103 -0.1331 -0.0886  0.1161
  100SAPE  H10X10138   6.054  -0.280   5.077 -0.1440  0.9802 -0.1122
  100SAPE  H10Y10139   6.193  -0.381   5.111 -1.9307 -0.5734  0.9455
  100SAPE  C31110140   6.232  -0.228   4.972 -0.2798 -0.8830 -0.4166
  100SAPE  H11X10141   6.343  -0.224   4.975 -0.1428 -1.4243 -2.5459
  100SAPE  H11Y10142   6.202  -0.123   4.951  0.3290 -0.5141  0.5173
  100SAPE  C31210143   6.201  -0.308   4.841  0.7717  0.4202  0.7409
  100SAPE  H12X10144   6.094  -0.298   4.812  1.0115  0.6972 -0.1014
  100SAPE  H12Y10145   6.210  -0.418   4.858 -2.0684 -0.3238 -1.6140
  100SAPE  C31310146   6.284  -0.264   4.723 -0.3216 -0.3910  0.0997
  100SAPE  H13X10147   6.370  -0.333   4.723  0.8190  0.9741 -0.6800
  100SAPE  H13Y10148   6.313  -0.156   4.725 -3.3324  0.5965 -2.1115
  100SAPE  C31410149   6.214  -0.281   4.585  0.0647 -0.7092  0.3128
  100SAPE  H14X10150   6.142  -0.196   4.583  0.2391 -0.3728  3.3744
  100SAPE  H14Y10151   6.164  -0.381   4.586 -0.9430 -0.2328 -0.1547
  100SAPE  C31510152   6.313  -0.259   4.468  0.7065 -0.3609 -0.2111
  100SAPE  H15X10153   6.380  -0.348   4.464 -0.0761 -1.1533  2.3164
  100SAPE  H15Y10154   6.384  -0.179   4.499  0.4913 -1.0036  2.1464
  100SAPE  C31610155   6.253  -0.244   4.330  0.3038  0.2191 -0.3338
  100SAPE  H16X10156   6.209  -0.142   4.326 -1.4757 -0.4828  0.2176
  100SAPE  H16Y10157   6.174  -0.321   4.318  1.1069 -1.0696  2.0017
  100SAPE  C31710158   6.351  -0.264   4.213  0.3991  0.0991 -0.6373
  100SAPE  H17X10159   6.295  -0.271   4.117 -0.3434 -1.1646 -0.1332
  100SAPE  H17Y10160   6.400  -0.363   4.207 -0.3975 -0.2809 -1.0270
  100SAPE  C31810161   6.446  -0.141   4.193  0.0684 -0.0493  0.1864
  100SAPE  H18X10162   6.372  -0.059   4.177 -2.2772 -2.0862  0.0132
  100SAPE  H18Y10163   6.515  -0.162   4.108 -1.3188  0.3921 -1.0956
  100SAPE  H18Z10164   6.503  -0.121   4.286 -0.0827 -0.3226  0.3381
  101SAPE     N10165   0.695   2.392   6.721 -0.2645  0.1893 -0.2945
  101SAPE   HN110166   0.661   2.297   6.746  0.9991 -0.0746  0.4982
  101SAPE   HN210167   0.617   2.445   6.677 -1.4618  0.3962  1.9756
  101SAPE   HN310168   0.776   2.383   6.656 -0.0340 -2.6950  0.2883
  101SAPE   C1210169   0.735   2.480   6.837 -0.8548  0.7500 -0.3264
  101SAPE  H12A10170   0.656   2.555   6.857 -0.6314  1.0212 -0.4659
  101SAPE  H12B10171   0.821   2.544   6.810 -0.7282  1.5844  1.8921
  101SAPE   C1110172   0.764   2.379   6.950  0.2744 -0.1763  0.6054
  101SAPE  H11A10173   0.676   2.313   6.965  1.5157 -2.6972 -2.3009
  101SAPE  H11B10174   0.769   2.448   7.038  2.6198  1.7650 -0.9036
  101SAPE     P10175   0.937   2.184   6.999  0.3804  0.0338  0.1717
  101SAPE   O1310176   1.020   2.226   7.114 -0.0319  0.3095 -0.0240
  101SAPE   O1410177   0.822   2.093   7.032  0.0130  0.1175  0.1519
  101SAPE   O1210178   0.891   2.316   6.918 -0.3528  0.1738 -0.0179
  101SAPE   O1110179   1.023   2.097   6.902 -0.1932 -0.0388 -0.2451
  101SAPE    C110180   1.007   2.102   6.762 -0.9245  0.2988  0.3887
  101SAPE    HA10181   1.028   2.007   6.708  1.9812  1.0811 -0.0388
  101SAPE    HB10182   0.903   2.124   6.728 -0.4773 -1.3716 -2.4093
  101SAPE    C210183   1.103   2.209   6.701  0.0780 -0.5421  0.4794
  101SAPE    HS10184   1.079   2.309   6.742  1.6170 -0.0810  0.2967
  101SAPE   O2110185   1.093   2.207   6.557 -0.1940  0.3669 -0.3731
  101SAPE   C2110186   0.984   2.260   6.505 -0.8153  0.0073 -0.5250
  101SAPE   O2210187   0.887   2.311   6.559 -0.4208 -0.1588 -0.7406
  101SAPE   C2210188   1.007   2.286   6.353  0.6131  0.0794  0.2541
  101SAPE   H2R10189   1.086   2.364   6.350  0.0306  0.7080  0.9005
  101SAPE   H2S10190   1.051   2.196   6.305 -2.3977 -0.9730 -0.7378
  101SAPE    C310191   1.248   2.169   6.739  0.9299 -0.2283  0.0071
  101SAPE    HX10192   1.263   2.072   6.686  0.6442  0.4644 -1.3837
  101SAPE    HY10193   1.258   2.158   6.849  1.8117 -1.8557 -0.1981
  101SAPE   O3110194   1.341   2.266   6.696 -0.2045  0.0920 -0.4348
  101SAPE   C3110195   1.351   2.377   6.759 -0.0194 -0.1190  0.3637
  101SAPE   O3210196   1.299   2.403   6.868  0.2157 -0.4155  0.0466
  101SAPE   C3210197   1.457   2.459   6.697 -0.3054 -0.1114  0.2978
  101SAPE   H2X10198   1.522   2.398   6.631 -1.3598 -0.1569 -0.7310
  101SAPE   H2Y10199   1.509   2.501   6.786 -2.6537  1.8656  0.8367
  101SAPE   C2310200   0.881   2.311   6.267  0.0046 -0.4820  0.0467
  101SAPE   H3R10201   0.913   2.338   6.164 -1.3618  0.2936 -0.1958
  101SAPE   H3S10202   0.825   2.395   6.314 -1.7050  0.2380 -3.0069
  101SAPE   C2410203   0.790   2.187   6.260 -0.1319  0.1137  0.2928
  101SAPE   H4R10204   0.849   2.095   6.239 -0.1327  0.4395 -1.2966
  101SAPE   H4S10205   0.738   2.200   6.162  2.0288  1.2031 -0.7997
  101SAPE   C2510206   0.704   2.160   6.373  0.4400  0.4572  0.1017
  101SAPE   H5R10207   0.767   2.106   6.445 -0.5045 -0.7750  0.0352
  101SAPE   C2610208   0.575   2.189   6.392 -0.0441 -0.1817 -0.4218
  101SAPE   H6R10209   0.524   2.146   6.479 -0.4817 -0.4871 -0.8225
  101SAPE   C2710210   0.478   2.273   6.314  0.0049  0.4932 -0.1313
  101SAPE   H7R10211   0.379   2.256   6.361 -0.8960 -0.6713 -2.3460
  101SAPE   H7S10212   0.461   2.247   6.208 -0.9193 -0.6363  0.2746
  101SAPE   C2810213   0.512   2.422   6.321 -0.8377  0.6433  0.0451
  101SAPE   H8R10214   0.542   2.455   6.422  2.8537 -0.6668 -0.4891
  101SAPE   C2910215   0.524   2.516   6.220  0.2968  0.0911  0.2549
  101SAPE   H9R10216   0.545   2.618   6.255 -0.9036 -0.2894  2.2809
  101SAPE  C21010217   0.502   2.506   6.071 -0.1520 -0.4863 -0.0628
  101SAPE  H10R10218   0.420   2.436   6.043  1.2717 -1.9981 -0.6659
  101SAPE  H10S10219   0.589   2.446   6.036 -0.1294 -0.3830 -0.1853
  101SAPE  C21110220   0.481   2.637   6.003  0.1002  0.5490  1.0650
  101SAPE  H11R10221   0.518   2.718   6.067  1.2063  0.0111  1.1300
  101SAPE  C21210222   0.418   2.668   5.885  0.0555 -0.2243  0.1916
  101SAPE  H12R10223   0.396   2.775   5.873  0.8263  0.0141  0.7940
  101SAPE  C21310224   0.358   2.563   5.793 -0.7700 -0.3080  0.6203
  101SAPE  H13R10225   0.250   2.588   5.785 -0.4086  1.2618  0.3647
  101SAPE  H13S10226   0.391   2.464   5.830  1.7423 -0.9350 -2.7930
  101SAPE  C21410227   0.415   2.578   5.651  0.2151 -0.2055 -0.5266
  101SAPE  H14R10228   0.523   2.569   5.635  0.6899  0.8232  1.7423
  101SAPE  C21510229   0.344   2.592   5.537  0.0097 -0.4466 -0.3583
  101SAPE  H15R10230   0.394   2.619   5.442  0.4813  1.6458  0.4303
  101SAPE  C21610231   0.198   2.602   5.523  0.1718  0.0260 -0.0119
  101SAPE  H16R10232   0.147   2.560   5.612 -0.0273  1.6403  0.6605
  101SAPE  H16S10233   0.167   2.534   5.440 -1.3023  1.0647 -0.3573
  101SAPE  C21710234   0.144   2.743   5.482 -0.2727  0.0341 -0.1248
  101SAPE  H17R10235   0.196   2.826   5.534 -0.1827  1.2544 -2.0765
  101SAPE  H17S10236   0.037   2.759   5.508  0.0203  1.6450  0.2110
  101SAPE  C21810237   0.155   2.773   5.334 -0.5849 -0.2805  0.0697
  101SAPE  H18R10238   0.090   2.706   5.274  0.5835 -1.8612  0.5090
  101SAPE  H18S10239   0.257   2.764   5.293 -1.1144 -0.8501 -1.1813
  101SAPE  C21910240   0.103   2.916   5.293  0.4040 -0.0046 -0.2642
  101SAPE  H19R10241   0.164   2.991   5.349 -1.4190  2.5208 -1.4694
  101SAPE  H19S10242  -0.005   2.917   5.320  0.6319 -0.6593  0.7441
  101SAPE  C22010243   0.127   2.951   5.142  0.3065  0.0340  0.9340
  101SAPE  H20R10244   0.071   3.042   5.112  1.6066  0.6298  0.2223
  101SAPE  H20S10245   0.085   2.863   5.088 -2.3739  1.5260  0.3766
  101SAPE  H20T10246   0.234   2.969   5.121 -0.1078 -0.7530 -2.4833
  101SAPE   C3310247   1.405   2.569   6.604  0.4908  0.0517  0.1306
  101SAPE   H3X10248   1.487   2.643   6.591 -1.4711  1.9611 -2.4518
  101SAPE   H3Y10249   1.330   2.630   6.659  1.4244  0.4491  1.0107
  101SAPE   C3410250   1.356   2.512   6.471  0.1932 -0.1239  1.0252
  101SAPE   H4X10251   1.284   2.428   6.476  1.2859 -1.1034  0.6351
  101SAPE   H4Y10252   1.443   2.462   6.424 -0.5206  0.3588 -0.9053
  101SAPE   C3510253   1.316   2.627   6.375 -0.1168 -0.2273  0.0210
  101SAPE   H5X10254   1.388   2.711   6.389 -1.0348  0.1768  3.4144
  101SAPE   H5Y10255   1.219   2.664   6.416 -0.5461 -2.1711  0.8861
  101SAPE   C3610256   1.314   2.570   6.232  0.4592 -0.3141 -0.1054
  101SAPE   H6X10257   1.237   2.491   6.223  0.1316 -0.2415  1.7545
  101SAPE   H6Y10258   1.410   2.526   6.199  0.8548  0.7108 -0.3761
  101SAPE   C3710259   1.286   2.677   6.125 -0.1919  0.2407  0.0628
  101SAPE   H7X10260   1.369   2.751   6.129  1.7048 -1.7524 -0.4926
  101SAPE   H7Y10261   1.199   2.742   6.152  0.4353  0.9290  0.4907
  101SAPE   C3810262   1.275   2.620   5.978 -0.3038 -0.2192 -0.0026
  101SAPE   H8X10263   1.200   2.686   5.930  0.0991  2.2936  2.5404
  101SAPE   H8Y10264   1.242   2.514   5.971  1.2814 -0.6866 -0.8874
  101SAPE   C3910265   1.399   2.649   5.883  0.5582  0.1481 -0.7729
  101SAPE   H9X10266   1.486   2.597   5.928 -0.7553 -0.2871  1.3982
  101SAPE   H9Y10267   1.428   2.756   5.886 -0.8157  0.5194  1.8407
  101SAPE  C31010268   1.397   2.587   5.746 -0.0379  0.3307  0.1590
  101SAPE  H10X10269   1.345   2.489   5.747 -1.0023  0.8325  1.0123
  101SAPE  H10Y10270   1.495   2.578   5.695 -0.1723 -0.8591  0.0972
  101SAPE  C31110271   1.322   2.681   5.643 -0.2716  0.6326  0.7733
  101SAPE  H11X10272   1.389   2.769   5.626  0.8006 -0.7528 -3.4118
  101SAPE  H11Y10273   1.222   2.712   5.680 -0.4434  0.8699  0.1259
  101SAPE  C31210274   1.316   2.607   5.507 -0.7052  0.2506  0.3318
  101SAPE  H12X10275   1.223   2.547   5.515 -0.1397 -0.8556 -1.0071
  101SAPE  H12Y10276   1.402   2.538   5.487 -0.0820  1.5565 -1.9274
  101SAPE  C31310277   1.295   2.684   5.377 -0.1825 -0.0110  0.3852
  101SAPE  H13X10278   1.391   2.740   5.365  1.3049 -2.6658 -1.1325
  101SAPE  H13Y10279   1.218   2.763   5.387  0.6981  1.3395 -2.4228
  101SAPE  C31410280   1.298   2.598   5.251 -0.3072  0.3811 -0.2005
  101SAPE  H14X10281   1.233   2.509   5.266  1.4247 -0.7240  1.1686
  101SAPE  H14Y10282   1.402   2.561   5.241 -0.7839 -0.8717 -0.8155
  101SAPE  C31510283   1.262   2.677   5.129 -0.4271  0.6346  0.1265
  101SAPE  H15X10284   1.326   2.768   5.129 -0.1054  0.4258  1.2152
  101SAPE  H15Y10285   1.156   2.709   5.131 -1.0452 -1.2233 -0.7368
  101SAPE  C31610286   1.290   2.593   4.997  0.1484 -0.5266  0.8311
  101SAPE  H16X10287   1.233   2.498   4.987 -0.7973  0.0479  0.6361
  101SAPE  H16Y10288   1.399   2.574   4.993  0.5780  0.9073  3.4545
  101SAPE  C31710289   1.252   2.683   4.877  0.6338 -0.3211  0.6118
  101SAPE  H17X10290   1.307   2.776   4.898  0.2275 -0.3137  1.7504
  101SAPE  H17Y10291   1.141   2.698   4.878  0.2619 -2.6264  1.6126
  101SAPE  C31810292   1.305   2.631   4.738 -0.0978  0.2866  0.2321
  101SAPE  H18X10293   1.333   2.709   4.665  1.3822  1.6428  2.1447
  101SAPE  H18Y10294   1.241   2.555   4.688 -0.7116  1.4187 -0.7411
  101SAPE  H18Z10295   1.400   2.578   4.762 -0.2648  0.5314  1.5504
  102SAPE     N10296   0.070   2.923   6.669  0.3045  0.2321 -0.3550
  102SAPE   HN110297   0.019   3.003   6.712  1.1175  0.5944 -0.0373
  102SAPE   HN210298   0.030   2.908   6.574  0.4046 -2.0937 -0.0777
  102SAPE   HN310299   0.033   2.844   6.725 -1.5720  0.0079 -1.8017
  102SAPE   C1210300   0.219   2.939   6.661 -0.0728  0.9538  0.1485
  102SAPE  H12A10301   0.248   2.977   6.761 -2.0519 -1.3167  1.6789
  102SAPE  H12B10302   0.243   3.003   6.573 -0.5267 -0.1068 -0.7731
  102SAPE   C1110303   0.287   2.797   6.624  0.6950  0.0383  0.3533
  102SAPE  H11A10304   0.393   2.817   6.598  1.0669 -2.2341 -0.0799
  102SAPE  H11B10305   0.235   2.766   6.531  0.1962  0.9208  0.3310
  102SAPE     P10306   0.306   2.544   6.699 -0.1566 -0.2389  0.2076
  102SAPE   O1310307   0.448   2.547   6.681 -0.5540 -0.7440 -0.3781
  102SAPE   O1410308   0.249   2.470   6.812  0.4430  0.3731  0.0250
  102SAPE   O1210309   0.257   2.700   6.724  0.4685  0.7196 -0.3986
  102SAPE   O1110310   0.228   2.508   6.562  0.5365 -0.4971 -0.3719
  102SAPE    C110311   0.086   2.521   6.558  0.0530  0.2583 -0.3673
  102SAPE    HA10312   0.041   2.448   6.629  1.4929 -1.7889 -1.4426
  102SAPE    HB10313   0.068   2.624   6.593  1.1880  0.6702 -0.9579
  102SAPE    C210314   0.023   2.501   6.413  0.3923 -0.1897  0.2676
  102SAPE    HS10315  -0.064   2.572   6.411  1.8704  1.7517 -2.2692
  102SAPE   O2110316  -0.012   2.363   6.403 -0.7260  0.0174  0.3923
  102SAPE   C2110317  -0.139   2.345   6.366 -0.6786 -0.1355  0.4639
  102SAPE   O2210318  -0.218   2.427   6.327  0.4140  0.5260  0.4825
  102SAPE   C2210319  -0.177   2.197   6.363  0.3174 -0.0466 -0.2086
  102SAPE   H2R10320  -0.228   2.177   6.267 -0.9062 -1.7286  0.7364
  102SAPE   H2S10321  -0.087   2.132   6.371  1.2819  1.2868  0.0419
  102SAPE    C310322   0.115   2.555   6.297  0.5024  0.7720  0.0540
  102SAPE    HX10323   0.186   2.469   6.297 -0.0093  0.3372  0.8558
  102SAPE    HY10324   0.162   2.653   6.318  0.4262  0.8562 -0.1724
  102SAPE   O3110325   0.058   2.546   6.170 -0.1760 -0.5969  0.0022
  102SAPE   C3110326  -0.040   2.626   6.135  0.1442  0.4635 -0.2344
  102SAPE   O3210327  -0.101   2.704   6.210  0.8849  0.1095 -0.0976
  102SAPE   C3210328  -0.071   2.595   5.986  0.0507  0.1435  0.1313
  102SAPE   H2X10329  -0.061   2.486   5.966  1.5802  0.5910 -1.8108
  102SAPE   H2Y10330  -0.002   2.640   5.912  0.5737  0.1445  0.6200
  102SAPE   C2310331  -0.284   2.158   6.469 -0.4325  0.7410 -0.6437
  102SAPE   H3R10332  -0.351   2.240   6.500 -2.9346 -1.0901 -0.9463
  102SAPE   H3S10333  -0.221   2.131   6.556  1.8827  3.4465 -1.3215
  102SAPE   C2410334  -0.374   2.029   6.435 -0.5023 -0.1012  0.1051
  102SAPE   H4R10335  -0.421   2.065   6.342  1.0620  2.9193  0.3497
  102SAPE   H4S10336  -0.446   2.007   6.516  0.1940 -0.6809  0.5819
  102SAPE   C2510337  -0.297   1.900   6.407  0.4187 -0.1167  0.8144
  102SAPE   H5R10338  -0.225   1.874   6.486 -1.3519  1.3562  3.0412
  102SAPE   C2610339  -0.310   1.822   6.296 -0.2350  0.1607  0.2855
  102SAPE   H6R10340  -0.254   1.728   6.286  0.4933  0.3724  2.1389
  102SAPE   C2710341  -0.403   1.853   6.178  0.3306 -1.1201 -0.5098
  102SAPE   H7R10342  -0.506   1.879   6.211  0.1557  0.1493 -1.9738
  102SAPE   H7S10343  -0.421   1.773   6.103  2.0311  1.6496 -4.1527
  102SAPE   C2810344  -0.365   1.976   6.089  0.1023  0.3194  0.0289
  102SAPE   H8R10345  -0.307   2.052   6.144  0.4579 -0.2856  0.4996
  102SAPE   C2910346  -0.409   1.987   5.961  0.1772 -0.2873  0.1621
  102SAPE   H9R10347  -0.385   2.082   5.910  1.6147 -1.1660 -0.8697
  102SAPE  C21010348  -0.493   1.888   5.885 -0.4373 -0.3325  0.2142
  102SAPE  H10R10349  -0.566   1.936   5.816 -0.7792 -1.1412 -0.0041
  102SAPE  H10S10350  -0.567   1.834   5.947 -0.0905 -0.8716  0.1667
  102SAPE  C21110351  -0.405   1.787   5.819  0.2035 -0.3377  0.0817
  102SAPE  H11R10352  -0.342   1.732   5.891 -0.4075  0.8912  1.6066
  102SAPE  C21210353  -0.387   1.769   5.687 -0.4953 -1.2688  0.4548
  102SAPE  H12R10354  -0.306   1.707   5.645  0.4645  0.6413 -0.6518
  102SAPE  C21310355  -0.459   1.845   5.574  0.1050  0.1683 -0.1975
  102SAPE  H13R10356  -0.392   1.928   5.543  3.0469 -1.4096  1.5143
  102SAPE  H13S10357  -0.555   1.890   5.608  0.0659 -0.0205 -0.0540
  102SAPE  C21410358  -0.491   1.748   5.465 -0.0097 -0.1139  0.3277
  102SAPE  H14R10359  -0.600   1.738   5.455  0.0079 -0.4233  0.4366
  102SAPE  C21510360  -0.421   1.706   5.355  0.4324  0.2799 -0.1762
  102SAPE  H15R10361  -0.472   1.621   5.307 -0.1474  0.5316 -0.0216
  102SAPE  C21610362  -0.275   1.733   5.328 -0.1887  0.1037 -0.3755
  102SAPE  H16R10363  -0.235   1.827   5.370  1.4690 -0.3015 -0.9803
  102SAPE  H16S10364  -0.256   1.747   5.219  0.2547  0.6022 -0.2390
  102SAPE  C21710365  -0.186   1.620   5.386  0.3080  0.0008 -0.1592
  102SAPE  H17R10366  -0.198   1.526   5.328 -2.1662 -1.0179  1.8229
  102SAPE  H17S10367  -0.210   1.611   5.494 -0.3489 -0.6625 -0.3575
  102SAPE  C21810368  -0.037   1.656   5.386  0.5844 -0.5778 -0.4969
  102SAPE  H18R10369   0.029   1.587   5.444  2.8275 -0.7563 -3.0837
  102SAPE  H18S10370  -0.030   1.756   5.434  2.5397 -1.4777  1.2629
  102SAPE  C21910371   0.026   1.669   5.247 -0.2796  0.0845  0.0148
  102SAPE  H19R10372  -0.033   1.747   5.195 -0.9591  0.2356  0.9950
  102SAPE  H19S10373   0.024   1.577   5.184 -0.4934 -0.4395  0.7813
  102SAPE  C22010374   0.175   1.712   5.243 -0.1226  0.2208  0.4308
  102SAPE  H20R10375   0.220   1.693   5.343 -1.5849 -1.6821  0.8031
  102SAPE  H20S10376   0.181   1.821   5.222 -0.9130 -0.3158 -3.3125
  102SAPE  H20T10377   0.246   1.654   5.181 -0.4332 -0.2198  0.4787
  102SAPE   C3310378  -0.211   2.658   5.954  0.1239  0.4225 -0.4308
  102SAPE   H3X10379  -0.192   2.767   5.959 -1.7533  0.7277  1.8989
  102SAPE   H3Y10380  -0.282   2.628   6.034 -0.4628 -2.6688 -1.9308
  102SAPE   C3410381  -0.260   2.615   5.807  0.1143 -0.4411  0.0703
  102SAPE   H4X10382  -0.348   2.677   5.779  0.8574  1.0096  0.8394
  102SAPE   H4Y10383  -0.286   2.507   5.816  0.9302 -0.7216 -0.8039
  102SAPE   C3510384  -0.154   2.633   5.688  0.8764 -0.0279 -0.4239
  102SAPE   H5X10385  -0.054   2.590   5.709  0.6872  0.3769  1.5875
  102SAPE   H5Y10386  -0.130   2.741   5.674 -1.7357  0.5476 -0.9414
  102SAPE   C3610387  -0.208   2.578   5.559 -0.5423 -0.5665  0.0318
  102SAPE   H6X10388  -0.273   2.488   5.564 -0.4253 -0.5939  1.2292
  102SAPE   H6Y10389  -0.119   2.554   5.497  0.8059  0.5158  1.4594
  102SAPE   C3710390  -0.289   2.681   5.484  0.7529 -0.4295 -0.8346
  102SAPE   H7X10391  -0.223   2.766   5.458  1.7790 -1.0610 -0.3452
  102SAPE   H7Y10392  -0.368   2.719   5.552 -1.5247 -0.5158 -3.2480
  102SAPE   C3810393  -0.352   2.628   5.354 -0.2646 -0.1392 -0.3370
  102SAPE   H8X10394  -0.445   2.570   5.373  0.7924 -2.4622 -1.8983
  102SAPE   H8Y10395  -0.282   2.560   5.301 -1.3627 -2.8408  1.4929
  102SAPE   C3910396  -0.402   2.750   5.270 -0.7042 -0.1690  0.4120
  102SAPE   H9X10397  -0.481   2.809   5.321 -1.9828  1.1003 -2.7456
  102SAPE   H9Y10398  -0.460   2.701   5.189  0.9234 -2.7922  0.7246
  102SAPE  C31010399  -0.291   2.844   5.210 -0.1091  0.4328 -0.0483
  102SAPE  H10X10400  -0.199   2.781   5.204 -0.3613  0.0098  0.4387
  102SAPE  H10Y10401  -0.260   2.917   5.288  2.6332 -2.0036  1.3382
  102SAPE  C31110402  -0.330   2.912   5.079  0.1146 -0.5531  0.4033
  102SAPE  H11X10403  -0.387   3.006   5.090  0.3313 -0.2821 -0.7064
  102SAPE  H11Y10404  -0.388   2.841   5.016  0.1829 -0.2827  0.0375
  102SAPE  C31210405  -0.205   2.954   4.998 -0.6989 -0.7550  0.2199
  102SAPE  H12X10406  -0.140   2.864   4.998  0.3706 -0.0248  1.0953
  102SAPE  H12Y10407  -0.152   3.039   5.047 -0.9617  1.3916 -2.8968
  102SAPE  C31310408  -0.239   2.994   4.855  0.3983  0.7116  0.5673
  102SAPE  H13X10409  -0.285   3.095   4.862  0.7151  0.8983 -0.0156
  102SAPE  H13Y10410  -0.307   2.922   4.806  2.6483 -0.8070 -0.4699
  102SAPE  C31410411  -0.117   3.004   4.764  0.0577  0.2089 -0.4634
  102SAPE  H14X10412  -0.150   3.028   4.661 -0.6555 -1.3081 -0.6074
  102SAPE  H14Y10413  -0.060   2.911   4.745  0.4189  0.3148  0.0821
  102SAPE  C31510414  -0.011   3.112   4.812  0.0509  0.4102  0.4472
  102SAPE  H15X10415   0.054   3.065   4.889 -1.7868  0.1400  1.8949
  102SAPE  H15Y10416  -0.080   3.188   4.854 -1.5261  0.7134 -2.4886
  102SAPE  C31610417   0.059   3.183   4.700  0.0513  0.2169  0.6168
  102SAPE  H16X10418  -0.016   3.203   4.621  1.0962 -0.0238 -0.4687
  102SAPE  H16Y10419   0.130   3.110   4.657 -1.0784 -0.5513  0.0344
  102SAPE  C31710420   0.132   3.312   4.753  0.6501  0.3798  0.2801
  102SAPE  H17X10421   0.235   3.322   4.712  0.0666  0.9294 -1.1177
  102SAPE  H17Y10422   0.134   3.290   4.862  0.6746  0.6001  0.3244
  102SAPE  C31810423   0.036   3.428   4.737  0.0767  0.5364 -0.4768
  102SAPE  H18X10424   0.058   3.497   4.821  0.4587 -2.0683  1.7043
  102SAPE  H18Y10425  -0.069   3.395   4.747  0.7473 -1.7185 -0.2639
  102SAPE  H18Z10426   0.055   3.490   4.646 -0.5964  0.1204 -0.9080
  103SAPE     N10427   5.669   5.394   2.424 -0.1423  1.0923 -0.1875
  103SAPE   HN110428   5.752   5.408   2.364 -0.2216  0.5063 -0.4450
  103SAPE   HN210429   5.631   5.486   2.454 -0.4643  0.9072 -0.0185
  103SAPE   HN310430   5.688   5.334   2.506 -0.8755  0.3363 -0.5484
  103SAPE   C1210431   5.560   5.330   2.334 -0.1101  0.2879  0.7199
  103SAPE  H12A10432   5.601   5.236   2.291  1.2467  2.0304 -2.0912
  103SAPE  H12B10433   5.542   5.393   2.244  2.5861  0.7642  0.4206
  103SAPE   C1110434   5.432   5.297   2.409  0.0397 -0.4914 -0.1322
  103SAPE  H11A10435   5.446   5.189   2.430  0.6193 -0.3980 -0.0033
  103SAPE  H11B10436   5.344   5.299   2.342  0.1416 -0.0552 -0.2584
  103SAPE     P10437   5.360   5.525   2.512  0.3209 -0.3229  0.0168
  103SAPE   O1310438   5.481   5.591   2.453 -0.2259 -0.2262 -0.1179
  103SAPE   O1410439   5.225   5.545   2.443  0.1299 -0.2001  0.1841
  103SAPE   O1210440   5.391   5.373   2.525 -0.2774 -0.2464 -0.0646
  103SAPE   O1110441   5.344   5.551   2.665  0.3798  0.1010  0.5273
  103SAPE    C110442   5.454   5.584   2.750  0.1689 -0.3981  0.2962
  103SAPE    HA10443   5.526   5.648   2.694 -1.9043  2.1836  0.4253
  103SAPE    HB10444   5.415   5.650   2.830  1.5375 -1.2034  1.6817
  103SAPE    C210445   5.522   5.459   2.817  0.0602  0.2033 -0.2983
  103SAPE    HS10446   5.544   5.400   2.726  1.4150  2.2109 -1.3595
  103SAPE   O2110447   5.424   5.396   2.908  0.3799 -0.3507  0.4643
  103SAPE   C2110448   5.451   5.271   2.932  0.4458  0.1627 -0.2757
  103SAPE   O2210449   5.533   5.194   2.885  0.5370 -0.5304  0.4661
  103SAPE   C2210450   5.353   5.225   3.043  0.1255  0.3410  0.3929
  103SAPE   H2R10451   5.272   5.300   3.057 -1.8779 -1.5115 -0.6688
  103SAPE   H2S10452   5.311   5.129   3.007 -0.5735  0.8240 -0.1112
  103SAPE    C310453   5.652   5.506   2.887 -0.1148 -0.2255 -0.8680
  103SAPE    HX10454   5.720   5.563   2.820 -0.4999  1.4760  0.1306
  103SAPE    HY10455   5.704   5.414   2.920 -0.9501  0.0785  1.5135
  103SAPE   O3110456   5.615   5.593   2.995  0.0511 -0.0502 -0.1579
  103SAPE   C3110457   5.710   5.603   3.094  0.2911  0.1374 -0.1637
  103SAPE   O3210458   5.807   5.529   3.099 -0.0023 -0.1085  0.1817
  103SAPE   C3210459   5.666   5.715   3.189 -0.2257  0.2028  0.0326
  103SAPE   H2X10460   5.587   5.780   3.145  1.1034  0.8833 -1.4953
  103SAPE   H2Y10461   5.752   5.786   3.185  0.8088 -1.0543 -1.3836
  103SAPE   C2310462   5.413   5.202   3.178  0.2294  0.2036  0.3139
  103SAPE   H3R10463   5.495   5.128   3.164  1.7576  2.0122 -0.8411
  103SAPE   H3S10464   5.341   5.157   3.249  2.5500 -2.4496  1.1847
  103SAPE   C2410465   5.466   5.338   3.224  0.2629  0.1606 -0.3860
  103SAPE   H4R10466   5.378   5.404   3.240 -0.2269 -0.1686 -1.6153
  103SAPE   H4S10467   5.534   5.385   3.149 -0.0286  1.9962  0.4481
  103SAPE   C2510468   5.542   5.329   3.353 -0.1905 -0.1333 -0.4705
  103SAPE   H5R10469   5.639   5.283   3.329 -1.1958 -2.9055  0.4247
  103SAPE   C2610470   5.496   5.332   3.481 -0.1976 -0.1233  0.5728
  103SAPE   H6R10471   5.559   5.313   3.569 -0.8164 -1.8564  0.6895
  103SAPE   C2710472   5.351   5.349   3.524  0.2610 -0.4695  0.1212
  103SAPE   H7R10473   5.311   5.246   3.534  1.0828 -0.8811 -0.6367
  103SAPE   H7S10474   5.288   5.403   3.451  2.0548  1.0334 -0.3934
  103SAPE   C2810475   5.343   5.423   3.651 -0.0737 -0.2262 -0.5215
  103SAPE   H8R10476   5.419   5.502   3.656  0.6966 -1.0187  2.5623
  103SAPE   C2910477   5.269   5.392   3.755  0.3838  0.6032  0.2092
  103SAPE   H9R10478   5.288   5.452   3.846  2.0657  2.0767 -1.0359
  103SAPE  C21010479   5.153   5.291   3.771  0.3170 -0.3415  0.2931
  103SAPE  H10R10480   5.180   5.191   3.813 -0.2888  0.3846  2.5674
  103SAPE  H10S10481   5.103   5.277   3.673 -0.5349  2.3276  0.2623
  103SAPE  C21110482   5.048   5.356   3.855 -0.2800  0.1445  0.2344
  103SAPE  H11R10483   4.978   5.421   3.801 -1.5525  0.4514  2.1536
  103SAPE  C21210484   5.027   5.346   3.984  0.4130  0.0734  0.5831
  103SAPE  H12R10485   4.944   5.404   4.029  0.2072 -0.4419  0.8822
  103SAPE  C21310486   5.109   5.244   4.065  0.0301 -0.3766  0.0878
  103SAPE  H13R10487   5.216   5.257   4.036  0.1482 -1.4489  0.0006
  103SAPE  H13S10488   5.082   5.137   4.054  2.1141 -0.9205 -0.2065
  103SAPE  C21410489   5.120   5.258   4.210  0.9243  0.1364  0.2195
  103SAPE  H14R10490   5.075   5.170   4.259 -0.9351  0.9914  0.1096
  103SAPE  C21510491   5.171   5.357   4.284  0.2580 -0.2375 -0.3069
  103SAPE  H15R10492   5.183   5.334   4.391 -1.4840 -0.3099 -0.1019
  103SAPE  C21610493   5.239   5.482   4.242  0.0891  0.4556 -0.7157
  103SAPE  H16R10494   5.207   5.520   4.143 -2.0032  1.8839  0.4423
  103SAPE  H16S10495   5.347   5.457   4.238 -0.2121 -1.0958  0.0922
  103SAPE  C21710496   5.227   5.590   4.349 -0.3450  0.1898  0.3918
  103SAPE  H17R10497   5.289   5.674   4.313 -0.6739 -1.5922 -5.3541
  103SAPE  H17S10498   5.263   5.540   4.441  0.3501  0.2506  0.1565
  103SAPE  C21810499   5.086   5.630   4.384  0.2764 -0.8728 -0.7492
  103SAPE  H18R10500   5.025   5.549   4.428  0.5985 -0.2399  0.9684
  103SAPE  H18S10501   5.023   5.665   4.300  0.0712  0.0233 -0.2327
  103SAPE  C21910502   5.091   5.756   4.482  0.9243 -0.4326  0.0535
  103SAPE  H19R10503   5.171   5.823   4.447 -0.1766  1.0632  0.2930
  103SAPE  H19S10504   5.135   5.726   4.580  1.0125 -0.9267 -0.1358
  103SAPE  C22010505   4.959   5.834   4.502 -0.4521 -0.0443 -0.3213
  103SAPE  H20R10506   4.875   5.767   4.528 -1.6152  0.7523 -1.8544
  103SAPE  H20S10507   4.927   5.878   4.405  0.1689 -1.8842 -1.4050
  103SAPE  H20T10508   4.975   5.908   4.583 -1.0284 -2.3312  1.9994
  103SAPE   C3310509   5.646   5.658   3.322 -0.0557 -0.3425 -0.2643
  103SAPE   H3X10510   5.721   5.582   3.353  1.6809  2.0031  1.6320
  103SAPE   H3Y10511   5.545   5.611   3.327  0.6584 -1.8300  1.1908
  103SAPE   C3410512   5.635   5.766   3.431 -0.6401  0.8194  0.1021
  103SAPE   H4X10513   5.571   5.852   3.402  0.9440  1.9818 -0.0617
  103SAPE   H4Y10514   5.735   5.810   3.451  0.9209 -2.0385 -0.7390
  103SAPE   C3510515   5.586   5.693   3.561  0.0264 -0.4390 -0.1743
  103SAPE   H5X10516   5.638   5.595   3.565 -2.3285 -1.7285  1.7387
  103SAPE   H5Y10517   5.479   5.668   3.544  0.8643 -3.1030 -2.2604
  103SAPE   C3610518   5.631   5.747   3.700 -0.2353 -0.0370 -1.3172
  103SAPE   H6X10519   5.576   5.839   3.731 -0.7115 -0.2005 -1.6691
  103SAPE   H6Y10520   5.733   5.788   3.682  0.1526 -1.7294 -3.4312
  103SAPE   C3710521   5.611   5.645   3.815 -0.3160 -0.3380  0.3948
  103SAPE   H7X10522   5.654   5.548   3.782 -1.2944 -0.8185  0.5266
  103SAPE   H7Y10523   5.502   5.625   3.817 -0.2806 -0.5030  0.7297
  103SAPE   C3810524   5.657   5.704   3.951 -0.8118 -0.0778 -0.0842
  103SAPE   H8X10525   5.606   5.802   3.961  0.0389  0.1308  3.3406
  103SAPE   H8Y10526   5.768   5.707   3.949 -0.7984 -0.3043  0.2654
  103SAPE   C3910527   5.603   5.624   4.076 -0.4650  0.1357  0.6697
  103SAPE   H9X10528   5.646   5.522   4.076  0.5804  0.4991 -1.9477
  103SAPE   H9Y10529   5.497   5.602   4.051 -0.2756 -1.0723  0.8685
  103SAPE  C31010530   5.617   5.700   4.213 -0.2133 -0.6977 -0.2068
  103SAPE  H10X10531   5.562   5.640   4.289  0.1063 -4.3454 -2.6159
  103SAPE  H10Y10532   5.567   5.799   4.209 -0.1954 -0.7019 -0.5836
  103SAPE  C31110533   5.768   5.723   4.255  0.7012 -0.0876 -0.3176
  103SAPE  H11X10534   5.828   5.778   4.180  3.0645 -3.0468 -0.7993
  103SAPE  H11Y10535   5.808   5.621   4.271  0.1984 -0.1869  0.3655
  103SAPE  C31210536   5.754   5.792   4.393  0.1857  0.0772  0.1937
  103SAPE  H12X10537   5.682   5.738   4.459 -0.0875 -0.1795 -0.3090
  103SAPE  H12Y10538   5.711   5.891   4.365 -0.1331 -0.2337 -0.4397
  103SAPE  C31310539   5.893   5.813   4.456 -0.3581 -0.7910 -0.4054
  103SAPE  H13X10540   5.946   5.887   4.391 -0.6092  0.9872  1.3173
  103SAPE  H13Y10541   5.950   5.718   4.465  0.3956 -0.2303  1.1337
  103SAPE  C31410542   5.877   5.878   4.597 -0.4638 -0.1359 -0.0458
  103SAPE  H14X10543   5.824   5.806   4.663 -0.3762 -1.5605 -1.4551
  103SAPE  H14Y10544   5.817   5.971   4.607  0.8163  0.6959  0.0946
  103SAPE  C31510545   6.003   5.925   4.675 -0.2620 -0.4456 -0.0583
  103SAPE  H15X10546   6.093   5.884   4.623 -0.0496  1.0138 -0.9013
  103SAPE  H15Y10547   5.988   5.871   4.771  0.5527  1.3028  1.1185
  103SAPE  C31610548   6.030   6.070   4.683  1.0587 -0.1915 -0.5203
  103SAPE  H16X10549   5.939   6.132   4.696  0.7336 -0.3874 -1.7834
  103SAPE  H16Y10550   6.082   6.091   4.588  2.1361 -0.3673  0.0115
  103SAPE  C31710551   6.106   6.097   4.811  0.0624 -0.9119 -0.3887
  103SAPE  H17X10552   6.198   6.035   4.806 -2.2340 -4.5841 -1.7686
  103SAPE  H17Y10553   6.045   6.060   4.896  0.3378  0.9005  0.6499
  103SAPE  C31810554   6.129   6.248   4.840 -0.6305 -0.0101  0.1465
  103SAPE  H18X10555   6.183   6.279   4.932  1.5262  1.6083 -1.5758
  103SAPE  H18Y10556   6.030   6.299   4.838 -1.2642 -1.0518  2.0000
  103SAPE  H18Z10557   6.187   6.286   4.753 -1.1560 -0.7236 -0.5287
  104SAPE     N10558   1.960   6.703   2.489  0.1087  0.1112 -0.2295
  104SAPE   HN110559   1.963   6.616   2.433 -0.6864 -0.0118 -0.1006
  104SAPE   HN210560   1.887   6.762   2.443  1.0877  0.8394 -0.8790
  104SAPE   HN310561   2.050   6.750   2.469 -0.1038  1.1267  1.0223
  104SAPE   C1210562   1.931   6.678   2.632 -0.1648 -0.0281  0.6689
  104SAPE  H12A10563   2.021   6.630   2.674 -0.7446 -0.7513  1.1129
  104SAPE  H12B10564   1.859   6.594   2.640 -0.2823 -0.1979 -1.4720
  104SAPE   C1110565   1.885   6.806   2.708 -0.3389  0.4081  0.6900
  104SAPE  H11A10566   1.963   6.880   2.682  1.9225 -2.0027  0.2248
  104SAPE  H11B10567   1.898   6.781   2.815 -1.3064 -2.0880  0.2979
  104SAPE     P10568   1.646   6.911   2.746  0.0438  0.1712 -0.3292
  104SAPE   O1310569   1.698   7.045   2.797  0.2578  0.0925  0.1745
  104SAPE   O1410570   1.525   6.925   2.663  0.1862 -0.5922  0.5063
  104SAPE   O1210571   1.759   6.848   2.656  0.1810 -0.4142 -0.5055
  104SAPE   O1110572   1.635   6.806   2.865 -0.1400  0.0723 -0.0662
  104SAPE    C110573   1.509   6.781   2.915 -0.6934  0.2655 -0.4009
  104SAPE    HA10574   1.441   6.745   2.835 -0.0937  0.1016 -0.8438
  104SAPE    HB10575   1.522   6.695   2.985  2.1946  0.7777 -0.1933
  104SAPE    C210576   1.442   6.900   2.994 -0.1448  0.4317 -0.0595
  104SAPE    HS10577   1.435   6.977   2.914  1.7599 -0.1859 -0.8939
  104SAPE   O2110578   1.520   6.938   3.105 -0.0127  0.2073  0.2066
  104SAPE   C2110579   1.518   7.062   3.144 -0.7296 -0.2657  0.9351
  104SAPE   O2210580   1.449   7.154   3.098 -0.2344 -0.1683 -0.1100
  104SAPE   C2210581   1.614   7.076   3.262 -0.9730 -0.5095  0.7460
  104SAPE   H2R10582   1.650   6.974   3.284 -0.1391 -0.7653 -1.4939
  104SAPE   H2S10583   1.699   7.135   3.219 -1.5226 -0.8780 -0.9348
  104SAPE    C310584   1.294   6.861   3.042 -1.0537  0.5642 -0.4378
  104SAPE    HX10585   1.314   6.793   3.128 -2.0136  0.5904 -0.1711
  104SAPE    HY10586   1.257   6.814   2.948 -1.6749 -0.4630  0.2950
  104SAPE   O3110587   1.208   6.965   3.098  1.0128  0.5544  0.1970
  104SAPE   C3110588   1.155   7.044   3.009 -0.3387  0.3164  0.2516
  104SAPE   O3210589   1.177   7.034   2.890 -0.0179 -0.2988 -0.0229
  104SAPE   C3210590   1.071   7.153   3.075 -0.2516 -0.3304  0.4492
  104SAPE   H2X10591   0.966   7.119   3.063  0.0283 -0.7530 -0.8934
  104SAPE   H2Y10592   1.077   7.238   3.005 -0.9811 -0.9458 -0.3812
  104SAPE   C2310593   1.560   7.168   3.386  0.7885 -0.3591  0.8516
  104SAPE   H3R10594   1.474   7.122   3.437 -0.1380 -0.1923 -0.5076
  104SAPE   H3S10595   1.519   7.263   3.347  0.9212 -0.5770  0.1629
  104SAPE   C2410596   1.653   7.201   3.499  0.2126 -0.1756 -0.4307
  104SAPE   H4R10597   1.671   7.106   3.555 -0.7549 -0.3927 -0.4761
  104SAPE   H4S10598   1.592   7.271   3.560 -1.2968  1.8696 -3.9909
  104SAPE   C2510599   1.787   7.266   3.466 -0.3332 -0.1329  0.4747
  104SAPE   H5R10600   1.858   7.207   3.407  0.7190  0.2711  1.2994
  104SAPE   C2610601   1.838   7.384   3.505 -0.2675  0.8138 -0.0697
  104SAPE   H6R10602   1.938   7.421   3.477 -0.1003  2.4276  2.3983
  104SAPE   C2710603   1.768   7.500   3.569  0.0308  0.5241 -1.3571
  104SAPE   H7R10604   1.759   7.477   3.678  1.8700 -0.6670 -1.4136
  104SAPE   H7S10605   1.664   7.507   3.532 -1.2507  2.1162  2.0834
  104SAPE   C2810606   1.814   7.631   3.539 -0.5208 -0.4954  0.0222
  104SAPE   H8R10607   1.864   7.638   3.441  3.3937  1.0760  1.8964
  104SAPE   C2910608   1.815   7.732   3.626 -0.1506 -0.6834 -0.2690
  104SAPE   H9R10609   1.860   7.831   3.609 -4.1072  1.9041  2.2992
  104SAPE  C21010610   1.773   7.727   3.768 -0.0637  0.1579 -0.5713
  104SAPE  H10R10611   1.692   7.653   3.783  1.2470 -1.2065  0.0682
  104SAPE  H10S10612   1.727   7.825   3.791 -0.5222  0.1875 -1.5387
  104SAPE  C21110613   1.883   7.684   3.862  1.0808 -0.5615 -0.2140
  104SAPE  H11R10614   1.945   7.600   3.829  2.0464  1.0255 -2.7524
  104SAPE  C21210615   1.906   7.737   3.987  0.1908  0.3173 -0.4643
  104SAPE  H12R10616   1.977   7.682   4.051  0.3295  1.4361  0.3721
  104SAPE  C21310617   1.852   7.858   4.053 -0.0775 -0.2462 -0.2478
  104SAPE  H13R10618   1.828   7.929   3.971  1.5647 -1.9001 -2.3007
  104SAPE  H13S10619   1.923   7.908   4.122 -1.8283  0.4234  1.1415
  104SAPE  C21410620   1.725   7.848   4.136 -0.3709  0.5924  0.1219
  104SAPE  H14R10621   1.746   7.786   4.224 -0.1980 -0.6781 -0.7806
  104SAPE  C21510622   1.609   7.903   4.107 -0.5602 -0.1448 -0.1421
  104SAPE  H15R10623   1.535   7.893   4.188  0.1164 -0.8496  0.4097
  104SAPE  C21610624   1.566   8.000   3.992 -0.4676 -0.5684  0.2201
  104SAPE  H16R10625   1.643   8.042   3.924 -3.3975  1.3074 -2.1921
  104SAPE  H16S10626   1.525   8.096   4.031 -2.0717 -1.6571  1.3626
  104SAPE  C21710627   1.462   7.939   3.910  0.0206  0.1843  0.7929
  104SAPE  H17R10628   1.375   7.906   3.970 -1.3731  1.5907 -0.3759
  104SAPE  H17S10629   1.500   7.847   3.861 -3.1770 -0.7212 -0.2217
  104SAPE  C21810630   1.419   8.023   3.784  0.7273 -0.4220 -1.1200
  104SAPE  H18R10631   1.413   8.128   3.822 -0.9177 -0.1083 -2.1189
  104SAPE  H18S10632   1.317   8.001   3.746  0.4772  2.0426 -2.0668
  104SAPE  C21910633   1.514   8.021   3.670 -0.2652 -0.9182 -0.6266
  104SAPE  H19R10634   1.528   7.917   3.633  2.2016 -0.2396 -1.7888
  104SAPE  H19S10635   1.606   8.063   3.715 -2.6335  2.5787  1.5161
  104SAPE  C22010636   1.469   8.114   3.558  0.0764  1.0018  0.4808
  104SAPE  H20R10637   1.541   8.124   3.475 -0.0203 -1.4756  0.0225
  104SAPE  H20S10638   1.462   8.215   3.604 -0.5472  0.4794  1.6089
  104SAPE  H20T10639   1.379   8.082   3.501  0.6630 -0.1760  0.1799
  104SAPE   C3310640   1.115   7.196   3.218  0.3911 -0.2174 -0.0981
  104SAPE   H3X10641   1.047   7.281   3.241  2.5406  1.0696  2.0514
  104SAPE   H3Y10642   1.216   7.243   3.219  1.4318 -2.3204 -1.2369
  104SAPE   C3410643   1.089   7.101   3.333  0.0776 -0.0996  0.4842
  104SAPE   H4X10644   1.161   7.018   3.320  0.4251  0.3732 -0.8237
  104SAPE   H4Y10645   0.984   7.065   3.343 -0.7381  1.7055 -0.8549
  104SAPE   C3510646   1.133   7.166   3.467 -0.2188  0.0202  0.1170
  104SAPE   H5X10647   1.232   7.216   3.456  0.3514 -1.2446 -0.6478
  104SAPE   H5Y10648   1.153   7.081   3.536  0.3484 -1.1333 -1.4167
  104SAPE   C3610649   1.033   7.275   3.514  0.0128 -0.4911  0.3486
  104SAPE   H6X10650   0.933   7.228   3.505 -0.4757  0.3005  1.5357
  104SAPE   H6Y10651   1.036   7.358   3.441  0.2652 -0.3426  0.5276
  104SAPE   C3710652   1.044   7.310   3.662  0.1899 -0.4171  0.7723
  104SAPE   H7X10653   0.996   7.409   3.681 -0.3499 -0.1684 -1.5789
  104SAPE   H7Y10654   1.152   7.332   3.676  0.5283 -0.9645 -0.7839
  104SAPE   C3810655   0.995   7.206   3.765 -0.7266  0.7587  0.2101
  104SAPE   H8X10656   1.074   7.127   3.770 -2.5436 -1.4148 -2.2970
  104SAPE   H8Y10657   0.904   7.156   3.725 -1.3157  0.2643  2.1054
  104SAPE   C3910658   0.977   7.274   3.902 -0.5968  0.5549 -0.0568
  104SAPE   H9X10659   0.879   7.324   3.911 -2.1656 -2.4517  1.0232
  104SAPE   H9Y10660   1.059   7.347   3.922  0.4191 -0.4855 -0.3338
  104SAPE  C31010661   0.972   7.184   4.028  0.3882  0.8273  0.2011
  104SAPE  H10X10662   1.050   7.105   4.031  1.4002  1.7792  3.1874
  104SAPE  H10Y10663   0.875   7.130   4.026  0.7928  0.0276  1.2094
  104SAPE  C31110664   0.981   7.252   4.171 -0.5175  0.3988  0.1783
  104SAPE  H11X10665   0.882   7.286   4.208 -1.8784 -1.4988 -1.5490
  104SAPE  H11Y10666   1.039   7.345   4.154 -0.7446 -0.0048 -3.4939
  104SAPE  C31210667   1.053   7.152   4.271  0.1401 -0.0328  0.4986
  104SAPE  H12X10668   1.153   7.131   4.227  0.6624 -0.1440  1.6904
  104SAPE  H12Y10669   0.990   7.061   4.281  1.4294 -1.2972 -1.7939
  104SAPE  C31310670   1.075   7.216   4.411 -0.6079  0.6842  0.1162
  104SAPE  H13X10671   1.119   7.318   4.402  0.7531  0.0417 -0.8208
  104SAPE  H13Y10672   1.147   7.145   4.457 -0.4860  1.4231  1.1192
  104SAPE  C31410673   0.945   7.214   4.490  0.1691 -0.1950 -0.8261
  104SAPE  H14X10674   0.889   7.118   4.485 -0.3645  0.1630 -2.0371
  104SAPE  H14Y10675   0.874   7.283   4.440 -0.5102 -1.2632 -1.3697
  104SAPE  C31510676   0.964   7.277   4.631  0.5858 -1.1875  0.4397
  104SAPE  H15X10677   0.997   7.382   4.614 -2.1344 -0.5881 -1.8448
  104SAPE  H15Y10678   1.037   7.210   4.681  2.0182  0.1194  0.1748
  104SAPE  C31610679   0.833   7.272   4.714  0.2625  0.0242  0.0265
  104SAPE  H16X10680   0.801   7.167   4.731  4.1139 -0.8837  3.0843
  104SAPE  H16Y10681   0.764   7.337   4.655 -0.3780 -0.7700 -0.1166
  104SAPE  C31710682   0.839   7.323   4.855 -0.8112 -0.2521 -0.4084
  104SAPE  H17X10683   0.920   7.266   4.905 -0.1996 -1.5208 -2.6747
  104SAPE  H17Y10684   0.739   7.297   4.896 -0.6221 -1.0399 -0.4210
  104SAPE  C31810685   0.864   7.473   4.856  0.3995 -0.1502 -0.3237
  104SAPE  H18X10686   0.857   7.506   4.962  0.7998  1.6527 -0.8235
  104SAPE  H18Y10687   0.787   7.531   4.802  0.5595  0.0708 -0.3168
  104SAPE  H18Z10688   0.964   7.497   4.815  0.5674 -2.0229 -1.1305
  105SAPE     N10689   2.861   3.158   2.679  0.0948 -0.8551 -0.3155
  105SAPE   HN110690   2.936   3.151   2.751  0.0202  2.6017  0.2433
  105SAPE   HN210691   2.804   3.235   2.719  0.2786 -0.8849  0.0088
  105SAPE   HN310692   2.810   3.068   2.673 -1.1671 -0.2056  0.4340
  105SAPE   C1210693   2.896   3.194   2.538  0.5969  0.3388  0.1265
  105SAPE  H12A10694   2.947   3.292   2.544  0.5521  0.3530  0.2630
  105SAPE  H12B10695   2.804   3.189   2.475 -0.1807 -1.1672  1.2938
  105SAPE   C1110696   2.984   3.075   2.486  0.4299  0.3971 -0.1352
  105SAPE  H11A10697   3.012   3.094   2.380 -2.4549  2.4522 -0.6349
  105SAPE  H11B10698   2.924   2.982   2.488  2.7646 -1.1828  1.2493
  105SAPE     P10699   3.246   3.101   2.561  0.1624 -0.0877 -0.0390
  105SAPE   O1310700   3.333   2.979   2.554  0.2222 -0.7887  0.3646
  105SAPE   O1410701   3.262   3.198   2.452  0.2405  0.3282  0.0266
  105SAPE   O1210702   3.097   3.047   2.569  0.2358  0.0037 -0.8496
  105SAPE   O1110703   3.261   3.178   2.703  0.5685  0.3666  0.1003
  105SAPE    C110704   3.350   3.121   2.809  0.6346 -0.4646  0.7543
  105SAPE    HA10705   3.443   3.078   2.766 -0.3598  0.4298 -2.5890
  105SAPE    HB10706   3.378   3.204   2.878 -0.4798  1.7701 -1.3341
  105SAPE    C210707   3.275   3.008   2.892  1.0058 -0.0898  0.6180
  105SAPE    HS10708   3.202   2.959   2.824 -0.4360  2.3698  0.2784
  105SAPE   O2110709   3.205   3.076   2.993  0.0100  0.5091 -1.1278
  105SAPE   C2110710   3.097   3.142   2.971  0.1055  0.8324 -0.9032
  105SAPE   O2210711   3.039   3.149   2.868  0.3866 -0.3475  0.6329
  105SAPE   C2210712   3.040   3.176   3.109  0.1658  0.0341  0.4477
  105SAPE   H2R10713   2.988   3.088   3.152 -2.1091  1.3604  0.5467
  105SAPE   H2S10714   3.125   3.193   3.179  1.1789 -2.6521  0.0099
  105SAPE    C310715   3.371   2.900   2.955 -0.8539 -0.5222  0.6718
  105SAPE    HX10716   3.414   2.843   2.870 -0.1672  0.5717  0.2741
  105SAPE    HY10717   3.314   2.814   2.997  0.3706 -3.3892 -2.9167
  105SAPE   O3110718   3.461   2.950   3.058 -0.3442  0.4960 -0.0741
  105SAPE   C3110719   3.405   2.956   3.177  0.8174 -0.2519 -0.1163
  105SAPE   O3210720   3.305   2.900   3.217  0.0080 -0.7602 -0.1202
  105SAPE   C3210721   3.486   3.056   3.258 -0.3412  0.4423  0.5538
  105SAPE   H2X10722   3.476   3.155   3.208  0.6357 -0.3841 -1.3786
  105SAPE   H2Y10723   3.593   3.026   3.247 -0.5042 -0.1625  0.6155
  105SAPE   C2310724   2.955   3.305   3.117 -0.3042  0.0637  0.0193
  105SAPE   H3R10725   2.867   3.280   3.054 -0.3919  2.4241 -0.8947
  105SAPE   H3S10726   3.011   3.391   3.075 -1.4785  1.4266  1.1142
  105SAPE   C2410727   2.882   3.342   3.252  0.2513 -0.4608 -0.3332
  105SAPE   H4R10728   2.803   3.415   3.226 -0.1128  0.5237  3.1525
  105SAPE   H4S10729   2.949   3.403   3.316  0.0753  1.8598 -2.2071
  105SAPE   C2510730   2.814   3.219   3.307 -0.8852  0.4148  0.8351
  105SAPE   H5R10731   2.741   3.172   3.239 -1.0587  0.3602  1.0606
  105SAPE   C2610732   2.842   3.156   3.423  0.2768 -0.2468  0.1640
  105SAPE   H6R10733   2.785   3.062   3.435  0.3602 -0.4118 -0.6882
  105SAPE   C2710734   2.937   3.200   3.527  1.1284 -0.0477  0.0196
  105SAPE   H7R10735   2.888   3.285   3.580 -1.5079 -1.8079  0.6364
  105SAPE   H7S10736   3.030   3.240   3.483  0.8994 -0.3522 -0.7619
  105SAPE   C2810737   2.968   3.095   3.635  0.5155  0.0646 -0.7974
  105SAPE   H8R10738   2.926   2.994   3.617  1.3737 -0.4456 -0.0007
  105SAPE   C2910739   3.019   3.124   3.750 -0.6565  0.4476  0.0442
  105SAPE   H9R10740   3.029   3.043   3.824 -1.0433  0.3378 -0.0216
  105SAPE  C21010741   3.055   3.267   3.788 -0.2373 -0.0121  0.0829
  105SAPE  H10R10742   3.027   3.344   3.714 -1.2155 -0.8565 -0.4470
  105SAPE  H10S10743   3.164   3.280   3.809  0.1867  0.1265 -1.9982
  105SAPE  C21110744   2.970   3.292   3.907 -0.5092  0.0162  1.0777
  105SAPE  H11R10745   2.862   3.283   3.886 -0.1555  1.0737 -1.7334
  105SAPE  C21210746   3.009   3.329   4.033  0.3872  0.4388 -0.1059
  105SAPE  H12R10747   2.934   3.357   4.108 -0.8769 -1.0507 -0.7804
  105SAPE  C21310748   3.156   3.355   4.070  0.1170 -0.2653 -0.0045
  105SAPE  H13R10749   3.221   3.385   3.985 -1.1304  2.3740 -0.1028
  105SAPE  H13S10750   3.186   3.251   4.095  0.1733 -0.0984  0.6547
  105SAPE  C21410751   3.174   3.443   4.189 -0.0105 -0.5965 -1.0025
  105SAPE  H14R10752   3.125   3.541   4.189 -0.4322 -0.7642  1.0415
  105SAPE  C21510753   3.248   3.419   4.301 -0.0754  0.1516 -0.7716
  105SAPE  H15R10754   3.228   3.495   4.378 -3.1823  0.3400 -1.6248
  105SAPE  C21610755   3.327   3.291   4.335  0.3661  0.4125 -0.0432
  105SAPE  H16R10756   3.353   3.230   4.246 -0.0248 -0.9526  0.7473
  105SAPE  H16S10757   3.276   3.226   4.410 -0.5275 -0.8489 -1.6987
  105SAPE  C21710758   3.457   3.316   4.413  0.0995  0.0446  0.3633
  105SAPE  H17R10759   3.526   3.378   4.352 -0.4148 -0.3088 -0.5993
  105SAPE  H17S10760   3.512   3.224   4.441  0.2037  0.4471  1.5686
  105SAPE  C21810761   3.448   3.384   4.553 -0.0373 -0.6515  0.4684
  105SAPE  H18R10762   3.392   3.479   4.536 -2.6289 -2.1876 -0.0943
  105SAPE  H18S10763   3.548   3.429   4.571  0.2396 -0.2671 -1.7290
  105SAPE  C21910764   3.378   3.297   4.658  0.3272  0.0989 -0.3170
  105SAPE  H19R10765   3.438   3.205   4.674  1.9044  1.2284  0.5237
  105SAPE  H19S10766   3.280   3.266   4.615 -0.4511  0.3343  1.2277
  105SAPE  C22010767   3.359   3.368   4.793 -0.3225 -0.0682 -0.0182
  105SAPE  H20R10768   3.304   3.464   4.782  2.6508  1.7837  0.1501
  105SAPE  H20S10769   3.459   3.385   4.838 -0.4509 -1.5484  0.8861
  105SAPE  H20T10770   3.307   3.294   4.857  0.8617  0.4417  1.5909
  105SAPE   C3310771   3.463   3.042   3.412  0.3854 -0.0929 -0.3549
  105SAPE   H3X10772   3.353   3.040   3.427  0.6446 -2.7547  2.3982
  105SAPE   H3Y10773   3.503   3.133   3.462 -0.1285  0.7019 -1.3624
  105SAPE   C3410774   3.518   2.914   3.478  0.0981  0.4911 -0.7681
  105SAPE   H4X10775   3.607   2.872   3.427  1.0453  1.2383  0.2231
  105SAPE   H4Y10776   3.439   2.837   3.469  4.1515 -4.6144  1.7646
  105SAPE   C3510777   3.543   2.923   3.630  0.9395 -0.2780  0.2644
  105SAPE   H5X10778   3.596   3.018   3.652 -2.6348  1.3830  2.5916
  105SAPE   H5Y10779   3.596   2.832   3.666 -0.6538 -1.2653  0.2129
  105SAPE   C3610780   3.419   2.934   3.714 -0.3797 -0.2299 -0.9541
  105SAPE   H6X10781   3.348   2.852   3.691  0.4966 -0.7472 -1.9319
  105SAPE   H6Y10782   3.372   3.032   3.690 -0.3664  0.1631  0.5530
  105SAPE   C3710783   3.442   2.946   3.859 -0.2321 -0.2775  0.1522
  105SAPE   H7X10784   3.496   3.039   3.887 -0.0852 -0.2055 -0.3466
  105SAPE   H7Y10785   3.495   2.857   3.900 -0.7666 -0.4741  0.4179
  105SAPE   C3810786   3.312   2.966   3.934  0.0196  0.1207 -0.1562
  105SAPE   H8X10787   3.241   2.889   3.896  2.4087 -2.0266 -0.5299
  105SAPE   H8Y10788   3.279   3.068   3.907  1.8774  1.1547  1.2992
  105SAPE   C3910789   3.335   2.954   4.086 -0.2187  0.0448  0.0314
  105SAPE   H9X10790   3.408   3.035   4.111 -2.2620  2.3208 -0.9570
  105SAPE   H9Y10791   3.391   2.859   4.096  1.2330  0.7446 -1.0572
  105SAPE  C31010792   3.197   2.960   4.166  0.1051  0.1722 -0.0891
  105SAPE  H10X10793   3.142   2.872   4.128  1.0997 -0.4155 -0.2274
  105SAPE  H10Y10794   3.140   3.052   4.145  1.6305  1.0205 -0.7101
  105SAPE  C31110795   3.218   2.956   4.314  0.0126  0.4682 -0.1641
  105SAPE  H11X10796   3.300   3.022   4.350 -0.3372 -1.2303  4.3998
  105SAPE  H11Y10797   3.254   2.855   4.344  0.8071  0.6569 -0.4578
  105SAPE  C31210798   3.088   2.988   4.395 -0.1424  0.4091 -0.0838
  105SAPE  H12X10799   3.031   2.893   4.385  1.5332 -0.5952 -0.6460
  105SAPE  H12Y10800   3.040   3.072   4.342 -2.3550 -0.5586  0.2677
  105SAPE  C31310801   3.118   3.029   4.541  0.2250 -0.6070 -1.0714
  105SAPE  H13X10802   3.214   3.082   4.560 -1.2350  1.7508  0.1877
  105SAPE  H13Y10803   3.124   2.934   4.598  1.2692 -1.1877 -2.1041
  105SAPE  C31410804   3.017   3.124   4.601  0.0489  0.1954  0.9310
  105SAPE  H14X10805   2.913   3.088   4.586  0.5689 -0.1601 -2.6763
  105SAPE  H14Y10806   3.038   3.218   4.546  1.7138  0.1130  1.3622
  105SAPE  C31510807   3.050   3.146   4.753 -0.0251  0.1489 -0.2969
  105SAPE  H15X10808   3.155   3.175   4.774 -0.3080 -0.0865  1.6352
  105SAPE  H15Y10809   3.017   3.057   4.812 -0.8625  0.1981 -0.6827
  105SAPE  C31610810   2.967   3.255   4.814  0.4799  0.2046  0.7127
  105SAPE  H16X10811   2.863   3.224   4.791 -0.0342 -0.0159  3.0578
  105SAPE  H16Y10812   2.997   3.352   4.770 -1.1612  0.1709 -0.5863
  105SAPE  C31710813   2.986   3.272   4.963 -0.6564  1.1778 -0.1816
  105SAPE  H17X10814   2.933   3.365   4.995  0.8239  1.3246  2.0357
  105SAPE  H17Y10815   3.096   3.280   4.970 -0.7369  2.2044  0.2170
  105SAPE  C31810816   2.936   3.167   5.065 -0.5785  0.3140 -0.4892
  105SAPE  H18X10817   2.959   3.194   5.170 -0.8821  1.0373 -0.5976
  105SAPE  H18Y10818   2.995   3.078   5.037 -0.0213  0.5877 -0.2046
  105SAPE  H18Z10819   2.826   3.160   5.053 -0.4009 -1.8671 -1.2113
  106SAPE     N10820   4.964   3.896   2.611  0.2747  0.3292  0.1023
  106SAPE   HN110821   4.863   3.875   2.623  0.1648  0.6600 -0.2236
  106SAPE   HN210822   4.950   3.996   2.586  0.2244  0.4559  0.6268
  106SAPE   HN310823   4.997   3.840   2.529 -1.1665  1.1510 -1.0863
  106SAPE   C1210824   5.055   3.876   2.724  0.9987 -0.1242 -1.0427
  106SAPE  H12A10825   5.155   3.870   2.677  0.3284  0.8862 -2.6480
  106SAPE  H12B10826   5.028   3.787   2.784 -0.1750  2.8284  3.3264
  106SAPE   C1110827   5.036   3.995   2.819  0.7290  0.0529 -0.8591
  106SAPE  H11A10828   5.083   3.973   2.918  0.4235  0.3612 -0.6468
  106SAPE  H11B10829   4.929   4.003   2.844  0.8656 -0.3317 -0.1273
  106SAPE     P10830   5.047   4.252   2.821 -0.4565  0.1163 -0.0567
  106SAPE   O1310831   5.154   4.347   2.798 -0.5919  0.0058 -0.6530
  106SAPE   O1410832   4.917   4.284   2.763 -0.0103 -0.6193 -0.4346
  106SAPE   O1210833   5.092   4.116   2.767  0.3246  0.6172  0.0476
  106SAPE   O1110834   5.028   4.231   2.976 -0.1794  0.2702  0.6207
  106SAPE    C110835   4.904   4.233   3.041  0.1806  0.1491  0.0339
  106SAPE    HA10836   4.831   4.165   2.994 -1.0199  0.6609  1.0856
  106SAPE    HB10837   4.923   4.203   3.146 -2.3481  3.5031  1.6369
  106SAPE    C210838   4.838   4.377   3.065  0.8537  0.6789 -0.7029
  106SAPE    HS10839   4.777   4.392   2.974  0.1890  1.1543 -0.1952
  106SAPE   O2110840   4.938   4.477   3.085 -0.1326 -0.5974 -0.3147
  106SAPE   C2110841   4.938   4.580   3.001  0.0316 -0.6860 -0.4639
  106SAPE   O2210842   4.847   4.606   2.922  0.3314  0.3143 -0.0021
  106SAPE   C2210843   5.064   4.666   3.007  0.5251  0.0642  0.0626
  106SAPE   H2R10844   5.149   4.614   2.956 -1.1851 -1.1041 -1.7384
  106SAPE   H2S10845   5.038   4.761   2.956  0.4427  0.8745  1.5600
  106SAPE    C310846   4.743   4.374   3.192 -0.0609 -0.1145  0.2348
  106SAPE    HX10847   4.670   4.295   3.163 -2.0390  2.0432 -0.9229
  106SAPE    HY10848   4.698   4.475   3.187  1.6107  0.6238 -0.8349
  106SAPE   O3110849   4.803   4.346   3.322 -0.5118  0.1808  0.1602
  106SAPE   C3110850   4.852   4.451   3.383 -0.0913  0.9458 -0.8485
  106SAPE   O3210851   4.838   4.569   3.358 -0.3043 -0.1610  0.1637
  106SAPE   C3210852   4.939   4.401   3.494  0.6590  0.0087 -0.6916
  106SAPE   H2X10853   5.040   4.385   3.450  1.4317  1.3122  0.5526
  106SAPE   H2Y10854   4.908   4.295   3.512 -0.2286  0.2501 -0.7423
  106SAPE   C2310855   5.095   4.690   3.155  0.4699 -0.5328  0.0127
  106SAPE   H3R10856   5.152   4.601   3.188  1.6500 -0.3547 -1.4371
  106SAPE   H3S10857   5.007   4.716   3.217  1.5481  1.9568  0.6194
  106SAPE   C2410858   5.200   4.804   3.169 -0.4460  0.0611  0.7589
  106SAPE   H4R10859   5.188   4.852   3.268  2.0828  0.5446  0.8935
  106SAPE   H4S10860   5.177   4.874   3.085  0.8259  0.3160  0.6027
  106SAPE   C2510861   5.343   4.760   3.141  0.1819  0.3878  0.1469
  106SAPE   H5R10862   5.374   4.752   3.035 -0.8595  0.9907 -0.2199
  106SAPE   C2610863   5.437   4.754   3.239 -0.2778 -0.2471 -0.4800
  106SAPE   H6R10864   5.540   4.723   3.218  0.8430  1.0192  2.6399
  106SAPE   C2710865   5.406   4.770   3.385 -0.0489 -0.7524 -0.2596
  106SAPE   H7R10866   5.462   4.696   3.446  0.5207  1.3056  1.8450
  106SAPE   H7S10867   5.300   4.743   3.403 -0.5163 -0.3859 -2.2233
  106SAPE   C2810868   5.451   4.908   3.429  0.2575  0.3531  0.0081
  106SAPE   H8R10869   5.510   4.964   3.355 -1.5360  0.2210 -1.5890
  106SAPE   C2910870   5.411   4.970   3.543 -0.3694  0.1041  0.1208
  106SAPE   H9R10871   5.443   5.071   3.570  0.7885 -0.1989 -0.0512
  106SAPE  C21010872   5.315   4.905   3.635  0.2214 -0.1371 -0.1468
  106SAPE  H10R10873   5.233   4.867   3.570  0.3291  0.8967 -0.9249
  106SAPE  H10S10874   5.275   4.992   3.692  1.5835  1.0854 -0.9643
  106SAPE  C21110875   5.370   4.796   3.728  0.6318  0.2034 -0.2121
  106SAPE  H11R10876   5.416   4.711   3.675 -0.2711 -0.8829  0.7018
  106SAPE  C21210877   5.371   4.803   3.864 -0.3591  0.3161  0.3542
  106SAPE  H12R10878   5.418   4.716   3.913  1.2230  0.7000 -0.3984
  106SAPE  C21310879   5.327   4.925   3.944  0.5595  0.1645 -0.3579
  106SAPE  H13R10880   5.295   5.011   3.880 -1.7309 -0.0305  0.4495
  106SAPE  H13S10881   5.416   4.953   4.003 -0.1197  0.6481  0.4620
  106SAPE  C21410882   5.213   4.887   4.041  0.1227  0.3607  0.1283
  106SAPE  H14R10883   5.110   4.872   4.004  0.2295 -0.5074  0.1780
  106SAPE  C21510884   5.217   4.865   4.173  0.6120  1.1155 -0.4470
  106SAPE  H15R10885   5.118   4.841   4.216  0.3627  1.6115 -0.7315
  106SAPE  C21610886   5.326   4.875   4.268 -0.7405  0.3874 -0.0352
  106SAPE  H16R10887   5.417   4.920   4.222  0.3329  0.3120  1.8860
  106SAPE  H16S10888   5.364   4.775   4.297 -2.1020 -0.0588  0.2619
  106SAPE  C21710889   5.297   4.968   4.385  0.6947  0.1742  0.8683
  106SAPE  H17R10890   5.254   5.056   4.333  1.7819  0.6575  0.7459
  106SAPE  H17S10891   5.391   5.005   4.432  1.4110  0.1108 -0.4323
  106SAPE  C21810892   5.196   4.917   4.485 -0.1584 -0.1643  0.0850
  106SAPE  H18R10893   5.231   4.824   4.534 -0.3710 -0.6699 -0.7065
  106SAPE  H18S10894   5.107   4.895   4.423  0.8472  0.5012 -1.6808
  106SAPE  C21910895   5.173   5.016   4.599  0.1618 -0.2180  0.4872
  106SAPE  H19R10896   5.082   4.972   4.645 -0.4088 -2.1146 -2.2291
  106SAPE  H19S10897   5.148   5.110   4.546  1.4301 -0.2184 -0.1521
  106SAPE  C22010898   5.287   5.034   4.696 -0.1561 -0.2801  0.3265
  106SAPE  H20R10899   5.379   5.082   4.659 -0.9287 -0.1513 -1.5435
  106SAPE  H20S10900   5.323   4.935   4.731  2.1374  0.9005  1.5203
  106SAPE  H20T10901   5.250   5.089   4.785  0.4766 -0.1599  0.5199
  106SAPE   C3310902   4.940   4.488   3.611  0.4191  0.0993 -0.0667
  106SAPE   H3X10903   4.845   4.512   3.663 -1.3666 -1.9783 -2.1542
  106SAPE   H3Y10904   4.979   4.586   3.573  0.8171 -0.3896 -0.9642
  106SAPE   C3410905   5.028   4.442   3.726 -0.5484 -0.1239 -0.5770
  106SAPE   H4X10906   5.132   4.456   3.689 -0.7225  0.7611 -0.7496
  106SAPE   H4Y10907   5.013   4.334   3.750  2.0928 -0.4643 -0.1817
  106SAPE   C3510908   5.025   4.538   3.845  0.4217  0.1839  0.0031
  106SAPE   H5X10909   4.919   4.551   3.876  0.1424 -1.3948 -0.1973
  106SAPE   H5Y10910   5.064   4.638   3.817  0.0909  0.0834 -0.8351
  106SAPE   C3610911   5.082   4.496   3.980 -0.0175 -0.5469  0.2547
  106SAPE   H6X10912   5.030   4.410   4.027 -0.3836 -0.3293  0.2450
  106SAPE   H6Y10913   5.076   4.583   4.049  2.2893 -1.1933  1.3848
  106SAPE   C3710914   5.234   4.458   3.981 -0.7378 -0.0013 -0.4063
  106SAPE   H7X10915   5.293   4.529   3.918 -1.0271 -0.3783 -1.1064
  106SAPE   H7Y10916   5.255   4.363   3.929  1.6075  0.3992 -0.3187
  106SAPE   C3810917   5.295   4.480   4.121 -0.0614  0.0367 -0.4122
  106SAPE   H8X10918   5.261   4.581   4.154  1.2945  1.5146 -3.1825
  106SAPE   H8Y10919   5.406   4.478   4.118  0.0823 -1.0310  2.4461
  106SAPE   C3910920   5.242   4.371   4.218 -0.5249  0.1384  0.5405
  106SAPE   H9X10921   5.259   4.280   4.157  1.1402 -0.1838  1.4495
  106SAPE   H9Y10922   5.132   4.389   4.227 -0.8379 -1.3901  0.0493
  106SAPE  C31010923   5.317   4.365   4.349 -0.3598 -0.3337  0.5931
  106SAPE  H10X10924   5.421   4.330   4.328  0.1930  1.7816 -0.5063
  106SAPE  H10Y10925   5.265   4.286   4.406  1.3983 -1.4172  0.7682
  106SAPE  C31110926   5.319   4.496   4.428  0.1449 -0.3321 -0.6955
  106SAPE  H11X10927   5.231   4.563   4.417  1.7128  1.6031 -2.3581
  106SAPE  H11Y10928   5.404   4.552   4.383 -0.7859  1.9805  0.2639
  106SAPE  C31210929   5.376   4.489   4.568 -0.4436 -0.2518 -0.5761
  106SAPE  H12X10930   5.482   4.456   4.567 -0.2091  0.1806  2.2656
  106SAPE  H12Y10931   5.303   4.427   4.625 -2.1254  1.2994 -0.9682
  106SAPE  C31310932   5.384   4.623   4.642 -0.1889  0.0785 -0.3191
  106SAPE  H13X10933   5.280   4.650   4.672 -0.3696 -1.0461  0.0926
  106SAPE  H13Y10934   5.427   4.699   4.573 -0.8400  0.0966 -0.7205
  106SAPE  C31410935   5.485   4.618   4.771  0.2455 -0.0164 -0.2227
  106SAPE  H14X10936   5.485   4.719   4.818  0.0505 -0.1531  0.0765
  106SAPE  H14Y10937   5.591   4.591   4.752  0.3480 -0.3929  0.8037
  106SAPE  C31510938   5.438   4.519   4.884  0.1513 -0.0546 -0.0203
  106SAPE  H15X10939   5.441   4.417   4.840  2.0002 -0.5808  1.2048
  106SAPE  H15Y10940   5.333   4.546   4.912  0.4142  1.2333 -0.2115
  106SAPE  C31610941   5.525   4.521   5.010  0.1569 -0.4147 -0.1354
  106SAPE  H16X10942   5.480   4.459   5.091 -0.3042 -0.5772 -0.5098
  106SAPE  H16Y10943   5.554   4.624   5.039 -1.1877  0.0266 -0.2990
  106SAPE  C31710944   5.650   4.439   4.981  0.0700 -0.0670  0.4663
  106SAPE  H17X10945   5.712   4.492   4.906 -0.4049  2.7969  1.9401
  106SAPE  H17Y10946   5.622   4.339   4.943  0.5486  0.3606 -1.0747
  106SAPE  C31810947   5.734   4.420   5.109  0.6318 -0.5547 -0.7279
  106SAPE  H18X10948   5.759   4.518   5.156  2.0481 -1.6941  1.0230
  106SAPE  H18Y10949   5.827   4.366   5.081  0.7878 -0.1730 -0.9625
  106SAPE  H18Z10950   5.682   4.362   5.188  0.7572 -0.9334 -0.9188
  107SAPE     N10951   5.730   1.958   2.381 -0.4005 -0.1146 -0.0712
  107SAPE   HN110952   5.627   1.941   2.388 -0.2127 -0.9917  0.8174
  107SAPE   HN210953   5.754   2.040   2.322  0.2489 -1.3842 -1.6686
  107SAPE   HN310954   5.768   1.868   2.345  0.5889 -0.0360  0.7441
  107SAPE   C1210955   5.792   1.982   2.516  0.0647  0.0315 -1.0500
  107SAPE  H12A10956   5.791   1.882   2.565  2.4226  0.3946 -0.1034
  107SAPE  H12B10957   5.725   2.056   2.565  1.3970  1.2296 -0.9612
  107SAPE   C1110958   5.930   2.046   2.507  0.5688 -0.3981 -0.5138
  107SAPE  H11A10959   5.988   1.981   2.437 -1.6598  0.2958 -3.1609
  107SAPE  H11B10960   5.967   2.044   2.612  1.1952 -0.0201 -0.7210
  107SAPE     P10961   5.997   2.296   2.501  0.0576  0.1549  0.2854
  107SAPE   O1310962   6.133   2.278   2.444 -0.6331  0.0969 -0.1613
  107SAPE   O1410963   5.928   2.419   2.462  0.1264  0.4596 -0.1997
  107SAPE   O1210964   5.914   2.172   2.457  0.1232  0.2184 -0.0688
  107SAPE   O1110965   6.010   2.275   2.659  0.2292 -0.4617  0.4703
  107SAPE    C110966   5.887   2.301   2.742 -0.0926  0.0548 -0.6502
  107SAPE    HA10967   5.795   2.271   2.689 -1.1239  1.2427  0.3919
  107SAPE    HB10968   5.892   2.234   2.831  1.2131  0.5375 -0.3339
  107SAPE    C210969   5.883   2.440   2.806 -0.0808  0.0884 -0.0644
  107SAPE    HS10970   5.843   2.496   2.719 -0.8782 -2.0921 -1.1865
  107SAPE   O2110971   6.022   2.490   2.834  0.1390  0.1325  0.7834
  107SAPE   C2110972   6.027   2.620   2.845  0.5802  0.0256  0.1639
  107SAPE   O2210973   5.935   2.697   2.819  0.7176 -0.4253  0.4246
  107SAPE   C2210974   6.169   2.658   2.887  0.3712 -0.7498 -0.0650
  107SAPE   H2R10975   6.201   2.587   2.966 -0.7317 -3.5243 -1.9761
  107SAPE   H2S10976   6.244   2.666   2.806  0.5893  2.7721  0.3177
  107SAPE    C310977   5.789   2.459   2.925 -0.7336  0.0842 -0.3073
  107SAPE    HX10978   5.685   2.426   2.907 -0.7831 -1.0637  1.7431
  107SAPE    HY10979   5.782   2.567   2.951  2.8439  0.1976  0.7752
  107SAPE   O3110980   5.841   2.382   3.034 -0.2376 -0.2763 -0.2399
  107SAPE   C3110981   5.898   2.455   3.130 -0.4393 -0.4758 -0.2160
  107SAPE   O3210982   5.906   2.576   3.129 -0.1136 -0.1754  0.0164
  107SAPE   C3210983   5.969   2.363   3.226  0.1892 -0.2631  0.4817
  107SAPE   H2X10984   6.073   2.384   3.193  0.2371  0.5716  1.1235
  107SAPE   H2Y10985   5.942   2.258   3.206 -3.6834  0.6187  0.2739
  107SAPE   C2310986   6.158   2.812   2.944 -0.2126 -0.1340  0.3490
  107SAPE   H3R10987   6.130   2.804   3.051 -0.1399  1.5083  0.5241
  107SAPE   H3S10988   6.082   2.881   2.901  1.0429  2.9958  2.6969
  107SAPE   C2410989   6.296   2.881   2.940 -0.7841 -0.4076 -0.3502
  107SAPE   H4R10990   6.282   2.991   2.947 -0.9518 -0.5267  3.2752
  107SAPE   H4S10991   6.348   2.869   2.842  1.8577 -2.1824  1.1360
  107SAPE   C2510992   6.396   2.836   3.051 -0.4455 -0.3240 -0.4263
  107SAPE   H5R10993   6.478   2.769   3.021 -0.4835 -0.1421 -0.9449
  107SAPE   C2610994   6.391   2.867   3.185  0.4391  0.2287 -0.0446
  107SAPE   H6R10995   6.473   2.832   3.251 -0.1769  0.3292  0.7910
  107SAPE   C2710996   6.286   2.954   3.246  0.4191  0.0087  0.3089
  107SAPE   H7R10997   6.183   2.917   3.266  0.1161  1.7610  2.3387
  107SAPE   H7S10998   6.260   3.028   3.167  0.1028 -2.1141 -1.6672
  107SAPE   C2810999   6.322   3.021   3.371  0.2177 -0.2056 -0.8448
  107SAPE   H8R11000   6.370   3.118   3.353 -0.6142 -0.1438 -3.0293
  107SAPE   C2911001   6.292   2.981   3.497 -0.4302  0.2944  0.1700
  107SAPE   H9R11002   6.325   3.051   3.575 -0.7280 -0.6602  1.1868
  107SAPE  C21011003   6.232   2.847   3.540 -0.2029 -0.9399  0.5602
  107SAPE  H10R11004   6.176   2.802   3.455 -1.5705  3.2226 -1.0044
  107SAPE  H10S11005   6.163   2.874   3.622  0.3707  1.3213  0.3562
  107SAPE  C21111006   6.338   2.748   3.590 -0.2168 -0.5185  0.0496
  107SAPE  H11R11007   6.421   2.746   3.517 -2.1638 -0.2725 -2.2869
  107SAPE  C21211008   6.353   2.694   3.713  0.7527  0.3670  0.2647
  107SAPE  H12R11009   6.418   2.607   3.726 -0.0627 -0.3741 -0.4862
  107SAPE  C21311010   6.235   2.696   3.812  0.9789  0.2707 -0.0517
  107SAPE  H13R11011   6.258   2.614   3.882  0.6866 -0.3203 -0.6428
  107SAPE  H13S11012   6.139   2.659   3.771  0.0166  0.3932  2.0003
  107SAPE  C21411013   6.220   2.828   3.889 -0.2615  0.6460 -0.5320
  107SAPE  H14R11014   6.313   2.885   3.896  0.2324 -0.1271 -0.6706
  107SAPE  C21511015   6.113   2.884   3.944 -0.0051 -0.8068 -0.3805
  107SAPE  H15R11016   6.129   2.984   3.988  4.8240 -1.2057 -0.6371
  107SAPE  C21611017   5.972   2.833   3.937 -0.2878 -0.0632 -0.2972
  107SAPE  H16R11018   5.969   2.732   3.890  0.0459 -1.3081  2.1526
  107SAPE  H16S11019   5.923   2.908   3.872  0.0957  1.0286  0.6316
  107SAPE  C21711020   5.904   2.824   4.071 -0.4434  0.0933  0.4900
  107SAPE  H17R11021   5.972   2.768   4.138  2.0589  0.1992 -1.8004
  107SAPE  H17S11022   5.809   2.767   4.062 -1.0511  0.5980  2.9787
  107SAPE  C21811023   5.869   2.965   4.124 -0.4579 -0.2481 -0.1147
  107SAPE  H18R11024   5.808   3.026   4.055 -2.4493 -2.0888 -0.0826
  107SAPE  H18S11025   5.962   3.024   4.141  0.5042 -1.4077 -1.1946
  107SAPE  C21911026   5.788   2.966   4.251 -0.1444 -0.6843  0.4676
  107SAPE  H19R11027   5.824   2.897   4.330  1.6442  0.4329  0.6658
  107SAPE  H19S11028   5.678   2.957   4.237  0.0604 -0.4043 -1.5534
  107SAPE  C22011029   5.807   3.102   4.326 -0.1946 -0.0486  0.3131
  107SAPE  H20R11030   5.815   3.177   4.245 -0.4779 -1.1868 -0.8032
  107SAPE  H20S11031   5.900   3.088   4.386 -1.7926 -1.4565  2.6233
  107SAPE  H20T11032   5.723   3.129   4.393  0.3901  2.1942  0.2144
  107SAPE   C3311033   5.947   2.396   3.376  0.0265  0.1019 -0.1691
  107SAPE   H3X11034   5.975   2.502   3.395 -1.6893  0.7543 -1.0560
  107SAPE   H3Y11035   6.008   2.323   3.433 -0.4059  0.8084  1.2467
  107SAPE   C3411036   5.798   2.369   3.424 -0.4852  0.7307  0.1135
  107SAPE   H4X11037   5.783   2.259   3.420  1.1588  0.4156  1.5915
  107SAPE   H4Y11038   5.737   2.418   3.345 -0.8225  0.2995  0.1059
  107SAPE   C3511039   5.773   2.436   3.560 -0.3076  0.0080 -0.3230
  107SAPE   H5X11040   5.664   2.430   3.581 -0.6035  0.1170 -1.7106
  107SAPE   H5Y11041   5.783   2.545   3.543  0.1785 -0.1583 -1.1893
  107SAPE   C3611042   5.868   2.399   3.671  0.3836 -0.0177 -0.7834
  107SAPE   H6X11043   5.957   2.461   3.646 -0.6490  2.4186  1.1654
  107SAPE   H6Y11044   5.885   2.289   3.672 -1.7519 -0.5095  3.3940
  107SAPE   C3711045   5.838   2.448   3.813  0.0403 -0.0110 -0.3169
  107SAPE   H7X11046   5.750   2.384   3.835  0.7159 -0.8427  0.0278
  107SAPE   H7Y11047   5.811   2.555   3.820  0.2631  0.0242 -0.0026
  107SAPE   C3811048   5.950   2.431   3.917 -0.5559  0.1429  0.0546
  107SAPE   H8X11049   6.034   2.502   3.900  0.6311 -0.7125  2.0134
  107SAPE   H8Y11050   5.999   2.331   3.914  0.0500  0.4255 -2.7927
  107SAPE   C3911051   5.908   2.449   4.061  0.0785  0.5905  0.8282
  107SAPE   H9X11052   5.838   2.366   4.084  1.9473 -1.6517 -0.9598
  107SAPE   H9Y11053   5.863   2.547   4.082  0.7265  1.0432  0.1773
  107SAPE  C31011054   6.015   2.428   4.158 -0.1592 -0.2722 -1.0786
  107SAPE  H10X11055   6.104   2.480   4.116 -0.0396 -0.4286 -1.0185
  107SAPE  H10Y11056   6.040   2.320   4.163 -0.6445 -0.3749 -0.7560
  107SAPE  C31111057   5.997   2.498   4.297  0.6846  0.1417 -0.4576
  107SAPE  H11X11058   5.906   2.456   4.345  0.4323  1.4007  0.2034
  107SAPE  H11Y11059   5.972   2.604   4.275 -0.5222  0.2544  1.2809
  107SAPE  C31211060   6.127   2.495   4.382  0.1904 -0.1708  0.2683
  107SAPE  H12X11061   6.211   2.541   4.325  0.4610  2.3495  2.5317
  107SAPE  H12Y11062   6.148   2.386   4.381  0.6277 -0.0898  0.3496
  107SAPE  C31311063   6.122   2.568   4.515 -0.2257 -0.2083 -0.8689
  107SAPE  H13X11064   6.210   2.537   4.575 -2.0050 -0.2034  1.8856
  107SAPE  H13Y11065   6.039   2.525   4.574  1.1589 -1.1785  0.4465
  107SAPE  C31411066   6.113   2.716   4.498  0.2000 -0.6660  0.8291
  107SAPE  H14X11067   6.013   2.752   4.464 -0.1297 -1.9127  0.4396
  107SAPE  H14Y11068   6.184   2.745   4.417 -0.2591  0.1003  0.6820
  107SAPE  C31511069   6.158   2.795   4.623 -0.1340  0.4979  0.1693
  107SAPE  H15X11070   6.094   2.749   4.702 -1.8116  0.0616 -1.3852
  107SAPE  H15Y11071   6.116   2.897   4.631  2.1564  1.4109  1.4966
  107SAPE  C31611072   6.311   2.801   4.647  0.5304 -0.2584 -0.9711
  107SAPE  H16X11073   6.347   2.696   4.646 -0.3843 -0.6209  0.3781
  107SAPE  H16Y11074   6.347   2.830   4.748 -0.2530  2.2153 -1.3275
  107SAPE  C31711075   6.394   2.885   4.546 -0.2190  1.0647  0.6443
  107SAPE  H17X11076   6.401   2.993   4.572 -0.2039  1.7174 -1.7970
  107SAPE  H17Y11077   6.341   2.893   4.448 -1.8088  5.5611  1.6370
  107SAPE  C31811078   6.538   2.834   4.514 -0.1842 -0.0443  0.0087
  107SAPE  H18X11079   6.580   2.877   4.420  0.1613 -1.4677 -0.5136
  107SAPE  H18Y11080   6.520   2.731   4.475  1.9639 -0.6987  0.5967
  107SAPE  H18Z11081   6.614   2.839   4.595  1.2082 -0.9253 -1.1833
  108SAPE     N11082   5.974   3.492   2.856  0.0116 -0.7210 -0.0901
  108SAPE   HN111083   5.990   3.583   2.903  0.1600 -0.8171  0.0479
  108SAPE   HN211084   5.902   3.440   2.910 -0.5818  2.9825  3.1033
  108SAPE   HN311085   6.057   3.429   2.844  1.7491  1.3436  0.5139
  108SAPE   C1211086   5.933   3.514   2.712 -0.5421  0.1976  0.1741
  108SAPE  H12A11087   5.902   3.419   2.664  1.9575  1.2989 -4.1456
  108SAPE  H12B11088   6.029   3.542   2.663 -0.3349 -0.0951  0.4102
  108SAPE   C1111089   5.826   3.617   2.702  0.4399 -0.1132 -0.1722
  108SAPE  H11A11090   5.803   3.640   2.596  0.7672  0.2127 -0.1748
  108SAPE  H11B11091   5.875   3.710   2.737  0.0764  0.5125 -1.2952
  108SAPE     P11092   5.584   3.504   2.744  0.2396 -0.1937  0.0636
  108SAPE   O1311093   5.484   3.599   2.698 -0.5597 -0.0039 -0.3367
  108SAPE   O1411094   5.619   3.405   2.647 -0.4446  0.1278  0.2435
  108SAPE   O1211095   5.715   3.573   2.787  0.1454  0.3349  0.2920
  108SAPE   O1111096   5.536   3.426   2.876  0.2504  0.2447 -0.3867
  108SAPE    C111097   5.501   3.485   2.995 -0.4310 -1.0477  0.3614
  108SAPE    HA11098   5.502   3.595   2.983  0.8518 -1.1101 -0.2448
  108SAPE    HB11099   5.399   3.450   3.020 -0.2318 -2.4466 -0.6562
  108SAPE    C211100   5.590   3.446   3.115  0.4552  0.4688 -0.4075
  108SAPE    HS11101   5.681   3.506   3.094  0.1067  1.0591 -0.2633
  108SAPE   O2111102   5.602   3.301   3.114  0.0841  0.0966  0.3402
  108SAPE   C2111103   5.706   3.265   3.038  0.6548  0.3568  0.5070
  108SAPE   O2211104   5.795   3.336   2.999 -0.5709 -0.5100  0.0166
  108SAPE   C2211105   5.709   3.115   3.004 -0.0260  0.8074  0.0581
  108SAPE   H2R11106   5.646   3.057   3.074  1.5110  1.5329  2.1663
  108SAPE   H2S11107   5.669   3.106   2.901  1.9532 -0.3447 -0.6684
  108SAPE    C311108   5.547   3.487   3.253  0.7553  0.8561 -0.4360
  108SAPE    HX11109   5.545   3.597   3.235  0.7539  0.5903 -2.2308
  108SAPE    HY11110   5.624   3.458   3.327 -0.1870  1.4292  0.8029
  108SAPE   O3111111   5.415   3.427   3.281 -0.0938 -0.0549  0.0315
  108SAPE   C3111112   5.336   3.508   3.336  0.2284  0.3688  0.1153
  108SAPE   O3211113   5.365   3.619   3.378 -0.0719  0.1751  0.1693
  108SAPE   C3211114   5.197   3.451   3.361  0.1318  0.1936  0.0271
  108SAPE   H2X11115   5.134   3.532   3.319 -0.3031  0.5203  1.2626
  108SAPE   H2Y11116   5.192   3.459   3.471  0.9538 -0.3155  0.1117
  108SAPE   C2311117   5.854   3.056   3.010  0.1628  0.0026 -0.2785
  108SAPE   H3R11118   5.919   3.126   2.953  0.8293 -1.0072 -0.7854
  108SAPE   H3S11119   5.858   2.961   2.952 -1.9485 -2.0434  2.6057
  108SAPE   C2411120   5.921   3.037   3.154  0.1602  0.6002  0.6600
  108SAPE   H4R11121   5.919   3.137   3.203 -1.3363  0.9138  0.0308
  108SAPE   H4S11122   6.025   3.002   3.133 -0.7405 -2.2084  0.5377
  108SAPE   C2511123   5.848   2.927   3.232  0.3016  0.0762 -0.2431
  108SAPE   H5R11124   5.870   2.829   3.186  0.2027  1.5668 -3.7776
  108SAPE   C2611125   5.773   2.946   3.344 -0.4935  0.0473 -0.3326
  108SAPE   H6R11126   5.724   2.854   3.381  2.1041 -0.9539  0.8743
  108SAPE   C2711127   5.738   3.064   3.423 -0.0670 -0.7833  0.2271
  108SAPE   H7R11128   5.815   3.142   3.403 -0.0776 -1.1703 -1.4674
  108SAPE   H7S11129   5.752   3.042   3.531 -0.6375  1.7354  0.8867
  108SAPE   C2811130   5.607   3.134   3.423  0.6849  0.0544  0.4559
  108SAPE   H8R11131   5.531   3.104   3.349 -0.7513  3.5822  0.3134
  108SAPE   C2911132   5.576   3.245   3.491 -0.4651  0.1189 -0.1877
  108SAPE   H9R11133   5.475   3.288   3.482 -0.7657  0.1391  2.3169
  108SAPE  C21011134   5.674   3.304   3.593  0.4357  0.1169 -0.4851
  108SAPE  H10R11135   5.773   3.326   3.547  1.4340 -0.6160  1.2073
  108SAPE  H10S11136   5.706   3.233   3.672 -1.4940  0.6074  0.8171
  108SAPE  C21111137   5.622   3.435   3.662 -0.1409  0.3903  0.7270
  108SAPE  H11R11138   5.616   3.521   3.594 -1.5333 -0.5872 -0.4485
  108SAPE  C21211139   5.572   3.452   3.785  0.3202  0.3011  0.1223
  108SAPE  H12R11140   5.544   3.554   3.816  2.3656  1.2700 -1.0461
  108SAPE  C21311141   5.568   3.350   3.891  0.0901 -0.3394  0.0478
  108SAPE  H13R11142   5.637   3.382   3.972  0.0766 -2.0048  0.7632
  108SAPE  H13S11143   5.609   3.254   3.852 -0.6770 -0.0605 -1.5120
  108SAPE  C21411144   5.432   3.333   3.948 -0.0658 -0.6316 -0.0929
  108SAPE  H14R11145   5.358   3.293   3.877  0.2389  0.5965 -1.1286
  108SAPE  C21511146   5.398   3.376   4.069  0.0619 -0.0261  0.3034
  108SAPE  H15R11147   5.308   3.338   4.120  1.0378 -2.2753  0.4969
  108SAPE  C21611148   5.479   3.453   4.168  0.6679  0.4775 -1.0710
  108SAPE  H16R11149   5.422   3.531   4.222  1.7271  0.4705  0.0995
  108SAPE  H16S11150   5.548   3.514   4.106 -0.7778  1.0935 -2.1537
  108SAPE  C21711151   5.544   3.354   4.275 -0.3367  0.2079 -0.4167
  108SAPE  H17R11152   5.611   3.422   4.332 -0.2698 -1.2305  1.2984
  108SAPE  H17S11153   5.606   3.276   4.226 -0.4832 -0.8701  1.0467
  108SAPE  C21811154   5.451   3.293   4.384 -0.9477 -0.2349 -0.3146
  108SAPE  H18R11155   5.365   3.363   4.393 -1.0837 -0.4780  0.3537
  108SAPE  H18S11156   5.494   3.270   4.484 -2.5703 -0.6580  0.3229
  108SAPE  C21911157   5.403   3.148   4.342  0.1385 -0.3765  0.5520
  108SAPE  H19R11158   5.492   3.081   4.340 -0.1309 -0.7215 -0.3064
  108SAPE  H19S11159   5.359   3.156   4.240  2.8904 -2.9516 -1.0165
  108SAPE  C22011160   5.291   3.077   4.427  0.0074 -0.9282 -0.0772
  108SAPE  H20R11161   5.325   3.057   4.530 -0.8957 -3.3914 -0.2005
  108SAPE  H20S11162   5.259   2.977   4.389 -3.9706 -0.0515  0.4907
  108SAPE  H20T11163   5.192   3.126   4.426  0.4956  0.1556 -2.4473
  108SAPE   C3311164   5.153   3.318   3.298 -0.7619  0.0805 -0.3709
  108SAPE   H3X11165   5.171   3.331   3.189 -1.0730 -0.7046 -0.5256
  108SAPE   H3Y11166   5.043   3.311   3.308 -0.6504  0.2371  1.1408
  108SAPE   C3411167   5.216   3.185   3.344  0.3103  0.0023 -0.2248
  108SAPE   H4X11168   5.322   3.175   3.311  0.1541 -0.9364 -0.4724
  108SAPE   H4Y11169   5.162   3.103   3.291 -0.9131  1.2207 -0.9059
  108SAPE   C3511170   5.204   3.162   3.502  0.0807 -0.8159  0.4906
  108SAPE   H5X11171   5.254   3.067   3.529 -1.5340 -1.8513 -0.0103
  108SAPE   H5Y11172   5.259   3.250   3.542  3.0399 -1.8580 -0.9902
  108SAPE   C3611173   5.064   3.157   3.559  0.2114  0.0288  0.0503
  108SAPE   H6X11174   5.015   3.062   3.530 -2.3670  1.1488  0.4109
  108SAPE   H6Y11175   4.992   3.232   3.520 -0.6112  0.5766  2.4242
  108SAPE   C3711176   5.060   3.157   3.719  0.1908 -0.1320  0.1340
  108SAPE   H7X11177   5.154   3.105   3.748 -0.7125 -2.3891 -0.8437
  108SAPE   H7Y11178   4.969   3.104   3.754 -0.4936  1.8891  1.6318
  108SAPE   C3811179   5.065   3.294   3.779  0.5430  0.0816  0.8278
  108SAPE   H8X11180   4.975   3.350   3.744 -0.3453 -1.3349  0.7638
  108SAPE   H8Y11181   5.152   3.349   3.738 -0.7622  0.0539 -2.1989
  108SAPE   C3911182   5.069   3.297   3.925 -0.1917  0.5879  0.7277
  108SAPE   H9X11183   5.089   3.398   3.968 -0.5314  0.8464  0.2855
  108SAPE   H9Y11184   5.160   3.237   3.948  2.3660  2.8321 -2.6306
  108SAPE  C31011185   4.948   3.234   3.986 -0.2600  0.1723  0.0479
  108SAPE  H10X11186   4.933   3.129   3.956 -0.7195 -0.7075  3.0149
  108SAPE  H10Y11187   4.865   3.298   3.948  0.1293 -1.4120 -3.8844
  108SAPE  C31111188   4.964   3.228   4.142  0.9890 -0.0625  0.5591
  108SAPE  H11X11189   5.065   3.262   4.172  1.4514 -0.5384 -0.4422
  108SAPE  H11Y11190   4.958   3.121   4.173  1.1223 -1.0393 -2.5173
  108SAPE  C31211191   4.846   3.304   4.215 -0.8579 -0.6658  1.0007
  108SAPE  H12X11192   4.747   3.261   4.188 -1.3942  1.4239 -0.6189
  108SAPE  H12Y11193   4.857   3.410   4.183  4.1882 -1.5955 -1.2400
  108SAPE  C31311194   4.852   3.281   4.365  0.2543 -0.3313 -0.1783
  108SAPE  H13X11195   4.946   3.328   4.399 -0.2032 -1.5106  3.0953
  108SAPE  H13Y11196   4.851   3.172   4.387 -2.8753 -0.1470  1.2917
  108SAPE  C31411197   4.727   3.329   4.432 -0.6675 -0.5086 -0.0236
  108SAPE  H14X11198   4.653   3.246   4.419 -1.0988 -0.0906 -0.2484
  108SAPE  H14Y11199   4.680   3.414   4.379 -2.3249 -0.9579  0.6554
  108SAPE  C31511200   4.735   3.347   4.586 -0.8058  0.1330 -0.5883
  108SAPE  H15X11201   4.787   3.443   4.604 -2.2426  1.4244 -2.8533
  108SAPE  H15Y11202   4.801   3.272   4.635 -0.6126  0.9511  0.4507
  108SAPE  C31611203   4.601   3.340   4.663 -0.4211  0.5889  0.0230
  108SAPE  H16X11204   4.560   3.236   4.665  0.2739  0.3068 -0.2539
  108SAPE  H16Y11205   4.531   3.402   4.601 -0.1169  0.7097 -0.2007
  108SAPE  C31711206   4.595   3.390   4.807 -0.3931 -0.4396 -0.3593
  108SAPE  H17X11207   4.614   3.500   4.809  1.0203 -0.6641  1.3015
  108SAPE  H17Y11208   4.676   3.341   4.866  0.4539  0.0535 -1.0848
  108SAPE  C31811209   4.470   3.346   4.878 -0.1010  0.7280 -0.8182
  108SAPE  H18X11210   4.377   3.387   4.835 -1.1756 -2.6494 -1.9823
  108SAPE  H18Y11211   4.467   3.370   4.987  1.1565  1.4435 -0.9118
  108SAPE  H18Z11212   4.452   3.238   4.860 -0.1348  0.7505 -0.9190
  109SAPE     N11213   1.514   2.638   2.907  0.3061 -0.1806 -0.2696
  109SAPE   HN111214   1.467   2.651   2.815 -2.8124  2.0376  1.4281
  109SAPE   HN211215   1.585   2.563   2.897  0.5129 -0.2301  1.3989
  109SAPE   HN311216   1.437   2.610   2.971  0.2225  2.1658  0.7614
  109SAPE   C1211217   1.564   2.776   2.960  0.1661 -0.5447 -0.5336
  109SAPE  H12A11218   1.646   2.799   2.889  0.7290 -0.0047  0.2752
  109SAPE  H12B11219   1.625   2.758   3.050 -0.7071 -0.0230  0.1769
  109SAPE   C1111220   1.447   2.875   2.975 -0.3435 -0.0968  0.6048
  109SAPE  H11A11221   1.502   2.966   3.007  0.4412 -0.1150 -0.6395
  109SAPE  H11B11222   1.386   2.828   3.056  1.0705 -1.3491  0.9835
  109SAPE     P11223   1.359   3.005   2.761  0.2458 -0.2774  0.0809
  109SAPE   O1311224   1.489   3.050   2.704  0.6635  0.0688 -0.6822
  109SAPE   O1411225   1.254   2.977   2.657 -0.2447 -0.9152  0.6201
  109SAPE   O1211226   1.369   2.883   2.852 -0.4217 -0.6764 -0.4480
  109SAPE   O1111227   1.307   3.110   2.867  0.0369  0.6457 -0.5465
  109SAPE    C111228   1.173   3.099   2.918  0.6337 -0.5327 -0.9010
  109SAPE    HA11229   1.099   3.065   2.842 -2.1504  0.9157  0.9898
  109SAPE    HB11230   1.174   3.032   3.007  0.7789  0.1183 -0.4061
  109SAPE    C211231   1.107   3.233   2.971  0.3508  0.3779  0.1458
  109SAPE    HS11232   1.143   3.316   2.907 -0.6343  0.4008 -0.4036
  109SAPE   O2111233   1.155   3.253   3.103  0.1867  0.5176  0.1948
  109SAPE   C2111234   1.173   3.380   3.142  0.3702 -0.2710  0.3674
  109SAPE   O2211235   1.173   3.477   3.068 -0.7728  0.2824  0.0984
  109SAPE   C2211236   1.210   3.362   3.291  0.8073  0.4231 -0.0778
  109SAPE   H2R11237   1.122   3.376   3.357  1.2243  0.1543  0.5515
  109SAPE   H2S11238   1.258   3.261   3.297 -0.9885 -0.4951 -0.4504
  109SAPE    C311239   0.955   3.216   2.958 -0.3630 -0.3369 -0.4697
  109SAPE    HX11240   0.924   3.184   2.857 -1.7243 -1.0203  0.1309
  109SAPE    HY11241   0.906   3.313   2.982  0.8000 -0.2551  1.8789
  109SAPE   O3111242   0.920   3.099   3.041  0.2942  0.4588  0.7022
  109SAPE   C3111243   0.912   3.126   3.168  0.6245  0.1663  0.2244
  109SAPE   O3211244   0.909   3.238   3.215  0.4598  0.2744  0.4981
  109SAPE   C3211245   0.886   2.996   3.239  0.4028 -0.4518  0.1061
  109SAPE   H2X11246   0.928   2.920   3.169  0.1153  1.3893 -2.1942
  109SAPE   H2Y11247   0.775   2.999   3.235  0.4223 -0.6308 -2.6519
  109SAPE   C2311248   1.318   3.466   3.323  0.5838  0.1593  0.4108
  109SAPE   H3R11249   1.396   3.467   3.245 -0.9769  0.3865 -1.1969
  109SAPE   H3S11250   1.350   3.438   3.426  0.5118  3.6188  1.5140
  109SAPE   C2411251   1.258   3.597   3.352  0.3529 -0.2026  0.5642
  109SAPE   H4R11252   1.213   3.613   3.452 -4.9254 -0.4767 -1.4207
  109SAPE   H4S11253   1.176   3.603   3.277  1.3685  0.2610 -0.5390
  109SAPE   C2511254   1.351   3.710   3.328  0.5021  0.8235 -0.2600
  109SAPE   H5R11255   1.423   3.691   3.247  0.6632 -0.5248  0.1689
  109SAPE   C2611256   1.374   3.818   3.409 -0.7282 -0.7498  0.6079
  109SAPE   H6R11257   1.466   3.874   3.389  0.4032 -1.8755  2.3784
  109SAPE   C2711258   1.311   3.848   3.545  0.3902  0.0065 -0.3898
  109SAPE   H7R11259   1.302   3.758   3.609  1.8433  1.7951  2.5564
  109SAPE   H7S11260   1.205   3.880   3.532  0.3264 -0.6109 -1.3883
  109SAPE   C2811261   1.381   3.953   3.630  0.3890 -0.5350 -0.0447
  109SAPE   H8R11262   1.487   3.938   3.657  2.2896  1.1786 -5.3093
  109SAPE   C2911263   1.319   4.068   3.665  0.4291 -0.1446  1.1062
  109SAPE   H9R11264   1.376   4.148   3.715  1.3460  1.6948 -2.5166
  109SAPE  C21011265   1.185   4.111   3.613 -0.4263  0.5778  0.5397
  109SAPE  H10R11266   1.106   4.050   3.661  0.0894 -0.2282  0.3818
  109SAPE  H10S11267   1.178   4.081   3.507  2.9469 -0.5597  0.5300
  109SAPE  C21111268   1.160   4.260   3.616 -0.2525  0.1335 -0.0370
  109SAPE  H11R11269   1.204   4.319   3.534 -0.8983  2.1787  1.0392
  109SAPE  C21211270   1.087   4.319   3.718 -0.5986  0.1005  1.1912
  109SAPE  H12R11271   1.063   4.426   3.706 -4.3642 -0.6720  0.4778
  109SAPE  C21311272   1.014   4.251   3.835 -0.4250  0.3129  0.1241
  109SAPE  H13R11273   0.972   4.320   3.911 -1.6886 -0.9431  0.6193
  109SAPE  H13S11274   1.092   4.192   3.886 -0.0798  2.0246  1.6978
  109SAPE  C21411275   0.902   4.149   3.798 -0.0918 -0.2360 -0.9470
  109SAPE  H14R11276   0.884   4.130   3.692 -0.2210  0.6537 -1.0926
  109SAPE  C21511277   0.822   4.095   3.893  0.3309  0.3918 -0.2055
  109SAPE  H15R11278   0.751   4.019   3.858  0.1541  1.1417 -1.5561
  109SAPE  C21611279   0.817   4.106   4.048  0.1761  0.0762  0.0487
  109SAPE  H16R11280   0.760   4.198   4.071 -0.3523 -0.7420  2.2859
  109SAPE  H16S11281   0.917   4.115   4.096  0.7749 -0.8263 -0.9685
  109SAPE  C21711282   0.749   3.983   4.119  0.2228  0.7282  0.1073
  109SAPE  H17R11283   0.798   3.900   4.065 -2.7024  0.3238 -2.2251
  109SAPE  H17S11284   0.640   3.981   4.095  0.1839 -0.8519  0.3528
  109SAPE  C21811285   0.772   3.988   4.276  0.0132 -0.7371 -0.2422
  109SAPE  H18R11286   0.733   4.088   4.305  1.4538 -0.2553  0.0914
  109SAPE  H18S11287   0.880   3.989   4.298  0.1746  2.4640 -0.8002
  109SAPE  C21911288   0.704   3.885   4.361 -0.4709 -0.4538 -0.8896
  109SAPE  H19R11289   0.779   3.825   4.417 -1.1683 -0.2148  0.3442
  109SAPE  H19S11290   0.657   3.823   4.282 -0.5482 -0.9974 -0.4264
  109SAPE  C22011291   0.602   3.941   4.468 -0.2829 -0.3962 -0.6097
  109SAPE  H20R11292   0.628   4.047   4.488 -2.1857 -0.0361  0.1405
  109SAPE  H20S11293   0.616   3.872   4.554 -0.4799 -3.1922 -2.6585
  109SAPE  H20T11294   0.498   3.931   4.430 -0.2529 -0.3094 -0.7181
  109SAPE   C3311295   0.949   2.991   3.373  0.7779  0.1133  0.1944
  109SAPE   H3X11296   0.868   2.936   3.426  0.6016 -0.5574 -0.7477
  109SAPE   H3Y11297   0.950   3.092   3.420 -1.0903 -0.0649  0.6954
  109SAPE   C3411298   1.087   2.925   3.384  0.6684 -0.1870 -0.0690
  109SAPE   H4X11299   1.158   2.972   3.314  0.6113  0.1991  0.1286
  109SAPE   H4Y11300   1.070   2.820   3.353  1.4395 -0.5996  0.8648
  109SAPE   C3511301   1.141   2.930   3.528  0.0366 -0.2525 -0.4639
  109SAPE   H5X11302   1.207   2.843   3.546  0.0486  0.2243  2.1628
  109SAPE   H5Y11303   1.065   2.943   3.608  0.9781 -0.3804  0.4683
  109SAPE   C3611304   1.226   3.050   3.549  0.5092  0.2655  0.3685
  109SAPE   H6X11305   1.160   3.138   3.536 -1.7615 -1.2868  0.7323
  109SAPE   H6Y11306   1.291   3.057   3.460  0.4361  0.9033  0.3592
  109SAPE   C3711307   1.306   3.050   3.679 -0.1768  0.1744  0.5062
  109SAPE   H7X11308   1.343   2.947   3.697  0.3154 -0.0825 -1.6240
  109SAPE   H7Y11309   1.240   3.080   3.763  0.0559 -1.3582  1.2692
  109SAPE   C3811310   1.421   3.154   3.682  0.8664  0.7063  0.7624
  109SAPE   H8X11311   1.388   3.256   3.708  2.0660  1.3385 -0.1156
  109SAPE   H8Y11312   1.466   3.143   3.581 -0.8404  1.3280 -0.1019
  109SAPE   C3911313   1.528   3.122   3.788  0.8531  1.1450 -0.7381
  109SAPE   H9X11314   1.614   3.192   3.788  2.7267 -0.9384  2.0000
  109SAPE   H9Y11315   1.570   3.021   3.768  0.0322  0.7059 -0.2906
  109SAPE  C31011316   1.458   3.134   3.927  0.5547  0.6067  0.7104
  109SAPE  H10X11317   1.391   3.046   3.933  2.6003 -1.0453  0.6371
  109SAPE  H10Y11318   1.391   3.221   3.913 -1.6576 -1.3134 -1.4743
  109SAPE  C31111319   1.550   3.136   4.054  0.9814 -0.2171  0.7003
  109SAPE  H11X11320   1.619   3.223   4.048 -1.3619  1.6545 -1.6868
  109SAPE  H11Y11321   1.598   3.037   4.066 -2.4284 -1.7680  3.2521
  109SAPE  C31211322   1.469   3.154   4.188  0.0412  0.0910  0.4506
  109SAPE  H12X11323   1.384   3.082   4.190 -2.2698  2.6051 -0.5182
  109SAPE  H12Y11324   1.421   3.255   4.187  0.3332  0.2605  1.5191
  109SAPE  C31311325   1.542   3.151   4.316 -0.5913 -0.3966 -0.5105
  109SAPE  H13X11326   1.466   3.191   4.386 -1.1015  1.8444 -2.2071
  109SAPE  H13Y11327   1.625   3.225   4.325 -0.1498 -0.9039 -0.3424
  109SAPE  C31411328   1.606   3.018   4.349  0.3070  0.4913 -0.1355
  109SAPE  H14X11329   1.694   2.989   4.289  0.7538  1.7900 -0.1347
  109SAPE  H14Y11330   1.531   2.936   4.339  2.3032 -1.5914  1.0713
  109SAPE  C31511331   1.658   3.006   4.490  0.0796 -0.3924 -0.3458
  109SAPE  H15X11332   1.574   3.039   4.555  0.3064  1.6438 -1.0242
  109SAPE  H15Y11333   1.747   3.069   4.512  1.0228 -2.2578  1.6594
  109SAPE  C31611334   1.675   2.855   4.525  0.1013  0.0438  0.2516
  109SAPE  H16X11335   1.758   2.825   4.458 -0.7508  1.2307 -1.4186
  109SAPE  H16Y11336   1.588   2.798   4.484  1.9932 -0.1407 -4.0273
  109SAPE  C31711337   1.705   2.825   4.671 -0.3909  0.2690 -0.0885
  109SAPE  H17X11338   1.627   2.871   4.735 -1.5440  0.1369 -1.3511
  109SAPE  H17Y11339   1.804   2.850   4.715 -1.0920  2.9750  0.1186
  109SAPE  C31811340   1.711   2.671   4.673  0.7073 -0.6693 -0.3418
  109SAPE  H18X11341   1.605   2.637   4.684  0.4389 -0.2689 -1.5705
  109SAPE  H18Y11342   1.756   2.627   4.764  0.1513  0.5236  0.5430
  109SAPE  H18Z11343   1.763   2.628   4.585  1.4318  0.9886 -0.7608
  110SAPE     N11344   0.992   1.748   2.607 -0.2310 -0.1745 -0.2916
  110SAPE   HN111345   0.970   1.791   2.699  0.2455  1.0999 -0.7497
  110SAPE   HN211346   1.095   1.744   2.594 -0.5048  0.3213 -3.4809
  110SAPE   HN311347   0.938   1.802   2.536 -2.4935 -2.2464 -0.2851
  110SAPE   C1211348   0.940   1.608   2.600 -0.4202 -0.2693  0.1830
  110SAPE  H12A11349   0.977   1.576   2.501  0.6376  2.5037 -0.4246
  110SAPE  H12B11350   0.830   1.621   2.606 -0.4288 -0.3657  0.2315
  110SAPE   C1111351   0.994   1.520   2.717  0.0128  0.3972 -0.7174
  110SAPE  H11A11352   0.949   1.420   2.701 -0.6343  0.6759 -0.6598
  110SAPE  H11B11353   0.956   1.557   2.814 -1.7045  0.9840 -1.5692
  110SAPE     P11354   1.222   1.418   2.630 -0.0585  0.0278 -0.0545
  110SAPE   O1311355   1.140   1.342   2.538 -0.3976  0.1603  0.4267
  110SAPE   O1411356   1.334   1.498   2.572  0.2597  0.1275 -0.3917
  110SAPE   O1211357   1.134   1.515   2.710  0.8064  0.8550 -0.2438
  110SAPE   O1111358   1.280   1.316   2.735 -0.5367  0.0352 -0.1314
  110SAPE    C111359   1.233   1.300   2.868 -0.6257 -0.0261  0.6345
  110SAPE    HA11360   1.128   1.333   2.885 -0.8741 -1.0479  1.1560
  110SAPE    HB11361   1.222   1.190   2.881 -1.9335 -0.1088 -0.8743
  110SAPE    C211362   1.331   1.357   2.974 -0.4446  0.3144 -0.2615
  110SAPE    HS11363   1.305   1.313   3.073  2.5348 -1.7067 -0.2317
  110SAPE   O2111364   1.327   1.501   2.975  0.1500 -0.0052  0.1339
  110SAPE   C2111365   1.201   1.543   3.021  0.1075 -0.2070 -0.0699
  110SAPE   O2211366   1.113   1.478   3.065 -0.3030  0.4637 -1.0905
  110SAPE   C2211367   1.215   1.696   3.012 -0.5551  0.3647 -0.0863
  110SAPE   H2R11368   1.321   1.727   3.023 -0.1251 -0.5943 -1.3475
  110SAPE   H2S11369   1.180   1.708   2.907  1.1971 -2.4850 -1.0965
  110SAPE    C311370   1.476   1.311   2.936  0.9120 -0.2897 -0.4066
  110SAPE    HX11371   1.479   1.202   2.917 -1.3407 -0.2914 -0.9503
  110SAPE    HY11372   1.507   1.364   2.844  2.6745 -0.2391  0.1731
  110SAPE   O3111373   1.556   1.346   3.052  0.6357 -0.2780 -0.1536
  110SAPE   C3111374   1.613   1.468   3.043  0.2599  0.1692 -0.1709
  110SAPE   O3211375   1.648   1.523   2.941  0.6204  0.4674  0.6048
  110SAPE   C3211376   1.633   1.537   3.179 -0.7912  0.1674 -0.1926
  110SAPE   H2X11377   1.684   1.635   3.167 -2.1242  1.0784  1.1642
  110SAPE   H2Y11378   1.701   1.473   3.240 -2.3706 -1.3247  0.0860
  110SAPE   C2311379   1.115   1.780   3.100 -0.3343  0.1975  0.5533
  110SAPE   H3R11380   1.009   1.747   3.086 -0.0586  0.4079 -2.6613
  110SAPE   H3S11381   1.124   1.878   3.050  1.8725 -0.4292 -0.3844
  110SAPE   C2411382   1.137   1.772   3.253 -0.1961 -0.9891 -0.3673
  110SAPE   H4R11383   1.243   1.788   3.281 -0.1456  0.5707 -1.3086
  110SAPE   H4S11384   1.110   1.673   3.296  0.3887 -1.0929 -0.2307
  110SAPE   C2511385   1.050   1.872   3.328  0.1383  0.4382 -0.1187
  110SAPE   H5R11386   1.065   1.979   3.311  1.6061  0.2004 -0.4275
  110SAPE   C2611387   0.950   1.845   3.405 -0.0812 -0.6528  0.7251
  110SAPE   H6R11388   0.904   1.932   3.455  1.8568  1.4211 -0.8937
  110SAPE   C2711389   0.903   1.703   3.438 -0.3459 -0.7505 -0.7281
  110SAPE   H7R11390   0.999   1.658   3.475  0.4641 -1.1112 -3.1133
  110SAPE   H7S11391   0.878   1.648   3.345  0.2287 -2.0338 -0.1648
  110SAPE   C2811392   0.782   1.693   3.527  0.2547 -0.5876  0.0898
  110SAPE   H8R11393   0.685   1.689   3.476 -0.4628 -1.1875  1.4308
  110SAPE   C2911394   0.787   1.678   3.660  0.1649 -0.0894  0.2282
  110SAPE   H9R11395   0.687   1.667   3.704 -0.4109 -0.8393 -1.2200
  110SAPE  C21011396   0.905   1.678   3.758  0.0233  0.4188  0.2263
  110SAPE  H10R11397   1.006   1.685   3.713  0.9163 -3.6435  1.2245
  110SAPE  H10S11398   0.904   1.589   3.825 -0.6931  1.9302  2.3565
  110SAPE  C21111399   0.904   1.797   3.856  0.0466  0.3589 -0.1394
  110SAPE  H11R11400   0.936   1.890   3.807  0.6421 -0.4447 -1.3263
  110SAPE  C21211401   0.872   1.798   3.981 -0.2748  0.0701  0.0577
  110SAPE  H12R11402   0.881   1.897   4.029  1.3950  0.6293 -1.3112
  110SAPE  C21311403   0.808   1.697   4.071 -0.1347 -0.6650 -0.3286
  110SAPE  H13R11404   0.718   1.654   4.021 -0.1597  0.9636 -1.7896
  110SAPE  H13S11405   0.770   1.751   4.160  0.9269 -0.1871 -0.1487
  110SAPE  C21411406   0.906   1.593   4.124 -0.5352 -0.0365  0.3830
  110SAPE  H14R11407   0.965   1.543   4.045  2.3832  4.4647 -0.6550
  110SAPE  C21511408   0.931   1.560   4.250  0.4884 -0.3457  0.0319
  110SAPE  H15R11409   0.989   1.467   4.261 -1.5134 -1.9126 -1.7470
  110SAPE  C21611410   0.869   1.624   4.379  0.1039  0.1127 -0.0678
  110SAPE  H16R11411   0.895   1.572   4.474 -0.0750 -0.1488 -0.1613
  110SAPE  H16S11412   0.759   1.635   4.368  0.1366  1.3363  0.6742
  110SAPE  C21711413   0.934   1.770   4.401  0.2437  0.2352  0.1905
  110SAPE  H17R11414   0.871   1.840   4.343 -0.5142  0.3280  1.1087
  110SAPE  H17S11415   1.038   1.787   4.365 -1.0274  2.7352 -2.7454
  110SAPE  C21811416   0.938   1.815   4.547  0.2639  0.9354  0.0717
  110SAPE  H18R11417   1.011   1.751   4.601  0.0973 -0.0462 -0.8347
  110SAPE  H18S11418   0.837   1.808   4.594  0.4736  1.9892  0.7314
  110SAPE  C21911419   0.980   1.960   4.563 -0.0769 -0.1788  0.0794
  110SAPE  H19R11420   0.899   2.034   4.546  0.9216  0.8523 -0.3203
  110SAPE  H19S11421   1.065   1.979   4.496 -1.7080 -0.9981 -2.3583
  110SAPE  C22011422   1.015   1.992   4.715  0.3244  0.2922  0.5181
  110SAPE  H20R11423   1.027   2.101   4.734  0.6135 -0.1373  3.3623
  110SAPE  H20S11424   1.114   1.944   4.733  0.5509  0.8806  0.8785
  110SAPE  H20T11425   0.929   1.966   4.781  1.0800 -1.1430  1.0012
  110SAPE   C3311426   1.500   1.565   3.247  0.5185 -0.5739 -0.1327
  110SAPE   H3X11427   1.440   1.473   3.230  0.0780 -0.2965 -0.0737
  110SAPE   H3Y11428   1.433   1.645   3.210  0.0532 -1.2831 -0.8558
  110SAPE   C3411429   1.531   1.571   3.399  0.6627  0.3339 -0.5117
  110SAPE   H4X11430   1.615   1.642   3.413  0.0920  0.8481  0.4009
  110SAPE   H4Y11431   1.559   1.474   3.445  1.3669  1.2827  1.1671
  110SAPE   C3511432   1.411   1.630   3.478 -0.2600  0.6351  0.0096
  110SAPE   H5X11433   1.328   1.557   3.472  0.6847 -0.5483  0.7860
  110SAPE   H5Y11434   1.377   1.721   3.424 -0.6670 -2.1734 -5.0908
  110SAPE   C3611435   1.448   1.641   3.628 -0.1891 -0.2951 -0.3607
  110SAPE   H6X11436   1.512   1.732   3.634 -0.9988  0.3242 -0.8692
  110SAPE   H6Y11437   1.498   1.551   3.669 -2.8408 -1.7331 -0.0690
  110SAPE   C3711438   1.333   1.666   3.727 -0.0195 -0.6439  0.0033
  110SAPE   H7X11439   1.305   1.577   3.787  3.9729 -0.3566  2.7362
  110SAPE   H7Y11440   1.245   1.713   3.678 -0.9085 -0.0274  2.0865
  110SAPE   C3811441   1.381   1.772   3.835  0.1136 -0.7848 -0.2210
  110SAPE   H8X11442   1.407   1.859   3.770 -2.7531 -1.3659 -2.3610
  110SAPE   H8Y11443   1.456   1.736   3.909 -2.1433 -1.2262  1.9732
  110SAPE   C3911444   1.269   1.814   3.929  0.0876  0.5688  0.0878
  110SAPE   H9X11445   1.235   1.736   4.001  0.2936  0.5046  0.1166
  110SAPE   H9Y11446   1.179   1.842   3.870  0.3131  0.7001 -0.1969
  110SAPE  C31011447   1.299   1.943   4.011 -0.2722  0.2400  0.1924
  110SAPE  H10X11448   1.326   2.015   3.930 -1.7766 -0.0668 -0.6210
  110SAPE  H10Y11449   1.382   1.927   4.082  0.8467  2.1073 -0.6116
  110SAPE  C31111450   1.178   1.997   4.086  0.4781 -0.3984 -0.1594
  110SAPE  H11X11451   1.129   1.920   4.149 -0.9348  1.6900  1.4191
  110SAPE  H11Y11452   1.104   2.006   4.004 -0.4818 -0.9214  0.6326
  110SAPE  C31211453   1.199   2.125   4.169  0.1096 -0.3370  0.2004
  110SAPE  H12X11454   1.265   2.191   4.108 -0.4753 -0.5234 -0.6535
  110SAPE  H12Y11455   1.254   2.103   4.263 -0.2261 -0.8575  0.2764
  110SAPE  C31311456   1.056   2.192   4.191 -0.4588 -0.2747  0.2710
  110SAPE  H13X11457   1.006   2.124   4.264 -1.0977  0.8571  0.9180
  110SAPE  H13Y11458   1.019   2.186   4.087 -1.0394  2.4481  0.2471
  110SAPE  C31411459   1.064   2.341   4.238 -0.0811  0.3836 -0.1429
  110SAPE  H14X11460   0.973   2.397   4.206  0.1391  0.4546 -0.6582
  110SAPE  H14Y11461   1.152   2.393   4.195  0.7748  0.8406  2.0280
  110SAPE  C31511462   1.068   2.341   4.397 -0.2598  0.2068  0.4069
  110SAPE  H15X11463   1.162   2.288   4.423 -1.7524 -2.5257  0.6433
  110SAPE  H15Y11464   0.989   2.272   4.435 -1.1102  1.4763  1.0075
  110SAPE  C31611465   1.044   2.477   4.456  0.1067  0.7624 -0.2589
  110SAPE  H16X11466   0.983   2.547   4.396  0.8840  0.7788 -1.0448
  110SAPE  H16Y11467   1.146   2.522   4.465 -0.1646  1.0138  2.1545
  110SAPE  C31711468   0.990   2.457   4.593 -0.4497 -0.2681 -0.2255
  110SAPE  H17X11469   1.069   2.410   4.656 -1.3106 -1.3525  0.0632
  110SAPE  H17Y11470   0.896   2.398   4.598 -0.2769 -0.5203  0.1006
  110SAPE  C31811471   0.949   2.596   4.658 -0.0994 -0.1290  0.6608
  110SAPE  H18X11472   1.034   2.668   4.647  0.6432 -0.8672  1.4178
  110SAPE  H18Y11473   0.924   2.596   4.766  0.6100  2.4240  0.9110
  110SAPE  H18Z11474   0.865   2.650   4.609 -0.4950 -1.1394  0.2123
  111SAPE     N11475   0.524   1.003   2.688 -0.4205  0.4820 -0.0036
  111SAPE   HN111476   0.523   1.096   2.735 -2.5014 -0.2342  1.5573
  111SAPE   HN211477   0.570   1.003   2.595  0.5359 -1.4619  0.4180
  111SAPE   HN311478   0.428   0.969   2.670 -0.3109  0.4168 -0.4590
  111SAPE   C1211479   0.595   0.897   2.773  0.5140 -0.3134  0.9601
  111SAPE  H12A11480   0.540   0.889   2.869 -1.0583  0.7796  0.2018
  111SAPE  H12B11481   0.704   0.911   2.782  0.4860  1.6104 -0.7545
  111SAPE   C1111482   0.581   0.765   2.707  0.0809 -0.5092 -0.6898
  111SAPE  H11A11483   0.625   0.694   2.780  1.5322  2.9837  2.2034
  111SAPE  H11B11484   0.642   0.753   2.615  3.2340  3.5746  0.5502
  111SAPE     P11485   0.402   0.590   2.629 -0.5257  0.5126 -0.3080
  111SAPE   O1311486   0.354   0.592   2.490  0.4782  0.0357  0.2565
  111SAPE   O1411487   0.515   0.494   2.655  0.2776  0.1343 -0.1229
  111SAPE   O1211488   0.442   0.732   2.685  0.4228  0.1679 -0.1313
  111SAPE   O1111489   0.289   0.534   2.728 -0.4429 -0.4105 -0.9491
  111SAPE    C111490   0.217   0.612   2.823  0.1137 -0.0480  0.2261
  111SAPE    HA11491   0.171   0.697   2.769  2.3162 -0.6239 -2.7978
  111SAPE    HB11492   0.136   0.543   2.856  0.7276 -0.8998 -0.0052
  111SAPE    C211493   0.300   0.646   2.950 -0.3868 -0.1099 -0.3052
  111SAPE    HS11494   0.378   0.719   2.921 -1.5840  2.1257  1.7884
  111SAPE   O2111495   0.369   0.523   3.004 -0.1733 -0.1062  0.1872
  111SAPE   C2111496   0.473   0.545   3.076 -0.6783  0.1403 -0.0183
  111SAPE   O2211497   0.532   0.649   3.099  0.3331  0.0658  0.2598
  111SAPE   C2211498   0.529   0.402   3.124 -0.2376  0.0566  0.0715
  111SAPE   H2R11499   0.437   0.342   3.139 -0.7016 -0.3699 -3.6193
  111SAPE   H2S11500   0.563   0.353   3.030  1.9864  1.1111  0.2652
  111SAPE    C311501   0.204   0.711   3.053 -0.0378  0.4652 -0.3884
  111SAPE    HX11502   0.116   0.643   3.061  0.5749 -0.2664  0.4147
  111SAPE    HY11503   0.174   0.808   3.009  0.5388  1.0860  0.5527
  111SAPE   O3111504   0.266   0.726   3.182 -0.1352  0.4375  0.2665
  111SAPE   C3111505   0.297   0.847   3.220  0.5430 -0.4009  0.4921
  111SAPE   O3211506   0.254   0.945   3.164  0.4012 -0.8644 -0.0642
  111SAPE   C3211507   0.371   0.842   3.352 -0.0284 -0.1044  0.1395
  111SAPE   H2X11508   0.426   0.938   3.357 -0.2247 -0.0045  4.5618
  111SAPE   H2Y11509   0.442   0.757   3.356 -1.1612 -1.0639  3.2362
  111SAPE   C2311510   0.632   0.406   3.242  0.5532 -0.4296  0.1626
  111SAPE   H3R11511   0.682   0.505   3.241  1.5863 -0.9124  1.2279
  111SAPE   H3S11512   0.709   0.326   3.227  1.6677  0.8065 -1.0091
  111SAPE   C2411513   0.561   0.387   3.374  0.4423  0.5409 -0.0364
  111SAPE   H4R11514   0.503   0.293   3.387 -0.1744  1.0550  1.0784
  111SAPE   H4S11515   0.484   0.465   3.392  2.8591  2.5364  2.6779
  111SAPE   C2511516   0.672   0.395   3.478  0.2490  1.0495  0.0426
  111SAPE   H5R11517   0.770   0.396   3.428 -0.0640  0.8221 -0.5897
  111SAPE   C2611518   0.667   0.379   3.613  0.0706  0.0573  0.0314
  111SAPE   H6R11519   0.764   0.374   3.665  0.1900 -1.7577 -0.2987
  111SAPE   C2711520   0.542   0.357   3.698  0.0286 -0.2009 -0.8034
  111SAPE   H7R11521   0.554   0.263   3.756 -1.2198 -0.3309 -0.7237
  111SAPE   H7S11522   0.454   0.327   3.638 -0.2998 -0.3254 -0.2706
  111SAPE   C2811523   0.507   0.475   3.795  0.0528 -0.8050 -0.0957
  111SAPE   H8R11524   0.472   0.565   3.743 -0.9690 -0.5035  1.0796
  111SAPE   C2911525   0.506   0.475   3.923  0.3570  0.1355 -0.1258
  111SAPE   H9R11526   0.502   0.571   3.977 -2.3318 -0.6505  1.2453
  111SAPE  C21011527   0.557   0.361   4.010 -0.9441  0.0159 -0.0249
  111SAPE  H10R11528   0.668   0.363   4.008 -0.7353 -4.1297 -0.8608
  111SAPE  H10S11529   0.556   0.264   3.955 -0.9754  0.2826 -0.4999
  111SAPE  C21111530   0.496   0.363   4.144 -0.7279 -0.0062 -0.0119
  111SAPE  H11R11531   0.403   0.308   4.164  0.0956 -1.0573  1.0582
  111SAPE  C21211532   0.541   0.442   4.247 -1.1125 -0.1173 -0.0580
  111SAPE  H12R11533   0.478   0.453   4.336 -2.6036  0.1262 -1.1035
  111SAPE  C21311534   0.672   0.522   4.258 -0.4541  0.0241  0.2545
  111SAPE  H13R11535   0.748   0.492   4.182 -1.6698  1.2810 -1.5470
  111SAPE  H13S11536   0.724   0.481   4.347  1.7414  0.7921 -0.6040
  111SAPE  C21411537   0.653   0.677   4.247  0.7486  0.8100  0.1883
  111SAPE  H14R11538   0.633   0.712   4.145 -1.1760 -3.5887 -1.1922
  111SAPE  C21511539   0.679   0.768   4.342  1.8655 -0.1739 -0.1910
  111SAPE  H15R11540   0.654   0.874   4.322  1.9157 -0.2619 -0.7422
  111SAPE  C21611541   0.723   0.737   4.476 -0.2825 -0.5248 -0.3495
  111SAPE  H16R11542   0.830   0.765   4.481 -1.4592  4.8469  2.1428
  111SAPE  H16S11543   0.716   0.631   4.507 -0.7166 -0.1437  0.9205
  111SAPE  C21711544   0.642   0.821   4.579  1.0723 -0.1773 -0.1547
  111SAPE  H17R11545   0.542   0.847   4.538  1.5604  0.8490 -0.7341
  111SAPE  H17S11546   0.704   0.912   4.584  0.6073  0.1708 -0.5680
  111SAPE  C21811547   0.623   0.775   4.718 -0.1044  0.9914  0.5277
  111SAPE  H18R11548   0.721   0.794   4.768  1.9353  0.8723 -3.0889
  111SAPE  H18S11549   0.606   0.666   4.729  0.9041  0.9981  2.6776
  111SAPE  C21911550   0.512   0.853   4.797 -0.5313 -0.5339 -0.0415
  111SAPE  H19R11551   0.492   0.803   4.895 -0.6513  0.1645  0.2971
  111SAPE  H19S11552   0.418   0.831   4.744 -0.9557  1.9791 -0.4515
  111SAPE  C22011553   0.531   1.002   4.811  0.0762  0.4151  0.2369
  111SAPE  H20R11554   0.559   1.052   4.716 -0.6811  1.5957  0.6067
  111SAPE  H20S11555   0.595   1.018   4.901 -0.4907 -1.9068  1.1346
  111SAPE  H20T11556   0.434   1.049   4.835 -1.2954 -1.9220 -0.4058
  111SAPE   C3311557   0.287   0.822   3.483  0.2827 -0.2035  0.2635
  111SAPE   H3X11558   0.248   0.719   3.468  3.4123 -1.5074  0.3066
  111SAPE   H3Y11559   0.207   0.899   3.479  0.2514 -0.2358  0.2741
  111SAPE   C3411560   0.370   0.834   3.613  0.3401  0.4569  0.8293
  111SAPE   H4X11561   0.389   0.943   3.620 -1.7815  1.2439 -2.9935
  111SAPE   H4Y11562   0.469   0.784   3.605  1.0462  2.0876 -4.7396
  111SAPE   C3511563   0.288   0.780   3.732  0.0763 -0.1724  0.5792
  111SAPE   H5X11564   0.264   0.672   3.724  1.3764 -0.8131  3.7128
  111SAPE   H5Y11565   0.189   0.830   3.736 -0.5626 -1.3402 -0.1222
  111SAPE   C3611566   0.340   0.815   3.871  0.3190 -0.0219  0.0562
  111SAPE   H6X11567   0.335   0.926   3.876  0.6080  0.0306 -0.7353
  111SAPE   H6Y11568   0.442   0.772   3.884 -0.1806 -2.0294 -2.1183
  111SAPE   C3711569   0.242   0.755   3.984 -0.2199  0.2361  0.0580
  111SAPE   H7X11570   0.240   0.645   3.991 -0.9269  0.3159  1.2394
  111SAPE   H7Y11571   0.142   0.802   3.972  0.3982  1.6585  0.1836
  111SAPE   C3811572   0.292   0.810   4.117 -0.4204  0.1816 -0.3908
  111SAPE   H8X11573   0.287   0.921   4.119  1.4543  0.3960 -2.9045
  111SAPE   H8Y11574   0.400   0.784   4.124 -0.0374  2.0315  1.4454
  111SAPE   C3911575   0.224   0.772   4.244  0.7518  0.0722 -0.3714
  111SAPE   H9X11576   0.234   0.664   4.266  0.4253  0.2601  0.7257
  111SAPE   H9Y11577   0.114   0.782   4.237  0.6530  1.4342  2.0835
  111SAPE  C31011578   0.272   0.863   4.359  0.2633 -0.2637  0.0589
  111SAPE  H10X11579   0.232   0.963   4.331 -0.2547 -0.6283 -0.5266
  111SAPE  H10Y11580   0.381   0.883   4.360  0.1445  1.5018 -3.5322
  111SAPE  C31111581   0.242   0.809   4.502 -0.5081 -1.0495 -0.3545
  111SAPE  H11X11582   0.133   0.793   4.512 -0.5359  0.1143  1.7683
  111SAPE  H11Y11583   0.272   0.876   4.586  0.3099 -1.2831 -0.4500
  111SAPE  C31211584   0.296   0.661   4.532  0.2616  0.2301 -0.5229
  111SAPE  H12X11585   0.406   0.650   4.523  0.5275  0.3098  1.9902
  111SAPE  H12Y11586   0.255   0.591   4.455  0.9466 -0.4026 -0.3288
  111SAPE  C31311587   0.244   0.598   4.668 -0.1358 -0.3450  0.0801
  111SAPE  H13X11588   0.133   0.589   4.668 -0.2920  1.2163  0.2708
  111SAPE  H13Y11589   0.263   0.670   4.751  0.0489 -0.0660 -0.2012
  111SAPE  C31411590   0.316   0.466   4.696 -0.2170 -0.7455  0.1671
  111SAPE  H14X11591   0.426   0.478   4.687 -0.5104  1.9728 -0.7740
  111SAPE  H14Y11592   0.292   0.403   4.608  0.7972  1.1931 -1.5976
  111SAPE  C31511593   0.273   0.394   4.824 -0.1208  0.1772  0.3306
  111SAPE  H15X11594   0.245   0.292   4.790  0.8898  0.0526 -0.1872
  111SAPE  H15Y11595   0.173   0.434   4.850 -0.6684 -0.0151 -1.3701
  111SAPE  C31611596   0.376   0.404   4.940  0.8385 -0.4633  0.5619
  111SAPE  H16X11597   0.409   0.509   4.957 -1.9502  0.3682  1.3953
  111SAPE  H16Y11598   0.469   0.352   4.907  1.5940  0.8036  0.6421
  111SAPE  C31711599   0.324   0.343   5.066 -0.6686  0.1087  0.2797
  111SAPE  H17X11600   0.330   0.232   5.059 -0.0829  0.2056 -0.9962
  111SAPE  H17Y11601   0.217   0.368   5.082 -0.5652  1.0230 -0.3605
  111SAPE  C31811602   0.404   0.391   5.186 -0.4515 -0.7545  0.3701
  111SAPE  H18X11603   0.402   0.502   5.189  0.5275 -0.6999 -0.5243
  111SAPE  H18Y11604   0.510   0.358   5.184  0.9198  3.0434  1.0514
  111SAPE  H18Z11605   0.352   0.340   5.270 -0.4841  1.7161  1.9641
  112SAPE     N11606   4.891   6.710   2.586  0.5491  0.0403 -0.3427
  112SAPE   HN111607   4.944   6.629   2.550  0.9964  0.0968  0.1756
  112SAPE   HN211608   4.851   6.772   2.512 -0.0850 -0.5504 -0.5091
  112SAPE   HN311609   4.955   6.765   2.647 -0.0043 -0.0346  0.3227
  112SAPE   C1211610   4.770   6.649   2.654  0.6299 -0.2634 -0.2828
  112SAPE  H12A11611   4.794   6.560   2.715 -0.3512 -0.7878 -0.6385
  112SAPE  H12B11612   4.699   6.617   2.575  0.6152 -1.1072  0.0710
  112SAPE   C1111613   4.713   6.748   2.759 -0.6873  0.1192 -0.4670
  112SAPE  H11A11614   4.791   6.771   2.835 -0.0874 -0.5470 -0.8664
  112SAPE  H11B11615   4.640   6.687   2.817 -1.7425  1.5716 -0.2197
  112SAPE     P11616   4.521   6.847   2.611 -0.1095 -0.1331 -0.3318
  112SAPE   O1311617   4.451   6.978   2.618  0.0773  0.8964 -0.7320
  112SAPE   O1411618   4.547   6.783   2.488  0.1249 -0.0915  0.5248
  112SAPE   O1211619   4.655   6.861   2.699  0.1833  0.0570 -0.0296
  112SAPE   O1111620   4.436   6.746   2.696 -0.1925  0.0128 -0.1304
  112SAPE    C111621   4.364   6.780   2.811  0.8864  0.3610 -0.2093
  112SAPE    HA11622   4.263   6.810   2.774 -0.7445 -2.1414  1.8913
  112SAPE    HB11623   4.341   6.687   2.866 -1.4633  1.0365  0.0860
  112SAPE    C211624   4.433   6.891   2.905 -0.3425 -0.6608  0.1036
  112SAPE    HS11625   4.464   6.979   2.846 -2.7598  1.1444  1.3314
  112SAPE   O2111626   4.544   6.844   2.978  0.4613 -0.4182  0.5166
  112SAPE   C2111627   4.634   6.945   3.014 -0.1449  0.3321  0.0165
  112SAPE   O2211628   4.629   7.063   2.977 -0.1761  0.2762 -0.4553
  112SAPE   C2211629   4.741   6.896   3.116  0.2486 -0.2422  0.5182
  112SAPE   H2R11630   4.745   6.785   3.116  1.0166 -0.2406 -0.9708
  112SAPE   H2S11631   4.840   6.936   3.087 -0.8908  0.7466 -2.4614
  112SAPE    C311632   4.326   6.922   3.013  0.6772 -0.0035  0.4770
  112SAPE    HX11633   4.310   6.831   3.074  1.6152  0.7285  1.8792
  112SAPE    HY11634   4.230   6.938   2.959  0.6630 -3.1844 -0.6365
  112SAPE   O3111635   4.361   7.033   3.095  0.3450  0.1724  0.1483
  112SAPE   C3111636   4.355   7.155   3.047 -0.1026 -0.1934 -0.3637
  112SAPE   O3211637   4.312   7.194   2.938 -0.4201 -0.0038 -0.4464
  112SAPE   C3211638   4.426   7.256   3.139  0.5744  0.1360 -0.0309
  112SAPE   H2X11639   4.494   7.324   3.083  0.5657  0.7820  0.7219
  112SAPE   H2Y11640   4.488   7.195   3.209 -0.3154 -1.4616 -0.5878
  112SAPE   C2311641   4.709   6.956   3.262  1.1251 -0.4432 -0.1731
  112SAPE   H3R11642   4.679   7.063   3.255  0.6242 -0.6925 -2.6878
  112SAPE   H3S11643   4.798   6.942   3.327  0.4477 -1.2689  0.5952
  112SAPE   C2411644   4.603   6.882   3.342  0.1337 -0.4023  0.1988
  112SAPE   H4R11645   4.617   6.772   3.355 -1.1280 -0.7923 -1.4141
  112SAPE   H4S11646   4.511   6.892   3.281  0.8207  2.1149 -0.5391
  112SAPE   C2511647   4.592   6.948   3.481 -0.0300  0.3357 -0.3410
  112SAPE   H5R11648   4.584   7.057   3.468  2.5946  0.7009  0.5657
  112SAPE   C2611649   4.608   6.897   3.601  1.0253 -0.3753  0.5760
  112SAPE   H6R11650   4.608   6.957   3.693  1.5021 -1.2219  1.1409
  112SAPE   C2711651   4.626   6.747   3.636  0.9426 -0.9886  0.4028
  112SAPE   H7R11652   4.619   6.685   3.544 -2.8667 -1.0182  0.5652
  112SAPE   H7S11653   4.540   6.716   3.698 -0.7261 -0.3887 -1.4945
  112SAPE   C2811654   4.757   6.713   3.700  1.2114 -0.6051 -0.4457
  112SAPE   H8R11655   4.845   6.753   3.647 -0.1323 -0.6641 -2.8788
  112SAPE   C2911656   4.771   6.625   3.801  0.4675 -0.1294  0.5523
  112SAPE   H9R11657   4.871   6.608   3.844  0.6808  0.1698  0.1820
  112SAPE  C21011658   4.663   6.556   3.877  0.1287 -0.2438 -0.1148
  112SAPE  H10R11659   4.661   6.452   3.840  2.0761 -0.4321  0.2415
  112SAPE  H10S11660   4.560   6.595   3.862  0.4861  0.7595 -0.0255
  112SAPE  C21111661   4.681   6.545   4.023  0.1683  0.5744 -0.6569
  112SAPE  H11R11662   4.694   6.446   4.071  1.7908  2.1331  2.4462
  112SAPE  C21211663   4.685   6.645   4.110 -0.1787 -0.0626  0.1795
  112SAPE  H12R11664   4.715   6.611   4.210  1.3342  1.2202  0.2057
  112SAPE  C21311665   4.678   6.796   4.085 -0.0715 -0.3009 -0.0708
  112SAPE  H13R11666   4.612   6.809   3.996 -0.5343  2.4210  0.5878
  112SAPE  H13S11667   4.779   6.831   4.054 -0.0947  0.5468  0.7843
  112SAPE  C21411668   4.619   6.868   4.205  0.2361 -0.0789  0.3494
  112SAPE  H14R11669   4.617   6.816   4.302  1.4408  2.0326  1.5913
  112SAPE  C21511670   4.569   6.992   4.200 -0.6137 -1.0616  0.1733
  112SAPE  H15R11671   4.539   7.039   4.295 -0.3549 -1.3553  0.4039
  112SAPE  C21611672   4.567   7.088   4.082  0.1297 -1.1209  0.2073
  112SAPE  H16R11673   4.661   7.071   4.023  0.8670 -0.7060  1.2351
  112SAPE  H16S11674   4.561   7.191   4.121  0.2616 -1.0862  0.1375
  112SAPE  C21711675   4.445   7.077   3.979  0.1709 -0.1951 -0.3403
  112SAPE  H17R11676   4.452   6.978   3.931 -0.1456 -0.4172  0.0698
  112SAPE  H17S11677   4.478   7.156   3.908 -0.1696  0.3549  0.1028
  112SAPE  C21811678   4.302   7.093   4.034 -0.0479 -0.3716 -0.8004
  112SAPE  H18R11679   4.306   7.191   4.086  0.5262 -1.1899  0.7494
  112SAPE  H18S11680   4.279   7.014   4.108 -1.0741 -0.8503 -1.6046
  112SAPE  C21911681   4.193   7.095   3.921 -0.0797 -0.2115  0.3161
  112SAPE  H19R11682   4.237   7.158   3.841  0.9492 -2.1856 -0.7340
  112SAPE  H19S11683   4.100   7.152   3.944 -0.7589 -0.8597 -0.7229
  112SAPE  C22011684   4.170   6.961   3.848 -0.0592  0.3812  0.0820
  112SAPE  H20R11685   4.270   6.926   3.812  0.3451  1.4781  0.1032
  112SAPE  H20S11686   4.100   6.963   3.762  0.7349 -0.9111 -0.6460
  112SAPE  H20T11687   4.134   6.880   3.915  0.3757 -1.3574 -1.6693
  112SAPE   C3311688   4.333   7.341   3.236 -0.5554  0.5099  1.0584
  112SAPE   H3X11689   4.256   7.394   3.176  0.7374  2.5184  1.0779
  112SAPE   H3Y11690   4.381   7.422   3.295 -1.6989  0.7726  1.6658
  112SAPE   C3411691   4.274   7.260   3.355  0.3845  0.2138  0.0506
  112SAPE   H4X11692   4.347   7.251   3.438  0.9655 -2.1151 -0.6389
  112SAPE   H4Y11693   4.245   7.156   3.329 -1.3857  0.5621  0.5138
  112SAPE   C3511694   4.145   7.325   3.417 -0.7393 -0.1923  0.3876
  112SAPE   H5X11695   4.090   7.242   3.466 -1.6524  0.1595 -0.0364
  112SAPE   H5Y11696   4.082   7.347   3.328  1.5973  0.6955 -1.1774
  112SAPE   C3611697   4.154   7.444   3.509 -0.1462  0.3705  0.8494
  112SAPE   H6X11698   4.056   7.494   3.492 -2.0850 -3.2760  0.1980
  112SAPE   H6Y11699   4.235   7.518   3.491  0.6457 -0.5821  0.3831
  112SAPE   C3711700   4.167   7.396   3.653  0.8348 -0.1526 -0.2860
  112SAPE   H7X11701   4.261   7.339   3.669  0.3500 -1.3827 -1.5530
  112SAPE   H7Y11702   4.075   7.336   3.672  0.5530  0.1964 -0.5384
  112SAPE   C3811703   4.161   7.514   3.755  0.6432  0.2571 -0.5692
  112SAPE   H8X11704   4.068   7.571   3.735 -1.6679 -2.0890  2.4393
  112SAPE   H8Y11705   4.257   7.569   3.766  0.2884  0.3538  3.8832
  112SAPE   C3911706   4.129   7.464   3.901 -0.2704  0.9360 -0.0971
  112SAPE   H9X11707   4.195   7.375   3.911 -1.4997  0.1573  1.7438
  112SAPE   H9Y11708   4.023   7.432   3.912 -0.4391  1.2708 -0.6837
  112SAPE  C31011709   4.160   7.579   4.004  0.1575  0.1879 -0.1514
  112SAPE  H10X11710   4.081   7.656   3.998 -0.8840 -0.9277 -1.6947
  112SAPE  H10Y11711   4.260   7.623   3.985 -0.3296  0.5886 -2.0426
  112SAPE  C31111712   4.171   7.516   4.144  0.4662  0.1416 -0.5073
  112SAPE  H11X11713   4.234   7.426   4.127 -1.2447 -1.1909 -0.1092
  112SAPE  H11Y11714   4.070   7.483   4.177  1.5422 -1.5415  1.3291
  112SAPE  C31211715   4.232   7.605   4.251 -1.0801  0.1226 -0.0625
  112SAPE  H12X11716   4.185   7.705   4.257 -2.3162 -0.4372 -0.1409
  112SAPE  H12Y11717   4.338   7.618   4.221 -1.2327  1.0026 -0.2600
  112SAPE  C31311718   4.232   7.546   4.395 -0.0410  0.3528 -0.3016
  112SAPE  H13X11719   4.136   7.512   4.439 -0.3567 -1.4724 -2.2328
  112SAPE  H13Y11720   4.265   7.618   4.474  1.0039 -0.5199  0.0956
  112SAPE  C31411721   4.327   7.418   4.404 -0.4166 -0.7580  0.1501
  112SAPE  H14X11722   4.435   7.444   4.394  0.0018 -3.1545 -2.7676
  112SAPE  H14Y11723   4.305   7.349   4.320 -1.5122 -2.5957  1.8568
  112SAPE  C31511724   4.305   7.325   4.524  0.8137  0.2303  0.0992
  112SAPE  H15X11725   4.195   7.313   4.522  0.4156  3.2529  0.0716
  112SAPE  H15Y11726   4.334   7.366   4.623 -1.0973 -1.1752  1.3115
  112SAPE  C31611727   4.378   7.191   4.503  0.0697  0.7985  0.0593
  112SAPE  H16X11728   4.488   7.205   4.507  0.2263 -0.6277  1.7925
  112SAPE  H16Y11729   4.342   7.148   4.407 -0.0367  0.1226  0.3969
  112SAPE  C31711730   4.338   7.101   4.614 -0.6516  0.3969 -0.5375
  112SAPE  H17X11731   4.374   7.000   4.586 -2.6104 -0.2817 -0.7698
  112SAPE  H17Y11732   4.228   7.090   4.622 -0.9086  1.9636 -1.4266
  112SAPE  C31811733   4.399   7.125   4.752  0.0529 -0.0425  0.3988
  112SAPE  H18X11734   4.366   7.055   4.831  2.9416 -0.7149  1.1306
  112SAPE  H18Y11735   4.359   7.221   4.791  1.9476  1.1457 -0.4380
  112SAPE  H18Z11736   4.509   7.139   4.753 -0.1614  2.3993 -1.2892
  113SAPE     N11737   4.416   5.772   2.759 -0.6978  0.1313 -0.0840
  113SAPE   HN111738   4.464   5.697   2.706 -1.9522  0.7469 -2.1984
  113SAPE   HN211739   4.325   5.785   2.711 -0.3021  0.3324 -0.7964
  113SAPE   HN311740   4.465   5.864   2.760  1.3429 -0.8835 -0.4709
  113SAPE   C1211741   4.406   5.731   2.902  0.7106 -0.9727  0.2138
  113SAPE  H12A11742   4.337   5.644   2.907 -0.7360 -0.1235 -2.6371
  113SAPE  H12B11743   4.364   5.824   2.946  1.7848  0.1776 -1.0912
  113SAPE   C1111744   4.536   5.702   2.972  0.2139 -0.5396  0.3120
  113SAPE  H11A11745   4.570   5.603   2.935  4.0191  0.6865  0.0757
  113SAPE  H11B11746   4.513   5.687   3.080 -0.4806  1.7471  0.5280
  113SAPE     P11747   4.767   5.796   2.882 -0.1532 -0.2152  0.0725
  113SAPE   O1311748   4.822   5.660   2.912  0.1171 -0.1054  0.3470
  113SAPE   O1411749   4.747   5.816   2.737  0.7488 -0.2535  0.2545
  113SAPE   O1211750   4.622   5.811   2.966 -0.5652 -0.1173 -0.0574
  113SAPE   O1111751   4.852   5.911   2.943 -0.0194  0.4440 -0.0453
  113SAPE    C111752   4.804   6.047   2.953 -0.1121 -0.2955 -0.7619
  113SAPE    HA11753   4.887   6.119   2.940  0.6072 -0.4548  2.2216
  113SAPE    HB11754   4.719   6.073   2.886 -0.0447 -1.0470 -1.1517
  113SAPE    C211755   4.744   6.061   3.096  0.3493 -0.1950 -0.6924
  113SAPE    HS11756   4.657   5.995   3.117 -1.6121  2.1440 -1.0934
  113SAPE   O2111757   4.705   6.200   3.113 -0.1882  0.2340  0.4229
  113SAPE   C2111758   4.579   6.231   3.065 -0.3160 -0.4218 -0.1398
  113SAPE   O2211759   4.492   6.155   3.039  0.4234 -0.0889 -0.1037
  113SAPE   C2211760   4.564   6.386   3.048  0.5828 -0.0815  0.2277
  113SAPE   H2R11761   4.606   6.415   2.950 -2.2237 -1.4594 -1.4921
  113SAPE   H2S11762   4.454   6.402   3.041  0.8160  1.0409 -1.3539
  113SAPE    C311763   4.848   6.035   3.204 -0.7202  0.6667 -0.7322
  113SAPE    HX11764   4.936   6.097   3.177 -0.9549  1.5213  0.3780
  113SAPE    HY11765   4.880   5.930   3.187 -1.7647  0.4787 -1.6673
  113SAPE   O3111766   4.797   6.049   3.343 -0.0301 -0.0476  0.6182
  113SAPE   C3111767   4.870   6.142   3.412 -0.2138  0.5876  0.2975
  113SAPE   O3211768   4.974   6.187   3.372  0.1581  0.0494  0.5430
  113SAPE   C3211769   4.814   6.178   3.549 -0.1944 -0.2155 -0.7950
  113SAPE   H2X11770   4.778   6.079   3.586  0.2876 -0.1584 -0.1561
  113SAPE   H2Y11771   4.731   6.251   3.540  1.2286  1.2887 -2.8156
  113SAPE   C2311772   4.616   6.479   3.158  0.5731 -0.1838  0.4664
  113SAPE   H3R11773   4.588   6.579   3.119  0.2499 -1.4087 -2.7806
  113SAPE   H3S11774   4.727   6.480   3.161  0.7209  2.0021 -2.1420
  113SAPE   C2411775   4.563   6.457   3.295  0.1848  0.9232 -1.1956
  113SAPE   H4R11776   4.633   6.515   3.359 -1.3719  1.8944 -0.3250
  113SAPE   H4S11777   4.586   6.354   3.327  2.0427  1.8351  0.6580
  113SAPE   C2511778   4.424   6.507   3.333 -0.4225  1.0164  0.0572
  113SAPE   H5R11779   4.393   6.594   3.274  2.2064  1.3135 -1.0028
  113SAPE   C2611780   4.340   6.451   3.433 -1.3533 -0.4212 -0.1414
  113SAPE   H6R11781   4.245   6.506   3.442 -0.3251  1.5815 -0.8912
  113SAPE   C2711782   4.366   6.321   3.509 -0.6295  0.0341  0.0770
  113SAPE   H7R11783   4.411   6.248   3.439 -1.3697 -0.5571  0.2102
  113SAPE   H7S11784   4.271   6.284   3.553 -0.8306 -0.2507 -0.5734
  113SAPE   C2811785   4.459   6.322   3.627  0.6476 -0.0288  0.2857
  113SAPE   H8R11786   4.516   6.416   3.620  0.7531 -0.0961  0.2471
  113SAPE   C2911787   4.479   6.228   3.726 -0.2528  0.1918  0.7302
  113SAPE   H9R11788   4.562   6.231   3.798  0.0600 -0.9084  0.4393
  113SAPE  C21011789   4.402   6.098   3.727 -0.2037 -0.0017 -0.2260
  113SAPE  H10R11790   4.295   6.125   3.715  0.2514  0.5952 -3.9427
  113SAPE  H10S11791   4.410   6.056   3.830  1.6266 -2.1574 -1.1547
  113SAPE  C21111792   4.439   6.000   3.627  0.0132  0.4617  0.6288
  113SAPE  H11R11793   4.417   6.020   3.522 -0.9462  1.1449  0.9504
  113SAPE  C21211794   4.502   5.880   3.648  0.9787 -0.5251 -1.0476
  113SAPE  H12R11795   4.507   5.820   3.557  0.0747 -1.3617 -0.5614
  113SAPE  C21311796   4.541   5.813   3.775 -0.1546 -0.1206  0.1888
  113SAPE  H13R11797   4.570   5.708   3.754  0.8536  0.1645  0.0945
  113SAPE  H13S11798   4.449   5.801   3.836  1.4344 -0.4492  2.6810
  113SAPE  C21411799   4.644   5.880   3.873  0.8247  0.3197 -0.6066
  113SAPE  H14R11800   4.603   5.974   3.914  0.0053  0.4870 -1.7498
  113SAPE  C21511801   4.768   5.840   3.903  0.2938 -0.5877  0.9589
  113SAPE  H15R11802   4.814   5.902   3.982 -0.9746 -0.2234  1.4400
  113SAPE  C21611803   4.845   5.719   3.850  0.2800  0.1265 -0.0141
  113SAPE  H16R11804   4.827   5.703   3.742  0.4102  0.3661 -0.0734
  113SAPE  H16S11805   4.804   5.632   3.906  0.1630 -0.2326 -0.6498
  113SAPE  C21711806   4.996   5.735   3.877  0.1619  0.6470  0.5461
  113SAPE  H17R11807   5.030   5.631   3.856 -0.3691  0.3686  1.0523
  113SAPE  H17S11808   5.016   5.750   3.985 -1.3623 -0.1704  0.9800
  113SAPE  C21811809   5.080   5.837   3.803  0.2631  0.7544 -0.3482
  113SAPE  H18R11810   5.053   5.941   3.830 -2.8416 -0.2497  0.7857
  113SAPE  H18S11811   5.056   5.834   3.695 -0.1431 -0.7608 -0.2399
  113SAPE  C21911812   5.229   5.806   3.817  0.5363 -0.5661 -0.4939
  113SAPE  H19R11813   5.281   5.868   3.741 -0.1463 -2.4901 -2.6452
  113SAPE  H19S11814   5.258   5.701   3.795 -0.7733 -0.7057 -1.6624
  113SAPE  C22011815   5.271   5.843   3.966  0.2229  0.5621  0.6478
  113SAPE  H20R11816   5.229   5.942   3.993 -2.9195 -0.5627  0.3211
  113SAPE  H20S11817   5.382   5.838   3.972  0.2717 -0.2437 -0.5893
  113SAPE  H20T11818   5.227   5.770   4.037  1.1069 -1.0542 -0.3861
  113SAPE   C3311819   4.915   6.234   3.647 -0.2959 -0.0724 -0.3997
  113SAPE   H3X11820   4.933   6.343   3.649 -1.0771  0.0524  0.0259
  113SAPE   H3Y11821   5.015   6.185   3.639 -0.4666 -0.3585 -0.8010
  113SAPE   C3411822   4.881   6.191   3.786  0.1730  0.0039 -0.0417
  113SAPE   H4X11823   4.849   6.085   3.801  2.4355 -0.5871  1.0972
  113SAPE   H4Y11824   4.782   6.239   3.800  0.2051  0.1895 -0.4650
  113SAPE   C3511825   4.974   6.244   3.892 -0.4323 -0.5545  0.0733
  113SAPE   H5X11826   4.966   6.354   3.904  0.2124 -0.4919 -0.0299
  113SAPE   H5Y11827   5.078   6.227   3.856  0.0637 -0.5110  1.4069
  113SAPE   C3611828   4.948   6.180   4.027  0.2342 -0.2348 -0.7230
  113SAPE   H6X11829   5.002   6.083   4.028 -0.8035 -0.8952  2.4159
  113SAPE   H6Y11830   4.840   6.159   4.039  0.3819 -0.0614  1.1584
  113SAPE   C3711831   4.984   6.269   4.148 -0.5014  0.5480  0.0368
  113SAPE   H7X11832   4.928   6.364   4.135  0.2697  1.3235  1.9628
  113SAPE   H7Y11833   5.093   6.288   4.152 -0.4410  0.2204 -0.0047
  113SAPE   C3811834   4.945   6.201   4.279  0.3358 -0.8510  0.5644
  113SAPE   H8X11835   4.834   6.203   4.281  0.3003 -0.9382 -0.6569
  113SAPE   H8Y11836   4.985   6.098   4.284 -0.0701 -0.9493  2.4717
  113SAPE   C3911837   4.999   6.267   4.402  0.1336 -0.0923 -0.7812
  113SAPE   H9X11838   4.971   6.371   4.428  0.5503 -0.7204  2.6547
  113SAPE   H9Y11839   5.109   6.270   4.386 -0.2549  0.7169 -3.8516
  113SAPE  C31011840   4.968   6.181   4.530  0.1806 -0.2271  0.2602
  113SAPE  H10X11841   5.023   6.087   4.508  0.4302 -0.0130 -0.0472
  113SAPE  H10Y11842   4.859   6.162   4.540 -0.2802  0.3968 -2.6974
  113SAPE  C31111843   5.020   6.247   4.658 -0.4363  0.0668 -0.0499
  113SAPE  H11X11844   4.983   6.351   4.669 -0.0951  0.4722 -2.3563
  113SAPE  H11Y11845   5.131   6.248   4.661 -0.4522  1.2641  1.3206
  113SAPE  C31211846   4.965   6.168   4.781  0.0560 -0.0572 -0.1248
  113SAPE  H12X11847   5.001   6.063   4.779 -0.0554 -0.0962 -0.0992
  113SAPE  H12Y11848   4.854   6.171   4.782  0.0452 -0.2835  1.2834
  113SAPE  C31311849   5.020   6.235   4.915  0.5113  0.5804 -0.1402
  113SAPE  H13X11850   4.960   6.202   5.003  1.3243  1.7366  0.8751
  113SAPE  H13Y11851   4.988   6.341   4.906  2.3206  1.1114 -0.6646
  113SAPE  C31411852   5.167   6.212   4.940 -0.2431 -0.3312  0.4390
  113SAPE  H14X11853   5.229   6.259   4.861 -0.3093 -0.6976  0.1691
  113SAPE  H14Y11854   5.185   6.104   4.922  0.6501 -0.0494 -0.4585
  113SAPE  C31511855   5.203   6.264   5.075  0.6474  0.2233  0.5012
  113SAPE  H15X11856   5.139   6.216   5.152 -3.2109  1.5139 -1.6152
  113SAPE  H15Y11857   5.167   6.368   5.063  0.4054 -0.0836 -1.9028
  113SAPE  C31611858   5.360   6.268   5.104  0.6038 -0.6449  0.1387
  113SAPE  H16X11859   5.411   6.339   5.036 -0.6194  0.5884  0.4610
  113SAPE  H16Y11860   5.392   6.162   5.094 -2.1350 -1.4412 -1.2552
  113SAPE  C31711861   5.400   6.319   5.241  0.1806 -0.1980  0.0644
  113SAPE  H17X11862   5.506   6.350   5.235  0.0002  0.6280  0.9368
  113SAPE  H17Y11863   5.387   6.243   5.321 -1.8822 -0.7160 -0.6910
  113SAPE  C31811864   5.333   6.452   5.276  0.0754 -0.1560  0.0951
  113SAPE  H18X11865   5.356   6.522   5.193  0.3817  1.5075  1.5268
  113SAPE  H18Y11866   5.365   6.498   5.371 -0.3995 -1.2370  0.7985
  113SAPE  H18Z11867   5.222   6.444   5.286  0.1321 -0.2565  0.6873
  114SAPE     N11868   1.933   0.439   2.915  0.2945  0.2133  0.1387
  114SAPE   HN111869   1.932   0.338   2.890 -0.4117  0.1598  0.3560
  114SAPE   HN211870   1.888   0.488   2.836 -1.5049  1.9736  2.1258
  114SAPE   HN311871   2.032   0.471   2.913  0.7304 -1.0761 -0.6884
  114SAPE   C1211872   1.854   0.450   3.039 -0.6262 -0.5217 -0.6354
  114SAPE  H12A11873   1.913   0.407   3.124  0.5951  1.8073 -0.2176
  114SAPE  H12B11874   1.753   0.407   3.023 -1.8042  1.0570  1.7823
  114SAPE   C1111875   1.832   0.602   3.074 -0.2123  0.1206 -0.1931
  114SAPE  H11A11876   1.932   0.638   3.105  0.5780 -2.2911  0.2875
  114SAPE  H11B11877   1.756   0.605   3.155 -1.3087  0.1597 -1.1893
  114SAPE     P11878   1.859   0.801   2.906 -0.4384 -0.4722 -0.0818
  114SAPE   O1311879   2.009   0.793   2.907 -0.2467  0.8169  0.4250
  114SAPE   O1411880   1.795   0.830   2.778  0.4214 -0.7987  0.5362
  114SAPE   O1211881   1.783   0.682   2.966  0.1140  0.1434  0.2407
  114SAPE   O1111882   1.817   0.911   3.004 -0.0033 -0.0528  0.2629
  114SAPE    C111883   1.876   0.937   3.131  0.1262 -0.0572 -0.2214
  114SAPE    HA11884   1.858   0.853   3.201  1.2956  0.0490  0.2370
  114SAPE    HB11885   1.986   0.952   3.122  0.0508 -0.0694 -1.3189
  114SAPE    C211886   1.822   1.066   3.203 -0.2886  0.4295  0.3617
  114SAPE    HS11887   1.845   1.150   3.133 -1.4399  2.5709  2.3956
  114SAPE   O2111888   1.895   1.084   3.330  0.3232 -0.0495  0.6859
  114SAPE   C2111889   1.901   1.214   3.364  0.2083  0.5169  0.1688
  114SAPE   O2211890   1.842   1.307   3.313 -0.2772 -0.3376 -0.1870
  114SAPE   C2211891   1.995   1.213   3.485 -0.3722 -0.1456  0.2955
  114SAPE   H2R11892   1.951   1.133   3.547 -0.5405 -0.2479  0.0451
  114SAPE   H2S11893   2.094   1.173   3.455  0.8884  1.9250  1.4554
  114SAPE    C311894   1.675   1.060   3.219  0.2311  0.1660 -0.0073
  114SAPE    HX11895   1.629   1.071   3.118  1.2569  1.5484 -0.3623
  114SAPE    HY11896   1.633   1.144   3.280 -0.7855 -0.3828  0.0706
  114SAPE   O3111897   1.650   0.929   3.278 -0.0857  0.1218 -0.0677
  114SAPE   C3111898   1.518   0.899   3.275 -0.0978 -0.1588  0.1635
  114SAPE   O3211899   1.438   0.981   3.238  0.2624  0.4056  0.4320
  114SAPE   C3211900   1.489   0.769   3.344 -1.0515 -0.0805  0.3641
  114SAPE   H2X11901   1.561   0.759   3.427  0.3036 -0.4913 -0.8102
  114SAPE   H2Y11902   1.509   0.694   3.265  0.5431 -0.5092  1.1428
  114SAPE   C2311903   1.996   1.349   3.559  0.7144 -0.0589  0.4679
  114SAPE   H3R11904   2.042   1.332   3.659 -0.4652 -0.4730  0.9594
  114SAPE   H3S11905   1.889   1.379   3.568  1.0958  1.7752 -0.6151
  114SAPE   C2411906   2.074   1.467   3.497 -0.5303  0.3369  0.1472
  114SAPE   H4R11907   2.084   1.548   3.572 -0.0524  0.1252  0.3158
  114SAPE   H4S11908   2.021   1.507   3.408 -0.6078  0.6000  0.3083
  114SAPE   C2511909   2.220   1.442   3.463  0.1385  0.4604 -0.0404
  114SAPE   H5R11910   2.242   1.387   3.370 -0.6217 -0.6133  0.3879
  114SAPE   C2611911   2.328   1.464   3.534 -0.4273  0.2738 -0.5320
  114SAPE   H6R11912   2.429   1.437   3.499 -0.6901  1.0169 -1.9211
  114SAPE   C2711913   2.335   1.528   3.674 -0.2922  0.8279  0.5207
  114SAPE   H7R11914   2.383   1.461   3.748  1.3204  0.6678 -0.6164
  114SAPE   H7S11915   2.232   1.543   3.715 -0.7345 -0.7266  0.0285
  114SAPE   C2811916   2.411   1.657   3.683 -0.4462  0.1111 -0.4287
  114SAPE   H8R11917   2.478   1.676   3.597  1.0829 -2.3883  0.1132
  114SAPE   C2911918   2.425   1.730   3.797  0.1802 -0.6770  0.2406
  114SAPE   H9R11919   2.494   1.816   3.795 -0.7661  0.0994 -0.4496
  114SAPE  C21011920   2.351   1.697   3.927 -0.7972  0.4500 -0.2763
  114SAPE  H10R11921   2.251   1.654   3.903 -0.0641  0.0849 -2.9476
  114SAPE  H10S11922   2.328   1.790   3.983 -0.4197  1.0281 -1.0540
  114SAPE  C21111923   2.437   1.602   4.006  0.2335  0.1299  0.5393
  114SAPE  H11R11924   2.447   1.501   3.964 -0.0706  0.8375 -1.3678
  114SAPE  C21211925   2.485   1.622   4.128 -0.4567 -0.0406 -0.0045
  114SAPE  H12R11926   2.545   1.537   4.165  0.2250  1.0709  1.5065
  114SAPE  C21311927   2.474   1.739   4.217 -0.3805 -0.3063  0.1961
  114SAPE  H13R11928   2.478   1.823   4.143  0.3493 -0.9917 -0.5597
  114SAPE  H13S11929   2.570   1.744   4.273  0.4924  0.4373 -1.3158
  114SAPE  C21411930   2.352   1.750   4.296  0.0583 -0.2910 -0.0507
  114SAPE  H14R11931   2.257   1.748   4.241 -0.6910  0.7679  1.1279
  114SAPE  C21511932   2.354   1.810   4.417 -0.1768  0.5669  0.2122
  114SAPE  H15R11933   2.258   1.807   4.472  0.1394  0.2098  0.7572
  114SAPE  C21611934   2.471   1.856   4.499 -0.2788 -0.5117  0.1841
  114SAPE  H16R11935   2.428   1.946   4.548 -0.7643  2.2334 -4.5931
  114SAPE  H16S11936   2.560   1.892   4.442 -0.5198  0.1500  0.2215
  114SAPE  C21711937   2.522   1.763   4.604  0.0472 -0.1441 -0.0504
  114SAPE  H17R11938   2.433   1.732   4.662  0.3651 -2.3706 -0.6513
  114SAPE  H17S11939   2.591   1.821   4.669  1.8815 -2.0617 -0.1789
  114SAPE  C21811940   2.587   1.631   4.561  0.7085 -0.4044 -0.0022
  114SAPE  H18R11941   2.693   1.649   4.533  0.8915 -0.8882  0.3871
  114SAPE  H18S11942   2.527   1.580   4.482 -1.1054 -2.0399  2.3086
  114SAPE  C21911943   2.571   1.516   4.668  0.0651  0.0204  0.3136
  114SAPE  H19R11944   2.627   1.428   4.630  0.1105 -1.5697  3.7440
  114SAPE  H19S11945   2.465   1.489   4.684 -0.9154  2.3685 -1.5726
  114SAPE  C22011946   2.620   1.565   4.801  0.0154  0.8358  0.2494
  114SAPE  H20R11947   2.727   1.591   4.780 -0.1297 -0.2404 -2.1308
  114SAPE  H20S11948   2.625   1.488   4.881  0.8262 -0.1824 -0.7445
  114SAPE  H20T11949   2.562   1.656   4.829 -0.0682  1.0178 -0.4830
  114SAPE   C3311950   1.338   0.756   3.390 -0.2569  0.1243 -0.2829
  114SAPE   H3X11951   1.275   0.772   3.299 -1.2939 -2.6290 -0.1498
  114SAPE   H3Y11952   1.311   0.837   3.461 -2.6183 -1.2643  0.5091
  114SAPE   C3411953   1.318   0.620   3.447  0.7236 -0.1487 -0.3452
  114SAPE   H4X11954   1.364   0.547   3.377 -0.0702 -1.0572  0.0505
  114SAPE   H4Y11955   1.210   0.595   3.456  0.8581 -0.4158  0.7185
  114SAPE   C3511956   1.384   0.609   3.585  0.1431 -0.2328 -0.0264
  114SAPE   H5X11957   1.489   0.645   3.575 -0.0413 -0.2789 -2.9222
  114SAPE   H5Y11958   1.409   0.501   3.588  2.1835 -0.0012 -3.2263
  114SAPE   C3611959   1.309   0.655   3.705  0.2449 -0.2029  0.1204
  114SAPE   H6X11960   1.222   0.586   3.697  2.3599 -3.2210  1.0477
  114SAPE   H6Y11961   1.282   0.762   3.694 -1.0670 -0.3582  1.5418
  114SAPE   C3711962   1.355   0.620   3.842 -0.5570  0.5740 -0.4774
  114SAPE   H7X11963   1.293   0.666   3.922 -0.3935  2.7642 -1.5362
  114SAPE   H7Y11964   1.452   0.669   3.867 -0.3992  1.8773 -3.2706
  114SAPE   C3811965   1.370   0.468   3.864 -0.3157  0.5919  0.4271
  114SAPE   H8X11966   1.450   0.418   3.804 -1.9314 -2.0732  0.3356
  114SAPE   H8Y11967   1.282   0.405   3.842  1.5043 -0.9547 -3.2864
  114SAPE   C3911968   1.393   0.453   4.011 -0.0432  0.0894 -0.5604
  114SAPE   H9X11969   1.332   0.520   4.075  1.9274 -1.3946  3.1530
  114SAPE   H9Y11970   1.489   0.504   4.029  0.0813  0.1851 -1.4270
  114SAPE  C31011971   1.394   0.305   4.067 -0.1394 -0.4747 -0.0215
  114SAPE  H10X11972   1.451   0.239   3.998 -1.6315 -1.5450 -0.2805
  114SAPE  H10Y11973   1.294   0.257   4.073  0.6393 -2.4294 -1.5427
  114SAPE  C31111974   1.469   0.302   4.200  0.6640  0.0271  0.0813
  114SAPE  H11X11975   1.415   0.379   4.259  0.8528  0.9145 -0.8696
  114SAPE  H11Y11976   1.570   0.345   4.186  0.3524  0.9500  0.5627
  114SAPE  C31211977   1.479   0.159   4.269  0.1861 -0.9003  0.0805
  114SAPE  H12X11978   1.532   0.094   4.197 -0.5139 -0.5592 -0.7616
  114SAPE  H12Y11979   1.378   0.116   4.285 -0.4412  0.4862  0.0435
  114SAPE  C31311980   1.543   0.173   4.408 -0.2310 -0.6595 -0.7167
  114SAPE  H13X11981   1.533   0.278   4.444  1.0357 -1.3810  1.9473
  114SAPE  H13Y11982   1.653   0.169   4.393  0.1888  1.8037  1.0827
  114SAPE  C31411983   1.502   0.065   4.503  0.1172 -0.2874  0.1155
  114SAPE  H14X11984   1.399   0.025   4.490  0.6108 -1.3057 -0.8483
  114SAPE  H14Y11985   1.505   0.097   4.609  0.7652 -2.3162  0.7600
  114SAPE  C31511986   1.599  -0.052   4.486 -0.6346  0.5032  0.3615
  114SAPE  H15X11987   1.700  -0.005   4.493  0.1017 -0.9730  0.2733
  114SAPE  H15Y11988   1.572  -0.094   4.387  0.3117 -2.0507  1.0883
  114SAPE  C31611989   1.580  -0.155   4.599 -0.1789 -0.1511  0.5651
  114SAPE  H16X11990   1.473  -0.181   4.595  0.1094 -1.3155  0.2336
  114SAPE  H16Y11991   1.594  -0.102   4.696 -0.0884 -0.4115  0.6936
  114SAPE  C31711992   1.677  -0.267   4.583  0.1259 -0.4369  0.6627
  114SAPE  H17X11993   1.676  -0.320   4.681 -0.9875 -2.0244 -0.1576
  114SAPE  H17Y11994   1.781  -0.238   4.555 -0.6811  0.4038 -1.6885
  114SAPE  C31811995   1.623  -0.377   4.500  0.2814  0.2410  0.0170
  114SAPE  H18X11996   1.691  -0.464   4.491 -0.4501 -0.0779 -3.8117
  114SAPE  H18Y11997   1.606  -0.337   4.398 -0.7694 -0.2651 -0.0227
  114SAPE  H18Z11998   1.528  -0.416   4.544  0.3641 -0.9480 -0.8321
  115SAPE     N11999   4.244   2.319   2.728 -0.6362  0.0757 -0.1260
  115SAPE   HN112000   4.154   2.333   2.778  0.5717  2.2278  1.6632
  115SAPE   HN212001   4.322   2.325   2.797  0.5457  0.4807 -1.4668
  115SAPE   HN312002   4.267   2.386   2.652  4.9174 -1.4370 -0.2398
  115SAPE   C1212003   4.224   2.183   2.664 -0.5300  0.0564 -0.1151
  115SAPE  H12A12004   4.313   2.154   2.604  0.5869 -2.0038  2.3157
  115SAPE  H12B12005   4.139   2.194   2.594  0.5585 -0.3449 -1.5408
  115SAPE   C1112006   4.198   2.075   2.772  0.3859  0.2793 -0.1714
  115SAPE  H11A12007   4.190   1.973   2.730  3.6066 -0.7959  1.4663
  115SAPE  H11B12008   4.105   2.109   2.821  1.5782  2.0260  1.0087
  115SAPE     P12009   4.421   2.000   2.891 -0.2946  0.1970 -0.1161
  115SAPE   O1312010   4.418   1.911   2.776 -0.1637 -0.2764 -0.3474
  115SAPE   O1412011   4.528   2.101   2.903  0.5096 -0.5741  0.2445
  115SAPE   O1212012   4.288   2.086   2.889  0.8501  0.2436 -0.4814
  115SAPE   O1112013   4.414   1.914   3.025  0.2872  0.2342 -0.0681
  115SAPE    C112014   4.285   1.880   3.083 -0.4827 -0.3528 -0.6223
  115SAPE    HA12015   4.277   1.936   3.179 -1.3261 -2.2095  0.4415
  115SAPE    HB12016   4.200   1.913   3.019  0.0806  2.5898  0.0057
  115SAPE    C212017   4.271   1.732   3.125 -0.5725 -0.3629  0.5190
  115SAPE    HS12018   4.260   1.688   3.024  2.3986 -0.2663  0.0611
  115SAPE   O2112019   4.166   1.714   3.221 -0.0761  0.6072  0.2917
  115SAPE   C2112020   4.055   1.655   3.182 -0.0171 -0.0569 -0.0780
  115SAPE   O2212021   4.044   1.605   3.073  0.0451 -0.3953 -0.0150
  115SAPE   C2212022   3.951   1.655   3.297 -0.0941 -0.4829  0.3433
  115SAPE   H2R12023   3.967   1.560   3.351  0.9176 -0.0554  0.8256
  115SAPE   H2S12024   3.969   1.748   3.356  1.2198  0.2824 -1.1640
  115SAPE    C312025   4.410   1.674   3.175  0.2174 -0.4042  0.1185
  115SAPE    HX12026   4.478   1.678   3.087 -0.9206 -0.5075 -0.7872
  115SAPE    HY12027   4.401   1.565   3.193  0.3347 -0.1990  1.5741
  115SAPE   O3112028   4.444   1.745   3.291 -0.4098  0.2665  0.0322
  115SAPE   C3112029   4.562   1.806   3.285 -0.0282 -0.3181  0.2817
  115SAPE   O3212030   4.640   1.810   3.198 -0.4437  0.2507  0.6522
  115SAPE   C3212031   4.578   1.884   3.417 -0.0774  0.1369 -0.0555
  115SAPE   H2X12032   4.480   1.887   3.468 -0.8045 -2.9535 -1.0654
  115SAPE   H2Y12033   4.609   1.987   3.389  0.6106  0.5694  2.1122
  115SAPE   C2312034   3.804   1.672   3.250  0.0250  0.1884 -0.8223
  115SAPE   H3R12035   3.788   1.578   3.194  2.6624 -2.1012  1.9176
  115SAPE   H3S12036   3.790   1.760   3.183  1.8724  0.9977 -0.2216
  115SAPE   C2412037   3.698   1.680   3.368 -0.0769  0.7688  0.3234
  115SAPE   H4R12038   3.607   1.684   3.304 -0.7480 -2.7682  0.8202
  115SAPE   H4S12039   3.707   1.775   3.424 -0.0249  1.1747 -0.3691
  115SAPE   C2512040   3.676   1.568   3.465 -0.4332 -0.0251 -0.7479
  115SAPE   H5R12041   3.624   1.476   3.433 -1.3099 -0.7599  2.4179
  115SAPE   C2612042   3.713   1.569   3.594 -0.0514 -0.7541  0.2078
  115SAPE   H6R12043   3.701   1.480   3.657  1.7677 -0.3677  1.1622
  115SAPE   C2712044   3.774   1.690   3.660  0.1305  0.4432 -0.7714
  115SAPE   H7R12045   3.764   1.671   3.769  0.0916 -1.4082 -1.0628
  115SAPE   H7S12046   3.715   1.778   3.628  0.0123  0.3273 -0.8754
  115SAPE   C2812047   3.927   1.694   3.632  0.1098 -0.1447  0.5305
  115SAPE   H8R12048   3.968   1.756   3.550 -0.1171 -1.4454 -0.5974
  115SAPE   C2912049   4.017   1.624   3.701 -0.3357 -0.0085  0.6071
  115SAPE   H9R12050   4.121   1.616   3.667 -0.3163  0.4770  0.5416
  115SAPE  C21012051   3.995   1.532   3.818 -0.2051  0.5057  0.4344
  115SAPE  H10R12052   4.040   1.432   3.795 -1.0751 -0.1692  1.5719
  115SAPE  H10S12053   3.890   1.505   3.841  0.2350 -1.4363  0.3967
  115SAPE  C21112054   4.070   1.580   3.937 -0.8077 -0.7312  0.5381
  115SAPE  H11R12055   4.180   1.580   3.933 -0.4824  0.0728  4.9865
  115SAPE  C21212056   4.026   1.616   4.057 -0.9253 -0.1820 -0.3012
  115SAPE  H12R12057   4.090   1.657   4.136 -1.1880 -0.0414 -0.1619
  115SAPE  C21312058   3.881   1.605   4.094  0.4400 -0.0388  0.6093
  115SAPE  H13R12059   3.866   1.551   4.190  0.3365 -1.0082  0.0533
  115SAPE  H13S12060   3.819   1.531   4.040  2.0982 -1.7824  0.9853
  115SAPE  C21412061   3.806   1.738   4.098  0.8570  0.1040 -0.1499
  115SAPE  H14R12062   3.799   1.791   4.002 -0.4108  0.1231 -0.0521
  115SAPE  C21512063   3.766   1.806   4.206 -0.1255 -0.1249 -0.0193
  115SAPE  H15R12064   3.722   1.904   4.180 -0.4622 -0.8023 -2.2549
  115SAPE  C21612065   3.765   1.767   4.350  0.0520 -0.6628  0.6158
  115SAPE  H16R12066   3.761   1.656   4.355  1.9502 -0.6939  2.5454
  115SAPE  H16S12067   3.677   1.804   4.406  0.2927  1.1964 -0.1807
  115SAPE  C21712068   3.879   1.821   4.434  0.2369 -0.7863  0.0403
  115SAPE  H17R12069   3.904   1.930   4.434  1.5247 -1.0719  0.0682
  115SAPE  H17S12070   3.973   1.774   4.399  0.1451 -0.6892 -0.3429
  115SAPE  C21812071   3.852   1.806   4.580  0.4425  0.5470  0.1824
  115SAPE  H18R12072   3.835   1.698   4.599 -0.1776  0.5589 -0.2796
  115SAPE  H18S12073   3.763   1.867   4.605  1.9326  2.4959  1.1034
  115SAPE  C21912074   3.972   1.861   4.661 -0.1774  0.2325 -0.2071
  115SAPE  H19R12075   3.939   1.876   4.766  0.8644 -1.3048  0.3675
  115SAPE  H19S12076   3.994   1.965   4.627 -0.4965  0.2208 -0.4475
  115SAPE  C22012077   4.087   1.760   4.660 -0.5910  0.3546 -0.2674
  115SAPE  H20R12078   4.053   1.660   4.695  1.5096 -0.5142 -0.5465
  115SAPE  H20S12079   4.162   1.802   4.731  0.1743 -3.0115  1.0746
  115SAPE  H20T12080   4.129   1.759   4.557  1.8147  1.4361  0.6125
  115SAPE   C3312081   4.692   1.837   3.511 -0.0669 -0.4764  0.3592
  115SAPE   H3X12082   4.793   1.834   3.464  1.1728 -1.4531  2.8988
  115SAPE   H3Y12083   4.664   1.732   3.538  1.1512 -0.9000  0.0538
  115SAPE   C3412084   4.702   1.918   3.641 -0.2947  0.5010 -0.1723
  115SAPE   H4X12085   4.723   2.025   3.620  0.3780  0.3057 -0.5279
  115SAPE   H4Y12086   4.793   1.880   3.693 -0.3849  2.5178  1.6220
  115SAPE   C3512087   4.575   1.901   3.729 -0.0666 -0.3835  0.3032
  115SAPE   H5X12088   4.535   1.798   3.742 -2.8578  0.6119  0.2539
  115SAPE   H5Y12089   4.500   1.969   3.684  0.2546  0.1027  0.5027
  115SAPE   C3612090   4.609   1.960   3.868 -0.0157 -0.2483  0.1418
  115SAPE   H6X12091   4.519   1.973   3.932 -0.9652 -2.7448 -0.5976
  115SAPE   H6Y12092   4.655   2.061   3.862  2.2041 -1.0367  2.4659
  115SAPE   C3712093   4.708   1.874   3.957 -0.3933 -1.0352 -0.6709
  115SAPE   H7X12094   4.810   1.861   3.915 -0.0178  1.9492 -0.8672
  115SAPE   H7Y12095   4.667   1.771   3.966  0.7043 -1.4957 -0.7436
  115SAPE   C3812096   4.722   1.941   4.098  0.0131  0.5632 -0.3134
  115SAPE   H8X12097   4.632   1.938   4.163  1.0090  4.3885  1.5268
  115SAPE   H8Y12098   4.761   2.045   4.100  0.3953  0.4167 -0.1400
  115SAPE   C3912099   4.831   1.861   4.177 -0.0452  0.0130  0.3840
  115SAPE   H9X12100   4.917   1.836   4.113  0.1760  0.4111  0.5250
  115SAPE   H9Y12101   4.786   1.766   4.215  2.7037 -1.2033  0.7947
  115SAPE  C31012102   4.870   1.950   4.299 -0.2998  0.1935  0.0601
  115SAPE  H10X12103   4.918   2.039   4.253 -2.9372  0.9828 -1.3757
  115SAPE  H10Y12104   4.949   1.903   4.362  0.4331  3.4593  1.8268
  115SAPE  C31112105   4.760   1.992   4.389  0.1501  0.4552  1.0423
  115SAPE  H11X12106   4.735   1.907   4.455 -0.8142 -2.3007 -2.5571
  115SAPE  H11Y12107   4.669   2.024   4.334 -0.1946  0.8634  1.8288
  115SAPE  C31212108   4.804   2.107   4.476 -0.0809  0.4169  0.7619
  115SAPE  H12X12109   4.837   2.194   4.417  0.2232  1.7434  2.7829
  115SAPE  H12Y12110   4.899   2.072   4.522  0.7346  0.0344 -1.1305
  115SAPE  C31312111   4.711   2.164   4.580  0.2299  0.2937  0.3947
  115SAPE  H13X12112   4.718   2.104   4.673 -1.4946  2.6143  2.1388
  115SAPE  H13Y12113   4.609   2.144   4.540  0.6587  0.9168 -1.0836
  115SAPE  C31412114   4.741   2.310   4.622  0.0562  0.0827  0.0597
  115SAPE  H14X12115   4.780   2.358   4.530  0.3085  2.0922  1.1572
  115SAPE  H14Y12116   4.820   2.300   4.699 -0.8064  0.3222  0.9930
  115SAPE  C31512117   4.622   2.390   4.670 -0.0894 -0.4226  0.3543
  115SAPE  H15X12118   4.587   2.320   4.748  1.6365 -1.9942 -0.1930
  115SAPE  H15Y12119   4.547   2.413   4.591  1.6201  1.9042 -0.7290
  115SAPE  C31612120   4.679   2.525   4.722  0.4086 -0.2298 -0.3244
  115SAPE  H16X12121   4.682   2.611   4.651  0.7767  0.8592  0.9632
  115SAPE  H16Y12122   4.785   2.508   4.753 -0.0065 -0.4250  1.0373
  115SAPE  C31712123   4.597   2.567   4.846 -0.2879 -0.7422 -0.2251
  115SAPE  H17X12124   4.560   2.483   4.908 -1.1595 -2.5435 -2.9975
  115SAPE  H17Y12125   4.506   2.622   4.814 -1.2386 -0.2963  2.9353
  115SAPE  C31812126   4.685   2.663   4.931 -0.1268  0.0867  0.1593
  115SAPE  H18X12127   4.767   2.600   4.972 -0.6608 -1.5407 -1.1944
  115SAPE  H18Y12128   4.625   2.706   5.013  1.0525  1.2789  0.4406
  115SAPE  H18Z12129   4.721   2.735   4.854 -1.7730 -1.2080 -1.9112
  116SAPE     N12130   4.624   2.902   2.619  0.0038  0.7852 -0.1015
  116SAPE   HN112131   4.603   2.903   2.517 -2.9454 -2.8037  0.2424
  116SAPE   HN212132   4.607   2.995   2.662  1.5910  0.0494  2.2934
  116SAPE   HN312133   4.725   2.879   2.627  0.4674  1.5783 -2.7311
  116SAPE   C1212134   4.527   2.802   2.674 -0.6820  0.2418 -0.3657
  116SAPE  H12A12135   4.504   2.721   2.602 -0.7558 -0.8031  0.8026
  116SAPE  H12B12136   4.431   2.856   2.691 -0.1856  0.7675  0.9248
  116SAPE   C1112137   4.594   2.730   2.797  0.3612 -0.3878 -0.1847
  116SAPE  H11A12138   4.518   2.657   2.831  1.4474 -1.5050 -0.0608
  116SAPE  H11B12139   4.610   2.809   2.874  1.4948  0.6631 -1.4393
  116SAPE     P12140   4.747   2.517   2.766  0.0400  0.0556  0.2163
  116SAPE   O1312141   4.663   2.456   2.658 -0.2521  0.1274 -0.6524
  116SAPE   O1412142   4.893   2.489   2.748  0.4572 -0.1647  0.1452
  116SAPE   O1212143   4.723   2.673   2.759  0.2575  0.2468  0.2477
  116SAPE   O1112144   4.702   2.461   2.904 -0.0410  0.7681 -0.1935
  116SAPE    C112145   4.748   2.494   3.030  0.1464 -0.0631  0.6684
  116SAPE    HA12146   4.850   2.537   3.017  0.6095 -1.6814 -1.8446
  116SAPE    HB12147   4.694   2.582   3.070  0.0138  0.0354  0.2768
  116SAPE    C212148   4.761   2.371   3.124 -0.6777 -0.4927 -0.3875
  116SAPE    HS12149   4.814   2.296   3.062 -0.6095 -0.3408 -0.5143
  116SAPE   O2112150   4.623   2.331   3.158 -0.1535  0.0631 -0.9520
  116SAPE   C2112151   4.614   2.215   3.206 -0.0093  1.0913 -0.4617
  116SAPE   O2212152   4.699   2.127   3.208  0.0368  0.1622 -0.0774
  116SAPE   C2212153   4.465   2.201   3.244  0.1256 -0.1339  0.7054
  116SAPE   H2R12154   4.416   2.225   3.148  1.7618  0.5281 -0.0063
  116SAPE   H2S12155   4.437   2.095   3.265 -0.5645 -0.4533 -1.6101
  116SAPE    C312156   4.851   2.408   3.244  1.2162 -0.3321 -0.3271
  116SAPE    HX12157   4.803   2.500   3.284  2.4656  0.9722 -1.6877
  116SAPE    HY12158   4.944   2.453   3.202  1.0757  0.3598  0.0836
  116SAPE   O3112159   4.861   2.308   3.345  0.8162 -0.0306  0.2709
  116SAPE   C3112160   4.974   2.236   3.359  0.3280 -0.3493 -1.0414
  116SAPE   O3212161   5.069   2.258   3.295 -0.9623 -0.1377 -0.4344
  116SAPE   C3212162   4.935   2.123   3.459  0.1243  0.2122 -0.1834
  116SAPE   H2X12163   4.951   2.031   3.399  0.5743  0.5654 -0.6129
  116SAPE   H2Y12164   4.825   2.131   3.472 -0.1951  0.8140 -2.7042
  116SAPE   C2312165   4.428   2.305   3.360  0.0639  0.8367  0.6173
  116SAPE   H3R12166   4.320   2.324   3.342 -0.3329 -2.4304 -1.1207
  116SAPE   H3S12167   4.484   2.401   3.359  0.8330  0.4131  1.4038
  116SAPE   C2412168   4.445   2.242   3.501  0.4137 -0.0125 -0.6560
  116SAPE   H4R12169   4.555   2.239   3.512  0.3590  1.8327  1.1539
  116SAPE   H4S12170   4.411   2.136   3.502  1.7064 -0.4504  1.1646
  116SAPE   C2512171   4.383   2.327   3.611 -0.1417 -0.3510 -0.2418
  116SAPE   H5R12172   4.278   2.348   3.585  0.7111 -0.5897 -4.4920
  116SAPE   C2612173   4.448   2.375   3.721  1.0578  0.6050  0.8302
  116SAPE   H6R12174   4.385   2.432   3.791  0.5737  2.0230 -0.6721
  116SAPE   C2712175   4.592   2.354   3.764  0.6176  0.3967  0.1819
  116SAPE   H7R12176   4.650   2.341   3.670 -0.5817 -1.6688 -0.3560
  116SAPE   H7S12177   4.600   2.262   3.826 -0.5727  1.2108  1.6024
  116SAPE   C2812178   4.627   2.485   3.827 -0.8266 -0.2875  0.1785
  116SAPE   H8R12179   4.649   2.556   3.746 -0.4081 -1.6620 -0.9487
  116SAPE   C2912180   4.659   2.524   3.957  0.4730  0.3815  0.4322
  116SAPE   H9R12181   4.682   2.628   3.984  2.0848  0.3378 -0.6509
  116SAPE  C21012182   4.637   2.426   4.070 -0.3668  0.3731 -0.2330
  116SAPE  H10R12183   4.735   2.385   4.101 -0.5086  1.1705  1.3712
  116SAPE  H10S12184   4.578   2.336   4.042 -0.1105 -0.2582  1.1927
  116SAPE  C21112185   4.556   2.492   4.180  0.4808  0.3880  0.5072
  116SAPE  H11R12186   4.450   2.494   4.153  0.9994  0.9065 -1.7246
  116SAPE  C21212187   4.598   2.555   4.290  0.4282  0.0033 -0.3659
  116SAPE  H12R12188   4.519   2.603   4.350  1.6602  2.2239 -0.4053
  116SAPE  C21312189   4.739   2.592   4.329 -0.3036 -0.8666  0.2369
  116SAPE  H13R12190   4.814   2.521   4.289  0.8044 -0.2807  1.2331
  116SAPE  H13S12191   4.757   2.594   4.438 -0.3877 -2.2049  0.2945
  116SAPE  C21412192   4.755   2.732   4.272 -0.0553 -0.1714  1.1028
  116SAPE  H14R12193   4.746   2.731   4.163 -1.6005  0.6807  1.1920
  116SAPE  C21512194   4.771   2.847   4.339 -0.1674 -0.1178  0.2003
  116SAPE  H15R12195   4.809   2.935   4.284 -1.8004  0.1551 -0.5483
  116SAPE  C21612196   4.786   2.873   4.486 -0.1597 -0.7402 -0.0017
  116SAPE  H16R12197   4.878   2.930   4.515  0.0744 -1.4323  0.6556
  116SAPE  H16S12198   4.800   2.779   4.544  2.1287 -0.5717 -0.1621
  116SAPE  C21712199   4.674   2.947   4.546 -0.0609  0.4660  0.0439
  116SAPE  H17R12200   4.665   3.050   4.505  0.0755  0.5327  0.1772
  116SAPE  H17S12201   4.677   2.955   4.657  1.7653 -1.4430  0.1965
  116SAPE  C21812202   4.541   2.870   4.512  0.9345 -0.8218  0.5553
  116SAPE  H18R12203   4.533   2.774   4.566  0.1058 -0.1594  1.6675
  116SAPE  H18S12204   4.534   2.854   4.403 -0.1902 -1.5170  0.7135
  116SAPE  C21912205   4.427   2.961   4.563  0.0381  0.4178  0.1047
  116SAPE  H19R12206   4.334   2.944   4.503 -0.1231  0.4442  0.3453
  116SAPE  H19S12207   4.443   3.071   4.554  0.4204  0.4876  1.4960
  116SAPE  C22012208   4.394   2.942   4.713 -0.0941  0.6388  0.3203
  116SAPE  H20R12209   4.355   2.840   4.733 -2.6018  1.3482 -0.5269
  116SAPE  H20S12210   4.314   3.012   4.745 -0.3951  1.2072 -1.5217
  116SAPE  H20T12211   4.481   2.960   4.780  1.1776 -1.9513 -0.4984
  116SAPE   C3312212   5.005   2.111   3.594 -0.2411 -0.0926  0.5048
  116SAPE   H3X12213   5.114   2.123   3.583 -0.5671  1.4924 -1.8526
  116SAPE   H3Y12214   4.990   2.006   3.628 -3.3163  0.1034  0.0402
  116SAPE   C3412215   4.948   2.210   3.690 -0.0172 -0.0966 -0.4888
  116SAPE   H4X12216   4.838   2.226   3.685  0.3002  2.0970 -2.9203
  116SAPE   H4Y12217   5.006   2.305   3.679 -0.4413  0.1878 -0.2878
  116SAPE   C3512218   4.985   2.166   3.834  0.2446 -0.4854 -0.4106
  116SAPE   H5X12219   5.081   2.114   3.818  2.8830  3.7568  0.1395
  116SAPE   H5Y12220   4.905   2.095   3.865 -1.1805  1.0922 -0.3492
  116SAPE   C3612221   4.983   2.289   3.932 -0.0039 -0.0406  0.8428
  116SAPE   H6X12222   4.892   2.349   3.909  1.6250  2.3388  0.2537
  116SAPE   H6Y12223   5.068   2.352   3.896 -2.3359  1.4171 -2.7187
  116SAPE   C3712224   4.999   2.256   4.079  0.7699 -0.4053 -0.0359
  116SAPE   H7X12225   5.083   2.183   4.085  1.3692  0.0773 -1.9090
  116SAPE   H7Y12226   4.904   2.221   4.126 -0.9819  1.2634 -2.1172
  116SAPE   C3812227   5.050   2.388   4.141  0.1386  0.4954  0.7119
  116SAPE   H8X12228   4.976   2.469   4.127  1.6876  2.0767  1.1696
  116SAPE   H8Y12229   5.141   2.414   4.082 -0.6588 -0.3441 -0.9710
  116SAPE   C3912230   5.078   2.376   4.297  0.0731 -0.0888  0.3997
  116SAPE   H9X12231   5.161   2.303   4.310 -0.0163 -0.8190 -2.4436
  116SAPE   H9Y12232   4.991   2.327   4.345  1.1331 -1.6736  0.7914
  116SAPE  C31012233   5.119   2.507   4.370  0.3222 -0.3428  0.3681
  116SAPE  H10X12234   5.051   2.586   4.333  0.7085 -0.0149  0.3465
  116SAPE  H10Y12235   5.217   2.550   4.340  0.4593  0.3457  1.7278
  116SAPE  C31112236   5.108   2.494   4.525 -0.4322 -0.1614  0.5498
  116SAPE  H11X12237   5.178   2.410   4.543 -1.8061 -1.5952 -0.4693
  116SAPE  H11Y12238   5.012   2.451   4.562 -0.1730 -0.0270  1.4060
  116SAPE  C31212239   5.131   2.623   4.615 -0.3985  0.0317 -0.3555
  116SAPE  H12X12240   5.069   2.705   4.573  0.1320  0.0686 -1.0795
  116SAPE  H12Y12241   5.239   2.647   4.606 -0.1406 -0.7434  0.4642
  116SAPE  C31312242   5.090   2.606   4.763 -0.4163 -0.8310  0.2574
  116SAPE  H13X12243   5.142   2.514   4.798 -2.6738 -2.0266  0.6821
  116SAPE  H13Y12244   4.987   2.563   4.755  0.3045 -2.3271 -2.2039
  116SAPE  C31412245   5.124   2.726   4.853 -0.1787  0.8596  0.5262
  116SAPE  H14X12246   5.226   2.720   4.895  0.2050 -0.4850 -0.5581
  116SAPE  H14Y12247   5.056   2.716   4.941  0.7483  0.8833  1.2673
  116SAPE  C31512248   5.122   2.869   4.784 -0.3852  0.4738 -0.2538
  116SAPE  H15X12249   5.029   2.882   4.725  0.6959 -0.8579 -2.3935
  116SAPE  H15Y12250   5.207   2.863   4.713  0.2951 -1.6764  0.6795
  116SAPE  C31612251   5.150   2.985   4.886  0.0297  0.1390 -0.3030
  116SAPE  H16X12252   5.251   2.963   4.926 -0.5666 -1.9013  0.2175
  116SAPE  H16Y12253   5.071   2.990   4.963 -0.4857  2.2189 -0.9112
  116SAPE  C31712254   5.146   3.126   4.813 -0.3069  0.4555  0.2392
  116SAPE  H17X12255   5.047   3.155   4.771  0.4025  0.7260 -1.3048
  116SAPE  H17Y12256   5.201   3.122   4.717 -0.6148 -1.0144  0.0900
  116SAPE  C31812257   5.206   3.239   4.900  0.0387 -0.6502 -0.4510
  116SAPE  H18X12258   5.146   3.273   4.986 -0.1487  1.2696 -1.2905
  116SAPE  H18Y12259   5.223   3.325   4.831 -4.7755  0.1859 -0.9056
  116SAPE  H18Z12260   5.305   3.212   4.942  0.0371  0.7534  0.5202
  117SOPE     N12261   2.134   6.663   6.868 -0.1749  0.0005  0.6518
  117SOPE   HN112262   2.126   6.746   6.930  5.3669 -0.3270  2.4001
  117SOPE   HN212263   2.042   6.614   6.869 -0.5615  0.2343 -3.8672
  117SOPE   HN312264   2.204   6.602   6.916  0.4417 -0.4731 -0.8020
  117SOPE   C1212265   2.168   6.693   6.725  0.1291  0.4330 -0.8297
  117SOPE  H12A12266   2.189   6.596   6.675 -2.2751 -0.1782 -0.7499
  117SOPE  H12B12267   2.253   6.764   6.717 -0.2778  1.0220 -0.0379
  117SOPE   C1112268   2.048   6.745   6.648 -0.1430  0.8568  0.2074
  117SOPE  H11A12269   2.074   6.758   6.541  1.7266  0.6465  0.5943
  117SOPE  H11B12270   2.021   6.850   6.676 -0.8328  0.6357  0.3958
  117SOPE     P12271   1.900   6.543   6.566  0.0046 -0.0347 -0.5942
  117SOPE   O1312272   1.910   6.578   6.420 -0.2524 -0.0890 -0.1933
  117SOPE   O1412273   1.778   6.484   6.620  0.0562 -0.1863 -0.0171
  117SOPE   O1212274   1.926   6.671   6.659  0.1916 -0.0781  0.5638
  117SOPE   O1112275   2.025   6.455   6.610  0.4411  0.2871  0.2800
  117SOPE    C112276   2.022   6.315   6.574  0.2841  0.1705 -0.0083
  117SOPE    HA12277   1.982   6.287   6.474 -1.0629  1.4282  0.1583
  117SOPE    HB12278   1.960   6.281   6.659 -1.6721 -0.1710 -1.5080
  117SOPE    C212279   2.163   6.262   6.595  0.1486 -0.0052 -0.0419
  117SOPE    HS12280   2.202   6.323   6.679 -1.7340 -1.1428  1.7573
  117SOPE   O2112281   2.232   6.303   6.474 -0.4857 -0.0570  0.1470
  117SOPE   C2112282   2.368   6.301   6.492  0.3051 -0.3848  0.4997
  117SOPE   O2212283   2.428   6.287   6.596 -0.2508 -0.8534 -0.2613
  117SOPE   C2212284   2.438   6.322   6.351  1.5254 -0.0066 -0.2791
  117SOPE   H2R12285   2.507   6.408   6.366  2.0328 -0.4585  0.0353
  117SOPE   H2S12286   2.352   6.350   6.287  0.9476 -1.1913 -0.0503
  117SOPE    C312287   2.170   6.113   6.641 -0.9848  0.2140 -0.5910
  117SOPE    HX12288   2.110   6.105   6.734  0.5585  2.3412  0.6801
  117SOPE    HY12289   2.272   6.089   6.678 -0.7810  2.0669  0.1124
  117SOPE   O3112290   2.114   6.027   6.549  0.2360 -0.2154  0.0084
  117SOPE   C3112291   2.193   5.984   6.454  0.0274  0.4727  0.2316
  117SOPE   O3212292   2.309   6.019   6.435  0.7473 -0.3810  0.1790
  117SOPE   C3212293   2.131   5.876   6.360 -0.7806 -0.0797  0.0507
  117SOPE   H2X12294   2.030   5.921   6.350 -1.7232 -1.4730  2.3603
  117SOPE   H2Y12295   2.113   5.778   6.409  0.3880  0.1192  0.9367
  117SOPE   C2312296   2.517   6.204   6.290 -0.7360 -0.2854  0.1396
  117SOPE   H3R12297   2.448   6.119   6.273 -1.6083  0.8669 -2.4623
  117SOPE   H3S12298   2.593   6.170   6.364  0.9888 -2.5004 -2.4422
  117SOPE   C2412299   2.601   6.243   6.168  0.3589  0.3105 -0.7552
  117SOPE   H4R12300   2.636   6.347   6.184 -1.6414  1.0027 -0.6518
  117SOPE   H4S12301   2.691   6.178   6.168  0.5456  0.5641 -0.8792
  117SOPE   C2512302   2.533   6.215   6.037 -0.2186 -0.7055  0.5512
  117SOPE   H5R12303   2.514   6.106   6.026  0.4311 -0.6797 -1.2666
  117SOPE   H5S12304   2.433   6.264   6.035 -0.5222 -1.3171 -1.5066
  117SOPE   C2612305   2.623   6.263   5.927  0.1306 -0.1879  0.2456
  117SOPE   H6R12306   2.638   6.371   5.948 -0.4199 -0.3880  1.7705
  117SOPE   H6S12307   2.726   6.221   5.923  0.0306 -0.6489  1.8821
  117SOPE   C2712308   2.552   6.251   5.790  0.0609  0.3828 -0.1806
  117SOPE   H7R12309   2.527   6.143   5.781  0.7321  0.0242  1.7884
  117SOPE   H7S12310   2.452   6.296   5.777 -0.5970 -1.3851 -1.7812
  117SOPE   C2812311   2.643   6.259   5.671  0.2867 -0.0267  0.2178
  117SOPE   H8R12312   2.664   6.368   5.657 -0.0207  0.0794  0.5630
  117SOPE   H8S12313   2.733   6.201   5.699 -0.3066 -1.1258 -0.0816
  117SOPE   C2912314   2.587   6.201   5.546 -1.4816  0.6373  0.2511
  117SOPE   H9112315   2.557   6.097   5.568  0.0683  0.0911 -0.0771
  117SOPE  C21012316   2.560   6.254   5.426 -0.3560  0.5617 -1.0270
  117SOPE  H10112317   2.510   6.206   5.340 -0.5459  1.5246 -1.4676
  117SOPE  C21112318   2.619   6.387   5.393 -0.0596  0.1604 -0.2996
  117SOPE  H11R12319   2.725   6.400   5.422 -0.3954  2.0154  0.1880
  117SOPE  H11S12320   2.556   6.468   5.434  1.9183  0.8162  1.6260
  117SOPE  C21212321   2.629   6.395   5.241 -0.3038 -0.4979 -0.1004
  117SOPE  H12R12322   2.538   6.414   5.181  0.6074  2.1816 -0.7725
  117SOPE  H12S12323   2.668   6.296   5.209 -1.4361 -1.7665  2.1789
  117SOPE  C21312324   2.733   6.495   5.193 -0.1666  1.2199 -0.2963
  117SOPE  H13R12325   2.837   6.481   5.228  0.6751  2.1189 -2.3024
  117SOPE  H13S12326   2.718   6.594   5.240  0.9254  1.7837 -1.1024
  117SOPE  C21412327   2.734   6.521   5.041  0.1914  0.6875  0.6451
  117SOPE  H14R12328   2.774   6.619   5.008 -0.4533  0.9852  0.7158
  117SOPE  H14S12329   2.630   6.523   5.001  0.1716  0.7471  0.6983
  117SOPE  C21512330   2.814   6.415   4.961  0.6240 -0.0598 -0.3344
  117SOPE  H15R12331   2.772   6.318   4.996  0.4207  0.4077  0.7435
  117SOPE  H15S12332   2.924   6.419   4.980  0.5385 -1.4248  0.6143
  117SOPE  C21612333   2.789   6.427   4.812  0.8656  0.2523  1.0139
  117SOPE  H16R12334   2.831   6.525   4.784 -1.5316  0.6044 -1.8554
  117SOPE  H16S12335   2.679   6.425   4.796  1.1861 -1.6077 -1.6784
  117SOPE  C21712336   2.834   6.297   4.733 -0.1828 -0.0946  0.1286
  117SOPE  H17R12337   2.799   6.208   4.792 -2.1025 -0.4802 -1.4777
  117SOPE  H17S12338   2.944   6.292   4.739 -0.1409  1.2640  0.7970
  117SOPE  C21812339   2.789   6.274   4.594 -0.1884 -0.4707  0.8208
  117SOPE  H18R12340   2.686   6.233   4.594 -0.9899  1.3389 -1.2959
  117SOPE  H18S12341   2.852   6.196   4.547  1.0110  0.6360  0.5311
  117SOPE  H18T12342   2.797   6.359   4.522  1.8873 -1.7146 -0.5208
  117SOPE   C3312343   2.203   5.869   6.221  0.6348  0.3155 -0.4628
  117SOPE   H3X12344   2.293   5.803   6.226 -0.8283 -1.8201 -0.8503
  117SOPE   H3Y12345   2.230   5.971   6.188  1.2621  0.1752 -0.3917
  117SOPE   C3412346   2.112   5.804   6.113  0.1596  0.9007  0.0888
  117SOPE   H4X12347   2.025   5.861   6.075 -0.5981 -0.6716 -0.6334
  117SOPE   H4Y12348   2.076   5.720   6.176  0.9734  0.4531 -0.0211
  117SOPE   C3512349   2.199   5.733   6.006 -0.0649  0.4284  0.2516
  117SOPE   H5X12350   2.147   5.650   5.953 -1.9806  2.2150 -0.7918
  117SOPE   H5Y12351   2.279   5.677   6.059 -1.0712  0.6192  2.0753
  117SOPE   C3612352   2.266   5.821   5.895  0.5390  1.2811 -0.8823
  117SOPE   H6X12353   2.339   5.888   5.944 -1.6041  2.1529  1.3518
  117SOPE   H6Y12354   2.182   5.886   5.863  0.5229  0.6162 -2.3028
  117SOPE   C3712355   2.320   5.738   5.778 -0.7398 -0.1148 -0.1485
  117SOPE   H7X12356   2.237   5.668   5.753 -0.1036 -2.0021  2.6033
  117SOPE   H7Y12357   2.412   5.677   5.796 -0.7374 -0.5665 -1.5451
  117SOPE   C3812358   2.343   5.830   5.657  0.0339  0.2155 -0.7357
  117SOPE   H8X12359   2.433   5.895   5.664 -1.1519  1.7240  2.9371
  117SOPE   H8Y12360   2.256   5.899   5.654 -1.2528 -1.2319  1.2380
  117SOPE   C3912361   2.345   5.759   5.520  0.1862 -0.6992 -0.1400
  117SOPE   H9X12362   2.250   5.701   5.512  1.1683 -2.1097 -2.8531
  117SOPE   H9Y12363   2.435   5.694   5.517 -0.9449 -2.3041 -1.3713
  117SOPE  C31012364   2.335   5.867   5.410  0.2995  0.4259 -0.7718
  117SOPE  H10X12365   2.424   5.934   5.414 -1.0111  2.1616  1.5872
  117SOPE  H10Y12366   2.243   5.926   5.426 -0.9071 -1.3555 -0.7883
  117SOPE  C31112367   2.334   5.796   5.275 -0.8054  0.0059  0.2691
  117SOPE  H11X12368   2.232   5.756   5.257 -1.7139  2.2817  0.0673
  117SOPE  H11Y12369   2.404   5.710   5.271 -0.7469  0.0036  1.0900
  117SOPE  C31212370   2.364   5.888   5.148 -0.9485 -0.2561  0.5067
  117SOPE  H12X12371   2.341   5.833   5.054 -3.1957  1.3826  0.0146
  117SOPE  H12Y12372   2.472   5.914   5.151 -1.0790  0.6174 -1.1474
  117SOPE  C31312373   2.283   6.016   5.148 -0.0157  0.6082 -0.0512
  117SOPE  H13X12374   2.314   6.103   5.210  0.3450  2.7882 -3.0201
  117SOPE  H13Y12375   2.179   5.998   5.181 -0.1569 -1.1083 -1.2763
  117SOPE  C31412376   2.282   6.089   5.011 -0.4110 -0.2659  0.7895
  117SOPE  H14X12377   2.219   6.179   5.022 -2.5736 -1.3519 -1.6765
  117SOPE  H14Y12378   2.230   6.014   4.948  0.5382  1.0137 -1.6703
  117SOPE  C31512379   2.419   6.128   4.952  0.2738 -0.3392 -0.9041
  117SOPE  H15X12380   2.481   6.037   4.937  0.9828  0.0772 -0.5752
  117SOPE  H15Y12381   2.472   6.199   5.020 -0.2613  1.0696 -1.9019
  117SOPE  C31612382   2.432   6.194   4.812  0.2252  0.5039 -0.2982
  117SOPE  H16X12383   2.370   6.149   4.732 -0.3760  2.4965 -1.0292
  117SOPE  H16Y12384   2.540   6.180   4.789  0.2028 -0.6375  0.2461
  117SOPE  C31712385   2.375   6.340   4.817 -0.4224  1.0417 -0.3326
  117SOPE  H17X12386   2.433   6.387   4.899  1.6256 -3.4784  1.1289
  117SOPE  H17Y12387   2.273   6.326   4.859 -1.0509  1.7628 -1.5723
  117SOPE  C31812388   2.393   6.419   4.693  0.1632 -0.6325  0.2187
  117SOPE  H18X12389   2.317   6.394   4.615  1.9009 -0.4288 -1.6136
  117SOPE  H18Y12390   2.490   6.394   4.645  0.0241  1.3624 -1.2648
  117SOPE  H18Z12391   2.388   6.528   4.714  0.6821 -0.6241  0.2997
  118SOPE     N12392   4.340   6.454   7.273 -0.1715 -0.1299 -0.4101
  118SOPE   HN112393   4.438   6.454   7.309 -0.2812  0.1030 -0.1019
  118SOPE   HN212394   4.315   6.555   7.270  0.6421  0.0784 -0.5317
  118SOPE   HN312395   4.280   6.420   7.351 -0.9088  0.9923 -0.4708
  118SOPE   C1212396   4.304   6.383   7.151 -0.5838  0.0568  0.0889
  118SOPE  H12A12397   4.195   6.398   7.135  0.0075  2.4477 -2.3628
  118SOPE  H12B12398   4.326   6.274   7.158  0.6753  0.3999  2.6422
  118SOPE   C1112399   4.389   6.443   7.033  0.1788 -0.2432  0.4453
  118SOPE  H11A12400   4.363   6.391   6.938 -0.1598  0.9419 -0.1310
  118SOPE  H11B12401   4.499   6.435   7.040  0.7106  0.4465 -3.9205
  118SOPE     P12402   4.405   6.666   6.898  0.5875 -0.3319 -0.0908
  118SOPE   O1312403   4.543   6.693   6.933 -1.1314  0.1008  0.0158
  118SOPE   O1412404   4.313   6.787   6.887 -0.7554  0.2105  0.2938
  118SOPE   O1212405   4.344   6.576   7.010 -0.3814  0.4261  0.1241
  118SOPE   O1112406   4.382   6.588   6.766  0.0777  0.1555  0.6403
  118SOPE    C112407   4.260   6.511   6.734 -0.4645 -0.3901 -0.3182
  118SOPE    HA12408   4.191   6.503   6.820  1.3707  1.1786  1.4131
  118SOPE    HB12409   4.281   6.416   6.680  2.3461  1.3269 -2.5898
  118SOPE    C212410   4.178   6.590   6.632 -0.1405  0.0400 -0.6750
  118SOPE    HS12411   4.155   6.690   6.675  0.8147  0.4969 -1.2090
  118SOPE   O2112412   4.062   6.517   6.586  1.0409 -0.0698  0.0085
  118SOPE   C2112413   3.945   6.568   6.611 -0.3160  0.1176  0.6125
  118SOPE   O2212414   3.923   6.681   6.656  0.2882  0.0402 -0.4926
  118SOPE   C2212415   3.835   6.458   6.601  0.1186  0.3689 -0.1256
  118SOPE   H2R12416   3.820   6.413   6.702  0.4182  2.1536  0.7484
  118SOPE   H2S12417   3.866   6.375   6.534 -0.7549  0.0835 -0.1938
  118SOPE    C312418   4.273   6.618   6.517 -0.2638 -0.1753 -0.2978
  118SOPE    HX12419   4.305   6.521   6.474 -0.7913  0.0942 -1.3126
  118SOPE    HY12420   4.360   6.675   6.557  0.0524 -0.5783 -0.4042
  118SOPE   O3112421   4.212   6.698   6.418 -0.5041 -0.4257  0.5568
  118SOPE   C3112422   4.223   6.836   6.426 -0.5619  0.6099  0.3093
  118SOPE   O3212423   4.253   6.898   6.523  0.8223  0.2893  0.0543
  118SOPE   C3212424   4.182   6.893   6.295  0.0376 -0.1499 -0.0660
  118SOPE   H2X12425   4.095   6.959   6.319  0.1050  1.1951 -3.1412
  118SOPE   H2Y12426   4.149   6.818   6.220 -4.1446  1.7258 -0.4204
  118SOPE   C2312427   3.709   6.522   6.553  1.2625 -0.5874 -0.1264
  118SOPE   H3R12428   3.693   6.627   6.585 -1.3609 -0.5114 -1.3683
  118SOPE   H3S12429   3.613   6.472   6.578 -0.0688  2.1027  0.4230
  118SOPE   C2412430   3.691   6.527   6.396 -0.2904 -0.4653  0.3738
  118SOPE   H4R12431   3.708   6.427   6.351 -3.1077 -0.3196 -1.2063
  118SOPE   H4S12432   3.592   6.567   6.366 -0.2521  0.4857  1.4543
  118SOPE   C2512433   3.797   6.613   6.328  0.3152 -0.0051  0.2915
  118SOPE   H5R12434   3.801   6.714   6.375 -2.7397  0.5663 -0.3960
  118SOPE   H5S12435   3.890   6.554   6.339 -1.5728 -3.4731 -0.7928
  118SOPE   C2612436   3.765   6.641   6.183 -0.1860 -0.2157  0.5614
  118SOPE   H6R12437   3.776   6.546   6.128 -0.4475  0.7476 -1.2438
  118SOPE   H6S12438   3.663   6.685   6.182 -0.7715 -1.5241  0.7671
  118SOPE   C2712439   3.874   6.733   6.124 -0.3657  0.0733 -0.9655
  118SOPE   H7R12440   3.884   6.825   6.186 -2.0019  0.6216 -1.4556
  118SOPE   H7S12441   3.973   6.686   6.142 -0.3403  0.7571  0.8563
  118SOPE   C2812442   3.845   6.764   5.980 -0.0815  0.7516 -0.6234
  118SOPE   H8R12443   3.740   6.802   5.977  0.2525  1.6626 -1.6450
  118SOPE   H8S12444   3.919   6.842   5.950  2.6566 -0.1106  3.1922
  118SOPE   C2912445   3.854   6.655   5.878  0.6271  0.2846  0.7246
  118SOPE   H9112446   3.892   6.562   5.924 -2.9637 -2.0104 -0.5726
  118SOPE  C21012447   3.812   6.659   5.751  1.0259 -0.0169  0.1256
  118SOPE  H10112448   3.825   6.569   5.689 -1.7366  0.5913 -1.4826
  118SOPE  C21112449   3.770   6.784   5.678 -0.5335 -0.1395 -0.0555
  118SOPE  H11R12450   3.812   6.859   5.748 -0.5270 -1.8468  1.8359
  118SOPE  H11S12451   3.662   6.804   5.656 -0.7292 -1.4583 -0.3319
  118SOPE  C21212452   3.849   6.790   5.547  0.0428  0.0694 -0.0827
  118SOPE  H12R12453   3.810   6.703   5.490  1.5363 -0.2455 -0.6791
  118SOPE  H12S12454   3.954   6.763   5.573  0.1925  1.1279  0.4702
  118SOPE  C21312455   3.850   6.920   5.468  0.2212  0.5207  0.4555
  118SOPE  H13R12456   3.887   6.997   5.540  0.5990  0.6254  0.1537
  118SOPE  H13S12457   3.750   6.950   5.430  0.2699 -0.5462 -0.5708
  118SOPE  C21412458   3.951   6.919   5.352  0.1877  0.4794 -0.7650
  118SOPE  H14R12459   3.944   6.824   5.296 -1.3966  0.5951 -0.8027
  118SOPE  H14S12460   4.053   6.921   5.396  0.2117 -0.3511 -0.7787
  118SOPE  C21512461   3.921   7.047   5.268 -0.2161  0.7155  0.3332
  118SOPE  H15R12462   3.944   7.135   5.331 -0.7063  1.2616 -0.2380
  118SOPE  H15S12463   3.814   7.043   5.238  0.3802 -1.7341 -1.9157
  118SOPE  C21612464   3.997   7.056   5.134 -0.3090  0.0561 -0.4990
  118SOPE  H16R12465   3.945   6.980   5.072 -1.3827  0.7613 -0.4874
  118SOPE  H16S12466   4.101   7.022   5.156  0.2605  1.4269 -0.9454
  118SOPE  C21712467   3.989   7.198   5.070  0.1049 -0.4970  0.0134
  118SOPE  H17R12468   4.026   7.274   5.141 -0.2485  0.3029 -0.6397
  118SOPE  H17S12469   3.880   7.216   5.060 -0.0716 -1.0628  0.8681
  118SOPE  C21812470   4.044   7.222   4.927 -0.3176  0.0233 -0.6113
  118SOPE  H18R12471   4.000   7.320   4.897 -0.7420 -0.8399 -2.9350
  118SOPE  H18S12472   4.004   7.154   4.850 -1.2528  0.5514 -0.6013
  118SOPE  H18T12473   4.153   7.236   4.913  0.0739 -0.4472  1.5433
  118SOPE   C3312474   4.294   6.971   6.233 -0.0298 -0.3896 -0.9555
  118SOPE   H3X12475   4.345   7.046   6.298 -0.8036  0.5655 -1.4176
  118SOPE   H3Y12476   4.254   7.021   6.142  1.4864 -0.3385 -1.6328
  118SOPE   C3412477   4.395   6.870   6.180 -0.3639 -0.0759  0.2494
  118SOPE   H4X12478   4.348   6.774   6.151 -0.5989 -0.3534  1.4708
  118SOPE   H4Y12479   4.463   6.855   6.267 -0.3212 -0.5899  0.1329
  118SOPE   C3512480   4.469   6.927   6.060  0.4347  0.2608  0.1942
  118SOPE   H5X12481   4.487   7.036   6.074 -1.2328  0.5030  0.6539
  118SOPE   H5Y12482   4.408   6.922   5.968 -1.5023 -1.2605  1.4808
  118SOPE   C3612483   4.606   6.857   6.039  0.0566  0.0069 -0.7244
  118SOPE   H6X12484   4.587   6.748   6.028 -0.0857  0.1078 -1.5662
  118SOPE   H6Y12485   4.664   6.870   6.133 -2.2439  1.6178  0.5758
  118SOPE   C3712486   4.690   6.898   5.917 -0.4607 -0.2865  0.0655
  118SOPE   H7X12487   4.781   6.835   5.908 -0.0257  0.2828  0.3620
  118SOPE   H7Y12488   4.731   7.000   5.931  0.2352 -0.5062 -0.3020
  118SOPE   C3812489   4.615   6.896   5.785  0.0154  0.4149  0.5557
  118SOPE   H8X12490   4.537   6.974   5.774 -2.4751 -1.7665  1.6640
  118SOPE   H8Y12491   4.567   6.797   5.771  1.3182  0.1132 -2.6009
  118SOPE   C3912492   4.719   6.918   5.669  0.3116  0.0656  0.3462
  118SOPE   H9X12493   4.799   6.842   5.664 -1.3283 -1.7051 -0.0887
  118SOPE   H9Y12494   4.763   7.017   5.695  0.5066  0.3338 -0.9414
  118SOPE  C31012495   4.655   6.937   5.533  0.0781  0.4527  0.0489
  118SOPE  H10X12496   4.716   7.006   5.471  1.6015 -0.6410  0.2855
  118SOPE  H10Y12497   4.554   6.982   5.542 -0.1630  0.1865 -1.1781
  118SOPE  C31112498   4.631   6.803   5.458  0.3572 -0.2067 -0.5229
  118SOPE  H11X12499   4.561   6.745   5.522  0.4294 -0.8571 -1.0291
  118SOPE  H11Y12500   4.727   6.746   5.454 -0.3702 -1.4344 -1.1326
  118SOPE  C31212501   4.570   6.826   5.323  0.1264  0.0706 -0.0540
  118SOPE  H12X12502   4.589   6.748   5.246  1.5854 -0.6286  0.9875
  118SOPE  H12Y12503   4.614   6.925   5.297  0.3820  0.0985  0.4730
  118SOPE  C31312504   4.418   6.839   5.324  0.2351  0.4606 -0.3506
  118SOPE  H13X12505   4.405   6.919   5.400  1.5099 -0.3265  0.7442
  118SOPE  H13Y12506   4.370   6.745   5.360 -2.8008  1.6765 -0.9796
  118SOPE  C31412507   4.354   6.874   5.189  0.4326  0.5107  0.1869
  118SOPE  H14X12508   4.436   6.922   5.130 -0.5042  1.4671 -0.3680
  118SOPE  H14Y12509   4.276   6.953   5.194 -0.8334 -0.7689  1.5376
  118SOPE  C31512510   4.305   6.760   5.099 -0.0001 -0.0228 -0.1947
  118SOPE  H15X12511   4.207   6.725   5.138  0.4870 -1.3454 -0.1143
  118SOPE  H15Y12512   4.381   6.679   5.090 -0.7254 -0.7113 -0.3075
  118SOPE  C31612513   4.259   6.805   4.958  0.5888  0.5833 -0.4473
  118SOPE  H16X12514   4.349   6.856   4.917  1.3330 -0.2662  0.0768
  118SOPE  H16Y12515   4.182   6.882   4.983 -0.4197 -0.8087  0.9148
  118SOPE  C31712516   4.193   6.692   4.873 -0.0522 -0.0142  0.4527
  118SOPE  H17X12517   4.094   6.669   4.918 -0.3638 -0.4289 -0.4266
  118SOPE  H17Y12518   4.261   6.604   4.876  0.8114  0.4440 -2.6433
  118SOPE  C31812519   4.165   6.730   4.726  0.2153 -0.3892 -0.1446
  118SOPE  H18X12520   4.113   6.649   4.669 -0.7125 -0.3289  0.5979
  118SOPE  H18Y12521   4.259   6.754   4.671  0.2897  2.1272  0.9697
  118SOPE  H18Z12522   4.109   6.825   4.723  1.8904  0.6864  0.8871
  119SOPE     N12523   4.799   6.681   7.008  0.2794  0.0348  0.6420
  119SOPE   HN112524   4.703   6.701   6.972  1.0974  0.6200 -1.3798
  119SOPE   HN212525   4.844   6.775   7.011 -3.1397  1.8303  1.1044
  119SOPE   HN312526   4.838   6.615   6.937 -1.1182  0.6845 -0.8011
  119SOPE   C1212527   4.811   6.619   7.146  0.6855 -0.3938  1.0045
  119SOPE  H12A12528   4.712   6.572   7.167  0.0767 -0.2523 -1.2564
  119SOPE  H12B12529   4.830   6.693   7.226 -2.1770  0.3174  1.1240
  119SOPE   C1112530   4.919   6.519   7.147 -0.4032  0.6363  0.2144
  119SOPE  H11A12531   4.935   6.471   7.246  2.3361  1.6784  0.3392
  119SOPE  H11B12532   5.014   6.572   7.128 -0.2792  0.3484  0.0187
  119SOPE     P12533   4.836   6.279   7.080 -0.2253  0.1432 -0.1808
  119SOPE   O1312534   4.715   6.311   7.156  1.1088 -0.4015 -0.3548
  119SOPE   O1412535   4.936   6.183   7.132  0.5202 -0.5274  0.9367
  119SOPE   O1212536   4.905   6.418   7.037  0.4685  0.3425  0.7926
  119SOPE   O1112537   4.797   6.233   6.938  0.9953 -0.0255  0.4183
  119SOPE    C112538   4.884   6.218   6.831  0.0179  0.0988  0.7808
  119SOPE    HA12539   4.985   6.256   6.856  1.1236 -2.8833  1.1880
  119SOPE    HB12540   4.852   6.288   6.751 -2.9900 -0.7640  1.0883
  119SOPE    C212541   4.914   6.066   6.792  0.4437 -0.2570  0.0779
  119SOPE    HS12542   4.987   6.079   6.709 -1.6640  0.2431 -1.7875
  119SOPE   O2112543   4.795   6.004   6.751  0.2223 -0.3327  0.1259
  119SOPE   C2112544   4.742   6.051   6.642 -0.0091  0.0879 -0.0679
  119SOPE   O2212545   4.783   6.144   6.576  0.1692 -0.0895 -0.5545
  119SOPE   C2212546   4.621   5.959   6.614  0.6812 -0.2383 -0.4955
  119SOPE   H2R12547   4.557   5.963   6.704 -1.2161 -2.4281 -1.6282
  119SOPE   H2S12548   4.653   5.854   6.596  0.1029  0.1223 -4.8227
  119SOPE    C312549   4.969   5.982   6.912 -1.0382  0.9193  0.1141
  119SOPE    HX12550   4.889   5.966   6.987 -1.2267 -0.1104 -0.2890
  119SOPE    HY12551   5.052   6.050   6.942 -0.6304  0.7311 -0.5574
  119SOPE   O3112552   5.021   5.856   6.860  0.6329  0.2618 -0.1025
  119SOPE   C3112553   5.140   5.842   6.810 -0.2734 -0.7925  0.5154
  119SOPE   O3212554   5.230   5.930   6.801 -0.5060  0.2766  0.1126
  119SOPE   C3212555   5.160   5.705   6.754  0.4647 -0.0769  0.6828
  119SOPE   H2X12556   5.079   5.637   6.788  1.3574 -2.2650 -1.2563
  119SOPE   H2Y12557   5.250   5.661   6.803  2.0385  2.2225  0.0060
  119SOPE   C2312558   4.539   6.004   6.486  0.0135  0.1805  0.2733
  119SOPE   H3R12559   4.494   6.102   6.514 -1.1099 -0.6935  1.6560
  119SOPE   H3S12560   4.457   5.930   6.478  0.7109 -0.5651 -0.1107
  119SOPE   C2412561   4.617   6.020   6.356  0.1848 -0.8351 -0.6074
  119SOPE   H4R12562   4.669   6.118   6.349 -2.4642  0.7582  0.3793
  119SOPE   H4S12563   4.703   5.950   6.355  1.3381  0.4593 -3.8045
  119SOPE   C2512564   4.527   6.005   6.236 -0.1527  1.2491 -0.2779
  119SOPE   H5R12565   4.459   5.918   6.234  0.2904  0.8597 -3.3994
  119SOPE   H5S12566   4.455   6.089   6.241 -0.7072  0.8348 -1.0980
  119SOPE   C2612567   4.608   6.019   6.111  0.1213  0.9521 -0.1220
  119SOPE   H6R12568   4.687   6.097   6.114  1.1669 -0.0857  0.3125
  119SOPE   H6S12569   4.655   5.920   6.091  1.0004  1.3204  0.0675
  119SOPE   C2712570   4.509   6.059   5.995 -0.8784  0.8867 -0.9324
  119SOPE   H7R12571   4.418   6.000   6.017 -0.3954  0.3386 -0.3907
  119SOPE   H7S12572   4.490   6.169   6.000  1.5750  1.5534 -3.4412
  119SOPE   C2812573   4.553   6.024   5.857  0.4846  0.1228 -0.6601
  119SOPE   H8R12574   4.656   6.066   5.850  0.8502 -0.8140 -1.0435
  119SOPE   H8S12575   4.573   5.917   5.840  0.4386 -0.0683  0.4415
  119SOPE   C2912576   4.461   6.082   5.753 -0.7547  0.2392 -0.4822
  119SOPE   H9112577   4.448   6.190   5.770 -1.6531 -0.0715  0.9185
  119SOPE  C21012578   4.394   6.025   5.656 -0.1144  0.7386 -0.1326
  119SOPE  H10112579   4.344   6.091   5.585  0.7545  1.3756 -0.1714
  119SOPE  C21112580   4.401   5.880   5.614 -0.1727  0.3472  0.3818
  119SOPE  H11R12581   4.309   5.818   5.608  0.2465 -0.2186 -0.4669
  119SOPE  H11S12582   4.467   5.816   5.678  0.7320  0.7299 -0.1455
  119SOPE  C21212583   4.465   5.877   5.475 -0.2546 -0.1753  0.4239
  119SOPE  H12R12584   4.459   5.775   5.430 -0.4486  0.0904 -0.1593
  119SOPE  H12S12585   4.573   5.902   5.466  0.5238 -2.6815  1.8522
  119SOPE  C21312586   4.389   5.959   5.358 -0.8039 -0.2650  0.0025
  119SOPE  H13R12587   4.409   6.068   5.364  2.0418 -0.7151 -0.0894
  119SOPE  H13S12588   4.279   5.946   5.370 -0.8661  0.1851 -0.0900
  119SOPE  C21412589   4.435   5.905   5.225  0.6033 -0.2936  0.1607
  119SOPE  H14R12590   4.391   5.804   5.208  0.9450 -0.1302 -1.9586
  119SOPE  H14S12591   4.546   5.898   5.236  0.5019  0.2468  1.8830
  119SOPE  C21512592   4.414   5.988   5.090  0.6475  0.4471 -0.5380
  119SOPE  H15R12593   4.460   5.927   5.010 -0.8900 -1.0462 -0.3346
  119SOPE  H15S12594   4.477   6.080   5.096  0.2740  0.8452 -2.1981
  119SOPE  C21612595   4.259   6.003   5.051  0.2082 -0.5096 -0.1989
  119SOPE  H16R12596   4.213   6.065   5.131 -2.6880  1.2901 -3.0345
  119SOPE  H16S12597   4.206   5.906   5.044  1.2930 -1.1041 -0.4470
  119SOPE  C21712598   4.240   6.099   4.929  0.7809  0.3685  0.4283
  119SOPE  H17R12599   4.303   6.190   4.943  0.1503  0.6316  1.7593
  119SOPE  H17S12600   4.136   6.138   4.933  0.3820 -0.6539  0.4773
  119SOPE  C21812601   4.250   6.027   4.796  0.3611 -0.0930  0.1722
  119SOPE  H18R12602   4.211   6.099   4.721  1.1966  2.4391  2.0475
  119SOPE  H18S12603   4.198   5.929   4.787 -1.7885  0.7695  2.2791
  119SOPE  H18T12604   4.358   6.008   4.779  0.0656 -0.0518 -2.0719
  119SOPE   C3312605   5.173   5.685   6.601  0.2449 -0.0023  0.3801
  119SOPE   H3X12606   5.177   5.580   6.566  1.5951  0.7316 -1.8776
  119SOPE   H3Y12607   5.270   5.729   6.568 -0.9567  1.8919 -0.8303
  119SOPE   C3412608   5.056   5.751   6.521 -0.1264 -0.3332 -0.2167
  119SOPE   H4X12609   5.038   5.849   6.571  0.8738 -0.6403  0.7702
  119SOPE   H4Y12610   4.961   5.693   6.520 -0.8157  0.4389  3.5910
  119SOPE   C3512611   5.073   5.785   6.376  0.4414  0.3721 -0.7532
  119SOPE   H5X12612   5.069   5.697   6.309 -0.3213 -0.4198  0.3126
  119SOPE   H5Y12613   5.171   5.838   6.371  0.8507 -0.4819 -2.8199
  119SOPE   C3612614   4.963   5.875   6.331 -0.2382 -0.2431 -0.2723
  119SOPE   H6X12615   4.948   5.955   6.407  2.0976  1.1610 -1.1809
  119SOPE   H6Y12616   4.867   5.829   6.301 -0.8966  2.1719 -2.1844
  119SOPE   C3712617   4.994   5.943   6.199 -0.7252 -0.0110  0.1526
  119SOPE   H7X12618   5.097   5.983   6.191 -0.5110 -0.7520 -1.1717
  119SOPE   H7Y12619   4.918   6.024   6.192 -1.9552 -1.2596 -3.1806
  119SOPE   C3812620   4.984   5.847   6.081  0.0669 -0.5021  0.7975
  119SOPE   H8X12621   4.893   5.786   6.102  0.8153 -1.9342  0.0297
  119SOPE   H8Y12622   5.065   5.771   6.077  2.3747  1.8808 -0.8109
  119SOPE   C3912623   4.958   5.926   5.945 -0.6260 -0.2351 -0.6926
  119SOPE   H9X12624   5.051   5.983   5.924 -2.2215  1.9641 -2.1992
  119SOPE   H9Y12625   4.874   5.996   5.964 -0.0666 -0.1774  1.8915
  119SOPE  C31012626   4.940   5.837   5.817  0.1166 -0.0134  0.3016
  119SOPE  H10X12627   4.853   5.772   5.841  0.6991 -0.8343  0.2345
  119SOPE  H10Y12628   5.026   5.771   5.793 -0.0917 -0.5202  0.9106
  119SOPE  C31112629   4.906   5.924   5.691 -0.2612 -0.0119  0.4199
  119SOPE  H11X12630   4.960   6.021   5.689  0.3265 -0.0191  4.7364
  119SOPE  H11Y12631   4.804   5.956   5.722 -0.3399 -2.4569  3.1635
  119SOPE  C31212632   4.917   5.851   5.560  0.1990  0.1257 -0.3490
  119SOPE  H12X12633   4.843   5.768   5.563 -0.6058  0.6659 -3.0097
  119SOPE  H12Y12634   5.015   5.800   5.547  0.3949  0.4756 -0.2631
  119SOPE  C31312635   4.907   5.940   5.440  0.0368  0.1053  0.1934
  119SOPE  H13X12636   4.974   6.029   5.446  1.7125 -1.0740 -0.0760
  119SOPE  H13Y12637   4.806   5.983   5.427  0.8048  1.7905 -0.5763
  119SOPE  C31412638   4.947   5.865   5.308 -0.1927  0.0241  0.2776
  119SOPE  H14X12639   4.890   5.770   5.292  1.5214 -0.8482 -0.9922
  119SOPE  H14Y12640   5.055   5.839   5.312 -0.3029 -1.0926 -2.0037
  119SOPE  C31512641   4.909   5.953   5.188  0.0480 -0.2079 -0.5732
  119SOPE  H15X12642   4.951   6.054   5.210  1.8382 -0.8805 -0.7368
  119SOPE  H15Y12643   4.801   5.969   5.207  0.9584  2.0299  4.7604
  119SOPE  C31612644   4.963   5.905   5.054 -0.2109 -0.6384  0.2440
  119SOPE  H16X12645   5.073   5.909   5.040 -0.2947  0.7712 -0.1497
  119SOPE  H16Y12646   4.923   5.978   4.981  1.6714 -0.3543 -0.5626
  119SOPE  C31712647   4.926   5.762   5.008 -0.1787 -0.0260  0.2004
  119SOPE  H17X12648   4.953   5.687   5.085  3.0256  0.5795 -0.1938
  119SOPE  H17Y12649   4.984   5.734   4.918  0.4203 -1.1567  0.9281
  119SOPE  C31812650   4.782   5.754   4.962 -0.3321 -0.7039  0.2143
  119SOPE  H18X12651   4.757   5.823   4.878 -0.9347 -0.4749  0.5805
  119SOPE  H18Y12652   4.719   5.790   5.046 -1.8988  0.9400 -1.5693
  119SOPE  H18Z12653   4.759   5.649   4.932 -0.4814 -0.4647 -0.5404
  120SOPE     N12654   5.368   1.894   6.926 -0.1286  0.4130  0.1365
  120SOPE   HN112655   5.387   1.865   7.024  0.7864  1.4697  0.2930
  120SOPE   HN212656   5.273   1.874   6.890 -0.7043 -0.0681  1.8352
  120SOPE   HN312657   5.440   1.852   6.864  1.6537  0.0816  2.2857
  120SOPE   C1212658   5.409   2.034   6.914  0.5985 -1.2093  0.2699
  120SOPE  H12A12659   5.393   2.065   6.809  2.2829 -1.2260 -0.0180
  120SOPE  H12B12660   5.517   2.040   6.939  1.0027 -0.1226 -1.6040
  120SOPE   C1112661   5.341   2.121   7.019  0.5613 -0.6465  0.1236
  120SOPE  H11A12662   5.357   2.228   6.992  0.9925 -0.3093  1.6198
  120SOPE  H11B12663   5.389   2.097   7.116 -1.3907 -1.4588  0.9438
  120SOPE     P12664   5.081   2.154   6.979  0.0967 -0.5757 -0.1442
  120SOPE   O1312665   5.072   2.299   6.995  0.2584  0.1598 -0.0942
  120SOPE   O1412666   4.960   2.085   7.019  0.3579 -0.4016 -0.0242
  120SOPE   O1212667   5.208   2.093   7.057 -0.2465 -0.3546  0.5004
  120SOPE   O1112668   5.121   2.114   6.831  0.2291 -0.6265  0.3109
  120SOPE    C112669   5.095   2.202   6.721  0.5882  0.5361  0.5374
  120SOPE    HA12670   5.190   2.253   6.694  2.3006 -2.2763  0.8229
  120SOPE    HB12671   5.017   2.280   6.737 -0.7409 -0.2058 -1.8150
  120SOPE    C212672   5.067   2.132   6.583 -0.0303 -0.2877 -0.2649
  120SOPE    HS12673   5.022   2.206   6.513  0.1659  0.5214  0.4491
  120SOPE   O2112674   4.980   2.023   6.600 -0.6394  0.4622 -0.3775
  120SOPE   C2112675   4.855   2.060   6.611 -0.0631  0.0388  0.7582
  120SOPE   O2212676   4.819   2.179   6.615 -0.7419 -0.2040 -0.1144
  120SOPE   C2212677   4.768   1.937   6.594 -0.3452 -0.1584 -0.5912
  120SOPE   H2R12678   4.786   1.871   6.681  3.4307  0.5064 -0.7112
  120SOPE   H2S12679   4.797   1.885   6.500 -1.9930 -0.5422 -0.9255
  120SOPE    C312680   5.192   2.070   6.524  0.0944  0.0595  0.4738
  120SOPE    HX12681   5.245   2.013   6.604  0.7933  0.1140  0.0593
  120SOPE    HY12682   5.250   2.160   6.495 -0.2317  0.8575  2.2028
  120SOPE   O3112683   5.158   1.993   6.410 -0.6536 -0.7105  0.3466
  120SOPE   C3112684   5.131   1.862   6.413 -0.1663 -0.0040 -0.1074
  120SOPE   O3212685   5.141   1.789   6.510 -0.2536 -0.3755 -0.6508
  120SOPE   C3212686   5.079   1.815   6.280  0.0602 -0.5053 -0.6802
  120SOPE   H2X12687   5.083   1.704   6.283 -1.6275 -0.5825  2.2364
  120SOPE   H2Y12688   5.122   1.878   6.200 -0.8550  0.9026 -0.0994
  120SOPE   C2312689   4.612   1.959   6.600 -0.5948 -0.1374 -0.2765
  120SOPE   H3R12690   4.594   2.029   6.684 -2.6352 -0.8698 -0.0405
  120SOPE   H3S12691   4.566   1.865   6.636 -1.2058  1.0125  2.1239
  120SOPE   C2412692   4.546   2.022   6.478 -0.2465 -0.1019  0.1434
  120SOPE   H4R12693   4.599   2.119   6.462  0.5371 -0.5785 -0.2423
  120SOPE   H4S12694   4.559   1.961   6.387 -2.6864 -0.2072 -0.1988
  120SOPE   C2512695   4.390   2.045   6.478  0.4038 -0.0859 -0.0796
  120SOPE   H5R12696   4.353   1.940   6.475 -0.9338  0.3774 -0.3479
  120SOPE   H5S12697   4.354   2.105   6.564 -1.3913  1.5114 -1.8304
  120SOPE   C2612698   4.347   2.112   6.351  0.5710  0.3470  0.2002
  120SOPE   H6R12699   4.236   2.123   6.355  0.3532 -1.1761 -0.8547
  120SOPE   H6S12700   4.396   2.211   6.345 -3.2852  2.4457  0.2828
  120SOPE   C2712701   4.379   2.027   6.221 -0.2658  0.1933  0.0824
  120SOPE   H7R12702   4.480   2.054   6.182 -0.5120 -0.5717 -1.1262
  120SOPE   H7S12703   4.376   1.919   6.247 -0.7362  0.3676  0.7796
  120SOPE   C2812704   4.288   2.062   6.105 -0.1239 -0.8927 -0.0070
  120SOPE   H8R12705   4.311   1.998   6.018  1.6218  1.0489 -1.0737
  120SOPE   H8S12706   4.185   2.032   6.135 -0.3729  0.0733  0.1611
  120SOPE   C2912707   4.289   2.211   6.081 -0.3886  1.2129  0.0025
  120SOPE   H9112708   4.386   2.261   6.096 -0.0540  0.5913 -0.0716
  120SOPE  C21012709   4.189   2.282   6.035  0.6348  0.1179 -0.3095
  120SOPE  H10112710   4.203   2.389   6.016  0.0600  0.1944 -0.3152
  120SOPE  C21112711   4.050   2.238   6.004 -0.6328  0.3192  0.0117
  120SOPE  H11R12712   3.980   2.299   6.064 -0.7078 -0.0641  0.3089
  120SOPE  H11S12713   4.043   2.133   6.040 -0.6739  0.4596  0.4161
  120SOPE  C21212714   4.026   2.242   5.852  0.0526 -0.1913  0.0469
  120SOPE  H12R12715   4.025   2.344   5.808  2.1033 -0.7289 -1.4022
  120SOPE  H12S12716   3.921   2.208   5.841 -1.3034  1.3352  5.3067
  120SOPE  C21312717   4.122   2.164   5.755  0.3401 -0.1794 -0.1314
  120SOPE  H13R12718   4.132   2.060   5.793  2.9393  0.4068  0.9619
  120SOPE  H13S12719   4.221   2.213   5.763  1.2476 -1.8701 -0.6844
  120SOPE  C21412720   4.068   2.152   5.616 -0.0830  0.2803 -0.5659
  120SOPE  H14R12721   4.061   2.245   5.556  0.0695  1.0120  0.5276
  120SOPE  H14S12722   3.959   2.129   5.625  0.2145 -0.9971 -0.0731
  120SOPE  C21512723   4.140   2.046   5.532  0.0523  0.2970 -0.5006
  120SOPE  H15R12724   4.065   2.010   5.458  2.4128 -1.8695 -1.9860
  120SOPE  H15S12725   4.150   1.953   5.591 -2.6349  0.2899  0.1082
  120SOPE  C21612726   4.257   2.091   5.450  0.2149 -0.1650  0.0793
  120SOPE  H16R12727   4.349   2.090   5.513  1.6365 -0.8828 -1.9261
  120SOPE  H16S12728   4.248   2.196   5.415  1.4688  1.1351  3.2287
  120SOPE  C21712729   4.288   1.994   5.339 -1.0929  0.2180 -0.5918
  120SOPE  H17R12730   4.236   2.027   5.247  0.6521  2.0273 -1.0314
  120SOPE  H17S12731   4.253   1.896   5.377  0.0269  0.5739  1.4988
  120SOPE  C21812732   4.434   1.998   5.306 -0.1672 -0.3906 -0.5584
  120SOPE  H18R12733   4.452   1.918   5.232  2.4640 -0.9129  0.5708
  120SOPE  H18S12734   4.497   1.995   5.397 -0.5510 -3.0983 -0.3200
  120SOPE  H18T12735   4.454   2.092   5.250 -0.4688 -0.9814 -1.6906
  120SOPE   C3312736   4.927   1.847   6.270 -0.1705 -0.7773 -0.1243
  120SOPE   H3X12737   4.913   1.956   6.287  1.7861 -0.2482 -1.5906
  120SOPE   H3Y12738   4.871   1.793   6.349 -0.0818  2.1743  2.1479
  120SOPE   C3412739   4.872   1.837   6.122 -0.3246  0.2639 -0.0651
  120SOPE   H4X12740   4.892   1.731   6.096  0.7977  0.2491  0.7612
  120SOPE   H4Y12741   4.941   1.906   6.069  1.2044 -0.0808  1.4035
  120SOPE   C3512742   4.731   1.890   6.118 -0.7265  0.3802 -0.0532
  120SOPE   H5X12743   4.723   1.979   6.185 -1.1363  1.9390 -2.0855
  120SOPE   H5Y12744   4.665   1.810   6.158  0.0568 -0.3952 -0.2923
  120SOPE   C3612745   4.691   1.937   5.981  0.6826 -0.6389  0.7396
  120SOPE   H6X12746   4.750   2.027   5.956 -1.9398  1.6609  2.2740
  120SOPE   H6Y12747   4.585   1.971   5.984  0.5371 -1.0084  0.0190
  120SOPE   C3712748   4.715   1.830   5.866  0.4807  0.5226  0.1013
  120SOPE   H7X12749   4.649   1.744   5.889  0.5770  0.4240  0.0099
  120SOPE   H7Y12750   4.815   1.783   5.879 -0.0680 -0.3713  1.2734
  120SOPE   C3812751   4.688   1.872   5.721 -0.4215 -0.1584 -0.2939
  120SOPE   H8X12752   4.754   1.954   5.684 -0.2721  0.0672  0.4547
  120SOPE   H8Y12753   4.586   1.914   5.713  0.4259  2.6029  1.9375
  120SOPE   C3912754   4.721   1.763   5.622  0.1449 -0.7688  0.3751
  120SOPE   H9X12755   4.655   1.674   5.633 -0.3695 -0.8314 -2.5749
  120SOPE   H9Y12756   4.826   1.730   5.640  0.4933  1.0501  2.0865
  120SOPE  C31012757   4.705   1.798   5.474 -0.6954 -0.5980  0.9223
  120SOPE  H10X12758   4.775   1.880   5.447 -0.2998 -1.3409 -0.4100
  120SOPE  H10Y12759   4.601   1.827   5.449 -0.6252 -0.8620  0.2935
  120SOPE  C31112760   4.731   1.672   5.381  0.0852 -0.1356 -0.0411
  120SOPE  H11X12761   4.640   1.609   5.386  0.7601 -1.0954  0.3380
  120SOPE  H11Y12762   4.810   1.607   5.424  0.4350  0.7667  0.6973
  120SOPE  C31212763   4.775   1.710   5.242 -0.1590  0.7102  0.4060
  120SOPE  H12X12764   4.867   1.661   5.205 -0.3673  2.1152 -2.2178
  120SOPE  H12Y12765   4.771   1.820   5.226 -0.1759  0.7871  0.9039
  120SOPE  C31312766   4.663   1.666   5.143 -0.0494  0.5145  0.4377
  120SOPE  H13X12767   4.572   1.728   5.161  0.0176  1.1148 -1.1275
  120SOPE  H13Y12768   4.635   1.561   5.163 -0.5492  0.6910  0.6803
  120SOPE  C31412769   4.707   1.681   5.001  0.1463  0.5566 -0.7728
  120SOPE  H14X12770   4.791   1.613   4.976 -0.2420  0.0481 -0.6958
  120SOPE  H14Y12771   4.748   1.784   4.987  0.1744  0.3293 -2.6162
  120SOPE  C31512772   4.590   1.648   4.908 -0.3868  0.0274  0.0889
  120SOPE  H15X12773   4.505   1.716   4.931 -0.6427 -0.8236  1.7986
  120SOPE  H15Y12774   4.555   1.546   4.936  1.9599 -0.5409  1.1872
  120SOPE  C31612775   4.632   1.644   4.757  0.5963 -0.4818  0.1263
  120SOPE  H16X12776   4.579   1.564   4.702  0.8209  0.3222 -1.3242
  120SOPE  H16Y12777   4.741   1.625   4.761  0.3352 -1.9876  0.7100
  120SOPE  C31712778   4.612   1.770   4.672  0.1718  0.2743  0.2588
  120SOPE  H17X12779   4.655   1.764   4.569 -1.2270  0.1544 -0.3482
  120SOPE  H17Y12780   4.674   1.842   4.730 -0.3078  1.2733 -0.4428
  120SOPE  C31812781   4.462   1.818   4.666 -0.4026 -0.6046 -0.3129
  120SOPE  H18X12782   4.464   1.917   4.616 -0.4664 -0.3088  0.2722
  120SOPE  H18Y12783   4.418   1.827   4.767 -2.7453 -1.2954 -1.2123
  120SOPE  H18Z12784   4.398   1.750   4.606 -1.2249 -0.2431  0.1375
  121SOPE     N12785   5.487   0.413   6.913  0.2070  0.2219  0.5672
  121SOPE   HN112786   5.530   0.405   6.819  0.0806 -3.1099  0.6868
  121SOPE   HN212787   5.384   0.429   6.901  0.2885  0.3644  0.0382
  121SOPE   HN312788   5.536   0.493   6.958  0.3116 -0.7530  2.2689
  121SOPE   C1212789   5.514   0.281   6.983 -0.0234 -0.8241 -0.4917
  121SOPE  H12A12790   5.482   0.294   7.089 -0.8258 -1.6623 -0.6205
  121SOPE  H12B12791   5.624   0.278   6.996 -0.1725 -2.8083  0.6582
  121SOPE   C1112792   5.450   0.155   6.923  0.3252  0.4089 -0.1056
  121SOPE  H11A12793   5.341   0.145   6.940  0.4885 -1.6646 -0.0197
  121SOPE  H11B12794   5.483   0.068   6.983  2.2793  0.3100 -1.2156
  121SOPE     P12795   5.610   0.079   6.738  0.0818 -0.4456  0.4608
  121SOPE   O1312796   5.590  -0.052   6.677 -0.5438  0.5735  0.3985
  121SOPE   O1412797   5.697   0.072   6.856  0.0124  0.6758  0.3008
  121SOPE   O1212798   5.471   0.137   6.782  0.1478  0.0232 -0.2983
  121SOPE   O1112799   5.664   0.183   6.632 -0.3946  0.3538  0.9034
  121SOPE    C112800   5.593   0.208   6.511  0.7048 -0.1826  0.6933
  121SOPE    HA12801   5.565   0.315   6.500  0.8340 -0.3103 -1.2187
  121SOPE    HB12802   5.499   0.150   6.504  0.2073  0.8305 -2.8749
  121SOPE    C212803   5.672   0.178   6.384 -0.8285 -0.0104  0.0005
  121SOPE    HS12804   5.630   0.234   6.298  0.4560 -0.1088 -0.7059
  121SOPE   O2112805   5.676   0.036   6.360  0.4305 -0.0283 -0.5439
  121SOPE   C2112806   5.568  -0.019   6.300  0.3995 -0.9576 -0.2918
  121SOPE   O2212807   5.477   0.048   6.259 -0.1322  0.5167  0.2778
  121SOPE   C2212808   5.573  -0.171   6.281 -0.1635  0.1749  1.1108
  121SOPE   H2R12809   5.592  -0.211   6.383 -0.2547 -1.2609  0.5890
  121SOPE   H2S12810   5.659  -0.185   6.212 -0.2823  0.4881  0.9001
  121SOPE    C312811   5.814   0.230   6.407  0.4354  0.4713 -0.2450
  121SOPE    HX12812   5.858   0.168   6.487 -0.2582  0.4639  0.1395
  121SOPE    HY12813   5.799   0.338   6.429  0.8888  0.2135  1.4687
  121SOPE   O3112814   5.891   0.228   6.282  0.4845 -0.3218  0.8220
  121SOPE   C3112815   6.006   0.285   6.292  0.3993 -0.6735 -0.6562
  121SOPE   O3212816   6.061   0.314   6.397  0.7776 -0.0784 -0.0534
  121SOPE   C3212817   6.069   0.310   6.158  0.1006  0.7052 -0.1985
  121SOPE   H2X12818   6.094   0.210   6.115  1.9355  0.5215  1.1540
  121SOPE   H2Y12819   6.166   0.356   6.187  1.5802 -3.0331  1.4521
  121SOPE   C2312820   5.451  -0.241   6.219  0.0003  0.5812  0.5544
  121SOPE   H3R12821   5.354  -0.221   6.269 -1.0703 -1.8108 -0.4249
  121SOPE   H3S12822   5.470  -0.350   6.223  0.1548  0.4272 -2.3583
  121SOPE   C2412823   5.428  -0.225   6.062 -0.6262  0.4297 -0.0725
  121SOPE   H4R12824   5.326  -0.261   6.034 -0.7997  1.4060 -0.7390
  121SOPE   H4S12825   5.426  -0.116   6.038  2.0379  0.0484 -2.6158
  121SOPE   C2512826   5.539  -0.283   5.974 -0.0726  0.2054 -0.0886
  121SOPE   H5R12827   5.638  -0.235   5.981  0.1541  0.1227 -2.1467
  121SOPE   H5S12828   5.556  -0.390   6.002 -0.8743 -0.5252 -2.1803
  121SOPE   C2612829   5.500  -0.287   5.826  0.1331  0.3650 -0.5042
  121SOPE   H6R12830   5.418  -0.359   5.808  0.8956 -0.4567 -0.7940
  121SOPE   H6S12831   5.467  -0.187   5.790  1.8306  1.4174  0.6819
  121SOPE   C2712832   5.621  -0.340   5.747  0.8519  0.5128  0.2914
  121SOPE   H7R12833   5.698  -0.263   5.767 -1.5665  2.8621  1.2494
  121SOPE   H7S12834   5.640  -0.433   5.806 -1.8206  0.6148  1.4445
  121SOPE   C2812835   5.596  -0.369   5.601  0.3864  0.8092 -0.1968
  121SOPE   H8R12836   5.687  -0.413   5.553 -0.3541  1.1567 -1.9804
  121SOPE   H8S12837   5.525  -0.454   5.596  1.3451 -0.2083  1.8931
  121SOPE   C2912838   5.544  -0.251   5.530 -0.0585 -0.0073 -0.5893
  121SOPE   H9112839   5.474  -0.191   5.590  2.5129  0.8440  1.7770
  121SOPE  C21012840   5.582  -0.206   5.411 -0.3594  0.9185  0.1146
  121SOPE  H10112841   5.520  -0.130   5.361 -0.0713  0.2766 -1.2647
  121SOPE  C21112842   5.690  -0.267   5.328  0.8901 -0.6361 -1.2032
  121SOPE  H11R12843   5.674  -0.375   5.306  3.1856 -1.9637  2.7142
  121SOPE  H11S12844   5.783  -0.265   5.388 -0.7942 -0.1703  1.5590
  121SOPE  C21212845   5.709  -0.191   5.199  0.2941 -0.5189  0.3571
  121SOPE  H12R12846   5.797  -0.234   5.147 -0.9997 -0.0286 -2.4191
  121SOPE  H12S12847   5.748  -0.087   5.207 -0.2708 -0.2197 -0.6039
  121SOPE  C21312848   5.581  -0.204   5.110  0.3851  0.2822  0.2171
  121SOPE  H13R12849   5.519  -0.287   5.150  1.4998 -0.3182  0.7440
  121SOPE  H13S12850   5.616  -0.237   5.010  0.8274  1.3248  0.0111
  121SOPE  C21412851   5.483  -0.079   5.090  0.1178  0.2790  0.0487
  121SOPE  H14R12852   5.434  -0.059   5.188  0.0166  1.3759 -0.2163
  121SOPE  H14S12853   5.401  -0.110   5.022 -0.8435 -1.1330  1.7540
  121SOPE  C21512854   5.558   0.046   5.046  0.1408 -0.0080  0.2670
  121SOPE  H15R12855   5.627   0.044   4.959  0.5781 -1.4721  0.6307
  121SOPE  H15S12856   5.632   0.074   5.123  1.1191 -0.0634 -0.6300
  121SOPE  C21612857   5.461   0.167   5.028  0.3226 -0.1743  0.8656
  121SOPE  H16R12858   5.519   0.261   5.040 -1.1189  1.0365 -1.1027
  121SOPE  H16S12859   5.382   0.155   5.106  0.0719  0.6753  0.7484
  121SOPE  C21712860   5.395   0.159   4.886 -0.3522 -1.2524 -0.3962
  121SOPE  H17R12861   5.299   0.104   4.897  0.6729 -2.7054  1.9421
  121SOPE  H17S12862   5.456   0.100   4.814 -0.6541  0.2599 -1.9572
  121SOPE  C21812863   5.379   0.304   4.813  0.0378  0.2208  0.1435
  121SOPE  H18R12864   5.309   0.296   4.727  1.3551  1.9273 -1.1508
  121SOPE  H18S12865   5.476   0.352   4.788 -0.6544  0.9644 -1.2144
  121SOPE  H18T12866   5.336   0.377   4.885 -0.1647 -1.1327  1.4557
  121SOPE   C3312867   5.979   0.393   6.068 -0.4096 -0.3085  0.0560
  121SOPE   H3X12868   5.982   0.496   6.111 -0.2265  0.0977 -0.9118
  121SOPE   H3Y12869   5.875   0.355   6.063 -0.2209 -0.7467 -0.6591
  121SOPE   C3412870   6.043   0.406   5.926 -0.3961  0.1909 -0.0664
  121SOPE   H4X12871   6.059   0.306   5.880 -1.0313 -0.3417  0.8444
  121SOPE   H4Y12872   6.146   0.448   5.926  0.4775 -1.8140  0.7713
  121SOPE   C3512873   5.948   0.477   5.820 -0.4357  0.3747 -0.6814
  121SOPE   H5X12874   5.931   0.586   5.834 -1.5189  0.2337 -0.8154
  121SOPE   H5Y12875   5.842   0.445   5.827 -0.4056 -0.1569 -2.2688
  121SOPE   C3612876   6.008   0.461   5.676  0.0684 -0.1137  0.0723
  121SOPE   H6X12877   5.992   0.362   5.628  3.3773 -1.0468  0.6533
  121SOPE   H6Y12878   6.118   0.470   5.682  0.2961 -2.3366  0.1796
  121SOPE   C3712879   5.965   0.572   5.578 -0.1652  0.3481 -0.0649
  121SOPE   H7X12880   5.987   0.663   5.637  0.2276  1.5337 -1.9386
  121SOPE   H7Y12881   5.857   0.556   5.554  0.0333 -0.4531 -0.4699
  121SOPE   C3812882   6.049   0.581   5.440  0.1270  0.4574 -1.1908
  121SOPE   H8X12883   6.056   0.483   5.389  1.4441  0.4204 -0.9928
  121SOPE   H8Y12884   6.155   0.594   5.473 -0.7181  0.3000  1.9039
  121SOPE   C3912885   5.996   0.679   5.335 -0.6315  0.1389 -0.1501
  121SOPE   H9X12886   6.076   0.693   5.260  2.3706  1.5158  3.0483
  121SOPE   H9Y12887   5.974   0.773   5.390  1.9490  0.4315  0.4857
  121SOPE  C31012888   5.870   0.630   5.263 -0.0604  0.3188 -0.0600
  121SOPE  H10X12889   5.788   0.606   5.334  1.6434  1.1027  2.3051
  121SOPE  H10Y12890   5.898   0.545   5.197 -0.9229  0.1527 -0.2333
  121SOPE  C31112891   5.806   0.736   5.170  0.3360 -0.5738  0.2138
  121SOPE  H11X12892   5.868   0.744   5.078  1.2753 -1.5650  0.7391
  121SOPE  H11Y12893   5.818   0.835   5.218 -0.0098 -1.3268  1.9257
  121SOPE  C31212894   5.658   0.704   5.123 -0.1692  0.5424 -0.0680
  121SOPE  H12X12895   5.598   0.683   5.214 -0.5548 -2.0912 -0.8501
  121SOPE  H12Y12896   5.665   0.607   5.070 -0.4324 -0.0266  0.9081
  121SOPE  C31312897   5.604   0.812   5.027  0.2703  0.3313  0.3996
  121SOPE  H13X12898   5.695   0.849   4.975  0.4696  0.0458  0.5467
  121SOPE  H13Y12899   5.562   0.903   5.075  2.5222  1.5613  0.1549
  121SOPE  C31412900   5.501   0.756   4.930  0.0072  0.3007  0.6082
  121SOPE  H14X12901   5.416   0.716   4.987  0.1743 -1.5327 -0.3519
  121SOPE  H14Y12902   5.536   0.670   4.869 -0.5770  0.0878  0.5730
  121SOPE  C31512903   5.443   0.866   4.844  0.4931 -0.2452  0.9728
  121SOPE  H15X12904   5.396   0.944   4.908 -1.0120 -0.4565  0.1505
  121SOPE  H15Y12905   5.363   0.826   4.779  2.3807 -1.3939 -0.7640
  121SOPE  C31612906   5.540   0.933   4.748 -0.1498  0.5051 -0.5196
  121SOPE  H16X12907   5.592   0.853   4.691 -0.4884 -0.3736  0.3704
  121SOPE  H16Y12908   5.605   1.005   4.802  0.8857 -0.1776 -0.8274
  121SOPE  C31712909   5.462   1.019   4.643 -0.0463  0.7477 -0.4405
  121SOPE  H17X12910   5.398   1.086   4.704  0.9360  1.5360 -0.2520
  121SOPE  H17Y12911   5.402   0.945   4.586  1.7378 -0.7842 -0.4242
  121SOPE  C31812912   5.557   1.086   4.540  0.5811 -0.2456 -0.6999
  121SOPE  H18X12913   5.501   1.153   4.472  0.2226 -0.5670 -0.7202
  121SOPE  H18Y12914   5.613   1.010   4.481 -1.8945 -0.9723 -2.2446
  121SOPE  H18Z12915   5.628   1.154   4.591 -1.7230  0.0149  2.3786
  122SOPE     N12916   0.112   0.869   6.822 -0.2309 -0.2201  0.0582
  122SOPE   HN112917   0.072   0.960   6.850  1.2445  0.7705 -0.9308
  122SOPE   HN212918   0.071   0.776   6.847  0.4824 -1.2379 -2.2441
  122SOPE   HN312919   0.201   0.873   6.876 -0.1750  2.0114 -0.1119
  122SOPE   C1212920   0.131   0.880   6.677 -0.8195  0.5177  0.2032
  122SOPE  H12A12921   0.231   0.927   6.665  0.6028 -2.0075  1.4192
  122SOPE  H12B12922   0.060   0.948   6.625 -1.1640 -0.2862 -0.3998
  122SOPE   C1112923   0.131   0.734   6.613  0.4952 -0.2544  0.0482
  122SOPE  H11A12924   0.214   0.673   6.656  0.4133 -1.0943 -0.9471
  122SOPE  H11B12925   0.153   0.744   6.505 -1.2866  0.5302 -0.2705
  122SOPE     P12926  -0.065   0.595   6.738 -0.1748  0.2774 -0.1349
  122SOPE   O1312927  -0.204   0.638   6.756  0.0566 -0.4053 -0.1763
  122SOPE   O1412928   0.022   0.613   6.855 -0.2392  0.4843 -0.2187
  122SOPE   O1212929  -0.003   0.679   6.615  0.5920 -0.1651  0.2629
  122SOPE   O1112930  -0.063   0.447   6.697 -0.6090 -0.9737  0.0622
  122SOPE    C112931  -0.026   0.382   6.570 -0.1326  0.0165 -0.1460
  122SOPE    HA12932   0.013   0.279   6.584 -0.7913  0.0145  1.9681
  122SOPE    HB12933   0.056   0.438   6.520 -1.1732  1.7794  0.0530
  122SOPE    C212934  -0.149   0.381   6.473 -0.0451 -0.6199 -0.1326
  122SOPE    HS12935  -0.129   0.304   6.396 -0.6373 -1.2568  0.3329
  122SOPE   O2112936  -0.167   0.511   6.419  0.7543  0.0557 -0.1571
  122SOPE   C2112937  -0.078   0.546   6.331  0.1230  0.7560  0.0145
  122SOPE   O2212938  -0.009   0.476   6.265 -0.5748  0.2865 -0.1945
  122SOPE   C2212939  -0.109   0.688   6.309  0.0296 -0.0361 -0.0482
  122SOPE   H2R12940  -0.135   0.727   6.410  0.8102 -1.3864  0.7056
  122SOPE   H2S12941  -0.201   0.698   6.248 -0.2356 -0.9482  0.1922
  122SOPE    C312942  -0.275   0.327   6.553  0.2298  0.1444  0.4119
  122SOPE    HX12943  -0.290   0.395   6.639 -0.1592  1.5080 -0.6882
  122SOPE    HY12944  -0.238   0.229   6.590  0.7043 -0.4836 -1.6158
  122SOPE   O3112945  -0.400   0.332   6.481  0.0589  0.1540 -0.1668
  122SOPE   C3112946  -0.413   0.242   6.387  0.3618  0.5336  0.3170
  122SOPE   O3212947  -0.341   0.143   6.372  0.2799 -0.1480 -0.1561
  122SOPE   C3212948  -0.531   0.268   6.295 -0.1299  0.1233  0.6106
  122SOPE   H2X12949  -0.587   0.355   6.336 -0.3417  0.0976  0.3766
  122SOPE   H2Y12950  -0.607   0.187   6.300  0.1290 -0.1589  0.0158
  122SOPE   C2312951  -0.000   0.781   6.250 -0.5072 -0.5151 -0.0086
  122SOPE   H3R12952   0.005   0.731   6.150 -2.3921  0.1011 -0.4564
  122SOPE   H3S12953   0.095   0.771   6.307  0.1326  0.4515 -0.8650
  122SOPE   C2412954  -0.049   0.926   6.241 -0.2213 -0.2018 -0.3286
  122SOPE   H4R12955  -0.158   0.918   6.219  0.1098  1.1547 -2.7535
  122SOPE   H4S12956  -0.034   0.973   6.341 -3.1925 -0.3795  0.3079
  122SOPE   C2512957   0.014   1.015   6.126 -0.5300 -0.2587  0.3342
  122SOPE   H5R12958  -0.047   1.104   6.150  0.3594  0.3033  0.5573
  122SOPE   H5S12959   0.122   1.042   6.132 -0.3984 -0.8166  0.6047
  122SOPE   C2612960  -0.026   0.961   5.990 -0.2723  0.2158  0.2159
  122SOPE   H6R12961   0.028   0.865   5.976  0.5684  0.6716  0.2784
  122SOPE   H6S12962  -0.132   0.930   5.984 -0.7306  1.9707 -2.8635
  122SOPE   C2712963   0.007   1.054   5.875 -0.6725 -0.9106  0.4755
  122SOPE   H7R12964   0.110   1.094   5.883 -1.3983  1.7532 -1.7114
  122SOPE   H7S12965   0.011   1.002   5.777  1.6057 -0.2273  0.1600
  122SOPE   C2812966  -0.093   1.174   5.863 -0.5454  0.5410  0.2348
  122SOPE   H8R12967  -0.170   1.139   5.792  3.3071 -2.2106 -3.0611
  122SOPE   H8S12968  -0.138   1.193   5.963 -0.1227 -0.7890  0.7033
  122SOPE   C2912969  -0.019   1.298   5.819  0.1830  0.2740  0.2914
  122SOPE   H9112970   0.060   1.324   5.890 -0.3058 -0.5046  1.1465
  122SOPE  C21012971  -0.050   1.368   5.709 -0.2560 -0.3526  0.2244
  122SOPE  H10112972   0.015   1.457   5.698 -0.6359  0.3078  2.7152
  122SOPE  C21112973  -0.154   1.333   5.602 -0.1835  0.9782 -0.2163
  122SOPE  H11R12974  -0.146   1.226   5.576  1.3027  1.3256 -1.3259
  122SOPE  H11S12975  -0.133   1.390   5.509  0.5258  0.7984 -0.1761
  122SOPE  C21212976  -0.294   1.360   5.659  0.0254  0.4378 -0.4024
  122SOPE  H12R12977  -0.318   1.459   5.613 -0.0016  1.0098  0.7910
  122SOPE  H12S12978  -0.300   1.374   5.769  1.1606 -0.3253 -0.2312
  122SOPE  C21312979  -0.404   1.259   5.632  0.5318 -0.3255  0.4739
  122SOPE  H13R12980  -0.482   1.282   5.708 -0.4388 -1.0161 -0.2792
  122SOPE  H13S12981  -0.363   1.157   5.650  0.5742 -0.1911  1.1291
  122SOPE  C21412982  -0.467   1.274   5.491 -0.5392 -0.5570 -0.4288
  122SOPE  H14R12983  -0.443   1.378   5.461 -2.6047 -0.4304 -1.8955
  122SOPE  H14S12984  -0.577   1.258   5.500 -0.9176  1.7516 -0.4939
  122SOPE  C21512985  -0.401   1.184   5.392  0.4952 -0.0978  0.4802
  122SOPE  H15R12986  -0.453   1.088   5.412 -2.6664  1.6982  1.6634
  122SOPE  H15S12987  -0.292   1.174   5.408  0.9287  0.5922 -1.7658
  122SOPE  C21612988  -0.417   1.226   5.243 -0.2524 -0.1001  1.0625
  122SOPE  H16R12989  -0.364   1.319   5.212  1.7087 -1.5220 -0.1278
  122SOPE  H16S12990  -0.526   1.239   5.226  0.1972  0.4390 -2.1694
  122SOPE  C21712991  -0.357   1.123   5.141  0.3338 -0.7946 -0.0624
  122SOPE  H17R12992  -0.395   1.019   5.156  0.9077 -0.9713  0.1721
  122SOPE  H17S12993  -0.251   1.101   5.163  0.8070  0.1518 -1.3160
  122SOPE  C21812994  -0.378   1.170   4.997 -0.2387  0.0774 -0.3591
  122SOPE  H18R12995  -0.320   1.262   4.975  0.9594  0.0315  2.1847
  122SOPE  H18S12996  -0.487   1.190   4.986 -0.0881  1.5264  0.5709
  122SOPE  H18T12997  -0.358   1.091   4.922 -0.0978  1.0403 -1.3592
  122SOPE   C3312998  -0.482   0.293   6.150  0.0834  0.2062 -0.3288
  122SOPE   H3X12999  -0.571   0.325   6.093  1.1376  0.1392 -2.0707
  122SOPE   H3Y13000  -0.439   0.197   6.114  0.3351 -0.2212  1.0380
  122SOPE   C3413001  -0.375   0.409   6.117 -0.3450 -0.3297  0.3735
  122SOPE   H4X13002  -0.286   0.374   6.174 -0.8291 -0.9295  0.7768
  122SOPE   H4Y13003  -0.407   0.497   6.176  1.6651 -0.8808  2.4410
  122SOPE   C3513004  -0.356   0.442   5.966  0.1716 -0.0845 -0.2913
  122SOPE   H5X13005  -0.452   0.489   5.935 -0.3552 -1.4516 -0.8238
  122SOPE   H5Y13006  -0.343   0.351   5.903 -0.8021 -1.0505  0.8417
  122SOPE   C3613007  -0.238   0.535   5.951  0.1225  1.2177 -0.0804
  122SOPE   H6X13008  -0.158   0.492   6.016 -1.8188  0.0546  1.6751
  122SOPE   H6Y13009  -0.250   0.629   6.009  0.4361 -1.0761  4.1146
  122SOPE   C3713010  -0.200   0.546   5.807  0.0041 -0.2811 -0.2730
  122SOPE   H7X13011  -0.293   0.572   5.753  0.8934  1.5343 -1.0180
  122SOPE   H7Y13012  -0.144   0.456   5.774  0.9181 -0.4873  1.7084
  122SOPE   C3813013  -0.119   0.678   5.777 -0.2492  0.6978  0.2652
  122SOPE   H8X13014  -0.023   0.656   5.828 -0.5200  1.0228  0.9291
  122SOPE   H8Y13015  -0.187   0.760   5.809 -0.0515  0.9711 -0.0074
  122SOPE   C3913016  -0.109   0.691   5.627 -0.3731 -0.6706  0.5790
  122SOPE   H9X13017  -0.062   0.789   5.604 -0.1551 -0.9121 -0.0205
  122SOPE   H9Y13018  -0.213   0.705   5.591 -0.3637 -0.0863  0.7648
  122SOPE  C31013019  -0.049   0.578   5.544 -0.0946 -0.1181 -0.0022
  122SOPE  H10X13020  -0.114   0.489   5.530  1.9608 -1.8634  0.8680
  122SOPE  H10Y13021   0.029   0.546   5.617 -0.5705 -0.0719  0.5318
  122SOPE  C31113022   0.014   0.636   5.408 -0.4695  0.4760 -0.1260
  122SOPE  H11X13023   0.108   0.587   5.377 -0.6676  1.1781 -1.9611
  122SOPE  H11Y13024   0.063   0.733   5.431  0.5595 -0.3577  1.3218
  122SOPE  C31213025  -0.080   0.644   5.287  0.2817  0.0319  0.4961
  122SOPE  H12X13026  -0.129   0.547   5.263 -0.2296 -0.0746  1.8393
  122SOPE  H12Y13027  -0.021   0.670   5.197 -1.7851  0.2363 -0.8713
  122SOPE  C31313028  -0.200   0.736   5.300 -0.2244 -0.8106  0.5121
  122SOPE  H13X13029  -0.168   0.839   5.328 -1.1255 -1.1852  3.2049
  122SOPE  H13Y13030  -0.270   0.702   5.380 -4.6871 -0.6403 -2.8841
  122SOPE  C31413031  -0.273   0.736   5.164 -0.1906 -0.1793 -0.6561
  122SOPE  H14X13032  -0.378   0.775   5.164 -0.4703 -0.7890  1.7025
  122SOPE  H14Y13033  -0.283   0.631   5.128 -0.5536 -0.0558 -0.9234
  122SOPE  C31513034  -0.193   0.808   5.050 -0.2839  0.3911  0.5168
  122SOPE  H15X13035  -0.088   0.774   5.035  0.2111  1.9851  0.0989
  122SOPE  H15Y13036  -0.184   0.912   5.088  3.0899  1.0115 -1.5498
  122SOPE  C31613037  -0.272   0.811   4.921 -0.0382  0.4365  0.3840
  122SOPE  H16X13038  -0.369   0.862   4.937 -1.5757 -1.8885 -0.9921
  122SOPE  H16Y13039  -0.303   0.710   4.887 -1.4984  0.7020  0.8609
  122SOPE  C31713040  -0.185   0.887   4.821  0.5133  0.3715 -0.6306
  122SOPE  H17X13041  -0.159   0.979   4.877 -2.8009  0.4752  0.9677
  122SOPE  H17Y13042  -0.250   0.942   4.750 -1.1936  1.0103  1.3321
  122SOPE  C31813043  -0.053   0.820   4.770  1.4530 -0.5142  1.1071
  122SOPE  H18X13044   0.015   0.796   4.854  3.6915 -0.3146 -0.5423
  122SOPE  H18Y13045   0.000   0.895   4.708 -0.2105 -0.5720 -0.4769
  122SOPE  H18Z13046  -0.063   0.721   4.721  1.6833  0.1472 -0.3256
  123SOPE     N13047   0.913   3.832   2.743  0.4120 -0.1291  0.4383
  123SOPE   HN113048   0.925   3.744   2.688 -1.0060 -0.1809  0.1542
  123SOPE   HN213049   0.968   3.822   2.831 -1.2162  2.7267  1.9339
  123SOPE   HN313050   0.814   3.839   2.774  0.7891  0.9865  1.4984
  123SOPE   C1213051   0.958   3.952   2.666  0.0937 -0.0383  0.1975
  123SOPE  H12A13052   0.873   3.990   2.605 -0.0596 -0.3392  0.2195
  123SOPE  H12B13053   1.037   3.910   2.600  0.7529 -0.4339  1.2119
  123SOPE   C1113054   0.997   4.068   2.758  0.1639  0.4739 -0.7107
  123SOPE  H11A13055   0.905   4.096   2.813 -0.6326 -0.6972 -1.3973
  123SOPE  H11B13056   1.020   4.150   2.687  0.9512 -0.5624 -1.6952
  123SOPE     P13057   1.256   4.042   2.799  0.7346 -0.1131 -0.2821
  123SOPE   O1313058   1.290   4.186   2.783 -0.4679  0.0577  0.3631
  123SOPE   O1413059   1.279   3.953   2.677 -0.5059  0.1972  0.2836
  123SOPE   O1213060   1.108   4.035   2.845 -0.3804  0.2745 -1.1099
  123SOPE   O1113061   1.325   3.973   2.917  0.1258  0.0417 -0.2783
  123SOPE    C113062   1.262   3.920   3.038  0.1954  0.8063  0.4022
  123SOPE    HA13063   1.342   3.880   3.104  0.3213  0.8750  0.2933
  123SOPE    HB13064   1.190   3.836   3.028  0.6635  0.5576 -1.2887
  123SOPE    C213065   1.199   4.028   3.132 -0.0829 -0.0865 -0.2977
  123SOPE    HS13066   1.154   4.106   3.066  0.3487  0.0377 -0.4521
  123SOPE   O2113067   1.303   4.083   3.211 -0.0988 -0.1813 -0.5614
  123SOPE   C2113068   1.301   4.212   3.230  0.2794  0.2276  0.0988
  123SOPE   O2213069   1.224   4.286   3.178 -0.2137  0.2004 -0.1467
  123SOPE   C2213070   1.419   4.238   3.318  0.6041 -0.0892 -0.3162
  123SOPE   H2R13071   1.508   4.186   3.277  0.0667  0.5387 -2.3918
  123SOPE   H2S13072   1.406   4.201   3.422  1.1517 -0.3188 -0.3258
  123SOPE    C313073   1.077   3.964   3.215 -0.1306 -0.6693  0.4380
  123SOPE    HX13074   1.119   3.880   3.275  0.6268  0.4300  1.5026
  123SOPE    HY13075   0.995   3.921   3.154 -1.0462  0.2897  0.9711
  123SOPE   O3113076   1.018   4.066   3.304 -0.3995  0.9281  0.2090
  123SOPE   C3113077   0.925   4.145   3.245 -0.4005 -0.1630 -0.9060
  123SOPE   O3213078   0.883   4.128   3.130 -0.5838  0.1179  0.3077
  123SOPE   C3213079   0.885   4.257   3.338 -0.8671 -0.4099 -0.3879
  123SOPE   H2X13080   0.934   4.248   3.437  2.1879  0.1497 -1.7416
  123SOPE   H2Y13081   0.778   4.247   3.365 -0.4046  1.0876  2.3002
  123SOPE   C2313082   1.442   4.394   3.331 -0.4333  0.1939 -0.1164
  123SOPE   H3R13083   1.369   4.427   3.408 -0.4692 -4.0789  2.0196
  123SOPE   H3S13084   1.436   4.450   3.235 -0.3300 -1.6053 -1.2188
  123SOPE   C2413085   1.580   4.422   3.390 -0.4827  0.3023 -0.7109
  123SOPE   H4R13086   1.664   4.391   3.325  0.2016  1.2744 -0.3059
  123SOPE   H4S13087   1.586   4.532   3.406  1.1862  0.0910  0.3177
  123SOPE   C2513088   1.611   4.342   3.516 -0.2282  0.0167 -0.0511
  123SOPE   H5R13089   1.596   4.232   3.513  1.6467 -0.2576 -1.0008
  123SOPE   H5S13090   1.721   4.352   3.526 -0.2083  1.9771 -1.5878
  123SOPE   C2613091   1.553   4.407   3.642 -1.0787  0.8254  0.4484
  123SOPE   H6R13092   1.571   4.517   3.647 -1.0364  0.8228  0.3475
  123SOPE   H6S13093   1.443   4.388   3.642 -0.7772 -1.1036  0.5088
  123SOPE   C2713094   1.598   4.332   3.773 -0.2831  0.1684  0.2854
  123SOPE   H7R13095   1.591   4.222   3.762 -2.7955  0.4186 -1.1268
  123SOPE   H7S13096   1.708   4.351   3.780  0.2814 -2.7005  0.6215
  123SOPE   C2813097   1.536   4.370   3.908  0.0417  0.3521  0.0185
  123SOPE   H8R13098   1.598   4.321   3.987 -0.1475  1.0769  0.6339
  123SOPE   H8S13099   1.550   4.479   3.924 -1.1996  1.5443 -5.2278
  123SOPE   C2913100   1.391   4.328   3.929  0.2448 -0.4624 -0.0900
  123SOPE   H9113101   1.328   4.331   3.838 -0.7363 -3.0885  0.4423
  123SOPE  C21013102   1.342   4.287   4.049 -0.0291 -0.2627 -0.8172
  123SOPE  H10113103   1.236   4.261   4.037 -0.3430  0.7152 -0.2600
  123SOPE  C21113104   1.416   4.246   4.175  0.0754 -1.2146 -0.3389
  123SOPE  H11R13105   1.524   4.239   4.151  0.3834  1.1710  0.1236
  123SOPE  H11S13106   1.378   4.147   4.210  2.5380 -1.6945  1.2292
  123SOPE  C21213107   1.396   4.336   4.297 -0.6179 -0.4726  0.3337
  123SOPE  H12R13108   1.288   4.358   4.311 -1.1845 -0.7954 -2.8782
  123SOPE  H12S13109   1.449   4.428   4.268  0.7208 -1.9124 -2.1302
  123SOPE  C21313110   1.444   4.276   4.428 -0.0899 -0.1069 -1.1206
  123SOPE  H13R13111   1.554   4.259   4.421  0.3900  1.8496  0.6528
  123SOPE  H13S13112   1.387   4.183   4.449  2.2369 -1.4869 -0.4828
  123SOPE  C21413113   1.423   4.361   4.554  0.5146  0.1781  0.2964
  123SOPE  H14R13114   1.315   4.387   4.551 -0.9515 -4.8322 -2.7001
  123SOPE  H14S13115   1.478   4.456   4.546  4.0151 -1.5655  1.5771
  123SOPE  C21513116   1.451   4.294   4.692  0.4550  0.4592 -0.1699
  123SOPE  H15R13117   1.398   4.197   4.688 -0.0958  0.7792 -0.9021
  123SOPE  H15S13118   1.397   4.350   4.772  1.2749  1.9965 -0.6406
  123SOPE  C21613119   1.604   4.277   4.731 -0.8399  0.0529  0.2480
  123SOPE  H16R13120   1.655   4.371   4.700 -1.9065  0.0912 -1.5682
  123SOPE  H16S13121   1.642   4.204   4.657 -0.8538  1.4866 -1.2480
  123SOPE  C21713122   1.632   4.252   4.878  0.0955 -0.5176 -0.2381
  123SOPE  H17R13123   1.584   4.337   4.930 -0.3795 -0.4910 -0.7149
  123SOPE  H17S13124   1.741   4.251   4.901 -0.0884  0.6531  0.7502
  123SOPE  C21813125   1.580   4.118   4.933  0.0512 -1.0187 -0.2645
  123SOPE  H18R13126   1.569   4.043   4.851 -2.6169 -1.8836  0.7605
  123SOPE  H18S13127   1.477   4.128   4.972  0.4057 -1.3457  0.7899
  123SOPE  H18T13128   1.649   4.081   5.012  2.6545  0.2386 -1.7966
  123SOPE   C3313129   0.921   4.401   3.281  0.0540 -0.1254 -0.3116
  123SOPE   H3X13130   0.927   4.410   3.171  0.1160 -2.7905 -0.6005
  123SOPE   H3Y13131   1.022   4.430   3.320  0.0572  1.0551 -1.1532
  123SOPE   C3413132   0.828   4.508   3.340 -0.6282  0.1313 -0.1867
  123SOPE   H4X13133   0.733   4.504   3.282 -1.9658  1.0694  1.8424
  123SOPE   H4Y13134   0.871   4.608   3.322  2.2634 -1.2692 -1.7619
  123SOPE   C3513135   0.775   4.483   3.477 -0.2215  0.8299 -0.0703
  123SOPE   H5X13136   0.853   4.452   3.550 -1.4432 -3.1057 -0.1994
  123SOPE   H5Y13137   0.701   4.401   3.469 -0.0887  0.5518  1.2533
  123SOPE   C3613138   0.729   4.611   3.549  0.1375 -0.5217  0.5775
  123SOPE   H6X13139   0.682   4.670   3.468 -0.3449 -2.1446 -0.3867
  123SOPE   H6Y13140   0.819   4.670   3.577 -0.2320  0.7229 -0.7435
  123SOPE   C3713141   0.625   4.602   3.660  0.0350  1.4112 -0.2375
  123SOPE   H7X13142   0.532   4.562   3.615  0.8631  0.3232 -1.0311
  123SOPE   H7Y13143   0.596   4.704   3.694 -1.3980  0.4439  1.5919
  123SOPE   C3813144   0.660   4.505   3.768  0.5309  1.0982  0.3837
  123SOPE   H8X13145   0.742   4.537   3.836 -0.1708  1.5902  1.0100
  123SOPE   H8Y13146   0.684   4.406   3.722  0.4118  0.0495  2.4577
  123SOPE   C3913147   0.529   4.478   3.855  0.0683  0.0253  0.0609
  123SOPE   H9X13148   0.442   4.445   3.796  0.1782 -0.9666  0.4351
  123SOPE   H9Y13149   0.501   4.576   3.901  1.1513  0.3038  0.1686
  123SOPE  C31013150   0.556   4.376   3.964 -0.4602 -0.4329  0.9980
  123SOPE  H10X13151   0.643   4.412   4.024  0.3001  1.0733 -0.8936
  123SOPE  H10Y13152   0.576   4.277   3.919 -3.4803 -0.7173  0.0901
  123SOPE  C31113153   0.435   4.372   4.059 -0.4164  0.5131  0.1942
  123SOPE  H11X13154   0.350   4.380   3.987 -0.0184 -3.8266 -1.0902
  123SOPE  H11Y13155   0.435   4.456   4.131 -0.5003 -0.1900  1.0411
  123SOPE  C31213156   0.425   4.241   4.136 -0.0292  0.6104 -0.3188
  123SOPE  H12X13157   0.503   4.227   4.214  0.4081  1.1491 -0.6587
  123SOPE  H12Y13158   0.429   4.149   4.073 -0.0858 -1.5813  2.6232
  123SOPE  C31313159   0.291   4.243   4.212  0.1083  0.7145  0.2389
  123SOPE  H13X13160   0.258   4.138   4.227 -0.0822  0.7812  0.2867
  123SOPE  H13Y13161   0.212   4.297   4.156  0.1364  2.9881  2.2686
  123SOPE  C31413162   0.297   4.297   4.356 -0.3688 -0.5467 -0.0211
  123SOPE  H14X13163   0.334   4.401   4.348 -3.1203  0.5265  0.1260
  123SOPE  H14Y13164   0.358   4.227   4.416  1.4136  2.1131  1.4643
  123SOPE  C31513165   0.159   4.307   4.418 -0.7198 -0.0659 -0.2885
  123SOPE  H15X13166   0.118   4.204   4.420 -0.1179 -0.3479 -1.4327
  123SOPE  H15Y13167   0.094   4.373   4.357 -1.6072 -1.8073 -1.3294
  123SOPE  C31613168   0.168   4.362   4.562 -0.2522  0.2726 -0.1621
  123SOPE  H16X13169   0.230   4.454   4.553  0.3706  0.0365  1.3802
  123SOPE  H16Y13170   0.235   4.292   4.616 -0.0362 -1.1314 -2.1561
  123SOPE  C31713171   0.042   4.380   4.643  0.2954 -0.3615 -0.1361
  123SOPE  H17X13172   0.051   4.436   4.739 -1.0957 -1.1443  0.4652
  123SOPE  H17Y13173   0.008   4.282   4.680  1.3824 -0.7504 -0.1157
  123SOPE  C31813174  -0.072   4.440   4.557  0.4948  0.4187 -0.5840
  123SOPE  H18X13175  -0.034   4.520   4.490  0.1313  1.9232  0.9251
  123SOPE  H18Y13176  -0.154   4.471   4.626  0.4054  1.0515 -0.9636
  123SOPE  H18Z13177  -0.113   4.358   4.495  2.6065  0.5138 -2.1955
  124SOPE     N13178   5.399   4.407   2.858 -0.4664  0.2643  0.7903
  124SOPE   HN113179   5.392   4.421   2.961 -1.8865 -1.7387  1.0279
  124SOPE   HN213180   5.393   4.504   2.821 -3.8679  0.2464  0.9473
  124SOPE   HN313181   5.311   4.358   2.831 -0.6731  1.2608 -0.4344
  124SOPE   C1213182   5.521   4.339   2.809 -0.1878 -0.0051 -0.4795
  124SOPE  H12A13183   5.598   4.418   2.796 -0.1567 -0.0048 -0.2985
  124SOPE  H12B13184   5.502   4.293   2.709  0.0221 -0.5377 -0.2813
  124SOPE   C1113185   5.566   4.231   2.901 -0.6853 -0.2472  0.2846
  124SOPE  H11A13186   5.618   4.287   2.982 -1.8841  1.1773  0.1062
  124SOPE  H11B13187   5.649   4.168   2.861  0.4225 -1.1981  3.7109
  124SOPE     P13188   5.465   3.982   2.921 -0.0852  0.1661  0.3035
  124SOPE   O1313189   5.593   3.933   2.968 -0.8060  0.4960 -0.1501
  124SOPE   O1413190   5.409   3.963   2.784 -0.5117  0.0303  0.2636
  124SOPE   O1213191   5.460   4.141   2.947  0.1657 -0.6559  0.2610
  124SOPE   O1113192   5.355   3.926   3.022  0.4051 -0.3687  0.4968
  124SOPE    C113193   5.372   3.902   3.160  0.1238  0.0363 -0.0789
  124SOPE    HA13194   5.466   3.845   3.174  1.4047  2.5683  2.7501
  124SOPE    HB13195   5.289   3.833   3.182 -0.3917  0.2244 -1.3197
  124SOPE    C213196   5.353   4.031   3.241  0.7039  0.7160  0.1337
  124SOPE    HS13197   5.438   4.100   3.222  0.2154  1.1025 -0.7189
  124SOPE   O2113198   5.343   3.986   3.381  0.7297  0.2657  0.1122
  124SOPE   C2113199   5.456   3.943   3.434 -0.0908  0.4268 -0.1389
  124SOPE   O2213200   5.565   3.948   3.379  0.0583 -0.2146 -0.3805
  124SOPE   C2213201   5.437   3.910   3.587  0.5756 -0.2700  0.3991
  124SOPE   H2R13202   5.353   3.837   3.593 -0.8373  1.3529  1.0532
  124SOPE   H2S13203   5.400   4.006   3.627 -2.7293 -0.5291 -1.6825
  124SOPE    C313204   5.227   4.103   3.196 -0.5328 -0.0713 -0.9544
  124SOPE    HX13205   5.144   4.030   3.206 -0.1246 -0.4555 -0.2379
  124SOPE    HY13206   5.241   4.133   3.090 -1.4650 -1.7518 -1.5949
  124SOPE   O3113207   5.208   4.221   3.280 -0.5768  0.2597  0.1160
  124SOPE   C3113208   5.278   4.326   3.242 -0.0468 -0.1229 -0.3764
  124SOPE   O3213209   5.326   4.352   3.131  0.4784  0.5613 -0.1369
  124SOPE   C3213210   5.308   4.419   3.360 -0.2102  0.3172 -0.5955
  124SOPE   H2X13211   5.216   4.474   3.390  0.2542  1.4363 -1.2032
  124SOPE   H2Y13212   5.375   4.494   3.314  0.1692 -0.3209 -1.1112
  124SOPE   C2313213   5.574   3.870   3.650  0.1624  0.1204  0.5882
  124SOPE   H3R13214   5.641   3.957   3.634 -0.6506  0.2806 -2.5240
  124SOPE   H3S13215   5.612   3.787   3.587 -0.6135  0.6299 -0.5855
  124SOPE   C2413216   5.561   3.843   3.795  0.2499  0.1732 -0.4012
  124SOPE   H4R13217   5.518   3.920   3.863  1.8542  0.6593  0.1071
  124SOPE   H4S13218   5.498   3.753   3.812 -1.8387  1.1472 -2.2872
  124SOPE   C2513219   5.700   3.801   3.844  1.3377 -0.1265  0.1308
  124SOPE   H5R13220   5.753   3.729   3.778  1.9712  1.0633 -0.7111
  124SOPE   H5S13221   5.753   3.898   3.832  3.8070 -1.6334 -2.5298
  124SOPE   C2613222   5.698   3.762   3.998 -0.4729 -0.6534  0.5692
  124SOPE   H6R13223   5.635   3.671   4.005 -1.8224  0.3689  3.3765
  124SOPE   H6S13224   5.803   3.733   4.015 -0.3701 -1.3256 -1.0146
  124SOPE   C2713225   5.657   3.867   4.100  0.2284 -0.4594  0.2607
  124SOPE   H7R13226   5.729   3.952   4.100  0.9702 -1.0330  2.5049
  124SOPE   H7S13227   5.553   3.897   4.074 -0.5263 -2.9466  0.1264
  124SOPE   C2813228   5.648   3.817   4.239  0.3176 -1.0142  0.7153
  124SOPE   H8R13229   5.565   3.744   4.247  0.1060 -0.8465  0.1123
  124SOPE   H8S13230   5.744   3.770   4.269  0.9542 -0.3192 -0.2024
  124SOPE   C2913231   5.616   3.932   4.331 -0.1495  0.6647  0.0881
  124SOPE   H9113232   5.513   3.969   4.318 -0.1791  1.3199  1.9740
  124SOPE  C21013233   5.689   3.986   4.428  0.0862  0.3604  0.8469
  124SOPE  H10113234   5.644   4.072   4.480  0.5798  1.1770 -0.0507
  124SOPE  C21113235   5.826   3.940   4.477  0.5279 -0.0289  0.2091
  124SOPE  H11R13236   5.907   3.991   4.420  0.4385  0.1094  0.2065
  124SOPE  H11S13237   5.837   3.830   4.460 -1.2287 -0.3241  0.7878
  124SOPE  C21213238   5.837   3.955   4.630 -0.1182 -0.0417 -0.2377
  124SOPE  H12R13239   5.812   4.056   4.669  0.5309 -0.0031  0.0843
  124SOPE  H12S13240   5.941   3.922   4.648 -0.4506 -1.0459 -0.0894
  124SOPE  C21313241   5.744   3.862   4.714  0.3803 -0.0265  0.4708
  124SOPE  H13R13242   5.748   3.757   4.679  4.5349  0.3861 -0.8305
  124SOPE  H13S13243   5.642   3.905   4.704  1.8863  3.6541 -1.1989
  124SOPE  C21413244   5.793   3.859   4.865 -0.4303  0.2592  1.1344
  124SOPE  H14R13245   5.853   3.951   4.877 -2.0761  1.6853 -0.8454
  124SOPE  H14S13246   5.862   3.776   4.892 -1.9373 -0.8269  1.7865
  124SOPE  C21513247   5.671   3.857   4.955 -0.3710  0.5186  0.6474
  124SOPE  H15R13248   5.593   3.782   4.932  2.3393 -1.7454 -1.9152
  124SOPE  H15S13249   5.614   3.951   4.943  0.2069  0.8735  0.6546
  124SOPE  C21613250   5.710   3.866   5.109 -0.2592 -0.1199  0.3416
  124SOPE  H16R13251   5.788   3.788   5.118 -0.0797  0.1675  1.4560
  124SOPE  H16S13252   5.616   3.833   5.158  0.8017  1.2891  3.6019
  124SOPE  C21713253   5.756   4.001   5.148  0.3088 -0.2240 -0.2779
  124SOPE  H17R13254   5.697   4.089   5.114 -0.8645  0.5579  3.3383
  124SOPE  H17S13255   5.863   4.011   5.119  1.0576  0.4093  2.4173
  124SOPE  C21813256   5.760   4.009   5.300  0.3902  0.0175 -0.0164
  124SOPE  H18R13257   5.821   3.920   5.330  0.0447 -0.0992  0.3393
  124SOPE  H18S13258   5.661   3.996   5.348 -0.1829  1.8495 -0.6414
  124SOPE  H18T13259   5.813   4.097   5.343  2.4698 -1.6715  1.0877
  124SOPE   C3313260   5.368   4.342   3.469 -0.1469  0.1376 -0.1970
  124SOPE   H3X13261   5.452   4.278   3.436  2.0545  1.1436  3.0331
  124SOPE   H3Y13262   5.301   4.271   3.521  2.1666 -1.3152  0.9425
  124SOPE   C3413263   5.426   4.430   3.582 -0.9633 -0.5128  0.1220
  124SOPE   H4X13264   5.353   4.505   3.619 -2.5970 -1.7438 -0.4969
  124SOPE   H4Y13265   5.513   4.489   3.546 -0.9364  0.3560  1.5450
  124SOPE   C3513266   5.459   4.347   3.711 -0.0076 -0.1093 -0.2043
  124SOPE   H5X13267   5.373   4.278   3.724 -0.9647  0.6871 -1.8690
  124SOPE   H5Y13268   5.449   4.410   3.801  2.1628 -1.7832  1.3097
  124SOPE   C3613269   5.593   4.278   3.718  1.1785 -0.5628  0.5780
  124SOPE   H6X13270   5.672   4.350   3.687 -0.7343  1.5098  0.2632
  124SOPE   H6Y13271   5.601   4.202   3.638 -0.1533 -1.4067  1.2137
  124SOPE   C3713272   5.620   4.213   3.854 -0.5245  0.0044  0.5139
  124SOPE   H7X13273   5.706   4.146   3.831  0.1144  1.5411 -1.9651
  124SOPE   H7Y13274   5.539   4.143   3.887  1.2690 -1.6783  1.6003
  124SOPE   C3813275   5.647   4.314   3.964  0.0357  0.1476  0.1062
  124SOPE   H8X13276   5.580   4.403   3.961 -1.3100 -0.8466 -1.0080
  124SOPE   H8Y13277   5.746   4.357   3.936  0.2077 -1.0152 -1.1483
  124SOPE   C3913278   5.656   4.260   4.108 -0.3488  0.4454  0.6671
  124SOPE   H9X13279   5.733   4.180   4.101 -1.3428 -0.7552  2.5127
  124SOPE   H9Y13280   5.561   4.214   4.143 -0.0117  0.9125  2.2345
  124SOPE  C31013281   5.713   4.363   4.208 -0.6245  0.1107  0.8085
  124SOPE  H10X13282   5.641   4.446   4.220 -0.0543  0.7243  0.0681
  124SOPE  H10Y13283   5.805   4.408   4.164  0.4489 -0.9807  1.8540
  124SOPE  C31113284   5.738   4.304   4.345 -0.4806 -0.2637 -0.3620
  124SOPE  H11X13285   5.818   4.227   4.344 -2.6223 -2.7121  1.5776
  124SOPE  H11Y13286   5.645   4.262   4.389 -0.2585  0.6224  1.0112
  124SOPE  C31213287   5.785   4.413   4.449 -0.1526  0.7268  0.2874
  124SOPE  H12X13288   5.694   4.473   4.473 -1.2563 -0.4597 -0.7620
  124SOPE  H12Y13289   5.858   4.478   4.396 -2.7566  0.2040 -4.4948
  124SOPE  C31313290   5.828   4.347   4.579 -0.6529 -0.0901 -0.1523
  124SOPE  H13X13291   5.887   4.254   4.563 -0.0118  0.5463 -1.6946
  124SOPE  H13Y13292   5.742   4.321   4.643 -0.9247 -0.3503 -0.6203
  124SOPE  C31413293   5.922   4.429   4.674 -0.5624  0.6072 -0.2806
  124SOPE  H14X13294   5.868   4.520   4.709  0.4195  1.7455 -1.6207
  124SOPE  H14Y13295   6.014   4.458   4.620 -0.6651  2.9494  0.6764
  124SOPE  C31513296   5.969   4.346   4.799  0.0165 -0.9395 -0.0703
  124SOPE  H15X13297   5.997   4.244   4.763 -1.2564 -1.3568  0.0684
  124SOPE  H15Y13298   5.876   4.338   4.860 -0.4732  0.8221 -0.5264
  124SOPE  C31613299   6.087   4.415   4.868 -0.3974  0.3001  0.0578
  124SOPE  H16X13300   6.050   4.519   4.881 -2.5138 -0.5241  1.2956
  124SOPE  H16Y13301   6.183   4.404   4.814 -0.9071  2.0695 -1.2992
  124SOPE  C31713302   6.116   4.364   5.011 -0.7245 -0.5943  0.4923
  124SOPE  H17X13303   6.162   4.263   4.998 -0.9952 -0.7404  0.6749
  124SOPE  H17Y13304   6.019   4.347   5.063 -3.0269  2.0299 -2.5266
  124SOPE  C31813305   6.201   4.465   5.095 -0.0978 -0.7410 -0.2833
  124SOPE  H18X13306   6.136   4.553   5.116 -2.0151 -1.8709 -1.1420
  124SOPE  H18Y13307   6.293   4.501   5.045  0.7606 -1.6765  0.5687
  124SOPE  H18Z13308   6.242   4.424   5.190 -0.7472 -1.5992 -0.3556
  125SOPE     N13309   4.888   0.142   2.284  0.2356  0.2352  0.1221
  125SOPE   HN113310   4.930   0.047   2.278 -0.7190 -0.3177  1.5431
  125SOPE   HN213311   4.791   0.129   2.247  0.2042  1.0783 -0.1123
  125SOPE   HN313312   4.943   0.219   2.242 -2.0819  1.8976 -0.0610
  125SOPE   C1213313   4.883   0.166   2.429  0.3041 -0.8479  1.0203
  125SOPE  H12A13314   4.786   0.117   2.452 -1.4991 -0.5334 -4.5120
  125SOPE  H12B13315   4.858   0.273   2.443 -0.9849 -1.2597  1.9997
  125SOPE   C1113316   5.016   0.119   2.493 -0.3408 -0.1213  0.1635
  125SOPE  H11A13317   5.030   0.126   2.603  1.1821  0.4210 -0.0405
  125SOPE  H11B13318   5.090   0.189   2.449  1.7284 -0.7385  2.4526
  125SOPE     P13319   5.179  -0.090   2.458  0.4300 -0.1323 -0.0325
  125SOPE   O1313320   5.282  -0.013   2.530  0.2865 -0.3767 -0.3539
  125SOPE   O1413321   5.206  -0.112   2.313 -0.5773  0.2049 -0.2345
  125SOPE   O1213322   5.036  -0.019   2.460 -0.3261  0.1135 -0.0110
  125SOPE   O1113323   5.150  -0.237   2.520 -0.2732 -0.2725  0.5824
  125SOPE    C113324   5.244  -0.305   2.600 -0.1738 -0.4338 -0.3310
  125SOPE    HA13325   5.350  -0.302   2.567 -0.1224  0.3272 -0.0981
  125SOPE    HB13326   5.211  -0.411   2.589  0.4555 -1.0957  3.1921
  125SOPE    C213327   5.236  -0.276   2.750  0.3088  0.5181 -0.2078
  125SOPE    HS13328   5.149  -0.317   2.804  1.7354  0.9215  2.5985
  125SOPE   O2113329   5.257  -0.138   2.776  0.1935 -0.6639  0.1296
  125SOPE   C2113330   5.144  -0.070   2.804  0.5876  0.0396 -0.9871
  125SOPE   O2213331   5.027  -0.117   2.802 -0.1048  0.3570  0.4192
  125SOPE   C2213332   5.185   0.073   2.853  0.2068  0.0932  0.4146
  125SOPE   H2R13333   5.090   0.130   2.858  0.4970  0.6019  0.1944
  125SOPE   H2S13334   5.261   0.123   2.790 -0.0596  1.0754  0.8582
  125SOPE    C313335   5.364  -0.349   2.815  0.4967 -0.1880 -0.4209
  125SOPE    HX13336   5.461  -0.302   2.786  0.2627 -1.0004 -2.6736
  125SOPE    HY13337   5.371  -0.455   2.783  3.0336 -0.9902  2.2911
  125SOPE   O3113338   5.358  -0.345   2.963  0.5767  0.4687 -0.7204
  125SOPE   C3113339   5.475  -0.370   3.019  0.9045 -0.1519 -0.7435
  125SOPE   O3213340   5.577  -0.394   2.957 -0.1830 -0.3749 -0.1747
  125SOPE   C3213341   5.450  -0.387   3.169  0.1844  0.7255  0.4348
  125SOPE   H2X13342   5.403  -0.488   3.181 -0.3108  1.0798  1.6226
  125SOPE   H2Y13343   5.373  -0.309   3.190  2.0610  2.5739  0.7124
  125SOPE   C2313344   5.256   0.073   2.998  0.2012  0.1437 -0.4741
  125SOPE   H3R13345   5.307   0.171   2.996  2.4147 -0.9539 -0.2748
  125SOPE   H3S13346   5.318  -0.017   3.020  0.1437  0.7663  2.6749
  125SOPE   C2413347   5.150   0.079   3.114  0.3190  0.1388 -0.2717
  125SOPE   H4R13348   5.058   0.028   3.080 -0.0766  1.3818 -1.1138
  125SOPE   H4S13349   5.191   0.018   3.198 -1.9892 -0.0952  0.7728
  125SOPE   C2513350   5.115   0.218   3.164  0.2027 -0.0119 -0.1654
  125SOPE   H5R13351   5.207   0.278   3.147  0.3441 -0.4346 -0.9502
  125SOPE   H5S13352   5.044   0.261   3.091 -1.0419  3.4923  2.7711
  125SOPE   C2613353   5.056   0.238   3.304 -0.3767  0.1977 -0.6944
  125SOPE   H6R13354   5.056   0.342   3.344 -0.9406  1.0628 -2.7699
  125SOPE   H6S13355   4.951   0.201   3.296 -0.4257  0.6103 -2.2898
  125SOPE   C2713356   5.112   0.147   3.418  0.7168 -0.6070  0.0035
  125SOPE   H7R13357   5.081   0.044   3.391  0.3914  0.0878 -2.5677
  125SOPE   H7S13358   5.222   0.155   3.426  0.8626  0.9644 -2.3228
  125SOPE   C2813359   5.070   0.189   3.563 -0.1450  0.0163 -0.2382
  125SOPE   H8R13360   5.116   0.123   3.639 -2.2794 -0.1702  0.9658
  125SOPE   H8S13361   5.109   0.292   3.581  1.1146 -0.8165  2.1849
  125SOPE   C2913362   4.919   0.181   3.599 -0.1770 -0.5485  1.0893
  125SOPE   H9113363   4.856   0.139   3.518 -2.0145  2.7774  0.5914
  125SOPE  C21013364   4.868   0.203   3.721  0.7058 -0.4837 -0.6191
  125SOPE  H10113365   4.762   0.180   3.735 -0.2975  2.2226 -2.7734
  125SOPE  C21113366   4.954   0.236   3.837  0.1004  0.0719 -0.2769
  125SOPE  H11R13367   4.889   0.301   3.899  0.0109 -0.1966 -0.0873
  125SOPE  H11S13368   5.042   0.300   3.816  0.1048  0.2189  0.1892
  125SOPE  C21213369   4.997   0.108   3.901 -0.1442 -0.0093 -0.0098
  125SOPE  H12R13370   5.049   0.052   3.820 -1.9855  0.9871 -1.9963
  125SOPE  H12S13371   4.907   0.049   3.929  0.1831 -0.0261  1.0293
  125SOPE  C21313372   5.093   0.132   4.020  0.9451 -0.0493 -0.2509
  125SOPE  H13R13373   5.097   0.038   4.079  1.0161 -0.1692 -0.4449
  125SOPE  H13S13374   5.051   0.210   4.086 -0.0733 -0.0318 -0.8971
  125SOPE  C21413375   5.239   0.169   3.981 -0.1147  0.1914 -0.2773
  125SOPE  H14R13376   5.245   0.267   3.928  0.4842  1.1408  1.4442
  125SOPE  H14S13377   5.256   0.090   3.905 -0.1837 -0.7797  0.6992
  125SOPE  C21513378   5.342   0.150   4.101  0.0081 -0.0844 -0.2299
  125SOPE  H15R13379   5.446   0.143   4.062 -0.9642 -1.6665 -2.7981
  125SOPE  H15S13380   5.329   0.051   4.150  3.3133 -1.0989 -1.1715
  125SOPE  C21613381   5.324   0.257   4.218 -0.7945 -0.3515 -0.3014
  125SOPE  H16R13382   5.238   0.228   4.281 -0.3246 -2.3986 -0.4991
  125SOPE  H16S13383   5.308   0.357   4.173 -2.3728  0.8341  2.6676
  125SOPE  C21713384   5.440   0.277   4.315  0.1416  0.4236 -0.2048
  125SOPE  H17R13385   5.426   0.378   4.359  0.7102  0.9324 -1.1615
  125SOPE  H17S13386   5.537   0.287   4.262  0.3162  1.1944  0.2500
  125SOPE  C21813387   5.458   0.164   4.424  0.6119  0.4755 -0.3135
  125SOPE  H18R13388   5.559   0.176   4.469  1.0135 -0.9679 -0.7685
  125SOPE  H18S13389   5.435   0.062   4.388  0.4943  0.8529 -1.3751
  125SOPE  H18T13390   5.384   0.181   4.505  0.4001  3.0870 -0.9321
  125SOPE   C3313391   5.573  -0.359   3.252 -0.1516 -0.4881 -0.5624
  125SOPE   H3X13392   5.656  -0.322   3.188  0.6199 -2.4421 -0.7450
  125SOPE   H3Y13393   5.595  -0.461   3.291  1.7900 -1.2183 -3.2671
  125SOPE   C3413394   5.541  -0.255   3.363 -0.6134 -0.0360  0.4762
  125SOPE   H4X13395   5.622  -0.256   3.438 -0.3597  0.4409  0.2107
  125SOPE   H4Y13396   5.450  -0.280   3.422  0.9539 -0.7195  2.7537
  125SOPE   C3513397   5.534  -0.114   3.309 -0.3056 -0.4220  0.4899
  125SOPE   H5X13398   5.454  -0.100   3.234 -1.4411 -1.6780  1.4101
  125SOPE   H5Y13399   5.632  -0.087   3.264  0.3317 -0.9879  1.4862
  125SOPE   C3613400   5.518  -0.010   3.416 -0.4594  0.3008 -0.1850
  125SOPE   H6X13401   5.577  -0.039   3.506 -0.2815  0.1604 -0.3434
  125SOPE   H6Y13402   5.412  -0.004   3.448 -0.5408  0.9968 -0.5763
  125SOPE   C3713403   5.558   0.138   3.376  0.0568  0.5562  0.1839
  125SOPE   H7X13404   5.488   0.171   3.297  1.5290  1.2621 -0.8687
  125SOPE   H7Y13405   5.663   0.133   3.340  1.3526  0.2279  3.5969
  125SOPE   C3813406   5.536   0.239   3.486 -0.0951  0.6457 -0.2763
  125SOPE   H8X13407   5.427   0.237   3.505 -0.0417  0.1727  0.0005
  125SOPE   H8Y13408   5.567   0.341   3.454  1.4683  0.3538  0.1832
  125SOPE   C3913409   5.608   0.202   3.610  0.1593 -0.1318 -0.5861
  125SOPE   H9X13410   5.718   0.189   3.607  0.2022 -0.3203  0.8503
  125SOPE   H9Y13411   5.567   0.111   3.660  4.3237 -1.5347  0.7090
  125SOPE  C31013412   5.588   0.321   3.707 -0.7445 -0.3820 -0.0784
  125SOPE  H10X13413   5.481   0.350   3.718 -1.1392 -1.8504  0.1408
  125SOPE  H10Y13414   5.644   0.409   3.669  0.8722 -1.3444  0.0291
  125SOPE  C31113415   5.643   0.288   3.842 -0.1636  0.1019  0.0542
  125SOPE  H11X13416   5.745   0.244   3.834  0.7358  1.8107  1.4570
  125SOPE  H11Y13417   5.579   0.210   3.889  2.4923 -2.8964 -0.9201
  125SOPE  C31213418   5.637   0.416   3.932 -0.2849 -0.2660 -0.9143
  125SOPE  H12X13419   5.530   0.437   3.952 -0.3239  0.4571 -1.7925
  125SOPE  H12Y13420   5.684   0.502   3.879 -0.9118  1.6017  1.3512
  125SOPE  C31313421   5.715   0.400   4.064 -0.5562 -0.0181  0.4141
  125SOPE  H13X13422   5.823   0.410   4.040 -0.4411  1.2453  1.4137
  125SOPE  H13Y13423   5.696   0.297   4.103 -3.0629 -1.1949 -3.2999
  125SOPE  C31413424   5.686   0.512   4.163 -0.3231 -0.8765  0.2005
  125SOPE  H14X13425   5.580   0.502   4.195 -0.4915  0.7331  0.2462
  125SOPE  H14Y13426   5.701   0.614   4.122  0.9824 -1.0200  0.2639
  125SOPE  C31513427   5.778   0.499   4.288  0.1687  0.3674 -0.5408
  125SOPE  H15X13428   5.878   0.537   4.258  0.4318  0.2303  0.1279
  125SOPE  H15Y13429   5.792   0.394   4.323 -0.8595  0.2980 -0.3107
  125SOPE  C31613430   5.716   0.580   4.411 -0.0119 -0.0248 -0.5280
  125SOPE  H16X13431   5.615   0.546   4.442  0.4455 -1.7007 -0.7640
  125SOPE  H16Y13432   5.707   0.690   4.394 -0.4854  0.0991  0.4667
  125SOPE  C31713433   5.803   0.568   4.533 -0.5847 -0.1278 -0.1440
  125SOPE  H17X13434   5.792   0.649   4.608 -1.0252  0.0317 -0.3793
  125SOPE  H17Y13435   5.905   0.576   4.489 -0.7040 -1.7108 -0.8004
  125SOPE  C31813436   5.789   0.431   4.603 -0.3800  0.0369  0.7787
  125SOPE  H18X13437   5.693   0.417   4.657 -0.7419 -2.1223 -0.3061
  125SOPE  H18Y13438   5.876   0.435   4.672  1.0715 -0.0247 -0.9666
  125SOPE  H18Z13439   5.805   0.346   4.533 -0.0802  1.1864 -0.5796
  126SOPE     N13440   0.591   3.499   2.171  0.4353  0.2020  0.8780
  126SOPE   HN113441   0.526   3.555   2.230 -1.0599 -1.4598  0.8789
  126SOPE   HN213442   0.671   3.550   2.129  0.7643 -1.4349 -0.5593
  126SOPE   HN313443   0.540   3.455   2.093 -1.1801 -0.4755  2.2482
  126SOPE   C1213444   0.641   3.381   2.251 -0.5545 -0.2791  0.0173
  126SOPE  H12A13445   0.749   3.399   2.267 -0.1386 -2.7375  0.3193
  126SOPE  H12B13446   0.620   3.292   2.188  1.2193 -1.9641  1.6784
  126SOPE   C1113447   0.558   3.358   2.377  0.0565  0.2025  0.3100
  126SOPE  H11A13448   0.593   3.273   2.439 -5.2719 -2.2030  0.5549
  126SOPE  H11B13449   0.462   3.322   2.335  1.8934 -2.8608 -1.6418
  126SOPE     P13450   0.500   3.479   2.602  0.1663  0.0056 -0.3109
  126SOPE   O1313451   0.413   3.594   2.633 -0.4963 -0.5400  0.3051
  126SOPE   O1413452   0.636   3.475   2.672  0.4628 -0.1223  0.8673
  126SOPE   O1213453   0.532   3.483   2.448  0.4515 -0.3385  0.2707
  126SOPE   O1113454   0.419   3.344   2.609 -0.6823  0.4341 -0.2842
  126SOPE    C113455   0.277   3.334   2.639 -0.3785 -0.2338 -0.2530
  126SOPE    HA13456   0.246   3.233   2.603  2.3856 -0.9179 -0.9956
  126SOPE    HB13457   0.215   3.400   2.574 -2.7796 -1.6203  0.5220
  126SOPE    C213458   0.254   3.351   2.785  0.4242  0.0593 -0.4064
  126SOPE    HS13459   0.295   3.446   2.827  3.6853 -0.4656 -2.0983
  126SOPE   O2113460   0.312   3.239   2.856 -0.2637  0.3081  0.0847
  126SOPE   C2113461   0.392   3.266   2.957 -0.1342 -0.0258 -0.3751
  126SOPE   O2213462   0.407   3.379   3.008 -0.4215 -0.5446 -0.0076
  126SOPE   C2213463   0.449   3.135   3.009  0.1542  0.0630  0.2036
  126SOPE   H2R13464   0.504   3.073   2.935 -0.9172 -3.1600  1.8950
  126SOPE   H2S13465   0.364   3.074   3.048 -0.5696  0.9876  0.1239
  126SOPE    C313466   0.098   3.357   2.822 -0.2671 -0.1306 -0.3540
  126SOPE    HX13467   0.055   3.258   2.794 -2.1033  0.2867  0.8640
  126SOPE    HY13468   0.051   3.433   2.756 -1.2250 -0.9014 -0.5794
  126SOPE   O3113469   0.067   3.387   2.964 -0.3793  0.5973 -0.2525
  126SOPE   C3113470   0.085   3.512   3.004 -0.1969 -0.3373 -0.1241
  126SOPE   O3213471   0.113   3.608   2.929 -0.2073  0.2387 -0.4298
  126SOPE   C3213472   0.034   3.520   3.151  0.5561 -0.4094  1.0693
  126SOPE   H2X13473  -0.015   3.435   3.203  0.9876  0.6082  3.2386
  126SOPE   H2Y13474  -0.043   3.601   3.151 -1.2591 -2.0378  0.4733
  126SOPE   C2313475   0.555   3.169   3.118 -0.4875  0.0919 -0.7161
  126SOPE   H3R13476   0.632   3.242   3.086 -0.6491 -0.1241 -1.6438
  126SOPE   H3S13477   0.609   3.074   3.141 -0.8157  0.5308  2.2385
  126SOPE   C2413478   0.489   3.213   3.250 -0.3707 -0.2966 -1.0640
  126SOPE   H4R13479   0.450   3.317   3.246 -1.9245 -0.8662 -1.7844
  126SOPE   H4S13480   0.403   3.144   3.259  0.8546 -1.7262  0.0704
  126SOPE   C2513481   0.588   3.191   3.365  0.0579 -0.3640  0.2956
  126SOPE   H5R13482   0.606   3.082   3.379 -0.3116 -0.3176  1.1625
  126SOPE   H5S13483   0.686   3.243   3.352  0.2660 -0.8982 -0.4042
  126SOPE   C2613484   0.528   3.243   3.501 -0.0362  0.0688 -0.3097
  126SOPE   H6R13485   0.438   3.180   3.522  1.0987 -2.5558 -2.6055
  126SOPE   H6S13486   0.597   3.223   3.585  1.6673  0.6945 -1.5024
  126SOPE   C2713487   0.485   3.386   3.490  0.3171  0.1043  0.2410
  126SOPE   H7R13488   0.570   3.441   3.443 -1.3636  1.2987 -1.5531
  126SOPE   H7S13489   0.392   3.398   3.430  0.7484  0.9485 -0.2758
  126SOPE   C2813490   0.442   3.445   3.627 -0.0743 -0.6344 -0.2854
  126SOPE   H8R13491   0.414   3.550   3.602  1.6958 -0.1893 -0.5500
  126SOPE   H8S13492   0.348   3.398   3.664 -0.0312  0.1298  0.8559
  126SOPE   C2913493   0.546   3.452   3.738  0.4753 -0.1738 -0.1450
  126SOPE   H9113494   0.632   3.516   3.714 -0.2873 -0.1205 -3.0689
  126SOPE  C21013495   0.540   3.398   3.856  0.1199 -0.1191 -0.1334
  126SOPE  H10113496   0.630   3.411   3.918  0.4237 -0.3204 -0.5253
  126SOPE  C21113497   0.428   3.324   3.923  0.7020  0.0310 -0.4263
  126SOPE  H11R13498   0.345   3.319   3.849 -1.5121 -0.0831  1.9064
  126SOPE  H11S13499   0.377   3.378   4.006  0.5371  0.1575 -0.6084
  126SOPE  C21213500   0.443   3.177   3.973  0.4249  0.4633  0.3223
  126SOPE  H12R13501   0.505   3.124   3.899 -2.5207 -1.3172 -1.0488
  126SOPE  H12S13502   0.346   3.124   3.985  1.3142 -0.7921  2.7372
  126SOPE  C21313503   0.518   3.179   4.110  1.0804  0.2783 -0.1761
  126SOPE  H13R13504   0.459   3.245   4.178 -3.4513 -1.5647 -1.9213
  126SOPE  H13S13505   0.618   3.221   4.088  0.7900  1.6179  0.8662
  126SOPE  C21413506   0.526   3.034   4.166 -0.2572 -0.7490 -0.2581
  126SOPE  H14R13507   0.558   2.970   4.081  0.1595  0.5712 -1.1306
  126SOPE  H14S13508   0.426   2.996   4.196 -0.5034 -2.2897 -2.7921
  126SOPE  C21513509   0.626   3.030   4.285 -0.2189 -0.0920  0.3246
  126SOPE  H15R13510   0.728   3.067   4.262 -0.4724  0.1057 -0.4929
  126SOPE  H15S13511   0.652   2.922   4.298 -0.4775  0.0997  3.2705
  126SOPE  C21613512   0.570   3.068   4.428  0.0145 -0.1902 -1.0087
  126SOPE  H16R13513   0.490   2.996   4.456  0.0792  0.3876  0.7914
  126SOPE  H16S13514   0.539   3.174   4.422  0.8092  0.2805  1.8533
  126SOPE  C21713515   0.679   3.070   4.543  0.0136 -0.4032  0.5354
  126SOPE  H17R13516   0.635   3.126   4.628  2.0082  0.7388  0.8778
  126SOPE  H17S13517   0.758   3.135   4.501 -2.0518  1.9263  0.0212
  126SOPE  C21813518   0.731   2.930   4.587 -0.0515  0.9772  0.1982
  126SOPE  H18R13519   0.653   2.853   4.609  0.7004  0.8628  2.7511
  126SOPE  H18S13520   0.791   2.950   4.678 -0.5498 -1.1730  1.0654
  126SOPE  H18T13521   0.806   2.894   4.513 -0.7287  4.4157 -2.4477
  126SOPE   C3313522   0.159   3.553   3.234  0.7401 -0.3591 -0.2491
  126SOPE   H3X13523   0.214   3.637   3.186 -1.1469  1.6868  0.9478
  126SOPE   H3Y13524   0.212   3.457   3.252  1.9554  0.3047 -0.1971
  126SOPE   C3413525   0.105   3.601   3.375 -0.1027 -0.3843 -0.5066
  126SOPE   H4X13526   0.035   3.688   3.372  1.0837  0.6592  0.6264
  126SOPE   H4Y13527   0.194   3.641   3.429 -1.1305 -0.8475  1.6204
  126SOPE   C3513528   0.036   3.484   3.453 -0.0982 -0.0302 -0.5220
  126SOPE   H5X13529   0.102   3.396   3.440  0.6952  0.7704 -2.3439
  126SOPE   H5Y13530  -0.065   3.464   3.412 -2.2927 -0.8411  4.5304
  126SOPE   C3613531   0.016   3.521   3.605  0.0906  0.2518 -0.9523
  126SOPE   H6X13532  -0.072   3.589   3.609  0.1478  0.3359  2.9258
  126SOPE   H6Y13533   0.101   3.575   3.653 -0.6192 -1.3837  2.5322
  126SOPE   C3713534  -0.030   3.403   3.689  0.0287  0.0770 -0.4644
  126SOPE   H7X13535   0.025   3.311   3.657 -2.5778 -1.3243 -1.1594
  126SOPE   H7Y13536  -0.134   3.374   3.664  0.3377 -0.2484 -1.3998
  126SOPE   C3813537  -0.019   3.435   3.838 -0.1194 -0.2972  0.0070
  126SOPE   H8X13538  -0.103   3.502   3.867 -1.2028 -1.9633  0.9452
  126SOPE   H8Y13539   0.077   3.484   3.862 -1.5098  2.9635 -0.6435
  126SOPE   C3913540  -0.025   3.314   3.926 -0.5280  0.3829 -0.5634
  126SOPE   H9X13541   0.075   3.283   3.964 -1.3654 -1.2584  0.4247
  126SOPE   H9Y13542  -0.071   3.227   3.874 -1.3359 -1.0347  2.3112
  126SOPE  C31013543  -0.093   3.332   4.061  0.1189  0.1199  0.4657
  126SOPE  H10X13544  -0.089   3.236   4.118 -2.0077 -1.0180 -1.1095
  126SOPE  H10Y13545  -0.200   3.354   4.039  0.4577  2.1241  0.6786
  126SOPE  C31113546  -0.032   3.441   4.146 -0.0512 -0.4211  0.0346
  126SOPE  H11X13547  -0.083   3.441   4.245 -2.1474 -2.5169 -0.9557
  126SOPE  H11Y13548  -0.062   3.538   4.099 -0.0701 -0.5553 -0.2327
  126SOPE  C31213549   0.118   3.432   4.168  0.0918  0.7343  0.9784
  126SOPE  H12X13550   0.186   3.463   4.086 -0.7524  3.0320  1.0539
  126SOPE  H12Y13551   0.139   3.328   4.200 -1.7370  0.2258  0.6327
  126SOPE  C31313552   0.159   3.517   4.289 -0.8798 -0.6896 -0.2946
  126SOPE  H13X13553   0.106   3.478   4.379 -0.4873 -2.0098 -0.6129
  126SOPE  H13Y13554   0.140   3.626   4.274 -0.2726 -0.3348  1.3250
  126SOPE  C31413555   0.312   3.499   4.332  0.1632 -1.3349  0.4437
  126SOPE  H14X13556   0.378   3.525   4.246 -2.6774 -0.1579 -1.5246
  126SOPE  H14Y13557   0.327   3.391   4.351 -1.7241 -1.5154  1.0150
  126SOPE  C31513558   0.337   3.590   4.463  0.1206 -0.3536 -0.3709
  126SOPE  H15X13559   0.282   3.547   4.550  0.9626 -0.9306 -0.1183
  126SOPE  H15Y13560   0.308   3.697   4.453 -2.9870 -1.1632 -1.0967
  126SOPE  C31613561   0.483   3.598   4.500 -0.0929 -0.2516 -0.8789
  126SOPE  H16X13562   0.488   3.628   4.607  1.9139 -2.1690 -0.3616
  126SOPE  H16Y13563   0.533   3.675   4.438  0.1011  1.2830  1.0772
  126SOPE  C31713564   0.560   3.464   4.501  0.3171  0.0809  0.1928
  126SOPE  H17X13565   0.562   3.429   4.396  0.8778  0.7947 -0.0437
  126SOPE  H17Y13566   0.503   3.384   4.552 -1.9264  1.0281 -0.6871
  126SOPE  C31813567   0.697   3.489   4.543 -0.0163 -0.7572  0.7034
  126SOPE  H18X13568   0.744   3.566   4.478  1.0869 -1.7742  0.2374
  126SOPE  H18Y13569   0.756   3.401   4.509  2.1460  1.0498 -0.5248
  126SOPE  H18Z13570   0.709   3.502   4.652 -0.0443 -1.9047  0.8607
  127SOPE     N13571   1.930   5.363   2.583 -0.0725 -0.4455 -0.8063
  127SOPE   HN113572   1.898   5.380   2.486 -1.1767 -1.9125 -0.7394
  127SOPE   HN213573   2.033   5.366   2.594 -0.0702  0.2330 -0.9589
  127SOPE   HN313574   1.903   5.265   2.608 -0.4966 -0.2629 -0.5389
  127SOPE   C1213575   1.875   5.472   2.669 -0.0750 -0.5698  0.0438
  127SOPE  H12A13576   1.946   5.555   2.650  0.0237 -1.0364 -1.7991
  127SOPE  H12B13577   1.870   5.434   2.774  2.1015 -1.2912 -0.0626
  127SOPE   C1113578   1.731   5.517   2.636 -0.0307  0.5449 -0.0421
  127SOPE  H11A13579   1.710   5.610   2.693  0.8088 -0.1728  1.4933
  127SOPE  H11B13580   1.660   5.439   2.673 -5.1597  3.5300 -2.5213
  127SOPE     P13581   1.573   5.533   2.436 -0.1855 -0.0972 -0.2636
  127SOPE   O1313582   1.522   5.393   2.412 -0.2443 -0.5810  0.2017
  127SOPE   O1413583   1.585   5.633   2.328  0.3176 -0.2934 -0.3595
  127SOPE   O1213584   1.717   5.535   2.495  0.1400  0.1292  0.0890
  127SOPE   O1113585   1.493   5.588   2.560  0.0376  0.4284  0.0369
  127SOPE    C113586   1.394   5.688   2.532  0.5730 -0.0786  0.0622
  127SOPE    HA13587   1.304   5.671   2.593  0.5900 -0.5459 -0.0365
  127SOPE    HB13588   1.358   5.689   2.427 -1.9890  0.7540  0.8931
  127SOPE    C213589   1.438   5.832   2.573 -0.3499 -0.1792 -0.1691
  127SOPE    HS13590   1.513   5.866   2.499  0.5250 -1.0644  0.2936
  127SOPE   O2113591   1.501   5.832   2.701  0.5621  0.5293 -0.0899
  127SOPE   C2113592   1.596   5.915   2.728 -0.1088  0.6608  0.5676
  127SOPE   O2213593   1.647   5.992   2.657 -0.5721  0.3553  0.8602
  127SOPE   C2213594   1.637   5.893   2.872  0.4174  0.2732  0.4146
  127SOPE   H2R13595   1.746   5.871   2.879  0.6601  0.6536 -1.5178
  127SOPE   H2S13596   1.587   5.806   2.918  0.8939 -0.0704  0.2923
  127SOPE    C313597   1.324   5.932   2.575  0.5679  0.0783  0.2596
  127SOPE    HX13598   1.282   5.948   2.474 -0.0535  1.5217  0.7203
  127SOPE    HY13599   1.359   6.030   2.613  0.7209 -0.0775  0.5289
  127SOPE   O3113600   1.209   5.879   2.647 -0.5838 -0.0208 -0.1504
  127SOPE   C3113601   1.206   5.900   2.776 -0.3508 -0.3670 -0.4590
  127SOPE   O3213602   1.273   5.985   2.839  0.2238  0.0808 -0.3591
  127SOPE   C3213603   1.088   5.822   2.840 -0.3825  0.3525 -0.1277
  127SOPE   H2X13604   1.065   5.737   2.772 -0.6708  0.6976 -0.4608
  127SOPE   H2Y13605   0.999   5.887   2.847 -0.0588  0.9265 -1.1503
  127SOPE   C2313606   1.594   6.015   2.954  0.3637  0.4060 -0.0208
  127SOPE   H3R13607   1.484   6.025   2.942  0.5167  0.5360 -1.4025
  127SOPE   H3S13608   1.638   6.111   2.920 -0.9934  1.1550  0.2706
  127SOPE   C2413609   1.644   5.998   3.094 -0.2770 -1.1161 -0.3563
  127SOPE   H4R13610   1.592   5.909   3.134 -0.7430  0.2420  2.2922
  127SOPE   H4S13611   1.752   5.975   3.099  0.2466  1.2755  1.1480
  127SOPE   C2513612   1.612   6.120   3.189 -0.7052  0.1462  0.3661
  127SOPE   H5R13613   1.651   6.209   3.134  0.6895 -0.0408  0.9844
  127SOPE   H5S13614   1.503   6.137   3.200 -0.9766  0.4053 -2.1581
  127SOPE   C2613615   1.695   6.120   3.319 -0.3101 -0.3809 -0.2647
  127SOPE   H6R13616   1.804   6.114   3.299 -0.2314 -0.7449  0.2387
  127SOPE   H6S13617   1.676   6.220   3.362 -0.3951 -0.0614 -1.0319
  127SOPE   C2713618   1.646   6.013   3.418  0.1397 -0.4561  0.1080
  127SOPE   H7R13619   1.538   6.035   3.430 -0.0354 -0.9194 -0.5615
  127SOPE   H7S13620   1.636   5.914   3.369 -3.0613 -0.1251 -0.1063
  127SOPE   C2813621   1.734   6.018   3.539 -0.2713  0.1218 -0.1366
  127SOPE   H8R13622   1.688   5.939   3.602  0.1807 -0.1390 -0.1356
  127SOPE   H8S13623   1.832   5.981   3.503  0.9163 -0.0479  2.9500
  127SOPE   C2913624   1.745   6.151   3.613  0.1079 -0.3837  0.0017
  127SOPE   H9113625   1.845   6.196   3.622 -0.9605  3.5353 -3.9448
  127SOPE  C21013626   1.647   6.201   3.683  0.5460 -0.4499 -0.6926
  127SOPE  H10113627   1.655   6.304   3.722 -0.1187 -1.0562  1.1369
  127SOPE  C21113628   1.503   6.159   3.692  0.0704  0.4655 -0.1031
  127SOPE  H11R13629   1.489   6.135   3.799 -0.3025 -1.4496 -0.5429
  127SOPE  H11S13630   1.485   6.067   3.632  0.8255  0.0496  0.2841
  127SOPE  C21213631   1.394   6.261   3.658 -0.5265 -0.3019  0.7430
  127SOPE  H12R13632   1.416   6.305   3.558  1.5072 -0.6383  1.0074
  127SOPE  H12S13633   1.391   6.345   3.731 -0.5598  1.0762 -0.7768
  127SOPE  C21313634   1.249   6.202   3.655  0.2800 -0.5487 -0.1597
  127SOPE  H13R13635   1.251   6.131   3.741  0.8923 -0.6866 -0.2862
  127SOPE  H13S13636   1.223   6.140   3.567 -0.5683 -3.0186  1.7182
  127SOPE  C21413637   1.134   6.302   3.681 -0.7422  0.2134  0.5226
  127SOPE  H14R13638   1.156   6.410   3.689  0.0937  0.0117  1.0860
  127SOPE  H14S13639   1.081   6.280   3.777 -2.6082 -2.9615 -1.0656
  127SOPE  C21513640   1.024   6.297   3.565  0.3588 -0.2772 -0.1584
  127SOPE  H15R13641   0.979   6.198   3.541 -0.0288  0.0374 -0.7589
  127SOPE  H15S13642   1.087   6.329   3.479  0.1371 -0.7847 -0.5138
  127SOPE  C21613643   0.924   6.404   3.584 -0.2891 -0.3468 -0.0985
  127SOPE  H16R13644   0.977   6.495   3.619  0.6719 -0.7950 -0.3567
  127SOPE  H16S13645   0.852   6.368   3.660 -1.4769  1.5612 -0.2700
  127SOPE  C21713646   0.845   6.439   3.458 -0.3694  0.0125  0.5455
  127SOPE  H17R13647   0.766   6.510   3.491 -0.4843  2.5624 -4.2119
  127SOPE  H17S13648   0.797   6.347   3.420  0.7989 -0.9827  1.3947
  127SOPE  C21813649   0.923   6.508   3.341  0.1565  0.0513 -0.6967
  127SOPE  H18R13650   1.008   6.446   3.306  1.2544  0.1947  1.5008
  127SOPE  H18S13651   0.974   6.592   3.394  1.2359  0.3959 -2.2249
  127SOPE  H18T13652   0.862   6.562   3.266 -0.2174  1.4158  0.5303
  127SOPE   C3313653   1.134   5.766   2.977 -0.2432 -0.1560 -0.4906
  127SOPE   H3X13654   1.049   5.736   3.042  0.2882 -0.4433  0.0996
  127SOPE   H3Y13655   1.169   5.850   3.041 -0.8368 -0.8068  0.7352
  127SOPE   C3413656   1.248   5.668   2.968  0.2665  0.5548  0.5960
  127SOPE   H4X13657   1.338   5.721   2.929 -2.1362  1.7473 -3.8814
  127SOPE   H4Y13658   1.226   5.588   2.895  0.2363  0.0710  1.1265
  127SOPE   C3513659   1.292   5.595   3.096  0.2746 -0.1007 -0.7129
  127SOPE   H5X13660   1.370   5.518   3.080  2.4090  2.2351 -2.2060
  127SOPE   H5Y13661   1.207   5.542   3.145  0.6330 -2.3511 -2.3155
  127SOPE   C3613662   1.350   5.689   3.194 -0.4833  0.3359 -0.4467
  127SOPE   H6X13663   1.288   5.781   3.198 -0.8733  0.1225 -1.4222
  127SOPE   H6Y13664   1.448   5.730   3.159 -0.4305  0.3149 -0.3251
  127SOPE   C3713665   1.364   5.624   3.330 -0.0455 -0.1161 -0.9699
  127SOPE   H7X13666   1.445   5.548   3.322 -0.7367 -1.0547  0.4828
  127SOPE   H7Y13667   1.268   5.582   3.367 -0.1514  1.7691  1.1341
  127SOPE   C3813668   1.414   5.723   3.436 -0.6562 -0.1795 -0.2146
  127SOPE   H8X13669   1.341   5.806   3.440 -0.2991  0.1548 -0.5542
  127SOPE   H8Y13670   1.515   5.753   3.399 -0.1254 -0.9513  0.5659
  127SOPE   C3913671   1.420   5.672   3.579 -0.0762  1.1433 -0.1299
  127SOPE   H9X13672   1.495   5.590   3.578  0.9793  2.0757 -0.6279
  127SOPE   H9Y13673   1.325   5.627   3.613 -0.3843  1.6394 -0.3224
  127SOPE  C31013674   1.446   5.792   3.679  0.1273  0.0298  0.0677
  127SOPE  H10X13675   1.392   5.884   3.648  0.0469  0.3429  1.0876
  127SOPE  H10Y13676   1.555   5.812   3.682 -0.0520  1.1118 -0.2055
  127SOPE  C31113677   1.391   5.765   3.820 -0.7345  0.6075  0.9460
  127SOPE  H11X13678   1.439   5.676   3.865  1.2692  2.4837  2.7348
  127SOPE  H11Y13679   1.282   5.742   3.809 -0.0377 -1.9678 -1.7611
  127SOPE  C31213680   1.411   5.880   3.919  1.0468  0.1582  0.2488
  127SOPE  H12X13681   1.348   5.967   3.894  0.1310 -0.6377 -0.2978
  127SOPE  H12Y13682   1.518   5.910   3.920  0.7709  1.8053 -3.6691
  127SOPE  C31313683   1.395   5.819   4.055 -0.2282 -0.5466 -0.1720
  127SOPE  H13X13684   1.446   5.889   4.125  1.7136 -0.6002 -1.4332
  127SOPE  H13Y13685   1.447   5.721   4.063  2.9773  1.0705  0.4493
  127SOPE  C31413686   1.254   5.821   4.115  0.2842 -0.7129 -0.3389
  127SOPE  H14X13687   1.186   5.804   4.029 -0.8600  1.5712  0.0521
  127SOPE  H14Y13688   1.227   5.925   4.142  0.6404  0.7581 -4.8881
  127SOPE  C31513689   1.240   5.713   4.223  0.2304  0.2435  0.3850
  127SOPE  H15X13690   1.299   5.761   4.305  0.5974  1.5358 -0.5966
  127SOPE  H15Y13691   1.293   5.621   4.191  0.8418 -0.1656  2.4496
  127SOPE  C31613692   1.093   5.677   4.264 -0.4829  0.2065 -0.2664
  127SOPE  H16X13693   1.066   5.602   4.187 -0.3594 -0.8363  0.6867
  127SOPE  H16Y13694   1.033   5.771   4.265 -1.6223 -0.4357 -2.3396
  127SOPE  C31713695   1.108   5.610   4.398  0.0686  0.4586  0.4140
  127SOPE  H17X13696   1.159   5.678   4.470 -0.7700  0.9133  0.5934
  127SOPE  H17Y13697   1.167   5.516   4.390 -0.1998  0.4684 -3.8213
  127SOPE  C31813698   0.970   5.581   4.451 -0.3885  0.3039 -0.7229
  127SOPE  H18X13699   0.915   5.517   4.379 -1.2090 -1.4981  1.3898
  127SOPE  H18Y13700   0.917   5.671   4.489  1.6212  1.0635  0.4769
  127SOPE  H18Z13701   0.969   5.522   4.546 -3.4087  0.9762 -0.2448
  128SOPE     N13702   6.802   4.054   2.519 -1.0564  0.0066 -0.0129
  128SOPE   HN113703   6.744   4.140   2.520 -3.3806 -1.4732 -0.6800
  128SOPE   HN213704   6.846   4.029   2.610 -1.5660  0.3379  0.3298
  128SOPE   HN313705   6.877   4.061   2.447 -0.0254 -1.7787  0.8214
  128SOPE   C1213706   6.708   3.952   2.461  0.1775 -0.0223 -0.3809
  128SOPE  H12A13707   6.756   3.853   2.478 -0.1556  0.1626  1.8683
  128SOPE  H12B13708   6.688   3.975   2.354  2.7251 -0.3529 -0.9916
  128SOPE   C1113709   6.579   3.960   2.546  0.1830  0.0033 -0.5284
  128SOPE  H11A13710   6.543   4.063   2.569  0.4087  0.0217 -0.2544
  128SOPE  H11B13711   6.595   3.905   2.641  0.8199 -1.6273 -1.5288
  128SOPE     P13712   6.452   3.751   2.457  0.0531  0.4882  0.4428
  128SOPE   O1313713   6.544   3.697   2.356  0.4538  0.2771  0.0796
  128SOPE   O1413714   6.310   3.733   2.437  0.0999 -0.0264 -0.4608
  128SOPE   O1213715   6.476   3.907   2.460 -0.0593 -0.3141 -0.0147
  128SOPE   O1113716   6.498   3.702   2.603 -0.0703  0.0969 -0.7826
  128SOPE    C113717   6.405   3.634   2.695 -0.0204 -0.1306  1.1255
  128SOPE    HA13718   6.363   3.547   2.640  0.1033  0.2531  0.4135
  128SOPE    HB13719   6.321   3.693   2.735 -0.3306 -0.5512  1.1028
  128SOPE    C213720   6.468   3.566   2.819 -0.3771 -0.5617 -0.3288
  128SOPE    HS13721   6.391   3.536   2.894 -0.4511  0.4223 -0.0063
  128SOPE   O2113722   6.556   3.654   2.894  0.2808 -0.7396  0.0915
  128SOPE   C2113723   6.494   3.755   2.957  0.0471  0.9092  0.2741
  128SOPE   O2213724   6.372   3.763   2.961 -0.3102  0.2587 -0.0459
  128SOPE   C2213725   6.592   3.846   3.030 -0.2695 -0.4603 -0.4454
  128SOPE   H2R13726   6.535   3.898   3.110 -1.2660 -0.0352 -1.4031
  128SOPE   H2S13727   6.619   3.921   2.953  0.4973 -0.2656  0.0089
  128SOPE    C313728   6.550   3.444   2.776  0.2628  0.2739 -0.2567
  128SOPE    HX13729   6.623   3.482   2.702  1.0711  2.5965  1.6175
  128SOPE    HY13730   6.492   3.358   2.733  1.8670 -2.4584  2.6580
  128SOPE   O3113731   6.624   3.387   2.883 -0.6272 -0.7928  0.3802
  128SOPE   C3113732   6.559   3.307   2.965  0.2756  0.5626 -0.1457
  128SOPE   O3213733   6.438   3.282   2.964  0.2796 -0.3430 -0.5834
  128SOPE   C3213734   6.663   3.230   3.046 -0.1551 -0.3514 -0.0267
  128SOPE   H2X13735   6.762   3.278   3.029  1.4284 -1.9636  3.6523
  128SOPE   H2Y13736   6.667   3.126   3.008 -1.6957 -0.5328  0.2623
  128SOPE   C2313737   6.715   3.789   3.099 -0.0502  0.0170  0.0611
  128SOPE   H3R13738   6.786   3.872   3.120 -0.7719  0.5699  0.3388
  128SOPE   H3S13739   6.777   3.724   3.034  1.2321 -0.5381  1.7550
  128SOPE   C2413740   6.680   3.705   3.228  0.7558  0.1218  0.5147
  128SOPE   H4R13741   6.582   3.656   3.209  0.3630  1.2207 -0.3770
  128SOPE   H4S13742   6.763   3.638   3.260 -0.0842 -0.6506  1.1181
  128SOPE   C2513743   6.680   3.796   3.346  0.4305 -0.0026  0.2653
  128SOPE   H5R13744   6.777   3.823   3.392  1.0501 -0.6485 -0.6116
  128SOPE   H5S13745   6.615   3.886   3.337 -0.4329 -0.4119  2.0021
  128SOPE   C2613746   6.599   3.720   3.453  0.1849 -0.3211 -0.2038
  128SOPE   H6R13747   6.503   3.681   3.415 -0.0032  0.3644 -0.4524
  128SOPE   H6S13748   6.662   3.640   3.497  0.7188 -1.4027 -2.7970
  128SOPE   C2713749   6.565   3.803   3.582 -0.2157  0.1374  0.5210
  128SOPE   H7R13750   6.657   3.810   3.643  0.9602 -1.9670 -0.8742
  128SOPE   H7S13751   6.543   3.909   3.556 -0.9196 -0.4062 -1.2469
  128SOPE   C2813752   6.453   3.744   3.672 -0.8301  0.5481 -0.5880
  128SOPE   H8R13753   6.460   3.818   3.755  1.2231  2.0446 -1.9659
  128SOPE   H8S13754   6.347   3.742   3.640 -1.1539  0.2316  0.4498
  128SOPE   C2913755   6.508   3.612   3.725  0.0245  0.4631  0.2916
  128SOPE   H9113756   6.512   3.535   3.647 -0.1698  0.3354  0.4068
  128SOPE  C21013757   6.521   3.579   3.849  0.2178 -0.1219 -0.6041
  128SOPE  H10113758   6.554   3.480   3.881  2.9090  1.3870  1.7744
  128SOPE  C21113759   6.496   3.661   3.978  0.4593  0.2260  0.8932
  128SOPE  H11R13760   6.396   3.708   3.990  0.3670  0.1063  0.5950
  128SOPE  H11S13761   6.562   3.751   3.985 -0.4276  0.9589  0.0950
  128SOPE  C21213762   6.547   3.588   4.101  0.5458 -0.0153 -0.6854
  128SOPE  H12R13763   6.647   3.546   4.078  0.1317 -1.1285 -0.5206
  128SOPE  H12S13764   6.479   3.502   4.120 -0.2406  0.8190  0.4212
  128SOPE  C21313765   6.538   3.668   4.227 -0.4038 -0.1227  0.0961
  128SOPE  H13R13766   6.492   3.594   4.297 -0.6812  0.1893  0.2436
  128SOPE  H13S13767   6.458   3.744   4.222  0.3833  0.6478 -2.4842
  128SOPE  C21413768   6.673   3.716   4.271 -0.0769  0.6941  0.1221
  128SOPE  H14R13769   6.706   3.797   4.202  0.1915  1.4612  1.1269
  128SOPE  H14S13770   6.752   3.638   4.277 -0.6131  0.0769 -0.7046
  128SOPE  C21513771   6.653   3.773   4.418 -0.2333 -0.1545 -0.1092
  128SOPE  H15R13772   6.618   3.686   4.478  0.6665 -0.8735 -0.6079
  128SOPE  H15S13773   6.576   3.853   4.411 -0.5777 -0.5869 -1.7809
  128SOPE  C21613774   6.766   3.846   4.483 -0.0584 -0.4657  0.0601
  128SOPE  H16R13775   6.731   3.885   4.581 -1.7203 -1.6770 -0.0064
  128SOPE  H16S13776   6.772   3.936   4.418 -0.4973  0.3957  1.1697
  128SOPE  C21713777   6.902   3.789   4.486  0.4011  0.3659 -1.0775
  128SOPE  H17R13778   6.931   3.755   4.384  1.4065 -4.0769  0.4759
  128SOPE  H17S13779   6.903   3.698   4.550 -1.8879  1.7727  1.1377
  128SOPE  C21813780   7.007   3.894   4.532 -0.3987 -0.7595 -0.1027
  128SOPE  H18R13781   6.985   4.000   4.508 -1.2674 -1.0837 -0.8039
  128SOPE  H18S13782   7.100   3.873   4.475 -1.0598 -0.6362 -1.2589
  128SOPE  H18T13783   7.027   3.871   4.639  0.7411 -0.3564 -0.2218
  128SOPE   C3313784   6.613   3.217   3.191  0.6794  0.3981  0.2685
  128SOPE   H3X13785   6.678   3.147   3.247 -0.8428 -1.8948 -0.6597
  128SOPE   H3Y13786   6.511   3.174   3.198  0.7241  0.1797 -0.2960
  128SOPE   C3413787   6.611   3.351   3.257  0.3793  0.2472  0.7582
  128SOPE   H4X13788   6.548   3.422   3.199  2.0160  1.5606  0.5414
  128SOPE   H4Y13789   6.709   3.399   3.243  0.1477  0.4682 -0.2203
  128SOPE   C3513790   6.566   3.355   3.405 -0.2336 -0.3573 -0.4689
  128SOPE   H5X13791   6.456   3.345   3.401 -0.2599  0.1799 -1.7292
  128SOPE   H5Y13792   6.586   3.456   3.447  1.1422 -0.8730  0.1740
  128SOPE   C3613793   6.616   3.240   3.491  0.1324 -0.1206  0.3148
  128SOPE   H6X13794   6.725   3.249   3.507 -0.1098  0.3152  1.8943
  128SOPE   H6Y13795   6.594   3.148   3.433  1.6417  1.7460 -3.5142
  128SOPE   C3713796   6.547   3.240   3.629  0.4432  0.2180 -0.0787
  128SOPE   H7X13797   6.436   3.228   3.630  0.5221 -0.5184  0.5878
  128SOPE   H7Y13798   6.561   3.338   3.678 -1.3923  1.6037 -2.1242
  128SOPE   C3813799   6.604   3.130   3.718  0.2618 -0.7733 -0.3535
  128SOPE   H8X13800   6.707   3.162   3.743 -0.4082 -0.4848  2.4916
  128SOPE   H8Y13801   6.608   3.031   3.669 -0.2341 -1.8329  1.6142
  128SOPE   C3913802   6.533   3.117   3.859  0.3005 -0.3182 -0.3122
  128SOPE   H9X13803   6.423   3.110   3.848  0.1321  2.8609 -1.8663
  128SOPE   H9Y13804   6.552   3.211   3.914  2.4739  0.2093 -1.8047
  128SOPE  C31013805   6.588   2.994   3.938 -0.3878 -0.0756 -0.1527
  128SOPE  H10X13806   6.600   2.908   3.869 -0.3073 -1.0695  1.0575
  128SOPE  H10Y13807   6.504   2.986   4.011 -0.7358  3.0107 -0.0815
  128SOPE  C31113808   6.718   3.028   4.020  0.1259  0.6065 -0.4664
  128SOPE  H11X13809   6.693   3.115   4.085  1.8782  1.7293 -1.2140
  128SOPE  H11Y13810   6.799   3.058   3.950  1.5290 -1.7706  0.0097
  128SOPE  C31213811   6.767   2.919   4.119 -0.0228 -0.7154 -0.1935
  128SOPE  H12X13812   6.820   2.845   4.055  1.6449  0.5815 -0.3927
  128SOPE  H12Y13813   6.677   2.865   4.155  0.0705 -1.2165 -0.6917
  128SOPE  C31313814   6.866   2.980   4.227  0.0530 -0.5967 -0.1024
  128SOPE  H13X13815   6.815   3.064   4.280  3.8523  1.5044  0.6034
  128SOPE  H13Y13816   6.955   3.030   4.183  0.5290 -1.0157  0.3834
  128SOPE  C31413817   6.905   2.880   4.329 -0.1788  0.2271 -0.7137
  128SOPE  H14X13818   6.937   2.786   4.279 -0.4128 -1.4914  2.1434
  128SOPE  H14Y13819   6.820   2.870   4.400 -0.9263 -2.9123 -1.8901
  128SOPE  C31513820   7.027   2.924   4.407 -0.5552  0.8080  0.2477
  128SOPE  H15X13821   7.010   3.010   4.476  4.2235  1.8636  0.4298
  128SOPE  H15Y13822   7.106   2.959   4.338 -0.7410  1.3236  0.2912
  128SOPE  C31613823   7.075   2.802   4.485  0.2501 -0.2114 -0.3983
  128SOPE  H16X13824   7.087   2.713   4.419  0.8339  1.0313 -2.0453
  128SOPE  H16Y13825   6.998   2.778   4.561  0.1470  0.3024 -0.3396
  128SOPE  C31713826   7.208   2.831   4.552  0.5403 -0.7798  0.0733
  128SOPE  H17X13827   7.181   2.925   4.604 -0.0680 -0.9745  0.1209
  128SOPE  H17Y13828   7.287   2.855   4.477 -0.1721  1.1693 -0.1157
  128SOPE  C31813829   7.256   2.720   4.647 -0.2559 -0.1492 -0.4236
  128SOPE  H18X13830   7.295   2.641   4.578 -1.6314 -1.1428 -0.1093
  128SOPE  H18Y13831   7.161   2.681   4.688 -0.1276 -0.1214 -0.0953
  128SOPE  H18Z13832   7.331   2.749   4.724 -0.5093 -0.9501  0.1368
  129OSM      N13833   3.728   5.834   7.668  0.3494  0.4991 -0.0705
  129OSM    C1513834   3.604   5.751   7.666 -0.3675  0.1871  0.4587
  129OSM   H15A13835   3.623   5.657   7.616  1.9231  0.0676  1.4604
  129OSM   H15B13836   3.533   5.805   7.605 -1.0786  0.2735  1.3406
  129OSM   H15C13837   3.564   5.733   7.765  0.7495 -1.3207  0.6660
  129OSM    C1413838   3.688   5.965   7.725  0.6414 -0.2131  0.0787
  129OSM   H14A13839   3.654   5.954   7.827  1.4736  1.4286  0.5798
  129OSM   H14B13840   3.610   5.999   7.657  0.7555 -3.1544 -1.7203
  129OSM   H14C13841   3.767   6.037   7.709 -0.3455  0.7810 -0.4754
  129OSM    C1313842   3.828   5.779   7.769  0.1793 -0.4898  0.7169
  129OSM   H13A13843   3.909   5.851   7.776 -0.8624  1.0475 -1.5882
  129OSM   H13B13844   3.875   5.685   7.743  1.2334 -0.2182  1.5407
  129OSM   H13C13845   3.777   5.768   7.864  1.4447  0.5971  1.5588
  129OSM    C1213846   3.796   5.857   7.531 -0.2544 -0.2282  0.0385
  129OSM   H12A13847   3.809   5.762   7.480 -1.1217 -1.0948  1.3483
  129OSM   H12B13848   3.893   5.903   7.536 -1.9875  3.9240 -0.4092
  129OSM    C1113849   3.714   5.948   7.433 -0.0878 -0.6719 -0.4340
  129OSM   H11A13850   3.611   5.907   7.422 -1.0647  1.2850  0.7159
  129OSM   H11B13851   3.751   5.937   7.329 -3.0490 -1.6395 -1.5098
  129OSM      P13852   3.816   6.180   7.420  0.2143 -0.6254 -0.0656
  129OSM    O1313853   3.764   6.321   7.441 -0.3093  0.5648  0.0070
  129OSM    O1413854   3.954   6.150   7.470  0.6435  0.4227  0.1008
  129OSM    O1113855   3.809   6.146   7.265  0.5651 -0.5089 -0.2587
  129OSM    O1213856   3.707   6.085   7.478 -0.2781  0.3276  0.0585
  129OSM    C1S13857   3.890   6.197   7.158 -0.7814 -0.3197 -0.1626
  129OSM    H1S13858   3.985   6.139   7.158 -0.1528  0.6579 -1.2256
  129OSM    H1T13859   3.924   6.299   7.186  1.7475 -0.9667 -0.5819
  129OSM     NF13860   3.907   6.230   6.911 -0.1077  0.6979  0.0138
  129OSM    HNF13861   3.901   6.328   6.892  0.5876  0.9015  0.7997
  129OSM    C2S13862   3.816   6.194   7.019 -0.5280 -0.5716  0.2560
  129OSM    H2S13863   3.780   6.091   7.000 -0.4450 -0.6010  0.2588
  129OSM    C3S13864   3.693   6.282   7.035 -0.0291 -0.3225  0.3534
  129OSM    H3S13865   3.734   6.384   7.049 -0.3868  0.0014 -0.8465
  129OSM     O313866   3.605   6.260   7.142  0.1374  0.7534 -0.2136
  129OSM    HO313867   3.667   6.209   7.194  1.2801  1.3921 -0.8869
  129OSM    C4S13868   3.620   6.273   6.901  0.6155 -0.4493 -0.7716
  129OSM    H4S13869   3.666   6.326   6.816 -1.4130 -0.7995 -2.1631
  129OSM    C5S13870   3.502   6.216   6.866  0.5349 -0.7009  0.3451
  129OSM    H5S13871   3.452   6.163   6.947  0.3837  0.3515  0.9635
  129OSM    C6S13872   3.440   6.212   6.731 -0.4556  0.0451 -0.1202
  129OSM    H6S13873   3.380   6.305   6.719 -1.3497 -0.3081  1.4077
  129OSM    H6T13874   3.362   6.134   6.722 -0.3975  0.0196 -0.3959
  129OSM    C7S13875   3.549   6.194   6.624  0.2385  0.7307  0.3072
  129OSM    H7S13876   3.584   6.089   6.630 -2.2803 -0.2878 -1.2149
  129OSM    H7T13877   3.643   6.252   6.640  0.3232  0.5002  0.6577
  129OSM    C8S13878   3.483   6.221   6.488 -0.1716 -0.0749  0.3139
  129OSM    H8S13879   3.455   6.326   6.469  0.0270 -0.0949 -0.0998
  129OSM    H8T13880   3.388   6.165   6.480  0.6572 -1.4469 -0.3980
  129OSM    C9S13881   3.577   6.183   6.364 -0.3517 -0.4849 -0.9156
  129OSM    H9S13882   3.582   6.072   6.370 -1.5885 -0.5431 -0.5653
  129OSM    H9T13883   3.677   6.221   6.393 -0.7403 -0.1805  0.0771
  129OSM   C10S13884   3.515   6.225   6.233 -1.0557 -0.1220  0.0215
  129OSM   H10S13885   3.492   6.333   6.220 -1.3417 -0.0295  1.1983
  129OSM   H10T13886   3.413   6.184   6.222 -0.5179 -1.2259 -1.1707
  129OSM   C11S13887   3.595   6.174   6.112 -0.5494 -0.0988 -0.2400
  129OSM   H11S13888   3.612   6.067   6.132 -1.5993  0.0547  1.6654
  129OSM   H11T13889   3.685   6.237   6.095 -0.2441 -0.4282  0.1493
  129OSM   C12S13890   3.511   6.171   5.985 -0.2863  0.4777 -0.3682
  129OSM   H12S13891   3.482   6.272   5.950  1.7159  0.9493 -0.7949
  129OSM   H12T13892   3.418   6.117   6.015 -0.5376  1.1560  0.0907
  129OSM   C13S13893   3.591   6.109   5.869  0.0182  0.0918 -0.2324
  129OSM   H13S13894   3.634   6.013   5.903  1.8909  1.1918  0.6516
  129OSM   H13T13895   3.666   6.186   5.839  0.8967  0.2072  2.0635
  129OSM   C14S13896   3.498   6.084   5.748 -0.1103 -0.8964  0.8638
  129OSM   H14S13897   3.452   6.179   5.713  1.8755 -0.1086  0.2440
  129OSM   H14T13898   3.421   6.009   5.774 -0.2909 -0.9915  0.0657
  129OSM   C15S13899   3.565   6.028   5.617  0.4927 -0.4775  0.4192
  129OSM   H15S13900   3.624   5.935   5.628 -0.0341 -0.8966 -0.2111
  129OSM   H15T13901   3.637   6.103   5.578 -0.2412  0.1027  0.1393
  129OSM   C16S13902   3.468   6.006   5.503  0.8707  0.0365 -0.1924
  129OSM   H16S13903   3.409   6.100   5.504  1.2780  0.3189  1.8023
  129OSM   H16T13904   3.390   5.932   5.531 -1.7964  1.5096 -3.0950
  129OSM   C17S13905   3.529   5.980   5.368  0.2061 -0.6158  0.3438
  129OSM   H17S13906   3.572   5.878   5.367 -1.8203 -1.5134  0.6776
  129OSM   H17T13907   3.601   6.063   5.346  0.2010 -1.2024 -2.0781
  129OSM   C18S13908   3.416   5.981   5.264 -0.2221 -0.5946  0.3254
  129OSM   H18S13909   3.443   5.955   5.159 -0.4321  0.1393  0.0786
  129OSM   H18T13910   3.378   6.086   5.262  1.3673  0.1322  2.9822
  129OSM   H18U13911   3.325   5.926   5.293  0.0232 -1.8669 -1.1836
  129OSM    C1F13912   4.013   6.161   6.872  0.3872  0.6496 -0.1322
  129OSM     OF13913   4.031   6.048   6.920 -0.3894 -0.0075  0.6225
  129OSM    C2F13914   4.118   6.222   6.788  0.4813  0.2989 -0.3479
  129OSM    H2F13915   4.202   6.256   6.853  1.6712 -1.0987 -1.1197
  129OSM    H2G13916   4.068   6.305   6.733  0.9664 -0.3197 -1.7612
  129OSM    C3F13917   4.188   6.118   6.694 -0.0390 -0.6073 -0.2237
  129OSM    H3F13918   4.251   6.058   6.763  2.0280  1.4980 -0.1601
  129OSM    H3G13919   4.255   6.164   6.618  0.1455 -0.6156 -0.0664
  129OSM    C4F13920   4.086   6.024   6.610 -0.6987 -0.5834  0.5847
  129OSM    H4F13921   4.026   5.963   6.680 -0.3497 -0.7960  0.7004
  129OSM    H4G13922   4.150   5.965   6.541  0.3978  1.9651 -0.7162
  129OSM    C5F13923   3.990   6.106   6.525  0.3075 -0.4149 -0.2764
  129OSM    H5F13924   3.937   6.183   6.583  0.2154 -1.7468  1.4997
  129OSM    H5G13925   3.914   6.043   6.475 -0.7565  1.2053 -0.7512
  129OSM    C6F13926   4.054   6.180   6.403 -0.7809 -0.9684 -0.3327
  129OSM    H6F13927   4.129   6.104   6.370  0.6339  0.7859 -1.3146
  129OSM    H6G13928   4.114   6.264   6.444  1.2493 -2.9081  0.8881
  129OSM    C7F13929   3.947   6.213   6.286 -0.1764  0.3175 -0.0660
  129OSM    H7F13930   3.870   6.282   6.326 -1.0143 -1.9009  2.4903
  129OSM    H7G13931   3.895   6.117   6.262 -0.8063  0.9280 -1.2012
  129OSM    C8F13932   4.006   6.274   6.152  0.1052  0.1302 -0.1264
  129OSM    H8F13933   4.043   6.378   6.166 -0.0042  0.3361 -1.2471
  129OSM    H8G13934   3.915   6.295   6.092 -0.1226  0.5494  0.3545
  129OSM    C9F13935   4.118   6.186   6.092  0.2925  0.4181 -0.2780
  129OSM    H9F13936   4.211   6.190   6.151 -0.4905  0.8324  0.9883
  129OSM   C10F13937   4.105   6.108   5.980 -0.2207  0.0862 -0.0354
  129OSM   H10F13938   4.199   6.060   5.950  0.2169  0.1111  1.2040
  129OSM   C11F13939   3.984   6.080   5.896  0.2948 -0.3815 -0.4949
  129OSM   H11F13940   3.905   6.151   5.927  0.1006 -2.1001  3.5621
  129OSM   H11G13941   3.938   5.982   5.917  0.2102 -0.5029 -1.2138
  129OSM   C12F13942   4.016   6.073   5.748  0.5083 -0.2272 -0.6430
  129OSM   H12F13943   4.061   5.975   5.723 -2.1340 -1.0780 -2.5913
  129OSM   H12G13944   4.087   6.157   5.734 -0.3111  0.5386 -0.3132
  129OSM   C13F13945   3.887   6.088   5.664  0.1138 -0.2394  0.5792
  129OSM   H13F13946   3.838   6.183   5.693  1.2946  0.6793 -0.3208
  129OSM   H13G13947   3.820   5.999   5.667 -0.6500  0.2747 -0.6798
  129OSM   C14F13948   3.918   6.106   5.516  0.0131  0.7083  0.3232
  129OSM   H14F13949   4.003   6.175   5.501  1.0585 -0.4733  0.5720
  129OSM   H14G13950   3.836   6.155   5.460  2.4836  3.0017 -1.5798
  129OSM   C15F13951   3.932   5.977   5.432  0.5362 -0.3365 -0.7751
  129OSM   H15F13952   3.858   5.906   5.475  1.1534 -0.3512  0.3073
  129OSM   H15G13953   4.032   5.929   5.439 -0.6024 -2.6842  0.6093
  129OSM   C16F13954   3.912   6.008   5.283  0.2770  0.4340 -0.5792
  129OSM   H16F13955   3.988   6.084   5.252 -0.6415  1.9828  0.7955
  129OSM   H16G13956   3.806   6.033   5.261 -0.3375 -1.9117 -0.5114
  129OSM   C17F13957   3.945   5.877   5.197 -1.1543  0.1774  0.1418
  129OSM   H17F13958   3.888   5.793   5.241 -0.6421  0.6458  1.7803
  129OSM   H17G13959   4.053   5.852   5.209 -1.0760 -0.9270 -2.2077
  129OSM   C18F13960   3.913   5.902   5.050 -0.4949 -0.3879 -0.4163
  129OSM   H18F13961   3.809   5.935   5.029 -1.6903 -3.5770 -0.0613
  129OSM   H18G13962   3.936   5.810   4.992  2.0665  0.8416 -1.5034
  129OSM   H18H13963   3.974   5.986   5.011  1.5538 -1.2432  0.8014
  130OSM      N13964   3.215   0.815   7.439  0.1452 -0.6635 -0.4781
  130OSM    C1513965   3.106   0.860   7.526  0.0081  0.4234 -0.0834
  130OSM   H15A13966   3.159   0.880   7.617  2.0237  0.7357 -1.2681
  130OSM   H15B13967   3.042   0.773   7.533  0.8997 -0.1374  1.3642
  130OSM   H15C13968   3.052   0.946   7.489  1.0792  1.6657  1.1323
  130OSM    C1413969   3.325   0.918   7.433  0.5724 -0.3788 -0.2394
  130OSM   H14A13970   3.275   1.012   7.419  0.1693 -0.5694 -0.0961
  130OSM   H14B13971   3.383   0.893   7.346  0.2183 -0.2434 -0.5159
  130OSM   H14C13972   3.393   0.934   7.516 -1.4222  0.8687  1.2393
  130OSM    C1313973   3.285   0.702   7.506 -0.7274  0.1200 -0.8919
  130OSM   H13A13974   3.222   0.615   7.521  0.6154 -0.8147 -0.4783
  130OSM   H13B13975   3.327   0.724   7.602 -1.1857  2.6508 -1.1964
  130OSM   H13C13976   3.359   0.665   7.436 -0.0117  2.1611 -1.2793
  130OSM    C1213977   3.175   0.768   7.301  0.1375  0.8102  0.7363
  130OSM   H12A13978   3.123   0.851   7.255 -1.7307 -0.9798 -0.5308
  130OSM   H12B13979   3.117   0.678   7.302 -1.2510  1.6364 -0.7427
  130OSM    C1113980   3.294   0.743   7.195  0.2508 -0.0342  0.2946
  130OSM   H11A13981   3.346   0.841   7.186 -1.0588  0.9251  2.3119
  130OSM   H11B13982   3.247   0.722   7.096  1.1710  1.6884 -0.5537
  130OSM      P13983   3.539   0.648   7.187  0.1163  0.2775 -0.2012
  130OSM    O1313984   3.589   0.776   7.241 -0.0732 -0.0495 -0.0471
  130OSM    O1413985   3.598   0.528   7.248  0.2666  0.5249  0.2474
  130OSM    O1113986   3.539   0.634   7.032  0.9322  0.0030 -0.0516
  130OSM    O1213987   3.387   0.640   7.228 -0.5099  0.0848 -0.1503
  130OSM    C1S13988   3.515   0.507   6.966 -0.2481 -0.6169  0.0859
  130OSM    H1S13989   3.419   0.463   6.999  0.6749 -1.7036  1.4380
  130OSM    H1T13990   3.593   0.431   6.988  0.4050  0.0367  0.0633
  130OSM     NF13991   3.470   0.413   6.737 -0.6637 -0.1342 -0.0947
  130OSM    HNF13992   3.540   0.345   6.715  1.5387  2.0146 -0.0987
  130OSM    C2S13993   3.522   0.530   6.806 -0.1710 -0.4385 -0.2183
  130OSM    H2S13994   3.454   0.613   6.777 -0.3183  0.2419  1.9202
  130OSM    C3S13995   3.671   0.564   6.760  0.7566  0.5009  0.3042
  130OSM    H3S13996   3.726   0.467   6.768 -1.2782 -0.9959 -2.2194
  130OSM     O313997   3.721   0.658   6.847  0.0280 -0.2326 -1.0219
  130OSM    HO313998   3.648   0.654   6.910 -0.0332  1.7442 -0.9034
  130OSM    C4S13999   3.685   0.605   6.615 -0.2907 -0.5667  0.6838
  130OSM    H4S14000   3.733   0.529   6.551 -2.0138  0.8412 -2.5183
  130OSM    C5S14001   3.659   0.725   6.556  0.3225 -0.1206  0.4032
  130OSM    H5S14002   3.608   0.802   6.614  0.5342 -1.4161  2.4281
  130OSM    C6S14003   3.697   0.760   6.412 -0.0092  0.3158 -0.5167
  130OSM    H6S14004   3.761   0.847   6.438 -1.3662  0.8607  1.2678
  130OSM    H6T14005   3.605   0.798   6.362  0.7814 -0.5208 -2.7184
  130OSM    C7S14006   3.777   0.667   6.321 -0.7549  0.8511  0.1183
  130OSM    H7S14007   3.725   0.570   6.309 -1.0049  0.7263  1.8424
  130OSM    H7T14008   3.876   0.655   6.371  0.2457 -0.7972 -2.0945
  130OSM    C8S14009   3.814   0.741   6.187  0.3306  0.2809 -0.0045
  130OSM    H8S14010   3.904   0.802   6.209  0.1135  0.6734 -0.1960
  130OSM    H8T14011   3.726   0.802   6.155  0.0812 -0.5098 -0.8635
  130OSM    C9S14012   3.854   0.652   6.069  0.0598  0.1765 -0.2754
  130OSM    H9S14013   3.777   0.572   6.063  1.2677 -1.2414  1.8822
  130OSM    H9T14014   3.956   0.611   6.085 -0.9144 -1.6012  1.8534
  130OSM   C10S14015   3.838   0.729   5.938  0.5403 -0.2389  0.1880
  130OSM   H10S14016   3.915   0.809   5.929 -0.4233  0.5185 -1.6520
  130OSM   H10T14017   3.736   0.774   5.937  0.9144  0.6818 -2.0447
  130OSM   C11S14018   3.858   0.639   5.818 -0.6777  0.4477  0.1493
  130OSM   H11S14019   3.800   0.544   5.822  0.6112 -0.3192  1.4294
  130OSM   H11T14020   3.960   0.596   5.827  0.6734  3.1674 -1.0408
  130OSM   C12S14021   3.835   0.704   5.680 -0.7964 -0.0572  0.2270
  130OSM   H12S14022   3.911   0.784   5.672 -1.7745  0.9791  0.8507
  130OSM   H12T14023   3.731   0.742   5.666 -0.9251 -0.6656 -0.5018
  130OSM   C13S14024   3.867   0.619   5.556 -0.0439 -0.0059  0.4051
  130OSM   H13S14025   3.819   0.519   5.563  1.2251 -0.6369  0.3521
  130OSM   H13T14026   3.977   0.605   5.555 -0.0139  0.0734 -1.5279
  130OSM   C14S14027   3.839   0.682   5.417  0.4192  0.9767  0.5194
  130OSM   H14S14028   3.887   0.782   5.414  0.3884  0.9575 -1.9746
  130OSM   H14T14029   3.729   0.691   5.406  0.0074 -1.7220  1.4458
  130OSM   C15S14030   3.903   0.595   5.307 -0.6353  0.2947 -0.1704
  130OSM   H15S14031   3.840   0.511   5.271  1.1415 -1.1810  0.0245
  130OSM   H15T14032   4.001   0.560   5.346 -0.1680  1.9856  0.2653
  130OSM   C16S14033   3.911   0.683   5.174  0.6545 -0.3082 -0.0099
  130OSM   H16S14034   3.975   0.769   5.204 -1.3488  1.6956 -1.1972
  130OSM   H16T14035   3.810   0.718   5.144 -0.5505 -2.4946  1.2300
  130OSM   C17S14036   3.969   0.611   5.051  0.1427  0.2081  0.1674
  130OSM   H17S14037   3.910   0.521   5.021  0.7065  0.4097 -1.6766
  130OSM   H17T14038   4.067   0.569   5.081 -0.2411  0.3940  1.7284
  130OSM   C18S14039   3.967   0.700   4.923  0.3464 -0.3922 -0.0259
  130OSM   H18S14040   4.049   0.775   4.921 -2.1974  2.6758  1.7955
  130OSM   H18T14041   3.867   0.746   4.913 -0.0941 -0.7756  2.0718
  130OSM   H18U14042   3.974   0.637   4.832 -3.1871 -0.6190 -0.2766
  130OSM    C1F14043   3.338   0.391   6.726 -0.4386  0.1387  0.1084
  130OSM     OF14044   3.260   0.465   6.789  0.5062  0.2030  0.1343
  130OSM    C2F14045   3.287   0.288   6.632 -0.0207 -0.5595  0.0202
  130OSM    H2F14046   3.281   0.186   6.676 -0.4885 -1.6650 -2.4104
  130OSM    H2G14047   3.347   0.295   6.538 -0.8849 -2.6733 -0.7674
  130OSM    C3F14048   3.140   0.330   6.602  0.6474  0.3739  0.4150
  130OSM    H3F14049   3.131   0.430   6.555 -1.1229 -0.6182 -1.5506
  130OSM    H3G14050   3.076   0.326   6.693  0.9924 -1.4179  0.6196
  130OSM    C4F14051   3.074   0.236   6.497 -0.4965  0.5124 -0.2899
  130OSM    H4F14052   2.964   0.252   6.497 -0.9842 -2.1363  1.4097
  130OSM    H4G14053   3.091   0.129   6.524 -1.0259 -0.2767 -2.7567
  130OSM    C5F14054   3.137   0.261   6.357  0.7328  0.2366 -0.2288
  130OSM    H5F14055   3.246   0.242   6.350  0.8162 -1.6141  3.5226
  130OSM    H5G14056   3.118   0.365   6.325  2.5131  0.9493  0.8717
  130OSM    C6F14057   3.072   0.169   6.247 -0.2243 -1.2224 -0.4711
  130OSM    H6F14058   2.962   0.162   6.255 -0.2618 -2.4826 -1.6918
  130OSM    H6G14059   3.102   0.063   6.265  2.8627 -0.4227 -0.2396
  130OSM    C7F14060   3.108   0.220   6.107 -0.3236 -0.3725 -0.3195
  130OSM    H7F14061   3.219   0.214   6.098 -0.3564  0.2246 -1.1844
  130OSM    H7G14062   3.082   0.328   6.108 -0.0224 -0.2520  2.0973
  130OSM    C8F14063   3.044   0.139   5.992 -0.4492 -0.0352  0.0423
  130OSM    H8F14064   3.057   0.031   6.013  0.6216  0.0245 -0.2351
  130OSM    H8G14065   3.121   0.157   5.913 -0.4724 -1.8776 -0.4311
  130OSM    C9F14066   2.909   0.184   5.949  0.5933  0.1493 -0.3411
  130OSM    H9F14067   2.836   0.168   6.030  0.9765  0.6613  0.1218
  130OSM   C10F14068   2.880   0.257   5.840  0.5725 -0.5214  0.7292
  130OSM   H10F14069   2.772   0.267   5.825  0.5560 -1.7947 -0.1216
  130OSM   C11F14070   2.980   0.313   5.740  0.2144  0.1859  0.9727
  130OSM   H11F14071   3.032   0.222   5.703 -0.0543 -0.3209  1.8083
  130OSM   H11G14072   3.029   0.393   5.799 -1.6707  1.1556  1.3030
  130OSM   C12F14073   2.906   0.376   5.619 -0.0054 -0.2724 -0.6450
  130OSM   H12F14074   2.852   0.303   5.555  0.7712 -1.0045 -0.4815
  130OSM   H12G14075   2.978   0.419   5.546  2.3863 -1.1739  1.0636
  130OSM   C13F14076   2.813   0.494   5.651 -0.3066  0.0290 -0.6596
  130OSM   H13F14077   2.877   0.573   5.695 -1.0494 -0.0465  0.6009
  130OSM   H13G14078   2.739   0.463   5.729  1.6792  1.5106  1.9674
  130OSM   C14F14079   2.724   0.549   5.537 -0.0526 -0.8221 -0.0292
  130OSM   H14F14080   2.800   0.604   5.477  1.4330 -2.7797 -0.0182
  130OSM   H14G14081   2.653   0.624   5.578 -0.1660 -1.1320  0.3531
  130OSM   C15F14082   2.651   0.451   5.437  0.9759  0.0134  0.9373
  130OSM   H15F14083   2.586   0.382   5.495  1.7543 -1.8566 -0.3335
  130OSM   H15G14084   2.722   0.384   5.384 -0.3266  0.2337 -1.1991
  130OSM   C16F14085   2.565   0.529   5.337 -0.0380  0.3013  0.1428
  130OSM   H16F14086   2.612   0.623   5.301 -0.5152 -0.0372 -1.4620
  130OSM   H16G14087   2.479   0.564   5.398  1.1647  0.6523  1.6698
  130OSM   C17F14088   2.515   0.465   5.214  0.0484  0.3146  0.2320
  130OSM   H17F14089   2.450   0.548   5.178  0.5790  1.8366  2.5434
  130OSM   H17G14090   2.458   0.372   5.234  1.0370 -0.8841 -2.0796
  130OSM   C18F14091   2.637   0.456   5.121  0.4607  0.4092 -0.1340
  130OSM   H18F14092   2.722   0.401   5.167 -1.4192 -1.9747  0.7909
  130OSM   H18G14093   2.679   0.554   5.090  0.4546  0.0803 -1.2136
  130OSM   H18H14094   2.612   0.411   5.022  1.8200  0.2291 -0.4107
  131OSM      N14095   2.570   1.835   7.155 -0.1109  0.1117 -0.2410
  131OSM    C1514096   2.504   1.849   7.011  0.1454  0.1816 -0.0032
  131OSM   H15A14097   2.422   1.783   6.985 -0.3504  1.1876 -1.0978
  131OSM   H15B14098   2.584   1.836   6.941 -0.4205  0.8754 -0.7960
  131OSM   H15C14099   2.465   1.949   6.998 -1.5306 -0.0526  2.3609
  131OSM    C1414100   2.454   1.836   7.252 -0.3241 -0.3144 -0.8757
  131OSM   H14A14101   2.401   1.742   7.253 -0.0897 -0.4489 -0.7519
  131OSM   H14B14102   2.391   1.921   7.231  1.8197  1.0002 -2.4891
  131OSM   H14C14103   2.493   1.835   7.352  0.2635 -1.1855 -1.0956
  131OSM    C1314104   2.626   1.698   7.168 -0.0668 -0.0028 -0.6117
  131OSM   H13A14105   2.544   1.628   7.162 -0.9240  0.7881  1.1488
  131OSM   H13B14106   2.658   1.691   7.271 -0.8015  0.1072 -0.3735
  131OSM   H13C14107   2.702   1.673   7.096 -1.0662 -0.3000 -1.5901
  131OSM    C1214108   2.681   1.933   7.182  0.9940  0.1865 -0.3012
  131OSM   H12A14109   2.713   1.919   7.285 -0.4191  0.2189  0.1654
  131OSM   H12B14110   2.634   2.030   7.194  1.8557  0.6545 -0.6053
  131OSM    C1114111   2.801   1.943   7.094 -0.7476  0.5051  0.0718
  131OSM   H11A14112   2.869   2.021   7.135 -0.5049 -0.2427  1.1342
  131OSM   H11B14113   2.767   1.969   6.991 -1.4942  2.6712  0.7985
  131OSM      P14114   3.014   1.800   7.139  0.1066 -0.6937 -0.2385
  131OSM    O1314115   3.016   1.848   7.281  0.6459  0.3138 -0.1600
  131OSM    O1414116   3.075   1.670   7.102 -0.2226 -0.3917 -0.4543
  131OSM    O1114117   3.090   1.917   7.057  0.1540 -0.1644  0.2465
  131OSM    O1214118   2.864   1.818   7.088  0.0871  0.1313 -0.1333
  131OSM    C1S14119   3.087   1.925   6.916  0.0261 -0.4061 -0.2930
  131OSM    H1S14120   3.014   1.857   6.868  1.1660 -1.0860 -1.1060
  131OSM    H1T14121   3.180   1.891   6.866 -0.2253 -0.9584 -0.3949
  131OSM     NF14122   3.060   2.046   6.715 -0.0003  0.7562 -0.0773
  131OSM    HNF14123   3.133   2.073   6.653  0.5837  0.1368  0.3260
  131OSM    C2S14124   3.063   2.069   6.855 -0.5107  0.3414  0.1576
  131OSM    H2S14125   2.963   2.105   6.887 -1.5375 -1.4299 -0.8597
  131OSM    C3S14126   3.166   2.172   6.914  0.4909  0.2687  0.0988
  131OSM    H3S14127   3.268   2.140   6.887 -0.0536 -1.8975  0.4052
  131OSM     O314128   3.170   2.171   7.055  0.1149  0.2962 -0.5580
  131OSM    HO314129   3.112   2.101   7.084 -1.6643  1.5906 -0.8301
  131OSM    C4S14130   3.151   2.316   6.862 -0.2145  0.0851 -0.6633
  131OSM    H4S14131   3.044   2.336   6.844  0.3186  3.5285 -0.5870
  131OSM    C5S14132   3.239   2.419   6.839 -0.0384 -0.1153  0.1445
  131OSM    H5S14133   3.344   2.408   6.872 -0.3079 -1.1485  0.7113
  131OSM    C6S14134   3.212   2.553   6.773 -0.2221  0.2463  0.4530
  131OSM    H6S14135   3.309   2.607   6.769  0.2183 -0.5769 -0.5960
  131OSM    H6T14136   3.160   2.617   6.847 -0.2510  0.8128 -0.0518
  131OSM    C7S14137   3.125   2.528   6.647 -0.0206 -0.2369  0.1604
  131OSM    H7S14138   3.074   2.622   6.619  1.5485  1.0266  1.3610
  131OSM    H7T14139   3.046   2.454   6.671 -1.0270  0.3835 -1.0728
  131OSM    C8S14140   3.207   2.476   6.525 -0.0979 -1.1528 -0.4576
  131OSM    H8S14141   3.248   2.377   6.553 -2.0016 -2.4236 -1.8641
  131OSM    H8T14142   3.285   2.555   6.518  1.7542 -2.8225  0.3872
  131OSM    C9S14143   3.106   2.452   6.411 -0.0578 -0.1511 -0.3562
  131OSM    H9S14144   3.037   2.539   6.399 -1.4025 -0.7739  2.1696
  131OSM    H9T14145   3.053   2.359   6.440 -1.2280  1.0427  1.5949
  131OSM   C10S14146   3.168   2.414   6.274 -0.9681  0.8959 -0.4980
  131OSM   H10S14147   3.241   2.331   6.285 -0.8607  1.1395  0.8138
  131OSM   H10T14148   3.223   2.508   6.251 -0.4194  0.2268 -2.0314
  131OSM   C11S14149   3.071   2.391   6.165 -0.1855  0.0024 -0.2643
  131OSM   H11S14150   2.997   2.474   6.158  0.5591  1.0471  2.8856
  131OSM   H11T14151   3.005   2.308   6.199  0.0376 -0.0014  0.1671
  131OSM   C12S14152   3.133   2.375   6.031 -0.2462 -0.6262 -0.2170
  131OSM   H12S14153   3.208   2.293   6.026  1.4296  0.9128 -2.2767
  131OSM   H12T14154   3.183   2.471   6.007 -2.5145  1.2099  1.8932
  131OSM   C13S14155   3.029   2.355   5.923 -0.0233 -0.2479  0.2886
  131OSM   H13S14156   2.931   2.397   5.956 -0.4663 -0.2245 -1.0123
  131OSM   H13T14157   3.017   2.246   5.906 -0.0354 -0.1997 -0.0153
  131OSM   C14S14158   3.048   2.429   5.790  0.4144  0.0422 -0.4837
  131OSM   H14S14159   3.057   2.537   5.815 -1.7393  0.2368 -0.4330
  131OSM   H14T14160   2.957   2.415   5.728  0.2818 -0.5516 -0.1524
  131OSM   C15S14161   3.163   2.367   5.703 -0.5521  0.6477  0.2650
  131OSM   H15S14162   3.113   2.282   5.652 -2.7319  1.4587  0.9546
  131OSM   H15T14163   3.246   2.325   5.764 -0.7169 -0.3401 -0.1730
  131OSM   C16S14164   3.226   2.458   5.600 -0.4373  0.3289  0.3320
  131OSM   H16S14165   3.148   2.536   5.587 -0.3195  0.7335  1.8657
  131OSM   H16T14166   3.256   2.411   5.504  0.5853 -0.5325  1.0465
  131OSM   C17S14167   3.345   2.530   5.660  0.8913  0.1466  0.5239
  131OSM   H17S14168   3.320   2.549   5.767  1.4020  2.1629  0.3158
  131OSM   H17T14169   3.389   2.628   5.634  0.3029  0.4855  0.7812
  131OSM   C18S14170   3.474   2.438   5.663  0.0715  0.1397  0.1285
  131OSM   H18S14171   3.466   2.362   5.744  0.6199  0.8223  0.8467
  131OSM   H18T14172   3.553   2.503   5.707 -2.2034  0.9089  3.4662
  131OSM   H18U14173   3.496   2.397   5.562 -1.9113  1.0677 -0.7284
  131OSM    C1F14174   2.955   1.998   6.646  0.6174 -0.0392 -0.0939
  131OSM     OF14175   2.866   1.955   6.714  0.2472 -0.0120 -0.0932
  131OSM    C2F14176   2.937   2.002   6.500  0.1379 -0.1553  0.2611
  131OSM    H2F14177   2.938   1.898   6.460  1.5794 -0.6014  1.3701
  131OSM    H2G14178   3.011   2.063   6.446  0.7831 -2.2761 -1.3806
  131OSM    C3F14179   2.801   2.048   6.450 -0.0409  0.7386 -0.3388
  131OSM    H3F14180   2.792   2.146   6.502 -2.3057  0.0067  0.8192
  131OSM    H3G14181   2.719   1.981   6.484  1.2389 -0.7145 -0.0107
  131OSM    C4F14182   2.799   2.060   6.297 -0.0583 -0.3342 -0.2676
  131OSM    H4F14183   2.837   1.962   6.262 -0.8709 -0.9660  0.5655
  131OSM    H4G14184   2.863   2.145   6.265 -2.5134  2.3869  1.5483
  131OSM    C5F14185   2.656   2.090   6.240 -0.0010  0.7815  0.1652
  131OSM    H5F14186   2.613   2.175   6.297 -2.5087  0.3605 -0.9752
  131OSM    H5G14187   2.598   2.001   6.272  0.9778  0.2729  0.5787
  131OSM    C6F14188   2.658   2.113   6.087  0.5966  0.0917  0.1104
  131OSM    H6F14189   2.712   2.028   6.039 -0.6691 -0.0302 -1.1480
  131OSM    H6G14190   2.726   2.198   6.066  3.0925 -2.0120 -1.0354
  131OSM    C7F14191   2.515   2.127   6.025 -0.1182 -0.3128  0.2433
  131OSM    H7F14192   2.463   2.218   6.061  0.2451  1.4380 -3.2809
  131OSM    H7G14193   2.450   2.046   6.066 -0.7353  0.3888  0.6712
  131OSM    C8F14194   2.526   2.123   5.871  0.5421 -0.1466  1.2286
  131OSM    H8F14195   2.420   2.120   5.838 -0.0442  0.3427  2.9428
  131OSM    H8G14196   2.562   2.021   5.846 -0.3777 -0.2313  0.1988
  131OSM    C9F14197   2.599   2.240   5.803  0.3170 -0.4102  0.0214
  131OSM    H9F14198   2.569   2.340   5.839 -0.1904 -0.5798  0.0746
  131OSM   C10F14199   2.698   2.224   5.716 -0.4303  0.9955 -0.1153
  131OSM   H10F14200   2.740   2.309   5.661  1.4357 -0.6003 -1.2620
  131OSM   C11F14201   2.743   2.086   5.659  0.3106 -0.1737 -0.0096
  131OSM   H11F14202   2.670   2.056   5.582 -0.3555  1.1177  0.0848
  131OSM   H11G14203   2.751   2.009   5.738  1.0597 -1.9002 -1.7089
  131OSM   C12F14204   2.887   2.100   5.613  0.4857  0.2119 -0.5931
  131OSM   H12F14205   2.913   1.994   5.595 -0.0193  0.0833 -0.5994
  131OSM   H12G14206   2.956   2.137   5.692  0.5136 -0.0228 -0.5060
  131OSM   C13F14207   2.895   2.182   5.477 -0.1065  0.0380  0.2530
  131OSM   H13F14208   2.880   2.290   5.496  3.5082  0.9164 -1.2169
  131OSM   H13G14209   2.808   2.164   5.409 -1.2776  0.2823  1.6301
  131OSM   C14F14210   3.029   2.170   5.406  0.3726  0.0886  0.1373
  131OSM   H14F14211   3.030   2.075   5.349  2.0838 -0.9343  1.7641
  131OSM   H14G14212   3.114   2.180   5.477  0.4564  0.7300 -0.0467
  131OSM   C15F14213   3.037   2.274   5.292  0.1188 -0.0877  0.6106
  131OSM   H15F14214   3.007   2.374   5.331 -0.4746 -0.1778  0.3956
  131OSM   H15G14215   2.964   2.251   5.212  1.0514 -4.2074  0.7295
  131OSM   C16F14216   3.174   2.272   5.219  0.0950  0.4970 -0.4688
  131OSM   H16F14217   3.177   2.170   5.174  0.3302  0.1129  0.3873
  131OSM   H16G14218   3.264   2.278   5.284 -0.0345 -2.9762  0.2646
  131OSM   C17F14219   3.181   2.390   5.125 -0.1893 -0.0034 -0.4382
  131OSM   H17F14220   3.151   2.485   5.175  0.2685 -0.7675  1.3764
  131OSM   H17G14221   3.105   2.373   5.046  0.3801  0.0003 -0.9893
  131OSM   C18F14222   3.317   2.411   5.055  0.0731 -0.2106  0.1381
  131OSM   H18F14223   3.303   2.480   4.969  0.3328 -1.6092 -1.0754
  131OSM   H18G14224   3.351   2.319   5.003 -1.1023 -1.0640  0.8375
  131OSM   H18H14225   3.389   2.444   5.133  0.7611  1.0435 -0.9932
  132OSM      N14226   3.503   5.275   7.356  0.0292 -0.5350  0.2112
  132OSM    C1514227   3.475   5.172   7.254 -0.0129 -0.4707  0.5014
  132OSM   H15A14228   3.560   5.121   7.212  1.2943  3.1062 -1.6340
  132OSM   H15B14229   3.436   5.227   7.170  1.9275 -0.9348 -0.7813
  132OSM   H15C14230   3.403   5.101   7.291 -1.1468  0.9492  1.1275
  132OSM    C1414231   3.372   5.323   7.413 -0.0507  0.1038 -0.2976
  132OSM   H14A14232   3.394   5.396   7.490  0.7829 -1.1376  0.6792
  132OSM   H14B14233   3.312   5.250   7.465  1.0506  0.9821  2.4297
  132OSM   H14C14234   3.316   5.370   7.334 -0.9952 -0.2263  0.1675
  132OSM    C1314235   3.590   5.211   7.458 -0.1505 -0.3013 -0.3278
  132OSM   H13A14236   3.686   5.193   7.411  1.5532  1.6046  2.1172
  132OSM   H13B14237   3.554   5.117   7.496 -2.4898 -0.6202 -2.9697
  132OSM   H13C14238   3.610   5.276   7.542 -0.8929  0.2975 -0.6113
  132OSM    C1214239   3.561   5.401   7.292  0.0876  0.1870 -0.5692
  132OSM   H12A14240   3.487   5.434   7.221  0.2335 -1.2317 -1.4299
  132OSM   H12B14241   3.650   5.374   7.236  0.8140 -0.6384  0.9223
  132OSM    C1114242   3.608   5.512   7.382  0.3433  0.6580 -0.7354
  132OSM   H11A14243   3.534   5.525   7.463  0.9642  1.8013 -0.3176
  132OSM   H11B14244   3.607   5.603   7.318 -2.8352  1.4145  0.2049
  132OSM      P14245   3.869   5.524   7.341  0.4080  0.1497 -0.3006
  132OSM    O1314246   3.989   5.537   7.428  0.1342  0.1712  0.8373
  132OSM    O1414247   3.866   5.420   7.238 -0.4837 -0.2929  0.0004
  132OSM    O1114248   3.842   5.668   7.273 -0.5948 -0.7756 -0.1710
  132OSM    O1214249   3.743   5.491   7.437  0.1725 -0.3142  0.0469
  132OSM    C1S14250   3.927   5.740   7.183 -0.5629 -0.7545 -0.0772
  132OSM    H1S14251   4.032   5.710   7.201 -0.2203  0.3245 -0.1738
  132OSM    H1T14252   3.914   5.848   7.207  0.8573 -0.3821 -0.8476
  132OSM     NF14253   3.992   5.768   6.952  0.1446 -0.0803 -0.3525
  132OSM    HNF14254   3.994   5.862   6.918 -1.2196 -0.3133 -1.1667
  132OSM    C2S14255   3.884   5.719   7.034  0.6488  0.5507 -0.5638
  132OSM    H2S14256   3.872   5.610   7.021 -0.5338  0.6102 -0.0919
  132OSM    C3S14257   3.744   5.766   7.004  0.2011 -0.2155  0.3428
  132OSM    H3S14258   3.739   5.876   7.019 -1.5867  0.0941 -1.9764
  132OSM     O314259   3.644   5.723   7.092 -0.5705 -0.1749 -0.0491
  132OSM    HO314260   3.693   5.695   7.169 -0.6760  0.2190  0.1675
  132OSM    C4S14261   3.700   5.730   6.869  1.0899  0.2761  0.1629
  132OSM    H4S14262   3.670   5.625   6.860  0.6588  0.5337 -2.0092
  132OSM    C5S14263   3.682   5.809   6.759  0.6879  0.0424  0.2388
  132OSM    H5S14264   3.699   5.917   6.768  2.0287 -0.0755 -0.5535
  132OSM    C6S14265   3.628   5.769   6.625 -0.2315 -0.7538 -0.5909
  132OSM    H6S14266   3.527   5.813   6.610  0.1527  0.1178 -0.6548
  132OSM    H6T14267   3.619   5.659   6.614 -1.3208 -0.7247 -0.1428
  132OSM    C7S14268   3.728   5.797   6.514  0.2671  0.2550  0.0660
  132OSM    H7S14269   3.824   5.744   6.531 -0.0812 -0.2234  0.5784
  132OSM    H7T14270   3.743   5.907   6.508 -1.3175  0.4645 -0.4414
  132OSM    C8S14271   3.674   5.759   6.374 -0.6441 -0.2322 -0.0372
  132OSM    H8S14272   3.584   5.821   6.351  1.4567  2.5633 -1.3790
  132OSM    H8T14273   3.637   5.655   6.380 -0.8034 -0.3372 -2.1119
  132OSM    C9S14274   3.769   5.755   6.255 -0.0392 -0.2204  0.5296
  132OSM    H9S14275   3.860   5.697   6.285  0.2393 -0.2120 -0.2676
  132OSM    H9T14276   3.810   5.858   6.244  0.1001 -0.3171  0.1221
  132OSM   C10S14277   3.716   5.722   6.114  0.1455 -0.3734  0.2764
  132OSM   H10S14278   3.641   5.799   6.084  0.5320  0.2364  0.8495
  132OSM   H10T14279   3.666   5.623   6.119  0.5621 -0.5630  0.8104
  132OSM   C11S14280   3.825   5.699   6.007  0.2483  0.3344 -0.0798
  132OSM   H11S14281   3.877   5.602   6.019 -2.5753 -1.5887 -2.1114
  132OSM   H11T14282   3.893   5.784   6.029 -0.3098  0.4352  1.3548
  132OSM   C12S14283   3.771   5.700   5.854 -0.1718  0.1463  0.1219
  132OSM   H12S14284   3.861   5.709   5.790  0.1189  2.2897  0.7367
  132OSM   H12T14285   3.716   5.796   5.841 -0.7270 -0.5213 -3.5589
  132OSM   C13S14286   3.696   5.576   5.819 -0.1970  0.0123  0.4020
  132OSM   H13S14287   3.616   5.549   5.890 -0.8602 -2.1805 -1.0441
  132OSM   H13T14288   3.770   5.493   5.811 -2.2219 -1.8480  0.1343
  132OSM   C14S14289   3.629   5.587   5.685 -0.3044  0.5177  0.0740
  132OSM   H14S14290   3.572   5.681   5.670 -1.0033  0.1397  0.3105
  132OSM   H14T14291   3.563   5.499   5.671 -2.0757  1.9320 -0.8246
  132OSM   C15S14292   3.721   5.565   5.569 -0.2354  0.4795  0.4374
  132OSM   H15S14293   3.790   5.480   5.587  0.7708  1.4481  1.3793
  132OSM   H15T14294   3.799   5.645   5.576  0.7555 -0.5133  1.1304
  132OSM   C16S14295   3.649   5.549   5.431  0.2720 -0.5003 -0.1476
  132OSM   H16S14296   3.664   5.638   5.367 -0.4816 -1.8034 -2.2289
  132OSM   H16T14297   3.539   5.545   5.446 -0.4494 -0.1456 -4.2847
  132OSM   C17S14298   3.676   5.420   5.353 -0.6297 -0.1893  0.4758
  132OSM   H17S14299   3.646   5.339   5.422  0.4893 -0.2480  0.9074
  132OSM   H17T14300   3.784   5.409   5.331 -0.0957  0.9037  2.3479
  132OSM   C18S14301   3.598   5.427   5.219 -0.2548  0.0523 -0.6244
  132OSM   H18S14302   3.631   5.515   5.160 -1.5908  0.2478 -1.1127
  132OSM   H18T14303   3.489   5.434   5.242 -0.3516 -2.9598  0.2601
  132OSM   H18U14304   3.618   5.338   5.156 -3.5777 -1.0534 -0.3143
  132OSM    C1F14305   4.098   5.692   6.938 -0.3615 -0.3602 -0.2544
  132OSM     OF14306   4.090   5.578   6.968 -0.2954 -0.8455 -0.3623
  132OSM    C2F14307   4.226   5.754   6.899  0.0742 -0.2216  0.6316
  132OSM    H2F14308   4.289   5.774   6.989  2.0164  0.4680 -0.8287
  132OSM    H2G14309   4.210   5.851   6.848  0.3495 -1.0487 -1.0643
  132OSM    C3F14310   4.301   5.672   6.796  0.4733 -0.4139 -0.6065
  132OSM    H3F14311   4.328   5.574   6.839 -3.3039 -1.5185 -0.4132
  132OSM    H3G14312   4.387   5.732   6.761 -0.6673  0.6727 -1.6558
  132OSM    C4F14313   4.219   5.654   6.669 -0.2918  0.3029 -0.6044
  132OSM    H4F14314   4.152   5.743   6.666 -0.5167  0.1379 -0.4934
  132OSM    H4G14315   4.159   5.561   6.678 -0.2953  0.3185 -0.4540
  132OSM    C5F14316   4.300   5.634   6.541  0.2439 -0.5626  0.0792
  132OSM    H5F14317   4.327   5.527   6.530 -0.4272 -0.7441  0.1254
  132OSM    H5G14318   4.391   5.696   6.543  0.6937 -0.9629 -3.3564
  132OSM    C6F14319   4.218   5.667   6.415 -0.7127  0.0480 -0.6908
  132OSM    H6F14320   4.180   5.771   6.428  1.0478  0.7165 -0.6843
  132OSM    H6G14321   4.137   5.591   6.407  1.0421 -2.1493  1.0755
  132OSM    C7F14322   4.302   5.659   6.291 -0.6075  0.2133 -0.3003
  132OSM    H7F14323   4.333   5.555   6.265  2.2264  0.9461 -0.2404
  132OSM    H7G14324   4.392   5.720   6.315 -0.9315  0.6536 -0.2109
  132OSM    C8F14325   4.241   5.717   6.172  0.0498 -0.1491 -0.4403
  132OSM    H8F14326   4.216   5.822   6.197 -0.8003 -0.5112  0.2897
  132OSM    H8G14327   4.143   5.664   6.165 -0.5769  0.7336  1.2746
  132OSM    C9F14328   4.332   5.713   6.057 -0.6295  0.2708  0.3715
  132OSM    H9F14329   4.434   5.737   6.091 -0.9878  0.4398  1.3676
  132OSM   C10F14330   4.294   5.694   5.935  0.1477 -1.0944  0.5131
  132OSM   H10F14331   4.366   5.704   5.852  0.0684 -2.3845  0.2646
  132OSM   C11F14332   4.154   5.653   5.892  0.0398 -0.4100  0.0172
  132OSM   H11F14333   4.082   5.736   5.909 -0.6972 -1.2479  1.1484
  132OSM   H11G14334   4.117   5.581   5.969  0.7013 -2.1758 -1.2588
  132OSM   C12F14335   4.148   5.604   5.747  0.1507 -0.0550 -0.0737
  132OSM   H12F14336   4.138   5.690   5.677  3.0804  0.3976 -0.0592
  132OSM   H12G14337   4.058   5.539   5.739  0.7900 -0.9360 -0.3164
  132OSM   C13F14338   4.260   5.510   5.704  0.0015  0.1351  0.2353
  132OSM   H13F14339   4.271   5.433   5.784  1.1368 -0.4667 -0.4686
  132OSM   H13G14340   4.357   5.563   5.703 -1.2854  2.6457  0.5777
  132OSM   C14F14341   4.226   5.449   5.568 -0.1203 -0.0768  0.2185
  132OSM   H14F14342   4.135   5.385   5.567 -0.1079 -0.1002 -0.6568
  132OSM   H14G14343   4.315   5.385   5.545  0.3669  0.4965  0.4761
  132OSM   C15F14344   4.194   5.559   5.462 -0.6828  0.5370  0.5415
  132OSM   H15F14345   4.279   5.629   5.477  0.3671 -0.8856  1.4779
  132OSM   H15G14346   4.106   5.623   5.484 -2.2533 -1.9977  2.1688
  132OSM   C16F14347   4.191   5.503   5.320  0.1845 -1.1163 -0.5344
  132OSM   H16F14348   4.144   5.404   5.304  1.3577 -1.1717 -4.9571
  132OSM   H16G14349   4.295   5.504   5.280  0.8668  1.0647  1.0978
  132OSM   C17F14350   4.120   5.599   5.219  0.2906 -0.3578 -0.3053
  132OSM   H17F14351   4.190   5.685   5.216  0.4360 -0.4947 -0.9352
  132OSM   H17G14352   4.023   5.627   5.264 -0.0941 -0.9189 -0.7809
  132OSM   C18F14353   4.101   5.548   5.073 -0.1002 -0.1511 -0.3792
  132OSM   H18F14354   4.104   5.634   5.003  1.3543  0.8336  0.8042
  132OSM   H18G14355   4.012   5.483   5.065 -1.2717  1.2551  0.7787
  132OSM   H18H14356   4.190   5.485   5.052 -0.5068 -0.9988  0.3690
  133OSM      N14357   0.643   6.480   7.086 -0.0883  0.1093  0.0755
  133OSM    C1514358   0.771   6.475   7.180  0.2812  0.0238  0.2262
  133OSM   H15A14359   0.800   6.373   7.200 -0.3958 -0.3245 -0.4881
  133OSM   H15B14360   0.752   6.529   7.272 -0.7379 -0.6950  0.4444
  133OSM   H15C14361   0.852   6.531   7.134 -2.5426  2.3675 -2.2957
  133OSM    C1414362   0.524   6.419   7.152 -0.1201 -0.3400  0.1399
  133OSM   H14A14363   0.528   6.311   7.151 -2.9723 -0.5366 -2.2193
  133OSM   H14B14364   0.440   6.464   7.101  1.7937  0.0186 -2.9634
  133OSM   H14C14365   0.521   6.453   7.255  0.0120  1.6458 -0.4793
  133OSM    C1314366   0.608   6.630   7.071  0.0643  0.0437 -0.2423
  133OSM   H13A14367   0.512   6.639   7.023  0.4817 -1.8568 -1.5797
  133OSM   H13B14368   0.683   6.683   7.014  0.7952  0.0052  0.6651
  133OSM   H13C14369   0.600   6.678   7.167  1.5801  0.5638 -0.3534
  133OSM    C1214370   0.676   6.416   6.954  0.4671 -0.0444  0.3355
  133OSM   H12A14371   0.755   6.469   6.903 -0.2602 -0.2884 -1.1173
  133OSM   H12B14372   0.601   6.429   6.878  0.5013 -0.2481  0.2634
  133OSM    C1114373   0.703   6.262   6.952 -0.0558 -0.8922 -0.2172
  133OSM   H11A14374   0.794   6.241   7.013  0.4469 -0.0919 -0.6739
  133OSM   H11B14375   0.734   6.242   6.847  2.1848 -0.0681  0.2219
  133OSM      P14376   0.472   6.182   6.879  0.2218  0.2221 -0.3683
  133OSM    O1314377   0.473   6.047   6.823 -0.1291 -0.0535 -0.4819
  133OSM    O1414378   0.345   6.241   6.941 -0.4864 -0.3053  0.5509
  133OSM    O1114379   0.509   6.282   6.759  0.0684 -0.5396  0.2565
  133OSM    O1214380   0.587   6.192   6.991  0.2874  0.3670 -0.2091
  133OSM    C1S14381   0.429   6.273   6.645  0.0995 -0.3551 -0.3625
  133OSM    H1S14382   0.326   6.288   6.685  0.3023  0.3409 -0.0783
  133OSM    H1T14383   0.438   6.172   6.601  1.6407 -0.7246  0.7065
  133OSM     NF14384   0.364   6.405   6.442 -0.2067  0.3865  0.7247
  133OSM    HNF14385   0.379   6.364   6.353 -0.3010 -0.5484  1.1290
  133OSM    C2S14386   0.469   6.380   6.543  0.3383  0.4341 -0.1650
  133OSM    H2S14387   0.462   6.475   6.600 -2.6454  1.3690 -1.8408
  133OSM    C3S14388   0.619   6.367   6.497  0.5182 -0.3852  0.2026
  133OSM    H3S14389   0.620   6.265   6.453 -0.3868 -0.8774  1.2723
  133OSM     O314390   0.710   6.351   6.608 -0.3741 -0.3671  0.8177
  133OSM    HO314391   0.641   6.348   6.674 -2.3694  1.4644 -1.0092
  133OSM    C4S14392   0.642   6.475   6.395  0.0291  0.4298 -0.4393
  133OSM    H4S14393   0.632   6.435   6.293 -2.5077 -0.1513 -0.0398
  133OSM    C5S14394   0.673   6.606   6.415  0.1208  0.3697  0.2963
  133OSM    H5S14395   0.695   6.642   6.516 -2.0254 -0.2550  1.0458
  133OSM    C6S14396   0.689   6.697   6.296 -0.1976  0.6076 -0.4385
  133OSM    H6S14397   0.797   6.720   6.300  0.8834 -3.7142  0.0087
  133OSM    H6T14398   0.624   6.786   6.315  1.3982  1.2371  2.8114
  133OSM    C7S14399   0.664   6.654   6.149 -0.2474 -0.6931  0.3119
  133OSM    H7S14400   0.560   6.616   6.146 -0.5336 -0.3368  3.0753
  133OSM    H7T14401   0.735   6.571   6.128 -1.3867 -1.3195 -1.2937
  133OSM    C8S14402   0.688   6.770   6.044  0.7320 -0.2541  0.3840
  133OSM    H8S14403   0.786   6.810   6.078  1.8018 -3.1979  1.1632
  133OSM    H8T14404   0.620   6.857   6.049  1.1224  0.2856 -2.1760
  133OSM    C9S14405   0.661   6.726   5.904  0.5064  0.3560  0.0997
  133OSM    H9S14406   0.568   6.667   5.923  1.3334 -0.6416  1.1983
  133OSM    H9T14407   0.740   6.662   5.859 -0.0564  1.6224 -2.9519
  133OSM   C10S14408   0.639   6.845   5.809  0.5829 -0.2687 -0.1538
  133OSM   H10S14409   0.737   6.897   5.803  0.5301  0.3566  2.7980
  133OSM   H10T14410   0.567   6.912   5.860  1.4161  1.1045 -0.7399
  133OSM   C11S14411   0.589   6.795   5.675  0.1703  0.4171 -0.1868
  133OSM   H11S14412   0.486   6.753   5.680  0.5253 -0.3502  1.5343
  133OSM   H11T14413   0.660   6.720   5.633 -1.2039 -0.2592 -1.4014
  133OSM   C12S14414   0.578   6.902   5.567  0.1900  0.1589 -0.2729
  133OSM   H12S14415   0.678   6.945   5.546 -0.0591  2.2288  2.2133
  133OSM   H12T14416   0.521   6.993   5.597 -0.1302 -0.0245 -0.3228
  133OSM   C13S14417   0.520   6.845   5.436 -0.0741  0.7622 -0.4663
  133OSM   H13S14418   0.410   6.835   5.451  0.2777  1.1323  3.2899
  133OSM   H13T14419   0.567   6.745   5.427  0.0311  1.0208 -4.6222
  133OSM   C14S14420   0.555   6.928   5.311  0.2284 -0.0602 -0.1185
  133OSM   H14S14421   0.664   6.945   5.316  0.1024  0.8570 -0.3972
  133OSM   H14T14422   0.497   7.022   5.321 -0.5571 -0.6738  1.5786
  133OSM   C15S14423   0.511   6.870   5.177 -0.5708 -0.1382 -0.4817
  133OSM   H15S14424   0.405   6.838   5.183  0.2458 -3.0230  0.1333
  133OSM   H15T14425   0.569   6.775   5.171 -1.1649 -0.5619  0.2364
  133OSM   C16S14426   0.554   6.953   5.051  0.8220  0.4058  0.3074
  133OSM   H16S14427   0.665   6.947   5.042  0.8511 -2.1217  1.2302
  133OSM   H16T14428   0.529   7.057   5.079  0.2555  0.9432 -2.0088
  133OSM   C17S14429   0.491   6.897   4.921  0.2067 -0.0976  0.0253
  133OSM   H17S14430   0.382   6.904   4.943  0.3687  0.9365  0.5590
  133OSM   H17T14431   0.521   6.791   4.912 -0.7046 -0.4188  0.6129
  133OSM   C18S14432   0.535   6.987   4.802  0.0176  0.0454  0.1704
  133OSM   H18S14433   0.470   6.956   4.717  0.1175  0.8307 -0.1974
  133OSM   H18T14434   0.641   6.986   4.771  1.0779  1.4489  3.3830
  133OSM   H18U14435   0.502   7.089   4.829 -2.5035 -0.6234 -0.0939
  133OSM    C1F14436   0.237   6.429   6.467 -0.4534 -0.3234 -0.3023
  133OSM     OF14437   0.204   6.470   6.579  0.4784 -0.0501  0.5338
  133OSM    C2F14438   0.146   6.409   6.352 -0.7130  0.2859 -0.2099
  133OSM    H2F14439   0.145   6.302   6.321 -1.2949 -0.2258  1.4631
  133OSM    H2G14440   0.187   6.473   6.271  1.8365 -3.5649 -2.2917
  133OSM    C3F14441   0.002   6.461   6.375  1.2125  0.3254  1.2285
  133OSM    H3F14442  -0.006   6.567   6.409 -1.1007  1.5810 -2.5434
  133OSM    H3G14443  -0.042   6.400   6.456 -1.3251 -1.2878 -1.1439
  133OSM    C4F14444  -0.089   6.427   6.250 -0.2189  0.3162 -0.0827
  133OSM    H4F14445  -0.191   6.441   6.292  0.4559  0.1432  1.7039
  133OSM    H4G14446  -0.078   6.321   6.220  0.2811 -0.0175  1.2044
  133OSM    C5F14447  -0.052   6.513   6.122 -0.1330 -0.4191 -0.0500
  133OSM    H5F14448   0.057   6.494   6.110  0.1421 -0.7301  2.3312
  133OSM    H5G14449  -0.087   6.613   6.154 -2.1334 -1.6271  1.8366
  133OSM    C6F14450  -0.133   6.478   6.001  0.2373 -0.5197  0.7925
  133OSM    H6F14451  -0.242   6.483   6.026  0.4189 -0.3307  1.5602
  133OSM    H6G14452  -0.122   6.376   5.958 -0.1184  0.1822 -1.0814
  133OSM    C7F14453  -0.122   6.578   5.886 -0.1601 -0.3189 -0.4619
  133OSM    H7F14454  -0.013   6.584   5.863  0.4913 -3.9032  1.0896
  133OSM    H7G14455  -0.148   6.681   5.919 -0.3682 -1.1475  2.1075
  133OSM    C8F14456  -0.201   6.542   5.765  0.2547  0.4677 -0.5777
  133OSM    H8F14457  -0.306   6.575   5.782  0.3415  0.0940  0.8893
  133OSM    H8G14458  -0.217   6.433   5.748 -0.8051  0.5827 -0.3810
  133OSM    C9F14459  -0.156   6.623   5.649  0.4803 -0.0456 -0.2388
  133OSM    H9F14460  -0.046   6.631   5.639  0.5889 -0.3004  0.6552
  133OSM   C10F14461  -0.229   6.693   5.555  0.4231  0.3567 -0.5224
  133OSM   H10F14462  -0.171   6.739   5.473  1.4250 -0.9041 -0.5507
  133OSM   C11F14463  -0.372   6.718   5.533 -0.1726 -0.4635  0.0839
  133OSM   H11F14464  -0.395   6.819   5.493  0.1648  0.4593  2.1159
  133OSM   H11G14465  -0.427   6.715   5.629 -2.9827  0.4317 -1.3867
  133OSM   C12F14466  -0.437   6.619   5.435 -0.0361  0.2411  0.2290
  133OSM   H12F14467  -0.547   6.629   5.440 -0.1931 -0.6009 -0.9995
  133OSM   H12G14468  -0.408   6.518   5.471  2.1193  0.6467 -0.1872
  133OSM   C13F14469  -0.375   6.617   5.286 -0.4997  0.4917 -0.8348
  133OSM   H13F14470  -0.436   6.537   5.240  1.1848 -0.5866 -1.2695
  133OSM   H13G14471  -0.272   6.575   5.286  0.4173  2.6011 -0.8728
  133OSM   C14F14472  -0.370   6.741   5.204  0.2259  0.7940  0.5171
  133OSM   H14F14473  -0.331   6.821   5.270 -0.3165 -0.1843  2.0748
  133OSM   H14G14474  -0.471   6.776   5.173 -0.4241 -0.0518  1.5881
  133OSM   C15F14475  -0.284   6.716   5.084 -0.1589  0.1642  0.3395
  133OSM   H15F14476  -0.324   6.633   5.022  1.4723 -0.8631  0.6155
  133OSM   H15G14477  -0.176   6.693   5.099  0.3523  2.1433  0.0111
  133OSM   C16F14478  -0.283   6.844   4.987  0.3973 -0.1471 -0.9394
  133OSM   H16F14479  -0.191   6.902   5.006 -0.4941  1.1521 -0.4582
  133OSM   H16G14480  -0.375   6.901   5.014  0.1399 -1.2109  0.5344
  133OSM   C17F14481  -0.296   6.808   4.840 -0.0136  0.0652  0.1826
  133OSM   H17F14482  -0.391   6.754   4.816  0.9112 -1.1734 -0.8075
  133OSM   H17G14483  -0.215   6.737   4.813  0.7209  0.7698  0.4857
  133OSM   C18F14484  -0.262   6.931   4.745 -0.3587  0.5832  0.1844
  133OSM   H18F14485  -0.176   6.988   4.786  0.8322  0.1462 -1.6001
  133OSM   H18G14486  -0.349   7.000   4.739  0.6777  1.8632 -0.7000
  133OSM   H18H14487  -0.245   6.904   4.638 -1.5225 -0.6768  0.2793
  134OSM      N14488   0.063   5.537   6.833 -0.1559 -0.4757  0.2070
  134OSM    C1514489  -0.002   5.542   6.970  0.4990  0.1043 -0.3973
  134OSM   H15A14490  -0.089   5.480   6.958  0.4821 -0.6159  2.7240
  134OSM   H15B14491  -0.036   5.642   6.994 -0.8293 -0.0391 -1.5480
  134OSM   H15C14492   0.062   5.493   7.041 -0.1833 -0.6684 -0.3120
  134OSM    C1414493   0.181   5.623   6.844  0.3590  0.3192  0.9830
  134OSM   H14A14494   0.151   5.726   6.835  1.6925  0.7523  1.2822
  134OSM   H14B14495   0.246   5.601   6.761  0.3398 -1.4792  1.3959
  134OSM   H14C14496   0.231   5.599   6.937  2.0240  0.5504  0.1801
  134OSM    C1314497   0.102   5.399   6.792  1.1087  0.7218 -0.0914
  134OSM   H13A14498   0.008   5.356   6.760  1.2787  1.7884 -2.1585
  134OSM   H13B14499   0.132   5.328   6.868 -0.8389 -1.6036 -1.3480
  134OSM   H13C14500   0.163   5.403   6.703 -0.2790  1.7404 -1.0493
  134OSM    C1214501  -0.029   5.595   6.727 -0.1680 -0.8664  0.4097
  134OSM   H12A14502   0.022   5.578   6.634  1.4697  1.0981  0.8731
  134OSM   H12B14503  -0.026   5.703   6.732  0.0370 -0.7590 -1.3534
  134OSM    C1114504  -0.176   5.547   6.717 -0.1859  0.3343 -0.0874
  134OSM   H11A14505  -0.229   5.600   6.635 -0.4156  0.2499  0.0060
  134OSM   H11B14506  -0.233   5.576   6.807  1.9288 -0.5611  1.6302
  134OSM      P14507  -0.239   5.329   6.575 -0.1290 -0.3252  0.0874
  134OSM    O1314508  -0.202   5.182   6.587  0.6087 -0.5423  0.3724
  134OSM    O1414509  -0.380   5.377   6.563  0.1001  1.0602 -0.0596
  134OSM    O1114510  -0.157   5.388   6.456 -0.1159 -0.9080 -0.4094
  134OSM    O1214511  -0.180   5.404   6.702  0.0384 -0.1719  0.2215
  134OSM    C1S14512  -0.019   5.413   6.461 -0.5021  0.6891  0.4153
  134OSM    H1S14513   0.036   5.369   6.548 -0.4319 -1.3405 -0.6028
  134OSM    H1T14514  -0.003   5.523   6.456 -1.1312  0.7419 -4.3962
  134OSM     NF14515   0.188   5.435   6.344 -0.0388 -0.9366  0.1413
  134OSM    HNF14516   0.191   5.529   6.311 -2.7063 -0.5360  0.8037
  134OSM    C2S14517   0.054   5.361   6.331  0.7466 -0.6636 -0.1199
  134OSM    H2S14518   0.062   5.252   6.346  0.6187 -0.7461 -0.6251
  134OSM    C3S14519  -0.034   5.381   6.204  0.0953  0.6096 -0.0121
  134OSM    H3S14520  -0.050   5.490   6.197  2.1753  0.9553  0.1919
  134OSM     O314521  -0.166   5.327   6.214  0.1053 -0.0440  0.5837
  134OSM    HO314522  -0.201   5.353   6.300  2.4509  1.3173  1.2087
  134OSM    C4S14523   0.045   5.340   6.083  0.5672  1.1831  0.9180
  134OSM    H4S14524   0.084   5.422   6.020 -1.1099  1.5101  0.2524
  134OSM    C5S14525   0.079   5.209   6.062  0.6632 -0.4322  0.4584
  134OSM    H5S14526   0.033   5.135   6.128 -2.1550 -0.3105 -1.2189
  134OSM    C6S14527   0.169   5.153   5.954 -0.0324  0.5811  0.8626
  134OSM    H6S14528   0.159   5.042   5.949 -0.6665  0.6850 -0.4190
  134OSM    H6T14529   0.277   5.171   5.974 -0.4243  2.0738  1.8265
  134OSM    C7S14530   0.125   5.197   5.812 -0.1500 -0.1029 -0.5257
  134OSM    H7S14531   0.108   5.307   5.808 -1.9247 -0.3525 -0.5920
  134OSM    H7T14532   0.024   5.155   5.793 -1.0119  2.1536 -1.3307
  134OSM    C8S14533   0.211   5.160   5.697  0.6053 -0.2373  1.5381
  134OSM    H8S14534   0.223   5.050   5.685 -1.8143 -0.2691 -3.0070
  134OSM    H8T14535   0.313   5.203   5.706  1.4199 -1.2480 -1.5131
  134OSM    C9S14536   0.146   5.224   5.568  0.0890 -0.0052 -0.6122
  134OSM    H9S14537   0.038   5.200   5.564  0.4830 -2.4194  0.9120
  134OSM    H9T14538   0.204   5.167   5.492  0.8844  2.6476 -2.1240
  134OSM   C10S14539   0.180   5.374   5.551  0.7203 -0.3674  0.1499
  134OSM   H10S14540   0.286   5.394   5.576  1.8114 -5.6032  0.8230
  134OSM   H10T14541   0.118   5.436   5.619 -1.4166  1.1192 -2.8910
  134OSM   C11S14542   0.147   5.432   5.411  0.1153  0.3440  0.0151
  134OSM   H11S14543   0.145   5.542   5.419 -0.6616  0.2398  1.4660
  134OSM   H11T14544   0.042   5.398   5.396  0.1510 -0.6820  1.8122
  134OSM   C12S14545   0.242   5.401   5.302 -0.2896  0.0657  0.2735
  134OSM   H12S14546   0.254   5.292   5.280 -0.1604  0.3077 -0.9481
  134OSM   H12T14547   0.340   5.439   5.336 -0.1320  0.2495 -0.3779
  134OSM   C13S14548   0.217   5.471   5.171 -0.0291  0.0161  0.2082
  134OSM   H13S14549   0.214   5.581   5.189 -0.6723 -0.1503  1.1436
  134OSM   H13T14550   0.117   5.462   5.125  0.0945 -0.3207  0.0009
  134OSM   C14S14551   0.330   5.434   5.071  0.2951 -0.5165  0.8416
  134OSM   H14S14552   0.337   5.325   5.052  3.6497  0.0282 -1.9793
  134OSM   H14T14553   0.426   5.461   5.120  0.7066 -0.4753  0.0162
  134OSM   C15S14554   0.323   5.512   4.941  0.2633  0.0742 -0.3080
  134OSM   H15S14555   0.295   5.618   4.960  0.2884 -0.0243  0.2985
  134OSM   H15T14556   0.242   5.463   4.884  0.5958 -1.2523  0.3221
  134OSM   C16S14557   0.454   5.514   4.862  0.3096 -0.8903 -0.4874
  134OSM   H16S14558   0.487   5.411   4.838 -0.2503 -1.0345 -0.6501
  134OSM   H16T14559   0.529   5.565   4.925 -0.2705 -0.7454  0.0996
  134OSM   C17S14560   0.432   5.598   4.729 -1.0768  0.1718  0.3088
  134OSM   H17S14561   0.403   5.704   4.749  1.8648  1.0371  0.5347
  134OSM   H17T14562   0.359   5.552   4.659  0.2099  1.3889 -1.9540
  134OSM   C18S14563   0.562   5.620   4.649 -0.2626 -0.3095 -0.5650
  134OSM   H18S14564   0.586   5.729   4.649 -3.2167  0.4478 -1.3165
  134OSM   H18T14565   0.560   5.582   4.544 -0.6894  2.8519 -1.8216
  134OSM   H18U14566   0.644   5.565   4.699  0.1709 -0.0983 -1.0331
  134OSM    C1F14567   0.284   5.397   6.429  0.7682  0.4219  0.5467
  134OSM     OF14568   0.260   5.301   6.505 -0.2450 -0.1296 -0.4802
  134OSM    C2F14569   0.413   5.474   6.436  0.4968  0.3227 -0.2659
  134OSM    H2F14570   0.407   5.542   6.524 -1.1670  0.3749 -0.3864
  134OSM    H2G14571   0.436   5.525   6.341 -0.3949  0.4237 -0.4400
  134OSM    C3F14572   0.529   5.387   6.471 -0.2410  0.2663  0.1168
  134OSM    H3F14573   0.516   5.347   6.574  1.6714 -0.2429  0.2084
  134OSM    H3G14574   0.620   5.450   6.478  1.4050 -2.0048  0.6617
  134OSM    C4F14575   0.566   5.266   6.378 -0.2456 -0.4402  0.7779
  134OSM    H4F14576   0.480   5.196   6.385 -1.3709  0.8679  0.3751
  134OSM    H4G14577   0.661   5.222   6.415 -0.5835 -1.5663  0.3652
  134OSM    C5F14578   0.579   5.308   6.229  0.1788 -0.1922  0.2175
  134OSM    H5F14579   0.655   5.388   6.222 -1.4855  1.5034  0.6717
  134OSM    H5G14580   0.478   5.329   6.189  0.4643  0.8873  0.0359
  134OSM    C6F14581   0.631   5.188   6.146 -0.2119 -0.4010 -0.0056
  134OSM    H6F14582   0.730   5.154   6.184  0.9188  0.1922 -2.2490
  134OSM    H6G14583   0.655   5.220   6.042  2.3994 -1.1092  0.3181
  134OSM    C7F14584   0.527   5.067   6.158  0.6827  0.7192  0.0073
  134OSM    H7F14585   0.429   5.113   6.134  1.2446  2.2512  0.4609
  134OSM    H7G14586   0.515   5.029   6.262 -1.2838  0.7478 -0.1824
  134OSM    C8F14587   0.571   4.952   6.066  0.0153  0.9038 -0.0968
  134OSM    H8F14588   0.493   4.874   6.080  1.8736 -0.8433  1.1147
  134OSM    H8G14589   0.663   4.905   6.107  2.4576  0.7878 -4.9348
  134OSM    C9F14590   0.597   4.978   5.920 -0.2491  0.2193 -0.0245
  134OSM    H9F14591   0.683   5.042   5.895  0.1964 -0.8525 -1.3094
  134OSM   C10F14592   0.508   4.939   5.822  0.3900 -0.6749  0.0768
  134OSM   H10F14593   0.533   4.966   5.718 -1.5066  2.6726  0.3260
  134OSM   C11F14594   0.387   4.844   5.832 -0.2510 -0.5537  0.1338
  134OSM   H11F14595   0.303   4.901   5.786 -0.7694  0.9549  2.7872
  134OSM   H11G14596   0.359   4.812   5.934 -2.6232 -1.6980 -0.7859
  134OSM   C12F14597   0.404   4.713   5.750  0.0570  0.0359  0.2532
  134OSM   H12F14598   0.334   4.638   5.791 -0.2398 -0.9860 -2.0171
  134OSM   H12G14599   0.511   4.683   5.752 -0.4950 -2.3139  3.5330
  134OSM   C13F14600   0.351   4.732   5.602 -0.3207 -0.6026 -0.3384
  134OSM   H13F14601   0.376   4.835   5.569  0.9724 -0.8565 -0.2099
  134OSM   H13G14602   0.240   4.732   5.604 -0.3479  0.7953  2.1048
  134OSM   C14F14603   0.415   4.629   5.513 -0.0715 -0.5416  0.7655
  134OSM   H14F14604   0.397   4.532   5.564  2.1317 -1.0522  0.6532
  134OSM   H14G14605   0.525   4.632   5.498  0.1263 -4.2112  0.6762
  134OSM   C15F14606   0.339   4.619   5.371 -0.0439 -0.4400  0.1725
  134OSM   H15F14607   0.232   4.622   5.399 -0.4216 -0.7063 -1.1807
  134OSM   H15G14608   0.353   4.523   5.316  0.2407 -0.0111 -0.5166
  134OSM   C16F14609   0.372   4.740   5.277 -0.7699 -0.4299 -0.5895
  134OSM   H16F14610   0.481   4.747   5.258 -0.6215 -0.4715  0.2261
  134OSM   H16G14611   0.354   4.837   5.328 -0.3884  0.3813 -1.9594
  134OSM   C17F14612   0.291   4.741   5.145  0.4093 -0.4697 -0.1555
  134OSM   H17F14613   0.182   4.749   5.169  0.4322 -3.1092  1.2261
  134OSM   H17G14614   0.306   4.635   5.115 -0.6887 -0.5268 -0.5600
  134OSM   C18F14615   0.331   4.849   5.043 -0.2922 -0.3163 -0.0811
  134OSM   H18F14616   0.279   4.843   4.944  2.7136 -1.9698 -1.6892
  134OSM   H18G14617   0.438   4.852   5.016  0.1784 -0.8182  1.6297
  134OSM   H18H14618   0.318   4.946   5.095  2.1117  0.8111 -1.4253
  135OSM      N14619   2.259   5.096   7.513 -0.4243  0.1370 -0.0192
  135OSM    C1514620   2.378   5.075   7.606 -0.0453  0.4883 -0.1123
  135OSM   H15A14621   2.410   4.972   7.597  0.4708  0.7555 -1.6928
  135OSM   H15B14622   2.346   5.097   7.707 -2.5544 -0.4346 -0.6567
  135OSM   H15C14623   2.463   5.137   7.581  1.8629 -1.1756  1.8223
  135OSM    C1414624   2.154   4.988   7.544 -0.4554 -0.7962 -0.0602
  135OSM   H14A14625   2.123   4.984   7.647  2.0601  0.7666  0.8608
  135OSM   H14B14626   2.195   4.890   7.523 -1.4476 -1.0746 -0.7690
  135OSM   H14C14627   2.074   4.997   7.471  1.3281  2.5988 -1.8554
  135OSM    C1314628   2.199   5.227   7.537 -0.6924 -0.0097 -0.1815
  135OSM   H13A14629   2.200   5.256   7.641  0.3023  0.9343 -0.4360
  135OSM   H13B14630   2.102   5.231   7.490 -1.0248 -0.4562  0.4483
  135OSM   H13C14631   2.257   5.312   7.504 -1.3929  1.0653  1.2280
  135OSM    C1214632   2.289   5.073   7.367  0.5795  0.3546  0.0383
  135OSM   H12A14633   2.201   5.090   7.307  1.4275  2.2572 -0.7498
  135OSM   H12B14634   2.311   4.968   7.363 -3.5673 -0.7380  1.2575
  135OSM    C1114635   2.407   5.152   7.312 -1.1089 -0.7391  0.3274
  135OSM   H11A14636   2.435   5.110   7.214 -1.6405  3.1041 -1.6738
  135OSM   H11B14637   2.492   5.136   7.382 -0.3603 -1.4650 -0.7326
  135OSM      P14638   2.339   5.366   7.168 -0.0802  0.0699 -0.1006
  135OSM    O1314639   2.204   5.414   7.182  0.0242 -0.4483 -0.2675
  135OSM    O1414640   2.439   5.470   7.149 -0.0477 -0.3589  0.3534
  135OSM    O1114641   2.341   5.260   7.053 -0.7983  0.2298 -0.1692
  135OSM    O1214642   2.376   5.290   7.302  0.3011 -0.0978  0.5412
  135OSM    C1S14643   2.432   5.264   6.939  0.0957  0.0889  0.5161
  135OSM    H1S14644   2.535   5.242   6.974 -0.4589  0.0097  2.1920
  135OSM    H1T14645   2.422   5.370   6.908 -0.6084 -0.8643 -2.9785
  135OSM     NF14646   2.460   5.218   6.693  0.4598 -0.6147  0.0758
  135OSM    HNF14647   2.404   5.237   6.613 -0.6331 -0.9017  0.7471
  135OSM    C2S14648   2.387   5.184   6.809 -0.5852 -0.4195 -0.6924
  135OSM    H2S14649   2.412   5.076   6.823 -0.4986 -0.6791 -2.6567
  135OSM    C3S14650   2.236   5.181   6.794 -0.6162  1.0710  0.4851
  135OSM    H3S14651   2.195   5.284   6.790  0.3162  1.4165 -1.8680
  135OSM     O314652   2.164   5.118   6.900  0.3865  0.0834  0.8927
  135OSM    HO314653   2.207   5.153   6.979 -0.6899 -1.8991  2.4434
  135OSM    C4S14654   2.194   5.112   6.663 -0.4479 -0.3211  0.2098
  135OSM    H4S14655   2.179   5.188   6.585  1.2970  0.6161  0.7256
  135OSM    C5S14656   2.171   4.979   6.651 -0.2632 -0.2282  0.2237
  135OSM    H5S14657   2.178   4.918   6.742  0.1691 -0.1322  0.2574
  135OSM    C6S14658   2.112   4.912   6.534 -0.5102 -0.6716  0.0962
  135OSM    H6S14659   2.026   4.845   6.551  0.2023 -2.0248 -1.3772
  135OSM    H6T14660   2.185   4.834   6.503 -0.3804 -0.0453 -1.2488
  135OSM    C7S14661   2.096   5.011   6.419 -0.1347  0.1088  0.2476
  135OSM    H7S14662   2.196   5.054   6.399 -0.3214 -0.1790 -1.5049
  135OSM    H7T14663   2.028   5.091   6.454  0.6528  0.5249  0.8400
  135OSM    C8S14664   2.037   4.933   6.295 -0.2663  0.3524  0.6980
  135OSM    H8S14665   1.936   4.897   6.326  0.8823 -2.6458  1.3604
  135OSM    H8T14666   2.093   4.837   6.298 -1.7377 -0.6796 -1.8608
  135OSM    C9S14667   2.042   5.003   6.158 -0.0390 -0.3894 -0.2334
  135OSM    H9S14668   2.142   5.048   6.140  0.5667 -1.2791  0.7720
  135OSM    H9T14669   1.983   5.097   6.153 -1.6270 -1.4138 -1.5995
  135OSM   C10S14670   2.020   4.918   6.043 -0.5453  0.0052 -0.6930
  135OSM   H10S14671   1.926   4.863   6.066  0.5867 -2.3830 -1.3987
  135OSM   H10T14672   2.097   4.839   6.060 -1.2588 -0.5806 -0.1605
  135OSM   C11S14673   2.029   4.963   5.899 -0.1128 -0.5836 -0.0375
  135OSM   H11S14674   2.135   4.986   5.873 -0.4177  0.3896 -0.4758
  135OSM   H11T14675   1.967   5.056   5.896  0.3407 -0.1976  1.7567
  135OSM   C12S14676   1.962   4.858   5.801 -0.9314 -0.1707  0.5806
  135OSM   H12S14677   1.865   4.830   5.848 -1.8496  2.9103  0.7666
  135OSM   H12T14678   2.027   4.768   5.789 -0.0744  0.6489 -1.3468
  135OSM   C13S14679   1.931   4.921   5.664 -0.3762  0.7427 -0.5451
  135OSM   H13S14680   1.842   4.984   5.685 -2.7801 -1.9858 -1.7813
  135OSM   H13T14681   1.898   4.833   5.604  2.4339  0.0863 -1.2733
  135OSM   C14S14682   2.055   4.993   5.604  0.1127  0.0522  0.3036
  135OSM   H14S14683   2.154   4.961   5.642 -0.0052  1.1113  1.6080
  135OSM   H14T14684   2.041   5.098   5.639  0.3912 -0.0020  0.5870
  135OSM   C15S14685   2.059   4.966   5.455 -0.1808 -0.0738  0.2452
  135OSM   H15S14686   1.961   4.953   5.404 -0.4714  0.0545  0.7710
  135OSM   H15T14687   2.098   4.863   5.446  0.6467  0.1014  1.5965
  135OSM   C16S14688   2.161   5.060   5.393 -0.2399 -0.2290 -0.2964
  135OSM   H16S14689   2.258   5.050   5.446  1.2744 -0.1629 -2.8891
  135OSM   H16T14690   2.142   5.168   5.409  3.6386  0.3545  1.7349
  135OSM   C17S14691   2.195   5.023   5.254 -0.2816 -0.1354  0.4780
  135OSM   H17S14692   2.223   4.916   5.242 -1.4635 -0.6018  1.6449
  135OSM   H17T14693   2.276   5.092   5.222 -1.6560  0.9063 -0.8889
  135OSM   C18S14694   2.077   5.053   5.159 -0.2286  0.2701  0.0521
  135OSM   H18S14695   2.046   5.158   5.180 -0.7215  0.0650  0.3853
  135OSM   H18T14696   1.981   4.998   5.171 -0.2213 -0.5569 -2.9096
  135OSM   H18U14697   2.111   5.040   5.054 -1.4600  0.8479 -0.4468
  135OSM    C1F14698   2.593   5.208   6.685 -0.0510  0.5505 -0.6975
  135OSM     OF14699   2.658   5.154   6.774 -0.5900 -0.1355  0.1117
  135OSM    C2F14700   2.652   5.283   6.569 -0.1773  0.7070 -0.1841
  135OSM    H2F14701   2.633   5.392   6.577 -0.3547  0.7046 -0.5598
  135OSM    H2G14702   2.590   5.247   6.484 -1.0985  1.1760  0.2832
  135OSM    C3F14703   2.800   5.239   6.532 -0.6992 -0.6006  0.7535
  135OSM    H3F14704   2.795   5.135   6.493  0.0095 -0.1713 -0.5369
  135OSM    H3G14705   2.854   5.242   6.629  0.0337 -1.1919  0.3723
  135OSM    C4F14706   2.875   5.325   6.427 -0.1350  0.4987 -0.0703
  135OSM    H4F14707   2.851   5.432   6.442 -2.2683 -0.1786  2.1539
  135OSM    H4G14708   2.981   5.304   6.450 -0.0791  1.8815  1.0436
  135OSM    C5F14709   2.852   5.279   6.277  0.0237 -0.4070 -0.1062
  135OSM    H5F14710   2.744   5.281   6.251  0.0220 -1.3549 -0.2259
  135OSM    H5G14711   2.876   5.171   6.275 -0.0992 -0.4431  0.2019
  135OSM    C6F14712   2.926   5.351   6.170 -0.5488  0.2215  0.2342
  135OSM    H6F14713   3.029   5.350   6.211  0.4205  1.1854 -2.0183
  135OSM    H6G14714   2.903   5.460   6.165  0.3493  0.4889  1.3266
  135OSM    C7F14715   2.918   5.295   6.030 -0.5383  0.2136  0.1920
  135OSM    H7F14716   2.814   5.313   5.996 -0.9578 -0.5986  0.9823
  135OSM    H7G14717   2.937   5.186   6.045 -0.4233  0.4850  2.4138
  135OSM    C8F14718   3.015   5.366   5.942  0.2917  0.4165  0.3001
  135OSM    H8F14719   3.100   5.295   5.939 -0.2523 -0.3038  1.2487
  135OSM    H8G14720   3.050   5.456   5.998  0.1173  1.4010 -1.1329
  135OSM    C9F14721   2.972   5.412   5.807 -0.1743 -0.0472 -0.4740
  135OSM    H9F14722   2.968   5.521   5.793 -1.7091 -0.1167 -0.7376
  135OSM   C10F14723   2.925   5.330   5.711 -0.6803 -0.3388  0.3126
  135OSM   H10F14724   2.900   5.369   5.611  0.7421 -1.7916 -0.6489
  135OSM   C11F14725   2.927   5.182   5.719 -0.8395  0.7159 -0.0385
  135OSM   H11F14726   2.827   5.135   5.713  0.6003 -2.3982 -2.0079
  135OSM   H11G14727   2.981   5.132   5.802 -2.7005 -0.5366  0.4729
  135OSM   C12F14728   3.006   5.132   5.591 -0.1618  0.1042 -0.6552
  135OSM   H12F14729   3.114   5.159   5.596 -0.7698  2.6220  0.6784
  135OSM   H12G14730   2.974   5.175   5.494  4.5103 -1.6414 -3.3056
  135OSM   C13F14731   3.002   4.979   5.570  0.3551 -0.1254  0.2632
  135OSM   H13F14732   2.894   4.961   5.548  0.0237  0.4466  1.3153
  135OSM   H13G14733   3.035   4.932   5.665  2.2015  1.5396  0.5051
  135OSM   C14F14734   3.079   4.932   5.446 -0.6646  0.1025  0.4017
  135OSM   H14F14735   3.188   4.936   5.464 -0.7253 -0.9682  1.1369
  135OSM   H14G14736   3.047   4.991   5.358 -1.8125 -1.6047 -0.3960
  135OSM   C15F14737   3.041   4.784   5.424  0.2841  0.0996 -0.0144
  135OSM   H15F14738   2.940   4.769   5.468  0.0229  2.2415  0.2130
  135OSM   H15G14739   3.116   4.718   5.473 -2.1833 -1.9604  1.2296
  135OSM   C16F14740   3.015   4.749   5.272 -0.0025 -0.3424 -0.1938
  135OSM   H16F14741   3.105   4.758   5.207  0.3289 -1.6770  0.0543
  135OSM   H16G14742   2.938   4.810   5.220  0.1094 -0.6914 -0.7771
  135OSM   C17F14743   2.968   4.601   5.259 -0.2853  0.3308  0.0269
  135OSM   H17F14744   2.864   4.596   5.300  0.3472 -3.6558  1.6578
  135OSM   H17G14745   3.025   4.537   5.330  0.8940  1.4563  0.1156
  135OSM   C18F14746   2.985   4.554   5.116  0.3589 -0.1588 -0.2583
  135OSM   H18F14747   3.094   4.547   5.101  0.5199 -0.4958  0.9815
  135OSM   H18G14748   2.943   4.623   5.039 -0.5585 -0.0729  0.2955
  135OSM   H18H14749   2.935   4.455   5.118 -0.5403  0.2798  1.4442
  136OSM      N14750   4.418   5.029   7.631 -0.4345 -0.3134  0.1405
  136OSM    C1514751   4.511   5.113   7.547  0.1010  0.0033 -0.5536
  136OSM   H15A14752   4.461   5.183   7.482  0.4779  1.2977  0.5203
  136OSM   H15B14753   4.574   5.047   7.488  2.1830  1.5748 -0.2028
  136OSM   H15C14754   4.583   5.165   7.607  1.4355 -2.9493  0.6186
  136OSM    C1414755   4.514   4.926   7.698  0.5954  0.2763 -0.4863
  136OSM   H14A14756   4.586   4.969   7.767  0.0475 -0.7896  0.8087
  136OSM   H14B14757   4.568   4.871   7.623  2.0653 -1.2109  1.5422
  136OSM   H14C14758   4.458   4.854   7.756  1.4404 -1.1784 -1.4069
  136OSM    C1314759   4.360   5.105   7.740 -0.1698 -0.0741  0.0577
  136OSM   H13A14760   4.434   5.161   7.796 -1.2197  0.8629  0.5527
  136OSM   H13B14761   4.313   5.046   7.817  1.5773  0.5076  1.6555
  136OSM   H13C14762   4.289   5.180   7.709  0.4420  0.9217  0.9697
  136OSM    C1214763   4.306   4.966   7.545 -0.2875  0.2353 -0.5558
  136OSM   H12A14764   4.250   5.044   7.497  0.0343  0.8205  0.0026
  136OSM   H12B14765   4.239   4.911   7.609 -1.6157  1.0757 -1.1802
  136OSM    C1114766   4.357   4.869   7.435  1.3402  0.5306 -0.2530
  136OSM   H11A14767   4.430   4.929   7.377  1.4832  0.0450 -0.5829
  136OSM   H11B14768   4.273   4.852   7.365 -0.2252  0.5853  1.5204
  136OSM      P14769   4.531   4.673   7.441 -0.1119 -0.3725 -0.1698
  136OSM    O1314770   4.588   4.636   7.574 -0.2219  0.3576  0.4320
  136OSM    O1414771   4.491   4.560   7.354 -0.1919  0.3925 -0.2426
  136OSM    O1114772   4.615   4.781   7.369 -0.9480 -0.3166  0.2958
  136OSM    O1214773   4.399   4.742   7.486  0.6734 -0.5271 -0.1621
  136OSM    C1S14774   4.708   4.745   7.273  0.4928  0.3124  0.3166
  136OSM    H1S14775   4.715   4.634   7.265 -0.4571  0.3438 -1.3436
  136OSM    H1T14776   4.813   4.778   7.286  0.9003 -0.1494 -1.5108
  136OSM     NF14777   4.760   4.750   7.016 -0.2316 -0.1093  0.3714
  136OSM    HNF14778   4.836   4.804   6.981 -0.2138  0.0212  0.6098
  136OSM    C2S14779   4.683   4.806   7.131 -0.7810  0.4060  0.4694
  136OSM    H2S14780   4.576   4.794   7.104 -1.0428 -0.1058  1.6595
  136OSM    C3S14781   4.714   4.958   7.145  0.3815 -0.2313  0.0590
  136OSM    H3S14782   4.823   4.976   7.155  0.5704 -1.9632  1.7775
  136OSM     O314783   4.671   5.020   7.265  0.3660  0.1815 -0.7927
  136OSM    HO314784   4.653   4.942   7.317  1.3698  0.3896 -0.0880
  136OSM    C4S14785   4.674   5.033   7.020 -0.7820 -0.1029 -0.3331
  136OSM    H4S14786   4.759   5.030   6.950  0.8268  2.1888  1.3641
  136OSM    C5S14787   4.569   5.108   6.999 -0.2990 -0.2713 -0.2027
  136OSM    H5S14788   4.499   5.123   7.082  1.0518  0.1506  0.8968
  136OSM    C6S14789   4.537   5.168   6.860 -0.5152  0.1112 -0.1954
  136OSM    H6S14790   4.627   5.150   6.798  0.7290 -0.7302  1.7311
  136OSM    H6T14791   4.532   5.278   6.872  0.7101  0.1587  0.0093
  136OSM    C7S14792   4.403   5.129   6.795  0.2553  0.4650  0.9568
  136OSM    H7S14793   4.315   5.167   6.851  0.9754  1.1001  1.6735
  136OSM    H7T14794   4.384   5.019   6.795  1.2983  0.2291 -1.1359
  136OSM    C8S14795   4.383   5.182   6.655  0.7244 -0.3089  0.4386
  136OSM    H8S14796   4.376   5.293   6.656 -0.7405 -0.3605  2.4296
  136OSM    H8T14797   4.278   5.156   6.630  0.5888 -0.2402  0.9240
  136OSM    C9S14798   4.486   5.137   6.548  0.6194 -0.1244  0.3190
  136OSM    H9S14799   4.500   5.030   6.571 -2.0766 -0.6444 -0.1631
  136OSM    H9T14800   4.589   5.178   6.553  1.3746 -1.7232 -1.2060
  136OSM   C10S14801   4.429   5.148   6.402  0.2214  0.4852  0.2878
  136OSM   H10S14802   4.408   5.254   6.376  1.6242  1.2451  2.0415
  136OSM   H10T14803   4.330   5.100   6.422  0.9036 -1.3088 -0.4033
  136OSM   C11S14804   4.517   5.071   6.306 -0.3389 -0.1189 -0.3426
  136OSM   H11S14805   4.491   4.963   6.307 -0.9843  0.0353  0.3010
  136OSM   H11T14806   4.623   5.091   6.329 -0.8119  2.2324  0.0660
  136OSM   C12S14807   4.480   5.114   6.155  0.0948 -0.3433  0.6387
  136OSM   H12S14808   4.467   5.223   6.140 -0.5822 -0.5371 -0.3270
  136OSM   H12T14809   4.381   5.076   6.120  0.6879  0.4146 -2.1354
  136OSM   C13S14810   4.583   5.051   6.059 -0.4204 -0.1481  0.5204
  136OSM   H13S14811   4.593   4.940   6.064 -0.7099 -0.2389 -0.5986
  136OSM   H13T14812   4.675   5.099   6.099  0.0075 -1.9663  1.8439
  136OSM   C14S14813   4.555   5.075   5.908 -0.2887  0.1329  0.0058
  136OSM   H14S14814   4.650   5.056   5.853  0.4051  2.3094  0.3281
  136OSM   H14T14815   4.533   5.181   5.885  3.2834  0.8974 -0.5295
  136OSM   C15S14816   4.445   4.986   5.849  0.1203  0.3599 -0.1708
  136OSM   H15S14817   4.355   4.987   5.915  1.3716  2.0364  1.6313
  136OSM   H15T14818   4.478   4.880   5.855 -2.2454 -0.5504 -1.6353
  136OSM   C16S14819   4.406   5.004   5.703 -0.1268 -0.2449 -0.4999
  136OSM   H16S14820   4.347   5.098   5.700 -1.1140 -0.6379  2.5244
  136OSM   H16T14821   4.334   4.923   5.676 -0.8345  0.3840 -0.5372
  136OSM   C17S14822   4.518   5.019   5.603  0.6334 -0.2511  0.2619
  136OSM   H17S14823   4.580   4.927   5.615 -0.6845 -0.8724  3.0845
  136OSM   H17T14824   4.582   5.106   5.628  1.7234 -0.6810 -0.9363
  136OSM   C18S14825   4.471   5.042   5.460  0.2555  0.6409  0.4498
  136OSM   H18S14826   4.406   5.131   5.445  1.1079  1.3012  0.6114
  136OSM   H18T14827   4.411   4.955   5.425 -2.3973  1.7457  1.9862
  136OSM   H18U14828   4.560   5.066   5.397  0.8963 -0.5998  0.8420
  136OSM    C1F14829   4.721   4.640   6.950 -0.9112 -0.0715  0.0447
  136OSM     OF14830   4.628   4.575   6.996  0.3939 -0.4975  0.1750
  136OSM    C2F14831   4.795   4.590   6.830  0.7282 -0.4006  0.1923
  136OSM    H2F14832   4.895   4.553   6.862  0.6426 -1.2075 -0.4360
  136OSM    H2G14833   4.818   4.676   6.762 -0.4899  1.0638  1.5637
  136OSM    C3F14834   4.722   4.482   6.752  0.2337 -0.4735 -0.3653
  136OSM    H3F14835   4.628   4.538   6.732  0.4849  0.6658  1.4065
  136OSM    H3G14836   4.695   4.394   6.815 -1.3297  1.6012  2.1219
  136OSM    C4F14837   4.785   4.439   6.621  0.1765  0.4882 -0.3214
  136OSM    H4F14838   4.883   4.387   6.628  0.6183  1.2351 -0.8128
  136OSM    H4G14839   4.796   4.535   6.566  0.1555 -0.7046 -2.4986
  136OSM    C5F14840   4.689   4.357   6.530 -0.0166  0.5593  0.1208
  136OSM    H5F14841   4.585   4.394   6.534 -0.6245 -1.1163  1.0120
  136OSM    H5G14842   4.679   4.257   6.578 -1.0908  1.3451  1.6200
  136OSM    C6F14843   4.741   4.334   6.389 -0.3967 -0.3980 -0.0556
  136OSM    H6F14844   4.852   4.346   6.387 -0.4322 -0.0182  0.2338
  136OSM    H6G14845   4.703   4.415   6.324  1.4677  0.0376 -0.6562
  136OSM    C7F14846   4.705   4.206   6.316  1.1787 -0.1013 -0.2212
  136OSM    H7F14847   4.595   4.196   6.299  1.2279 -1.6351  0.2095
  136OSM    H7G14848   4.741   4.115   6.369  1.8340 -0.7740 -1.7613
  136OSM    C8F14849   4.792   4.185   6.184  0.8812 -0.2497  0.7709
  136OSM    H8F14850   4.898   4.183   6.217  0.9814 -0.6522  0.4302
  136OSM    H8G14851   4.768   4.270   6.117  2.0127 -0.1830  0.4287
  136OSM    C9F14852   4.767   4.060   6.106  0.1222  1.0044 -0.4574
  136OSM    H9F14853   4.798   3.972   6.164 -0.5598 -0.3615 -2.0882
  136OSM   C10F14854   4.696   4.044   5.991  0.0350  0.6114  0.2219
  136OSM   H10F14855   4.693   3.942   5.948  1.1913  0.3507  0.7389
  136OSM   C11F14856   4.644   4.147   5.896 -0.7860  0.2790 -0.2859
  136OSM   H11F14857   4.612   4.242   5.943  1.1948  1.3747 -1.0614
  136OSM   H11G14858   4.561   4.106   5.834 -0.0738  0.9348 -1.7253
  136OSM   C12F14859   4.756   4.177   5.790 -0.0795 -0.0476 -1.1243
  136OSM   H12F14860   4.848   4.209   5.844  0.3344 -2.7563 -0.0839
  136OSM   H12G14861   4.723   4.265   5.731 -2.1925 -1.1982 -1.7555
  136OSM   C13F14862   4.788   4.063   5.694 -0.4899 -0.6784 -0.0461
  136OSM   H13F14863   4.821   3.976   5.754 -1.4767 -1.0681 -0.0536
  136OSM   H13G14864   4.868   4.095   5.623 -0.1144  0.8716  1.0289
  136OSM   C14F14865   4.672   4.022   5.607  0.2810  0.0757  0.3174
  136OSM   H14F14866   4.640   4.114   5.553  2.6532  0.7945  0.0401
  136OSM   H14G14867   4.589   3.978   5.666  0.7008 -0.0838  0.7949
  136OSM   C15F14868   4.702   3.919   5.489 -0.9946 -0.0357 -1.1393
  136OSM   H15F14869   4.760   3.829   5.520  1.0211  1.4527 -0.3347
  136OSM   H15G14870   4.780   3.969   5.428  1.0744  0.0466  1.3826
  136OSM   C16F14871   4.583   3.874   5.407 -0.5524 -0.5142  0.7958
  136OSM   H16F14872   4.615   3.811   5.321  0.6365 -0.7241  1.3571
  136OSM   H16G14873   4.533   3.964   5.365 -3.0191 -1.8440  0.7096
  136OSM   C17F14874   4.478   3.800   5.490 -0.4214 -0.1236 -0.3101
  136OSM   H17F14875   4.429   3.876   5.555  1.2480  0.7800 -0.0572
  136OSM   H17G14876   4.516   3.719   5.555  0.2357  2.9178  3.4682
  136OSM   C18F14877   4.373   3.735   5.398 -0.3992  0.6598 -0.5746
  136OSM   H18F14878   4.301   3.677   5.460 -0.7057  1.5410 -0.1018
  136OSM   H18G14879   4.427   3.662   5.333  1.0896  0.3169  0.9878
  136OSM   H18H14880   4.325   3.808   5.329  0.4086 -1.0158 -3.0874
  137OSM      N14881   0.380   4.580   7.206 -0.8935 -0.5059 -0.5211
  137OSM    C1514882   0.404   4.714   7.258 -0.2961 -0.4202 -0.4849
  137OSM   H15A14883   0.498   4.735   7.308 -0.0948 -0.2993 -0.9080
  137OSM   H15B14884   0.322   4.744   7.321  1.0159 -2.0394  2.1788
  137OSM   H15C14885   0.412   4.781   7.173  3.9764 -0.9769 -0.7556
  137OSM    C1414886   0.241   4.566   7.166 -0.4614  0.7313  0.0206
  137OSM   H14A14887   0.219   4.461   7.153 -1.5341  0.3278  3.8784
  137OSM   H14B14888   0.233   4.617   7.071 -1.0965 -0.3072 -0.5032
  137OSM   H14C14889   0.174   4.600   7.243 -0.9152  1.0378 -0.5015
  137OSM    C1314890   0.466   4.575   7.089 -0.6813 -1.3250  0.5703
  137OSM   H13A14891   0.479   4.470   7.063 -0.0849 -1.5021  1.5345
  137OSM   H13B14892   0.566   4.616   7.091  0.3542 -3.5944 -0.1249
  137OSM   H13C14893   0.414   4.628   7.011 -0.6935 -2.6151 -0.3338
  137OSM    C1214894   0.418   4.478   7.309  0.7877 -0.5201 -0.6240
  137OSM   H12A14895   0.355   4.492   7.395  0.5359 -2.7798 -0.3759
  137OSM   H12B14896   0.520   4.493   7.339  1.0929 -0.2376 -1.7641
  137OSM    C1114897   0.408   4.327   7.269 -0.5579  0.4571 -0.3292
  137OSM   H11A14898   0.306   4.283   7.271  0.8042 -2.9607 -0.1624
  137OSM   H11B14899   0.453   4.268   7.352 -1.9324 -1.2507 -0.7373
  137OSM      P14900   0.613   4.233   7.144  0.1964 -0.0036  0.0659
  137OSM    O1314901   0.702   4.324   7.216  0.1967 -0.1872  0.2491
  137OSM    O1414902   0.591   4.107   7.209  0.4357  0.1461 -0.1730
  137OSM    O1114903   0.679   4.217   7.001  0.2202 -0.0914 -0.3605
  137OSM    O1214904   0.465   4.298   7.137 -0.6471 -0.3837 -0.4803
  137OSM    C1S14905   0.760   4.322   6.943  0.5894 -0.0740  0.0253
  137OSM    H1S14906   0.838   4.349   7.017 -0.8622  2.8155  0.6433
  137OSM    H1T14907   0.697   4.408   6.913 -0.4364 -0.3684  1.2498
  137OSM     NF14908   0.924   4.371   6.754 -0.1468 -0.2479  0.2422
  137OSM    HNF14909   0.877   4.439   6.699  0.8618  1.2303  1.1411
  137OSM    C2S14910   0.837   4.268   6.814 -0.3325  0.0309  0.7183
  137OSM    H2S14911   0.905   4.185   6.839 -0.7856 -0.2305  1.0968
  137OSM    C3S14912   0.731   4.200   6.715 -0.1859  0.6792  0.0324
  137OSM    H3S14913   0.697   4.280   6.646 -0.1859 -0.0308 -0.8077
  137OSM     O314914   0.599   4.164   6.760 -0.7309 -0.4781 -0.3439
  137OSM    HO314915   0.598   4.188   6.853 -0.0802  0.8186 -0.6373
  137OSM    C4S14916   0.788   4.098   6.619  0.2326 -0.6046 -0.0294
  137OSM    H4S14917   0.815   4.148   6.524  3.1216 -0.0876  0.9587
  137OSM    C5S14918   0.796   3.968   6.626  0.9888 -0.4464 -0.0130
  137OSM    H5S14919   0.751   3.916   6.712  0.6793  1.4796  1.0463
  137OSM    C6S14920   0.847   3.872   6.517 -0.1550  0.1909 -0.8240
  137OSM    H6S14921   0.946   3.828   6.545 -0.9920 -1.4594 -0.3274
  137OSM    H6T14922   0.875   3.925   6.423  0.8744 -2.1996 -1.9617
  137OSM    C7S14923   0.744   3.763   6.475 -0.7679  0.0177  0.2063
  137OSM    H7S14924   0.655   3.812   6.429 -0.2772 -0.0559 -0.8418
  137OSM    H7T14925   0.720   3.697   6.561 -1.3237 -1.3756 -0.9856
  137OSM    C8S14926   0.808   3.667   6.374  0.6460 -0.3278 -0.2986
  137OSM    H8S14927   0.892   3.618   6.427  0.5383 -0.2843 -0.0879
  137OSM    H8T14928   0.856   3.717   6.287  1.9327 -2.7019 -1.0418
  137OSM    C9S14929   0.717   3.562   6.320 -0.0248 -1.1249  0.2255
  137OSM    H9S14930   0.639   3.611   6.257 -1.9316 -1.2589  2.3665
  137OSM    H9T14931   0.664   3.510   6.402  0.7972 -0.4468  1.2195
  137OSM   C10S14932   0.802   3.469   6.235 -0.4588 -0.2963  0.1589
  137OSM   H10S14933   0.870   3.412   6.303  3.7796  4.0210  0.0737
  137OSM   H10T14934   0.860   3.534   6.166  0.4580  1.4829  2.4278
  137OSM   C11S14935   0.727   3.373   6.144  0.1124  0.1779 -0.0694
  137OSM   H11S14936   0.688   3.450   6.074 -0.1129 -0.8663 -1.1422
  137OSM   H11T14937   0.645   3.321   6.198 -0.4310  2.2463  1.1868
  137OSM   C12S14938   0.819   3.276   6.076 -0.1355  0.0655  0.6955
  137OSM   H12S14939   0.874   3.218   6.152 -0.2920 -1.1856 -0.1265
  137OSM   H12T14940   0.895   3.337   6.022 -1.2176 -0.7347 -1.9095
  137OSM   C13S14941   0.747   3.180   5.982  0.4191  0.0399 -0.1913
  137OSM   H13S14942   0.662   3.129   6.032  1.0588  0.6457  1.6147
  137OSM   H13T14943   0.808   3.093   5.949 -0.0864 -0.2628 -0.3330
  137OSM   C14S14944   0.686   3.237   5.846 -0.1152  0.4048  0.1205
  137OSM   H14S14945   0.755   3.315   5.810  0.2593 -1.0887 -2.6333
  137OSM   H14T14946   0.586   3.281   5.865 -0.5883  0.0764 -1.4402
  137OSM   C15S14947   0.667   3.132   5.735 -0.1914 -0.4677 -0.9249
  137OSM   H15S14948   0.616   3.042   5.775 -0.6588 -0.7708 -2.1384
  137OSM   H15T14949   0.760   3.101   5.681 -1.2104  0.7970 -3.5936
  137OSM   C16S14950   0.574   3.189   5.623  0.4020  0.6133  0.4310
  137OSM   H16S14951   0.637   3.247   5.553  0.8086 -0.1405  0.1569
  137OSM   H16T14952   0.489   3.245   5.668  1.4986  2.7568 -0.0529
  137OSM   C17S14953   0.509   3.074   5.532 -0.0082 -0.4530 -0.6390
  137OSM   H17S14954   0.485   2.999   5.610  1.0296  0.5784  0.7190
  137OSM   H17T14955   0.583   3.029   5.463 -0.4745 -0.9140 -0.8432
  137OSM   C18S14956   0.386   3.123   5.455 -0.0459 -0.0627  0.1500
  137OSM   H18S14957   0.372   3.054   5.369  1.1012 -0.6715  0.4396
  137OSM   H18T14958   0.392   3.228   5.418  1.4179  0.1804  1.0204
  137OSM   H18U14959   0.302   3.113   5.527 -1.7493  1.3618 -1.5151
  137OSM    C1F14960   1.051   4.392   6.793 -0.4652  0.1090 -0.2406
  137OSM     OF14961   1.101   4.321   6.875 -0.4823  0.3665 -0.0899
  137OSM    C2F14962   1.126   4.506   6.721  0.0528  0.0108  0.1475
  137OSM    H2F14963   1.184   4.562   6.797  1.1195 -1.3577  0.3887
  137OSM    H2G14964   1.053   4.572   6.670 -1.9377 -0.9673  1.5894
  137OSM    C3F14965   1.236   4.448   6.628  0.2796  0.5059 -0.1945
  137OSM    H3F14966   1.317   4.394   6.683 -0.5207  0.8071  1.3567
  137OSM    H3G14967   1.285   4.536   6.583 -0.7955  1.1293 -0.1896
  137OSM    C4F14968   1.192   4.355   6.516  0.3914  0.2713  0.3816
  137OSM    H4F14969   1.143   4.265   6.560 -1.3998  1.1780  0.3346
  137OSM    H4G14970   1.281   4.323   6.457  1.2228 -0.0858  1.7776
  137OSM    C5F14971   1.088   4.405   6.415 -0.6939 -0.1274  0.2625
  137OSM    H5F14972   1.137   4.479   6.348 -0.5572 -1.3049 -0.9714
  137OSM    H5G14973   0.997   4.457   6.454  0.1509  0.7428  1.1345
  137OSM    C6F14974   1.049   4.297   6.320 -0.5332 -0.4294  0.1571
  137OSM    H6F14975   1.005   4.205   6.365 -0.6310 -2.1172 -3.0936
  137OSM    H6G14976   1.136   4.269   6.258 -0.4820 -1.3676  0.6352
  137OSM    C7F14977   0.941   4.347   6.220  1.1252  0.7395  0.1490
  137OSM    H7F14978   0.978   4.436   6.165  1.8875  0.2427 -0.1565
  137OSM    H7G14979   0.848   4.372   6.275 -0.6273 -0.4648 -2.0960
  137OSM    C8F14980   0.890   4.244   6.117 -0.1828 -0.2744 -0.2776
  137OSM    H8F14981   0.968   4.239   6.037 -1.2485 -2.5604 -1.2834
  137OSM    H8G14982   0.801   4.286   6.066  0.1113 -1.7258 -2.1433
  137OSM    C9F14983   0.864   4.107   6.174  0.0153  0.7491  0.1070
  137OSM    H9F14984   0.764   4.093   6.217 -0.4440 -2.4028 -1.6893
  137OSM   C10F14985   0.945   4.000   6.153  0.2142  0.1880  1.2744
  137OSM   H10F14986   0.901   3.902   6.176 -1.6468  0.6786  0.0701
  137OSM   C11F14987   1.077   3.987   6.072  0.0962 -0.1852  0.0237
  137OSM   H11F14988   1.144   3.903   6.101 -0.6902 -2.2236 -3.4560
  137OSM   H11G14989   1.121   4.090   6.069 -4.5985  2.0392 -0.5463
  137OSM   C12F14990   1.049   3.958   5.917 -0.8241  0.0233 -0.2821
  137OSM   H12F14991   1.135   3.990   5.856 -2.6893  0.0042 -3.1167
  137OSM   H12G14992   0.953   4.008   5.889 -0.8648 -0.9296 -1.9718
  137OSM   C13F14993   1.029   3.814   5.892  0.4859  0.5462  0.7004
  137OSM   H13F14994   0.936   3.775   5.940 -1.9465  2.3028 -2.2227
  137OSM   H13G14995   1.115   3.754   5.931 -0.9991 -1.3632  1.2269
  137OSM   C14F14996   1.014   3.796   5.732  0.1298  0.6147 -0.8303
  137OSM   H14F14997   1.102   3.844   5.686  1.8557 -0.4109  1.2290
  137OSM   H14G14998   0.918   3.848   5.713 -1.0187 -1.1932 -0.2740
  137OSM   C15F14999   1.000   3.654   5.685 -0.4525  0.6826  0.7168
  137OSM   H15F15000   0.907   3.609   5.725  0.6540 -1.9163  0.6066
  137OSM   H15G15001   1.087   3.603   5.731  1.6099  2.4303 -1.0075
  137OSM   C16F15002   0.990   3.638   5.533 -0.6809  0.3824  0.5374
  137OSM   H16F15003   0.905   3.696   5.491  1.2022  1.8597 -1.4333
  137OSM   H16G15004   0.968   3.529   5.527  1.2201  0.0112 -0.2681
  137OSM   C17F15005   1.120   3.680   5.463  0.3399  0.4504  0.0187
  137OSM   H17F15006   1.209   3.639   5.516 -0.5665  1.5639  2.5758
  137OSM   H17G15007   1.120   3.791   5.467 -0.1665  0.4393  3.3388
  137OSM   C18F15008   1.113   3.633   5.316 -0.0392 -0.2466 -0.2306
  137OSM   H18F15009   1.120   3.522   5.315 -2.3891 -0.4543  0.5900
  137OSM   H18G15010   1.193   3.685   5.258  0.7683 -0.1865  0.9130
  137OSM   H18H15011   1.014   3.659   5.273  0.4812  1.6797 -0.3696
  138OSM      N15012   2.316   2.805   7.351  0.7592  0.2045  0.9393
  138OSM    C1515013   2.332   2.658   7.347 -0.0585 -0.1501  0.4952
  138OSM   H15A15014   2.407   2.624   7.417 -0.5988  0.4713  1.4029
  138OSM   H15B15015   2.355   2.620   7.249 -0.4882 -1.1200  0.7517
  138OSM   H15C15016   2.235   2.616   7.372 -0.9713  0.9790 -0.9747
  138OSM    C1415017   2.270   2.837   7.489 -0.1540  0.1074 -0.2728
  138OSM   H14A15018   2.164   2.820   7.497 -0.0031 -0.3603  0.9815
  138OSM   H14B15019   2.286   2.939   7.520 -1.2607  1.0852 -2.6127
  138OSM   H14C15020   2.308   2.774   7.568 -1.6893  0.5188  0.8308
  138OSM    C1315021   2.455   2.869   7.337  0.0410  0.3447  0.1308
  138OSM   H13A15022   2.513   2.863   7.428 -0.2190  1.0517  0.3480
  138OSM   H13B15023   2.450   2.976   7.324 -0.5939  0.4006  0.7818
  138OSM   H13C15024   2.507   2.822   7.254 -1.6701 -1.4139 -0.0086
  138OSM    C1215025   2.227   2.845   7.237  0.3064  0.7363  0.5646
  138OSM   H12A15026   2.274   2.825   7.142  1.9749 -1.6819  1.8029
  138OSM   H12B15027   2.201   2.950   7.241 -1.9882  0.1965  1.7535
  138OSM    C1115028   2.086   2.784   7.225  0.0508  0.4272  0.5656
  138OSM   H11A15029   2.092   2.673   7.212 -1.5164  0.4964 -1.1268
  138OSM   H11B15030   2.042   2.816   7.128  1.2165 -4.5202 -1.9610
  138OSM      P15031   1.925   2.941   7.358 -0.4614  0.1287  0.1857
  138OSM    O1315032   1.854   2.932   7.490 -0.7447 -0.4248  0.0773
  138OSM    O1415033   2.021   3.052   7.334 -0.3501 -0.7271 -0.1634
  138OSM    O1115034   1.818   2.936   7.241  0.5556  0.3072  0.2196
  138OSM    O1215035   2.007   2.802   7.339 -0.4254  0.1137  0.1544
  138OSM    C1S15036   1.780   3.035   7.142  0.1397 -0.2636  0.3569
  138OSM    H1S15037   1.849   3.122   7.150 -0.6341  0.2152  2.2580
  138OSM    H1T15038   1.674   3.063   7.161 -0.4465 -2.0239 -0.1384
  138OSM     NF15039   1.778   3.066   6.894 -0.4441  0.0133 -0.2919
  138OSM    HNF15040   1.693   3.048   6.845 -1.2519 -0.2486  1.1451
  138OSM    C2S15041   1.786   2.975   7.008  0.6912  0.3803  0.2968
  138OSM    H2S15042   1.887   2.928   7.003 -0.0653 -1.2086 -0.8375
  138OSM    C3S15043   1.686   2.855   6.999 -0.2015  0.2357  0.0081
  138OSM    H3S15044   1.584   2.897   6.986 -0.4124  0.0979  1.1280
  138OSM     O315045   1.694   2.765   7.108  0.0741 -0.5455 -0.0873
  138OSM    HO315046   1.747   2.808   7.175  0.0440 -2.7559  1.4895
  138OSM    C4S15047   1.724   2.785   6.868 -0.1528  0.1270 -0.1979
  138OSM    H4S15048   1.690   2.839   6.779 -0.3273 -2.1438 -1.5846
  138OSM    C5S15049   1.804   2.676   6.853  0.4893 -0.3237 -0.2255
  138OSM    H5S15050   1.855   2.633   6.941  0.3150 -2.1262 -0.9642
  138OSM    C6S15051   1.844   2.606   6.720 -0.2586 -0.2982 -0.0317
  138OSM    H6S15052   1.795   2.506   6.718 -0.5932 -0.1356  0.0169
  138OSM    H6T15053   1.952   2.580   6.729 -0.2762 -0.0254  1.2682
  138OSM    C7S15054   1.805   2.678   6.593  0.6978 -1.0067 -0.2007
  138OSM    H7S15055   1.830   2.787   6.595 -3.1744  0.0409  2.1195
  138OSM    H7T15056   1.697   2.675   6.569  1.0383 -0.3610 -1.9579
  138OSM    C8S15057   1.888   2.636   6.473 -0.4310  0.1182 -0.2337
  138OSM    H8S15058   1.877   2.530   6.444  3.4274 -0.6783  0.6554
  138OSM    H8T15059   1.991   2.638   6.514 -1.3049 -2.0192  2.3412
  138OSM    C9S15060   1.868   2.721   6.345 -0.3881  0.3069 -0.2826
  138OSM    H9S15061   1.927   2.676   6.262 -1.4715  1.2554 -1.6224
  138OSM    H9T15062   1.897   2.828   6.352 -2.5866  0.9977 -1.0771
  138OSM   C10S15063   1.722   2.724   6.298  0.5079 -0.3323  0.1745
  138OSM   H10S15064   1.654   2.790   6.355 -0.9612 -1.5594 -0.0938
  138OSM   H10T15065   1.679   2.623   6.313 -4.4816  1.7040  1.6245
  138OSM   C11S15066   1.707   2.748   6.139 -0.5301 -0.1271 -0.0179
  138OSM   H11S15067   1.599   2.736   6.116 -0.4129 -0.6614 -0.3008
  138OSM   H11T15068   1.758   2.668   6.081  0.6500  0.6764 -0.1138
  138OSM   C12S15069   1.751   2.887   6.101 -0.1920 -0.0509  0.2651
  138OSM   H12S15070   1.860   2.906   6.108  0.0960 -1.5297  0.1054
  138OSM   H12T15071   1.699   2.960   6.167 -0.4281  0.0035  0.0210
  138OSM   C13S15072   1.700   2.920   5.962  0.4090  0.2291 -0.1737
  138OSM   H13S15073   1.718   3.026   5.935  1.4353  0.1789  0.2576
  138OSM   H13T15074   1.590   2.907   5.952 -0.2692  3.1316  2.1233
  138OSM   C14S15075   1.757   2.833   5.848 -0.1136  0.3976 -0.4739
  138OSM   H14S15076   1.724   2.728   5.858 -0.1503  0.3816 -0.7561
  138OSM   H14T15077   1.868   2.832   5.850 -0.1123  0.1244 -0.7705
  138OSM   C15S15078   1.698   2.863   5.716  0.9148 -0.1903  0.3634
  138OSM   H15S15079   1.589   2.876   5.729  0.8059 -0.8708  0.1657
  138OSM   H15T15080   1.703   2.776   5.648  0.4967  0.1311 -0.0839
  138OSM   C16S15081   1.753   2.982   5.641  0.2970  0.4394 -0.1424
  138OSM   H16S15082   1.863   2.976   5.648  0.4337 -0.7381 -2.2134
  138OSM   H16T15083   1.713   3.073   5.689 -0.0190  1.1595 -1.7146
  138OSM   C17S15084   1.721   2.981   5.484 -0.6398 -0.0533 -0.5518
  138OSM   H17S15085   1.612   2.978   5.464 -0.6136  0.3057 -0.7622
  138OSM   H17T15086   1.771   2.893   5.439 -0.3339  0.2396 -0.7837
  138OSM   C18S15087   1.778   3.102   5.412  0.2794 -0.5957 -0.2435
  138OSM   H18S15088   1.758   3.191   5.475  0.6771 -0.9420  0.3785
  138OSM   H18T15089   1.746   3.107   5.306  1.2196 -2.5274 -0.6717
  138OSM   H18U15090   1.889   3.094   5.407  0.2269 -1.4831 -0.1742
  138OSM    C1F15091   1.858   3.158   6.865  0.2081 -0.9674  0.0255
  138OSM     OF15092   1.957   3.175   6.931 -0.5466 -0.4459 -0.5063
  138OSM    C2F15093   1.829   3.249   6.756  0.6664 -0.4052  0.9847
  138OSM    H2F15094   1.724   3.286   6.755  0.8908  0.2392  0.5575
  138OSM    H2G15095   1.831   3.200   6.656 -0.0761  0.9701  0.2569
  138OSM    C3F15096   1.923   3.372   6.751  0.5953  0.2333 -0.0092
  138OSM    H3F15097   2.026   3.333   6.766 -0.0049 -1.4406 -0.0206
  138OSM    H3G15098   1.903   3.422   6.848  2.1991 -1.5886  1.3477
  138OSM    C4F15099   1.895   3.480   6.646 -0.0287  0.4020  0.0236
  138OSM    H4F15100   1.996   3.525   6.636  0.1523  0.2375  1.0096
  138OSM    H4G15101   1.836   3.557   6.701 -1.3430 -0.4758 -0.1087
  138OSM    C5F15102   1.849   3.440   6.507  0.2650  0.0149 -0.0517
  138OSM    H5F15103   1.745   3.401   6.502  0.4994 -0.5284 -0.9752
  138OSM    H5G15104   1.917   3.355   6.486  0.4503 -0.0319  0.7178
  138OSM    C6F15105   1.844   3.556   6.413  0.2435 -0.4253  0.4402
  138OSM    H6F15106   1.941   3.598   6.379 -0.1959  1.9871  1.9423
  138OSM    H6G15107   1.800   3.643   6.467  0.4052 -0.2346  0.2655
  138OSM    C7F15108   1.751   3.528   6.296 -0.8097 -0.3206 -0.4826
  138OSM    H7F15109   1.650   3.501   6.332 -1.2943  3.3979  1.3756
  138OSM    H7G15110   1.797   3.435   6.256  1.2866 -0.5868  2.2675
  138OSM    C8F15111   1.752   3.629   6.184 -0.0516 -0.7131  0.3166
  138OSM    H8F15112   1.696   3.587   6.098 -1.8087  0.7950  0.6464
  138OSM    H8G15113   1.851   3.631   6.134 -1.9494  0.3140 -3.8288
  138OSM    C9F15114   1.707   3.758   6.245 -0.0966  0.3047  0.0624
  138OSM    H9F15115   1.633   3.740   6.325  0.2938  0.0651  0.3803
  138OSM   C10F15116   1.768   3.875   6.223  0.0544  0.3629  0.5091
  138OSM   H10F15117   1.737   3.968   6.272  0.0757 -0.1068  1.4393
  138OSM   C11F15118   1.883   3.894   6.128 -0.0533  0.9786 -0.1638
  138OSM   H11F15119   1.967   3.824   6.150  0.0783  0.0909 -3.0546
  138OSM   H11G15120   1.923   3.997   6.135 -1.0435  1.2741  2.0079
  138OSM   C12F15121   1.843   3.875   5.978 -0.0364 -0.1487 -0.2847
  138OSM   H12F15122   1.742   3.919   5.959  0.5660  1.3011 -0.2609
  138OSM   H12G15123   1.819   3.767   5.968 -1.0774 -0.1990  1.9790
  138OSM   C13F15124   1.929   3.946   5.866  0.4518 -0.1726 -0.0879
  138OSM   H13F15125   2.029   3.900   5.851 -0.4838 -2.0069 -1.1597
  138OSM   H13G15126   1.931   4.049   5.906 -0.0501 -0.8696  1.8629
  138OSM   C14F15127   1.861   3.945   5.732  0.4091  0.0253  0.2125
  138OSM   H14F15128   1.756   3.978   5.729  0.8374  1.5172  1.0563
  138OSM   H14G15129   1.849   3.841   5.694 -0.8605  0.5351 -0.8493
  138OSM   C15F15130   1.948   4.024   5.634 -0.0702  0.4330 -0.6646
  138OSM   H15F15131   2.036   3.960   5.611  0.1329  0.1762  0.7525
  138OSM   H15G15132   1.990   4.120   5.669  2.3800 -0.5859 -0.6338
  138OSM   C16F15133   1.861   4.060   5.502  0.7918  0.3837 -0.1586
  138OSM   H16F15134   1.780   4.127   5.539 -0.6905 -0.4508 -1.7796
  138OSM   H16G15135   1.807   3.969   5.470  2.6450 -0.4042 -1.1645
  138OSM   C17F15136   1.948   4.111   5.386 -0.4607  0.1449 -0.1813
  138OSM   H17F15137   2.034   4.045   5.361  0.7649  2.0110 -1.1164
  138OSM   H17G15138   1.997   4.208   5.409 -0.0239  0.8335 -3.4746
  138OSM   C18F15139   1.883   4.130   5.248  0.2057  0.3521  0.5119
  138OSM   H18F15140   1.849   4.235   5.238  2.1807  0.9755 -0.1365
  138OSM   H18G15141   1.809   4.051   5.227  2.5876 -2.9292  3.3346
  138OSM   H18H15142   1.959   4.120   5.167 -2.4321 -0.7601 -1.9987
  139OSM      N15143   5.001   5.178   7.412 -0.5922 -0.5140 -0.0850
  139OSM    C1515144   5.046   5.278   7.514 -0.1736 -0.0793  0.4892
  139OSM   H15A15145   5.121   5.341   7.470 -0.3707 -1.7058 -2.4634
  139OSM   H15B15146   5.070   5.233   7.609 -0.5593 -0.3056  0.4810
  139OSM   H15C15147   4.957   5.336   7.535 -1.0994 -1.7955  1.5421
  139OSM    C1415148   5.108   5.077   7.393  0.0600 -0.2726  0.5285
  139OSM   H14A15149   5.064   5.005   7.325 -1.6176  1.6276 -0.4985
  139OSM   H14B15150   5.131   5.028   7.487  0.3607  1.0488  1.1662
  139OSM   H14C15151   5.198   5.115   7.346 -0.2727 -1.2201 -0.9518
  139OSM    C1315152   4.873   5.113   7.460 -0.0429 -0.9269  0.0430
  139OSM   H13A15153   4.799   5.189   7.481  0.1185 -0.7474 -0.0453
  139OSM   H13B15154   4.890   5.044   7.541 -2.1312  0.2060  1.5416
  139OSM   H13C15155   4.828   5.069   7.372  0.7797  0.7290 -1.2605
  139OSM    C1215156   4.973   5.250   7.280 -0.2174  0.7743 -0.6494
  139OSM   H12A15157   4.874   5.290   7.295  0.0591  0.5542  2.3768
  139OSM   H12B15158   4.960   5.179   7.199  1.8849 -0.1608 -0.2362
  139OSM    C1115159   5.068   5.360   7.233 -0.2558  0.1826  1.1410
  139OSM   H11A15160   5.052   5.440   7.308  0.2217  1.1051  0.2750
  139OSM   H11B15161   5.030   5.402   7.137 -0.0416 -2.3647 -0.1417
  139OSM      P15162   5.223   5.218   7.081 -0.3131 -0.0540  0.2168
  139OSM    O1315163   5.317   5.297   6.994  0.7767 -0.4556  0.5582
  139OSM    O1415164   5.254   5.082   7.118 -0.4059  0.1559 -0.1473
  139OSM    O1115165   5.079   5.214   7.011  0.2696  0.2393  0.5452
  139OSM    O1215166   5.204   5.311   7.219  0.2322 -0.1413 -0.4567
  139OSM    C1S15167   5.056   5.128   6.897 -0.0379 -0.2760 -0.3153
  139OSM    H1S15168   5.011   5.033   6.933 -0.2691  0.5526  1.7070
  139OSM    H1T15169   5.149   5.112   6.839  0.8102  1.1120  0.6020
  139OSM     NF15170   4.938   5.112   6.680 -0.5363 -0.3070 -0.4250
  139OSM    HNF15171   4.962   5.157   6.595  0.8883 -1.6825 -0.7909
  139OSM    C2S15172   4.958   5.194   6.801 -0.4929  0.1762 -0.6441
  139OSM    H2S15173   4.859   5.194   6.852 -0.7873  1.3419 -1.1733
  139OSM    C3S15174   4.979   5.350   6.780  0.2298  0.2258  0.4614
  139OSM    H3S15175   5.080   5.365   6.737 -1.2478  1.8262 -2.8924
  139OSM     O315176   4.980   5.426   6.897 -0.0774 -0.0902 -0.2233
  139OSM    HO315177   5.008   5.364   6.965 -1.7637 -0.7813 -0.1098
  139OSM    C4S15178   4.888   5.405   6.682 -0.3508 -0.0690  0.1168
  139OSM    H4S15179   4.944   5.405   6.587 -1.5037  1.2781 -0.6154
  139OSM    C5S15180   4.759   5.442   6.701 -0.3048  1.1932 -0.7250
  139OSM    H5S15181   4.711   5.414   6.795  1.2972  0.0261 -0.2077
  139OSM    C6S15182   4.670   5.515   6.606 -0.3739  1.2834 -0.2467
  139OSM    H6S15183   4.661   5.625   6.622  2.0886  1.4249  0.7954
  139OSM    H6T15184   4.564   5.483   6.614  0.1270 -0.2948  0.4593
  139OSM    C7S15185   4.707   5.477   6.461 -0.2187 -0.0117 -0.6374
  139OSM    H7S15186   4.712   5.366   6.455  1.6318 -0.1093  1.2890
  139OSM    H7T15187   4.806   5.514   6.427 -0.6293 -0.4226 -2.4156
  139OSM    C8S15188   4.607   5.518   6.355  0.1469 -0.5212 -0.1511
  139OSM    H8S15189   4.604   5.629   6.354  1.5140 -0.4445 -1.8234
  139OSM    H8T15190   4.504   5.500   6.393  0.2698  0.8112  0.8616
  139OSM    C9S15191   4.639   5.456   6.216  0.5483  0.5039  0.3973
  139OSM    H9S15192   4.553   5.472   6.148  1.5220  2.5234 -0.4522
  139OSM    H9T15193   4.649   5.346   6.225 -3.0545 -0.0837 -1.0417
  139OSM   C10S15194   4.757   5.520   6.145 -0.1056  0.3044  0.1659
  139OSM   H10S15195   4.842   5.488   6.209 -2.0296 -2.3189  1.5876
  139OSM   H10T15196   4.748   5.631   6.139 -0.9496  0.2125 -0.6168
  139OSM   C11S15197   4.773   5.464   6.006  0.0142  0.1214  0.1565
  139OSM   H11S15198   4.780   5.354   6.018  0.3159  0.1733  0.4612
  139OSM   H11T15199   4.869   5.502   5.965 -0.3536  1.2057  0.2754
  139OSM   C12S15200   4.672   5.500   5.901  0.9050 -0.3127  0.1042
  139OSM   H12S15201   4.666   5.608   5.876  2.5396 -0.1121  0.4234
  139OSM   H12T15202   4.571   5.467   5.932  0.7261 -1.5941 -1.6555
  139OSM   C13S15203   4.716   5.441   5.759 -0.0045 -1.1243 -0.4126
  139OSM   H13S15204   4.705   5.331   5.770  1.1002 -1.3828 -1.6002
  139OSM   H13T15205   4.821   5.469   5.736 -0.1392  0.8054  1.0340
  139OSM   C14S15206   4.629   5.487   5.644  0.3334 -0.3303  0.2777
  139OSM   H14S15207   4.599   5.593   5.661  0.6018 -0.2551  0.2855
  139OSM   H14T15208   4.532   5.433   5.644  0.8551 -1.2941 -0.5767
  139OSM   C15S15209   4.699   5.484   5.502 -0.3903  0.2028 -0.6717
  139OSM   H15S15210   4.750   5.385   5.497  0.4259  0.3268  2.5892
  139OSM   H15T15211   4.782   5.558   5.496  0.2701 -0.5919 -1.8347
  139OSM   C16S15212   4.601   5.496   5.384 -0.0720 -0.2530 -0.1003
  139OSM   H16S15213   4.538   5.588   5.384  2.0493  1.3271  1.1995
  139OSM   H16T15214   4.534   5.408   5.385 -1.9330  1.0932  1.1887
  139OSM   C17S15215   4.665   5.504   5.241 -0.5421  0.3812 -0.3132
  139OSM   H17S15216   4.728   5.413   5.235 -2.0779 -0.8053  0.8325
  139OSM   H17T15217   4.729   5.595   5.232  1.8809 -1.4320 -3.4657
  139OSM   C18S15218   4.560   5.500   5.134 -0.2236 -0.1881 -0.8703
  139OSM   H18S15219   4.611   5.501   5.036 -1.0226  2.1223 -1.3236
  139OSM   H18T15220   4.492   5.588   5.145 -1.2919 -1.0733 -0.1626
  139OSM   H18U15221   4.498   5.408   5.141 -1.7097  0.8541  0.3429
  139OSM    C1F15222   4.916   4.987   6.671  0.5722 -0.1975 -0.0812
  139OSM     OF15223   4.915   4.907   6.766  0.1683  0.6042  0.9165
  139OSM    C2F15224   4.894   4.941   6.536 -0.3263 -0.3972  1.0083
  139OSM    H2F15225   4.993   4.923   6.488  0.8609  0.1475  3.1174
  139OSM    H2G15226   4.844   5.025   6.484  1.9450  0.3467 -0.1088
  139OSM    C3F15227   4.797   4.825   6.523 -0.0870 -0.4421  0.5545
  139OSM    H3F15228   4.712   4.855   6.588  0.8117  0.2240  1.4642
  139OSM    H3G15229   4.843   4.741   6.581  1.4467  0.5121  0.7936
  139OSM    C4F15230   4.772   4.768   6.382  0.5743  0.1213  0.1614
  139OSM    H4F15231   4.693   4.824   6.328 -0.3467 -1.2416  0.0614
  139OSM    H4G15232   4.737   4.664   6.391  2.4049 -0.4884  0.7838
  139OSM    C5F15233   4.889   4.738   6.296  0.2319 -0.0867  0.2025
  139OSM    H5F15234   4.951   4.657   6.341  0.0651  0.3997  1.3278
  139OSM    H5G15235   4.948   4.830   6.275  1.4261 -0.3453  2.2155
  139OSM    C6F15236   4.840   4.675   6.159  0.2379  0.2361  0.5279
  139OSM    H6F15237   4.751   4.715   6.107  0.4069 -0.9271 -0.7351
  139OSM    H6G15238   4.811   4.570   6.182  1.5508 -0.1399  0.6038
  139OSM    C7F15239   4.947   4.677   6.052  0.0396  0.3339  0.1470
  139OSM    H7F15240   5.035   4.620   6.088 -0.3249  0.2421  0.9093
  139OSM    H7G15241   4.978   4.780   6.023  0.4745  0.1409 -0.0822
  139OSM    C8F15242   4.917   4.617   5.916 -0.6028  0.8404 -0.3852
  139OSM    H8F15243   4.908   4.507   5.918  4.3359  0.1855  0.0923
  139OSM    H8G15244   5.016   4.635   5.868 -1.5022  0.0032 -2.6848
  139OSM    C9F15245   4.802   4.677   5.849  0.0960 -0.2040  0.0802
  139OSM    H9F15246   4.708   4.660   5.903  0.2631  1.7536  1.0763
  139OSM   C10F15247   4.811   4.754   5.742 -0.8551  0.0330  0.4086
  139OSM   H10F15248   4.723   4.802   5.699 -1.0769 -0.3514  0.4265
  139OSM   C11F15249   4.931   4.786   5.657 -0.3211 -0.6158  0.4712
  139OSM   H11F15250   5.019   4.736   5.703  0.8345  1.4848  0.7035
  139OSM   H11G15251   4.963   4.892   5.666  1.8879 -1.0738 -1.0871
  139OSM   C12F15252   4.921   4.754   5.508  0.0367 -0.5838  0.4385
  139OSM   H12F15253   4.881   4.653   5.487  3.3031 -1.9207  0.0096
  139OSM   H12G15254   5.026   4.758   5.471  0.3150 -1.4884  1.0931
  139OSM   C13F15255   4.852   4.866   5.431  0.1647  0.4162 -0.1591
  139OSM   H13F15256   4.838   4.965   5.480 -1.0752  1.6010 -2.7227
  139OSM   H13G15257   4.752   4.821   5.415  1.1920 -2.5907  1.2058
  139OSM   C14F15258   4.916   4.900   5.297  0.5247  1.0364  0.1370
  139OSM   H14F15259   4.938   4.802   5.250  2.8713  2.1503 -1.2426
  139OSM   H14G15260   5.014   4.946   5.320  1.2683 -0.3856 -0.0668
  139OSM   C15F15261   4.833   4.986   5.202 -0.5253 -0.7327 -0.5215
  139OSM   H15F15262   4.795   5.079   5.249  1.3743 -1.0245  1.7119
  139OSM   H15G15263   4.745   4.926   5.168  0.9859 -1.4104 -3.6095
  139OSM   C16F15264   4.908   5.032   5.069 -0.1373 -0.0483 -0.4029
  139OSM   H16F15265   4.956   4.940   5.030 -0.0937 -1.0896  1.9184
  139OSM   H16G15266   4.980   5.115   5.085  0.8465 -0.6675 -1.5143
  139OSM   C17F15267   4.833   5.086   4.949  0.3290  0.2582  0.3582
  139OSM   H17F15268   4.771   5.176   4.969 -1.5369  0.0327 -3.5862
  139OSM   H17G15269   4.751   5.020   4.913  1.6640 -1.8261  0.9547
  139OSM   C18F15270   4.914   5.110   4.820  0.4719 -0.3062 -0.3958
  139OSM   H18F15271   4.932   5.010   4.775 -0.2608 -0.3335 -0.6446
  139OSM   H18G15272   5.009   5.164   4.839  0.1509  0.0889  0.1126
  139OSM   H18H15273   4.855   5.178   4.753  0.1845  1.8794  1.9344
  140OSM      N15274   1.192   1.476   6.966 -0.3199 -0.1814 -0.1878
  140OSM    C1515275   1.079   1.532   7.040 -0.8923  0.6232 -0.3348
  140OSM   H15A15276   1.041   1.453   7.103  2.1984 -0.7030  0.0501
  140OSM   H15B15277   0.994   1.570   6.984 -1.9471 -1.7995 -0.5226
  140OSM   H15C15278   1.104   1.615   7.103 -3.1465  1.1510 -0.0345
  140OSM    C1415279   1.242   1.580   6.871  0.4656  0.3353  0.2086
  140OSM   H14A15280   1.270   1.673   6.918  1.7718  0.5410 -0.9124
  140OSM   H14B15281   1.168   1.615   6.800  0.1502 -0.0268  0.3584
  140OSM   H14C15282   1.330   1.547   6.819  1.0150 -1.0863  1.9521
  140OSM    C1315283   1.307   1.445   7.061  0.4808 -1.0280  0.7309
  140OSM   H13A15284   1.333   1.538   7.108  0.2433  0.3805 -1.7661
  140OSM   H13B15285   1.395   1.407   7.012  0.8116 -1.3595  1.5650
  140OSM   H13C15286   1.272   1.374   7.136 -0.3977  0.4840  1.8045
  140OSM    C1215287   1.151   1.346   6.895 -0.1620 -0.7393 -0.1634
  140OSM   H12A15288   1.235   1.321   6.831  0.4483 -0.0486  0.3448
  140OSM   H12B15289   1.076   1.364   6.820 -0.5353  0.8424  0.5587
  140OSM    C1115290   1.117   1.216   6.977  0.7212  0.1117  0.2007
  140OSM   H11A15291   1.206   1.183   7.034  2.0734  1.2575 -1.1632
  140OSM   H11B15292   1.092   1.145   6.896  2.9428 -0.3663 -0.1180
  140OSM      P15293   0.861   1.218   7.038  0.2804 -0.1610  0.1760
  140OSM    O1315294   0.807   1.092   7.090 -0.2105  0.5304  0.4940
  140OSM    O1415295   0.788   1.338   7.087 -0.3456  0.2110 -0.3087
  140OSM    O1115296   0.860   1.225   6.877 -0.5298 -0.2077  0.0839
  140OSM    O1215297   1.016   1.223   7.070  0.3814 -0.3705 -0.3257
  140OSM    C1S15298   0.819   1.346   6.814  1.1913 -0.4315 -0.1548
  140OSM    H1S15299   0.867   1.442   6.841  0.2447 -0.3889  1.5895
  140OSM    H1T15300   0.708   1.356   6.815  1.0285 -1.9368  0.2487
  140OSM     NF15301   0.835   1.462   6.602 -0.4176  0.3746  0.3583
  140OSM    HNF15302   0.742   1.485   6.577 -0.8123 -2.8070 -1.5547
  140OSM    C2S15303   0.840   1.333   6.659 -0.4595  0.3842 -0.6328
  140OSM    H2S15304   0.944   1.297   6.644 -0.0083  1.5549 -0.4490
  140OSM    C3S15305   0.736   1.240   6.593 -0.2566  0.1630  0.6157
  140OSM    H3S15306   0.635   1.286   6.606 -0.1638  0.1089  1.6417
  140OSM     O315307   0.724   1.109   6.644 -0.4854  0.2131  0.5597
  140OSM    HO315308   0.769   1.111   6.729 -0.1713 -1.9086  0.5087
  140OSM    C4S15309   0.768   1.224   6.449  0.8208  0.0738  0.1172
  140OSM    H4S15310   0.849   1.151   6.431  0.2425 -0.1937 -1.5330
  140OSM    C5S15311   0.731   1.300   6.343  0.7307  0.1010  0.4609
  140OSM    H5S15312   0.662   1.383   6.366 -1.2566 -1.3598 -0.0220
  140OSM    C6S15313   0.782   1.291   6.201  0.0969 -0.5112  0.2314
  140OSM    H6S15314   0.862   1.366   6.183  0.4331 -1.3296 -2.0796
  140OSM    H6T15315   0.709   1.315   6.120  0.5999 -1.9998 -0.7059
  140OSM    C7S15316   0.827   1.149   6.160 -0.3868  0.4254  0.0287
  140OSM    H7S15317   0.747   1.077   6.188 -1.5273  2.3227  1.9950
  140OSM    H7T15318   0.924   1.124   6.207 -0.0247  0.1963 -0.8409
  140OSM    C8S15319   0.862   1.142   6.013  0.2735 -0.0929  0.1477
  140OSM    H8S15320   0.764   1.133   5.960  0.1221  0.1009  0.3940
  140OSM    H8T15321   0.909   1.043   5.994  1.1392 -0.4117  3.3751
  140OSM    C9S15322   0.909   1.265   5.940  0.0158  0.0802 -0.1172
  140OSM    H9S15323   0.995   1.307   5.997 -2.4403  1.3659  2.9017
  140OSM    H9T15324   0.838   1.350   5.945  1.8773  1.7263 -0.1243
  140OSM   C10S15325   0.948   1.239   5.794  0.1938 -0.0726 -0.3251
  140OSM   H10S15326   0.852   1.221   5.741 -0.6980  1.9049  0.5046
  140OSM   H10T15327   1.020   1.155   5.798 -0.7477 -0.8578  0.4421
  140OSM   C11S15328   1.007   1.364   5.722 -0.0120  0.6477  0.4302
  140OSM   H11S15329   1.103   1.393   5.770 -0.4665 -0.0962  1.8320
  140OSM   H11T15330   0.940   1.452   5.731 -0.0970  0.6798 -0.4360
  140OSM   C12S15331   1.035   1.334   5.575 -0.3548 -0.5437  0.3001
  140OSM   H12S15332   0.934   1.319   5.532 -0.0611  1.5371 -1.2636
  140OSM   H12T15333   1.100   1.244   5.567 -0.0238 -0.3874  1.1294
  140OSM   C13S15334   1.108   1.454   5.514  0.1832  0.0327 -0.5836
  140OSM   H13S15335   1.198   1.483   5.572  0.3049 -0.3941 -0.5581
  140OSM   H13T15336   1.037   1.539   5.517  1.3579  1.0617 -1.1639
  140OSM   C14S15337   1.138   1.439   5.364  0.2133 -0.2420  0.3352
  140OSM   H14S15338   1.049   1.396   5.313 -0.1886  1.8950 -0.9091
  140OSM   H14T15339   1.227   1.375   5.347 -0.2159 -0.2286 -2.4620
  140OSM   C15S15340   1.151   1.578   5.290  0.2164  0.5960 -0.1305
  140OSM   H15S15341   1.229   1.631   5.348  0.7387 -2.1479  1.8676
  140OSM   H15T15342   1.052   1.626   5.305  0.0648  0.1127  0.4428
  140OSM   C16S15343   1.220   1.574   5.146  0.7557 -0.6484  0.0050
  140OSM   H16S15344   1.164   1.489   5.102 -2.6825  0.5373  1.7102
  140OSM   H16T15345   1.330   1.560   5.150  0.7942 -1.0251 -1.4656
  140OSM   C17S15346   1.187   1.711   5.077  0.5753  0.2397  0.5643
  140OSM   H17S15347   1.228   1.788   5.146 -0.1858 -0.5105  1.8899
  140OSM   H17T15348   1.079   1.736   5.082  0.8756  1.3985  2.4302
  140OSM   C18S15349   1.233   1.723   4.933  0.6090  0.0433  0.3511
  140OSM   H18S15350   1.200   1.629   4.882  0.4121  0.4031 -0.1914
  140OSM   H18T15351   1.343   1.732   4.932  0.4621  2.5564  0.7907
  140OSM   H18U15352   1.190   1.815   4.888  1.0505 -0.3656 -0.9628
  140OSM    C1F15353   0.925   1.559   6.614  0.6508 -0.1097 -0.4755
  140OSM     OF15354   1.041   1.531   6.639 -0.0562 -0.6353 -0.1585
  140OSM    C2F15355   0.878   1.703   6.593  0.7292  1.0402  0.1649
  140OSM    H2F15356   0.943   1.770   6.653 -0.0538  2.6109 -0.6750
  140OSM    H2G15357   0.774   1.713   6.631  0.5041 -1.9862  0.5845
  140OSM    C3F15358   0.864   1.729   6.446 -1.2933 -0.3763  0.2182
  140OSM    H3F15359   0.797   1.817   6.437  1.8031  2.1250 -0.1001
  140OSM    H3G15360   0.812   1.645   6.395 -1.1084  0.1381 -0.8393
  140OSM    C4F15361   0.989   1.781   6.370 -0.4862 -0.1095  0.0183
  140OSM    H4F15362   1.068   1.703   6.368 -0.4509 -0.0630 -0.4766
  140OSM    H4G15363   1.029   1.872   6.421  1.1818  0.6544 -2.4621
  140OSM    C5F15364   0.955   1.819   6.225  0.1596 -0.1797 -0.4195
  140OSM    H5F15365   0.867   1.886   6.219  1.0435  0.9737 -0.8971
  140OSM    H5G15366   0.922   1.727   6.172  0.2691 -0.2799 -0.3162
  140OSM    C6F15367   1.078   1.871   6.145 -0.2757  0.0591  0.5815
  140OSM    H6F15368   1.170   1.810   6.158  0.3468  0.2766 -2.2308
  140OSM    H6G15369   1.103   1.973   6.181 -0.4037 -0.6667  2.9026
  140OSM    C7F15370   1.052   1.895   5.994  0.3275  0.1144 -0.0261
  140OSM    H7F15371   0.961   1.958   5.997  0.4874  0.4439 -1.4287
  140OSM    H7G15372   1.022   1.800   5.944 -1.0349  0.7823 -0.5575
  140OSM    C8F15373   1.166   1.969   5.920 -0.2143 -0.5553  0.8866
  140OSM    H8F15374   1.158   1.943   5.812  1.6928 -0.3543  0.6570
  140OSM    H8G15375   1.261   1.929   5.963  1.3285  2.0961  0.1750
  140OSM    C9F15376   1.177   2.123   5.951  0.1071  0.4643  0.6327
  140OSM    H9F15377   1.163   2.154   6.055 -1.0827  1.1878  0.2728
  140OSM   C10F15378   1.183   2.215   5.852  0.2196 -0.0504 -0.3872
  140OSM   H10F15379   1.189   2.322   5.874 -0.7703  0.1829 -1.1370
  140OSM   C11F15380   1.182   2.199   5.697 -0.1468  0.0394 -0.5148
  140OSM   H11F15381   1.170   2.092   5.670 -1.2688  0.0466 -0.1156
  140OSM   H11G15382   1.270   2.250   5.653 -1.4046  0.3784 -2.7749
  140OSM   C12F15383   1.051   2.271   5.643  0.2941  0.8061 -0.5350
  140OSM   H12F15384   1.028   2.226   5.544 -0.2026 -0.8725  0.2972
  140OSM   H12G15385   1.062   2.381   5.640  0.8534  0.7429 -1.1018
  140OSM   C13F15386   0.929   2.250   5.725  0.1010  0.3818 -0.2120
  140OSM   H13F15387   0.925   2.320   5.811 -3.5959  0.5796 -0.3571
  140OSM   H13G15388   0.934   2.151   5.774  1.5105  0.3991 -0.2832
  140OSM   C14F15389   0.791   2.254   5.648 -0.5028 -0.0391  0.2890
  140OSM   H14F15390   0.781   2.157   5.595 -0.7512 -0.0896  0.4258
  140OSM   H14G15391   0.801   2.335   5.573 -0.1936  0.9232  1.3402
  140OSM   C15F15392   0.673   2.281   5.739  0.5568  0.0421 -0.3695
  140OSM   H15F15393   0.584   2.303   5.676  0.6807 -1.3048 -1.0462
  140OSM   H15G15394   0.688   2.366   5.809 -0.4801 -0.3066  0.2941
  140OSM   C16F15395   0.658   2.153   5.830 -0.0398 -0.4271 -0.1750
  140OSM   H16F15396   0.742   2.138   5.901  0.8592  1.8096 -0.6741
  140OSM   H16G15397   0.660   2.061   5.767 -0.2839 -0.1473 -0.5922
  140OSM   C17F15398   0.531   2.162   5.923  0.0928 -0.3155  0.8006
  140OSM   H17F15399   0.443   2.182   5.859  1.0658 -2.0758 -1.2429
  140OSM   H17G15400   0.548   2.242   5.998  0.5509 -1.5668  2.0825
  140OSM   C18F15401   0.517   2.027   5.996 -0.0490  0.3024  0.3023
  140OSM   H18F15402   0.590   2.031   6.080 -0.6056  2.2445  0.7574
  140OSM   H18G15403   0.537   1.940   5.931 -1.6598 -0.1820  0.4121
  140OSM   H18H15404   0.414   2.007   6.033 -0.6328 -0.4288 -1.5979
  141OSM      N15405   6.317   3.516   7.510 -0.3084 -0.7918 -0.0841
  141OSM    C1515406   6.428   3.568   7.424  0.2654  0.2630  0.6939
  141OSM   H15A15407   6.393   3.581   7.323 -0.0592 -2.2265  0.4203
  141OSM   H15B15408   6.512   3.500   7.422  1.0617  1.2153 -2.2541
  141OSM   H15C15409   6.470   3.662   7.456  0.3686 -0.4408  2.8479
  141OSM    C1415410   6.271   3.378   7.462 -0.4620 -1.1209 -0.0976
  141OSM   H14A15411   6.226   3.386   7.364  1.1328  1.2546 -0.7312
  141OSM   H14B15412   6.191   3.339   7.523  0.5447 -0.7708  1.5061
  141OSM   H14C15413   6.350   3.309   7.438  1.2753  0.3457  1.1458
  141OSM    C1315414   6.344   3.500   7.651 -0.6388  0.2279 -1.4403
  141OSM   H13A15415   6.443   3.461   7.670 -0.8457  0.7765  1.1598
  141OSM   H13B15416   6.270   3.439   7.701 -1.4898  1.9461 -0.5136
  141OSM   H13C15417   6.345   3.593   7.707 -0.8267 -0.8640  0.4724
  141OSM    C1215418   6.201   3.611   7.486  0.1807  0.3545 -0.3918
  141OSM   H12A15419   6.241   3.703   7.525  0.6535  1.7665 -3.8722
  141OSM   H12B15420   6.123   3.582   7.555  0.5587 -0.3694 -0.2572
  141OSM    C1115421   6.139   3.623   7.348 -0.3133 -0.2863  1.3343
  141OSM   H11A15422   6.062   3.703   7.352 -0.3361 -0.2060 -0.1002
  141OSM   H11B15423   6.080   3.534   7.318 -1.2085  0.7597 -0.2002
  141OSM      P15424   6.273   3.806   7.204  0.4785 -0.0050 -0.4171
  141OSM    O1315425   6.203   3.898   7.301 -0.5402  0.2166  0.0495
  141OSM    O1415426   6.419   3.809   7.201 -0.2345  0.2086  0.3098
  141OSM    O1115427   6.213   3.826   7.059 -1.0048  1.0015 -0.1986
  141OSM    O1215428   6.231   3.658   7.237  0.4406 -0.1947  0.6175
  141OSM    C1S15429   6.304   3.836   6.951  0.2649 -0.7369  0.3627
  141OSM    H1S15430   6.349   3.735   6.939 -0.8988 -1.0437 -2.3161
  141OSM    H1T15431   6.387   3.908   6.968 -1.1233  0.8629  0.5714
  141OSM     NF15432   6.311   3.825   6.715 -0.3104  0.2315  0.0926
  141OSM    HNF15433   6.376   3.890   6.676 -0.3634  1.3116  1.6937
  141OSM    C2S15434   6.231   3.866   6.823 -0.1753  0.3985 -0.7234
  141OSM    H2S15435   6.138   3.805   6.821 -0.1330  0.3654 -1.8753
  141OSM    C3S15436   6.184   4.018   6.824  0.6537  0.3804  0.5298
  141OSM    H3S15437   6.274   4.081   6.830  1.7052 -1.1728  2.3758
  141OSM     O315438   6.104   4.051   6.939 -0.1860  0.2520 -0.0931
  141OSM    HO315439   6.118   3.985   7.007  1.1204  0.9436  0.3391
  141OSM    C4S15440   6.113   4.055   6.694  0.2472 -0.0468 -0.1863
  141OSM    H4S15441   6.183   4.054   6.609  2.5548 -0.1741  1.5993
  141OSM    C5S15442   5.984   4.074   6.671  0.2913  0.3379  0.0809
  141OSM    H5S15443   5.917   4.048   6.754  0.2379  0.0598 -0.0476
  141OSM    C6S15444   5.921   4.102   6.540  0.2723  0.1329  0.1891
  141OSM    H6S15445   5.887   4.208   6.546  1.4056  0.4493  1.3097
  141OSM    H6T15446   5.833   4.033   6.536  0.5055 -0.2276  1.1692
  141OSM    C7S15447   5.999   4.071   6.414  0.0662 -0.5461  0.1630
  141OSM    H7S15448   6.024   3.962   6.414  1.1857 -0.3422  2.6545
  141OSM    H7T15449   6.095   4.125   6.401  1.2161 -2.7844 -1.4349
  141OSM    C8S15450   5.912   4.106   6.289 -0.1314  0.1487 -0.0388
  141OSM    H8S15451   5.816   4.050   6.291 -0.6929  1.0098  3.1179
  141OSM    H8T15452   5.966   4.070   6.199  0.0494 -2.9767  1.2093
  141OSM    C9S15453   5.875   4.256   6.277 -0.5467 -1.0165 -0.4473
  141OSM    H9S15454   5.967   4.314   6.254 -0.7898  0.6264  2.3056
  141OSM    H9T15455   5.844   4.295   6.376 -2.7105 -3.3585 -0.1039
  141OSM   C10S15456   5.772   4.289   6.171  0.2405  0.1891  0.6642
  141OSM   H10S15457   5.677   4.236   6.195 -0.2705 -0.2293 -2.0053
  141OSM   H10T15458   5.807   4.255   6.072  0.0972 -1.4293  1.1427
  141OSM   C11S15459   5.762   4.446   6.164  0.1366 -0.1917 -0.3122
  141OSM   H11S15460   5.862   4.494   6.165 -0.6604  1.5876 -0.8489
  141OSM   H11T15461   5.706   4.490   6.250  0.9629  1.0064 -0.3695
  141OSM   C12S15462   5.707   4.516   6.039 -0.3802 -0.0804 -0.2132
  141OSM   H12S15463   5.695   4.622   6.070 -1.3327 -1.1725  3.6800
  141OSM   H12T15464   5.604   4.487   6.010  0.4552 -1.0107 -2.5156
  141OSM   C13S15465   5.787   4.484   5.911 -0.1488 -0.8084 -0.5564
  141OSM   H13S15466   5.784   4.374   5.900 -3.0988 -0.8554 -0.0980
  141OSM   H13T15467   5.896   4.503   5.926 -0.0201 -1.4292 -0.7048
  141OSM   C14S15468   5.725   4.550   5.785 -0.5418 -0.3563  0.7057
  141OSM   H14S15469   5.727   4.661   5.788 -1.1289 -0.3489  1.0917
  141OSM   H14T15470   5.622   4.508   5.778 -1.1793  1.2975 -0.3689
  141OSM   C15S15471   5.801   4.523   5.651 -0.0332 -0.4013 -0.1494
  141OSM   H15S15472   5.752   4.581   5.570 -0.5644  0.5435  0.8238
  141OSM   H15T15473   5.785   4.418   5.617 -0.4345 -0.4155  0.0768
  141OSM   C16S15474   5.954   4.547   5.654 -0.4444 -0.3078 -0.3283
  141OSM   H16S15475   5.997   4.492   5.741 -2.8836  1.3915  2.1166
  141OSM   H16T15476   5.973   4.655   5.670  0.9910 -0.3988 -1.2959
  141OSM   C17S15477   6.018   4.494   5.525 -0.9380 -0.1516 -0.1079
  141OSM   H17S15478   5.973   4.397   5.495 -0.4756 -0.0698 -1.0882
  141OSM   H17T15479   6.126   4.478   5.544 -1.3774 -1.3828  1.6895
  141OSM   C18S15480   5.994   4.577   5.399  0.0166 -0.3900  0.6561
  141OSM   H18S15481   6.000   4.688   5.408 -3.9020  0.0563 -0.1662
  141OSM   H18T15482   5.893   4.552   5.360 -0.5087  2.2847  0.1259
  141OSM   H18U15483   6.067   4.552   5.320 -0.5311  0.7142 -0.2385
  141OSM    C1F15484   6.339   3.700   6.675  0.7407  0.2511  0.4677
  141OSM     OF15485   6.289   3.609   6.739  0.3683  0.1227  0.4690
  141OSM    C2F15486   6.428   3.667   6.561 -0.0743 -0.7026 -0.1887
  141OSM    H2F15487   6.485   3.581   6.601 -1.7796 -1.2587  1.1953
  141OSM    H2G15488   6.491   3.754   6.532  0.5668 -1.1518 -0.1419
  141OSM    C3F15489   6.355   3.617   6.441 -0.2502 -0.4495  0.2934
  141OSM    H3F15490   6.280   3.539   6.466 -0.2383 -0.4611  0.2938
  141OSM    H3G15491   6.430   3.570   6.374 -1.0067 -1.6524  0.2522
  141OSM    C4F15492   6.291   3.729   6.362 -0.7075 -0.3277  0.5473
  141OSM    H4F15493   6.352   3.822   6.366 -1.2983  0.1141 -0.2185
  141OSM    H4G15494   6.193   3.763   6.403 -0.9117 -0.5864  0.2875
  141OSM    C5F15495   6.259   3.697   6.215  0.1966  0.0893 -0.5301
  141OSM    H5F15496   6.214   3.596   6.216 -0.3174  0.2946  0.8990
  141OSM    H5G15497   6.356   3.671   6.168 -0.7565 -2.3324 -1.3057
  141OSM    C6F15498   6.168   3.806   6.144 -0.1442  0.2639  0.6001
  141OSM    H6F15499   6.215   3.906   6.157  1.6353 -0.5696  0.8471
  141OSM    H6G15500   6.074   3.813   6.203  0.8967  1.4795  2.1878
  141OSM    C7F15501   6.144   3.756   5.998 -0.0554 -1.1220 -0.0287
  141OSM    H7F15502   6.096   3.657   5.991  1.8769 -2.1680  0.7111
  141OSM    H7G15503   6.248   3.733   5.965  0.2171 -1.1365  0.8127
  141OSM    C8F15504   6.084   3.854   5.905  1.0596  0.0949 -0.0620
  141OSM    H8F15505   6.139   3.947   5.927  0.0784  0.8044 -0.5087
  141OSM    H8G15506   5.979   3.871   5.937  0.8399 -3.1278  1.3127
  141OSM    C9F15507   6.088   3.799   5.765 -0.5843  0.3777 -1.2140
  141OSM    H9F15508   6.062   3.693   5.758  1.9490 -0.7041  2.6846
  141OSM   C10F15509   6.144   3.868   5.667  0.7078  0.0790  0.3163
  141OSM   H10F15510   6.153   3.830   5.564  1.2557  1.3834 -0.1344
  141OSM   C11F15511   6.178   4.014   5.662  0.6823 -0.5431  0.5264
  141OSM   H11F15512   6.285   4.026   5.636  0.3124 -2.3343 -2.2376
  141OSM   H11G15513   6.157   4.062   5.760  0.3262  2.3006 -0.8332
  141OSM   C12F15514   6.091   4.081   5.556 -0.2997 -0.7632 -0.0772
  141OSM   H12F15515   6.090   4.192   5.564  2.0023 -0.6961  0.0019
  141OSM   H12G15516   5.988   4.046   5.578 -0.5187 -0.5794 -0.7927
  141OSM   C13F15517   6.115   4.042   5.408 -0.4209 -1.1033  0.0110
  141OSM   H13F15518   6.026   4.087   5.358  0.4570  1.3282  0.5240
  141OSM   H13G15519   6.101   3.931   5.406 -0.5281 -1.0913  0.0451
  141OSM   C14F15520   6.249   4.087   5.346  0.9454 -0.0121  0.6619
  141OSM   H14F15521   6.329   4.095   5.422 -0.2584 -2.0613  2.2603
  141OSM   H14G15522   6.226   4.181   5.291  2.1172  0.4998  1.0141
  141OSM   C15F15523   6.303   3.986   5.238 -0.1638 -0.6250  0.0207
  141OSM   H15F15524   6.325   4.057   5.155  0.1444 -1.2337 -0.4353
  141OSM   H15G15525   6.217   3.926   5.202  0.0044 -0.6355 -0.3703
  141OSM   C16F15526   6.430   3.909   5.278 -0.3518  0.2576 -0.4607
  141OSM   H16F15527   6.493   3.982   5.333  1.4912 -2.3705  1.1701
  141OSM   H16G15528   6.483   3.870   5.189  0.8698 -2.3270  1.2386
  141OSM   C17F15529   6.397   3.788   5.370  0.6463 -0.2463 -0.1219
  141OSM   H17F15530   6.307   3.735   5.332 -0.9222  1.0262  1.6314
  141OSM   H17G15531   6.364   3.828   5.468 -0.1645 -1.2054  0.0122
  141OSM   C18F15532   6.509   3.687   5.397 -0.6344  0.0306  0.3386
  141OSM   H18F15533   6.602   3.743   5.418 -0.1945  0.7671 -3.0224
  141OSM   H18G15534   6.533   3.617   5.314  1.0551  0.1812  0.6796
  141OSM   H18H15535   6.483   3.624   5.485 -2.6409 -0.9557 -0.8749
  142OSM      N15536   5.803   4.063   7.161  0.1585 -0.7398  0.1163
  142OSM    C1515537   5.932   4.131   7.205  0.0239  0.0590  0.0330
  142OSM   H15A15538   5.921   4.210   7.277  1.6668 -0.1677  0.5730
  142OSM   H15B15539   5.993   4.159   7.121 -1.3232 -2.5423 -1.9624
  142OSM   H15C15540   5.998   4.064   7.258  1.6411  0.5343 -1.3263
  142OSM    C1415541   5.711   4.158   7.103  0.6678 -0.2446  0.1664
  142OSM   H14A15542   5.710   4.254   7.152 -3.4991 -0.2012  0.3344
  142OSM   H14B15543   5.615   4.109   7.095  1.4544 -1.8196 -0.0914
  142OSM   H14C15544   5.732   4.190   7.002 -1.3965  1.9186  0.3388
  142OSM    C1315545   5.832   3.962   7.059 -0.6314  0.2774  0.6054
  142OSM   H13A15546   5.900   4.003   6.985 -3.3919  0.0670 -2.3105
  142OSM   H13B15547   5.745   3.924   7.007 -1.0957  1.0024  0.8419
  142OSM   H13C15548   5.878   3.883   7.116 -1.0404 -0.2271  0.2461
  142OSM    C1215549   5.735   4.002   7.281 -0.0140 -0.4640  0.1198
  142OSM   H12A15550   5.630   4.001   7.257  0.2150 -1.5300 -0.9144
  142OSM   H12B15551   5.737   4.071   7.364 -1.6293 -0.7569  0.4237
  142OSM    C1115552   5.781   3.864   7.339  0.9871  0.0664  0.1851
  142OSM   H11A15553   5.736   3.857   7.440 -1.7529  0.6603 -0.9193
  142OSM   H11B15554   5.892   3.865   7.344  0.9419  0.5176  1.3497
  142OSM      P15555   5.584   3.726   7.239  0.2730  0.5163 -0.2085
  142OSM    O1315556   5.551   3.654   7.366  0.1886 -0.0432 -0.2101
  142OSM    O1415557   5.502   3.846   7.207  0.0970 -0.1130 -0.2067
  142OSM    O1115558   5.585   3.618   7.118 -0.0799 -0.2334 -0.3525
  142OSM    O1215559   5.735   3.757   7.258  0.0822 -0.0846  0.2443
  142OSM    C1S15560   5.690   3.527   7.084  0.5368 -0.3623  0.0191
  142OSM    H1S15561   5.670   3.428   7.130 -3.0487 -0.3516 -1.1751
  142OSM    H1T15562   5.789   3.563   7.120  0.2654 -0.7875  1.2303
  142OSM     NF15563   5.754   3.374   6.892 -0.3594  0.0222 -0.0713
  142OSM    HNF15564   5.854   3.373   6.891 -0.2606  1.7547  1.9397
  142OSM    C2S15565   5.697   3.505   6.928 -0.9803  0.4748  0.4633
  142OSM    H2S15566   5.589   3.505   6.899 -0.8785  0.8397  0.0732
  142OSM    C3S15567   5.753   3.628   6.861 -0.3072 -0.9708  0.5507
  142OSM    H3S15568   5.851   3.664   6.901  0.0253 -3.0941  1.8332
  142OSM     O315569   5.677   3.744   6.888  0.4899 -0.1860 -0.1481
  142OSM    HO315570   5.601   3.715   6.938 -0.5579 -0.6605 -1.9355
  142OSM    C4S15571   5.759   3.614   6.712  0.1140  0.2915  0.1753
  142OSM    H4S15572   5.683   3.548   6.668 -0.3252  0.2793  0.9338
  142OSM    C5S15573   5.846   3.675   6.631  0.0582  0.4434 -0.9288
  142OSM    H5S15574   5.924   3.727   6.690 -0.9564  0.0286  0.8248
  142OSM    C6S15575   5.860   3.664   6.482 -0.9118 -0.0111 -0.4034
  142OSM    H6S15576   5.970   3.650   6.470 -0.5926  1.8656 -0.0687
  142OSM    H6T15577   5.830   3.759   6.433  0.3835  0.7227  0.1501
  142OSM    C7S15578   5.786   3.548   6.412  0.0863  0.4185 -0.1636
  142OSM    H7S15579   5.675   3.554   6.421  0.2187  1.0068  1.3529
  142OSM    H7T15580   5.817   3.450   6.456 -0.6474 -0.0386 -0.6364
  142OSM    C8S15581   5.802   3.544   6.262  0.1818 -0.0747  0.5278
  142OSM    H8S15582   5.912   3.559   6.250  0.8760 -4.0630  0.5878
  142OSM    H8T15583   5.752   3.636   6.224 -1.4375  0.2418  3.1819
  142OSM    C9S15584   5.743   3.417   6.195 -0.4328  0.0083  0.1543
  142OSM    H9S15585   5.632   3.417   6.201 -0.4483  1.7870  0.4284
  142OSM    H9T15586   5.790   3.331   6.247 -1.3199 -0.6779 -0.1512
  142OSM   C10S15587   5.779   3.416   6.044 -0.2622  0.7275  0.3010
  142OSM   H10S15588   5.729   3.324   6.008  0.8115 -0.0481  0.7276
  142OSM   H10T15589   5.888   3.396   6.038 -0.5113 -0.7926  0.5062
  142OSM   C11S15590   5.721   3.536   5.973  0.2152 -0.3630 -0.2307
  142OSM   H11S15591   5.766   3.632   6.008 -1.2230  0.7080 -1.1786
  142OSM   H11T15592   5.610   3.545   5.980  0.2372  0.3579 -0.6502
  142OSM   C12S15593   5.738   3.532   5.829  0.2967 -0.6019 -0.3584
  142OSM   H12S15594   5.684   3.451   5.776 -0.8753 -0.0080 -0.0983
  142OSM   H12T15595   5.845   3.527   5.798 -0.1513 -0.1317 -2.0487
  142OSM   C13S15596   5.669   3.658   5.763  0.5375  0.4645 -0.5268
  142OSM   H13S15597   5.696   3.747   5.824 -2.3192  1.4592 -0.5690
  142OSM   H13T15598   5.560   3.638   5.755  0.4538 -0.5725  2.0849
  142OSM   C14S15599   5.733   3.685   5.620 -0.1507 -0.5763  0.2034
  142OSM   H14S15600   5.840   3.709   5.641 -0.6795  0.4643  1.9152
  142OSM   H14T15601   5.676   3.777   5.597 -0.5746 -0.1120  2.7753
  142OSM   C15S15602   5.699   3.582   5.510 -0.4844 -0.0129 -0.2867
  142OSM   H15S15603   5.597   3.599   5.471 -0.3875 -0.6643 -0.8433
  142OSM   H15T15604   5.703   3.478   5.548  3.9142 -0.3843 -1.2292
  142OSM   C16S15605   5.799   3.596   5.390 -0.1660  0.5394  1.1149
  142OSM   H16S15606   5.902   3.590   5.431 -0.4934  0.2027  1.9142
  142OSM   H16T15607   5.794   3.698   5.346  1.1990  0.7009  1.2784
  142OSM   C17S15608   5.791   3.482   5.286  0.4160  0.4902  1.2502
  142OSM   H17S15609   5.693   3.495   5.235  1.5131 -0.7517 -1.3905
  142OSM   H17T15610   5.794   3.383   5.336  0.5462 -0.7685 -1.0958
  142OSM   C18S15611   5.895   3.476   5.173  0.7303 -0.0970 -0.2101
  142OSM   H18S15612   5.905   3.372   5.136  1.5593 -0.0397 -0.1718
  142OSM   H18T15613   5.995   3.491   5.220 -0.1062  1.9759  1.0686
  142OSM   H18U15614   5.904   3.559   5.100  1.1986  0.7213  0.7583
  142OSM    C1F15615   5.690   3.263   6.919  0.5846 -0.4534  0.0871
  142OSM     OF15616   5.569   3.256   6.952 -0.0252 -0.1765 -0.3376
  142OSM    C2F15617   5.784   3.148   6.912  0.3930 -0.3400  0.2876
  142OSM    H2F15618   5.792   3.101   7.012  2.5415  1.4068  1.0084
  142OSM    H2G15619   5.889   3.184   6.904 -0.1836  1.6364  1.1830
  142OSM    C3F15620   5.743   3.052   6.803  0.2679  0.5141 -0.2014
  142OSM    H3F15621   5.636   3.024   6.814  0.2326  1.3366  2.1185
  142OSM    H3G15622   5.805   2.962   6.824  0.5412  0.7757  0.1148
  142OSM    C4F15623   5.788   3.109   6.669 -0.1958 -0.5929 -0.4169
  142OSM    H4F15624   5.893   3.146   6.672 -0.7193  0.9740 -0.6927
  142OSM    H4G15625   5.724   3.196   6.644  1.1339  0.9519  1.2877
  142OSM    C5F15626   5.788   3.013   6.556  0.4487 -0.4445  0.1982
  142OSM    H5F15627   5.704   2.942   6.572  0.8106 -0.5952  1.6195
  142OSM    H5G15628   5.884   2.958   6.554  0.4893 -0.4826  1.6968
  142OSM    C6F15629   5.769   3.089   6.419  0.3305 -0.0018 -1.5667
  142OSM    H6F15630   5.849   3.163   6.397  1.6948 -0.9599 -0.0446
  142OSM    H6G15631   5.677   3.151   6.429  1.1121  1.1593 -1.3035
  142OSM    C7F15632   5.766   2.996   6.300 -0.0498  0.1386 -0.1103
  142OSM    H7F15633   5.670   2.942   6.314  0.1141 -0.5742 -1.6110
  142OSM    H7G15634   5.859   2.935   6.306  0.1611  0.3128 -1.3150
  142OSM    C8F15635   5.765   3.066   6.168 -0.2360  0.1080  0.2776
  142OSM    H8F15636   5.855   3.128   6.151  1.0547 -1.8242 -0.1649
  142OSM    H8G15637   5.679   3.137   6.170 -0.1682  0.1832  0.8604
  142OSM    C9F15638   5.744   2.965   6.057 -0.0572 -0.4023 -0.1179
  142OSM    H9F15639   5.689   2.877   6.093  1.4332 -0.8038  1.2984
  142OSM   C10F15640   5.806   2.963   5.939  0.1623  0.2815 -0.3255
  142OSM   H10F15641   5.774   2.874   5.882 -0.5263  0.3966 -0.1280
  142OSM   C11F15642   5.893   3.065   5.873  0.0788 -0.6320 -0.5756
  142OSM   H11F15643   5.998   3.032   5.854  0.2965  0.2676 -1.0132
  142OSM   H11G15644   5.898   3.156   5.937 -0.6768 -0.0096 -1.3859
  142OSM   C12F15645   5.837   3.114   5.739 -0.2251  0.5976  0.5066
  142OSM   H12F15646   5.900   3.198   5.703 -1.0564  0.7263 -0.7116
  142OSM   H12G15647   5.730   3.146   5.744 -1.6830 -3.2471 -1.9026
  142OSM   C13F15648   5.841   3.015   5.621  0.0892 -0.1234  0.6308
  142OSM   H13F15649   5.797   2.914   5.639 -1.2912  0.1787 -0.7761
  142OSM   H13G15650   5.941   3.005   5.574 -1.0327 -0.2533 -1.9482
  142OSM   C14F15651   5.747   3.064   5.501 -0.0401 -0.4446 -0.1671
  142OSM   H14F15652   5.771   3.172   5.489 -1.5766  0.1956  1.9568
  142OSM   H14G15653   5.641   3.054   5.531 -0.1107  2.5386  0.9282
  142OSM   C15F15654   5.758   2.975   5.383  0.6189  0.0094 -0.3494
  142OSM   H15F15655   5.727   2.873   5.416  1.7668 -0.0328  0.6906
  142OSM   H15G15656   5.864   2.956   5.353  1.3007  1.0115  1.2883
  142OSM   C16F15657   5.654   3.006   5.268  0.3759 -0.0604  0.7496
  142OSM   H16F15658   5.553   2.995   5.313  1.0872  0.8097  2.6612
  142OSM   H16G15659   5.671   2.934   5.185  0.7270 -0.3160  1.0455
  142OSM   C17F15660   5.653   3.152   5.206 -0.4058  0.6114  0.0236
  142OSM   H17F15661   5.753   3.175   5.164 -0.5514  0.0579 -0.6459
  142OSM   H17G15662   5.637   3.226   5.287  1.8905  1.5259 -0.2805
  142OSM   C18F15663   5.541   3.160   5.099 -0.2269 -0.0392 -0.3699
  142OSM   H18F15664   5.528   3.261   5.055 -0.6656 -0.0172 -0.1964
  142OSM   H18G15665   5.446   3.128   5.147 -0.0131  1.2055  0.9492
  142OSM   H18H15666   5.570   3.096   5.013  1.5526  1.5612 -1.0317
  143OSM      N15667   6.407   5.322   6.925  0.2425 -0.6558 -0.3112
  143OSM    C1515668   6.330   5.335   6.798  0.3113 -0.2786 -0.0456
  143OSM   H15A15669   6.229   5.371   6.811  0.3519 -0.1054 -0.1984
  143OSM   H15B15670   6.322   5.246   6.738 -0.2716  0.5873 -1.3006
  143OSM   H15C15671   6.372   5.409   6.731  0.2812 -0.3516 -0.1449
  143OSM    C1415672   6.544   5.293   6.896  1.0579  0.1926 -0.1364
  143OSM   H14A15673   6.552   5.201   6.841  0.2945  0.3490 -0.5280
  143OSM   H14B15674   6.599   5.261   6.983  2.0067  0.7123 -0.5358
  143OSM   H14C15675   6.598   5.369   6.842  0.3872  0.4084 -0.5263
  143OSM    C1315676   6.405   5.448   7.003 -0.1867  0.3198 -0.4906
  143OSM   H13A15677   6.420   5.534   6.939 -4.2661  0.8536 -0.9712
  143OSM   H13B15678   6.479   5.435   7.081 -1.4638 -2.1817  0.3811
  143OSM   H13C15679   6.311   5.466   7.053 -0.4685  1.5628 -1.3928
  143OSM    C1215680   6.351   5.210   7.012 -0.6552 -0.3654 -0.1160
  143OSM   H12A15681   6.257   5.246   7.052 -1.9415 -2.5371 -0.9799
  143OSM   H12B15682   6.415   5.200   7.099  1.5373 -0.0347 -1.6259
  143OSM    C1115683   6.319   5.064   6.963  0.1229  0.4880  0.0073
  143OSM   H11A15684   6.280   5.080   6.861 -2.5282  0.8273  0.9816
  143OSM   H11B15685   6.229   5.022   7.013 -0.1635  0.9699 -0.0952
  143OSM      P15686   6.478   4.888   6.854  0.3381  0.3569 -0.2222
  143OSM    O1315687   6.623   4.905   6.852 -0.3104 -0.5903 -0.4737
  143OSM    O1415688   6.432   4.751   6.884 -0.3879  0.2309 -0.0986
  143OSM    O1115689   6.406   4.948   6.731 -0.3657 -0.0594  0.2769
  143OSM    O1215690   6.436   4.988   6.967 -0.2437  0.2969  0.1851
  143OSM    C1S15691   6.485   4.994   6.620 -0.1402  0.9508  0.0464
  143OSM    H1S15692   6.566   4.922   6.599  0.3959  1.5492  0.0084
  143OSM    H1T15693   6.523   5.098   6.636  0.4532  0.9370 -1.1780
  143OSM     NF15694   6.485   5.021   6.360 -0.1831 -0.2130  0.4230
  143OSM    HNF15695   6.481   5.104   6.305  1.7026 -1.3138 -1.5052
  143OSM    C2S15696   6.406   5.005   6.485  0.3080  0.4763 -0.1514
  143OSM    H2S15697   6.356   4.908   6.468 -1.2401  1.5526 -2.2693
  143OSM    C3S15698   6.287   5.109   6.511 -0.0666  0.4899  0.2105
  143OSM    H3S15699   6.337   5.208   6.518  0.3478  0.4668 -1.6932
  143OSM     O315700   6.206   5.085   6.629  0.1296 -0.2670  0.3626
  143OSM    HO315701   6.266   5.032   6.682 -1.7537  0.1700  3.1542
  143OSM    C4S15702   6.192   5.120   6.388 -0.5724  0.1133  0.2823
  143OSM    H4S15703   6.129   5.036   6.356 -1.3586  0.7228  0.2235
  143OSM    C5S15704   6.184   5.232   6.311 -0.2338  0.2275  0.0039
  143OSM    H5S15705   6.238   5.326   6.333  0.1882  0.6117 -2.4378
  143OSM    C6S15706   6.072   5.256   6.211 -0.2691  0.7123 -0.2134
  143OSM    H6S15707   6.137   5.272   6.122  0.1166  1.5380  0.2045
  143OSM    H6T15708   6.020   5.351   6.232 -0.9751  0.2963 -0.0381
  143OSM    C7S15709   5.972   5.137   6.183  0.0468  0.3390 -0.5152
  143OSM    H7S15710   6.032   5.043   6.179  0.3110  0.5580 -2.0396
  143OSM    H7T15711   5.926   5.167   6.086 -1.5020  1.2107  0.4436
  143OSM    C8S15712   5.865   5.114   6.282  0.6725  0.0688 -0.2423
  143OSM    H8S15713   5.807   5.207   6.302  0.7388 -0.3345  2.2520
  143OSM    H8T15714   5.910   5.084   6.380  1.7997 -0.9069 -1.0365
  143OSM    C9S15715   5.764   5.005   6.240 -0.5875 -0.4068 -0.9507
  143OSM    H9S15716   5.809   4.904   6.230 -0.8042 -0.5584 -0.4698
  143OSM    H9T15717   5.710   5.040   6.150 -1.0198  1.2904 -0.0800
  143OSM   C10S15718   5.665   4.995   6.363  0.5446 -0.0474  0.2215
  143OSM   H10S15719   5.612   5.091   6.380 -1.3182 -0.9759 -0.0159
  143OSM   H10T15720   5.723   4.981   6.457  0.8201 -1.4700 -0.1306
  143OSM   C11S15721   5.567   4.869   6.343 -0.4474  0.1572  0.9348
  143OSM   H11S15722   5.502   4.853   6.432 -0.9026 -1.4989  0.3571
  143OSM   H11T15723   5.633   4.780   6.336 -1.5548 -0.6340 -0.0568
  143OSM   C12S15724   5.483   4.884   6.216  0.2047 -1.3744  0.6957
  143OSM   H12S15725   5.549   4.907   6.130  0.2883  0.6215  1.2409
  143OSM   H12T15726   5.410   4.966   6.229 -2.3710 -3.6183  1.3078
  143OSM   C13S15727   5.397   4.762   6.172  0.0995 -0.2398  0.7424
  143OSM   H13S15728   5.334   4.731   6.258  0.3943  0.3131  1.1666
  143OSM   H13T15729   5.465   4.678   6.145  0.3702  0.2205 -0.0343
  143OSM   C14S15730   5.301   4.781   6.045 -0.1198  0.1163 -0.2853
  143OSM   H14S15731   5.232   4.865   6.068 -0.0628  0.1326 -0.1708
  143OSM   H14T15732   5.246   4.691   6.009  1.9897 -0.1767 -3.0715
  143OSM   C15S15733   5.378   4.819   5.918 -0.9170 -0.2412  0.2060
  143OSM   H15S15734   5.461   4.744   5.917 -1.9072 -1.3972  1.1389
  143OSM   H15T15735   5.421   4.919   5.938 -1.2400 -0.4086  1.8593
  143OSM   C16S15736   5.302   4.816   5.785 -0.5574  0.0157  0.5219
  143OSM   H16S15737   5.233   4.902   5.789  0.9779  1.5459 -2.4020
  143OSM   H16T15738   5.251   4.722   5.754 -0.5251  0.1708 -0.0071
  143OSM   C17S15739   5.384   4.863   5.662 -0.3367  0.5478  0.2579
  143OSM   H17S15740   5.466   4.791   5.641 -2.2880 -1.3951 -1.2290
  143OSM   H17T15741   5.418   4.967   5.676 -2.6290  1.5378 -0.8764
  143OSM   C18S15742   5.304   4.876   5.530  0.4744 -0.3279  0.1011
  143OSM   H18S15743   5.268   4.777   5.495 -1.1047 -0.4851  1.9831
  143OSM   H18T15744   5.365   4.916   5.446  1.2402 -1.1063  0.2808
  143OSM   H18U15745   5.214   4.938   5.551 -1.0068 -2.3600 -0.0271
  143OSM    C1F15746   6.578   4.932   6.316  0.3575  0.6531 -0.9878
  143OSM     OF15747   6.635   4.853   6.388  0.8072  1.2034  0.1498
  143OSM    C2F15748   6.624   4.936   6.174 -0.2048 -0.5781  0.1598
  143OSM    H2F15749   6.633   4.830   6.144 -0.6239 -0.7177  0.5172
  143OSM    H2G15750   6.723   4.985   6.182 -0.6535  0.3371  0.3225
  143OSM    C3F15751   6.524   5.013   6.086 -0.6334  0.7925  0.0585
  143OSM    H3F15752   6.515   5.120   6.115 -1.1929  0.4605  1.1431
  143OSM    H3G15753   6.426   4.964   6.104 -0.3619  0.7969  1.7236
  143OSM    C4F15754   6.551   4.991   5.934 -0.5456  0.4569  0.6624
  143OSM    H4F15755   6.526   4.886   5.910 -0.1296  0.3933  0.5016
  143OSM    H4G15756   6.657   5.019   5.913 -0.3029 -1.0096 -0.2255
  143OSM    C5F15757   6.460   5.072   5.841 -0.2692 -0.5347  0.3103
  143OSM    H5F15758   6.499   5.176   5.838 -1.3410 -0.1222 -3.2716
  143OSM    H5G15759   6.352   5.073   5.866  0.2831 -0.3187  3.0629
  143OSM    C6F15760   6.461   5.025   5.697  0.5149  0.2081 -0.3073
  143OSM    H6F15761   6.448   4.916   5.683  1.3567 -0.1019  1.1859
  143OSM    H6G15762   6.551   5.070   5.650  1.5650 -2.5999 -1.1569
  143OSM    C7F15763   6.350   5.103   5.618 -0.5785 -0.7287 -0.5656
  143OSM    H7F15764   6.367   5.211   5.639  0.6537 -1.0484  0.1950
  143OSM    H7G15765   6.248   5.078   5.656 -0.4147 -0.9958 -0.2911
  143OSM    C8F15766   6.365   5.084   5.469  0.1283  0.8377  0.9779
  143OSM    H8F15767   6.473   5.088   5.445 -0.1547  2.7594 -0.1535
  143OSM    H8G15768   6.315   5.172   5.425  0.3594 -0.1396 -1.4352
  143OSM    C9F15769   6.291   4.958   5.425 -0.5133 -0.2320 -0.0417
  143OSM    H9F15770   6.198   4.944   5.482 -2.0619 -0.4620 -2.4643
  143OSM   C10F15771   6.328   4.858   5.347 -0.0061  0.1750 -0.9787
  143OSM   H10F15772   6.261   4.771   5.345  0.3954 -0.1348 -1.0371
  143OSM   C11F15773   6.453   4.853   5.264 -0.8498 -0.2199  0.0871
  143OSM   H11F15774   6.537   4.822   5.330  1.1510  1.4554 -1.5495
  143OSM   H11G15775   6.483   4.956   5.235  1.5366 -0.6653  0.7727
  143OSM   C12F15776   6.458   4.763   5.140  0.0392  0.5459 -0.5727
  143OSM   H12F15777   6.408   4.671   5.176  0.1793  1.3114  1.7576
  143OSM   H12G15778   6.565   4.738   5.126  0.0976  1.3449 -1.6810
  143OSM   C13F15779   6.389   4.827   5.010 -0.0971  0.1175 -0.1326
  143OSM   H13F15780   6.422   4.772   4.920  2.0798 -0.2093  0.8005
  143OSM   H13G15781   6.427   4.930   4.993 -2.1209  0.6190 -1.9931
  143OSM   C14F15782   6.238   4.837   5.030 -0.4399 -0.5639 -0.3645
  143OSM   H14F15783   6.214   4.926   5.093  1.3822 -1.1152  1.2073
  143OSM   H14G15784   6.204   4.748   5.087 -1.9009  0.7542  0.9210
  143OSM   C15F15785   6.160   4.847   4.906 -0.3350 -0.9517 -0.6799
  143OSM   H15F15786   6.192   4.755   4.854 -1.1650 -2.5424  1.4916
  143OSM   H15G15787   6.187   4.931   4.838 -1.9052  0.9127  0.8904
  143OSM   C16F15788   6.012   4.861   4.918  0.4720 -0.3729 -0.0496
  143OSM   H16F15789   5.979   4.775   4.980 -0.8107  0.6177  0.6698
  143OSM   H16G15790   5.963   4.859   4.818 -1.2912  1.1985  0.7313
  143OSM   C17F15791   5.958   4.990   4.976  0.2956  0.3053 -0.3478
  143OSM   H17F15792   5.975   5.077   4.909  0.6528  1.6938  1.4916
  143OSM   H17G15793   6.013   5.024   5.066  0.2282  1.6748 -0.8067
  143OSM   C18F15794   5.805   4.980   5.001  0.5530  0.4008 -0.3967
  143OSM   H18F15795   5.762   5.069   5.052  1.5781  0.7529 -0.1217
  143OSM   H18G15796   5.788   4.892   5.066  0.8752  1.7008  1.5290
  143OSM   H18H15797   5.747   4.959   4.908  0.6562  0.8055 -0.5555
  144OSM      N15798   5.947   5.700   7.349  0.7103  0.3574  0.2170
  144OSM    C1515799   5.850   5.616   7.413 -0.4438  0.5565  0.2085
  144OSM   H15A15800   5.870   5.511   7.396  0.4740  0.7067  0.3131
  144OSM   H15B15801   5.747   5.640   7.391 -0.9171 -1.5117 -0.0177
  144OSM   H15C15802   5.867   5.635   7.518 -4.3696  2.8391  0.6487
  144OSM    C1415803   5.947   5.840   7.417 -0.2308 -0.2604  0.2839
  144OSM   H14A15804   5.952   5.834   7.525  2.2060  3.2157  0.5273
  144OSM   H14B15805   5.852   5.888   7.398 -0.4875 -0.8997 -0.0559
  144OSM   H14C15806   6.026   5.896   7.370 -0.9231 -0.8031 -1.5921
  144OSM    C1315807   6.089   5.666   7.393 -0.6935 -0.0911 -0.2027
  144OSM   H13A15808   6.155   5.742   7.353 -3.7672  2.9476  0.0503
  144OSM   H13B15809   6.127   5.578   7.342  1.3164  0.9216 -0.5681
  144OSM   H13C15810   6.107   5.661   7.499  0.3653  0.8329 -0.3185
  144OSM    C1215811   5.930   5.725   7.200  0.1237  0.0655  0.1985
  144OSM   H12A15812   5.981   5.816   7.171  0.9826 -0.8820 -1.4432
  144OSM   H12B15813   5.828   5.733   7.167  0.5266  0.1042 -1.1256
  144OSM    C1115814   5.991   5.623   7.095 -0.1295  0.2303 -0.2755
  144OSM   H11A15815   6.102   5.625   7.100 -0.1890  1.2558  1.7818
  144OSM   H11B15816   5.956   5.662   6.997 -0.0014  1.4898  0.1610
  144OSM      P15817   6.006   5.372   7.160 -0.0660  0.3671  0.1428
  144OSM    O1315818   6.141   5.394   7.205 -0.5299  0.1170  0.3986
  144OSM    O1415819   5.928   5.285   7.252 -0.3974 -0.0653 -0.1992
  144OSM    O1115820   6.008   5.304   7.017 -1.1900 -0.0129 -0.0548
  144OSM    O1215821   5.928   5.492   7.122  0.0275 -0.1796 -0.7160
  144OSM    C1S15822   5.897   5.305   6.927 -0.1517 -0.0638  0.1140
  144OSM    H1S15823   5.891   5.404   6.878  0.0869 -0.1101 -0.0112
  144OSM    H1T15824   5.798   5.285   6.973  0.2680 -0.4053  0.8931
  144OSM     NF15825   5.821   5.243   6.691 -0.0802  0.4278 -0.0361
  144OSM    HNF15826   5.739   5.186   6.696  1.2102 -1.5332 -0.1194
  144OSM    C2S15827   5.914   5.206   6.801  0.3534  0.3270  0.2129
  144OSM    H2S15828   6.015   5.219   6.758 -0.2927 -0.3245 -1.5997
  144OSM    C3S15829   5.895   5.059   6.860 -0.3990  0.2223  0.4514
  144OSM    H3S15830   5.790   5.065   6.898 -1.2245  0.8001 -1.7690
  144OSM     O315831   5.980   5.020   6.966  0.0957 -0.1594  0.1062
  144OSM    HO315832   6.021   5.102   6.992 -1.0199  1.5404 -3.0137
  144OSM    C4S15833   5.908   4.954   6.752 -0.0099 -0.2761  0.2167
  144OSM    H4S15834   5.994   4.963   6.685  2.0686  0.7438  2.8415
  144OSM    C5S15835   5.816   4.857   6.724  0.0182  0.4299  0.3087
  144OSM    H5S15836   5.720   4.847   6.777 -1.2539  1.0161 -1.7628
  144OSM    C6S15837   5.830   4.761   6.610  0.0712 -0.2761 -0.3522
  144OSM    H6S15838   5.732   4.758   6.557 -0.1472  0.5394 -0.0000
  144OSM    H6T15839   5.830   4.660   6.656  1.1661  0.8052  2.2185
  144OSM    C7S15840   5.939   4.768   6.505 -0.3506  0.4721  0.7115
  144OSM    H7S15841   6.035   4.775   6.562  0.2727 -0.0598 -0.2452
  144OSM    H7T15842   5.930   4.859   6.443  1.9068  0.4101  0.1864
  144OSM    C8S15843   5.942   4.653   6.396 -0.2363  0.2461  0.1335
  144OSM    H8S15844   5.855   4.656   6.327  0.0515  0.5801 -0.2196
  144OSM    H8T15845   5.922   4.562   6.456  0.9511 -0.3876 -0.3954
  144OSM    C9S15846   6.079   4.621   6.328  0.1879 -0.3958 -0.5083
  144OSM    H9S15847   6.083   4.528   6.267  0.3438 -0.3259 -0.6046
  144OSM    H9T15848   6.147   4.603   6.414  1.9420 -0.5729 -1.8812
  144OSM   C10S15849   6.127   4.741   6.237  0.0368 -0.5553 -0.4981
  144OSM   H10S15850   6.237   4.750   6.249 -0.0291  0.0034 -0.3215
  144OSM   H10T15851   6.087   4.832   6.287  0.7208 -0.2900 -0.4334
  144OSM   C11S15852   6.080   4.732   6.094 -0.3446 -0.5046 -1.0264
  144OSM   H11S15853   5.977   4.776   6.091 -0.7067 -1.3515 -1.2830
  144OSM   H11T15854   6.069   4.623   6.078  0.5450 -1.0104  1.4015
  144OSM   C12S15855   6.163   4.810   5.995  0.0481  0.4166  0.2543
  144OSM   H12S15856   6.253   4.746   5.984 -0.4872 -0.6463  1.6669
  144OSM   H12T15857   6.190   4.904   6.046  3.0035  0.6773 -1.5440
  144OSM   C13S15858   6.077   4.830   5.867 -0.2241 -0.5845 -0.0773
  144OSM   H13S15859   6.006   4.745   5.859 -0.6353 -0.2450 -0.0619
  144OSM   H13T15860   6.150   4.842   5.784 -0.4929  0.5734 -0.1552
  144OSM   C14S15861   5.986   4.959   5.864 -1.2355  0.6191  0.6953
  144OSM   H14S15862   6.053   5.047   5.858 -2.1711  1.3668  1.0943
  144OSM   H14T15863   5.933   4.964   5.961 -0.4684 -3.3169  1.4831
  144OSM   C15S15864   5.896   4.958   5.742  1.0324 -0.3525  0.3166
  144OSM   H15S15865   5.844   4.860   5.743 -0.2113  0.2691  1.9545
  144OSM   H15T15866   5.957   4.957   5.649  0.7141  1.3287  0.0563
  144OSM   C16S15867   5.819   5.088   5.725  0.8114 -0.5319 -0.1367
  144OSM   H16S15868   5.887   5.166   5.684  1.1624 -1.5375 -1.5385
  144OSM   H16T15869   5.776   5.122   5.821 -0.8033 -0.9928 -0.6663
  144OSM   C17S15870   5.704   5.084   5.623 -0.3430  1.1315 -0.1609
  144OSM   H17S15871   5.653   5.180   5.645 -0.7093  0.6541  1.2060
  144OSM   H17T15872   5.632   5.006   5.658 -1.7542  2.5543  0.2208
  144OSM   C18S15873   5.733   5.068   5.473  0.1221 -0.1481  0.4338
  144OSM   H18S15874   5.639   5.085   5.415 -0.3269 -1.1136  0.8473
  144OSM   H18T15875   5.762   4.963   5.451 -3.2340 -1.4008  1.2898
  144OSM   H18U15876   5.817   5.127   5.431 -0.6569 -0.5843 -1.8839
  144OSM    C1F15877   5.829   5.356   6.623  0.0496 -0.0847 -0.2209
  144OSM     OF15878   5.914   5.436   6.637 -0.7059 -0.4298  0.0193
  144OSM    C2F15879   5.728   5.382   6.516  0.4917 -0.3825 -0.3108
  144OSM    H2F15880   5.634   5.426   6.556  1.0329  0.1539  0.4168
  144OSM    H2G15881   5.700   5.286   6.468 -0.5627  0.7611 -2.0822
  144OSM    C3F15882   5.791   5.472   6.414 -0.1248 -0.4212  0.4177
  144OSM    H3F15883   5.898   5.451   6.390  0.3129 -0.2875  2.1458
  144OSM    H3G15884   5.795   5.574   6.458 -2.2011  0.8131 -1.9820
  144OSM    C4F15885   5.696   5.499   6.292  0.2252 -0.5409 -0.5804
  144OSM    H4F15886   5.631   5.580   6.332  2.0933 -0.2725  2.1359
  144OSM    H4G15887   5.631   5.410   6.277  1.3139 -1.8380  1.8275
  144OSM    C5F15888   5.769   5.532   6.160 -0.1729  0.9192 -0.1074
  144OSM    H5F15889   5.848   5.454   6.151 -1.0479 -0.0515  0.2866
  144OSM    H5G15890   5.835   5.621   6.162  1.2413 -0.0879 -0.2378
  144OSM    C6F15891   5.685   5.520   6.031 -0.0371  0.0369 -0.3895
  144OSM    H6F15892   5.640   5.621   6.021 -1.1042 -0.4667 -0.8388
  144OSM    H6G15893   5.610   5.439   6.051  0.4657  0.0571  1.7946
  144OSM    C7F15894   5.761   5.465   5.912 -1.0615  0.1298  0.0975
  144OSM    H7F15895   5.818   5.377   5.949 -0.8070  0.4900  0.5755
  144OSM    H7G15896   5.844   5.536   5.896 -2.4026  2.0944  1.3851
  144OSM    C8F15897   5.677   5.434   5.786 -0.7234  0.1291  0.9498
  144OSM    H8F15898   5.584   5.375   5.801  0.6204 -2.2344  0.4991
  144OSM    H8G15899   5.753   5.376   5.729 -0.1273  1.4542  0.3627
  144OSM    C9F15900   5.640   5.567   5.723  0.2411  0.3907  0.6415
  144OSM    H9F15901   5.597   5.636   5.797 -2.0295 -2.4381  2.1750
  144OSM   C10F15902   5.655   5.609   5.591 -0.4626  0.3356 -1.0495
  144OSM   H10F15903   5.624   5.713   5.571 -0.3347  1.1887  2.4357
  144OSM   C11F15904   5.707   5.527   5.477  0.2623 -0.2530 -0.2153
  144OSM   H11F15905   5.770   5.444   5.514 -0.4692  0.5943  3.3101
  144OSM   H11G15906   5.780   5.588   5.419 -0.8303  2.3772  1.0135
  144OSM   C12F15907   5.601   5.464   5.381 -0.3887 -0.6491 -0.0171
  144OSM   H12F15908   5.525   5.543   5.361 -1.0627 -1.5977 -1.3692
  144OSM   H12G15909   5.554   5.385   5.443 -0.3487 -1.7680 -1.3699
  144OSM   C13F15910   5.651   5.402   5.254 -0.3698 -0.1208  0.4093
  144OSM   H13F15911   5.731   5.331   5.284  0.4824  0.6053 -0.1042
  144OSM   H13G15912   5.708   5.477   5.195  1.8644 -0.9991  1.3677
  144OSM   C14F15913   5.555   5.326   5.166 -0.2450 -0.2137 -0.9886
  144OSM   H14F15914   5.608   5.304   5.071  0.8864  1.2501 -0.7417
  144OSM   H14G15915   5.476   5.404   5.153  1.4915  2.0652  1.0578
  144OSM   C15F15916   5.492   5.192   5.214 -0.4107 -0.8867  0.1831
  144OSM   H15F15917   5.447   5.205   5.315  0.3537  3.5363  0.1674
  144OSM   H15G15918   5.570   5.113   5.223 -0.1144 -0.5516  0.5893
  144OSM   C16F15919   5.385   5.135   5.119 -0.3077  0.1789  0.3094
  144OSM   H16F15920   5.434   5.127   5.020  0.0526  1.5307  0.3570
  144OSM   H16G15921   5.302   5.207   5.107  1.7491  2.3506 -1.9911
  144OSM   C17F15922   5.339   4.992   5.154 -0.4663  0.2937 -0.2833
  144OSM   H17F15923   5.275   4.991   5.245  0.8936  0.2873  0.7210
  144OSM   H17G15924   5.433   4.933   5.165 -0.4992  0.1758 -0.6398
  144OSM   C18F15925   5.260   4.933   5.039 -0.0861  0.2921  0.2589
  144OSM   H18F15926   5.183   5.009   5.011 -0.9045 -0.4533  0.4285
  144OSM   H18G15927   5.227   4.829   5.057  1.7423 -0.4901 -0.6220
  144OSM   H18H15928   5.331   4.926   4.953  2.0924  1.1356  1.8981
  145OSM      N15929   0.372   1.316   7.092  0.1219 -0.1542  0.8227
  145OSM    C1515930   0.281   1.207   7.140  0.0346  0.2314  0.7715
  145OSM   H15A15931   0.179   1.234   7.116  0.8304  0.6844 -2.4869
  145OSM   H15B15932   0.289   1.187   7.246 -1.1834 -2.2250  0.4685
  145OSM   H15C15933   0.299   1.108   7.102 -2.8936 -0.2355  0.3839
  145OSM    C1415934   0.378   1.436   7.189  0.2095  0.2821 -0.2246
  145OSM   H14A15935   0.429   1.408   7.279 -2.4638 -1.8463  0.7668
  145OSM   H14B15936   0.279   1.469   7.217  0.5111  0.1595  1.0277
  145OSM   H14C15937   0.433   1.512   7.136 -1.3164  1.3447 -0.3289
  145OSM    C1315938   0.505   1.258   7.101 -0.0721  1.1003 -0.0695
  145OSM   H13A15939   0.590   1.304   7.052  1.6477 -1.4182  0.3455
  145OSM   H13B15940   0.504   1.156   7.068 -0.4092  0.7354  1.0326
  145OSM   H13C15941   0.530   1.261   7.206 -0.6244  0.9543  0.0693
  145OSM    C1215942   0.329   1.344   6.947  0.4026 -0.3542  0.0758
  145OSM   H12A15943   0.223   1.359   6.929  0.7109  0.7693 -0.9863
  145OSM   H12B15944   0.348   1.248   6.902 -1.4728 -1.1264  0.8088
  145OSM    C1115945   0.398   1.456   6.864 -0.5402 -0.3948  0.2837
  145OSM   H11A15946   0.371   1.442   6.757  1.9353  2.9723 -0.9750
  145OSM   H11B15947   0.506   1.459   6.888 -0.0319  0.9708 -1.8544
  145OSM      P15948   0.408   1.719   6.890 -0.4771  0.4114 -0.4440
  145OSM    O1315949   0.311   1.827   6.919 -0.6463  0.2892  0.1126
  145OSM    O1415950   0.532   1.724   6.970 -0.7295 -0.3492 -0.5251
  145OSM    O1115951   0.438   1.730   6.740 -0.3227 -0.6783  0.4113
  145OSM    O1215952   0.337   1.570   6.905  0.2466 -0.1152 -0.4062
  145OSM    C1S15953   0.331   1.769   6.648 -0.0262  1.0147  0.3397
  145OSM    H1S15954   0.302   1.875   6.664 -0.9210  1.1082 -1.6041
  145OSM    H1T15955   0.242   1.703   6.654  1.4124 -1.3424 -2.0020
  145OSM     NF15956   0.276   1.796   6.404 -0.3894 -0.2663 -0.1334
  145OSM    HNF15957   0.220   1.726   6.359 -1.8292  1.2613 -0.8560
  145OSM    C2S15958   0.378   1.751   6.500  0.2915 -0.3010 -0.9955
  145OSM    H2S15959   0.462   1.823   6.490 -0.0302  0.2786  0.2382
  145OSM    C3S15960   0.447   1.617   6.472  0.3005  0.3291 -0.4117
  145OSM    H3S15961   0.386   1.525   6.488 -0.2004  0.7936  0.4500
  145OSM     O315962   0.562   1.587   6.554 -0.0359  0.3586  0.2689
  145OSM    HO315963   0.535   1.626   6.637 -2.3220 -1.0937  0.3029
  145OSM    C4S15964   0.499   1.624   6.338 -0.5903 -0.1000  0.5511
  145OSM    H4S15965   0.545   1.721   6.314  0.9808 -0.2233  2.7525
  145OSM    C5S15966   0.460   1.540   6.242 -0.2882  1.1354 -0.0308
  145OSM    H5S15967   0.389   1.466   6.282  0.9055  0.1533  0.3151
  145OSM    C6S15968   0.495   1.539   6.096  0.0553  0.3756 -0.1797
  145OSM    H6S15969   0.410   1.579   6.037 -0.1588 -0.3780 -0.3927
  145OSM    H6T15970   0.502   1.433   6.064  0.1739 -0.1092  1.3524
  145OSM    C7S15971   0.620   1.610   6.047  0.2526 -0.0906  0.6501
  145OSM    H7S15972   0.710   1.549   6.074 -0.5694 -1.3713  0.6005
  145OSM    H7T15973   0.622   1.711   6.092  0.5726 -0.7288  2.1340
  145OSM    C8S15974   0.634   1.631   5.892  0.2708  0.3030  0.1580
  145OSM    H8S15975   0.544   1.672   5.841 -0.7442 -1.4707  0.4802
  145OSM    H8T15976   0.647   1.527   5.857 -0.4667  0.7318 -1.5155
  145OSM    C9S15977   0.761   1.708   5.854 -0.0699  0.3987  0.2334
  145OSM    H9S15978   0.845   1.674   5.919 -1.1951  0.8698  2.0087
  145OSM    H9T15979   0.749   1.813   5.887  0.8017  0.8588 -0.8353
  145OSM   C10S15980   0.779   1.710   5.703  1.1644 -0.0782 -0.2540
  145OSM   H10S15981   0.685   1.756   5.665 -0.0967 -1.7004  0.7489
  145OSM   H10T15982   0.790   1.605   5.669  1.6361  0.2384 -1.1019
  145OSM   C11S15983   0.893   1.800   5.647  0.1965  0.4603  0.2483
  145OSM   H11S15984   0.997   1.772   5.671  0.5208  1.1749 -0.2848
  145OSM   H11T15985   0.860   1.897   5.691 -2.9610  0.0207 -0.8793
  145OSM   C12S15986   0.890   1.812   5.499  0.6137  0.1146 -0.6166
  145OSM   H12S15987   0.796   1.864   5.471  2.2146  3.7473  0.1893
  145OSM   H12T15988   0.912   1.722   5.437  2.1954 -0.4272  0.6788
  145OSM   C13S15989   1.001   1.921   5.475  0.9259  0.0310  0.4972
  145OSM   H13S15990   1.098   1.868   5.485  1.0357  0.1695  0.1924
  145OSM   H13T15991   0.999   1.992   5.560 -2.7490 -2.2779  2.6321
  145OSM   C14S15992   0.987   1.986   5.337 -0.4801 -0.0071 -0.0773
  145OSM   H14S15993   0.909   2.063   5.354 -0.1041 -0.0109  1.8309
  145OSM   H14T15994   0.962   1.911   5.259 -2.8255  0.8536 -0.2166
  145OSM   C15S15995   1.111   2.070   5.292  0.3814  0.4865  0.0088
  145OSM   H15S15996   1.188   1.998   5.259 -0.7720 -0.9008  0.2391
  145OSM   H15T15997   1.151   2.128   5.378  0.6664  0.6404 -0.2266
  145OSM   C16S15998   1.083   2.175   5.183  0.7014  0.0205  0.0719
  145OSM   H16S15999   1.180   2.210   5.143  1.2425  1.3885  2.3605
  145OSM   H16T16000   1.049   2.267   5.235  2.5226  0.0574  1.3101
  145OSM   C17S16001   0.990   2.140   5.065 -0.5397  0.1446 -0.4022
  145OSM   H17S16002   0.908   2.074   5.100  0.7430 -1.2309  0.1442
  145OSM   H17T16003   1.056   2.073   5.004  0.9622 -1.3580  2.6633
  145OSM   C18S16004   0.937   2.259   4.993  0.3073 -0.2581 -0.3546
  145OSM   H18S16005   1.013   2.337   4.972 -1.6106  1.4779 -1.1576
  145OSM   H18T16006   0.862   2.301   5.063 -0.2895 -0.2820 -0.9662
  145OSM   H18U16007   0.890   2.237   4.894 -1.3470  1.1528  0.0683
  145OSM    C1F16008   0.243   1.924   6.389 -0.3855  0.1191 -0.3037
  145OSM     OF16009   0.285   2.009   6.471 -0.0607  0.1997 -0.3710
  145OSM    C2F16010   0.139   1.951   6.285  1.2760 -0.4240  0.2660
  145OSM    H2F16011   0.040   1.963   6.335  0.9993  0.9369 -0.5417
  145OSM    H2G16012   0.131   1.869   6.211 -0.6225 -0.8100  0.8545
  145OSM    C3F16013   0.149   2.083   6.209  0.2394  0.2284 -0.4064
  145OSM    H3F16014   0.249   2.089   6.163  0.8375 -1.7182  0.5030
  145OSM    H3G16015   0.131   2.162   6.285  0.5306 -0.6603  0.6233
  145OSM    C4F16016   0.045   2.089   6.097  0.0825 -0.0940  0.1721
  145OSM    H4F16017  -0.055   2.075   6.143  0.5608  0.4822  1.4281
  145OSM    H4G16018   0.054   2.003   6.027 -1.2765  0.3850 -0.6473
  145OSM    C5F16019   0.052   2.220   6.020  0.5280 -0.0272 -0.6809
  145OSM    H5F16020   0.157   2.244   5.992  0.2626  1.3550 -0.5634
  145OSM    H5G16021   0.014   2.296   6.092 -1.2122 -3.0277  1.8587
  145OSM    C6F16022  -0.040   2.200   5.896 -0.0537 -0.0438 -0.3197
  145OSM    H6F16023  -0.127   2.268   5.910 -0.4245 -0.6835  0.6494
  145OSM    H6G16024  -0.078   2.096   5.910  0.6322 -0.3282 -0.5216
  145OSM    C7F16025   0.037   2.223   5.759  0.1277 -0.5480 -0.6615
  145OSM    H7F16026   0.105   2.137   5.744  1.4258  0.2103  0.6803
  145OSM    H7G16027   0.098   2.315   5.756 -1.1051  0.2841 -3.3810
  145OSM    C8F16028  -0.056   2.249   5.643  0.5961  0.2985  0.7934
  145OSM    H8F16029  -0.005   2.300   5.558  1.7858  0.7699  1.7715
  145OSM    H8G16030  -0.133   2.324   5.670  2.3792  3.1874 -1.5193
  145OSM    C9F16031  -0.119   2.117   5.608  0.8453 -0.2508  0.7270
  145OSM    H9F16032  -0.190   2.075   5.681  0.7727 -0.9925  0.2397
  145OSM   C10F16033  -0.100   2.043   5.494 -0.2124  0.4348 -0.3637
  145OSM   H10F16034  -0.139   1.940   5.491 -0.4610  0.4979  0.5094
  145OSM   C11F16035   0.007   2.074   5.390  0.1580 -0.6146 -0.2927
  145OSM   H11F16036   0.061   1.993   5.336 -0.5361 -0.1400 -1.7381
  145OSM   H11G16037   0.079   2.142   5.440 -2.0096  0.4991  1.4994
  145OSM   C12F16038  -0.053   2.156   5.280  0.7190  0.6815  0.7080
  145OSM   H12F16039   0.023   2.187   5.205  1.7752  1.8687  2.2067
  145OSM   H12G16040  -0.096   2.253   5.313  2.2018  1.7252 -0.3015
  145OSM   C13F16041  -0.159   2.080   5.199 -0.5863  0.6865 -0.6657
  145OSM   H13F16042  -0.237   2.042   5.269  0.2636  2.3509  1.2958
  145OSM   H13G16043  -0.107   1.991   5.158 -0.0133  0.6827  0.0554
  145OSM   C14F16044  -0.223   2.154   5.086  0.0077 -0.3503 -0.3243
  145OSM   H14F16045  -0.164   2.211   5.011  1.2526 -0.2793  0.6916
  145OSM   H14G16046  -0.285   2.236   5.128 -2.8851 -2.1266 -0.8320
  145OSM   C15F16047  -0.305   2.057   5.006 -0.1461 -0.0609  0.2026
  145OSM   H15F16048  -0.372   1.999   5.073 -0.1081 -3.3666 -2.3787
  145OSM   H15G16049  -0.238   1.985   4.956  1.1632  0.7089  0.7927
  145OSM   C16F16050  -0.398   2.124   4.901 -0.2002  0.3660  0.5459
  145OSM   H16F16051  -0.337   2.200   4.846  0.5310  0.8998  2.0397
  145OSM   H16G16052  -0.473   2.186   4.954 -2.1809 -0.4934 -1.1418
  145OSM   C17F16053  -0.464   2.030   4.806 -0.1471 -0.6307 -0.3707
  145OSM   H17F16054  -0.545   2.089   4.757 -1.4042  2.3931  4.5690
  145OSM   H17G16055  -0.511   1.948   4.864 -0.3568 -0.4579 -0.2910
  145OSM   C18F16056  -0.365   1.987   4.699  0.3602 -0.2966 -0.3692
  145OSM   H18F16057  -0.421   1.913   4.637 -0.0689 -0.3127  0.0331
  145OSM   H18G16058  -0.275   1.932   4.731  0.4195  0.2642  0.4645
  145OSM   H18H16059  -0.339   2.078   4.641 -2.9804  0.5225 -0.8274
  146OSM      N16060   6.304   1.850   6.933  0.1397 -0.5582 -0.6343
  146OSM    C1516061   6.167   1.856   6.971  1.2507  0.2591  0.5481
  146OSM   H15A16062   6.123   1.761   6.942 -0.0810  1.1544 -0.5093
  146OSM   H15B16063   6.109   1.924   6.911 -0.2398 -0.5491  1.0000
  146OSM   H15C16064   6.143   1.885   7.072  0.2667 -1.0968  0.7404
  146OSM    C1416065   6.360   1.979   6.990 -0.4725 -0.2356  0.1010
  146OSM   H14A16066   6.343   1.973   7.097  2.3970  0.0932  0.6449
  146OSM   H14B16067   6.302   2.064   6.956  0.9092  0.1740 -1.3572
  146OSM   H14C16068   6.466   1.997   6.983 -0.6592  1.4245  0.9432
  146OSM    C1316069   6.361   1.729   7.001 -0.6152  0.8050 -0.1477
  146OSM   H13A16070   6.317   1.643   6.953  1.7890  0.6444 -2.2576
  146OSM   H13B16071   6.336   1.731   7.106  0.0992 -2.8641  0.2114
  146OSM   H13C16072   6.466   1.720   6.982 -0.2268  3.6394  0.1543
  146OSM    C1216073   6.336   1.844   6.782  0.2639  0.3722 -0.5710
  146OSM   H12A16074   6.285   1.758   6.741  2.3195 -2.1320  1.7369
  146OSM   H12B16075   6.442   1.824   6.775  0.3159  0.7509 -0.8493
  146OSM    C1116076   6.299   1.963   6.698  0.3874  0.3365 -0.4342
  146OSM   H11A16077   6.314   1.944   6.589  0.7672  0.8120 -0.4679
  146OSM   H11B16078   6.366   2.046   6.728 -0.3587  1.7373 -2.4431
  146OSM      P16079   6.088   2.122   6.736 -0.3640 -0.5574  0.0942
  146OSM    O1316080   5.953   2.082   6.787 -0.3319 -0.2035  0.9208
  146OSM    O1416081   6.180   2.205   6.819 -0.0016 -0.2196 -0.5961
  146OSM    O1116082   6.085   2.198   6.599 -0.0283 -0.4421 -0.2964
  146OSM    O1216083   6.157   1.977   6.702  0.2946  0.3986  0.2914
  146OSM    C1S16084   6.033   2.123   6.488  0.0764  0.1097  0.4589
  146OSM    H1S16085   5.927   2.155   6.496 -0.3601 -1.2386  0.4116
  146OSM    H1T16086   6.025   2.013   6.504  1.3523 -0.5064 -2.5045
  146OSM     NF16087   6.047   2.072   6.248 -0.0637  0.4418 -0.0805
  146OSM    HNF16088   6.102   1.990   6.234 -1.1238  0.0106 -2.0420
  146OSM    C2S16089   6.103   2.157   6.351 -0.2511  0.3197  0.2660
  146OSM    H2S16090   6.073   2.263   6.336 -0.1858  0.1724 -1.0542
  146OSM    C3S16091   6.259   2.159   6.350 -0.9653 -0.2870 -0.3367
  146OSM    H3S16092   6.287   2.055   6.376  0.1289 -0.5307 -2.3492
  146OSM     O316093   6.326   2.238   6.451 -0.1234  0.0642 -0.1473
  146OSM    HO316094   6.254   2.262   6.510  0.2260  0.8485 -0.0216
  146OSM    C4S16095   6.308   2.198   6.213  0.5990  0.3670  0.3931
  146OSM    H4S16096   6.325   2.114   6.143  0.2255 -0.5886  1.4192
  146OSM    C5S16097   6.332   2.324   6.176  0.6528  0.2770  0.8739
  146OSM    H5S16098   6.301   2.399   6.251  0.0662 -0.3994  1.3211
  146OSM    C6S16099   6.384   2.386   6.049 -0.2751 -0.1151  0.7418
  146OSM    H6S16100   6.493   2.405   6.063 -0.2714 -0.6884  1.5270
  146OSM    H6T16101   6.339   2.486   6.033 -0.7244  0.0335  2.6753
  146OSM    C7S16102   6.350   2.300   5.922 -0.2690 -0.2663  0.1470
  146OSM    H7S16103   6.243   2.325   5.907 -0.3974 -0.3047  0.9963
  146OSM    H7T16104   6.372   2.192   5.937 -1.5234 -0.8518 -1.7918
  146OSM    C8S16105   6.428   2.345   5.793  0.1280  0.1308  0.0966
  146OSM    H8S16106   6.536   2.349   5.819 -0.2849  1.7670  1.7263
  146OSM    H8T16107   6.405   2.451   5.772  1.3334  0.3439 -0.2241
  146OSM    C9S16108   6.400   2.250   5.675  0.6436  0.0065  0.6109
  146OSM    H9S16109   6.289   2.236   5.675  0.7359 -0.7516  0.7636
  146OSM    H9T16110   6.446   2.152   5.700  1.1949  0.2465  0.5488
  146OSM   C10S16111   6.447   2.305   5.535 -0.0981  0.2741  0.4517
  146OSM   H10S16112   6.557   2.314   5.526  0.0117 -0.0625  1.3521
  146OSM   H10T16113   6.411   2.408   5.516  1.5963  1.0242  1.1110
  146OSM   C11S16114   6.408   2.211   5.419 -0.3465 -0.1734 -0.7906
  146OSM   H11S16115   6.464   2.115   5.430  0.9210  0.7524  1.4796
  146OSM   H11T16116   6.454   2.261   5.330 -0.8466  1.7987  0.0068
  146OSM   C12S16117   6.255   2.190   5.393  0.4273 -0.5519 -0.0059
  146OSM   H12S16118   6.195   2.280   5.368 -3.0393 -2.6079  0.2828
  146OSM   H12T16119   6.215   2.163   5.493 -1.4686 -1.1110 -0.8667
  146OSM   C13S16120   6.217   2.082   5.296 -0.8048 -0.4792 -0.1153
  146OSM   H13S16121   6.118   2.035   5.315 -0.6615 -0.3501  1.0136
  146OSM   H13T16122   6.285   1.994   5.298 -0.2099 -0.0102  0.6898
  146OSM   C14S16123   6.205   2.139   5.154  0.1662 -0.0128 -0.6931
  146OSM   H14S16124   6.301   2.185   5.120 -0.0114  0.6054 -0.3573
  146OSM   H14T16125   6.148   2.234   5.157  1.9601  1.2408 -2.7026
  146OSM   C15S16126   6.133   2.044   5.054 -0.0545  0.5577  0.1892
  146OSM   H15S16127   6.033   2.026   5.100 -0.5322  2.6233  0.0649
  146OSM   H15T16128   6.189   1.948   5.048 -2.2048 -0.7401 -0.0546
  146OSM   C16S16129   6.104   2.100   4.908 -0.5394  0.4860 -0.2895
  146OSM   H16S16130   6.194   2.074   4.848  0.4472 -0.1722  1.4070
  146OSM   H16T16131   6.100   2.211   4.903 -0.4188  0.4680 -0.9762
  146OSM   C17S16132   5.972   2.049   4.854  0.3605  0.2896 -0.0060
  146OSM   H17S16133   5.884   2.084   4.913 -0.1393 -1.5192  0.3849
  146OSM   H17T16134   5.970   1.938   4.862  0.4290  0.1862 -1.3440
  146OSM   C18S16135   5.948   2.073   4.709  0.1317 -0.3401  0.6373
  146OSM   H18S16136   5.955   2.183   4.691 -0.0558 -0.4394 -0.0687
  146OSM   H18T16137   5.845   2.038   4.687  0.5727 -2.1303  1.2449
  146OSM   H18U16138   6.020   2.019   4.645 -2.3286 -1.5246 -1.3066
  146OSM    C1F16139   5.924   2.075   6.204  0.2439 -0.4562  0.4557
  146OSM     OF16140   5.853   2.167   6.229  0.5067 -0.0675  0.0806
  146OSM    C2F16141   5.881   1.961   6.119  0.4828 -0.3684  0.2963
  146OSM    H2F16142   5.793   1.915   6.168  0.2780  1.0119  1.2914
  146OSM    H2G16143   5.961   1.884   6.119  1.6054  0.7519  0.5693
  146OSM    C3F16144   5.855   2.007   5.976  0.6143 -0.2576 -0.0157
  146OSM    H3F16145   5.774   2.083   5.977  0.1877 -0.7011 -0.3079
  146OSM    H3G16146   5.813   1.917   5.925 -0.7652  1.4108 -1.9470
  146OSM    C4F16147   5.980   2.053   5.905  0.3010  0.0826  0.1562
  146OSM    H4F16148   6.064   1.980   5.917 -0.1577 -0.5109 -0.1800
  146OSM    H4G16149   6.020   2.151   5.939 -0.5831  0.4580  0.1288
  146OSM    C5F16150   5.938   2.075   5.753  0.3169  0.2365 -0.8309
  146OSM    H5F16151   5.989   2.167   5.718  1.6183 -0.2329 -0.2607
  146OSM    H5G16152   5.832   2.098   5.734  0.4905  0.0980 -2.0803
  146OSM    C6F16153   5.962   1.955   5.657  0.5869 -0.2253  0.3094
  146OSM    H6F16154   5.913   1.872   5.712 -0.6609  0.2102 -0.1196
  146OSM    H6G16155   6.070   1.938   5.635  0.5807  0.4484 -0.2929
  146OSM    C7F16156   5.893   1.961   5.514  0.0642 -0.0508 -0.3869
  146OSM    H7F16157   5.939   2.039   5.449  0.7898  0.1902  0.4021
  146OSM    H7G16158   5.789   1.991   5.541 -0.7754 -1.1332 -2.2030
  146OSM    C8F16159   5.879   1.827   5.446  0.3064  0.2659  0.9358
  146OSM    H8F16160   5.826   1.756   5.513  1.4625 -1.1231  0.4204
  146OSM    H8G16161   5.980   1.783   5.429  0.2869  0.9204 -1.2316
  146OSM    C9F16162   5.807   1.831   5.316  0.1502 -0.3417  0.7089
  146OSM    H9F16163   5.806   1.926   5.261  2.0386 -0.7484 -0.0926
  146OSM   C10F16164   5.731   1.735   5.262  0.4101 -0.0426  0.3641
  146OSM   H10F16165   5.682   1.763   5.168  1.1498  0.1396  0.0293
  146OSM   C11F16166   5.709   1.595   5.319  0.3213  0.2881  0.5882
  146OSM   H11F16167   5.747   1.588   5.423  0.8800  1.9336  0.5278
  146OSM   H11G16168   5.756   1.519   5.253 -1.2131  1.8490 -2.5519
  146OSM   C12F16169   5.567   1.542   5.313  0.1754  0.1668 -0.2949
  146OSM   H12F16170   5.506   1.618   5.367  2.8777  1.6864  0.8277
  146OSM   H12G16171   5.568   1.446   5.369  1.8857 -0.3060 -1.0690
  146OSM   C13F16172   5.495   1.531   5.172 -0.5544 -0.2074  0.3845
  146OSM   H13F16173   5.559   1.464   5.111  0.6279  0.6107  0.7009
  146OSM   H13G16174   5.506   1.632   5.129  3.7577 -0.1764  1.1651
  146OSM   C14F16175   5.355   1.486   5.188 -0.3877 -0.1894  0.1023
  146OSM   H14F16176   5.336   1.394   5.248 -1.8079 -1.0372 -1.5389
  146OSM   H14G16177   5.299   1.564   5.243 -0.1119  1.2612 -1.6106
  146OSM   C15F16178   5.274   1.470   5.058 -0.0385 -0.1300  0.3265
  146OSM   H15F16179   5.312   1.378   5.008 -1.4996 -1.5404  1.6721
  146OSM   H15G16180   5.290   1.562   4.999 -0.2580  1.3010  2.4013
  146OSM   C16F16181   5.123   1.457   5.085  0.1081 -0.7664 -0.7960
  146OSM   H16F16182   5.074   1.556   5.100  0.7919 -0.6235  0.6733
  146OSM   H16G16183   5.118   1.406   5.183 -2.2276 -0.5589 -0.7629
  146OSM   C17F16184   5.035   1.371   4.991 -0.2306  0.8322  0.3362
  146OSM   H17F16185   5.088   1.280   4.957 -2.9620 -0.4548 -0.7699
  146OSM   H17G16186   5.011   1.420   4.894  0.2174  0.1999 -0.0982
  146OSM   C18F16187   4.904   1.332   5.070  0.1343  0.4337  0.0428
  146OSM   H18F16188   4.859   1.420   5.120 -1.1841 -1.4972  2.4641
  146OSM   H18G16189   4.924   1.255   5.147 -0.0987 -1.1123 -1.3707
  146OSM   H18H16190   4.836   1.297   4.990  1.0022 -0.2630 -0.4155
  147OSM      N16191   0.528   5.401   2.360  0.1941 -0.3372  0.2315
  147OSM    C1516192   0.489   5.301   2.253 -0.0141 -0.1312 -0.1257
  147OSM   H15A16193   0.387   5.266   2.261  0.7718 -2.0297  3.5814
  147OSM   H15B16194   0.543   5.209   2.270  0.8335  0.8522  2.9690
  147OSM   H15C16195   0.512   5.336   2.153  1.7629 -1.7121 -0.3199
  147OSM    C1416196   0.667   5.433   2.343 -0.0591  0.7660  0.2291
  147OSM   H14A16197   0.694   5.535   2.365 -0.9848  1.0406  0.1349
  147OSM   H14B16198   0.695   5.422   2.239 -0.3664 -2.0139  0.3697
  147OSM   H14C16199   0.735   5.356   2.377 -2.1397 -1.5898 -0.6763
  147OSM    C1316200   0.443   5.527   2.338 -0.3027  0.1715 -0.0358
  147OSM   H13A16201   0.336   5.511   2.343 -0.4033  1.0147  1.0120
  147OSM   H13B16202   0.475   5.574   2.246  0.9895  0.0254  0.3217
  147OSM   H13C16203   0.465   5.587   2.425  1.3623 -0.8348  0.2727
  147OSM    C1216204   0.521   5.348   2.505 -0.9388  0.3980 -0.4503
  147OSM   H12A16205   0.421   5.327   2.539 -1.4807  1.9919 -0.9649
  147OSM   H12B16206   0.549   5.434   2.563 -1.9413  1.4164 -1.4416
  147OSM    C1116207   0.618   5.234   2.549  0.1204  0.0849  0.1613
  147OSM   H11A16208   0.618   5.216   2.659  3.1413 -1.7731 -0.0015
  147OSM   H11B16209   0.724   5.262   2.531  0.7248 -1.1539  1.4987
  147OSM      P16210   0.459   5.032   2.538 -0.6064  0.3112 -0.0337
  147OSM    O1316211   0.332   5.103   2.536  0.5095 -0.2258  0.3897
  147OSM    O1416212   0.453   4.900   2.468  0.3276  0.0446 -0.3899
  147OSM    O1116213   0.508   5.002   2.686  0.0580 -0.1862  0.5408
  147OSM    O1216214   0.592   5.108   2.487  0.4182 -0.2867 -0.3194
  147OSM    C1S16215   0.634   4.975   2.743 -0.3236  0.8351 -0.6155
  147OSM    H1S16216   0.713   5.029   2.688 -0.3282  0.5807 -0.8771
  147OSM    H1T16217   0.651   4.865   2.739 -2.3707  0.4831 -0.8228
  147OSM     NF16218   0.758   5.033   2.945 -0.3698 -0.0184  0.1280
  147OSM    HNF16219   0.814   4.969   2.997  1.5867  0.4989 -1.2199
  147OSM    C2S16220   0.624   5.015   2.891  0.3392  0.7789  0.4063
  147OSM    H2S16221   0.573   5.114   2.896 -0.3767  0.4088  0.5778
  147OSM    C3S16222   0.543   4.908   2.966 -0.7013 -0.9757 -0.9324
  147OSM    H3S16223   0.605   4.816   2.962  2.9969  1.2649 -0.8332
  147OSM     O316224   0.417   4.881   2.911  0.4049 -0.0691  0.2952
  147OSM    HO316225   0.432   4.898   2.817  1.0635 -1.7794  0.0544
  147OSM    C4S16226   0.519   4.951   3.106 -0.3735 -0.2321 -0.3861
  147OSM    H4S16227   0.446   5.033   3.111  0.3134  0.2906  2.2646
  147OSM    C5S16228   0.579   4.890   3.211 -1.0815 -0.1937  1.0459
  147OSM    H5S16229   0.624   4.793   3.188  0.7810  1.2014 -1.8467
  147OSM    C6S16230   0.557   4.939   3.352  0.5358  0.3986 -0.2672
  147OSM    H6S16231   0.639   5.008   3.379  1.0841 -0.7486  1.1023
  147OSM    H6T16232   0.566   4.856   3.424  0.6031  1.6731  1.2418
  147OSM    C7S16233   0.422   5.015   3.380 -0.5293  0.0537 -0.7584
  147OSM    H7S16234   0.339   4.944   3.362 -0.6089 -0.1638  0.3754
  147OSM    H7T16235   0.414   5.108   3.320  0.2709  0.8046  0.2519
  147OSM    C8S16236   0.411   5.055   3.526 -0.8523  0.1519 -0.2582
  147OSM    H8S16237   0.494   5.123   3.553 -1.2351  0.7690 -0.6304
  147OSM    H8T16238   0.414   4.966   3.594  0.6580  0.1476 -0.3112
  147OSM    C9S16239   0.278   5.127   3.551  0.2111 -0.5218 -0.2146
  147OSM    H9S16240   0.198   5.051   3.546 -0.1147 -0.1024 -1.7058
  147OSM    H9T16241   0.268   5.203   3.471  4.3122  0.6647  0.1641
  147OSM   C10S16242   0.257   5.207   3.681  1.1498 -0.1203  0.0723
  147OSM   H10S16243   0.152   5.241   3.694  1.5232  2.0794 -1.9255
  147OSM   H10T16244   0.325   5.296   3.681  1.1695 -0.1274  0.6719
  147OSM   C11S16245   0.280   5.115   3.800  0.2126  0.1772 -0.4131
  147OSM   H11S16246   0.390   5.104   3.817  0.5178 -1.4346 -2.7963
  147OSM   H11T16247   0.238   5.013   3.785  1.4797 -0.5091  0.4581
  147OSM   C12S16248   0.221   5.171   3.934  0.1021 -0.0203  0.1374
  147OSM   H12S16249   0.111   5.159   3.933  0.1735 -0.8982  1.1356
  147OSM   H12T16250   0.247   5.278   3.946  1.7342 -0.1610 -1.6837
  147OSM   C13S16251   0.277   5.099   4.057 -0.3379  0.2404  1.2460
  147OSM   H13S16252   0.381   5.138   4.061  0.0036 -0.5484  0.3564
  147OSM   H13T16253   0.282   4.992   4.027 -1.2447  0.5784 -0.1712
  147OSM   C14S16254   0.197   5.110   4.190 -0.2094 -0.1950  0.1982
  147OSM   H14S16255   0.246   5.048   4.268 -1.0486  1.0391  1.7677
  147OSM   H14T16256   0.100   5.061   4.168 -0.7599  1.3795 -1.0409
  147OSM   C15S16257   0.191   5.254   4.246 -0.3178  0.6447  0.2288
  147OSM   H15S16258   0.158   5.322   4.165  3.5042 -1.2174 -3.2997
  147OSM   H15T16259   0.298   5.277   4.270  0.6337 -1.3229 -1.8028
  147OSM   C16S16260   0.114   5.273   4.379 -0.0735  0.0488 -0.2037
  147OSM   H16S16261   0.159   5.206   4.455 -0.0816  1.4539  1.1099
  147OSM   H16T16262   0.009   5.238   4.367  0.2329 -0.6923 -0.7704
  147OSM   C17S16263   0.120   5.410   4.433 -0.4064 -0.0837 -0.0029
  147OSM   H17S16264   0.219   5.424   4.482  0.6209 -2.8439 -1.0201
  147OSM   H17T16265   0.053   5.422   4.520  0.6938  1.8031  0.6528
  147OSM   C18S16266   0.074   5.520   4.334 -0.0226  0.0238  0.1287
  147OSM   H18S16267   0.159   5.528   4.264 -0.2306  1.3217  0.0005
  147OSM   H18T16268   0.059   5.621   4.379  2.4619  0.3040  0.4343
  147OSM   H18U16269  -0.018   5.502   4.274 -0.1608  0.8475  0.0894
  147OSM    C1F16270   0.832   5.141   2.912  0.5111  0.3996  0.1014
  147OSM     OF16271   0.784   5.222   2.834 -0.4970  0.3768 -0.0117
  147OSM    C2F16272   0.960   5.168   2.983 -0.1223  0.4816  0.0184
  147OSM    H2F16273   0.946   5.275   3.010 -0.9434  0.3294  0.2188
  147OSM    H2G16274   1.040   5.156   2.906 -0.7302 -2.9784 -0.2438
  147OSM    C3F16275   0.990   5.079   3.110  0.0998 -0.3996  0.2376
  147OSM    H3F16276   1.097   5.091   3.137 -0.1281 -0.6744  1.3101
  147OSM    H3G16277   0.962   4.976   3.079 -0.3828  0.3494 -2.0128
  147OSM    C4F16278   0.900   5.125   3.226  0.7950 -0.3493 -0.4558
  147OSM    H4F16279   0.792   5.107   3.204  0.6133 -0.6079  0.5628
  147OSM    H4G16280   0.898   5.234   3.249  3.0302 -0.2078 -0.7523
  147OSM    C5F16281   0.953   5.054   3.348  0.3367  0.7306 -0.2485
  147OSM    H5F16282   1.063   5.069   3.340  0.2138  0.8431 -1.9740
  147OSM    H5G16283   0.932   4.945   3.349  1.6397  0.4415 -1.1800
  147OSM    C6F16284   0.896   5.115   3.474 -0.0047 -0.2060 -0.5700
  147OSM    H6F16285   0.785   5.106   3.479 -0.1013  1.3282  0.9059
  147OSM    H6G16286   0.925   5.222   3.471  1.1025 -0.4453  0.8507
  147OSM    C7F16287   0.956   5.062   3.607 -0.0332 -0.0772  0.4192
  147OSM    H7F16288   0.940   5.146   3.677 -0.3853  0.3619 -0.1798
  147OSM    H7G16289   1.066   5.062   3.591 -0.1709 -2.0619 -0.8997
  147OSM    C8F16290   0.901   4.925   3.640 -0.0545  0.7050 -0.0149
  147OSM    H8F16291   0.943   4.862   3.558  2.4291  2.2944 -0.0963
  147OSM    H8G16292   0.792   4.930   3.620 -0.8949  0.6630  3.7991
  147OSM    C9F16293   0.942   4.894   3.781 -0.7298 -0.0418 -0.2095
  147OSM    H9F16294   1.049   4.886   3.803 -0.9629  0.8728  1.4056
  147OSM   C10F16295   0.853   4.874   3.880  0.5585 -0.5710 -0.7719
  147OSM   H10F16296   0.897   4.848   3.977 -1.2607 -1.3327 -0.1156
  147OSM   C11F16297   0.706   4.916   3.878  0.7840  0.3616 -0.3860
  147OSM   H11F16298   0.648   4.827   3.845  1.1507  0.1262 -0.4098
  147OSM   H11G16299   0.689   4.990   3.797  1.5142 -0.4547 -1.3133
  147OSM   C12F16300   0.654   4.978   4.004 -0.5244  0.3520 -0.0960
  147OSM   H12F16301   0.564   5.037   3.977 -0.9317 -0.6590 -0.9813
  147OSM   H12G16302   0.725   5.056   4.040 -2.7394  3.3965 -1.8432
  147OSM   C13F16303   0.614   4.874   4.114  0.3111 -0.3569  0.3115
  147OSM   H13F16304   0.695   4.803   4.139 -0.7313 -0.6828  3.1673
  147OSM   H13G16305   0.529   4.822   4.065 -0.3403  1.9229 -1.1941
  147OSM   C14F16306   0.568   4.943   4.250  0.0473  0.4574  0.4325
  147OSM   H14F16307   0.481   5.010   4.239 -0.8328 -0.4303  1.7573
  147OSM   H14G16308   0.657   4.984   4.302  2.3499 -1.8424 -1.3815
  147OSM   C15F16309   0.529   4.825   4.343 -0.0136 -0.9128  0.2035
  147OSM   H15F16310   0.613   4.752   4.346  0.9797  0.1498 -0.7516
  147OSM   H15G16311   0.447   4.771   4.290 -0.6294  1.4687 -1.4550
  147OSM   C16F16312   0.493   4.873   4.477  0.8847  0.2580 -0.3173
  147OSM   H16F16313   0.434   4.967   4.479 -0.2053 -0.3999  2.0176
  147OSM   H16G16314   0.591   4.896   4.523  1.4642  0.4183 -1.5931
  147OSM   C17F16315   0.413   4.775   4.558  0.4737  0.1965 -0.1152
  147OSM   H17F16316   0.326   4.754   4.493 -2.5048 -0.2180  3.6252
  147OSM   H17G16317   0.372   4.819   4.652 -1.3307  1.1930 -1.3251
  147OSM   C18F16318   0.485   4.645   4.585 -0.1607  0.4932  0.3180
  147OSM   H18F16319   0.430   4.582   4.658  2.6801 -0.2261  2.0276
  147OSM   H18G16320   0.577   4.663   4.646 -2.2181 -0.7298  4.1272
  147OSM   H18H16321   0.502   4.599   4.486 -0.4375  1.4557 -0.1871
  148OSM      N16322   5.113   5.902   2.446 -0.0563 -0.5319  0.5958
  148OSM    C1516323   5.027   5.782   2.466 -0.1016 -0.3920 -0.1109
  148OSM   H15A16324   4.932   5.785   2.416  0.2530 -0.5393 -0.7988
  148OSM   H15B16325   4.990   5.777   2.568 -0.1588  1.0278 -0.0401
  148OSM   H15C16326   5.074   5.687   2.445 -0.0425 -0.1408 -1.1523
  148OSM    C1416327   5.241   5.879   2.511 -0.8762  0.1299 -0.1591
  148OSM   H14A16328   5.316   5.932   2.455 -1.1771  0.5325 -0.1806
  148OSM   H14B16329   5.281   5.778   2.515 -1.1210  0.0633  0.7550
  148OSM   H14C16330   5.233   5.925   2.608  0.4827  1.0641 -0.4730
  148OSM    C1316331   5.127   5.916   2.295 -0.2621 -0.1672  0.0343
  148OSM   H13A16332   5.141   5.823   2.243 -0.8481 -0.5461  0.5411
  148OSM   H13B16333   5.208   5.981   2.266  0.1792  0.4017  2.3753
  148OSM   H13C16334   5.032   5.952   2.257  0.1564  2.4286  1.2373
  148OSM    C1216335   5.053   6.030   2.494 -0.5185  0.3225  0.6945
  148OSM   H12A16336   4.960   6.052   2.443 -0.3264 -0.3626  0.0257
  148OSM   H12B16337   5.110   6.113   2.455 -2.1408  2.4549  2.5854
  148OSM    C1116338   5.023   6.061   2.649 -0.4779 -0.1856  0.4210
  148OSM   H11A16339   4.968   5.973   2.689  0.0633  0.2313  2.1541
  148OSM   H11B16340   4.952   6.146   2.645 -1.9492 -1.3953 -0.9290
  148OSM      P16341   5.224   6.216   2.691 -0.1304  0.3879 -0.0905
  148OSM    O1316342   5.365   6.181   2.696  0.5270 -0.0164 -0.0442
  148OSM    O1416343   5.172   6.276   2.570 -0.5250  0.4221 -0.3380
  148OSM    O1116344   5.190   6.303   2.817 -0.3311  0.0690 -0.5828
  148OSM    O1216345   5.141   6.081   2.719 -0.5901  0.5145  0.5628
  148OSM    C1S16346   5.187   6.229   2.945 -0.1964 -0.2112 -1.0063
  148OSM    H1S16347   5.279   6.169   2.963 -0.3550 -0.6298 -1.5990
  148OSM    H1T16348   5.096   6.166   2.947 -1.0255  0.9503 -0.6866
  148OSM     NF16349   5.188   6.246   3.199 -0.9978 -0.1041  0.3693
  148OSM    HNF16350   5.119   6.214   3.263 -0.5810 -3.6555 -0.7089
  148OSM    C2S16351   5.166   6.323   3.069 -0.1575  0.2001 -0.0164
  148OSM    H2S16352   5.241   6.404   3.050 -2.2644  1.7806 -2.2188
  148OSM    C3S16353   5.022   6.390   3.065 -0.3673 -0.1235  0.0118
  148OSM    H3S16354   4.939   6.318   3.076  2.0189 -2.8900  1.4078
  148OSM     O316355   5.000   6.456   2.942  0.2397 -0.2685 -0.6670
  148OSM    HO316356   5.072   6.430   2.884  1.9878 -0.4218  1.4563
  148OSM    C4S16357   5.006   6.492   3.181  0.4478  0.3791  0.5921
  148OSM    H4S16358   4.966   6.444   3.272 -0.2379 -0.5078 -0.1694
  148OSM    C5S16359   5.042   6.619   3.176 -0.2782 -0.1424 -0.6692
  148OSM    H5S16360   5.109   6.650   3.094  1.0940 -3.5088 -1.0203
  148OSM    C6S16361   5.032   6.700   3.304  0.5346  0.1326 -0.2283
  148OSM    H6S16362   4.955   6.653   3.369 -0.3883  2.0436  0.1310
  148OSM    H6T16363   5.013   6.807   3.280 -1.2311 -0.1714 -0.2788
  148OSM    C7S16364   5.156   6.670   3.395 -0.2626 -0.2757  0.3302
  148OSM    H7S16365   5.227   6.751   3.367 -1.0117  0.6147  0.9775
  148OSM    H7T16366   5.199   6.571   3.370 -0.8683 -0.3022 -0.6488
  148OSM    C8S16367   5.122   6.680   3.544  0.1461  0.0945 -0.0661
  148OSM    H8S16368   5.059   6.594   3.575  2.6148 -1.7923  0.0516
  148OSM    H8T16369   5.056   6.768   3.557 -1.7182 -1.0124 -1.5663
  148OSM    C9S16370   5.248   6.691   3.626 -0.2464 -0.7694 -0.6934
  148OSM    H9S16371   5.318   6.764   3.580  1.0436 -2.9734 -2.4277
  148OSM    H9T16372   5.310   6.598   3.629 -2.5877 -2.4420 -1.6033
  148OSM   C10S16373   5.218   6.736   3.769 -0.6643 -0.5302  0.4704
  148OSM   H10S16374   5.141   6.816   3.766  0.1896  0.3053  0.3155
  148OSM   H10T16375   5.305   6.797   3.803  0.0610  1.0674 -3.6420
  148OSM   C11S16376   5.178   6.617   3.863 -0.6948  0.0300  0.4432
  148OSM   H11S16377   5.264   6.548   3.864 -1.4178 -0.8960  0.4302
  148OSM   H11T16378   5.088   6.568   3.820  0.4284  0.3991 -2.5673
  148OSM   C12S16379   5.135   6.671   3.998  0.7263  0.6077 -0.7834
  148OSM   H12S16380   5.066   6.590   4.032 -0.7991  2.3718  0.5393
  148OSM   H12T16381   5.064   6.756   4.007  0.1886 -0.0651  2.7417
  148OSM   C13S16382   5.251   6.691   4.090  0.7433 -0.7506  0.6448
  148OSM   H13S16383   5.294   6.790   4.063  0.8945 -0.7704  0.8137
  148OSM   H13T16384   5.338   6.624   4.075  2.3254  1.8784 -3.9305
  148OSM   C14S16385   5.209   6.706   4.236  0.0121  0.2294  0.1851
  148OSM   H14S16386   5.125   6.636   4.260  0.4792 -0.3279  0.2143
  148OSM   H14T16387   5.161   6.805   4.244 -1.9909 -0.8206  2.7893
  148OSM   C15S16388   5.330   6.681   4.327 -0.2610 -0.6790 -0.8356
  148OSM   H15S16389   5.385   6.776   4.345 -0.2435 -1.2785  3.0311
  148OSM   H15T16390   5.403   6.608   4.287  1.5289  1.0546 -0.8452
  148OSM   C16S16391   5.297   6.632   4.471  0.7696 -0.6420  0.6031
  148OSM   H16S16392   5.253   6.531   4.460 -1.8535  0.3202  1.4841
  148OSM   H16T16393   5.211   6.695   4.506 -0.6562 -1.7651 -0.7337
  148OSM   C17S16394   5.413   6.626   4.567  0.2636  0.1805  0.6156
  148OSM   H17S16395   5.461   6.725   4.549 -0.9654  0.4724 -1.3487
  148OSM   H17T16396   5.481   6.542   4.542  1.7268  1.4183  0.2624
  148OSM   C18S16397   5.365   6.610   4.710 -0.4847 -0.8623  0.1581
  148OSM   H18S16398   5.449   6.641   4.775 -0.6723 -0.3922  0.1838
  148OSM   H18T16399   5.313   6.514   4.729 -0.7180 -1.5044 -3.1430
  148OSM   H18U16400   5.283   6.683   4.727 -2.2669 -2.3976 -1.3377
  148OSM    C1F16401   5.311   6.204   3.228 -0.1179 -0.7832  0.0821
  148OSM     OF16402   5.407   6.224   3.155 -0.3952  0.0705 -0.5776
  148OSM    C2F16403   5.328   6.133   3.359  0.2039 -0.2902 -0.0192
  148OSM    H2F16404   5.423   6.076   3.348  1.4516  1.7470 -0.2874
  148OSM    H2G16405   5.239   6.068   3.376  0.0004  0.0619  0.2897
  148OSM    C3F16406   5.352   6.238   3.475  0.0718 -0.0786  0.8037
  148OSM    H3F16407   5.260   6.297   3.495 -0.4540 -1.1370  1.5841
  148OSM    H3G16408   5.434   6.308   3.448 -0.2468 -0.7539 -2.2415
  148OSM    C4F16409   5.375   6.174   3.612  0.3451 -0.1982  0.3970
  148OSM    H4F16410   5.456   6.099   3.619 -0.4080 -1.0452  0.3087
  148OSM    H4G16411   5.286   6.112   3.637  0.5395 -0.9749 -0.7469
  148OSM    C5F16412   5.417   6.289   3.705  0.5509 -0.1260 -0.2964
  148OSM    H5F16413   5.354   6.380   3.694 -0.3717 -0.9471 -2.3340
  148OSM    H5G16414   5.521   6.327   3.695  0.4560  0.3291  0.3848
  148OSM    C6F16415   5.393   6.241   3.856  0.1282  0.2702  0.2880
  148OSM    H6F16416   5.452   6.147   3.851 -1.0888 -0.4519 -1.2296
  148OSM    H6G16417   5.293   6.201   3.883  0.2256 -0.5515 -0.5139
  148OSM    C7F16418   5.453   6.340   3.964  0.0872 -0.3006  0.4474
  148OSM    H7F16419   5.403   6.439   3.973 -1.3697 -0.9567  0.0030
  148OSM    H7G16420   5.558   6.355   3.932 -0.1833  0.4891 -0.1175
  148OSM    C8F16421   5.444   6.291   4.106  0.2285 -0.1416  0.0432
  148OSM    H8F16422   5.335   6.288   4.127 -0.0210 -0.1409 -1.1789
  148OSM    H8G16423   5.490   6.368   4.172  1.6173 -0.3723 -0.6246
  148OSM    C9F16424   5.495   6.152   4.134  0.6616 -0.6913  0.7191
  148OSM    H9F16425   5.506   6.081   4.051 -0.5563  0.7559 -0.7335
  148OSM   C10F16426   5.535   6.111   4.254  0.4014 -0.8022  0.5881
  148OSM   H10F16427   5.570   6.006   4.256  2.7508 -0.1703 -1.5539
  148OSM   C11F16428   5.542   6.198   4.377  0.1459 -0.2514  0.4040
  148OSM   H11F16429   5.504   6.302   4.372 -0.0856 -0.3865 -1.0768
  148OSM   H11G16430   5.644   6.184   4.420  0.1705 -0.9323  0.1381
  148OSM   C12F16431   5.452   6.130   4.482 -0.1471  0.0206 -0.3365
  148OSM   H12F16432   5.501   6.038   4.519  0.7394  0.7272  0.3147
  148OSM   H12G16433   5.348   6.120   4.445 -0.2778  0.0093  0.0354
  148OSM   C13F16434   5.448   6.218   4.603 -0.1289 -0.5977 -0.6539
  148OSM   H13F16435   5.358   6.195   4.664 -0.6248  2.4095 -0.0936
  148OSM   H13G16436   5.434   6.327   4.586 -0.8213 -0.6625 -0.5381
  148OSM   C14F16437   5.567   6.195   4.702  0.4321  0.2031 -0.0610
  148OSM   H14F16438   5.658   6.164   4.645 -1.0999 -0.1408 -2.4562
  148OSM   H14G16439   5.549   6.103   4.762  0.6499  0.1454 -0.0816
  148OSM   C15F16440   5.605   6.319   4.775  0.7445 -0.5740  0.7066
  148OSM   H15F16441   5.520   6.356   4.836  0.1821 -0.8200  0.0849
  148OSM   H15G16442   5.635   6.402   4.707  0.0296 -0.4124  0.5803
  148OSM   C16F16443   5.719   6.311   4.865  0.6890 -0.4523 -0.1811
  148OSM   H16F16444   5.815   6.304   4.810 -0.2897 -1.4455 -1.8731
  148OSM   H16G16445   5.713   6.219   4.926  1.1159 -0.6166 -0.3830
  148OSM   C17F16446   5.727   6.432   4.960 -0.7107  0.2266 -0.5300
  148OSM   H17F16447   5.628   6.428   5.010 -1.0479  0.3536 -1.1797
  148OSM   H17G16448   5.734   6.533   4.914  0.4372  0.5301  0.2693
  148OSM   C18F16449   5.843   6.405   5.059  0.8080  0.0099 -0.2530
  148OSM   H18F16450   5.908   6.325   5.017 -0.7753 -1.4371 -0.0766
  148OSM   H18G16451   5.802   6.367   5.155 -0.2786  0.9629 -0.3167
  148OSM   H18H16452   5.904   6.496   5.077 -2.3054  2.1279  0.2667
  149OSM      N16453   1.296   4.878   2.200 -0.7438  1.3758  0.5018
  149OSM    C1516454   1.295   4.738   2.138  0.3916  0.2219 -0.3825
  149OSM   H15A16455   1.322   4.743   2.034  0.8802 -0.1628 -0.2782
  149OSM   H15B16456   1.191   4.710   2.139  0.1238  1.2074 -0.6752
  149OSM   H15C16457   1.354   4.664   2.190 -1.0560  0.4413  1.6891
  149OSM    C1416458   1.425   4.945   2.167 -0.4693  0.4168  0.2168
  149OSM   H14A16459   1.437   4.970   2.063  0.9067  1.8514  0.6822
  149OSM   H14B16460   1.506   4.874   2.174 -2.0776 -1.9516 -2.5733
  149OSM   H14C16461   1.458   5.031   2.223  2.0636 -0.9871  1.0006
  149OSM    C1316462   1.199   4.975   2.153 -0.0154 -0.3589  0.4735
  149OSM   H13A16463   1.097   4.942   2.169  0.0534 -0.8188 -0.0288
  149OSM   H13B16464   1.213   4.985   2.047  0.3135  1.0582  0.6348
  149OSM   H13C16465   1.206   5.069   2.205  2.3726 -0.4248  0.3660
  149OSM    C1216466   1.284   4.858   2.347  0.1334 -0.0938 -0.3140
  149OSM   H12A16467   1.300   4.958   2.386  0.1149 -0.7252  1.4134
  149OSM   H12B16468   1.372   4.809   2.385 -1.2112 -2.7295 -0.4016
  149OSM    C1116469   1.157   4.797   2.408  0.4870 -0.1197  0.1840
  149OSM   H11A16470   1.074   4.866   2.379  1.0133 -0.5596 -2.7526
  149OSM   H11B16471   1.156   4.806   2.518  4.5933  2.4433  0.2176
  149OSM      P16472   1.013   4.582   2.385  0.1029  0.1222 -0.0487
  149OSM    O1316473   0.917   4.614   2.278 -0.1062 -0.2221  0.2738
  149OSM    O1416474   1.037   4.435   2.399  0.0087 -0.6750 -0.0220
  149OSM    O1116475   0.947   4.625   2.521  0.0663  0.3777 -0.1274
  149OSM    O1216476   1.143   4.664   2.360 -0.4949 -0.2709  0.1031
  149OSM    C1S16477   1.012   4.607   2.647  0.0729 -0.0178 -0.0298
  149OSM    H1S16478   1.066   4.700   2.676 -0.7230  0.1722  0.9070
  149OSM    H1T16479   1.081   4.520   2.642 -1.3748 -1.1303 -2.2594
  149OSM     NF16480   0.979   4.575   2.891 -0.1201  0.1002 -0.7623
  149OSM    HNF16481   1.012   4.484   2.915  0.5297  0.4564 -0.2611
  149OSM    C2S16482   0.914   4.579   2.764 -0.6016  0.3727 -0.2674
  149OSM    H2S16483   0.834   4.656   2.770  0.9145  1.8883  2.7439
  149OSM    C3S16484   0.830   4.446   2.739 -0.1208  0.5620 -0.4784
  149OSM    H3S16485   0.910   4.370   2.741  0.2133  0.9130 -0.3241
  149OSM     O316486   0.773   4.430   2.611  0.3054  0.1286 -0.2041
  149OSM    HO316487   0.836   4.489   2.569  1.4389  2.9332  4.6433
  149OSM    C4S16488   0.718   4.428   2.843  0.2300  0.1589 -0.2631
  149OSM    H4S16489   0.647   4.513   2.840 -0.1982 -0.1976 -0.3185
  149OSM    C5S16490   0.691   4.325   2.921  0.6693  0.2676  0.1935
  149OSM    H5S16491   0.757   4.238   2.914  0.6740  0.3192 -0.4052
  149OSM    C6S16492   0.579   4.329   3.021 -0.3653 -0.3764 -0.4612
  149OSM    H6S16493   0.613   4.295   3.122 -0.0451  1.4603  0.0996
  149OSM    H6T16494   0.495   4.263   2.991 -0.4342 -0.4904 -0.0298
  149OSM    C7S16495   0.507   4.469   3.053 -0.0208  0.1136 -0.1978
  149OSM    H7S16496   0.463   4.506   2.958 -0.6011 -1.7899 -0.6963
  149OSM    H7T16497   0.579   4.549   3.080  2.2549 -0.8256 -2.9271
  149OSM    C8S16498   0.403   4.459   3.159 -0.2120 -0.4460 -0.2869
  149OSM    H8S16499   0.335   4.375   3.135  0.3811  0.0082 -4.1485
  149OSM    H8T16500   0.349   4.555   3.147 -1.4672 -1.0225  0.6092
  149OSM    C9S16501   0.460   4.453   3.303  0.1282 -0.3698 -0.2477
  149OSM    H9S16502   0.522   4.544   3.317  0.9511 -0.9520 -0.0938
  149OSM    H9T16503   0.522   4.362   3.314  0.8569  0.3295  1.6614
  149OSM   C10S16504   0.348   4.451   3.412 -0.0987  0.1169  0.1363
  149OSM   H10S16505   0.411   4.458   3.503 -0.9512  2.0198  0.6326
  149OSM   H10T16506   0.292   4.356   3.400 -0.2025 -0.1316  2.2399
  149OSM   C11S16507   0.261   4.570   3.408  0.4699 -0.4781 -0.3142
  149OSM   H11S16508   0.202   4.571   3.314  1.3054 -1.9519 -0.8834
  149OSM   H11T16509   0.320   4.665   3.410  0.9224 -0.7668  0.1789
  149OSM   C12S16510   0.159   4.577   3.531 -0.3344  0.1405 -0.0766
  149OSM   H12S16511   0.133   4.473   3.558  1.1918 -0.1705  0.3179
  149OSM   H12T16512   0.071   4.632   3.493 -0.0597  0.9063  0.3674
  149OSM   C13S16513   0.223   4.639   3.653 -0.0556 -0.2307 -0.6129
  149OSM   H13S16514   0.235   4.749   3.652 -1.2942 -0.0804 -0.8310
  149OSM   H13T16515   0.311   4.582   3.691  0.6729  0.8175 -0.7016
  149OSM   C14S16516   0.127   4.621   3.778  0.0982 -0.1051 -0.9067
  149OSM   H14S16517   0.095   4.515   3.790  0.2709 -0.4514 -3.1710
  149OSM   H14T16518   0.038   4.684   3.756 -0.2429  0.2002  1.1618
  149OSM   C15S16519   0.190   4.677   3.899 -0.9216  0.1146  0.0668
  149OSM   H15S16520   0.208   4.783   3.870  1.6275 -0.2286  0.1665
  149OSM   H15T16521   0.289   4.635   3.925 -0.2030  0.3004 -2.2016
  149OSM   C16S16522   0.112   4.665   4.032 -0.1642 -0.1641  0.0557
  149OSM   H16S16523   0.079   4.560   4.041 -1.6946  0.2487 -0.3458
  149OSM   H16T16524   0.014   4.718   4.032  0.5703  1.2962 -1.0501
  149OSM   C17S16525   0.184   4.702   4.159  0.0800 -0.1084  0.2952
  149OSM   H17S16526   0.206   4.810   4.149 -0.4377 -0.0675 -0.4712
  149OSM   H17T16527   0.284   4.655   4.172  0.4294  1.0545  2.2371
  149OSM   C18S16528   0.112   4.681   4.295 -0.0553 -0.8444 -0.0488
  149OSM   H18S16529   0.031   4.608   4.275 -0.6263 -0.4065  0.5980
  149OSM   H18T16530   0.067   4.778   4.329  1.7032 -0.0835  0.2130
  149OSM   H18U16531   0.177   4.646   4.378 -0.9970  1.1248  1.6224
  149OSM    C1F16532   1.011   4.683   2.959 -0.5311  0.8764  0.4732
  149OSM     OF16533   0.986   4.792   2.923  0.0063 -0.0893  0.0111
  149OSM    C2F16534   1.092   4.667   3.081  0.0488 -0.6933  0.6139
  149OSM    H2F16535   1.115   4.560   3.101 -0.0944 -0.7352  0.5603
  149OSM    H2G16536   1.024   4.694   3.165 -1.2411 -2.6991  0.2832
  149OSM    C3F16537   1.215   4.749   3.078  0.0361 -0.3481  0.1216
  149OSM    H3F16538   1.177   4.853   3.063  0.6231  0.1792  1.9517
  149OSM    H3G16539   1.271   4.724   2.986  1.8795  0.9507  0.8293
  149OSM    C4F16540   1.303   4.749   3.201  0.1602  0.1036 -0.1750
  149OSM    H4F16541   1.376   4.833   3.193 -0.3921  0.6344  0.2723
  149OSM    H4G16542   1.359   4.653   3.210 -0.5823 -0.5120 -1.8232
  149OSM    C5F16543   1.238   4.767   3.340  1.1272 -0.0067  0.0047
  149OSM    H5F16544   1.173   4.681   3.366  1.8155 -0.1490  1.3510
  149OSM    H5G16545   1.184   4.864   3.341 -0.0048 -0.6102  1.2072
  149OSM    C6F16546   1.344   4.778   3.452  0.4735 -1.0302  0.3499
  149OSM    H6F16547   1.404   4.865   3.418 -0.8700 -0.6958 -1.3291
  149OSM    H6G16548   1.404   4.686   3.469  0.8197 -1.0255 -0.7957
  149OSM    C7F16549   1.281   4.811   3.596  0.7559 -0.0436 -0.1880
  149OSM    H7F16550   1.212   4.725   3.606  0.9790 -0.2281 -0.2467
  149OSM    H7G16551   1.216   4.902   3.600  0.8049 -0.0092 -0.1614
  149OSM    C8F16552   1.375   4.804   3.713 -0.4144  0.1272  0.4183
  149OSM    H8F16553   1.469   4.845   3.669 -0.3640  1.2223  1.5088
  149OSM    H8G16554   1.404   4.697   3.726  0.1968  0.0304 -1.4206
  149OSM    C9F16555   1.330   4.881   3.833  0.2463  0.3804  0.1568
  149OSM    H9F16556   1.317   4.989   3.818 -0.0714  0.1513 -1.3853
  149OSM   C10F16557   1.307   4.831   3.957  0.6607 -0.5614 -0.1934
  149OSM   H10F16558   1.269   4.895   4.037  0.3489  0.0847 -0.8431
  149OSM   C11F16559   1.313   4.690   4.004 -0.0499 -0.1838  0.2465
  149OSM   H11F16560   1.404   4.688   4.068  0.5263  2.9436 -0.3130
  149OSM   H11G16561   1.326   4.617   3.921 -2.4337  1.8518 -2.1234
  149OSM   C12F16562   1.197   4.640   4.094 -0.2779  0.4689  0.9684
  149OSM   H12F16563   1.146   4.725   4.144 -0.3906  1.9899 -1.5812
  149OSM   H12G16564   1.235   4.576   4.176 -0.6525  0.4140  1.1042
  149OSM   C13F16565   1.100   4.558   4.014 -0.1368 -0.1440 -0.6653
  149OSM   H13F16566   1.137   4.463   3.969  1.7884  0.9540 -1.5036
  149OSM   H13G16567   1.077   4.627   3.930  1.9742  0.9978 -0.3714
  149OSM   C14F16568   0.968   4.530   4.087  0.0528 -0.0422  0.4625
  149OSM   H14F16569   0.899   4.516   4.001  0.3978  1.6785 -0.1380
  149OSM   H14G16570   0.927   4.623   4.133  0.9845  1.0133 -0.7644
  149OSM   C15F16571   0.970   4.417   4.192 -0.1003 -0.1038  0.4902
  149OSM   H15F16572   1.058   4.448   4.253 -2.0843  1.5363  2.7509
  149OSM   H15G16573   0.972   4.309   4.168 -1.9108 -0.4208  1.5378
  149OSM   C16F16574   0.850   4.423   4.282 -0.4995 -0.0254  0.2394
  149OSM   H16F16575   0.767   4.385   4.219 -1.3424  1.0144  0.6856
  149OSM   H16G16576   0.846   4.533   4.301  2.1449 -0.2177  2.6289
  149OSM   C17F16577   0.866   4.339   4.406 -0.0346  0.5916  0.7399
  149OSM   H17F16578   0.968   4.366   4.439  0.7650 -0.8521 -0.4147
  149OSM   H17G16579   0.862   4.233   4.372  0.0312  0.5421  0.8875
  149OSM   C18F16580   0.768   4.348   4.523 -0.2347 -0.3141 -0.6443
  149OSM   H18F16581   0.779   4.452   4.559  0.3096 -0.0800 -1.4631
  149OSM   H18G16582   0.798   4.279   4.605  0.1700  0.9187  0.2828
  149OSM   H18H16583   0.663   4.320   4.501 -0.4937  0.0543  0.0971
  150OSM      N16584   3.989   5.345   2.780  0.2720  0.1680  0.6942
  150OSM    C1516585   4.130   5.388   2.737 -0.4363  0.8740 -0.1553
  150OSM   H15A16586   4.199   5.386   2.820 -0.8073 -2.9110  0.2565
  150OSM   H15B16587   4.138   5.478   2.678 -0.8333 -0.6576 -2.7046
  150OSM   H15C16588   4.168   5.319   2.663 -1.5495 -0.0186  0.0667
  150OSM    C1416589   3.931   5.243   2.686 -0.2057 -0.6265  0.9110
  150OSM   H14A16590   3.921   5.270   2.582 -2.6616 -3.4749  0.2875
  150OSM   H14B16591   3.827   5.221   2.704 -1.5435  2.7451 -1.6390
  150OSM   H14C16592   3.989   5.151   2.684 -2.0634 -1.9817  3.5430
  150OSM    C1316593   3.992   5.279   2.910 -0.0634 -0.5048 -0.2550
  150OSM   H13A16594   4.026   5.355   2.979  1.7649  0.2285 -1.8377
  150OSM   H13B16595   4.052   5.189   2.908 -1.4951 -1.4725 -1.8276
  150OSM   H13C16596   3.894   5.250   2.942 -0.4696  0.6742 -0.3683
  150OSM    C1216597   3.893   5.463   2.788 -0.4235  0.0418  0.9654
  150OSM   H12A16598   3.915   5.530   2.870 -0.9755  0.0674  1.0951
  150OSM   H12B16599   3.796   5.425   2.816  0.0775  0.9107  4.3517
  150OSM    C1116600   3.867   5.546   2.661 -0.1822  0.4976 -0.2762
  150OSM   H11A16601   3.786   5.616   2.690 -0.5532 -0.6281  1.5861
  150OSM   H11B16602   3.829   5.488   2.574 -2.7058  0.6548  0.6364
  150OSM      P16603   4.022   5.754   2.686 -0.7964  0.3163  0.2988
  150OSM    O1316604   4.167   5.778   2.672 -0.2295  0.2581  0.3719
  150OSM    O1416605   3.929   5.862   2.644  0.1376  0.4191  0.5501
  150OSM    O1116606   4.008   5.721   2.838  0.0544 -0.0916 -0.0934
  150OSM    O1216607   3.981   5.616   2.615 -0.3150 -0.3331 -0.8426
  150OSM    C1S16608   4.030   5.830   2.932 -0.6022 -0.0090  0.2755
  150OSM    H1S16609   3.957   5.914   2.926  0.0043  0.5249  0.2571
  150OSM    H1T16610   4.127   5.876   2.905 -0.9119  1.1910  1.0956
  150OSM     NF16611   4.076   5.910   3.165 -0.0897 -0.6594  0.0077
  150OSM    HNF16612   4.168   5.949   3.162 -0.6266  0.6409 -0.0581
  150OSM    C2S16613   4.043   5.790   3.088 -0.3188 -0.1023 -0.1804
  150OSM    H2S16614   3.941   5.754   3.113  0.7030 -2.6718  0.6993
  150OSM    C3S16615   4.138   5.667   3.101 -0.0640 -0.2072 -0.4107
  150OSM    H3S16616   4.241   5.702   3.079 -0.0739 -0.3432 -0.6738
  150OSM     O316617   4.128   5.560   3.002  0.3402 -0.0806  0.0550
  150OSM    HO316618   4.078   5.607   2.935 -1.0874  0.3500  1.3484
  150OSM    C4S16619   4.126   5.632   3.251 -0.1056 -0.0835 -0.2803
  150OSM    H4S16620   4.178   5.710   3.308 -4.0165  2.7544 -0.1894
  150OSM    C5S16621   4.040   5.550   3.312 -0.9860 -0.0010 -0.0877
  150OSM    H5S16622   3.962   5.508   3.247 -2.5546  0.0654  1.6761
  150OSM    C6S16623   4.017   5.533   3.463  0.3999  0.3687 -0.4301
  150OSM    H6S16624   3.983   5.430   3.486  1.8924 -0.1322 -0.3489
  150OSM    H6T16625   3.938   5.604   3.495  0.2801 -0.0131  0.1316
  150OSM    C7S16626   4.141   5.567   3.549 -0.2882 -0.1586  0.3010
  150OSM    H7S16627   4.185   5.666   3.524 -4.1803  1.8099  0.4339
  150OSM    H7T16628   4.209   5.480   3.540 -3.5972 -2.9749  0.3168
  150OSM    C8S16629   4.102   5.568   3.696  0.1289  0.7000  0.8060
  150OSM    H8S16630   4.050   5.471   3.713  1.9355 -0.1600  1.6732
  150OSM    H8T16631   4.030   5.649   3.718 -0.3760 -0.0939  2.1578
  150OSM    C9S16632   4.222   5.574   3.791  0.7947  0.6889 -0.1349
  150OSM    H9S16633   4.183   5.572   3.895 -0.4550  1.6980 -0.5568
  150OSM    H9T16634   4.279   5.668   3.777  1.6629  0.0743 -0.8729
  150OSM   C10S16635   4.322   5.469   3.767  0.4387  0.1151 -0.0663
  150OSM   H10S16636   4.372   5.480   3.669  0.7390 -1.2278 -0.0866
  150OSM   H10T16637   4.265   5.374   3.761  1.8562 -0.6885 -1.6946
  150OSM   C11S16638   4.415   5.454   3.887  0.4011 -0.0266  0.5887
  150OSM   H11S16639   4.352   5.388   3.952 -2.7746  0.8631 -1.3737
  150OSM   H11T16640   4.415   5.553   3.937 -2.4609  0.1888  0.3244
  150OSM   C12S16641   4.554   5.399   3.853 -0.2566 -0.2223  0.1010
  150OSM   H12S16642   4.607   5.454   3.771  1.5575 -2.5255 -0.3771
  150OSM   H12T16643   4.540   5.300   3.805 -0.1938  0.5242 -1.5526
  150OSM   C13S16644   4.654   5.389   3.968  0.3238  0.7997 -0.2277
  150OSM   H13S16645   4.710   5.481   3.995  1.6504  0.2134 -0.8787
  150OSM   H13T16646   4.731   5.317   3.933 -1.9656 -1.7695 -0.3310
  150OSM   C14S16647   4.598   5.334   4.099  0.2772  0.8031  0.4789
  150OSM   H14S16648   4.521   5.255   4.086  0.1362  0.9477  0.4438
  150OSM   H14T16649   4.539   5.413   4.150 -2.4715  1.9763 -3.9721
  150OSM   C15S16650   4.709   5.283   4.197  0.1604  0.1907 -0.2103
  150OSM   H15S16651   4.781   5.244   4.121 -2.5983 -0.4554 -2.6711
  150OSM   H15T16652   4.665   5.198   4.253 -2.7864  0.7662 -1.4717
  150OSM   C16S16653   4.780   5.385   4.284 -0.4880 -0.2952  0.6180
  150OSM   H16S16654   4.807   5.464   4.211  0.4479 -0.9767  0.2013
  150OSM   H16T16655   4.870   5.332   4.321 -2.4110 -3.8374  0.6684
  150OSM   C17S16656   4.705   5.464   4.393  0.5852 -0.2406 -0.1405
  150OSM   H17S16657   4.601   5.491   4.365 -0.7065 -0.9375  3.3624
  150OSM   H17T16658   4.763   5.557   4.414  2.4136 -0.5706 -3.0969
  150OSM   C18S16659   4.699   5.376   4.513  0.7244 -0.6389 -0.3665
  150OSM   H18S16660   4.636   5.425   4.590  1.7909 -0.8559  0.6795
  150OSM   H18T16661   4.802   5.350   4.547  0.1092 -2.3136  0.3305
  150OSM   H18U16662   4.657   5.273   4.505  0.2481 -0.6045  1.3279
  150OSM    C1F16663   3.980   6.003   3.198  0.7380 -0.3161  0.7970
  150OSM     OF16664   3.864   5.986   3.165  0.3300 -0.4179  0.2565
  150OSM    C2F16665   4.027   6.135   3.258 -0.2696  0.1492 -0.5248
  150OSM    H2F16666   3.992   6.221   3.196 -1.4417 -0.0719 -0.1907
  150OSM    H2G16667   4.138   6.141   3.252 -0.1915  0.1149  0.6654
  150OSM    C3F16668   3.976   6.145   3.399 -0.6411 -0.4823 -0.7818
  150OSM    H3F16669   3.865   6.152   3.403 -0.6743 -0.9271 -0.9450
  150OSM    H3G16670   4.009   6.240   3.447  1.8506 -2.0900  0.9225
  150OSM    C4F16671   4.037   6.046   3.494  0.2710  0.8078 -0.3353
  150OSM    H4F16672   4.148   6.048   3.485  0.4770 -0.3618  1.3282
  150OSM    H4G16673   3.996   5.945   3.472  0.7531  0.6118 -0.3548
  150OSM    C5F16674   4.002   6.071   3.642  0.7257  0.0570 -0.0371
  150OSM    H5F16675   3.891   6.080   3.647  0.7285  1.2699 -1.3868
  150OSM    H5G16676   4.048   6.169   3.666  0.9968  0.0167 -0.3918
  150OSM    C6F16677   4.044   5.964   3.735  0.3907  0.2343 -0.0690
  150OSM    H6F16678   4.154   5.957   3.728  0.5856  2.1501  0.3777
  150OSM    H6G16679   4.022   5.861   3.700 -1.2645 -0.0492  1.6348
  150OSM    C7F16680   4.002   5.972   3.882  0.3488 -0.1800 -0.3148
  150OSM    H7F16681   3.891   5.973   3.878  0.3199 -2.2082 -2.1349
  150OSM    H7G16682   4.038   6.069   3.922 -1.1392  0.2292  0.1198
  150OSM    C8F16683   4.063   5.865   3.965  0.4365  0.1831  0.4770
  150OSM    H8F16684   4.172   5.858   3.947  0.0870 -0.0835 -1.8443
  150OSM    H8G16685   4.024   5.766   3.935 -0.4301  0.0492  1.9481
  150OSM    C9F16686   4.031   5.884   4.109  0.0739  0.4516  0.1861
  150OSM    H9F16687   3.924   5.905   4.124 -0.3659  0.7175 -2.7131
  150OSM   C10F16688   4.113   5.884   4.213  0.1703  0.8921 -0.9631
  150OSM   H10F16689   4.064   5.900   4.311 -2.9612  0.0694 -2.2753
  150OSM   C11F16690   4.258   5.879   4.215 -0.0043 -0.0990 -0.7309
  150OSM   H11F16691   4.300   5.827   4.126  1.2948  1.1815 -0.9004
  150OSM   H11G16692   4.298   5.827   4.305 -2.0446 -0.2106  0.1583
  150OSM   C12F16693   4.312   6.024   4.197 -0.7872  0.1892  0.8411
  150OSM   H12F16694   4.252   6.099   4.253 -0.7750  1.8942 -1.2888
  150OSM   H12G16695   4.307   6.056   4.091 -0.5199  1.4054  1.1822
  150OSM   C13F16696   4.461   6.051   4.236  0.2577  0.4896  0.3458
  150OSM   H13F16697   4.496   6.146   4.189 -0.8949  0.3238 -0.9065
  150OSM   H13G16698   4.532   5.975   4.196  1.1061  1.3027  0.2599
  150OSM   C14F16699   4.482   6.071   4.384 -1.0318  0.5385 -0.3601
  150OSM   H14F16700   4.590   6.056   4.407 -1.0811  1.3252  0.4683
  150OSM   H14G16701   4.427   5.989   4.434 -2.6873  1.5965 -0.3765
  150OSM   C15F16702   4.419   6.202   4.434  0.0048 -0.5129  0.6735
  150OSM   H15F16703   4.446   6.200   4.541 -0.2335 -0.2859  0.7391
  150OSM   H15G16704   4.308   6.210   4.427  0.1557  1.1845 -0.2514
  150OSM   C16F16705   4.474   6.331   4.374 -0.4526 -0.3746  0.8177
  150OSM   H16F16706   4.441   6.346   4.268 -0.0705  1.9868  0.9639
  150OSM   H16G16707   4.585   6.329   4.376 -0.3073  1.0813 -1.4817
  150OSM   C17F16708   4.438   6.451   4.452 -0.4744 -0.0234  0.5084
  150OSM   H17F16709   4.470   6.434   4.557  3.8450  3.0669 -0.0711
  150OSM   H17G16710   4.328   6.469   4.449 -0.4472  0.0743 -0.0567
  150OSM   C18F16711   4.511   6.581   4.406 -0.1091 -0.0741 -0.9601
  150OSM   H18F16712   4.485   6.606   4.301 -1.3589  1.9007 -0.2273
  150OSM   H18G16713   4.620   6.577   4.421 -0.1499 -2.1864 -0.9649
  150OSM   H18H16714   4.475   6.663   4.473  1.0009 -0.5451  0.2528
  151OSM      N16715   5.620   4.521   2.227 -0.2129 -0.0991  0.5184
  151OSM    C1516716   5.505   4.564   2.147 -0.0122 -0.2892  0.1654
  151OSM   H15A16717   5.526   4.578   2.042  1.5205 -2.4111  0.1275
  151OSM   H15B16718   5.467   4.661   2.174  0.1403 -0.5743  1.4455
  151OSM   H15C16719   5.425   4.494   2.165  1.1880 -0.8267  4.6457
  151OSM    C1416720   5.670   4.385   2.188 -0.1176 -0.3050  0.0835
  151OSM   H14A16721   5.712   4.375   2.089 -1.4187 -2.6507 -0.2959
  151OSM   H14B16722   5.595   4.308   2.191 -1.6189  1.0953 -0.2159
  151OSM   H14C16723   5.731   4.347   2.269 -1.5171 -1.4819  0.6282
  151OSM    C1316724   5.731   4.613   2.194  0.2320 -0.1025  0.1690
  151OSM   H13A16725   5.820   4.587   2.249  1.8286 -1.0788 -2.6577
  151OSM   H13B16726   5.694   4.714   2.205  1.7281  0.5599 -0.6392
  151OSM   H13C16727   5.753   4.606   2.089  0.8138 -2.1342  0.3900
  151OSM    C1216728   5.579   4.527   2.369 -0.3525  0.1033 -1.2434
  151OSM   H12A16729   5.492   4.467   2.392  1.9001 -2.5689  1.1659
  151OSM   H12B16730   5.545   4.626   2.394 -0.9210 -0.2929 -0.4009
  151OSM    C1116731   5.679   4.479   2.478  0.3499  0.2496  0.7966
  151OSM   H11A16732   5.643   4.526   2.572 -1.1722  2.9049 -0.9800
  151OSM   H11B16733   5.777   4.524   2.454 -0.8152  1.4237 -2.2647
  151OSM      P16734   5.814   4.263   2.534 -0.2637  0.0131 -0.1034
  151OSM    O1316735   5.764   4.131   2.601 -0.1713  0.2898  0.0813
  151OSM    O1416736   5.904   4.243   2.424 -0.2483  0.5309 -0.7718
  151OSM    O1116737   5.884   4.351   2.647  0.5817 -0.1486  0.2859
  151OSM    O1216738   5.682   4.341   2.495 -0.1517  0.3164 -0.6565
  151OSM    C1S16739   5.967   4.292   2.742  0.7852 -0.4349  0.3736
  151OSM    H1S16740   6.063   4.250   2.705  0.0563 -1.8356  0.0009
  151OSM    H1T16741   5.912   4.210   2.794 -2.6942  1.8948  0.7404
  151OSM     NF16742   6.068   4.336   2.965 -0.6685  0.4731  0.7054
  151OSM    HNF16743   6.013   4.301   3.040 -0.3638 -0.8083  0.3566
  151OSM    C2S16744   6.010   4.398   2.852  0.6308 -0.1194  0.0668
  151OSM    H2S16745   6.084   4.467   2.806 -0.1092  0.4608 -0.2799
  151OSM    C3S16746   5.889   4.498   2.886 -0.0627  0.1457 -0.5147
  151OSM    H3S16747   5.802   4.441   2.924 -1.3576  0.2375 -3.1234
  151OSM     O316748   5.835   4.567   2.775  0.3643 -0.0029  0.5352
  151OSM    HO316749   5.856   4.508   2.702  0.3755  0.7043 -0.0475
  151OSM    C4S16750   5.926   4.607   2.985 -0.2385  0.6897 -0.1760
  151OSM    H4S16751   5.996   4.677   2.939 -0.2887 -0.3955 -2.0374
  151OSM    C5S16752   5.864   4.625   3.102 -0.1881  0.2232 -0.1112
  151OSM    H5S16753   5.785   4.550   3.120  0.1011 -0.2899 -0.9283
  151OSM    C6S16754   5.889   4.733   3.203  0.0909 -0.4721  0.2598
  151OSM    H6S16755   5.801   4.800   3.201 -0.5619 -1.2332  1.8492
  151OSM    H6T16756   5.981   4.791   3.180 -0.4143 -0.1951 -1.1894
  151OSM    C7S16757   5.894   4.674   3.340 -0.2845  0.0811 -0.2417
  151OSM    H7S16758   5.971   4.594   3.346  0.2822  0.4948 -1.6097
  151OSM    H7T16759   5.793   4.634   3.364  0.1939 -0.2447  1.3713
  151OSM    C8S16760   5.932   4.769   3.456 -0.2846 -0.2008  0.1856
  151OSM    H8S16761   5.877   4.863   3.435 -0.4010 -0.5417 -1.0996
  151OSM    H8T16762   6.039   4.798   3.456 -0.8492  2.1678  1.2406
  151OSM    C9S16763   5.908   4.720   3.600 -0.1340 -0.2503  0.7434
  151OSM    H9S16764   5.913   4.809   3.667 -0.9047  0.3946 -0.0327
  151OSM    H9T16765   5.989   4.647   3.620 -0.7912 -0.8131  1.3673
  151OSM   C10S16766   5.766   4.655   3.624 -0.0303  0.5371 -0.2929
  151OSM   H10S16767   5.727   4.576   3.556 -3.2363 -0.2500  2.2003
  151OSM   H10T16768   5.688   4.731   3.604 -0.7402 -0.2404 -0.5647
  151OSM   C11S16769   5.757   4.612   3.767  0.0128  0.2453 -0.4916
  151OSM   H11S16770   5.847   4.551   3.789  1.2089  2.3403  0.8243
  151OSM   H11T16771   5.666   4.551   3.783  0.0986  0.3991  0.6937
  151OSM   C12S16772   5.748   4.727   3.872  0.3123 -0.7122 -0.7224
  151OSM   H12S16773   5.672   4.802   3.839  0.6897 -0.1913 -0.4298
  151OSM   H12T16774   5.846   4.780   3.868  0.3223 -0.3628  2.1620
  151OSM   C13S16775   5.712   4.679   4.011  0.3495  0.4954  0.3043
  151OSM   H13S16776   5.769   4.587   4.037 -2.4093 -0.7694  2.4792
  151OSM   H13T16777   5.608   4.641   4.002  0.8099 -0.9437  0.7357
  151OSM   C14S16778   5.735   4.787   4.112 -0.6945  0.0399  0.8543
  151OSM   H14S16779   5.683   4.883   4.097 -1.0962  0.0339  2.0935
  151OSM   H14T16780   5.841   4.819   4.118 -0.9845  1.5918 -1.2341
  151OSM   C15S16781   5.707   4.734   4.251 -0.1933 -0.5371  0.1862
  151OSM   H15S16782   5.787   4.662   4.275 -0.4062 -1.2924 -1.2480
  151OSM   H15T16783   5.620   4.666   4.238  0.8703 -1.8760 -0.0177
  151OSM   C16S16784   5.698   4.839   4.360  0.2526  0.4282  0.6174
  151OSM   H16S16785   5.611   4.903   4.335  1.2767  0.8946 -2.0793
  151OSM   H16T16786   5.773   4.921   4.357  0.1157  0.5144 -0.9593
  151OSM   C17S16787   5.693   4.774   4.500 -0.2132 -0.3651 -0.1293
  151OSM   H17S16788   5.778   4.703   4.494 -0.0868 -0.2548  0.3132
  151OSM   H17T16789   5.598   4.716   4.509  0.1976 -0.9491  0.6078
  151OSM   C18S16790   5.721   4.873   4.617  0.7220  0.4745 -0.4770
  151OSM   H18S16791   5.815   4.927   4.596 -0.3495  1.6397 -2.6764
  151OSM   H18T16792   5.721   4.813   4.711 -3.2674  2.0511  0.7756
  151OSM   H18U16793   5.642   4.949   4.636  0.0705  0.2490 -2.0858
  151OSM    C1F16794   6.202   4.302   2.951 -0.2351 -0.1236 -0.5177
  151OSM     OF16795   6.263   4.330   2.853 -0.5842 -0.3562 -0.1170
  151OSM    C2F16796   6.260   4.217   3.057  0.2934  0.1199  0.1635
  151OSM    H2F16797   6.245   4.111   3.029  0.3084 -0.2122  1.3607
  151OSM    H2G16798   6.206   4.223   3.154 -1.1837 -1.2383 -0.5269
  151OSM    C3F16799   6.406   4.256   3.080 -0.5332 -0.4879 -0.0158
  151OSM    H3F16800   6.424   4.363   3.059  0.2924 -0.6717 -0.2928
  151OSM    H3G16801   6.471   4.224   2.996 -1.0581 -1.0927 -0.1972
  151OSM    C4F16802   6.459   4.218   3.216 -0.1343  0.3775 -0.4066
  151OSM    H4F16803   6.426   4.113   3.231 -1.1874  0.6362 -0.7984
  151OSM    H4G16804   6.407   4.277   3.294 -0.8860 -2.0662  1.0336
  151OSM    C5F16805   6.610   4.220   3.217  0.4028  0.4975 -0.4064
  151OSM    H5F16806   6.649   4.265   3.124 -0.3472  1.5962 -0.1986
  151OSM    H5G16807   6.650   4.116   3.206  0.9231  0.5384  0.8320
  151OSM    C6F16808   6.672   4.302   3.332  0.3206 -0.3913 -0.4370
  151OSM    H6F16809   6.638   4.406   3.313 -3.0801 -1.3829 -0.4250
  151OSM    H6G16810   6.782   4.304   3.317  0.3910  1.7654  0.0386
  151OSM    C7F16811   6.644   4.250   3.472 -0.3971  0.7157  0.3499
  151OSM    H7F16812   6.642   4.141   3.496  0.1312  0.6490  0.0996
  151OSM    H7G16813   6.535   4.270   3.475 -0.4513  0.3923  0.5912
  151OSM    C8F16814   6.719   4.322   3.583 -0.8412  0.4950  0.3527
  151OSM    H8F16815   6.719   4.428   3.549 -0.5820  0.6174  0.7352
  151OSM    H8G16816   6.826   4.294   3.569 -1.2825 -0.4881 -1.4022
  151OSM    C9F16817   6.660   4.304   3.723  0.1817 -0.0387 -0.0941
  151OSM    H9F16818   6.568   4.363   3.735  0.1796  1.0351 -3.8460
  151OSM   C10F16819   6.709   4.218   3.818  0.3039 -0.2363  0.3704
  151OSM   H10F16820   6.661   4.216   3.917  0.3242 -0.2458  0.3800
  151OSM   C11F16821   6.818   4.110   3.791  0.2852 -0.3613  0.2481
  151OSM   H11F16822   6.917   4.142   3.831  1.5015 -0.7358 -2.2867
  151OSM   H11G16823   6.828   4.078   3.686 -0.8886 -1.6778  0.5159
  151OSM   C12F16824   6.775   3.991   3.879  0.3151 -0.4991 -0.2100
  151OSM   H12F16825   6.678   3.955   3.837 -1.3150 -0.5594  3.2177
  151OSM   H12G16826   6.739   4.028   3.978  0.7148  1.4205 -0.7455
  151OSM   C13F16827   6.883   3.889   3.895  0.6649  0.3328 -0.2034
  151OSM   H13F16828   6.920   3.850   3.799 -0.1807  0.2779 -0.5128
  151OSM   H13G16829   6.824   3.803   3.931  0.4783  0.5118 -0.0753
  151OSM   C14F16830   7.002   3.912   3.990  0.1562  0.3961 -0.0427
  151OSM   H14F16831   6.961   3.910   4.093 -0.3859 -2.1078 -0.2508
  151OSM   H14G16832   7.046   4.012   3.970 -0.8412  0.8201 -0.1981
  151OSM   C15F16833   7.116   3.809   3.986  0.4814 -0.3179 -0.0294
  151OSM   H15F16834   7.150   3.791   3.882 -0.7855 -1.7369 -0.2238
  151OSM   H15G16835   7.078   3.718   4.037 -1.1052  0.0879 -0.4401
  151OSM   C16F16836   7.233   3.869   4.063 -0.7336 -0.1834  0.3516
  151OSM   H16F16837   7.203   3.874   4.170  0.6353  0.6262  0.7207
  151OSM   H16G16838   7.247   3.974   4.030 -0.5731 -0.7838 -1.6780
  151OSM   C17F16839   7.364   3.788   4.052  0.2328  0.6802 -0.5753
  151OSM   H17F16840   7.352   3.689   4.102  0.2973  0.1485 -1.5898
  151OSM   H17G16841   7.442   3.832   4.119 -1.6083  0.0389  2.1608
  151OSM   C18F16842   7.426   3.777   3.914  0.0959  0.0590 -0.4182
  151OSM   H18F16843   7.472   3.872   3.877  1.5128 -0.0969  0.8833
  151OSM   H18G16844   7.359   3.737   3.834  0.6174  0.9785 -1.3481
  151OSM   H18H16845   7.513   3.709   3.909 -0.1532 -0.2218 -1.1868
  152OSM      N16846   2.729   0.688   2.988 -0.1078  0.1722 -0.4580
  152OSM    C1516847   2.715   0.806   2.898 -0.0677 -0.5343  0.1996
  152OSM   H15A16848   2.808   0.839   2.855 -0.4256 -2.0499 -1.8746
  152OSM   H15B16849   2.665   0.890   2.944  0.6689 -0.8117  1.5532
  152OSM   H15C16850   2.645   0.790   2.817  0.3435  0.5701 -0.3917
  152OSM    C1416851   2.796   0.577   2.911 -0.0354  0.5392  0.3914
  152OSM   H14A16852   2.737   0.534   2.832 -0.4451 -1.3096  1.6316
  152OSM   H14B16853   2.815   0.494   2.978 -0.2599  0.9324  0.9462
  152OSM   H14C16854   2.894   0.596   2.870  0.5653 -0.1904  1.4340
  152OSM    C1316855   2.826   0.723   3.101  0.2055  0.0354  0.3830
  152OSM   H13A16856   2.789   0.785   3.181 -0.0186 -0.2576  0.5072
  152OSM   H13B16857   2.916   0.770   3.065  1.0070 -1.2429  0.6931
  152OSM   H13C16858   2.860   0.633   3.149  1.3853 -0.3951 -1.2014
  152OSM    C1216859   2.593   0.636   3.033  0.7625 -0.7050  0.1321
  152OSM   H12A16860   2.545   0.589   2.948  1.5080 -1.8058  0.2877
  152OSM   H12B16861   2.533   0.713   3.078 -1.4270 -1.5899 -1.1428
  152OSM    C1116862   2.597   0.525   3.137  0.0133 -0.0724 -0.3568
  152OSM   H11A16863   2.492   0.494   3.156 -0.0553  0.3459 -0.0415
  152OSM   H11B16864   2.636   0.572   3.230  1.0569 -0.2186 -0.7114
  152OSM      P16865   2.600   0.269   3.067  0.1552  0.2350  0.0768
  152OSM    O1316866   2.511   0.288   2.956  0.1301 -0.3316 -0.5633
  152OSM    O1416867   2.717   0.175   3.050  0.3066  0.2388 -0.5800
  152OSM    O1116868   2.515   0.236   3.196 -0.0257  0.6888 -0.1504
  152OSM    O1216869   2.670   0.410   3.106 -0.1207 -0.1663  0.6252
  152OSM    C1S16870   2.585   0.234   3.323 -0.1468  0.2483 -0.1918
  152OSM    H1S16871   2.695   0.243   3.321 -0.1906  0.7729 -0.5964
  152OSM    H1T16872   2.573   0.131   3.362 -2.0066  1.2231  2.0398
  152OSM     NF16873   2.589   0.312   3.544 -0.8427 -0.0467 -0.5873
  152OSM    HNF16874   2.538   0.257   3.610  0.2439 -0.4300 -0.0450
  152OSM    C2S16875   2.523   0.336   3.424  0.0442  0.6614 -0.2403
  152OSM    H2S16876   2.563   0.437   3.397  1.1835  0.7046  1.4800
  152OSM    C3S16877   2.368   0.328   3.428  0.3247  0.1498  0.1354
  152OSM    H3S16878   2.339   0.225   3.457 -2.8881  1.4184  1.8677
  152OSM     O316879   2.306   0.344   3.303 -0.4642  0.0538 -0.2587
  152OSM    HO316880   2.369   0.301   3.245  0.1454  1.6191 -0.8128
  152OSM    C4S16881   2.305   0.410   3.540  0.4321  0.2629  0.4122
  152OSM    H4S16882   2.318   0.512   3.501 -0.7440 -0.7594 -3.1053
  152OSM    C5S16883   2.245   0.371   3.656 -0.1490 -0.3449 -0.0219
  152OSM    H5S16884   2.218   0.265   3.667 -1.8326 -0.0244 -0.7396
  152OSM    C6S16885   2.191   0.471   3.762 -0.2288  0.4108 -0.7359
  152OSM    H6S16886   2.116   0.416   3.823 -1.0424  2.3417  0.1106
  152OSM    H6T16887   2.136   0.555   3.714 -1.1228  1.2322  1.5678
  152OSM    C7S16888   2.298   0.524   3.858 -0.0095 -0.3925 -0.1905
  152OSM    H7S16889   2.363   0.589   3.796 -1.2069 -1.5343 -2.8202
  152OSM    H7T16890   2.357   0.446   3.909  1.3714  0.8087  0.1218
  152OSM    C8S16891   2.227   0.593   3.973  0.0538 -0.1212 -0.4825
  152OSM    H8S16892   2.167   0.520   4.032 -0.6620  0.3518 -0.6034
  152OSM    H8T16893   2.153   0.666   3.932 -0.2978 -0.3389 -0.2458
  152OSM    C9S16894   2.335   0.661   4.061 -0.3532  0.0503 -0.1616
  152OSM    H9S16895   2.396   0.732   4.002  1.0637 -0.3702  0.7425
  152OSM    H9T16896   2.411   0.590   4.102 -0.0839  0.4840  0.0902
  152OSM   C10S16897   2.271   0.731   4.182 -0.6089 -0.4715 -0.3347
  152OSM   H10S16898   2.202   0.662   4.235 -1.4383  1.1767  0.8225
  152OSM   H10T16899   2.209   0.813   4.139  0.5361  0.5927 -0.0068
  152OSM   C11S16900   2.367   0.796   4.285  0.2229 -0.0403  0.2960
  152OSM   H11S16901   2.449   0.723   4.302  0.7865  0.4596 -0.2536
  152OSM   H11T16902   2.312   0.809   4.381 -0.2324 -3.4510  0.6448
  152OSM   C12S16903   2.442   0.921   4.236 -0.3958 -0.1702 -0.2023
  152OSM   H12S16904   2.457   0.901   4.128  1.2198 -0.0848 -0.0285
  152OSM   H12T16905   2.544   0.932   4.281  0.6962 -1.2610 -2.2655
  152OSM   C13S16906   2.374   1.056   4.254  0.3308 -0.4614  0.0620
  152OSM   H13S16907   2.266   1.061   4.230  0.4352  0.3839 -0.2647
  152OSM   H13T16908   2.397   1.144   4.189 -3.3294  0.6480  0.0677
  152OSM   C14S16909   2.377   1.107   4.403 -0.4127  0.6286  0.0461
  152OSM   H14S16910   2.483   1.106   4.433  0.4107  0.4724 -2.5580
  152OSM   H14T16911   2.313   1.043   4.468  0.7970 -1.8605 -1.0493
  152OSM   C15S16912   2.348   1.252   4.412 -0.5065  0.2288 -0.0477
  152OSM   H15S16913   2.401   1.314   4.337 -2.2678  2.2267  0.2558
  152OSM   H15T16914   2.391   1.289   4.508 -0.3224  0.9082 -0.3892
  152OSM   C16S16915   2.204   1.288   4.424 -0.1722 -0.2875 -0.8310
  152OSM   H16S16916   2.159   1.256   4.521  0.9461 -0.7317 -0.4433
  152OSM   H16T16917   2.164   1.230   4.338 -1.9051  1.3266 -1.1827
  152OSM   C17S16918   2.187   1.434   4.386  0.4685 -0.0700 -0.8831
  152OSM   H17S16919   2.234   1.468   4.291 -0.5973  2.1899 -0.6837
  152OSM   H17T16920   2.249   1.485   4.463 -1.6947 -0.0956  0.9887
  152OSM   C18S16921   2.041   1.474   4.418  0.1912  0.6456  0.6079
  152OSM   H18S16922   1.965   1.420   4.358 -0.2452  2.1774 -0.2788
  152OSM   H18T16923   2.030   1.584   4.405 -0.8366  0.4786 -0.0358
  152OSM   H18U16924   2.028   1.456   4.527  1.0380  1.5604  0.8786
  152OSM    C1F16925   2.724   0.328   3.563 -0.5518 -0.0750 -0.4484
  152OSM     OF16926   2.791   0.392   3.485 -0.5577  0.4186 -0.7135
  152OSM    C2F16927   2.784   0.279   3.692 -1.0002  0.2676  0.0361
  152OSM    H2F16928   2.791   0.169   3.680  0.6454  0.4200 -0.5274
  152OSM    H2G16929   2.705   0.304   3.767 -0.0154  0.6032  0.9846
  152OSM    C3F16930   2.909   0.361   3.730  0.0947  0.0387  0.0225
  152OSM    H3F16931   2.902   0.461   3.777  1.9705  0.0891  0.3008
  152OSM    H3G16932   2.980   0.381   3.646  1.9387 -2.1084  0.9735
  152OSM    C4F16933   3.000   0.275   3.823 -0.6817 -0.8766  0.0916
  152OSM    H4F16934   3.103   0.316   3.824 -1.3143  0.9008 -0.9817
  152OSM    H4G16935   2.999   0.168   3.793 -0.8266 -0.7408 -0.3987
  152OSM    C5F16936   2.943   0.281   3.970 -0.3021 -0.3955 -0.0906
  152OSM    H5F16937   2.832   0.286   3.978 -0.1164  0.7358  3.2545
  152OSM    H5G16938   2.980   0.379   4.008  1.6805 -1.4883  0.9517
  152OSM    C6F16939   3.005   0.183   4.058  0.0095 -0.7653 -0.6754
  152OSM    H6F16940   3.116   0.179   4.060  0.0577 -1.4112 -2.7151
  152OSM    H6G16941   2.961   0.081   4.051 -1.7932 -0.0858 -0.0244
  152OSM    C7F16942   2.960   0.211   4.203  0.3244 -0.0271 -0.1831
  152OSM    H7F16943   2.850   0.212   4.218  0.5528  1.5238  1.9236
  152OSM    H7G16944   2.977   0.317   4.231 -0.4013  0.7182 -2.4128
  152OSM    C8F16945   3.033   0.106   4.294 -0.2279  0.4890 -0.0179
  152OSM    H8F16946   3.141   0.110   4.266  0.4591 -0.7043  2.2044
  152OSM    H8G16947   2.996   0.003   4.272 -3.8566  0.8789  3.3273
  152OSM    C9F16948   3.010   0.128   4.443  0.6279  0.8026 -0.7144
  152OSM    H9F16949   2.924   0.189   4.472  0.0706 -0.5908  0.7509
  152OSM   C10F16950   3.113   0.118   4.533 -0.2896 -0.0724  0.2052
  152OSM   H10F16951   3.097   0.133   4.641  3.5936  2.2423  0.6123
  152OSM   C11F16952   3.249   0.067   4.507  0.3135 -0.5133  0.5869
  152OSM   H11F16953   3.257  -0.017   4.435 -0.8070  0.8186 -1.1812
  152OSM   H11G16954   3.304   0.033   4.598 -1.7706 -0.9014  1.7684
  152OSM   C12F16955   3.336   0.189   4.453 -0.3394  0.1403  0.3666
  152OSM   H12F16956   3.324   0.272   4.525  2.1354  2.9311 -2.1570
  152OSM   H12G16957   3.281   0.235   4.368  0.8935  3.6716  1.3061
  152OSM   C13F16958   3.486   0.166   4.437  0.5494  0.0708  1.9409
  152OSM   H13F16959   3.508   0.075   4.377 -1.3197  0.8375 -0.0526
  152OSM   H13G16960   3.525   0.162   4.541 -1.9058  0.3128  2.9259
  152OSM   C14F16961   3.560   0.280   4.358 -0.0822  0.3023 -0.8197
  152OSM   H14F16962   3.542   0.377   4.410 -0.4317  0.6184 -1.5211
  152OSM   H14G16963   3.505   0.284   4.262 -1.9948  1.2035  0.2510
  152OSM   C15F16964   3.713   0.234   4.349  0.2756 -0.3993 -0.0190
  152OSM   H15F16965   3.715   0.130   4.312  0.4068 -1.0778  1.8050
  152OSM   H15G16966   3.751   0.238   4.454  0.6406 -2.6837 -0.0213
  152OSM   C16F16967   3.799   0.316   4.247  0.3832 -0.4698  0.0698
  152OSM   H16F16968   3.790   0.422   4.277 -3.2834 -1.4954  3.4330
  152OSM   H16G16969   3.739   0.307   4.153  0.9626 -0.1037 -0.3380
  152OSM   C17F16970   3.932   0.250   4.214  0.3660  0.0198  0.5777
  152OSM   H17F16971   3.974   0.319   4.137  0.6922 -0.2965  0.4672
  152OSM   H17G16972   3.909   0.150   4.172  0.6808  0.1645  0.0397
  152OSM   C18F16973   4.022   0.243   4.335  0.1914  0.1558  0.5549
  152OSM   H18F16974   3.978   0.170   4.407  0.3161 -0.7361 -0.2534
  152OSM   H18G16975   4.047   0.341   4.380  0.0040  1.3242 -1.7808
  152OSM   H18H16976   4.115   0.196   4.295 -0.9825 -1.0075 -0.9012
  153OSM      N16977   6.272   6.418   2.268 -0.3113 -0.4831  0.2843
  153OSM    C1516978   6.185   6.349   2.364  0.7273  0.7074 -0.2018
  153OSM   H15A16979   6.107   6.412   2.405  1.9783  1.5688  0.9615
  153OSM   H15B16980   6.240   6.316   2.451 -1.1596 -0.4694  0.6237
  153OSM   H15C16981   6.137   6.267   2.311 -0.7473  2.2271 -1.3240
  153OSM    C1416982   6.354   6.310   2.203  0.2856 -0.1005  0.4008
  153OSM   H14A16983   6.434   6.338   2.136 -2.0658 -0.4258 -2.7633
  153OSM   H14B16984   6.284   6.252   2.146 -0.6539 -0.3227  1.7315
  153OSM   H14C16985   6.400   6.242   2.274  1.2585  1.9474  1.8673
  153OSM    C1316986   6.189   6.500   2.168 -0.3888 -0.5118  0.2534
  153OSM   H13A16987   6.124   6.575   2.209  0.8630  1.0559 -0.4997
  153OSM   H13B16988   6.131   6.425   2.116  0.1383 -2.1581  1.9346
  153OSM   H13C16989   6.256   6.541   2.094  0.0929 -1.0019  0.4093
  153OSM    C1216990   6.360   6.517   2.341 -0.6952 -0.0433 -1.0774
  153OSM   H12A16991   6.407   6.577   2.264 -0.7486  0.8453 -0.4231
  153OSM   H12B16992   6.439   6.476   2.402  0.4760  2.2867 -0.9247
  153OSM    C1116993   6.288   6.613   2.445  0.5326 -0.3213  0.4041
  153OSM   H11A16994   6.363   6.642   2.522  1.2988 -0.2737 -0.3588
  153OSM   H11B16995   6.212   6.552   2.498  0.1550 -1.5266 -1.4449
  153OSM      P16996   6.308   6.844   2.341  0.3503  0.0454  0.0083
  153OSM    O1316997   6.433   6.804   2.267 -0.0627  0.3090  0.0736
  153OSM    O1416998   6.216   6.944   2.279 -0.0199 -0.3588 -0.1191
  153OSM    O1116999   6.352   6.900   2.479 -0.4580 -0.3961 -0.5600
  153OSM    O1217000   6.220   6.719   2.377 -0.0455  0.3933 -0.4093
  153OSM    C1S17001   6.270   6.930   2.598 -0.6753  0.6971 -0.4126
  153OSM    H1S17002   6.180   6.865   2.600  0.8853 -1.5761 -0.6721
  153OSM    H1T17003   6.245   7.038   2.609 -1.3126  0.4667  0.5951
  153OSM     NF17004   6.289   6.898   2.848 -0.5598 -0.5769 -0.3803
  153OSM    HNF17005   6.312   6.976   2.905  0.7516  0.0984 -1.7542
  153OSM    C2S17006   6.368   6.902   2.725  0.2750  0.1605  1.1157
  153OSM    H2S17007   6.419   6.806   2.701 -0.9764  0.3054 -2.9432
  153OSM    C3S17008   6.481   7.007   2.730  0.5168  0.6503  0.3836
  153OSM    H3S17009   6.441   7.109   2.717  0.2404  0.3410 -1.5367
  153OSM     O317010   6.561   6.992   2.618 -0.4441 -0.0152  0.2186
  153OSM    HO317011   6.500   6.965   2.549 -0.0185  0.7836 -0.4898
  153OSM    C4S17012   6.562   6.997   2.856  0.0794  0.2188  0.2292
  153OSM    H4S17013   6.627   6.908   2.858 -1.4491 -0.9812 -0.8601
  153OSM    C5S17014   6.571   7.091   2.953  0.0885  0.3613 -0.5131
  153OSM    H5S17015   6.520   7.187   2.938 -0.6868 -0.3397 -2.6546
  153OSM    C6S17016   6.663   7.099   3.070 -0.2183  0.2457 -0.9851
  153OSM    H6S17017   6.632   7.023   3.146  0.2710  0.9388 -0.0691
  153OSM    H6T17018   6.642   7.194   3.123 -0.2595 -2.0991  3.7658
  153OSM    C7S17019   6.815   7.094   3.057 -0.3737  0.6410  0.3949
  153OSM    H7S17020   6.845   7.152   2.967  0.5001  2.6999  1.9377
  153OSM    H7T17021   6.855   6.992   3.040  0.0854  1.1041 -1.5987
  153OSM    C8S17022   6.884   7.163   3.170  0.0631 -0.3760 -0.4223
  153OSM    H8S17023   6.869   7.102   3.262  0.5852  1.9772  1.3070
  153OSM    H8T17024   6.840   7.263   3.189 -1.4253 -0.9187 -0.8305
  153OSM    C9S17025   7.038   7.158   3.144  0.1601 -0.1211 -0.2363
  153OSM    H9S17026   7.061   7.231   3.063 -0.9875 -0.6457 -1.0587
  153OSM    H9T17027   7.051   7.058   3.097 -0.1498  0.8056 -2.4283
  153OSM   C10S17028   7.133   7.189   3.264  0.5039 -0.4683  1.4808
  153OSM   H10S17029   7.234   7.149   3.238  0.4330 -0.1298  0.6316
  153OSM   H10T17030   7.106   7.136   3.357 -3.6864  0.0498  0.7629
  153OSM   C11S17031   7.140   7.342   3.291 -0.2159  0.2254  0.1295
  153OSM   H11S17032   7.118   7.406   3.203  1.5942  0.0794 -0.4870
  153OSM   H11T17033   7.250   7.355   3.301 -0.3435 -0.0338  2.3699
  153OSM   C12S17034   7.058   7.387   3.411  0.4833  0.3998  0.0410
  153OSM   H12S17035   6.959   7.370   3.365  0.7749 -1.3544  0.0030
  153OSM   H12T17036   7.066   7.497   3.429  2.2099  0.8208 -2.7097
  153OSM   C13S17037   7.080   7.316   3.544  0.1402  0.0086 -0.0352
  153OSM   H13S17038   7.191   7.320   3.556 -0.0936  3.0034  2.3875
  153OSM   H13T17039   7.047   7.210   3.537 -0.0337 -0.0518  1.3368
  153OSM   C14S17040   7.018   7.382   3.666 -0.3370  0.0675  0.6460
  153OSM   H14S17041   6.907   7.376   3.658 -0.3069 -3.4644  1.0476
  153OSM   H14T17042   7.055   7.486   3.677 -1.3856  0.5093  0.2208
  153OSM   C15S17043   7.041   7.296   3.784 -0.5584  0.4545  0.0064
  153OSM   H15S17044   7.151   7.286   3.796 -0.2125 -0.5846 -3.1733
  153OSM   H15T17045   7.010   7.190   3.771 -1.1427  0.7129 -0.7627
  153OSM   C16S17046   6.975   7.361   3.902 -1.1315  0.0154  0.2374
  153OSM   H16S17047   6.864   7.352   3.893 -0.9587  0.1769 -2.8452
  153OSM   H16T17048   7.000   7.469   3.893 -0.6049 -0.2347 -1.7969
  153OSM   C17S17049   7.026   7.301   4.034 -0.0701  0.2441 -0.4633
  153OSM   H17S17050   7.136   7.313   4.025 -0.3061  1.6185 -2.0592
  153OSM   H17T17051   6.992   7.195   4.041  1.1323 -0.0639  2.5614
  153OSM   C18S17052   6.972   7.378   4.160 -0.0409  0.7846 -0.5697
  153OSM   H18S17053   6.999   7.325   4.254 -0.6863  0.9556 -0.2834
  153OSM   H18T17054   6.861   7.381   4.159 -0.0673 -0.2311 -1.1247
  153OSM   H18U17055   7.023   7.477   4.166 -0.6163  1.2420 -2.6276
  153OSM    C1F17056   6.187   6.814   2.877 -0.3141 -0.7271 -0.8362
  153OSM     OF17057   6.134   6.735   2.803  0.4655  0.3654  0.4988
  153OSM    C2F17058   6.146   6.801   3.021 -0.2523 -0.2544  0.4437
  153OSM    H2F17059   6.135   6.900   3.070  0.2373 -0.6274  1.3271
  153OSM    H2G17060   6.229   6.758   3.080 -0.1753  2.5711  2.6177
  153OSM    C3F17061   6.017   6.724   3.056  0.4435  0.1045  0.3080
  153OSM    H3F17062   6.024   6.625   3.006 -0.2657 -0.0207  0.4363
  153OSM    H3G17063   5.924   6.770   3.015 -0.1942 -2.0038 -0.7919
  153OSM    C4F17064   6.001   6.702   3.213  0.3649 -0.2623  0.9556
  153OSM    H4F17065   6.106   6.684   3.245  1.7284  2.0691 -1.7563
  153OSM    H4G17066   5.937   6.617   3.244 -0.0254  0.2552  1.5851
  153OSM    C5F17067   5.950   6.826   3.284 -0.3334  0.7554  0.6469
  153OSM    H5F17068   5.846   6.851   3.255  1.0369  2.0162 -4.0406
  153OSM    H5G17069   6.017   6.910   3.257  1.0317 -0.5204 -0.0839
  153OSM    C6F17070   5.964   6.801   3.428 -0.0683 -0.2765 -0.3378
  153OSM    H6F17071   6.072   6.785   3.445  0.1310 -2.4196 -2.9488
  153OSM    H6G17072   5.917   6.703   3.450 -1.0648  0.2610 -0.0103
  153OSM    C7F17073   5.903   6.902   3.522  0.2268  0.4646 -0.1409
  153OSM    H7F17074   5.799   6.930   3.494 -0.2953 -0.6181  0.6210
  153OSM    H7G17075   5.966   6.993   3.525 -0.3016  0.8422 -0.2393
  153OSM    C8F17076   5.896   6.851   3.672 -0.3518 -0.1271 -0.3336
  153OSM    H8F17077   5.876   6.940   3.735 -0.0903 -1.6990  2.1169
  153OSM    H8G17078   5.999   6.818   3.699  0.2618  0.9441 -1.2821
  153OSM    C9F17079   5.799   6.729   3.694  0.1061 -0.5876  0.1721
  153OSM    H9F17080   5.837   6.641   3.640 -1.3644 -1.3465  0.3256
  153OSM   C10F17081   5.680   6.726   3.757 -0.0972  0.1390 -0.2249
  153OSM   H10F17082   5.624   6.631   3.759 -0.3564  0.3043  0.9538
  153OSM   C11F17083   5.625   6.837   3.838 -0.0931  0.3596 -0.1248
  153OSM   H11F17084   5.524   6.859   3.796 -0.8944 -2.9675 -0.3034
  153OSM   H11G17085   5.690   6.926   3.842 -1.6790  1.5615 -0.3701
  153OSM   C12F17086   5.595   6.795   3.986 -0.5331  0.1367 -0.3215
  153OSM   H12F17087   5.532   6.703   3.987 -0.7974  0.3191  1.2987
  153OSM   H12G17088   5.531   6.872   4.033  0.1646 -0.9063  2.5669
  153OSM   C13F17089   5.720   6.759   4.068 -0.0168  0.5320  0.0799
  153OSM   H13F17090   5.766   6.857   4.095 -1.2383  0.8101  1.2097
  153OSM   H13G17091   5.787   6.695   4.006 -0.0686  0.1615  0.4031
  153OSM   C14F17092   5.686   6.682   4.191 -0.0325  0.5885  0.2865
  153OSM   H14F17093   5.623   6.594   4.165  0.2331  0.8245 -1.2333
  153OSM   H14G17094   5.623   6.740   4.262 -0.3779 -0.0443  0.5068
  153OSM   C15F17095   5.803   6.638   4.283  0.0807  0.3949 -0.3387
  153OSM   H15F17096   5.869   6.724   4.307  3.0728 -1.7855 -0.2533
  153OSM   H15G17097   5.871   6.570   4.227  2.0451  2.4340 -0.5434
  153OSM   C16F17098   5.766   6.568   4.417 -0.2601  0.4743 -0.5023
  153OSM   H16F17099   5.695   6.485   4.398  0.1084 -0.1268  0.6221
  153OSM   H16G17100   5.704   6.640   4.475  0.0235  1.2640 -1.1586
  153OSM   C17F17101   5.881   6.516   4.496 -0.5446 -0.4392  0.4397
  153OSM   H17F17102   5.839   6.527   4.598 -0.5198  1.0909  0.3076
  153OSM   H17G17103   5.971   6.581   4.502 -0.5869 -0.4114  0.8003
  153OSM   C18F17104   5.926   6.375   4.456 -0.4451  0.0190  0.1017
  153OSM   H18F17105   5.964   6.382   4.351 -2.6197  1.6805 -0.6581
  153OSM   H18G17106   5.843   6.301   4.456  0.7152 -1.3275 -0.6541
  153OSM   H18H17107   6.005   6.335   4.522  0.3158 -2.2740 -2.0232
  154OSM      N17108   4.418   5.272   2.282 -0.0336 -0.2333 -0.3189
  154OSM    C1517109   4.313   5.202   2.198 -0.5851 -0.7534  0.2026
  154OSM   H15A17110   4.218   5.217   2.245  1.4619  1.2789  4.1902
  154OSM   H15B17111   4.321   5.096   2.184  1.5642 -0.6639  0.4279
  154OSM   H15C17112   4.309   5.258   2.105 -1.5206  1.2108  1.3557
  154OSM    C1417113   4.549   5.317   2.216  0.5360 -0.1192 -0.1464
  154OSM   H14A17114   4.619   5.342   2.293  0.0487  1.6017 -0.2264
  154OSM   H14B17115   4.530   5.402   2.152 -1.7925  0.2810  0.9660
  154OSM   H14C17116   4.591   5.237   2.156 -3.0543 -1.8858 -0.6232
  154OSM    C1317117   4.354   5.394   2.348  0.4802 -0.2610  0.4407
  154OSM   H13A17118   4.410   5.416   2.437  2.9948 -0.3235 -1.0360
  154OSM   H13B17119   4.252   5.363   2.367  1.5505 -3.6450  1.2236
  154OSM   H13C17120   4.352   5.478   2.280 -0.5964  1.6910  2.7376
  154OSM    C1217121   4.454   5.171   2.397 -0.0409  0.5861 -0.8815
  154OSM   H12A17122   4.489   5.079   2.353 -1.3080  1.5020 -4.0251
  154OSM   H12B17123   4.360   5.151   2.447  1.5433  1.3548  2.8002
  154OSM    C1117124   4.555   5.230   2.500 -0.1100 -0.5042 -0.3732
  154OSM   H11A17125   4.654   5.253   2.454 -0.4137  2.5597  0.2581
  154OSM   H11B17126   4.590   5.146   2.563  2.7465  0.6524 -0.2402
  154OSM      P17127   4.580   5.443   2.644  0.3312 -0.2241  0.1719
  154OSM    O1317128   4.721   5.435   2.594 -0.5814  0.1761 -0.4444
  154OSM    O1417129   4.519   5.574   2.623 -0.1140  0.5258  0.9852
  154OSM    O1117130   4.574   5.406   2.805 -0.1775 -0.0590 -0.1411
  154OSM    O1217131   4.496   5.323   2.589  0.2119  0.0617  0.0231
  154OSM    C1S17132   4.661   5.302   2.846 -0.6757  0.5189  0.4345
  154OSM    H1S17133   4.762   5.347   2.847 -0.4732  0.1788  2.9775
  154OSM    H1T17134   4.667   5.216   2.776  1.8387  0.9074  0.0735
  154OSM     NF17135   4.730   5.165   3.043 -0.0632 -0.6920 -0.1915
  154OSM    HNF17136   4.723   5.066   3.047  1.5100 -0.8058  3.3087
  154OSM    C2S17137   4.625   5.249   2.987 -0.6735  0.6437 -0.1970
  154OSM    H2S17138   4.619   5.337   3.054 -0.3733  0.3425  0.2268
  154OSM    C3S17139   4.484   5.177   2.992 -0.4834  0.1163  0.3008
  154OSM    H3S17140   4.506   5.072   2.964 -0.9775 -0.4900  2.1043
  154OSM     O317141   4.386   5.230   2.906  0.4446 -0.1063  0.8485
  154OSM    HO317142   4.428   5.311   2.875 -1.8276  0.5486 -0.6882
  154OSM    C4S17143   4.430   5.172   3.131  0.2828  0.2035 -0.2198
  154OSM    H4S17144   4.458   5.081   3.185  1.4818  0.2066 -0.8110
  154OSM    C5S17145   4.381   5.277   3.199 -0.1889  0.6484 -0.1236
  154OSM    H5S17146   4.398   5.379   3.161  1.6726  0.9030  1.2448
  154OSM    C6S17147   4.346   5.260   3.348 -0.2102  0.1628 -0.3226
  154OSM    H6S17148   4.265   5.185   3.362  0.6897 -0.4012  2.4555
  154OSM    H6T17149   4.317   5.361   3.384 -0.1667  0.6430 -1.5905
  154OSM    C7S17150   4.462   5.208   3.445  0.4050 -0.5232 -0.2852
  154OSM    H7S17151   4.505   5.113   3.406  0.7618 -1.2426  1.7031
  154OSM    H7T17152   4.423   5.192   3.548 -0.5202  1.0735 -0.3600
  154OSM    C8S17153   4.578   5.309   3.443 -1.0918  0.0419  0.7329
  154OSM    H8S17154   4.532   5.405   3.476 -1.1066  0.6028 -0.8451
  154OSM    H8T17155   4.617   5.328   3.341 -1.6450 -0.0471  0.5047
  154OSM    C9S17156   4.702   5.281   3.530 -0.2680 -0.2573 -0.5518
  154OSM    H9S17157   4.741   5.179   3.506 -0.1510  0.1046 -2.0373
  154OSM    H9T17158   4.663   5.281   3.633 -1.5180 -3.4854 -0.9070
  154OSM   C10S17159   4.827   5.374   3.502  0.4473 -0.1790 -0.1735
  154OSM   H10S17160   4.846   5.360   3.393 -1.4294 -2.0112 -0.3550
  154OSM   H10T17161   4.924   5.342   3.547  0.7409  1.5049  0.4400
  154OSM   C11S17162   4.788   5.525   3.523 -0.1016  0.5059  0.4269
  154OSM   H11S17163   4.779   5.539   3.632 -1.4435  0.5786  0.3307
  154OSM   H11T17164   4.684   5.547   3.490 -0.5882 -1.3605  0.5707
  154OSM   C12S17165   4.884   5.632   3.471 -0.5973  0.1867  0.1972
  154OSM   H12S17166   4.849   5.728   3.515 -1.5865 -1.0462  2.2655
  154OSM   H12T17167   4.856   5.640   3.364 -0.5584 -0.0542  0.1693
  154OSM   C13S17168   5.032   5.600   3.490 -0.2346  0.1136  0.2354
  154OSM   H13S17169   5.052   5.510   3.429  2.4900  1.4314 -1.0152
  154OSM   H13T17170   5.057   5.586   3.598  1.5521 -0.0635 -0.1648
  154OSM   C14S17171   5.118   5.713   3.440 -0.2267  0.6802 -0.6570
  154OSM   H14S17172   5.202   5.733   3.510  0.7131 -1.5087 -1.0733
  154OSM   H14T17173   5.062   5.808   3.432 -3.0024 -0.9195 -1.5755
  154OSM   C15S17174   5.180   5.681   3.308  0.0944 -0.0545 -0.4256
  154OSM   H15S17175   5.092   5.642   3.253 -0.3949 -1.3590  1.2042
  154OSM   H15T17176   5.263   5.607   3.310  0.1888  0.0615  0.9907
  154OSM   C16S17177   5.222   5.810   3.229  0.1058  0.1490  0.1219
  154OSM   H16S17178   5.282   5.862   3.307  0.3364 -0.8447  0.6222
  154OSM   H16T17179   5.129   5.866   3.206 -0.4265 -1.0880 -0.8536
  154OSM   C17S17180   5.299   5.772   3.103  0.7796 -0.5663  0.2736
  154OSM   H17S17181   5.235   5.717   3.031  1.6573 -0.7076 -0.4136
  154OSM   H17T17182   5.373   5.692   3.123 -0.3459 -1.6884  0.0848
  154OSM   C18S17183   5.356   5.894   3.033 -0.3878  0.1920 -0.2874
  154OSM   H18S17184   5.439   5.934   3.095 -0.4442 -0.5155  0.2425
  154OSM   H18T17185   5.279   5.966   2.999 -0.5204 -0.6037 -1.7468
  154OSM   H18U17186   5.396   5.858   2.935 -0.0140  0.6044 -0.2904
  154OSM    C1F17187   4.850   5.214   3.072  0.4337  0.4879 -0.0168
  154OSM     OF17188   4.873   5.337   3.081 -0.4752 -0.2803  0.4986
  154OSM    C2F17189   4.959   5.122   3.089 -0.2126  0.9100  0.3640
  154OSM    H2F17190   5.041   5.167   3.028 -0.3017 -0.1456 -0.5677
  154OSM    H2G17191   4.945   5.025   3.037  1.2830  0.5445  0.5906
  154OSM    C3F17192   5.010   5.103   3.237  0.7347  0.5314  1.2065
  154OSM    H3F17193   5.028   5.204   3.278  2.1442 -0.0242  2.0015
  154OSM    H3G17194   5.104   5.044   3.230 -0.4315 -1.2243 -3.0246
  154OSM    C4F17195   4.918   5.010   3.317  1.1880 -0.4822  0.4198
  154OSM    H4F17196   4.903   4.908   3.276 -2.1093  0.2879 -0.5861
  154OSM    H4G17197   4.815   5.052   3.319  0.8841 -1.2022  0.2040
  154OSM    C5F17198   4.974   4.992   3.461  1.0418  0.2459  0.0257
  154OSM    H5F17199   4.950   5.088   3.512 -1.5174 -0.2863 -0.0651
  154OSM    H5G17200   5.082   4.966   3.464  0.6042 -1.7021  0.3881
  154OSM    C6F17201   4.891   4.884   3.530 -0.8147 -0.2380  0.6397
  154OSM    H6F17202   4.903   4.778   3.496  0.3007 -0.2282  0.9562
  154OSM    H6G17203   4.786   4.919   3.531 -0.1638  2.2494 -2.6578
  154OSM    C7F17204   4.927   4.870   3.684  0.6087 -0.0861 -0.4315
  154OSM    H7F17205   5.037   4.852   3.686  1.0833  2.4619  1.7332
  154OSM    H7G17206   4.873   4.785   3.731  0.1779  0.6117  0.3429
  154OSM    C8F17207   4.912   4.996   3.764  1.0461 -0.0169 -0.6610
  154OSM    H8F17208   4.959   5.087   3.721  1.2364  0.3857  0.3664
  154OSM    H8G17209   4.967   4.990   3.861  1.5340 -3.5527 -1.0289
  154OSM    C9F17210   4.773   5.035   3.804 -0.0591 -0.3218  0.2794
  154OSM    H9F17211   4.716   5.101   3.738  0.1454 -0.0160  0.4050
  154OSM   C10F17212   4.714   5.002   3.922  0.4635  0.4205 -0.2623
  154OSM   H10F17213   4.615   5.047   3.943  0.0970  0.3144 -1.6569
  154OSM   C11F17214   4.774   4.913   4.035  0.5818 -0.1950  0.5792
  154OSM   H11F17215   4.876   4.952   4.057  0.2057  0.5063  1.1158
  154OSM   H11G17216   4.788   4.808   4.004  1.0837 -1.4371  4.4869
  154OSM   C12F17217   4.700   4.907   4.171 -0.1239  0.0702  0.5816
  154OSM   H12F17218   4.618   4.834   4.158 -0.5206  0.6558 -0.3115
  154OSM   H12G17219   4.652   5.005   4.194  0.2055  0.0412  1.4322
  154OSM   C13F17220   4.784   4.852   4.291  0.1082  0.3074  0.6105
  154OSM   H13F17221   4.883   4.902   4.287 -0.0577  0.6221  0.3809
  154OSM   H13G17222   4.789   4.742   4.278 -0.9567 -0.1369  3.2663
  154OSM   C14F17223   4.720   4.857   4.431 -0.3146 -0.1535 -0.1007
  154OSM   H14F17224   4.631   4.790   4.424  0.8154 -1.5732 -1.6504
  154OSM   H14G17225   4.689   4.960   4.459  0.0579 -0.0404 -0.0959
  154OSM   C15F17226   4.803   4.785   4.540 -0.1152 -0.0089  0.4340
  154OSM   H15F17227   4.885   4.850   4.578 -1.2672  1.4445  0.5396
  154OSM   H15G17228   4.840   4.686   4.507  2.9673  1.2135 -0.0319
  154OSM   C16F17229   4.722   4.775   4.667  0.0528 -0.1170 -0.0556
  154OSM   H16F17230   4.632   4.714   4.647 -0.2594  0.0886  0.7138
  154OSM   H16G17231   4.684   4.875   4.699  2.5173  1.1946 -0.8802
  154OSM   C17F17232   4.809   4.723   4.786 -0.2047  0.2944 -0.0736
  154OSM   H17F17233   4.885   4.804   4.802 -0.0479  0.1063  0.1449
  154OSM   H17G17234   4.841   4.621   4.758 -2.6543  0.0513 -2.2793
  154OSM   C18F17235   4.721   4.714   4.916  0.3840 -0.3962  0.0197
  154OSM   H18F17236   4.700   4.815   4.956  2.2073 -0.3790  1.0303
  154OSM   H18G17237   4.761   4.655   5.000  1.0548  0.2908  0.1950
  154OSM   H18H17238   4.627   4.665   4.882 -0.2999 -0.7047  2.2273
  155OSM      N17239   0.152   2.655   2.164 -0.5958  0.3702  0.3739
  155OSM    C1517240   0.298   2.677   2.161 -0.8975  0.0360  0.7276
  155OSM   H15A17241   0.316   2.760   2.228  1.4794 -0.2808  0.5685
  155OSM   H15B17242   0.329   2.708   2.062 -1.7054 -0.2465  0.3788
  155OSM   H15C17243   0.359   2.605   2.213  2.5164  2.2018  0.0775
  155OSM    C1417244   0.071   2.763   2.100  0.6868  0.5534 -0.3642
  155OSM   H14A17245  -0.036   2.750   2.104  0.8438 -1.2796 -0.9932
  155OSM   H14B17246   0.101   2.767   1.996  0.6606 -1.5297 -0.5023
  155OSM   H14C17247   0.092   2.859   2.144  0.4397  0.6487 -0.4520
  155OSM    C1317248   0.122   2.525   2.089  0.1899 -0.1122  0.0894
  155OSM   H13A17249   0.163   2.520   1.990  0.6648 -1.1518  0.3292
  155OSM   H13B17250   0.014   2.512   2.091  0.0994  0.4548 -0.5059
  155OSM   H13C17251   0.172   2.449   2.147 -0.4738  0.5259  1.5457
  155OSM    C1217252   0.104   2.631   2.303  0.9537 -0.3898  0.1013
  155OSM   H12A17253   0.161   2.551   2.348 -0.0521 -0.5327  1.1547
  155OSM   H12B17254   0.009   2.581   2.301  0.3570  0.7323 -0.4145
  155OSM    C1117255   0.094   2.752   2.393 -0.1841  0.3812  0.9231
  155OSM   H11A17256   0.043   2.719   2.486 -0.8137 -1.9933 -0.2029
  155OSM   H11B17257   0.028   2.825   2.340  0.0075 -1.2615 -1.7538
  155OSM      P17258   0.253   2.944   2.479 -0.4324  0.0327 -0.5279
  155OSM    O1317259   0.402   2.956   2.477 -0.4029 -0.2522  0.3401
  155OSM    O1417260   0.180   3.045   2.400  0.4187  0.4420  0.3118
  155OSM    O1117261   0.188   2.932   2.626  0.6366 -0.4631  0.2236
  155OSM    O1217262   0.222   2.802   2.422 -0.1237  0.2643  0.6167
  155OSM    C1S17263   0.223   2.830   2.723  0.7670  0.8433  0.6154
  155OSM    H1S17264   0.331   2.803   2.717  1.3928  2.8009  1.9568
  155OSM    H1T17265   0.163   2.738   2.705 -1.3159  2.0085  1.2992
  155OSM     NF17266   0.269   2.786   2.971 -0.2006  0.4961 -0.4200
  155OSM    HNF17267   0.210   2.735   3.033 -0.3001 -2.3048 -2.6327
  155OSM    C2S17268   0.208   2.874   2.877 -0.3486 -0.7418  0.6643
  155OSM    H2S17269   0.267   2.968   2.884  0.6027 -1.2844  0.0795
  155OSM    C3S17270   0.068   2.929   2.917  0.5614 -0.1736 -0.1723
  155OSM    H3S17271   0.009   2.835   2.909  1.7371 -0.8212 -1.8238
  155OSM     O317272  -0.002   3.019   2.827  0.3375 -0.3152  0.7308
  155OSM    HO317273   0.032   3.000   2.740 -1.4859  1.7996 -0.5483
  155OSM    C4S17274   0.069   2.980   3.060  0.0470  0.4659  0.2985
  155OSM    H4S17275   0.051   2.902   3.134  2.7463 -0.7604 -0.2360
  155OSM    C5S17276   0.092   3.106   3.094  0.1401  0.2558  0.4629
  155OSM    H5S17277   0.095   3.182   3.016  2.0022  1.9436  2.0752
  155OSM    C6S17278   0.086   3.152   3.239  0.9656 -0.1524  0.5124
  155OSM    H6S17279  -0.010   3.206   3.255  0.7159 -0.4914  0.1653
  155OSM    H6T17280   0.159   3.235   3.255  0.9362 -0.1456  0.6144
  155OSM    C7S17281   0.115   3.046   3.350  0.2953  0.0279 -0.2154
  155OSM    H7S17282   0.225   3.030   3.344  0.6626  0.6084  3.1128
  155OSM    H7T17283   0.059   2.953   3.325  0.3838  0.3183 -1.5609
  155OSM    C8S17284   0.102   3.084   3.503  0.0329  0.6804  0.6127
  155OSM    H8S17285  -0.001   3.122   3.525  0.3107  2.0314 -0.2815
  155OSM    H8T17286   0.173   3.167   3.526  0.1978  0.8584 -0.4579
  155OSM    C9S17287   0.118   2.971   3.604 -0.0334 -0.1009 -0.6900
  155OSM    H9S17288   0.225   2.942   3.595 -0.3265 -1.9478  0.9688
  155OSM    H9T17289   0.051   2.888   3.570 -0.0389 -0.6926  0.6956
  155OSM   C10S17290   0.092   3.014   3.748 -0.0026 -0.0785  0.3548
  155OSM   H10S17291  -0.014   3.037   3.773 -0.2558 -1.2413  0.3850
  155OSM   H10T17292   0.140   3.114   3.758  0.2471 -0.2766  1.2261
  155OSM   C11S17293   0.166   2.932   3.858  0.0565  0.7470  0.4021
  155OSM   H11S17294   0.150   2.965   3.962  2.4162 -2.3170  1.9144
  155OSM   H11T17295   0.272   2.953   3.834  0.0046 -1.6291 -2.7247
  155OSM   C12S17296   0.142   2.773   3.851 -0.6775 -0.2568 -0.5072
  155OSM   H12S17297   0.193   2.721   3.767 -0.5481 -0.7547 -0.1231
  155OSM   H12T17298   0.035   2.750   3.830 -0.3006 -1.4593 -1.2022
  155OSM   C13S17299   0.174   2.701   3.982 -0.2366 -0.0320  0.2719
  155OSM   H13S17300   0.158   2.591   3.980  2.4911 -0.5212  1.2478
  155OSM   H13T17301   0.106   2.752   4.055 -3.5290  0.0583 -2.5962
  155OSM   C14S17302   0.316   2.724   4.039  0.1550  0.5369 -0.2486
  155OSM   H14S17303   0.315   2.832   4.068  2.3175 -0.0995  2.7787
  155OSM   H14T17304   0.379   2.708   3.949 -2.9747  0.2303 -2.5365
  155OSM   C15S17305   0.349   2.659   4.169 -0.7044  0.3651  0.3406
  155OSM   H15S17306   0.319   2.552   4.176 -1.4701  0.6888  2.3821
  155OSM   H15T17307   0.298   2.706   4.255  1.1757  2.8054  0.2393
  155OSM   C16S17308   0.499   2.666   4.209  0.0840  0.5400  0.5796
  155OSM   H16S17309   0.524   2.771   4.233  0.7603  0.6996 -0.7086
  155OSM   H16T17310   0.571   2.639   4.128  1.4062  4.4276  0.2721
  155OSM   C17S17311   0.541   2.580   4.336  0.4840 -0.7160 -0.0577
  155OSM   H17S17312   0.496   2.480   4.318 -0.1162 -0.6530  1.0143
  155OSM   H17T17313   0.492   2.622   4.426  1.6358  0.6421 -0.0265
  155OSM   C18S17314   0.692   2.582   4.361  0.9775  0.0135  0.9468
  155OSM   H18S17315   0.737   2.682   4.354 -0.2184  0.4417 -1.5675
  155OSM   H18T17316   0.735   2.502   4.297 -0.7388 -1.1799  1.1837
  155OSM   H18U17317   0.715   2.537   4.460 -2.0763 -1.1797  1.2483
  155OSM    C1F17318   0.390   2.735   2.973 -0.2481  0.0979  0.0222
  155OSM     OF17319   0.476   2.775   2.896 -0.3251  0.0252 -0.0714
  155OSM    C2F17320   0.418   2.633   3.078 -0.2380  0.1955 -0.2345
  155OSM    H2F17321   0.484   2.561   3.025 -2.0514 -2.5794  1.0645
  155OSM    H2G17322   0.328   2.575   3.106  0.3072 -0.1880  0.7612
  155OSM    C3F17323   0.472   2.694   3.212  0.5829  0.4134 -0.0999
  155OSM    H3F17324   0.575   2.731   3.193  1.7921 -2.1840  0.9165
  155OSM    H3G17325   0.475   2.604   3.276  1.4000 -0.7587 -1.7008
  155OSM    C4F17326   0.391   2.798   3.287 -0.1767 -0.7466  0.2235
  155OSM    H4F17327   0.284   2.769   3.298 -0.1954 -1.0474 -0.6910
  155OSM    H4G17328   0.386   2.896   3.236 -0.9972  0.4543  2.4655
  155OSM    C5F17329   0.449   2.826   3.426 -0.4432 -0.3529 -0.8099
  155OSM    H5F17330   0.407   2.922   3.464 -0.5914 -1.6123  2.6369
  155OSM    H5G17331   0.559   2.830   3.415 -0.3177 -0.5618  0.2270
  155OSM    C6F17332   0.416   2.723   3.532 -0.4572 -0.0356  0.0980
  155OSM    H6F17333   0.456   2.623   3.504  0.2863  0.2574  0.0836
  155OSM    H6G17334   0.305   2.729   3.529 -0.4513 -0.4376 -1.4502
  155OSM    C7F17335   0.460   2.769   3.668  0.3926  0.7744 -0.4449
  155OSM    H7F17336   0.409   2.715   3.751  0.6729  1.7247  0.3684
  155OSM    H7G17337   0.425   2.872   3.688 -0.9381 -0.2182  3.0489
  155OSM    C8F17338   0.614   2.753   3.683  0.2895  0.3936 -0.1740
  155OSM    H8F17339   0.652   2.829   3.611  1.0317  0.5483  0.3692
  155OSM    H8G17340   0.627   2.646   3.659 -1.9037 -0.0429  0.3163
  155OSM    C9F17341   0.651   2.786   3.826 -0.4437 -0.1786 -0.2860
  155OSM    H9F17342   0.609   2.721   3.904  0.2261  0.5585  0.7349
  155OSM   C10F17343   0.717   2.896   3.868  0.0006  0.4727 -0.3926
  155OSM   H10F17344   0.735   2.910   3.976 -2.5347  2.7038 -0.1561
  155OSM   C11F17345   0.777   3.008   3.784  0.2864 -0.0633  0.3959
  155OSM   H11F17346   0.713   3.099   3.780  1.4160  0.7253 -0.3084
  155OSM   H11G17347   0.779   2.976   3.677  1.3818  2.4052 -0.4054
  155OSM   C12F17348   0.924   3.041   3.827  1.0749  0.3240  0.3583
  155OSM   H12F17349   0.951   3.116   3.749  0.6449  0.1021 -0.0101
  155OSM   H12G17350   0.994   2.958   3.804 -1.8001 -2.2561  0.2619
  155OSM   C13F17351   0.927   3.087   3.968  0.1847 -0.2710  0.2602
  155OSM   H13F17352   0.916   3.011   4.049 -1.2397 -0.0161  0.3375
  155OSM   H13G17353   0.838   3.154   3.968  0.9768  0.8214  1.3186
  155OSM   C14F17354   1.044   3.178   3.996 -0.5540 -0.2965  0.1381
  155OSM   H14F17355   1.031   3.266   3.930 -2.7193  0.3476  1.3367
  155OSM   H14G17356   1.140   3.128   3.971 -0.2092  0.6054 -0.3782
  155OSM   C15F17357   1.066   3.234   4.141 -0.4549  0.1262  0.5710
  155OSM   H15F17358   1.159   3.295   4.133  1.1368 -2.3773 -1.2347
  155OSM   H15G17359   1.091   3.156   4.215  1.5812 -0.2236 -0.4121
  155OSM   C16F17360   0.956   3.333   4.197  0.1983  0.2089 -0.0138
  155OSM   H16F17361   0.995   3.355   4.299  0.9530  1.3791 -0.5305
  155OSM   H16G17362   0.860   3.277   4.204  0.6400 -0.3903  1.9458
  155OSM   C17F17363   0.938   3.457   4.115  0.0204  0.2499  0.0557
  155OSM   H17F17364   0.918   3.429   4.009 -0.5194 -1.6392  0.6322
  155OSM   H17G17365   1.037   3.508   4.116  1.0505 -1.4309 -2.8917
  155OSM   C18F17366   0.831   3.556   4.170 -0.0679  0.1002 -0.0570
  155OSM   H18F17367   0.852   3.592   4.273 -1.7769 -0.3915  0.5097
  155OSM   H18G17368   0.732   3.506   4.167 -0.0879  0.1732 -2.5215
  155OSM   H18H17369   0.830   3.655   4.119 -1.1732  1.0322  1.6608
  156OSM      N17370   3.239   6.458   2.687  0.4211 -0.2968 -0.7736
  156OSM    C1517371   3.191   6.342   2.778  0.3083 -0.6381  0.3557
  156OSM   H15A17372   3.104   6.295   2.735 -0.1143 -1.3405  1.9393
  156OSM   H15B17373   3.163   6.385   2.873 -4.7480  1.7981 -1.8306
  156OSM   H15C17374   3.260   6.260   2.789 -0.1385 -1.5810 -2.7021
  156OSM    C1417375   3.142   6.566   2.680  0.1478 -0.0210 -0.1712
  156OSM   H14A17376   3.133   6.624   2.771 -0.8495 -2.9892  1.8008
  156OSM   H14B17377   3.041   6.528   2.669  0.0835  0.6992 -2.4259
  156OSM   H14C17378   3.159   6.626   2.592  1.5592 -0.0416  0.0774
  156OSM    C1317379   3.367   6.505   2.732 -0.4875  0.5103  0.0115
  156OSM   H13A17380   3.439   6.429   2.705 -1.1040  0.2321 -0.8922
  156OSM   H13B17381   3.355   6.533   2.836 -1.7944  0.7350 -0.1793
  156OSM   H13C17382   3.400   6.588   2.671  0.7366  0.8728  1.1237
  156OSM    C1217383   3.265   6.395   2.548  0.3992 -0.0020  0.3883
  156OSM   H12A17384   3.280   6.470   2.471 -2.9679  0.7348  0.3232
  156OSM   H12B17385   3.171   6.352   2.517  0.3313 -0.4212  1.1626
  156OSM    C1117386   3.374   6.281   2.542 -0.1548 -0.5388  0.4407
  156OSM   H11A17387   3.476   6.322   2.558  0.2097 -1.4415  0.5002
  156OSM   H11B17388   3.383   6.242   2.438 -1.0394  3.4126 -1.3403
  156OSM      P17389   3.241   6.057   2.586 -0.3513  0.3458 -0.2426
  156OSM    O1317390   3.115   6.122   2.553 -0.3468 -0.4749  1.0731
  156OSM    O1417391   3.301   5.963   2.489 -0.5568  0.0659  0.7959
  156OSM    O1117392   3.220   5.980   2.725 -0.6610 -0.5505  0.4203
  156OSM    O1217393   3.355   6.165   2.623 -0.0909 -0.1795  0.1271
  156OSM    C1S17394   3.330   5.981   2.814 -0.0171  0.8907  1.6599
  156OSM    H1S17395   3.362   6.085   2.834  0.1247  1.0955  0.4295
  156OSM    H1T17396   3.407   5.916   2.766 -2.8204 -1.6443  0.2719
  156OSM     NF17397   3.370   5.934   3.062  0.4139 -0.1626  0.1938
  156OSM    HNF17398   3.437   5.868   3.095 -0.2802 -2.4659 -2.5974
  156OSM    C2S17399   3.283   5.906   2.942 -0.2401  0.5367 -0.6250
  156OSM    H2S17400   3.181   5.939   2.969 -0.4216 -0.9097  0.6136
  156OSM    C3S17401   3.261   5.754   2.919  0.5377 -0.4303  0.1234
  156OSM    H3S17402   3.364   5.725   2.890 -0.1070 -0.1259 -2.7959
  156OSM     O317403   3.197   5.725   2.796  0.2655  0.4555  0.4406
  156OSM    HO317404   3.201   5.811   2.754  0.4876  0.3725  0.2956
  156OSM    C4S17405   3.209   5.683   3.033 -0.1957 -0.1964 -1.2363
  156OSM    H4S17406   3.102   5.694   3.055 -0.2779 -2.7112 -0.0232
  156OSM    C5S17407   3.263   5.573   3.090  0.8876  0.4086 -0.0235
  156OSM    H5S17408   3.356   5.532   3.049 -0.4710 -0.9458 -1.9553
  156OSM    C6S17409   3.185   5.493   3.197  0.0082 -1.0064  0.1044
  156OSM    H6S17410   3.199   5.384   3.184 -0.5998 -1.4183  2.3925
  156OSM    H6T17411   3.075   5.508   3.201  0.2454  1.0844 -0.0010
  156OSM    C7S17412   3.223   5.541   3.341  0.5474  0.0095  0.2952
  156OSM    H7S17413   3.221   5.652   3.338  0.5936 -0.0173 -1.1356
  156OSM    H7T17414   3.324   5.505   3.372  0.7423  1.1833  1.1212
  156OSM    C8S17415   3.121   5.486   3.444 -0.5245  0.7652  0.1727
  156OSM    H8S17416   3.103   5.378   3.427 -3.3302  0.8407  1.9037
  156OSM    H8T17417   3.022   5.536   3.442 -0.8076  0.2190  0.2474
  156OSM    C9S17418   3.183   5.503   3.580 -0.3106 -0.2377  0.1569
  156OSM    H9S17419   3.218   5.607   3.597 -1.5608 -0.0571  2.0213
  156OSM    H9T17420   3.269   5.436   3.596  0.5138  1.2095  2.2466
  156OSM   C10S17421   3.085   5.473   3.697 -0.5925  0.7345  0.2355
  156OSM   H10S17422   3.080   5.362   3.702  3.4227  0.4143  0.9807
  156OSM   H10T17423   2.991   5.527   3.673  0.0096  1.4022 -0.6678
  156OSM   C11S17424   3.144   5.518   3.835  1.2793  0.0952 -0.0110
  156OSM   H11S17425   3.253   5.502   3.846  1.1346 -2.5152 -1.6088
  156OSM   H11T17426   3.087   5.469   3.917 -0.4712  0.8697 -0.6986
  156OSM   C12S17427   3.117   5.673   3.869 -0.0880 -0.2616 -0.4024
  156OSM   H12S17428   3.023   5.714   3.826  0.6593 -0.9437 -2.8489
  156OSM   H12T17429   3.196   5.732   3.819  0.3183  1.7171  2.3228
  156OSM   C13S17430   3.129   5.710   4.019 -1.0458  0.2905  0.5977
  156OSM   H13S17431   3.217   5.649   4.049 -0.3205  0.2680 -1.4272
  156OSM   H13T17432   3.033   5.683   4.069  0.0641  0.8937  3.2407
  156OSM   C14S17433   3.163   5.860   4.047  0.3584 -0.6118  0.3140
  156OSM   H14S17434   3.090   5.937   4.013  1.1222  0.3313  0.7579
  156OSM   H14T17435   3.262   5.888   4.006 -0.3984  2.9223  0.5949
  156OSM   C15S17436   3.167   5.886   4.199  0.3124 -0.1745  0.1677
  156OSM   H15S17437   3.205   5.986   4.225 -1.5062  0.9949 -1.3512
  156OSM   H15T17438   3.229   5.815   4.258  2.9423  1.3080 -0.6841
  156OSM   C16S17439   3.030   5.895   4.258  0.2458 -0.1851 -0.3701
  156OSM   H16S17440   2.988   5.792   4.266  0.8045 -0.3743  0.1801
  156OSM   H16T17441   2.959   5.941   4.186  0.0455 -1.2679 -0.8769
  156OSM   C17S17442   3.026   5.965   4.390  0.7558 -0.5385 -0.0841
  156OSM   H17S17443   2.920   5.979   4.419  0.6746  3.0100 -1.6208
  156OSM   H17T17444   3.063   6.069   4.387 -1.5317  0.4284  2.2275
  156OSM   C18S17445   3.113   5.919   4.503  0.7718  0.4944  0.0376
  156OSM   H18S17446   3.078   5.825   4.550  1.9171 -0.1525 -0.3425
  156OSM   H18T17447   3.102   5.996   4.582  1.1519  1.5977 -0.9558
  156OSM   H18U17448   3.222   5.924   4.480  0.9542  3.0755  1.1210
  156OSM    C1F17449   3.355   6.054   3.116 -0.3893  0.1574 -0.7027
  156OSM     OF17450   3.270   6.131   3.080  0.1335  0.0103 -0.1192
  156OSM    C2F17451   3.451   6.092   3.228  0.1741  0.2990  0.0328
  156OSM    H2F17452   3.526   6.152   3.172 -0.0522  0.8399  0.3073
  156OSM    H2G17453   3.507   6.003   3.265 -3.4960 -1.4994  1.7524
  156OSM    C3F17454   3.384   6.149   3.348  0.5835  0.7682  0.3649
  156OSM    H3F17455   3.321   6.234   3.316 -4.9295 -1.8474  2.9007
  156OSM    H3G17456   3.459   6.185   3.422  0.2503  2.3637 -0.0384
  156OSM    C4F17457   3.294   6.049   3.428 -0.2525 -0.1603  0.1814
  156OSM    H4F17458   3.353   5.955   3.417 -0.2621 -0.1655  0.1770
  156OSM    H4G17459   3.200   6.043   3.369  0.9668 -1.8026 -1.7072
  156OSM    C5F17460   3.257   6.074   3.573 -0.1636  0.6131  0.1768
  156OSM    H5F17461   3.217   5.977   3.612 -0.5670  0.6690 -0.0857
  156OSM    H5G17462   3.172   6.145   3.560 -0.5209  0.4579  1.4718
  156OSM    C6F17463   3.370   6.122   3.655 -0.4757  0.0923 -0.2200
  156OSM    H6F17464   3.396   6.229   3.639 -1.6052  0.8566  2.3694
  156OSM    H6G17465   3.462   6.062   3.641 -0.1721  0.5078 -0.0411
  156OSM    C7F17466   3.326   6.130   3.801 -0.3186 -0.0505  0.5480
  156OSM    H7F17467   3.292   6.025   3.814 -1.2855 -0.0865 -1.6703
  156OSM    H7G17468   3.236   6.195   3.804  1.7409  3.3173 -2.1417
  156OSM    C8F17469   3.422   6.181   3.905 -0.0083  1.0855  0.1586
  156OSM    H8F17470   3.443   6.289   3.892  1.0503  1.0048  1.1038
  156OSM    H8G17471   3.508   6.115   3.880 -0.2609  0.9980 -0.5220
  156OSM    C9F17472   3.378   6.163   4.047  0.6542  0.0695  0.1204
  156OSM    H9F17473   3.282   6.216   4.056  0.7826  0.2119  0.6984
  156OSM   C10F17474   3.437   6.099   4.151  0.0172  0.0930  0.7968
  156OSM   H10F17475   3.387   6.097   4.249  0.5058  0.1705  1.0500
  156OSM   C11F17476   3.567   6.034   4.139  0.1074  0.1435  0.4258
  156OSM   H11F17477   3.626   6.088   4.216 -1.5348  1.7489  0.6176
  156OSM   H11G17478   3.624   6.036   4.043  0.2938  1.2340  0.5511
  156OSM   C12F17479   3.549   5.883   4.182 -0.2180 -0.4065 -0.3126
  156OSM   H12F17480   3.619   5.820   4.124  0.9579  0.0815  0.5542
  156OSM   H12G17481   3.454   5.834   4.152 -0.3453 -0.4633  0.1727
  156OSM   C13F17482   3.576   5.863   4.337  0.1657  0.5334 -0.2345
  156OSM   H13F17483   3.532   5.949   4.392  2.0660 -0.1946  2.6200
  156OSM   H13G17484   3.686   5.872   4.355  0.4260 -0.8551 -1.0238
  156OSM   C14F17485   3.508   5.737   4.407 -0.2852 -0.1608  0.6505
  156OSM   H14F17486   3.565   5.643   4.388 -1.6248 -0.6098 -1.5315
  156OSM   H14G17487   3.412   5.722   4.352 -0.5696 -0.9239  1.3313
  156OSM   C15F17488   3.484   5.765   4.556  0.4507  0.1569  0.1140
  156OSM   H15F17489   3.374   5.762   4.566  0.5212  1.0896  1.3159
  156OSM   H15G17490   3.525   5.866   4.574  2.8390 -0.3715 -1.7495
  156OSM   C16F17491   3.552   5.662   4.654  0.4787  0.0875  0.8097
  156OSM   H16F17492   3.663   5.664   4.649  0.4772  1.0057  0.9781
  156OSM   H16G17493   3.519   5.558   4.631  1.2439  0.2432 -1.1842
  156OSM   C17F17494   3.517   5.702   4.802  0.0294 -0.3078  0.9311
  156OSM   H17F17495   3.553   5.806   4.810 -2.1022  0.5849 -0.1883
  156OSM   H17G17496   3.575   5.631   4.865  0.0445 -0.0066  1.2609
  156OSM   C18F17497   3.370   5.718   4.838 -0.6455  0.5722 -0.4143
  156OSM   H18F17498   3.331   5.820   4.817  0.1198  1.2131  1.1736
  156OSM   H18G17499   3.356   5.705   4.947  1.5435 -2.6088 -0.3541
  156OSM   H18H17500   3.307   5.644   4.785 -1.4988  1.6908 -1.0030
  157OSM      N17501   2.948   2.061   2.696  0.3172 -0.5134 -0.4054
  157OSM    C1517502   3.066   1.995   2.757  0.2943 -0.0363 -0.2812
  157OSM   H15A17503   3.085   1.904   2.703 -1.9274 -2.1064  2.1472
  157OSM   H15B17504   3.039   1.965   2.857  1.1207  0.0425 -0.0231
  157OSM   H15C17505   3.160   2.048   2.756 -0.0177  0.5239 -1.0360
  157OSM    C1417506   2.964   2.064   2.542  0.2161 -0.9198  0.2538
  157OSM   H14A17507   3.059   2.102   2.508 -0.2603 -0.8002 -0.9887
  157OSM   H14B17508   2.893   2.119   2.482  1.1152 -1.7045 -1.6185
  157OSM   H14C17509   2.962   1.962   2.506 -2.1440 -0.9866  0.4449
  157OSM    C1317510   2.835   1.975   2.725  0.8077  1.0051 -0.8661
  157OSM   H13A17511   2.803   1.975   2.829  0.0118 -2.4246 -1.0034
  157OSM   H13B17512   2.853   1.869   2.716 -1.3828  0.5069 -0.0900
  157OSM   H13C17513   2.750   1.989   2.661 -0.3403 -2.3844 -0.2733
  157OSM    C1217514   2.940   2.201   2.764  0.0986 -0.0427 -0.4772
  157OSM   H12A17515   2.863   2.257   2.712 -2.8249 -3.4112 -0.1124
  157OSM   H12B17516   3.037   2.245   2.746  0.1691 -0.5975 -1.5149
  157OSM    C1117517   2.911   2.224   2.916 -0.7790 -0.1683  0.2397
  157OSM   H11A17518   2.923   2.330   2.947  0.5012 -0.0189 -0.7002
  157OSM   H11B17519   2.992   2.165   2.965  2.0752 -1.3971 -5.1837
  157OSM      P17520   2.653   2.239   2.971  0.4252  0.2895 -0.3750
  157OSM    O1317521   2.668   2.375   2.912  0.3328 -0.3776 -0.2139
  157OSM    O1417522   2.543   2.154   2.932 -0.2513 -0.5875  0.1436
  157OSM    O1117523   2.655   2.255   3.133 -0.2887 -0.5822 -0.4166
  157OSM    O1217524   2.790   2.161   2.953 -0.0027 -0.1300  0.4277
  157OSM    C1S17525   2.671   2.137   3.210  0.1634 -0.5097  0.0135
  157OSM    H1S17526   2.767   2.089   3.180 -0.7043  0.4899 -5.4501
  157OSM    H1T17527   2.587   2.066   3.191  0.4260 -0.7023 -0.4536
  157OSM     NF17528   2.680   2.032   3.437  0.3948 -0.0320  0.1536
  157OSM    HNF17529   2.591   2.003   3.471  0.3972 -0.1592  0.0540
  157OSM    C2S17530   2.668   2.159   3.368 -0.0820 -0.0563 -0.0418
  157OSM    H2S17531   2.761   2.207   3.405 -0.6768  3.0021 -2.1356
  157OSM    C3S17532   2.547   2.249   3.410 -0.3951  0.0978 -0.3577
  157OSM    H3S17533   2.458   2.205   3.360 -1.2862  0.6358  0.7147
  157OSM     O317534   2.575   2.386   3.365  0.1052 -0.1714 -0.3399
  157OSM    HO317535   2.648   2.372   3.303  0.2398 -1.3496  0.0635
  157OSM    C4S17536   2.531   2.260   3.562  0.3069  0.8249  0.0099
  157OSM    H4S17537   2.622   2.292   3.615  0.6211 -1.4358  0.9432
  157OSM    C5S17538   2.420   2.229   3.628 -0.3001  0.1722  0.2386
  157OSM    H5S17539   2.332   2.201   3.569 -0.0157  1.3624 -0.7887
  157OSM    C6S17540   2.398   2.226   3.778 -0.0874 -0.0486  0.8241
  157OSM    H6S17541   2.330   2.141   3.798 -0.9353 -0.1779 -2.1293
  157OSM    H6T17542   2.327   2.304   3.813 -1.5777 -0.3167 -1.3677
  157OSM    C7S17543   2.530   2.222   3.860 -0.0182 -0.0726 -0.1721
  157OSM    H7S17544   2.582   2.318   3.841 -1.6863  1.1406  1.1103
  157OSM    H7T17545   2.606   2.144   3.835  0.7903 -0.1336  2.2503
  157OSM    C8S17546   2.492   2.212   4.009  0.0890 -0.6904  0.7288
  157OSM    H8S17547   2.458   2.108   4.028  1.4267 -0.9982  1.6047
  157OSM    H8T17548   2.411   2.286   4.025 -1.9771 -3.0855  2.0557
  157OSM    C9S17549   2.616   2.232   4.101 -0.0800 -0.2983 -0.6753
  157OSM    H9S17550   2.650   2.337   4.103 -1.7096  0.2509  0.6555
  157OSM    H9T17551   2.686   2.158   4.056 -0.2393  0.4220 -2.1777
  157OSM   C10S17552   2.579   2.194   4.246 -0.3059 -0.6057 -0.2408
  157OSM   H10S17553   2.668   2.156   4.301 -1.0625  1.8476  2.9785
  157OSM   H10T17554   2.498   2.118   4.248 -0.2102 -0.6906  0.7336
  157OSM   C11S17555   2.530   2.310   4.334 -0.0972 -0.1656  0.0060
  157OSM   H11S17556   2.434   2.347   4.292  1.1858  4.4651  0.5997
  157OSM   H11T17557   2.601   2.395   4.320 -0.0635 -0.3686 -1.2245
  157OSM   C12S17558   2.516   2.294   4.483 -0.2207  0.1005 -0.0881
  157OSM   H12S17559   2.448   2.207   4.499 -0.4880  0.4233  0.5847
  157OSM   H12T17560   2.471   2.385   4.527 -2.1054 -1.1407  0.6976
  157OSM   C13S17561   2.651   2.280   4.565 -0.9878 -0.4825  0.0167
  157OSM   H13S17562   2.728   2.349   4.525 -0.8136  0.2100  1.4772
  157OSM   H13T17563   2.685   2.174   4.557  3.8259  0.9093 -1.1553
  157OSM   C14S17564   2.634   2.329   4.714 -0.2495  0.1216 -0.1437
  157OSM   H14S17565   2.604   2.436   4.717  0.1838  0.2947 -1.4096
  157OSM   H14T17566   2.728   2.318   4.772  0.4716  2.3719 -0.7827
  157OSM   C15S17567   2.528   2.256   4.796 -0.4702  0.2025  0.0204
  157OSM   H15S17568   2.427   2.273   4.752 -0.8099 -0.4391  0.5314
  157OSM   H15T17569   2.525   2.299   4.898  2.4436  2.3659 -0.6678
  157OSM   C16S17570   2.560   2.104   4.808 -0.3090 -0.1679  0.3620
  157OSM   H16S17571   2.662   2.098   4.852 -0.1977 -0.1429  0.1105
  157OSM   H16T17572   2.560   2.062   4.705  0.4672  0.2732  0.1744
  157OSM   C17S17573   2.472   2.024   4.896  0.0586 -0.6878  0.7905
  157OSM   H17S17574   2.497   2.062   4.998  3.4759 -0.1242 -0.1404
  157OSM   H17T17575   2.509   1.921   4.873 -0.1427 -0.7105  0.5679
  157OSM   C18S17576   2.324   2.041   4.859 -0.0522  0.1166  0.0138
  157OSM   H18S17577   2.263   1.971   4.921 -0.0163 -0.0065 -0.0878
  157OSM   H18T17578   2.314   2.008   4.753  0.4315 -1.5668  0.4566
  157OSM   H18U17579   2.298   2.146   4.881  0.8433  0.8587 -2.2495
  157OSM    C1F17580   2.782   1.949   3.442  0.2174 -0.6199  0.6196
  157OSM     OF17581   2.871   1.960   3.361  0.4955 -0.3009  0.0489
  157OSM    C2F17582   2.769   1.832   3.538  0.8718  0.0804 -0.2516
  157OSM    H2F17583   2.723   1.749   3.480  1.1182 -0.2792  0.0596
  157OSM    H2G17584   2.695   1.858   3.616 -1.1058 -2.2442 -1.2057
  157OSM    C3F17585   2.896   1.769   3.588 -0.1629  0.0199 -0.0850
  157OSM    H3F17586   2.974   1.759   3.510 -2.1409  0.8921 -2.2836
  157OSM    H3G17587   2.878   1.661   3.607  2.5203 -0.2882  1.1586
  157OSM    C4F17588   2.948   1.842   3.707 -0.7520  0.4414 -0.3672
  157OSM    H4F17589   2.944   1.950   3.683 -1.9905 -0.0287 -2.5551
  157OSM    H4G17590   3.051   1.810   3.734 -0.5412  1.7949  0.5171
  157OSM    C5F17591   2.862   1.823   3.830  0.1391 -0.2241  0.0525
  157OSM    H5F17592   2.858   1.715   3.857  0.3257  0.4116  3.0196
  157OSM    H5G17593   2.756   1.848   3.807 -0.7927 -3.7747 -0.1367
  157OSM    C6F17594   2.917   1.911   3.941  0.2656 -0.3739  0.5397
  157OSM    H6F17595   2.929   2.019   3.918  3.0280 -0.6087  0.4903
  157OSM    H6G17596   3.020   1.879   3.968  0.6764  1.6341  1.5796
  157OSM    C7F17597   2.825   1.890   4.061 -0.1829 -0.1600  0.1416
  157OSM    H7F17598   2.830   1.780   4.076  0.4193 -0.1072  0.3608
  157OSM    H7G17599   2.719   1.910   4.034  0.0980 -1.9943 -2.8553
  157OSM    C8F17600   2.886   1.953   4.190  0.0803  0.0605  0.0407
  157OSM    H8F17601   2.904   2.061   4.174  0.7818 -0.0689 -0.0822
  157OSM    H8G17602   2.987   1.909   4.201  0.0355  0.0632  0.4706
  157OSM    C9F17603   2.800   1.924   4.314 -0.2642  0.1699 -1.1960
  157OSM    H9F17604   2.691   1.938   4.303 -0.0773  3.4298  0.0998
  157OSM   C10F17605   2.853   1.872   4.429  0.3055 -0.1954 -0.2490
  157OSM   H10F17606   2.783   1.877   4.514 -0.3846  0.7650 -0.8500
  157OSM   C11F17607   2.994   1.832   4.464 -0.4290 -0.5773 -0.5081
  157OSM   H11F17608   3.057   1.840   4.373  0.7055  1.0815  0.3767
  157OSM   H11G17609   3.000   1.725   4.492  2.3593  0.0693  1.8071
  157OSM   C12F17610   3.049   1.916   4.585 -0.5202 -0.3884 -0.1807
  157OSM   H12F17611   3.030   2.025   4.569 -1.0774 -0.5562 -0.7171
  157OSM   H12G17612   3.160   1.907   4.591 -0.4043  1.4308  2.0033
  157OSM   C13F17613   2.988   1.878   4.721  0.2525 -0.1600 -0.1180
  157OSM   H13F17614   2.983   1.769   4.739 -0.6947 -0.2578 -0.9161
  157OSM   H13G17615   2.880   1.901   4.711  0.3176 -0.0678 -0.6203
  157OSM   C14F17616   3.035   1.953   4.851  0.0075  0.1838  0.3433
  157OSM   H14F17617   2.988   2.053   4.863  0.2988  0.2852  0.6712
  157OSM   H14G17618   3.144   1.969   4.839  0.6568 -3.2506  0.6183
  157OSM   C15F17619   3.003   1.878   4.982  0.3738 -0.1382  0.9130
  157OSM   H15F17620   3.044   1.924   5.075  1.3943 -0.5743  0.6917
  157OSM   H15G17621   3.042   1.775   4.973 -2.3151 -1.1124 -0.7121
  157OSM   C16F17622   2.853   1.842   4.993  0.0249 -0.3376  0.4952
  157OSM   H16F17623   2.834   1.758   4.922 -0.2013 -0.3236  0.5386
  157OSM   H16G17624   2.794   1.931   4.964  1.9679  1.7971  2.6748
  157OSM   C17F17625   2.807   1.786   5.129 -0.1425  0.3548 -0.0183
  157OSM   H17F17626   2.885   1.721   5.174  1.9720  2.6383 -0.1871
  157OSM   H17G17627   2.713   1.731   5.111  0.0165 -0.3860  1.2870
  157OSM   C18F17628   2.791   1.900   5.225  0.1878  1.0991 -0.2352
  157OSM   H18F17629   2.748   1.872   5.324 -1.1768 -1.9981 -1.6016
  157OSM   H18G17630   2.732   1.978   5.173 -2.3426 -1.1307 -0.8985
  157OSM   H18H17631   2.894   1.940   5.241  0.6265 -0.1256  0.0923
  158OSM      N17632   6.794   6.750   2.337  0.4503 -0.2788 -0.0509
  158OSM    C1517633   6.874   6.688   2.228  0.0454  0.4936  0.1691
  158OSM   H15A17634   6.924   6.604   2.274 -0.6501 -1.2959 -2.1307
  158OSM   H15B17635   6.946   6.762   2.195  1.3638 -0.0275  1.7359
  158OSM   H15C17636   6.820   6.652   2.142 -0.0682  0.2066  0.3587
  158OSM    C1417637   6.872   6.784   2.460  0.1039  0.0839 -0.2222
  158OSM   H14A17638   6.955   6.853   2.454 -0.8944  1.3185 -0.4328
  158OSM   H14B17639   6.917   6.703   2.515 -0.7967  0.6798  1.4565
  158OSM   H14C17640   6.807   6.832   2.532  0.9112 -2.0064  2.0381
  158OSM    C1317641   6.725   6.876   2.295 -0.0520 -0.0572  0.3963
  158OSM   H13A17642   6.794   6.955   2.271  0.1065 -0.8128 -1.8194
  158OSM   H13B17643   6.663   6.905   2.379 -2.3041  0.0140 -1.2002
  158OSM   H13C17644   6.668   6.866   2.204  2.1743 -0.8254 -1.0023
  158OSM    C1217645   6.683   6.648   2.373 -0.1450 -0.5870  0.1264
  158OSM   H12A17646   6.609   6.645   2.295  0.6136 -0.2795 -0.6147
  158OSM   H12B17647   6.649   6.670   2.473 -1.0341  1.4235 -0.5659
  158OSM    C1117648   6.734   6.508   2.399 -0.1118  0.2489 -0.1505
  158OSM   H11A17649   6.828   6.508   2.458 -0.3861 -1.2099  0.3232
  158OSM   H11B17650   6.761   6.473   2.297  2.3200  0.6234  0.3124
  158OSM      P17651   6.635   6.277   2.464  0.0423  0.1548 -0.0065
  158OSM    O1317652   6.524   6.220   2.547  0.3648 -0.5467 -0.0045
  158OSM    O1417653   6.656   6.223   2.328 -0.5641  0.0685  0.0830
  158OSM    O1117654   6.760   6.260   2.553  0.3949 -0.2156  0.7955
  158OSM    O1217655   6.624   6.434   2.457  0.6143  0.1814  0.0420
  158OSM    C1S17656   6.781   6.318   2.678 -0.4989 -0.5546  0.0816
  158OSM    H1S17657   6.738   6.421   2.683 -1.4717 -0.9534  0.0971
  158OSM    H1T17658   6.891   6.331   2.688 -0.4920  1.4503 -1.7288
  158OSM     NF17659   6.762   6.339   2.912 -0.1806 -0.5894  0.3465
  158OSM    HNF17660   6.853   6.325   2.950  0.7477 -3.7253 -2.6067
  158OSM    C2S17661   6.726   6.248   2.799 -1.3282  0.1671  0.8660
  158OSM    H2S17662   6.616   6.239   2.801 -1.3674 -1.7169 -2.4945
  158OSM    C3S17663   6.798   6.110   2.805  0.5237  0.4209  0.2456
  158OSM    H3S17664   6.908   6.124   2.813  0.5870  2.6290 -2.6919
  158OSM     O317665   6.795   6.039   2.681 -0.2780  0.1759  0.1484
  158OSM    HO317666   6.776   6.104   2.612  0.8011 -0.3482 -0.6671
  158OSM    C4S17667   6.750   6.044   2.930  0.2829 -0.4553 -0.1920
  158OSM    H4S17668   6.817   6.049   3.018 -0.4333 -1.5059  0.4339
  158OSM    C5S17669   6.651   5.955   2.951  0.4478  0.2802  0.0260
  158OSM    H5S17670   6.614   5.915   2.856  1.3055  0.9146 -0.5870
  158OSM    C6S17671   6.605   5.893   3.077 -0.0500 -0.5695 -0.5653
  158OSM    H6S17672   6.647   5.791   3.082 -1.2137 -1.0090  0.6719
  158OSM    H6T17673   6.495   5.876   3.074  0.0245 -1.1263 -0.1642
  158OSM    C7S17674   6.626   5.969   3.203  0.3964 -0.6472 -0.3090
  158OSM    H7S17675   6.588   6.074   3.201 -1.1702 -1.1730  0.5530
  158OSM    H7T17676   6.735   5.976   3.225  0.4880 -1.7269 -0.3912
  158OSM    C8S17677   6.552   5.903   3.324  0.6852  0.3757  0.0573
  158OSM    H8S17678   6.619   5.819   3.350  0.5882  0.0359 -0.7434
  158OSM    H8T17679   6.458   5.853   3.290  0.6413  0.9108 -0.6355
  158OSM    C9S17680   6.512   5.988   3.442 -0.1950  0.4192 -0.1769
  158OSM    H9S17681   6.425   6.052   3.417 -0.8930 -0.8650 -1.1871
  158OSM    H9T17682   6.602   6.047   3.472 -1.5476  2.0425  0.8860
  158OSM   C10S17683   6.486   5.905   3.569  0.6798 -0.3005  0.4712
  158OSM   H10S17684   6.565   5.828   3.575  1.3149  0.3126  0.1233
  158OSM   H10T17685   6.383   5.871   3.544  1.0223 -0.5286 -0.6976
  158OSM   C11S17686   6.483   5.992   3.694 -0.9133  0.5472 -0.0650
  158OSM   H11S17687   6.412   6.076   3.681 -0.9833  0.1238 -3.2719
  158OSM   H11T17688   6.585   6.036   3.705 -0.4180 -1.0330  2.4661
  158OSM   C12S17689   6.447   5.911   3.823 -0.0247  0.5053  0.5614
  158OSM   H12S17690   6.497   5.812   3.824 -1.9204 -0.4989  0.1795
  158OSM   H12T17691   6.340   5.880   3.816  0.3031 -0.6133  0.2882
  158OSM   C13S17692   6.459   5.981   3.954 -0.1700  0.7512 -0.1617
  158OSM   H13S17693   6.425   5.905   4.028  1.4785  0.5728  0.4370
  158OSM   H13T17694   6.390   6.067   3.969 -3.2360 -1.5828  0.2564
  158OSM   C14S17695   6.605   5.997   3.994  0.3271  0.5508  0.3250
  158OSM   H14S17696   6.661   6.055   3.918  0.9703  0.4071  0.6800
  158OSM   H14T17697   6.641   5.892   4.003 -3.2414 -0.6795  2.3673
  158OSM   C15S17698   6.625   6.066   4.131 -0.2061  0.5175  0.4756
  158OSM   H15S17699   6.595   5.993   4.210 -1.3216  1.1031  0.6173
  158OSM   H15T17700   6.550   6.148   4.129  0.2448  0.9194  0.1600
  158OSM   C16S17701   6.764   6.124   4.149  0.2497 -0.0882 -0.6541
  158OSM   H16S17702   6.776   6.191   4.061  0.3964  3.3184  1.7627
  158OSM   H16T17703   6.839   6.043   4.144 -0.6277 -0.9492 -0.2921
  158OSM   C17S17704   6.769   6.215   4.270 -0.8319 -0.2421  0.0471
  158OSM   H17S17705   6.749   6.143   4.352  1.7442 -1.4023 -0.2400
  158OSM   H17T17706   6.693   6.296   4.257  1.4906  2.2269  0.7620
  158OSM   C18S17707   6.911   6.277   4.289  0.7480 -0.1925 -0.3757
  158OSM   H18S17708   6.913   6.349   4.373  1.9334 -0.8928  0.2250
  158OSM   H18T17709   6.936   6.335   4.198  3.1533  0.8588  0.8725
  158OSM   H18U17710   6.996   6.207   4.304  0.6332 -0.3719 -0.5521
  158OSM    C1F17711   6.702   6.451   2.943 -0.0603  0.7284 -0.4140
  158OSM     OF17712   6.598   6.487   2.881 -0.5925 -0.5348  0.0018
  158OSM    C2F17713   6.766   6.528   3.053 -0.1908  0.7238 -0.0277
  158OSM    H2F17714   6.875   6.544   3.034 -0.0181 -0.0355  0.3169
  158OSM    H2G17715   6.759   6.463   3.142  0.6340 -1.2978 -1.3625
  158OSM    C3F17716   6.696   6.659   3.076  1.0684  0.5194  0.5616
  158OSM    H3F17717   6.592   6.633   3.108  0.8278  1.7968  0.8746
  158OSM    H3G17718   6.678   6.713   2.981  0.5972 -2.3881 -1.1502
  158OSM    C4F17719   6.760   6.750   3.179  0.4284  0.0902  0.3017
  158OSM    H4F17720   6.694   6.835   3.204  0.5316  0.3033 -0.1595
  158OSM    H4G17721   6.852   6.786   3.128  1.8146 -0.2845  2.4157
  158OSM    C5F17722   6.800   6.684   3.303  0.0239  0.8849 -0.1585
  158OSM    H5F17723   6.863   6.595   3.282 -0.1373  0.5173  0.8656
  158OSM    H5G17724   6.705   6.648   3.347 -0.0669  1.3186  0.0121
  158OSM    C6F17725   6.892   6.760   3.397 -0.0095 -0.2304 -0.3574
  158OSM    H6F17726   6.976   6.790   3.330 -0.7592  2.1751 -0.3391
  158OSM    H6G17727   6.919   6.696   3.483 -0.0736  2.1359  1.5476
  158OSM    C7F17728   6.818   6.878   3.454 -1.0345 -0.0965  0.3750
  158OSM    H7F17729   6.731   6.831   3.505  0.0943 -1.4157  1.1591
  158OSM    H7G17730   6.788   6.950   3.375 -0.3761  0.9870  1.0886
  158OSM    C8F17731   6.902   6.954   3.564 -0.0467  0.4693  0.2997
  158OSM    H8F17732   6.867   7.059   3.575 -0.0448  0.6848 -1.4616
  158OSM    H8G17733   7.006   6.956   3.523  0.1808  2.1948  0.8495
  158OSM    C9F17734   6.895   6.880   3.694  0.2583 -0.2209 -0.1779
  158OSM    H9F17735   6.950   6.785   3.701  1.2497  0.1530 -2.0886
  158OSM   C10F17736   6.840   6.929   3.803  1.0443 -0.3964 -0.8480
  158OSM   H10F17737   6.835   6.857   3.886  0.3152 -1.0181 -1.4080
  158OSM   C11F17738   6.762   7.063   3.835 -0.2227  0.0951 -0.3382
  158OSM   H11F17739   6.676   7.072   3.766  1.0998 -2.9443 -2.6421
  158OSM   H11G17740   6.828   7.147   3.805  2.6603 -1.9584 -0.2067
  158OSM   C12F17741   6.720   7.077   3.984 -0.1290  0.3892 -0.0238
  158OSM   H12F17742   6.809   7.066   4.049  0.4462  1.3280 -0.6339
  158OSM   H12G17743   6.648   6.995   4.007 -1.2598  1.4051  0.1580
  158OSM   C13F17744   6.644   7.205   4.019 -0.3845  0.2837  0.1800
  158OSM   H13F17745   6.569   7.206   3.937  0.1727  0.3730 -0.3348
  158OSM   H13G17746   6.704   7.298   4.013 -0.4732  0.4486  1.5318
  158OSM   C14F17747   6.567   7.190   4.150 -0.1309 -0.2362  0.7996
  158OSM   H14F17748   6.500   7.101   4.148  0.3395 -0.6401  1.8691
  158OSM   H14G17749   6.495   7.274   4.142  2.1779  1.6660 -1.9738
  158OSM   C15F17750   6.647   7.200   4.276 -0.7869 -0.1679  0.2169
  158OSM   H15F17751   6.736   7.260   4.247  0.0085 -0.7182  1.4126
  158OSM   H15G17752   6.697   7.101   4.287 -2.6117 -1.1168  0.2232
  158OSM   C16F17753   6.566   7.248   4.399  0.0458  0.8743 -0.9025
  158OSM   H16F17754   6.488   7.170   4.415  1.4824 -0.3167  0.6222
  158OSM   H16G17755   6.508   7.337   4.366  1.4566  2.5157  0.8638
  158OSM   C17F17756   6.647   7.257   4.527 -0.5940 -0.2960  0.3121
  158OSM   H17F17757   6.711   7.168   4.543 -1.0218 -0.5583  0.5912
  158OSM   H17G17758   6.587   7.268   4.620  1.7936 -0.7730  2.0012
  158OSM   C18F17759   6.742   7.378   4.515 -0.5497 -0.1634 -0.6957
  158OSM   H18F17760   6.680   7.470   4.525 -0.4056 -0.2586  1.7029
  158OSM   H18G17761   6.788   7.370   4.414 -2.2177 -3.6710 -1.3507
  158OSM   H18H17762   6.827   7.386   4.586 -2.1749 -2.0809  1.6401
  159OSM      N17763   3.060   2.589   2.446 -0.4977  0.1587 -0.8416
  159OSM    C1517764   3.147   2.589   2.326  0.4198  0.3541 -0.5980
  159OSM   H15A17765   3.240   2.628   2.363  1.0762 -3.7222  2.9323
  159OSM   H15B17766   3.108   2.654   2.249  2.0131  2.2744  0.1272
  159OSM   H15C17767   3.151   2.487   2.291 -2.0695  0.0657 -0.2037
  159OSM    C1417768   2.917   2.566   2.411 -0.0090  0.4150  0.6154
  159OSM   H14A17769   2.886   2.466   2.388 -1.0312  0.2929  2.3519
  159OSM   H14B17770   2.884   2.637   2.337 -0.4361  1.8497  2.1198
  159OSM   H14C17771   2.854   2.595   2.493  1.2524  1.9196  1.1042
  159OSM    C1317772   3.101   2.480   2.537  0.4685  0.1122  0.3004
  159OSM   H13A17773   3.049   2.496   2.630 -2.1677  2.5359 -1.4012
  159OSM   H13B17774   3.205   2.459   2.555  0.2806 -0.3944  0.7992
  159OSM   H13C17775   3.069   2.386   2.496  0.7825  0.6963 -1.3446
  159OSM    C1217776   3.067   2.725   2.515 -0.0408 -0.2496 -0.3838
  159OSM   H12A17777   3.041   2.804   2.445 -1.0867  1.2471  1.5883
  159OSM   H12B17778   3.166   2.754   2.547 -0.0690  0.7499 -1.1281
  159OSM    C1117779   2.986   2.741   2.646 -0.5207 -0.9449  0.2529
  159OSM   H11A17780   3.033   2.819   2.709 -1.2432  0.2136 -0.6137
  159OSM   H11B17781   2.999   2.644   2.699  0.3406 -0.4913  0.9000
  159OSM      P17782   2.759   2.804   2.733 -0.2138 -0.1981 -0.4797
  159OSM    O1317783   2.727   2.950   2.728  0.2087 -0.4451 -0.2046
  159OSM    O1417784   2.654   2.698   2.745 -0.7034 -0.1406  0.2485
  159OSM    O1117785   2.855   2.782   2.864  0.1651 -0.4171  0.3013
  159OSM    O1217786   2.850   2.765   2.618  0.3668 -0.3956 -0.7366
  159OSM    C1S17787   2.803   2.826   2.995 -0.3735 -0.7755  0.8889
  159OSM    H1S17788   2.700   2.867   2.988  0.7013  1.8677 -2.9419
  159OSM    H1T17789   2.872   2.902   3.036 -1.3085 -0.8603  2.7420
  159OSM     NF17790   2.771   2.735   3.232  0.8698 -0.6991  0.1804
  159OSM    HNF17791   2.850   2.732   3.293  0.5202  2.7150  0.9700
  159OSM    C2S17792   2.797   2.697   3.093  0.2994 -0.4825  0.2755
  159OSM    H2S17793   2.714   2.631   3.061 -0.0166  0.1964 -0.3305
  159OSM    C3S17794   2.937   2.627   3.076  0.3347 -0.2448 -0.1237
  159OSM    H3S17795   3.016   2.698   3.110  0.7214  0.0683 -1.6018
  159OSM     O317796   2.990   2.594   2.950  0.6833  0.6825  0.0957
  159OSM    HO317797   2.939   2.651   2.892  1.4565 -0.2375 -1.5458
  159OSM    C4S17798   2.947   2.505   3.166 -0.0113 -0.1147 -0.0263
  159OSM    H4S17799   2.894   2.415   3.129 -0.8173  0.9650 -1.6157
  159OSM    C5S17800   3.022   2.501   3.283 -0.2087  0.6322 -0.1437
  159OSM    H5S17801   3.075   2.595   3.305 -3.6884  2.3445  1.6838
  159OSM    C6S17802   3.037   2.385   3.382 -0.5878  0.2789  0.0641
  159OSM    H6S17803   3.143   2.361   3.403 -0.4073 -0.6450 -1.7506
  159OSM    H6T17804   2.996   2.291   3.339 -0.5393  0.7335 -1.0060
  159OSM    C7S17805   2.962   2.412   3.510  0.2654  0.0872 -0.1482
  159OSM    H7S17806   2.852   2.408   3.498 -0.6089  2.7633  4.5480
  159OSM    H7T17807   2.972   2.519   3.538 -2.6144  0.3443  0.1413
  159OSM    C8S17808   2.997   2.305   3.623  0.4060 -0.3126 -0.0549
  159OSM    H8S17809   3.105   2.316   3.643  0.1875  1.5291  0.3292
  159OSM    H8T17810   2.966   2.209   3.577  0.1758  0.9704 -2.8172
  159OSM    C9S17811   2.918   2.300   3.757 -0.3009 -0.0060 -0.1006
  159OSM    H9S17812   2.914   2.197   3.797  0.7487 -0.4247 -1.0023
  159OSM    H9T17813   2.812   2.331   3.751 -1.4828 -2.9382  2.8771
  159OSM   C10S17814   2.998   2.367   3.871 -0.4624  0.3207  0.2868
  159OSM   H10S17815   3.013   2.475   3.847 -0.3508 -0.0041 -1.1860
  159OSM   H10T17816   3.091   2.308   3.885 -0.4472  0.3316  0.2338
  159OSM   C11S17817   2.934   2.359   4.013  0.1097 -0.4301 -0.1203
  159OSM   H11S17818   2.942   2.263   4.067  0.0294  0.9693  2.5576
  159OSM   H11T17819   2.828   2.386   3.999  0.4832  0.4547 -1.4792
  159OSM   C12S17820   3.003   2.454   4.110  0.3299 -0.2899 -0.7312
  159OSM   H12S17821   2.938   2.463   4.200  1.3172 -1.5396  0.1455
  159OSM   H12T17822   3.009   2.559   4.076  0.1566  0.5247  1.5442
  159OSM   C13S17823   3.134   2.399   4.160  0.8515  0.2707 -0.0670
  159OSM   H13S17824   3.187   2.381   4.064  1.7438 -0.0081  0.4704
  159OSM   H13T17825   3.123   2.296   4.201 -0.7992 -0.2336 -1.6658
  159OSM   C14S17826   3.217   2.487   4.258  0.4997 -0.2332 -0.1408
  159OSM   H14S17827   3.223   2.589   4.214  2.0694 -0.4970 -0.6140
  159OSM   H14T17828   3.316   2.436   4.253  0.5571 -0.0538 -1.1198
  159OSM   C15S17829   3.172   2.486   4.398 -0.1458  0.4885  0.1046
  159OSM   H15S17830   3.135   2.384   4.424  0.5511 -0.1337 -1.2346
  159OSM   H15T17831   3.080   2.544   4.416 -0.3352  0.1793  0.1329
  159OSM   C16S17832   3.278   2.533   4.497  0.3752  0.2366  0.1975
  159OSM   H16S17833   3.303   2.641   4.485 -1.8602  0.5840 -2.0340
  159OSM   H16T17834   3.365   2.465   4.488  0.0275 -0.1865 -0.0082
  159OSM   C17S17835   3.229   2.532   4.641  0.2189  0.1522 -0.5830
  159OSM   H17S17836   3.133   2.588   4.648  0.1928 -0.0713  1.7844
  159OSM   H17T17837   3.302   2.577   4.711  0.2425 -0.7295 -0.0172
  159OSM   C18S17838   3.197   2.392   4.696  0.2946  0.0662 -0.3001
  159OSM   H18S17839   3.122   2.349   4.626  1.1780 -1.7788 -0.1541
  159OSM   H18T17840   3.154   2.380   4.797 -1.4543 -0.2108 -1.0397
  159OSM   H18U17841   3.287   2.327   4.699 -0.7766 -1.4885 -0.5083
  159OSM    C1F17842   2.649   2.783   3.264 -0.3745  0.8755 -0.1041
  159OSM     OF17843   2.560   2.789   3.179  0.4393 -0.3752 -0.8417
  159OSM    C2F17844   2.620   2.799   3.409 -0.5105  0.4037 -0.2953
  159OSM    H2F17845   2.531   2.736   3.432 -0.2574  0.4610  0.9039
  159OSM    H2G17846   2.581   2.902   3.424  0.0152  0.4579  0.8553
  159OSM    C3F17847   2.737   2.756   3.497  0.3117  0.3817 -0.4209
  159OSM    H3F17848   2.834   2.802   3.466  1.1311  0.1627  1.6328
  159OSM    H3G17849   2.751   2.646   3.487  0.3900  0.1990  1.3220
  159OSM    C4F17850   2.722   2.796   3.646  0.5609  0.1416 -0.3231
  159OSM    H4F17851   2.620   2.772   3.684  0.3405  2.6087  0.8080
  159OSM    H4G17852   2.739   2.904   3.660 -2.4266  0.5153  1.2351
  159OSM    C5F17853   2.817   2.701   3.727  0.7263 -0.7830  0.4322
  159OSM    H5F17854   2.922   2.733   3.709  0.8593 -1.5132 -0.1304
  159OSM    H5G17855   2.796   2.602   3.682 -1.4390 -2.3971  4.4433
  159OSM    C6F17856   2.789   2.685   3.874  0.0545 -0.2570  0.3687
  159OSM    H6F17857   2.856   2.601   3.902  0.2216 -0.4552 -0.6099
  159OSM    H6G17858   2.685   2.655   3.898 -0.6315  1.3584 -0.4379
  159OSM    C7F17859   2.816   2.813   3.947 -0.3458 -0.7645 -0.1436
  159OSM    H7F17860   2.733   2.876   3.908  0.2338 -0.1616 -0.4158
  159OSM    H7G17861   2.904   2.870   3.913 -1.1282  0.1899 -0.6182
  159OSM    C8F17862   2.819   2.800   4.099  0.0528 -0.2798  0.5364
  159OSM    H8F17863   2.829   2.904   4.138 -0.4776  0.1832 -0.4844
  159OSM    H8G17864   2.911   2.745   4.125  0.5916 -1.1234 -2.6823
  159OSM    C9F17865   2.687   2.738   4.139  0.2307  0.8401  0.7596
  159OSM    H9F17866   2.603   2.750   4.070  0.6329 -1.9077 -0.3497
  159OSM   C10F17867   2.674   2.664   4.251  0.2709  0.4091  0.2277
  159OSM   H10F17868   2.576   2.628   4.285 -0.1218  2.9208  1.9940
  159OSM   C11F17869   2.784   2.626   4.350  0.3972 -0.2862  0.3331
  159OSM   H11F17870   2.880   2.675   4.323  0.1718  0.5716  1.0469
  159OSM   H11G17871   2.806   2.517   4.345  1.5782 -0.0487 -0.0013
  159OSM   C12F17872   2.754   2.661   4.502  0.2299  1.0764 -0.5715
  159OSM   H12F17873   2.844   2.621   4.553 -0.9011 -2.0028 -0.7675
  159OSM   H12G17874   2.676   2.594   4.543 -0.0154 -1.0857 -4.1179
  159OSM   C13F17875   2.730   2.807   4.534 -0.0052 -0.5008 -0.5800
  159OSM   H13F17876   2.639   2.833   4.475 -0.4290 -0.8742 -0.1047
  159OSM   H13G17877   2.811   2.871   4.493  1.0540 -2.2149 -1.2789
  159OSM   C14F17878   2.721   2.831   4.686  0.0257 -0.2806  0.0805
  159OSM   H14F17879   2.620   2.802   4.723 -0.5959  1.0412 -0.5127
  159OSM   H14G17880   2.713   2.941   4.702 -1.0816 -0.5682  1.7720
  159OSM   C15F17881   2.830   2.775   4.771 -0.0964 -0.1027 -0.0200
  159OSM   H15F17882   2.934   2.794   4.738 -0.0011 -2.1318 -1.0246
  159OSM   H15G17883   2.816   2.666   4.764 -0.6418 -0.0417  0.0959
  159OSM   C16F17884   2.813   2.811   4.915  0.0905 -0.2977 -0.0034
  159OSM   H16F17885   2.713   2.772   4.947 -0.4472 -1.8780 -3.1316
  159OSM   H16G17886   2.823   2.921   4.919 -1.0763 -0.2086  0.9321
  159OSM   C17F17887   2.910   2.748   5.020 -0.0269 -0.2483  0.4945
  159OSM   H17F17888   2.866   2.763   5.121 -0.7711 -2.4399  0.5461
  159OSM   H17G17889   3.012   2.789   5.003  0.9856 -2.8266 -0.1077
  159OSM   C18F17890   2.917   2.598   5.013 -0.0236 -0.0462 -0.1358
  159OSM   H18F17891   2.970   2.554   5.100  2.8001 -0.9528 -2.1503
  159OSM   H18G17892   2.973   2.559   4.925 -0.0773 -0.2438 -0.0814
  159OSM   H18H17893   2.816   2.553   5.009 -0.1036  0.1930 -1.1858
  160OSM      N17894   6.708   2.076   2.498  1.1998 -0.9654 -0.0246
  160OSM    C1517895   6.736   1.942   2.552 -0.7738 -0.3166  0.4060
  160OSM   H15A17896   6.828   1.956   2.608  1.8827 -0.3324 -3.5291
  160OSM   H15B17897   6.767   1.876   2.472  1.1050  0.0765  0.7655
  160OSM   H15C17898   6.664   1.903   2.622 -1.1295  1.6698  1.1977
  160OSM    C1417899   6.603   2.055   2.389  0.1791 -0.3023 -0.6228
  160OSM   H14A17900   6.511   2.021   2.433  1.0537 -0.9650  0.7768
  160OSM   H14B17901   6.640   1.986   2.315 -1.2774 -1.4488 -0.3212
  160OSM   H14C17902   6.580   2.145   2.334 -2.6823 -0.9537 -0.6131
  160OSM    C1317903   6.638   2.152   2.606  0.1644  0.3166 -0.0941
  160OSM   H13A17904   6.695   2.171   2.696  0.7251 -1.4309 -0.0369
  160OSM   H13B17905   6.551   2.098   2.639  0.8986 -0.1975  1.0803
  160OSM   H13C17906   6.607   2.250   2.574 -2.6267 -0.0784  1.1085
  160OSM    C1217907   6.831   2.146   2.446 -0.2213 -0.0103 -0.4107
  160OSM   H12A17908   6.797   2.245   2.417 -2.7501 -1.3385 -2.4615
  160OSM   H12B17909   6.861   2.099   2.353  1.5750  0.3864 -0.0652
  160OSM    C1117910   6.955   2.160   2.546 -0.0549  0.1840 -0.3647
  160OSM   H11A17911   7.028   2.199   2.471 -2.6107  0.2913 -2.9571
  160OSM   H11B17912   6.997   2.066   2.588 -0.1711  1.4253  2.8358
  160OSM      P17913   6.969   2.396   2.641 -0.4221  0.1263 -0.0312
  160OSM    O1317914   7.112   2.404   2.656 -0.5445  0.3260  0.2752
  160OSM    O1417915   6.914   2.446   2.512 -0.2760  0.0215 -0.0107
  160OSM    O1117916   6.894   2.463   2.758  0.2326  0.0855  1.1586
  160OSM    O1217917   6.925   2.251   2.651  0.5084  0.3896 -0.0399
  160OSM    C1S17918   6.947   2.444   2.892  0.3827  0.1251  0.0313
  160OSM    H1S17919   7.025   2.519   2.917  0.1617 -0.3989  2.6016
  160OSM    H1T17920   6.997   2.346   2.903 -0.9998 -0.6183 -0.1301
  160OSM     NF17921   6.883   2.466   3.128  0.8984 -1.0272  0.2012
  160OSM    HNF17922   6.858   2.397   3.195 -0.0096 -2.1801 -1.2608
  160OSM    C2S17923   6.832   2.461   2.993 -0.0634 -0.9691 -0.4027
  160OSM    H2S17924   6.771   2.551   2.974 -1.7285 -1.4490  2.1447
  160OSM    C3S17925   6.734   2.342   2.978 -0.0815 -0.0015  0.1085
  160OSM    H3S17926   6.796   2.250   2.982 -0.1455 -0.0144  0.9423
  160OSM     O317927   6.670   2.344   2.852  0.4554  0.3833 -0.4579
  160OSM    HO317928   6.710   2.419   2.807 -1.1561  1.3479 -0.3868
  160OSM    C4S17929   6.631   2.334   3.086 -0.0003 -0.3916 -0.8350
  160OSM    H4S17930   6.657   2.262   3.166 -0.4506  0.4487  0.0919
  160OSM    C5S17931   6.520   2.404   3.108  0.0897 -0.2786 -0.4376
  160OSM    H5S17932   6.484   2.475   3.032  0.6853  0.3505 -0.1420
  160OSM    C6S17933   6.423   2.375   3.220  0.5413  1.2092 -0.2544
  160OSM    H6S17934   6.411   2.265   3.232 -1.2859  1.4057  0.0825
  160OSM    H6T17935   6.318   2.398   3.194 -0.1110 -1.1244  0.0608
  160OSM    C7S17936   6.461   2.425   3.361  0.2891  0.9071  0.0504
  160OSM    H7S17937   6.476   2.535   3.356 -1.2515  1.1108 -0.5275
  160OSM    H7T17938   6.552   2.371   3.395 -0.2658  0.2881  0.5985
  160OSM    C8S17939   6.348   2.405   3.467  0.1685 -0.0280 -0.0360
  160OSM    H8S17940   6.261   2.473   3.465  0.0505 -0.1984 -0.6524
  160OSM    H8T17941   6.408   2.429   3.557  0.9741 -0.1697 -0.5268
  160OSM    C9S17942   6.284   2.267   3.471  0.9257 -1.0407  0.8258
  160OSM    H9S17943   6.364   2.191   3.461  0.3707 -1.7628  1.7652
  160OSM    H9T17944   6.209   2.269   3.390 -1.0591  2.2753  2.5339
  160OSM   C10S17945   6.216   2.237   3.601  0.2462 -0.4559 -1.0381
  160OSM   H10S17946   6.172   2.135   3.591 -0.9777 -0.0908  0.2673
  160OSM   H10T17947   6.128   2.301   3.624  1.1509  0.4538  0.0083
  160OSM   C11S17948   6.311   2.231   3.722  0.2566  0.0710 -0.2772
  160OSM   H11S17949   6.358   2.329   3.746  1.6408 -0.5800 -0.2543
  160OSM   H11T17950   6.395   2.165   3.695 -3.2165 -4.4915 -1.1360
  160OSM   C12S17951   6.251   2.164   3.845  0.0956 -1.1173  0.0178
  160OSM   H12S17952   6.224   2.057   3.832 -1.0487 -0.6423 -1.7730
  160OSM   H12T17953   6.167   2.222   3.889 -0.9939 -0.3858 -2.8023
  160OSM   C13S17954   6.349   2.167   3.968  0.0202  0.3014  0.7940
  160OSM   H13S17955   6.383   2.272   3.984  0.0438  0.3821  0.2186
  160OSM   H13T17956   6.427   2.096   3.933 -0.3895 -0.4960  1.4746
  160OSM   C14S17957   6.283   2.120   4.101 -0.0978  0.1529  0.6654
  160OSM   H14S17958   6.256   2.013   4.091 -0.2396  0.3100 -0.9252
  160OSM   H14T17959   6.183   2.166   4.112 -0.7905 -0.5134 -2.0903
  160OSM   C15S17960   6.365   2.138   4.230  0.4818  0.2486 -0.4000
  160OSM   H15S17961   6.449   2.065   4.240 -0.8608 -1.1357  1.6699
  160OSM   H15T17962   6.292   2.114   4.311 -0.4586  0.7173 -1.0969
  160OSM   C16S17963   6.416   2.276   4.243 -0.1921  0.0783  0.3106
  160OSM   H16S17964   6.327   2.342   4.237  1.2488  2.0722 -0.0266
  160OSM   H16T17965   6.500   2.293   4.173  1.1659 -2.8198  1.0644
  160OSM   C17S17966   6.490   2.304   4.374  0.7539  0.3496 -0.9021
  160OSM   H17S17967   6.537   2.405   4.378  1.3489  0.0457  1.7053
  160OSM   H17T17968   6.577   2.236   4.391 -0.0326  0.0824  2.7541
  160OSM   C18S17969   6.403   2.291   4.506 -0.2872  0.2510 -0.4916
  160OSM   H18S17970   6.347   2.196   4.513 -0.4120  0.3158 -0.6057
  160OSM   H18T17971   6.337   2.379   4.518 -0.8799 -0.1182 -1.0126
  160OSM   H18U17972   6.468   2.300   4.595 -0.8204  2.3043 -0.2521
  160OSM    C1F17973   6.948   2.567   3.183  0.1227 -0.2193 -0.1816
  160OSM     OF17974   6.987   2.662   3.120 -0.3650 -0.1200  0.4355
  160OSM    C2F17975   6.962   2.568   3.334 -0.2648 -0.0798  0.6394
  160OSM    H2F17976   7.042   2.643   3.353  0.0410 -0.5810  1.3661
  160OSM    H2G17977   6.982   2.474   3.390  2.5289  0.6025  0.9730
  160OSM    C3F17978   6.831   2.625   3.402 -0.4391  0.3226 -0.5615
  160OSM    H3F17979   6.738   2.574   3.372 -0.1521 -0.6554  0.1544
  160OSM    H3G17980   6.820   2.729   3.365  0.9230  0.7897  0.2500
  160OSM    C4F17981   6.849   2.627   3.556  0.5438 -0.4190 -0.6698
  160OSM    H4F17982   6.890   2.726   3.587 -2.0401  0.1566  1.2416
  160OSM    H4G17983   6.923   2.556   3.599  0.6258  1.3140  2.3374
  160OSM    C5F17984   6.718   2.613   3.629 -0.1744  0.1654  0.3184
  160OSM    H5F17985   6.656   2.526   3.595 -0.3903  0.4230  0.0432
  160OSM    H5G17986   6.655   2.699   3.598  1.1513  1.8400  2.0217
  160OSM    C6F17987   6.711   2.613   3.784 -1.0959  0.1803  0.3064
  160OSM    H6F17988   6.604   2.610   3.813 -1.1043 -2.6525  0.2751
  160OSM    H6G17989   6.743   2.709   3.831 -1.0777  0.1047  0.4497
  160OSM    C7F17990   6.783   2.493   3.846  0.4584 -0.4471 -1.1136
  160OSM    H7F17991   6.881   2.521   3.889 -0.2222  1.0772 -0.4809
  160OSM    H7G17992   6.807   2.410   3.777  1.1410 -0.5452 -0.7630
  160OSM    C8F17993   6.698   2.425   3.963 -0.2962 -0.2990  0.0357
  160OSM    H8F17994   6.765   2.346   4.004 -1.8719 -0.7171  1.9134
  160OSM    H8G17995   6.608   2.372   3.927 -1.1108  0.2704  1.1905
  160OSM    C9F17996   6.663   2.515   4.083 -0.3895  0.4091  1.0263
  160OSM    H9F17997   6.562   2.558   4.084 -0.5965  0.0329 -0.5242
  160OSM   C10F17998   6.746   2.551   4.180  0.2040  0.7108  0.3802
  160OSM   H10F17999   6.700   2.626   4.247 -4.2995  2.0435 -3.6028
  160OSM   C11F18000   6.893   2.507   4.198 -0.4033  0.8983 -0.0821
  160OSM   H11F18001   6.968   2.585   4.173  1.0783 -0.3428  0.4203
  160OSM   H11G18002   6.922   2.422   4.133 -2.0529 -2.1173  2.8513
  160OSM   C12F18003   6.919   2.444   4.339  0.6051 -0.0465  0.0830
  160OSM   H12F18004   7.028   2.458   4.352  0.5481  3.6571 -2.1142
  160OSM   H12G18005   6.904   2.335   4.323 -0.5547  0.1995 -0.6732
  160OSM   C13F18006   6.849   2.513   4.459 -0.2238 -0.3100 -0.0472
  160OSM   H13F18007   6.739   2.501   4.455 -0.3424  0.6332  0.1962
  160OSM   H13G18008   6.874   2.620   4.444 -0.4229 -0.1013  1.0622
  160OSM   C14F18009   6.895   2.458   4.595  0.1239  0.5700  0.4432
  160OSM   H14F18010   7.005   2.444   4.604  0.3282  0.0428 -2.0232
  160OSM   H14G18011   6.842   2.361   4.604 -0.6501  0.7216 -1.7812
  160OSM   C15F18012   6.853   2.536   4.712 -1.0005  0.0663 -0.0559
  160OSM   H15F18013   6.744   2.560   4.710 -1.0712 -0.1329  0.9835
  160OSM   H15G18014   6.909   2.630   4.694  1.6506 -0.9046  2.4727
  160OSM   C16F18015   6.884   2.457   4.836 -0.5969 -0.4109 -0.5102
  160OSM   H16F18016   6.973   2.393   4.818 -0.4248 -0.1956 -0.4333
  160OSM   H16G18017   6.803   2.384   4.854 -0.9989  0.1766  0.1100
  160OSM   C17F18018   6.908   2.540   4.965 -0.2104 -0.5084 -0.0480
  160OSM   H17F18019   6.812   2.586   4.996 -0.7873 -0.4448 -1.7902
  160OSM   H17G18020   6.975   2.621   4.930 -0.5355 -0.6419 -1.0262
  160OSM   C18F18021   6.981   2.460   5.071  0.4358 -0.7408 -0.3802
  160OSM   H18F18022   7.032   2.522   5.148  0.9707 -1.8729  0.2019
  160OSM   H18G18023   7.061   2.401   5.023  2.0639  0.0648  1.2044
  160OSM   H18H18024   6.913   2.386   5.119  1.5365 -0.6968  1.3421
  161OSM      N18025   4.756   1.056   2.050  0.3686 -0.4522  0.1390
  161OSM    C1518026   4.690   0.948   1.977  0.2305 -0.4134 -0.7157
  161OSM   H15A18027   4.722   0.854   2.017  0.5003  0.5651  1.4890
  161OSM   H15B18028   4.709   0.952   1.870 -2.3755  1.2918 -1.2068
  161OSM   H15C18029   4.584   0.953   1.994  0.6733 -0.4546  2.5121
  161OSM    C1418030   4.905   1.051   2.019 -0.6747  0.7320  0.3360
  161OSM   H14A18031   4.935   0.957   2.062 -2.5255  0.3428  0.8422
  161OSM   H14B18032   4.960   1.138   2.052 -0.2001 -0.3229  2.4370
  161OSM   H14C18033   4.910   1.051   1.911 -0.5950  0.5839  0.3405
  161OSM    C1318034   4.705   1.189   1.997  0.3577 -0.8024  0.5031
  161OSM   H13A18035   4.602   1.203   2.024  0.2490 -0.8276  0.1086
  161OSM   H13B18036   4.713   1.197   1.889 -2.2641  0.4345  0.3327
  161OSM   H13C18037   4.760   1.269   2.044 -1.0550  0.9360 -0.6698
  161OSM    C1218038   4.736   1.054   2.196 -0.2309  0.3205 -0.0572
  161OSM   H12A18039   4.801   1.128   2.240 -0.1242 -0.7714  1.7150
  161OSM   H12B18040   4.784   0.972   2.246 -0.2812  0.5379  0.3522
  161OSM    C1118041   4.591   1.072   2.256  0.2095  0.4192 -0.1827
  161OSM   H11A18042   4.556   1.171   2.221  0.1410  1.0213  1.5028
  161OSM   H11B18043   4.594   1.076   2.367  2.4538  0.4185 -0.2125
  161OSM      P18044   4.352   0.987   2.239 -0.5807  0.2921 -0.0416
  161OSM    O1318045   4.301   1.112   2.183 -0.4074 -0.5224  0.3709
  161OSM    O1418046   4.286   0.864   2.196 -0.1516  0.1213 -0.1377
  161OSM    O1118047   4.347   1.005   2.395 -0.5931 -0.0360 -0.1758
  161OSM    O1218048   4.504   0.967   2.205  0.4586  0.2601 -0.1475
  161OSM    C1S18049   4.312   0.895   2.480  0.1697 -0.3627 -0.2218
  161OSM    H1S18050   4.370   0.806   2.448  1.4510 -0.2885  1.7090
  161OSM    H1T18051   4.203   0.878   2.471 -0.1853  1.0294  1.0530
  161OSM     NF18052   4.318   0.820   2.720 -0.2376 -0.1809  0.4835
  161OSM    HNF18053   4.239   0.813   2.779  0.4892 -0.4167  1.4577
  161OSM    C2S18054   4.333   0.937   2.631  0.0084 -0.1021 -0.1867
  161OSM    H2S18055   4.438   0.967   2.650  0.7337 -1.7774 -1.3347
  161OSM    C3S18056   4.233   1.053   2.663 -0.3326  0.2423 -0.1244
  161OSM    H3S18057   4.129   1.015   2.672 -1.1196  2.2961  0.2443
  161OSM     O318058   4.221   1.151   2.560 -0.5050 -0.1444 -0.3279
  161OSM    HO318059   4.266   1.110   2.486 -1.7658 -0.6975 -0.8178
  161OSM    C4S18060   4.254   1.112   2.804  0.2168 -0.0339  0.5278
  161OSM    H4S18061   4.211   1.053   2.886  1.4961 -2.2606 -0.3262
  161OSM    C5S18062   4.323   1.229   2.828 -0.4923  0.3766  0.6196
  161OSM    H5S18063   4.380   1.288   2.755 -1.7332 -0.3010 -0.9628
  161OSM    C6S18064   4.314   1.281   2.974 -0.1980 -0.3758  0.1693
  161OSM    H6S18065   4.258   1.377   2.966 -1.3463 -0.6625  3.3676
  161OSM    H6T18066   4.419   1.299   3.007 -0.3193  0.7373 -0.0168
  161OSM    C7S18067   4.242   1.214   3.093  0.7417 -0.3893 -0.4392
  161OSM    H7S18068   4.293   1.118   3.117  1.2962  0.2704  1.1785
  161OSM    H7T18069   4.138   1.191   3.061  0.4832  0.1206  0.0214
  161OSM    C8S18070   4.232   1.305   3.219 -0.1251  0.8597 -0.0356
  161OSM    H8S18071   4.157   1.257   3.284  1.7502 -1.8337  0.2827
  161OSM    H8T18072   4.198   1.405   3.184 -1.5506  0.0574 -1.0510
  161OSM    C9S18073   4.371   1.306   3.282  0.3951 -0.0058  0.0380
  161OSM    H9S18074   4.447   1.350   3.215  1.5855 -2.2374 -0.1436
  161OSM    H9T18075   4.400   1.204   3.315 -0.7490 -0.1840  0.5612
  161OSM   C10S18076   4.373   1.388   3.416 -0.2456  0.4994  0.5844
  161OSM   H10S18077   4.313   1.324   3.485  2.0435 -0.2182  2.0243
  161OSM   H10T18078   4.314   1.482   3.405  0.3638  0.8676  0.4524
  161OSM   C11S18079   4.513   1.414   3.470 -0.9280 -0.4457  0.5198
  161OSM   H11S18080   4.558   1.473   3.387 -2.8479  1.2437  0.6099
  161OSM   H11T18081   4.556   1.312   3.481  1.5712  0.3999 -0.5474
  161OSM   C12S18082   4.525   1.490   3.597 -0.4149 -0.1763  0.0493
  161OSM   H12S18083   4.495   1.596   3.586  2.1822  0.3843 -3.3593
  161OSM   H12T18084   4.632   1.512   3.621  0.0175 -1.7218 -0.3362
  161OSM   C13S18085   4.456   1.415   3.712  0.4574  0.1398 -0.0278
  161OSM   H13S18086   4.486   1.308   3.708 -0.1186 -0.0617  0.7321
  161OSM   H13T18087   4.346   1.406   3.704  0.2267  1.9027  0.7170
  161OSM   C14S18088   4.497   1.473   3.844  0.1679 -0.1487 -0.1546
  161OSM   H14S18089   4.470   1.580   3.832 -0.5457 -0.0962  1.6103
  161OSM   H14T18090   4.603   1.462   3.874  0.0877 -0.6252 -0.0431
  161OSM   C15S18091   4.422   1.430   3.972 -0.3612  0.0746 -0.2954
  161OSM   H15S18092   4.460   1.335   4.016 -0.8012  0.2259  0.4193
  161OSM   H15T18093   4.315   1.425   3.942 -0.9115  3.5081  0.7098
  161OSM   C16S18094   4.430   1.540   4.068  0.0175 -0.1527 -0.0489
  161OSM   H16S18095   4.369   1.622   4.024  1.7736  1.5265  0.5133
  161OSM   H16T18096   4.524   1.597   4.084  0.2765 -0.5579 -0.1085
  161OSM   C17S18097   4.383   1.496   4.201 -0.0082 -0.3048 -0.2240
  161OSM   H17S18098   4.436   1.401   4.226 -1.2022 -1.0216 -0.3412
  161OSM   H17T18099   4.274   1.474   4.200 -0.6508  2.4059  1.0209
  161OSM   C18S18100   4.417   1.587   4.321 -0.5285  1.3025  0.1099
  161OSM   H18S18101   4.526   1.589   4.343 -0.9886 -2.1077  3.8333
  161OSM   H18T18102   4.356   1.547   4.404 -1.8746  0.9459 -1.0100
  161OSM   H18U18103   4.388   1.692   4.299 -1.8918  0.6806 -1.1676
  161OSM    C1F18104   4.416   0.727   2.716  0.6995 -0.1002 -0.1459
  161OSM     OF18105   4.512   0.728   2.640  0.4894  0.9832  0.1079
  161OSM    C2F18106   4.401   0.621   2.824  0.3583 -0.5636  0.1856
  161OSM    H2F18107   4.414   0.517   2.789  0.0845 -0.6678  0.3949
  161OSM    H2G18108   4.295   0.640   2.852 -0.1505  1.1597 -2.4254
  161OSM    C3F18109   4.496   0.652   2.938  0.2646 -0.7231 -0.6592
  161OSM    H3F18110   4.595   0.625   2.895 -0.4436 -0.4006 -2.5925
  161OSM    H3G18111   4.478   0.575   3.016 -0.0681 -2.9552 -2.7993
  161OSM    C4F18112   4.502   0.795   2.995 -0.0714 -0.3960  0.2180
  161OSM    H4F18113   4.531   0.874   2.923 -0.4035 -0.8938 -0.4747
  161OSM    H4G18114   4.589   0.785   3.063  0.4657  3.6407  0.3483
  161OSM    C5F18115   4.378   0.837   3.071  0.3775 -0.9668 -0.4806
  161OSM    H5F18116   4.280   0.819   3.021 -0.2444  1.0170 -0.0719
  161OSM    H5G18117   4.385   0.948   3.066  0.4153 -0.9647 -0.3869
  161OSM    C6F18118   4.374   0.779   3.218 -0.3811 -0.3563  0.3195
  161OSM    H6F18119   4.469   0.805   3.269 -0.3718  0.1142  0.0696
  161OSM    H6G18120   4.376   0.670   3.199 -1.5388 -0.0502 -1.9330
  161OSM    C7F18121   4.250   0.819   3.300 -0.5797  0.1809 -0.3319
  161OSM    H7F18122   4.173   0.742   3.282 -0.1530 -0.9818  2.4210
  161OSM    H7G18123   4.213   0.917   3.263 -0.7998  0.9449  1.8007
  161OSM    C8F18124   4.279   0.828   3.454  0.2497 -0.4128 -0.3490
  161OSM    H8F18125   4.334   0.738   3.486 -0.0788 -0.3020  0.5701
  161OSM    H8G18126   4.176   0.825   3.498 -0.6420 -1.6763 -2.3751
  161OSM    C9F18127   4.347   0.955   3.494  0.1913 -0.2753 -0.0909
  161OSM    H9F18128   4.431   0.973   3.425 -0.3772  2.0191 -0.2845
  161OSM   C10F18129   4.321   1.050   3.588  0.4188 -0.1627  0.2473
  161OSM   H10F18130   4.393   1.131   3.603  1.8265 -1.7379  2.6743
  161OSM   C11F18131   4.215   1.051   3.694  0.4301 -0.3962 -0.8957
  161OSM   H11F18132   4.197   0.945   3.721  0.0969 -0.4094 -1.1651
  161OSM   H11G18133   4.113   1.090   3.673 -0.5696 -2.1217  0.4881
  161OSM   C12F18134   4.252   1.104   3.834 -0.2230 -0.1608  0.3382
  161OSM   H12F18135   4.281   1.211   3.827  0.8200 -0.4766 -0.3685
  161OSM   H12G18136   4.336   1.046   3.877  0.4988  1.5645  1.3590
  161OSM   C13F18137   4.125   1.086   3.928 -0.4204 -0.3872  0.1126
  161OSM   H13F18138   4.100   0.978   3.939 -1.8983 -0.0732  0.0576
  161OSM   H13G18139   4.040   1.137   3.878 -0.1572 -0.7046 -0.6584
  161OSM   C14F18140   4.138   1.147   4.072  0.1282 -0.4190 -0.1438
  161OSM   H14F18141   4.042   1.193   4.103  0.2160 -0.7138  0.5842
  161OSM   H14G18142   4.195   1.243   4.070 -0.7768  0.1378  0.1385
  161OSM   C15F18143   4.190   1.056   4.188  0.3007 -0.3732  0.3758
  161OSM   H15F18144   4.184   0.948   4.161 -0.9504  0.0085 -0.9964
  161OSM   H15G18145   4.123   1.069   4.275 -1.2627 -1.0305 -0.6950
  161OSM   C16F18146   4.338   1.076   4.241 -0.3673  0.1137 -0.2323
  161OSM   H16F18147   4.340   1.183   4.270 -1.0437  0.0440  0.0946
  161OSM   H16G18148   4.409   1.063   4.157  0.6619  0.2268  0.6051
  161OSM   C17F18149   4.386   0.991   4.365 -0.5834  0.5508 -0.8633
  161OSM   H17F18150   4.483   1.028   4.403  1.8400 -2.6425 -3.4150
  161OSM   H17G18151   4.402   0.885   4.339  3.7555  0.9367 -0.4156
  161OSM   C18F18152   4.279   0.983   4.477 -0.4799 -0.5543 -0.1989
  161OSM   H18F18153   4.291   0.907   4.557 -0.9466  1.1745  1.5993
  161OSM   H18G18154   4.178   0.963   4.435 -1.0710  2.0161 -0.1456
  161OSM   H18H18155   4.252   1.078   4.528 -2.1659 -0.3973 -1.3133
  162OSM      N18156   6.415   0.373   2.260  0.1109 -0.8988  0.1412
  162OSM    C1518157   6.524   0.334   2.162 -0.8574  0.3435  0.2261
  162OSM   H15A18158   6.504   0.238   2.118  1.5941 -0.5459  0.9338
  162OSM   H15B18159   6.620   0.316   2.208 -0.4766  2.1231  0.1966
  162OSM   H15C18160   6.523   0.407   2.082 -0.9080  0.2474  0.1391
  162OSM    C1418161   6.428   0.521   2.283 -0.2255  0.0001  0.8448
  162OSM   H14A18162   6.354   0.560   2.351 -0.5198 -2.0698  1.7888
  162OSM   H14B18163   6.414   0.573   2.189 -1.4882 -0.4404  0.7653
  162OSM   H14C18164   6.521   0.538   2.334  1.2173  2.2671 -2.2362
  162OSM    C1318165   6.285   0.360   2.191  0.3749  0.1895 -0.2033
  162OSM   H13A18166   6.272   0.425   2.106 -1.0500  0.5339  0.2449
  162OSM   H13B18167   6.215   0.396   2.265 -0.5709 -0.9999 -0.4952
  162OSM   H13C18168   6.263   0.259   2.161 -1.7731  0.0689  1.5245
  162OSM    C1218169   6.421   0.300   2.390  0.5925  0.6303  0.0153
  162OSM   H12A18170   6.519   0.288   2.433 -0.9053  0.8400  3.8961
  162OSM   H12B18171   6.402   0.196   2.368  1.2058  0.9979 -2.5009
  162OSM    C1118172   6.322   0.358   2.498 -0.3876  0.4744 -0.3623
  162OSM   H11A18173   6.358   0.460   2.524  2.6227 -0.9651  1.6674
  162OSM   H11B18174   6.341   0.303   2.593 -1.1263  0.7787 -0.0247
  162OSM      P18175   6.072   0.447   2.495 -0.2081  0.0978  0.1369
  162OSM    O1318176   6.086   0.561   2.402 -0.0313 -0.1213  0.0109
  162OSM    O1418177   5.940   0.370   2.501 -0.1806 -0.4155  0.1425
  162OSM    O1118178   6.121   0.492   2.637  0.2245  0.1437 -0.0436
  162OSM    O1218179   6.185   0.349   2.449  0.3124  0.3809 -0.7525
  162OSM    C1S18180   6.101   0.407   2.752 -0.0226  0.2262  0.3835
  162OSM    H1S18181   6.160   0.313   2.750  0.3584  0.4579  0.5064
  162OSM    H1T18182   5.994   0.380   2.760 -0.8023  1.6886 -3.0868
  162OSM     NF18183   6.084   0.407   2.994  0.3846  0.8750  0.0312
  162OSM    HNF18184   5.995   0.439   3.026  0.3807 -0.0293  0.9974
  162OSM    C2S18185   6.152   0.470   2.886 -0.6386 -0.4773 -0.4960
  162OSM    H2S18186   6.262   0.453   2.890 -0.2541  1.6355 -0.6721
  162OSM    C3S18187   6.133   0.621   2.869  0.4512 -0.0322 -0.1940
  162OSM    H3S18188   6.033   0.652   2.830 -1.1554  1.3486  4.3822
  162OSM     O318189   6.226   0.685   2.787 -0.9344 -0.5821 -0.0635
  162OSM    HO318190   6.247   0.609   2.732  1.6868 -2.3642  3.0490
  162OSM    C4S18191   6.126   0.691   3.001  0.5381  0.1959  0.5225
  162OSM    H4S18192   6.218   0.685   3.062  1.2491  1.5558 -0.3828
  162OSM    C5S18193   6.020   0.749   3.047  0.4021 -0.3450 -0.7438
  162OSM    H5S18194   5.931   0.756   2.982  0.0993 -1.4467 -0.4652
  162OSM    C6S18195   6.008   0.818   3.182  0.2361 -0.1981 -0.3761
  162OSM    H6S18196   5.936   0.765   3.249  2.1889 -0.9712  1.2336
  162OSM    H6T18197   5.976   0.924   3.175  1.5004  0.2546  0.2354
  162OSM    C7S18198   6.146   0.811   3.262  0.4682 -0.5615  0.8158
  162OSM    H7S18199   6.228   0.863   3.208  0.3127 -1.1159  0.0297
  162OSM    H7T18200   6.182   0.706   3.268 -0.2631 -0.9167 -0.6078
  162OSM    C8S18201   6.145   0.873   3.404  0.7049 -0.0614  0.0109
  162OSM    H8S18202   6.144   0.984   3.400 -1.6466 -0.0798 -2.4017
  162OSM    H8T18203   6.229   0.831   3.464 -0.1701 -0.3490  1.0688
  162OSM    C9S18204   6.015   0.856   3.482  0.4309 -0.3234  0.4271
  162OSM    H9S18205   5.975   0.756   3.458 -0.9089 -0.0358  1.3338
  162OSM    H9T18206   5.931   0.923   3.454  0.4300 -0.7811 -0.6993
  162OSM   C10S18207   6.026   0.848   3.641  0.2305 -0.2139 -0.5601
  162OSM   H10S18208   5.935   0.888   3.689  1.4526  1.0687  0.7933
  162OSM   H10T18209   6.110   0.910   3.681  1.5363 -1.5672 -1.0727
  162OSM   C11S18210   6.052   0.706   3.699  0.1282  0.4105 -0.5470
  162OSM   H11S18211   6.147   0.666   3.658  0.2981  0.2881 -0.0480
  162OSM   H11T18212   5.980   0.634   3.655  0.3945 -0.9402  1.1032
  162OSM   C12S18213   6.047   0.701   3.855 -0.7874  0.2426  0.0958
  162OSM   H12S18214   6.070   0.595   3.881  0.5748  0.6554  0.6654
  162OSM   H12T18215   5.947   0.725   3.895 -0.4221  0.3765  0.9410
  162OSM   C13S18216   6.156   0.786   3.932  0.5388 -0.0487  0.0749
  162OSM   H13S18217   6.128   0.893   3.929 -3.3648 -0.8997  1.4228
  162OSM   H13T18218   6.250   0.761   3.878  0.5409 -0.9826  0.4997
  162OSM   C14S18219   6.162   0.750   4.079 -0.5549 -0.5510 -0.0057
  162OSM   H14S18220   6.065   0.716   4.122  1.3947 -0.4867  5.1308
  162OSM   H14T18221   6.191   0.839   4.139  1.6145 -1.6947  0.7438
  162OSM   C15S18222   6.267   0.636   4.108 -0.4638 -0.4414 -0.1999
  162OSM   H15S18223   6.362   0.678   4.070  1.1299 -1.3416  2.4749
  162OSM   H15T18224   6.260   0.537   4.059 -0.5074 -1.1475  1.1800
  162OSM   C16S18225   6.286   0.604   4.256  0.3496 -0.5875  0.2155
  162OSM   H16S18226   6.280   0.694   4.321 -1.7703  0.4311 -1.2782
  162OSM   H16T18227   6.386   0.560   4.275  0.2428 -0.4113  1.2776
  162OSM   C17S18228   6.203   0.480   4.296  0.7928 -0.2256 -0.7542
  162OSM   H17S18229   6.241   0.397   4.232  0.1817 -1.5340  0.5515
  162OSM   H17T18230   6.095   0.493   4.273  0.4786  0.5724  1.0699
  162OSM   C18S18231   6.206   0.438   4.443  0.3069 -0.2656 -0.4795
  162OSM   H18S18232   6.175   0.527   4.502  1.4133 -0.7287  0.8718
  162OSM   H18T18233   6.308   0.411   4.480  0.7017  1.9314  0.1662
  162OSM   H18U18234   6.144   0.350   4.472  1.5175 -0.4457  1.8532
  162OSM    C1F18235   6.118   0.283   3.042 -0.1555  0.8543  0.2012
  162OSM     OF18236   6.214   0.221   2.998 -0.1516  0.8236  0.4362
  162OSM    C2F18237   6.049   0.233   3.155  0.3230 -0.0234 -0.9011
  162OSM    H2F18238   6.128   0.185   3.217  0.8398 -0.1184 -1.6118
  162OSM    H2G18239   5.973   0.156   3.130 -1.0356  1.4333 -1.3853
  162OSM    C3F18240   5.950   0.329   3.235 -0.1504  1.1035  0.1158
  162OSM    H3F18241   5.900   0.275   3.317 -1.1530 -0.0484 -1.2179
  162OSM    H3G18242   5.877   0.375   3.165 -0.2577  0.2060 -0.3759
  162OSM    C4F18243   6.021   0.453   3.305  1.2007 -1.3231 -0.5738
  162OSM    H4F18244   5.947   0.531   3.333  3.1816 -0.3507  2.4263
  162OSM    H4G18245   6.083   0.494   3.223  1.3654 -2.3604 -0.9887
  162OSM    C5F18246   6.109   0.416   3.426  0.6639  0.3254  0.6314
  162OSM    H5F18247   6.157   0.508   3.465 -0.8282  1.1452  0.6169
  162OSM    H5G18248   6.184   0.348   3.380 -0.3700  1.5562 -3.2082
  162OSM    C6F18249   6.024   0.352   3.538  0.2349  0.1995  0.1550
  162OSM    H6F18250   6.012   0.244   3.515  0.5549 -0.6201  3.3698
  162OSM    H6G18251   5.928   0.407   3.533  0.7959  1.0719 -2.0057
  162OSM    C7F18252   6.093   0.351   3.677 -1.1515  0.3261 -0.2255
  162OSM    H7F18253   6.031   0.297   3.751 -0.2543  1.4348  1.4016
  162OSM    H7G18254   6.104   0.454   3.718  1.6653  0.2510 -0.6054
  162OSM    C8F18255   6.226   0.276   3.671 -0.7647 -0.2911 -0.7195
  162OSM    H8F18256   6.297   0.302   3.590  2.7828 -0.9013  1.9626
  162OSM    H8G18257   6.198   0.170   3.649  0.9739 -0.9573  0.1110
  162OSM    C9F18258   6.278   0.292   3.813 -0.2346  0.2008 -0.3110
  162OSM    H9F18259   6.304   0.398   3.830 -0.5695  0.2251  0.0563
  162OSM   C10F18260   6.286   0.216   3.921 -0.8605  0.0596  0.3161
  162OSM   H10F18261   6.337   0.256   4.010  2.6920 -1.1651 -0.9814
  162OSM   C11F18262   6.223   0.078   3.929 -0.1192 -0.8953 -0.8099
  162OSM   H11F18263   6.294   0.007   3.977  0.7323  0.5182  0.0863
  162OSM   H11G18264   6.196   0.042   3.827  0.5672 -1.7468 -0.7129
  162OSM   C12F18265   6.094   0.078   4.011  0.6713 -0.3489  0.3029
  162OSM   H12F18266   6.039  -0.019   4.006  2.2240 -1.3880  1.9357
  162OSM   H12G18267   6.026   0.154   3.968  0.5872  0.1227  1.2463
  162OSM   C13F18268   6.108   0.104   4.163  0.2848  0.2534 -0.5191
  162OSM   H13F18269   6.167   0.196   4.182 -0.1387  0.3703  0.2435
  162OSM   H13G18270   6.150   0.010   4.204 -4.2477 -1.9993 -0.4261
  162OSM   C14F18271   5.964   0.107   4.221  0.0916 -0.4243  0.1719
  162OSM   H14F18272   5.907   0.042   4.151  0.4959  0.4785 -1.0291
  162OSM   H14G18273   5.913   0.205   4.208  0.2737 -0.6113 -2.4234
  162OSM   C15F18274   5.962   0.057   4.369 -0.1125  0.0461 -0.3532
  162OSM   H15F18275   6.024   0.135   4.418  1.3140 -0.6048 -1.0573
  162OSM   H15G18276   6.018  -0.037   4.388 -2.5227 -1.3235  0.4096
  162OSM   C16F18277   5.827   0.036   4.433  0.7003 -0.4608  0.6085
  162OSM   H16F18278   5.772  -0.046   4.384 -0.8493  0.7409  0.2730
  162OSM   H16G18279   5.773   0.131   4.417 -0.0602 -1.1050 -0.7258
  162OSM   C17F18280   5.839   0.006   4.584  0.2929 -0.1654  0.2771
  162OSM   H17F18281   5.886   0.099   4.620  1.9023 -1.1841  0.8952
  162OSM   H17G18282   5.912  -0.078   4.588  0.6398  0.1755  1.7603
  162OSM   C18F18283   5.714  -0.030   4.657 -0.1420  0.3963 -0.4302
  162OSM   H18F18284   5.745  -0.063   4.759  0.5870 -0.0996 -0.7996
  162OSM   H18G18285   5.675  -0.122   4.609 -0.4504 -0.9284  2.1838
  162OSM   H18H18286   5.644   0.056   4.657  1.8697  2.1519  0.3804
  163OSM      N18287   3.641   0.602   2.869 -0.5055 -0.3724 -0.4999
  163OSM    C1518288   3.779   0.602   2.810  0.7624  0.0999  0.4149
  163OSM   H15A18289   3.790   0.504   2.766 -2.4067 -1.2433  2.2931
  163OSM   H15B18290   3.855   0.598   2.887  0.6050  0.9824  0.6239
  163OSM   H15C18291   3.808   0.673   2.734 -0.6960 -2.1047 -2.3947
  163OSM    C1418292   3.642   0.488   2.971 -0.0765  0.0429  0.2200
  163OSM   H14A18293   3.656   0.391   2.925 -1.6660 -0.6308  1.0628
  163OSM   H14B18294   3.548   0.497   3.023 -0.2063  2.8492 -0.3848
  163OSM   H14C18295   3.722   0.498   3.043 -0.4737 -0.6858  0.7772
  163OSM    C1318296   3.619   0.731   2.935  0.1354 -0.2606 -0.3094
  163OSM   H13A18297   3.516   0.756   2.951  0.2414  0.8584 -1.1967
  163OSM   H13B18298   3.663   0.804   2.869  1.1818 -0.7427 -0.1687
  163OSM   H13C18299   3.676   0.734   3.026  0.8884 -0.8015 -0.7479
  163OSM    C1218300   3.528   0.576   2.771 -0.1515  0.0673 -0.5180
  163OSM   H12A18301   3.551   0.484   2.719  0.1695 -1.0308  1.4629
  163OSM   H12B18302   3.534   0.649   2.692 -0.8695 -0.5291 -1.1470
  163OSM    C1118303   3.383   0.570   2.825  0.0414 -0.0237 -0.2200
  163OSM   H11A18304   3.383   0.505   2.915  1.4281  1.0430  0.5810
  163OSM   H11B18305   3.328   0.511   2.748 -1.5192 -1.5683  1.9762
  163OSM      P18306   3.176   0.714   2.896  0.6362 -0.2895 -0.3051
  163OSM    O1318307   3.128   0.851   2.873 -0.5893  0.4529  0.0013
  163OSM    O1418308   3.095   0.612   2.834  0.0021 -0.0208 -0.1447
  163OSM    O1118309   3.181   0.690   3.050  0.4279 -0.7180  0.8039
  163OSM    O1218310   3.332   0.704   2.850 -0.0860  0.1016 -0.2457
  163OSM    C1S18311   3.164   0.566   3.112  0.6486  0.6944 -0.0838
  163OSM    H1S18312   3.216   0.478   3.068  0.8605  0.6990  0.1518
  163OSM    H1T18313   3.060   0.526   3.108  0.9720 -0.2116  0.3107
  163OSM     NF18314   3.160   0.441   3.324 -0.3500  0.4702 -0.4250
  163OSM    HNF18315   3.064   0.423   3.346 -0.2087  2.1942  1.9028
  163OSM    C2S18316   3.193   0.574   3.262  0.3719 -0.0248 -0.4769
  163OSM    H2S18317   3.301   0.588   3.284  0.1687 -0.8276  1.2036
  163OSM    C3S18318   3.118   0.688   3.332 -0.3667 -0.2281 -0.3212
  163OSM    H3S18319   3.013   0.656   3.314  0.3198 -1.1485 -2.9724
  163OSM     O318320   3.126   0.817   3.274 -0.4559  0.1030  0.7477
  163OSM    HO318321   3.167   0.785   3.193  1.8392 -1.4159  2.3810
  163OSM    C4S18322   3.147   0.697   3.482 -0.5595 -0.4939 -0.0558
  163OSM    H4S18323   3.248   0.721   3.517 -0.3781 -2.3736  0.8584
  163OSM    C5S18324   3.065   0.679   3.584 -0.3760  0.8756  0.1195
  163OSM    H5S18325   2.965   0.638   3.565 -0.5354  1.4515 -0.3095
  163OSM    C6S18326   3.115   0.655   3.726  0.8369  0.0253 -0.1874
  163OSM    H6S18327   3.081   0.554   3.758 -2.0131  1.3766  1.5014
  163OSM    H6T18328   3.068   0.732   3.791 -3.0910 -0.3160 -2.3115
  163OSM    C7S18329   3.271   0.650   3.752 -0.1943  0.0020  0.4482
  163OSM    H7S18330   3.318   0.744   3.717 -0.6243  0.3726  0.8524
  163OSM    H7T18331   3.324   0.580   3.685 -0.7723  0.1068 -0.1281
  163OSM    C8S18332   3.317   0.617   3.895 -0.6989 -0.2213  0.5683
  163OSM    H8S18333   3.427   0.628   3.903 -0.6893  0.4346 -0.3132
  163OSM    H8T18334   3.294   0.508   3.905 -1.4666  0.0905  2.5233
  163OSM    C9S18335   3.257   0.686   4.009 -0.3094  0.4295 -0.0545
  163OSM    H9S18336   3.147   0.670   3.999 -0.3534  0.8332 -0.2381
  163OSM    H9T18337   3.271   0.793   3.984  1.2794  0.4886  0.9168
  163OSM   C10S18338   3.326   0.651   4.141 -0.1651 -0.2149  0.1646
  163OSM   H10S18339   3.423   0.704   4.140  0.3675 -1.1771 -0.0106
  163OSM   H10T18340   3.340   0.541   4.146  0.2769 -0.1575  0.2298
  163OSM   C11S18341   3.244   0.685   4.264  0.3483 -0.1777 -0.2692
  163OSM   H11S18342   3.170   0.605   4.285  0.9324 -0.7819 -0.4945
  163OSM   H11T18343   3.203   0.788   4.248  1.0005 -0.1185 -1.7014
  163OSM   C12S18344   3.321   0.677   4.402 -1.0038  0.1193 -0.3821
  163OSM   H12S18345   3.374   0.582   4.425 -0.5276  0.6271  0.7094
  163OSM   H12T18346   3.247   0.683   4.485  0.6992  0.6041  1.1650
  163OSM   C13S18347   3.414   0.799   4.425 -0.3226  0.0796 -1.1931
  163OSM   H13S18348   3.361   0.892   4.393 -0.3692  0.8800  1.0208
  163OSM   H13T18349   3.482   0.780   4.339  1.5139 -0.8948  0.4118
  163OSM   C14S18350   3.486   0.812   4.560 -0.6878 -0.1499  0.5181
  163OSM   H14S18351   3.565   0.887   4.542 -0.0094 -1.1167 -0.6999
  163OSM   H14T18352   3.533   0.712   4.571  3.0304  0.8603 -3.4963
  163OSM   C15S18353   3.396   0.861   4.677  0.0799 -0.1615 -0.3914
  163OSM   H15S18354   3.306   0.798   4.692  1.1150 -1.3922  0.8619
  163OSM   H15T18355   3.373   0.969   4.660 -1.7137 -0.3397  0.5913
  163OSM   C16S18356   3.490   0.858   4.797  0.0035 -0.3890 -0.2925
  163OSM   H16S18357   3.585   0.910   4.775 -0.8209  1.9057  1.1975
  163OSM   H16T18358   3.528   0.756   4.820 -0.2345 -0.5308 -0.5136
  163OSM   C17S18359   3.438   0.930   4.922  0.4900 -0.0272 -0.1237
  163OSM   H17S18360   3.392   1.028   4.895  1.4415  0.5511  0.3092
  163OSM   H17T18361   3.522   0.948   4.991 -0.2530 -0.4566  0.9234
  163OSM   C18S18362   3.340   0.835   4.998  0.5689 -1.0390 -0.3564
  163OSM   H18S18363   3.272   0.888   5.067 -0.8889 -0.6198 -2.0462
  163OSM   H18T18364   3.407   0.766   5.054  2.2971 -0.8580 -2.0784
  163OSM   H18U18365   3.290   0.772   4.921 -0.2713  0.1113 -0.7660
  163OSM    C1F18366   3.244   0.339   3.312  0.2746 -0.6990  0.3804
  163OSM     OF18367   3.347   0.348   3.253  0.1554  0.4397  0.6007
  163OSM    C2F18368   3.202   0.211   3.384 -0.9671  0.4798 -0.1206
  163OSM    H2F18369   3.099   0.191   3.350 -0.2099 -1.1461 -1.6337
  163OSM    H2G18370   3.213   0.227   3.494  1.0520  0.8077 -0.3239
  163OSM    C3F18371   3.304   0.099   3.340 -0.0003  0.3479  0.0864
  163OSM    H3F18372   3.405   0.129   3.375  0.2754  0.8760 -1.1110
  163OSM    H3G18373   3.289   0.077   3.232  0.7771 -1.8652  0.3738
  163OSM    C4F18374   3.265  -0.038   3.412 -0.4925 -0.5693  0.9652
  163OSM    H4F18375   3.164  -0.063   3.374 -0.9104 -1.3423  2.4894
  163OSM    H4G18376   3.267  -0.015   3.521 -1.4122 -0.5372  0.9855
  163OSM    C5F18377   3.366  -0.138   3.360  0.6190  0.3209 -0.2551
  163OSM    H5F18378   3.460  -0.120   3.417  0.0636  2.8179 -0.0396
  163OSM    H5G18379   3.384  -0.110   3.254 -0.3420  1.0970 -0.2241
  163OSM    C6F18380   3.311  -0.279   3.380  0.0274 -0.0190  0.4461
  163OSM    H6F18381   3.375  -0.346   3.318  0.0353  1.5305 -1.3216
  163OSM    H6G18382   3.213  -0.279   3.328  0.9296  1.1527 -1.3985
  163OSM    C7F18383   3.305  -0.335   3.524 -0.0481 -0.3903  0.3838
  163OSM    H7F18384   3.249  -0.257   3.580 -1.4670 -0.6611 -0.6059
  163OSM    H7G18385   3.406  -0.344   3.570  0.0514  0.3390  0.3287
  163OSM    C8F18386   3.215  -0.469   3.533  0.0705  0.3740 -0.0149
  163OSM    H8F18387   3.291  -0.544   3.504 -0.0216 -0.2157  1.2093
  163OSM    H8G18388   3.143  -0.470   3.448 -0.0240 -1.2333  0.0630
  163OSM    C9F18389   3.163  -0.487   3.675 -0.4653  0.5844  0.3394
  163OSM    H9F18390   3.225  -0.543   3.747 -1.0105  0.6099  0.8312
  163OSM   C10F18391   3.050  -0.441   3.728  0.0730 -0.3508  0.3799
  163OSM   H10F18392   3.019  -0.456   3.833 -0.5467  0.5622  0.3383
  163OSM   C11F18393   2.945  -0.357   3.655  0.8880  0.2829 -0.3840
  163OSM   H11F18394   2.844  -0.399   3.671  0.9994  0.6087  1.4568
  163OSM   H11G18395   2.977  -0.348   3.549 -1.2173  1.0430 -0.9861
  163OSM   C12F18396   2.938  -0.203   3.684 -0.5161 -0.2381 -0.2281
  163OSM   H12F18397   2.858  -0.150   3.627  0.2211 -0.7998 -1.8360
  163OSM   H12G18398   3.034  -0.168   3.642 -1.6483  0.1636 -2.6529
  163OSM   C13F18399   2.937  -0.167   3.835  0.2302 -0.5687  0.1594
  163OSM   H13F18400   2.941  -0.056   3.833  0.1682 -0.5748 -0.6118
  163OSM   H13G18401   3.027  -0.198   3.893  0.1303 -0.4212  0.3918
  163OSM   C14F18402   2.821  -0.222   3.907  0.2506 -0.3586 -0.8270
  163OSM   H14F18403   2.834  -0.332   3.921  2.3568  0.0904  1.3330
  163OSM   H14G18404   2.730  -0.204   3.845 -1.1903 -1.8788  0.7365
  163OSM   C15F18405   2.785  -0.161   4.041  0.2213 -0.1972  0.4417
  163OSM   H15F18406   2.791  -0.051   4.031  1.7525 -0.3871 -1.1938
  163OSM   H15G18407   2.858  -0.185   4.122  0.7507 -1.2006 -0.3085
  163OSM   C16F18408   2.637  -0.193   4.084  0.3857 -0.1406 -0.5580
  163OSM   H16F18409   2.622  -0.302   4.070 -0.5237 -0.1748  0.5631
  163OSM   H16G18410   2.557  -0.140   4.028  0.2303  0.5457  0.2991
  163OSM   C17F18411   2.619  -0.156   4.229  0.0321  0.5933  1.0247
  163OSM   H17F18412   2.511  -0.146   4.253 -0.4725 -0.3343 -0.6618
  163OSM   H17G18413   2.668  -0.057   4.235  0.9847  0.2991 -1.1319
  163OSM   C18F18414   2.690  -0.256   4.329 -0.1470 -0.0119 -0.1360
  163OSM   H18F18415   2.673  -0.363   4.308  1.1720 -0.6994  1.9423
  163OSM   H18G18416   2.656  -0.230   4.432 -1.0904  1.9666 -0.8910
  163OSM   H18H18417   2.800  -0.238   4.329 -0.2632  0.7805 -0.9879
  164OSM      N18418   5.862   1.194   2.420  0.1910  0.0447 -0.1653
  164OSM    C1518419   5.804   1.127   2.538  0.4736 -0.3886  0.5158
  164OSM   H15A18420   5.699   1.104   2.521  0.9030 -2.0774 -0.1223
  164OSM   H15B18421   5.804   1.184   2.629 -0.5391  0.7474 -0.1668
  164OSM   H15C18422   5.867   1.039   2.547  2.2587  0.5879 -1.5739
  164OSM    C1418423   5.873   1.108   2.301 -0.4604  0.0719 -0.4924
  164OSM   H14A18424   5.928   1.017   2.322  0.7733  0.3330 -2.3459
  164OSM   H14B18425   5.919   1.156   2.216  0.3326 -1.2163 -0.8340
  164OSM   H14C18426   5.773   1.084   2.268 -1.0947  0.9580  0.7069
  164OSM    C1318427   5.772   1.310   2.388 -0.6331  0.3357  0.2118
  164OSM   H13A18428   5.673   1.288   2.423 -0.7468  2.1077  1.1517
  164OSM   H13B18429   5.784   1.340   2.285  2.2549  0.3476  0.4527
  164OSM   H13C18430   5.792   1.398   2.448 -0.4599  1.3077 -1.2077
  164OSM    C1218431   6.000   1.246   2.460 -0.0042  0.2152 -0.9433
  164OSM   H12A18432   6.027   1.308   2.376  0.1862  0.7597 -0.4874
  164OSM   H12B18433   6.066   1.161   2.474 -0.4728 -0.0450 -0.2024
  164OSM    C1118434   6.013   1.339   2.586 -0.0398 -0.3362  0.7354
  164OSM   H11A18435   6.116   1.369   2.613  0.7206 -0.4132 -1.8432
  164OSM   H11B18436   5.973   1.286   2.675 -1.2935  1.2703  1.1954
  164OSM      P18437   5.992   1.588   2.490 -0.0746 -0.2511 -0.0467
  164OSM    O1318438   6.098   1.543   2.405 -0.1151 -0.2652 -0.0677
  164OSM    O1418439   5.879   1.676   2.438 -0.3056  0.1240  0.3934
  164OSM    O1118440   6.072   1.662   2.612 -0.6431 -0.0229  0.1391
  164OSM    O1218441   5.935   1.458   2.561 -0.0493 -0.6407 -0.2963
  164OSM    C1S18442   6.002   1.699   2.731 -0.1971 -0.1922 -0.7707
  164OSM    H1S18443   5.903   1.650   2.745 -1.0150  1.9633  2.2190
  164OSM    H1T18444   5.987   1.809   2.722  1.7529 -0.0420 -3.0824
  164OSM     NF18445   6.015   1.700   2.983 -0.3598 -0.1801  0.6327
  164OSM    HNF18446   6.025   1.797   3.001  2.4138 -0.3353  0.3661
  164OSM    C2S18447   6.090   1.664   2.858 -0.3536  0.2813  0.1567
  164OSM    H2S18448   6.097   1.553   2.857  0.8346  0.3331 -1.2701
  164OSM    C3S18449   6.235   1.726   2.843  0.0435  0.2512  0.8582
  164OSM    H3S18450   6.227   1.837   2.836 -2.2147  0.1076  0.5092
  164OSM     O318451   6.310   1.681   2.728  0.1363  0.1830  0.0992
  164OSM    HO318452   6.235   1.673   2.668  0.0975  1.6224 -0.0671
  164OSM    C4S18453   6.313   1.688   2.967 -0.1223  0.2387  0.8053
  164OSM    H4S18454   6.290   1.587   3.004  0.0587  0.2477  0.9462
  164OSM    C5S18455   6.398   1.775   3.034  0.5349  0.1049 -0.2778
  164OSM    H5S18456   6.416   1.877   2.997  1.5645  0.4165  0.9883
  164OSM    C6S18457   6.452   1.755   3.175  0.0449 -0.3276 -0.4004
  164OSM    H6S18458   6.562   1.753   3.163  0.4161 -0.5120  2.3496
  164OSM    H6T18459   6.412   1.664   3.226 -0.8701  0.7122  0.8096
  164OSM    C7S18460   6.390   1.870   3.258  0.4526 -0.2339 -0.1913
  164OSM    H7S18461   6.280   1.865   3.270  0.6138 -1.4301  1.1210
  164OSM    H7T18462   6.419   1.970   3.219 -0.3701  0.3635  0.6756
  164OSM    C8S18463   6.437   1.875   3.399 -0.3469 -0.2616 -0.4318
  164OSM    H8S18464   6.447   1.973   3.449 -1.5061 -0.6292  0.5626
  164OSM    H8T18465   6.539   1.830   3.403  0.4147  1.3232 -1.0659
  164OSM    C9S18466   6.349   1.790   3.492 -0.8491  0.3534 -0.5225
  164OSM    H9S18467   6.355   1.688   3.449 -0.1893  0.5910 -1.0059
  164OSM    H9T18468   6.245   1.828   3.492 -0.4192  1.7517  1.8944
  164OSM   C10S18469   6.393   1.786   3.647  0.5132  0.3078  0.0429
  164OSM   H10S18470   6.358   1.881   3.694 -0.2289  0.4866 -0.8565
  164OSM   H10T18471   6.501   1.766   3.660 -0.1130 -2.0549  2.5582
  164OSM   C11S18472   6.308   1.669   3.709 -1.0936 -0.4153  0.3238
  164OSM   H11S18473   6.323   1.577   3.648 -2.3096 -0.6490  0.3544
  164OSM   H11T18474   6.197   1.679   3.702 -1.5038 -4.3434 -2.1736
  164OSM   C12S18475   6.348   1.638   3.853  0.2887 -0.1597  0.1346
  164OSM   H12S18476   6.459   1.628   3.850  0.1138 -2.4604  0.1441
  164OSM   H12T18477   6.305   1.542   3.887  0.6925 -0.4911 -0.2807
  164OSM   C13S18478   6.312   1.750   3.955  0.0717  0.9387 -0.3350
  164OSM   H13S18479   6.201   1.756   3.963  0.0225 -1.5733  3.0534
  164OSM   H13T18480   6.366   1.842   3.923  0.9837  0.5940  0.1708
  164OSM   C14S18481   6.360   1.721   4.094  0.0506 -0.1399 -0.2336
  164OSM   H14S18482   6.373   1.816   4.151  2.4083  0.3433 -1.4284
  164OSM   H14T18483   6.464   1.682   4.084  0.8448  1.6785  0.2898
  164OSM   C15S18484   6.278   1.619   4.181 -0.0613 -1.1016 -0.4042
  164OSM   H15S18485   6.306   1.522   4.136 -0.0878 -0.6084 -1.5261
  164OSM   H15T18486   6.167   1.613   4.176 -0.1694 -0.5593  0.8226
  164OSM   C16S18487   6.318   1.629   4.331  0.2773 -0.2582 -0.8422
  164OSM   H16S18488   6.428   1.647   4.339 -0.3286  4.2428  0.3100
  164OSM   H16T18489   6.290   1.537   4.386  0.4534  0.4572  0.4962
  164OSM   C17S18490   6.251   1.744   4.410 -0.8778  0.3934 -0.4745
  164OSM   H17S18491   6.141   1.728   4.409 -0.9356  0.3675  1.4073
  164OSM   H17T18492   6.264   1.846   4.369  0.7210  0.4276  0.0315
  164OSM   C18S18493   6.280   1.738   4.562  0.4218  0.5480 -0.5305
  164OSM   H18S18494   6.214   1.814   4.610 -1.8691  0.2525 -2.9484
  164OSM   H18T18495   6.389   1.751   4.579  0.8811 -1.9566 -1.1002
  164OSM   H18U18496   6.259   1.638   4.606 -1.2203  1.5020  1.0046
  164OSM    C1F18497   5.907   1.633   3.017  0.4863  0.4814 -0.5360
  164OSM     OF18498   5.870   1.534   2.950 -0.4708 -0.3111 -0.0964
  164OSM    C2F18499   5.820   1.689   3.131 -0.2405  0.0419  0.1240
  164OSM    H2F18500   5.713   1.668   3.111 -0.0797 -0.4640 -0.2453
  164OSM    H2G18501   5.839   1.798   3.143 -0.8582 -0.0629  2.4234
  164OSM    C3F18502   5.864   1.612   3.259  0.2966 -0.6284 -0.4702
  164OSM    H3F18503   5.849   1.505   3.234  3.2164 -1.4232  0.7079
  164OSM    H3G18504   5.796   1.636   3.344 -0.9292 -0.0103 -1.5916
  164OSM    C4F18505   6.009   1.623   3.305 -0.0049  0.9961  0.5085
  164OSM    H4F18506   6.041   1.729   3.302  0.2989  1.0100  2.8638
  164OSM    H4G18507   6.081   1.574   3.235  0.4294  1.1027  0.8737
  164OSM    C5F18508   6.033   1.573   3.442  0.6421 -0.4318  0.3040
  164OSM    H5F18509   5.980   1.637   3.516  1.6281 -0.8302  1.3795
  164OSM    H5G18510   6.139   1.584   3.473 -0.3425  0.1286  3.9240
  164OSM    C6F18511   5.989   1.432   3.476 -0.3914 -0.0620 -0.7967
  164OSM    H6F18512   6.040   1.361   3.408 -0.2784 -0.3276 -0.4377
  164OSM    H6G18513   5.879   1.424   3.462 -0.5980 -1.9773  1.4008
  164OSM    C7F18514   6.030   1.372   3.614 -0.1288  0.5748  0.3108
  164OSM    H7F18515   5.971   1.422   3.694  0.7669 -0.7059  1.8201
  164OSM    H7G18516   6.139   1.388   3.628  0.6109 -1.5454 -2.2676
  164OSM    C8F18517   5.999   1.223   3.623  0.1543 -0.1520 -0.6272
  164OSM    H8F18518   6.036   1.171   3.532 -3.0993 -0.3752 -1.9987
  164OSM    H8G18519   5.888   1.214   3.628 -0.1350  2.8306  0.5209
  164OSM    C9F18520   6.061   1.176   3.752 -0.4498 -0.6121  0.0855
  164OSM    H9F18521   6.168   1.152   3.739 -0.5369 -0.3112 -1.3122
  164OSM   C10F18522   5.988   1.145   3.863 -0.1021 -0.5079 -0.0207
  164OSM   H10F18523   6.029   1.101   3.955  0.1671 -0.2177  0.0018
  164OSM   C11F18524   5.840   1.166   3.895  0.3528 -0.0396 -0.7762
  164OSM   H11F18525   5.773   1.218   3.824 -1.9447  1.2217  2.0858
  164OSM   H11G18526   5.823   1.216   3.993  0.3321 -3.5638  1.1755
  164OSM   C12F18527   5.763   1.035   3.912  0.3334  0.4914 -0.0209
  164OSM   H12F18528   5.771   0.963   3.828  0.2244  0.3178  0.1163
  164OSM   H12G18529   5.653   1.049   3.911  0.3002  0.9525  3.0420
  164OSM   C13F18530   5.782   0.960   4.047  0.9326 -0.4933 -0.1957
  164OSM   H13F18531   5.865   0.888   4.031  0.2580 -1.4543  0.5109
  164OSM   H13G18532   5.687   0.917   4.083  0.8112 -1.7330 -1.8823
  164OSM   C14F18533   5.818   1.043   4.168  0.0693 -0.1533  0.4346
  164OSM   H14F18534   5.746   1.127   4.182  0.5950 -0.0716  3.2379
  164OSM   H14G18535   5.920   1.084   4.154  0.1623  0.4372  2.5320
  164OSM   C15F18536   5.831   0.956   4.292 -0.4280 -0.3095  0.3882
  164OSM   H15F18537   5.883   0.863   4.262 -0.7187  0.5134 -3.0922
  164OSM   H15G18538   5.733   0.930   4.338 -1.5558  3.0170  0.1958
  164OSM   C16F18539   5.905   1.026   4.404 -0.1534  0.2871 -0.1944
  164OSM   H16F18540   5.859   1.111   4.458 -1.6151 -1.3510  1.2768
  164OSM   H16G18541   5.994   1.065   4.351  0.8911  1.9793  2.5970
  164OSM   C17F18542   5.955   0.932   4.512  0.4704  0.3376  0.3045
  164OSM   H17F18543   6.046   0.987   4.543  1.0449 -0.1278 -0.5176
  164OSM   H17G18544   5.984   0.834   4.468 -1.1394  0.0119 -0.1206
  164OSM   C18F18545   5.870   0.926   4.635 -0.2486  0.2274  0.4505
  164OSM   H18F18546   5.777   0.867   4.616 -0.2356  0.8637 -1.8398
  164OSM   H18G18547   5.837   1.024   4.673 -0.1289  0.2334  0.5409
  164OSM   H18H18548   5.928   0.880   4.718 -1.2913  2.1107  2.3111
  165SAPS     N18549   2.915   3.230   7.312  0.0064 -0.3151 -0.0077
  165SAPS   HN118550   2.945   3.328   7.296  3.1337 -1.0576  0.7585
  165SAPS   HN218551   3.001   3.179   7.287  0.1137  0.4514 -1.2912
  165SAPS   HN318552   2.835   3.218   7.246 -0.7914 -2.7410  1.3000
  165SAPS   C1218553   2.895   3.196   7.458 -0.0375 -1.0448  0.5350
  165SAPS  H12A18554   2.864   3.094   7.479  0.9843 -1.2571  1.0692
  165SAPS   C1318555   3.027   3.219   7.538 -0.0589 -0.2551  0.1689
  165SAPS  O13A18556   3.132   3.265   7.477  0.5184  0.5747 -0.1011
  165SAPS  O13B18557   3.028   3.192   7.661 -0.3303 -0.2114 -0.4200
  165SAPS   C1118558   2.783   3.282   7.514  0.2847  0.5227  0.3875
  165SAPS  H11A18559   2.761   3.272   7.622  0.6200  2.0499  0.6140
  165SAPS  H11B18560   2.693   3.240   7.464  0.5304  0.5425 -0.0760
  165SAPS     P18561   2.802   3.538   7.577 -0.1373 -0.1822 -0.3263
  165SAPS   O1318562   2.705   3.515   7.688  0.7237  0.0957  0.1148
  165SAPS   O1418563   2.935   3.576   7.629  0.1199  0.3810  0.5323
  165SAPS   O1218564   2.802   3.423   7.476 -0.0571 -0.6297 -0.0893
  165SAPS   O1118565   2.754   3.650   7.483 -0.1232  0.1635 -0.1719
  165SAPS    C118566   2.631   3.642   7.405 -0.0236 -0.6322  0.1777
  165SAPS    HA18567   2.545   3.598   7.459 -2.3908  0.0555 -2.7515
  165SAPS    HB18568   2.587   3.744   7.399  1.5646  0.0854  0.2989
  165SAPS    C218569   2.655   3.576   7.262 -0.6886 -0.0800  0.2702
  165SAPS    HS18570   2.714   3.481   7.269 -1.9345 -1.2335 -2.9341
  165SAPS   O2118571   2.732   3.674   7.193 -0.5487  0.4518  0.5729
  165SAPS   C2118572   2.814   3.631   7.098  0.2644  0.7883 -0.0566
  165SAPS   O2218573   2.826   3.512   7.067  0.3017 -0.4264  0.0951
  165SAPS   C2218574   2.893   3.742   7.039  0.1938  0.3471 -0.2299
  165SAPS   H2R18575   2.846   3.842   7.052  1.4366  0.8338  0.7430
  165SAPS   H2S18576   2.976   3.752   7.112 -0.3076  2.1296  0.1399
  165SAPS    C318577   2.519   3.547   7.187  0.2674  0.3259 -0.2971
  165SAPS    HX18578   2.463   3.643   7.183 -1.7085 -0.6886  1.2018
  165SAPS    HY18579   2.469   3.471   7.250  1.7420  0.8832  1.6483
  165SAPS   O3118580   2.539   3.487   7.058  0.0907 -0.7597 -0.1083
  165SAPS   C3118581   2.423   3.462   6.996  0.0286  0.6268  0.0396
  165SAPS   O3218582   2.312   3.499   7.032 -1.2699  0.4426 -0.8224
  165SAPS   C3218583   2.450   3.349   6.890  0.2734 -0.6199  0.9784
  165SAPS   H2X18584   2.357   3.288   6.879  0.9442 -1.3271 -1.4029
  165SAPS   H2Y18585   2.539   3.289   6.919  1.3497  1.1594  1.5234
  165SAPS   C2318586   2.958   3.730   6.897  0.3335 -0.1579  0.1272
  165SAPS   H3R18587   2.883   3.721   6.815  1.1083  1.5944 -0.8381
  165SAPS   H3S18588   3.020   3.638   6.899  1.7524  0.7848  1.1569
  165SAPS   C2418589   3.042   3.852   6.865 -0.2245  0.5497  0.4988
  165SAPS   H4R18590   2.995   3.952   6.855 -0.5237  0.5770  1.9304
  165SAPS   H4S18591   3.076   3.832   6.761 -1.7761  1.9569 -0.3167
  165SAPS   C2518592   3.154   3.886   6.957  0.2264 -0.0676 -0.0886
  165SAPS   H5R18593   3.126   3.955   7.038  3.1985  2.8746 -1.3164
  165SAPS   C2618594   3.286   3.860   6.937  0.3073 -1.3156 -0.0017
  165SAPS   H6R18595   3.351   3.888   7.021  0.2173  0.9854 -0.6403
  165SAPS   C2718596   3.354   3.799   6.822 -0.2003  0.5230 -0.4026
  165SAPS   H7R18597   3.460   3.830   6.820  0.6497 -2.0587  0.8797
  165SAPS   H7S18598   3.317   3.846   6.728 -2.5996  0.9706  0.6882
  165SAPS   C2818599   3.330   3.650   6.816  0.1477  0.4487  0.3290
  165SAPS   H8R18600   3.270   3.592   6.888  1.8112 -1.0573  0.5746
  165SAPS   C2918601   3.406   3.583   6.725 -0.5091  0.3332  0.5951
  165SAPS   H9R18602   3.392   3.475   6.711  2.0505  0.2173 -1.9201
  165SAPS  C21018603   3.501   3.630   6.618  0.0227  0.1274  0.1327
  165SAPS  H10R18604   3.577   3.550   6.605  1.3946  1.2096  1.1503
  165SAPS  H10S18605   3.552   3.716   6.667 -0.7481 -0.3249  1.7939
  165SAPS  C21118606   3.433   3.657   6.487 -0.4874 -0.8085 -0.1660
  165SAPS  H11R18607   3.353   3.734   6.491  1.0429  0.8327  0.0037
  165SAPS  C21218608   3.453   3.606   6.365  0.4579 -0.6486 -0.9030
  165SAPS  H12R18609   3.397   3.645   6.278  0.1525  0.1297 -0.3596
  165SAPS  C21318610   3.554   3.505   6.316 -0.4813 -0.1670  0.1025
  165SAPS  H13R18611   3.607   3.462   6.404  1.1380 -0.7423 -1.1143
  165SAPS  H13S18612   3.629   3.566   6.260  0.2681 -0.8298  0.3645
  165SAPS  C21418613   3.484   3.395   6.236 -0.4174 -0.3369 -0.7180
  165SAPS  H14R18614   3.437   3.310   6.289  0.9087  0.0152  1.1353
  165SAPS  C21518615   3.492   3.383   6.102 -0.6135  0.3296 -0.4263
  165SAPS  H15R18616   3.442   3.299   6.053  0.4780 -0.5915 -0.0214
  165SAPS  C21618617   3.568   3.475   6.004  0.1437 -0.2927 -1.0741
  165SAPS  H16R18618   3.673   3.477   6.039  0.1128  1.5511 -1.0259
  165SAPS  H16S18619   3.530   3.577   6.026 -0.2522 -0.7191  0.3152
  165SAPS  C21718620   3.552   3.445   5.851 -0.3984  0.1430 -0.8042
  165SAPS  H17R18621   3.550   3.334   5.842  2.7014 -0.3612  2.4964
  165SAPS  H17S18622   3.643   3.488   5.804  1.6436 -1.9669  0.9893
  165SAPS  C21818623   3.429   3.507   5.783  0.3013 -0.0204 -0.6801
  165SAPS  H18R18624   3.429   3.617   5.798 -2.4034 -0.1897  1.4765
  165SAPS  H18S18625   3.340   3.469   5.837  0.4763  0.8073  0.2138
  165SAPS  C21918626   3.413   3.458   5.638 -0.5753 -0.6872 -0.3752
  165SAPS  H19R18627   3.418   3.347   5.649 -0.4760 -0.5645  0.9775
  165SAPS  H19S18628   3.505   3.495   5.588 -1.4517  2.4055  0.1542
  165SAPS  C22018629   3.284   3.500   5.568 -0.5876  0.0630 -0.7620
  165SAPS  H20R18630   3.305   3.509   5.460  0.1466  2.2166 -0.4980
  165SAPS  H20S18631   3.249   3.602   5.596 -0.4953  0.6161 -2.5452
  165SAPS  H20T18632   3.217   3.414   5.589  0.2646 -0.0855  1.6607
  165SAPS   C3318633   2.473   3.419   6.752 -1.1134  0.5139 -0.4056
  165SAPS   H3X18634   2.511   3.337   6.686  0.5058  0.8533  0.0782
  165SAPS   H3Y18635   2.554   3.494   6.761  0.4126 -1.1433  0.3957
  165SAPS   C3418636   2.347   3.470   6.690 -0.2338  0.4147  0.6121
  165SAPS   H4X18637   2.288   3.533   6.760 -1.2698 -0.3670  0.4698
  165SAPS   H4Y18638   2.273   3.389   6.675  0.8075 -0.6858  1.2169
  165SAPS   C3518639   2.375   3.535   6.552  0.4718 -0.1572 -0.7028
  165SAPS   H5X18640   2.446   3.463   6.505 -0.9866  0.1415 -3.6331
  165SAPS   H5Y18641   2.411   3.638   6.574 -2.0042  0.4378  0.9471
  165SAPS   C3618642   2.257   3.538   6.457 -0.9613  0.0249 -0.3516
  165SAPS   H6X18643   2.168   3.594   6.494  0.5320  1.1519  1.7510
  165SAPS   H6Y18644   2.219   3.434   6.448 -1.5767 -0.2677  3.6997
  165SAPS   C3718645   2.290   3.587   6.311  0.2583 -0.0649  0.1004
  165SAPS   H7X18646   2.304   3.696   6.324 -2.2325  0.3377 -0.0880
  165SAPS   H7Y18647   2.192   3.573   6.261  0.1991 -0.2468  0.2625
  165SAPS   C3818648   2.405   3.525   6.232  0.1608  0.1299  0.1275
  165SAPS   H8X18649   2.407   3.420   6.266 -2.7354  0.1568  0.6517
  165SAPS   H8Y18650   2.503   3.565   6.267  1.4510 -2.5916 -0.1323
  165SAPS   C3918651   2.404   3.534   6.084 -0.3728  0.7352 -0.3754
  165SAPS   H9X18652   2.325   3.477   6.032  0.7001  0.0854 -1.3602
  165SAPS   H9Y18653   2.501   3.485   6.058  0.6998  1.8228  1.3282
  165SAPS  C31018654   2.403   3.679   6.025  0.4989 -0.3865 -1.6010
  165SAPS  H10X18655   2.469   3.742   6.089 -0.1222 -1.7099  0.4425
  165SAPS  H10Y18656   2.304   3.721   6.051  1.2089  1.5924 -1.9274
  165SAPS  C31118657   2.417   3.682   5.869  0.0062 -0.5007 -0.4539
  165SAPS  H11X18658   2.343   3.609   5.828 -0.0060  0.4167 -2.1764
  165SAPS  H11Y18659   2.515   3.645   5.831 -0.1834 -0.2015 -1.2636
  165SAPS  C31218660   2.404   3.813   5.798  0.0773 -0.1515 -0.5834
  165SAPS  H12X18661   2.492   3.866   5.842  0.9592 -1.5017 -0.6474
  165SAPS  H12Y18662   2.309   3.862   5.826  0.5652 -0.1041  1.1104
  165SAPS  C31318663   2.414   3.807   5.648  0.2487 -0.7126  0.7186
  165SAPS  H13X18664   2.474   3.720   5.615 -0.3395 -1.5236  1.7290
  165SAPS  H13Y18665   2.459   3.898   5.602 -0.1609 -0.5719  0.5909
  165SAPS  C31418666   2.275   3.792   5.578  0.2085 -0.1485 -0.8094
  165SAPS  H14X18667   2.207   3.868   5.621 -2.7005 -2.3016 -1.3565
  165SAPS  H14Y18668   2.235   3.691   5.599  3.1811 -1.2827 -0.1438
  165SAPS  C31518669   2.280   3.834   5.436  0.0046  0.2330  0.2691
  165SAPS  H15X18670   2.333   3.930   5.415  1.8528 -0.2012  2.4230
  165SAPS  H15Y18671   2.175   3.855   5.408  0.5844  1.5101 -1.0753
  165SAPS  C31618672   2.334   3.727   5.339 -0.1063 -0.0677 -0.4231
  165SAPS  H16X18673   2.278   3.637   5.371  0.6926 -0.1261  0.9223
  165SAPS  H16Y18674   2.435   3.696   5.373 -0.3805 -0.1201  0.3746
  165SAPS  C31718675   2.323   3.745   5.189 -0.4675 -0.7886  0.0027
  165SAPS  H17X18676   2.386   3.835   5.173 -0.2987 -0.7001  1.0379
  165SAPS  H17Y18677   2.215   3.766   5.173 -0.7744  0.4445  2.9475
  165SAPS  C31818678   2.369   3.621   5.119 -0.1076  0.3162  0.0208
  165SAPS  H18X18679   2.470   3.587   5.150  0.9194  0.9036 -2.4811
  165SAPS  H18Y18680   2.378   3.640   5.010 -1.4229 -1.1322 -0.3751
  165SAPS  H18Z18681   2.293   3.540   5.133 -1.2849  1.3122 -0.4279
  166SAPS     N18682   0.588   0.667   6.945 -0.1541 -0.1310 -0.2330
  166SAPS   HN118683   0.588   0.634   6.847  0.4891 -2.9827  0.6256
  166SAPS   HN218684   0.605   0.768   6.960 -2.1573  0.2864 -0.5151
  166SAPS   HN318685   0.660   0.615   7.000  1.6361 -0.0294 -2.3686
  166SAPS   C1218686   0.453   0.647   7.003  0.7133 -0.0883 -0.1973
  166SAPS  H12A18687   0.462   0.650   7.111 -4.2928 -0.2230  0.4662
  166SAPS   C1318688   0.367   0.774   6.982  0.1683 -0.1350  0.3242
  166SAPS  O13A18689   0.405   0.868   6.904 -0.2736  0.1972  0.2428
  166SAPS  O13B18690   0.252   0.777   7.030  0.8760  0.8097  0.0202
  166SAPS   C1118691   0.388   0.522   6.933 -0.2727  0.2730 -0.1071
  166SAPS  H11A18692   0.409   0.529   6.824  1.0735 -1.2401  0.0139
  166SAPS  H11B18693   0.278   0.523   6.940 -0.2365  1.9279  0.7828
  166SAPS     P18694   0.561   0.312   6.954  0.1918 -0.3987  0.2107
  166SAPS   O1318695   0.634   0.243   7.066  0.1760 -0.9261  0.3533
  166SAPS   O1418696   0.509   0.226   6.844 -0.2195 -0.1708  0.2690
  166SAPS   O1218697   0.436   0.404   6.998 -0.0481 -0.2018  0.4311
  166SAPS   O1118698   0.659   0.417   6.889  0.5624 -0.5509 -0.4177
  166SAPS    C118699   0.791   0.388   6.845  0.1178  0.2918  0.3749
  166SAPS    HA18700   0.866   0.436   6.911 -0.0493 -1.0625  1.6145
  166SAPS    HB18701   0.808   0.278   6.837 -3.8813 -0.3635 -1.6312
  166SAPS    C218702   0.801   0.430   6.692 -0.2624 -0.0440 -0.9881
  166SAPS    HS18703   0.805   0.541   6.697  0.2637 -0.1081  0.8427
  166SAPS   O2118704   0.695   0.386   6.607  0.1184  0.1422  0.0154
  166SAPS   C2118705   0.591   0.469   6.612  0.4685 -0.5899  0.2150
  166SAPS   O2218706   0.593   0.580   6.658  0.5215  0.3564 -0.2721
  166SAPS   C2218707   0.470   0.424   6.533  0.3254  0.6370  0.3116
  166SAPS   H2R18708   0.437   0.326   6.575  0.9025  1.0501  1.7970
  166SAPS   H2S18709   0.387   0.492   6.560  0.0927  0.4667  0.0243
  166SAPS    C318710   0.939   0.396   6.637 -0.8687  0.1511 -0.0609
  166SAPS    HX18711   0.951   0.286   6.643 -0.1848  0.2892  1.8900
  166SAPS    HY18712   1.020   0.448   6.693 -0.0326  0.0711 -1.1723
  166SAPS   O3118713   0.953   0.442   6.494 -0.3296  0.0626  0.6272
  166SAPS   C3118714   1.061   0.403   6.434 -0.0177  1.1737 -0.0401
  166SAPS   O3218715   1.151   0.335   6.483  0.4024  0.5208  0.4440
  166SAPS   C3218716   1.060   0.452   6.289  0.1806 -0.3514 -0.0346
  166SAPS   H2X18717   1.132   0.536   6.282  1.1096 -1.2031 -1.0340
  166SAPS   H2Y18718   0.958   0.472   6.249  1.0847  2.3192 -1.2520
  166SAPS   C2318719   0.486   0.411   6.383 -0.0042  0.0416  0.0600
  166SAPS   H3R18720   0.517   0.310   6.349  0.0684  1.1211 -3.4549
  166SAPS   H3S18721   0.556   0.489   6.348  0.8400 -1.0886 -0.8275
  166SAPS   C2418722   0.352   0.447   6.309  0.2177 -0.5637  0.4432
  166SAPS   H4R18723   0.266   0.406   6.366  0.2212  1.9275  2.4188
  166SAPS   H4S18724   0.358   0.417   6.202 -3.1893  1.6447 -0.5032
  166SAPS   C2518725   0.338   0.599   6.302  0.4950 -0.1522 -1.2425
  166SAPS   H5R18726   0.342   0.661   6.393  1.9639 -0.3657 -1.1312
  166SAPS   C2618727   0.358   0.672   6.190  0.2545 -1.0635 -0.7257
  166SAPS   H6R18728   0.336   0.779   6.194 -0.9433 -1.3165  0.7907
  166SAPS   C2718729   0.378   0.620   6.051  0.3171 -0.0780 -0.2813
  166SAPS   H7R18730   0.460   0.545   6.060  0.0485 -0.5227 -1.4650
  166SAPS   H7S18731   0.424   0.701   5.991 -1.0810  0.9791  0.0258
  166SAPS   C2818732   0.264   0.554   5.973 -0.2916 -0.0385  0.1166
  166SAPS   H8R18733   0.202   0.492   6.039  1.5321 -0.9087  1.0902
  166SAPS   C2918734   0.236   0.577   5.844 -0.4783 -0.6229  0.2581
  166SAPS   H9R18735   0.152   0.519   5.801  1.2845 -1.8231 -1.7616
  166SAPS  C21018736   0.295   0.680   5.748 -0.1396 -0.1013 -0.7978
  166SAPS  H10R18737   0.304   0.776   5.802 -0.4717 -0.1434 -0.6663
  166SAPS  H10S18738   0.222   0.700   5.666  0.5315 -1.0750 -1.6557
  166SAPS  C21118739   0.433   0.645   5.699  0.0496 -0.5247 -0.3874
  166SAPS  H11R18740   0.497   0.593   5.772 -0.7137 -1.9216 -0.6742
  166SAPS  C21218741   0.489   0.664   5.577  0.4055  0.3625  0.8820
  166SAPS  H12R18742   0.587   0.623   5.548 -0.7384 -0.7046 -1.8137
  166SAPS  C21318743   0.422   0.747   5.473  0.6068 -0.0297  0.1065
  166SAPS  H13R18744   0.357   0.816   5.530  0.4398  0.4283 -0.6189
  166SAPS  H13S18745   0.350   0.684   5.416 -0.0359 -0.1653  1.0568
  166SAPS  C21418746   0.506   0.838   5.391 -0.9674  0.6568  0.0723
  166SAPS  H14R18747   0.600   0.863   5.443  0.2979 -0.3566 -1.6000
  166SAPS  C21518748   0.476   0.904   5.277 -0.5814  0.3679 -0.0886
  166SAPS  H15R18749   0.548   0.978   5.240  0.4038 -1.1753 -1.4490
  166SAPS  C21618750   0.348   0.901   5.196  0.1902 -0.6913 -0.0654
  166SAPS  H16R18751   0.284   0.815   5.227 -1.1078 -0.4850 -1.9673
  166SAPS  H16S18752   0.373   0.884   5.089  0.2266 -1.3745  0.0475
  166SAPS  C21718753   0.263   1.034   5.197 -0.2385  0.1532  0.5630
  166SAPS  H17R18754   0.169   1.023   5.139 -0.4452  3.0411  0.2123
  166SAPS  H17S18755   0.328   1.112   5.152 -0.7488  0.0910 -0.2933
  166SAPS  C21818756   0.219   1.058   5.340 -0.0324  0.5112  0.1556
  166SAPS  H18R18757   0.304   1.090   5.403 -0.6400 -1.7448  2.2874
  166SAPS  H18S18758   0.185   0.966   5.393  1.2940  0.5326  1.0844
  166SAPS  C21918759   0.112   1.159   5.343  0.0867  0.5071 -0.0790
  166SAPS  H19R18760   0.124   1.251   5.282 -0.2713  0.2399 -0.5614
  166SAPS  H19S18761   0.116   1.181   5.452 -0.0437 -3.5045  0.9015
  166SAPS  C22018762  -0.029   1.102   5.323  0.1465  0.0808 -0.5069
  166SAPS  H20R18763  -0.044   1.064   5.219  1.3674 -0.4321 -0.5244
  166SAPS  H20S18764  -0.108   1.179   5.321 -0.1118 -0.1216 -3.8851
  166SAPS  H20T18765  -0.048   1.019   5.395  1.9144  1.1083  1.2367
  166SAPS   C3318766   1.137   0.345   6.194  0.0393 -0.9106 -0.0915
  166SAPS   H3X18767   1.112   0.242   6.226 -0.7855 -0.7364 -0.1716
  166SAPS   H3Y18768   1.242   0.362   6.226  0.3956 -1.7675 -0.7555
  166SAPS   C3418769   1.121   0.361   6.045 -0.0842 -0.6004 -0.1578
  166SAPS   H4X18770   1.179   0.450   6.013  0.1794 -0.0769  1.6322
  166SAPS   H4Y18771   1.016   0.381   6.016 -0.5207 -1.1424  0.9915
  166SAPS   C3518772   1.169   0.245   5.958  0.4201 -1.1417  0.0430
  166SAPS   H5X18773   1.108   0.156   5.983 -1.3263 -0.0265 -0.0920
  166SAPS   H5Y18774   1.277   0.221   5.967  0.0019 -2.4331  2.2299
  166SAPS   C3618775   1.137   0.278   5.810  0.0061 -0.1371  0.2540
  166SAPS   H6X18776   1.031   0.306   5.797  0.3114  0.7812 -0.3134
  166SAPS   H6Y18777   1.154   0.187   5.748  1.1608 -0.2813  0.7448
  166SAPS   C3718778   1.229   0.387   5.761 -0.1108 -0.2834 -0.2610
  166SAPS   H7X18779   1.336   0.361   5.775 -0.2850 -0.7021  0.3281
  166SAPS   H7Y18780   1.219   0.483   5.816 -1.5967  0.0188 -1.0067
  166SAPS   C3818781   1.221   0.409   5.614  0.0954  0.4517  0.4874
  166SAPS   H8X18782   1.114   0.401   5.585  0.0948  0.0391  0.5947
  166SAPS   H8Y18783   1.276   0.327   5.564  1.6485  2.6372 -1.5629
  166SAPS   C3918784   1.278   0.547   5.577  0.4278 -0.0770 -0.5588
  166SAPS   H9X18785   1.386   0.533   5.559  0.7362  1.2885  0.1066
  166SAPS   H9Y18786   1.257   0.614   5.664 -1.1046 -1.6477  0.3556
  166SAPS  C31018787   1.200   0.615   5.461 -0.2062 -0.3498 -0.3695
  166SAPS  H10X18788   1.228   0.721   5.441 -0.8338  0.1832  1.3567
  166SAPS  H10Y18789   1.094   0.610   5.492 -0.2407  0.6896 -0.2696
  166SAPS  C31118790   1.224   0.538   5.332 -0.6740  0.2529  0.6155
  166SAPS  H11X18791   1.127   0.536   5.279  0.0117  0.4666 -0.6722
  166SAPS  H11Y18792   1.255   0.434   5.355 -3.1473 -0.2088  2.2169
  166SAPS  C31218793   1.332   0.607   5.254  0.2315 -0.0929 -0.7993
  166SAPS  H12X18794   1.414   0.631   5.325  0.4249 -1.0351 -0.6785
  166SAPS  H12Y18795   1.289   0.700   5.212 -0.2009  0.6685  1.2458
  166SAPS  C31318796   1.383   0.527   5.139  0.2384  0.4807  0.0478
  166SAPS  H13X18797   1.296   0.483   5.087  0.3407 -0.0750  0.3341
  166SAPS  H13Y18798   1.450   0.443   5.169 -0.1891  1.0446  2.7924
  166SAPS  C31418799   1.462   0.600   5.032 -0.0118 -0.6857 -0.4279
  166SAPS  H14X18800   1.568   0.585   5.061 -0.0570  0.0717  0.1500
  166SAPS  H14Y18801   1.437   0.708   5.042  0.8480 -0.4833 -0.4149
  166SAPS  C31518802   1.430   0.560   4.887 -0.5568 -0.1918 -0.0792
  166SAPS  H15X18803   1.495   0.630   4.830  0.7040 -0.2128  1.2804
  166SAPS  H15Y18804   1.324   0.573   4.856 -0.7311  0.4114  0.7295
  166SAPS  C31618805   1.478   0.420   4.854 -0.0330 -0.1873 -0.2964
  166SAPS  H16X18806   1.430   0.351   4.926 -0.4484  0.1078 -0.2857
  166SAPS  H16Y18807   1.587   0.415   4.876 -0.2282 -0.9741  0.5911
  166SAPS  C31718808   1.452   0.375   4.709 -0.0461 -0.2624  0.5086
  166SAPS  H17X18809   1.534   0.305   4.683  0.0116 -0.3350  0.8769
  166SAPS  H17Y18810   1.469   0.464   4.644 -0.2612 -1.4024 -1.1508
  166SAPS  C31818811   1.318   0.310   4.677  0.7128 -0.5498 -0.2178
  166SAPS  H18X18812   1.294   0.236   4.757  1.6687 -1.5913 -0.8667
  166SAPS  H18Y18813   1.310   0.258   4.580 -1.2705  1.0208 -0.9719
  166SAPS  H18Z18814   1.249   0.396   4.690 -0.7716 -2.0385  3.0649
  167SAPS     N18815   4.789   0.881   7.226  0.3949  0.7488 -0.3424
  167SAPS   HN118816   4.695   0.869   7.184 -0.6153  0.3503  1.8762
  167SAPS   HN218817   4.807   0.793   7.278 -0.6369  1.9534  2.2560
  167SAPS   HN318818   4.773   0.949   7.304 -2.5323 -0.7090  0.4690
  167SAPS   C1218819   4.906   0.909   7.125  0.1820  0.0082  0.4902
  167SAPS  H12A18820   4.884   1.015   7.117  0.7560  0.2850  2.1263
  167SAPS   C1318821   5.048   0.894   7.168  0.0244 -0.0739  0.4980
  167SAPS  O13A18822   5.074   0.851   7.283 -0.3254 -0.1419  0.2045
  167SAPS  O13B18823   5.141   0.924   7.087  0.0585  0.3768  0.3472
  167SAPS   C1118824   4.885   0.835   6.982 -0.1914 -0.1706  0.6574
  167SAPS  H11A18825   4.895   0.733   7.023  0.1638  0.0803  1.1984
  167SAPS  H11B18826   4.974   0.848   6.916  0.9446  0.8387  2.3120
  167SAPS     P18827   4.696   0.799   6.805 -0.1650  0.0081 -0.0795
  167SAPS   O1318828   4.635   0.675   6.858  0.2740  0.0457  0.2996
  167SAPS   O1418829   4.611   0.892   6.725 -0.1615 -0.1884  0.5205
  167SAPS   O1218830   4.758   0.879   6.926  0.0992 -0.3354  0.1936
  167SAPS   O1118831   4.824   0.760   6.735 -0.2707 -0.1704  0.6111
  167SAPS    C118832   4.909   0.850   6.667 -0.3395  0.6807  0.4639
  167SAPS    HA18833   4.873   0.955   6.676 -1.5119  0.3661 -0.3632
  167SAPS    HB18834   5.007   0.846   6.719  0.7508  1.5341 -1.4308
  167SAPS    C218835   4.940   0.810   6.522 -0.0977  0.1889  0.7494
  167SAPS    HS18836   5.011   0.884   6.479 -1.6192  0.7801 -0.8388
  167SAPS   O2118837   4.817   0.800   6.442  0.0971  0.0095 -0.8299
  167SAPS   C2118838   4.798   0.881   6.343  0.1509 -0.1902  0.0636
  167SAPS   O2218839   4.882   0.957   6.293  0.6573  0.2165 -0.2695
  167SAPS   C2218840   4.662   0.859   6.281  0.3126  0.5592  0.4861
  167SAPS   H2R18841   4.620   0.756   6.278 -0.7062  0.9267  1.6985
  167SAPS   H2S18842   4.588   0.914   6.342  0.1931 -1.8064  2.6472
  167SAPS    C318843   5.006   0.672   6.520  0.3813  0.2838  0.3618
  167SAPS    HX18844   4.934   0.604   6.571 -2.4432  2.1247 -0.9131
  167SAPS    HY18845   5.099   0.681   6.581  1.1615  0.5843 -0.8443
  167SAPS   O3118846   5.037   0.627   6.386 -0.0228  0.5742 -0.1407
  167SAPS   C3118847   5.150   0.566   6.366  0.9171 -0.0314  0.5251
  167SAPS   O3218848   5.235   0.543   6.449 -0.2612  0.0236  0.0361
  167SAPS   C3218849   5.176   0.563   6.222 -0.2178  0.5451  0.3022
  167SAPS   H2X18850   5.197   0.666   6.185  0.7631  0.4332  0.5089
  167SAPS   H2Y18851   5.080   0.534   6.176 -0.6830  0.2976  1.3986
  167SAPS   C2318852   4.664   0.888   6.129 -0.4848 -0.4763  0.3075
  167SAPS   H3R18853   4.727   0.975   6.101 -0.8180 -1.1510 -2.8888
  167SAPS   H3S18854   4.567   0.921   6.086 -0.0732  0.7306  0.2747
  167SAPS   C2418855   4.718   0.771   6.052 -0.3599  0.4107 -0.5343
  167SAPS   H4R18856   4.634   0.698   6.054  0.0196 -0.0593 -1.3670
  167SAPS   H4S18857   4.803   0.709   6.088  0.3086  1.8815  0.5604
  167SAPS   C2518858   4.741   0.816   5.912  0.6227  0.7416 -0.3429
  167SAPS   H5R18859   4.659   0.867   5.861 -0.9065 -1.3029 -0.0479
  167SAPS   C2618860   4.853   0.813   5.844  0.4958 -0.0040  0.3742
  167SAPS   H6R18861   4.844   0.856   5.744 -1.3049  0.4908  0.7215
  167SAPS   C2718862   4.990   0.766   5.899 -0.1722  0.1358  0.2834
  167SAPS   H7R18863   5.000   0.777   6.010  1.3388 -1.2005  0.3173
  167SAPS   H7S18864   5.076   0.822   5.857 -0.6381  0.4980 -0.1944
  167SAPS   C2818865   5.002   0.623   5.870 -0.2666  0.4374  0.0576
  167SAPS   H8R18866   4.926   0.562   5.922 -0.6381  0.4377 -0.4772
  167SAPS   C2918867   5.064   0.563   5.767  0.6169  0.0778  0.8587
  167SAPS   H9R18868   5.057   0.453   5.762  2.9052 -0.0760  0.2170
  167SAPS  C21018869   5.156   0.623   5.667  0.1729  0.3911 -0.8574
  167SAPS  H10R18870   5.205   0.718   5.697  2.3320 -1.0297  0.3353
  167SAPS  H10S18871   5.103   0.647   5.572  1.8120  2.7187 -1.2692
  167SAPS  C21118872   5.271   0.529   5.645 -0.2425  0.6149  0.5443
  167SAPS  H11R18873   5.339   0.524   5.731 -1.7549 -0.9845  1.7224
  167SAPS  C21218874   5.299   0.445   5.546  0.3904  1.1185 -0.6721
  167SAPS  H12R18875   5.378   0.373   5.571  1.0806  2.0560 -0.0546
  167SAPS  C21318876   5.227   0.430   5.412 -0.5164 -0.4813 -0.2086
  167SAPS  H13R18877   5.118   0.443   5.428 -0.4675  1.0298 -0.9335
  167SAPS  H13S18878   5.234   0.323   5.384 -0.5179 -0.3898 -0.5582
  167SAPS  C21418879   5.280   0.518   5.307 -0.0320  0.9309 -0.6054
  167SAPS  H14R18880   5.344   0.596   5.350 -1.1628  0.7470  1.5270
  167SAPS  C21518881   5.247   0.503   5.179 -0.0986 -0.5308 -0.2040
  167SAPS  H15R18882   5.281   0.577   5.105 -1.8931 -1.4062 -2.0052
  167SAPS  C21618883   5.150   0.396   5.134 -0.0527  0.5219  0.7626
  167SAPS  H16R18884   5.114   0.332   5.217 -0.0699  1.9386  1.8855
  167SAPS  H16S18885   5.194   0.324   5.062  1.0780  0.1368  1.7964
  167SAPS  C21718886   5.032   0.450   5.062 -0.0514 -0.1213  0.3235
  167SAPS  H17R18887   5.047   0.504   4.966  0.1058  0.6535  0.7671
  167SAPS  H17S18888   4.998   0.539   5.120  0.1685  0.7715 -0.8638
  167SAPS  C21818889   4.927   0.341   5.025 -1.1450 -0.0975  0.5011
  167SAPS  H18R18890   4.909   0.282   5.118  3.0170 -1.4834  0.6426
  167SAPS  H18S18891   4.977   0.276   4.950 -0.3391 -0.2934  1.1848
  167SAPS  C21918892   4.803   0.400   4.960  0.1113  0.1870  0.3054
  167SAPS  H19R18893   4.852   0.451   4.875  0.8448 -1.0172 -0.0112
  167SAPS  H19S18894   4.752   0.477   5.022  0.5239 -0.4527  1.4684
  167SAPS  C22018895   4.708   0.281   4.923 -0.2703 -0.5251  0.3098
  167SAPS  H20R18896   4.600   0.307   4.912  0.0054  0.5255 -0.0116
  167SAPS  H20S18897   4.718   0.188   4.982  1.2414 -0.2397  0.5347
  167SAPS  H20T18898   4.734   0.266   4.816  0.6108 -1.0555  0.5890
  167SAPS   C3318899   5.299   0.474   6.191 -0.2702  0.5085  0.1726
  167SAPS   H3X18900   5.283   0.365   6.200  0.2050  0.3987 -0.2465
  167SAPS   H3Y18901   5.383   0.491   6.261 -0.0969  2.4021 -0.4326
  167SAPS   C3418902   5.347   0.512   6.051 -0.0471  0.0010  0.5331
  167SAPS   H4X18903   5.377   0.619   6.051  0.2831 -0.0742  1.8134
  167SAPS   H4Y18904   5.260   0.494   5.984  0.0010  1.3525  0.0924
  167SAPS   C3518905   5.459   0.427   5.986 -0.7836  0.0923  1.0301
  167SAPS   H5X18906   5.556   0.445   6.038  0.1255 -0.0855 -0.5311
  167SAPS   H5Y18907   5.456   0.455   5.878 -0.9516  0.0766  1.0302
  167SAPS   C3618908   5.435   0.276   5.995 -0.0455  0.5996  0.2686
  167SAPS   H6X18909   5.331   0.244   5.971 -0.7468 -0.1471  3.8305
  167SAPS   H6Y18910   5.438   0.249   6.102 -0.3306 -0.3059  0.0573
  167SAPS   C3718911   5.547   0.187   5.938  0.2646  0.2803  0.3088
  167SAPS   H7X18912   5.506   0.085   5.925  0.1033  0.3589  0.1862
  167SAPS   H7Y18913   5.629   0.184   6.012 -0.1130 -2.3735  0.7024
  167SAPS   C3818914   5.596   0.236   5.801  0.2112 -0.0959 -0.3879
  167SAPS   H8X18915   5.635   0.340   5.798  2.1433 -0.6406  2.1208
  167SAPS   H8Y18916   5.505   0.228   5.738 -0.1932 -1.0229  0.2851
  167SAPS   C3918917   5.692   0.139   5.743 -0.4849 -0.6578 -0.8434
  167SAPS   H9X18918   5.687   0.032   5.772 -0.8548 -0.4229 -0.0142
  167SAPS   H9Y18919   5.790   0.168   5.785  0.6897 -2.0596 -2.4486
  167SAPS  C31018920   5.704   0.149   5.593 -0.5630  0.3442 -0.0780
  167SAPS  H10X18921   5.713   0.258   5.569  1.6524  0.0736 -0.7086
  167SAPS  H10Y18922   5.611   0.124   5.538  0.4691  1.3991 -2.4473
  167SAPS  C31118923   5.826   0.068   5.522  0.8482 -0.0134 -1.0023
  167SAPS  H11X18924   5.795  -0.036   5.498 -0.0718  0.1056 -0.4070
  167SAPS  H11Y18925   5.922   0.064   5.577 -0.1832 -2.9854  0.8093
  167SAPS  C31218926   5.863   0.141   5.387 -0.6803  0.1751 -0.0929
  167SAPS  H12X18927   5.894   0.243   5.416  1.7834  0.0166 -1.7703
  167SAPS  H12Y18928   5.775   0.134   5.319  1.0341 -2.5308 -2.2651
  167SAPS  C31318929   5.987   0.078   5.323 -0.0510  0.1119  0.2411
  167SAPS  H13X18930   5.957  -0.025   5.293 -1.0171  0.5559 -0.3889
  167SAPS  H13Y18931   6.073   0.088   5.392 -0.8322  1.1143  1.1054
  167SAPS  C31418932   6.031   0.143   5.193 -0.2062  0.1124 -0.1075
  167SAPS  H14X18933   6.132   0.117   5.156  0.7681  0.6539  1.9879
  167SAPS  H14Y18934   6.039   0.251   5.217 -1.1306  0.1913 -0.1120
  167SAPS  C31518935   5.923   0.142   5.077  0.0972  0.3373 -0.3197
  167SAPS  H15X18936   5.827   0.189   5.105  0.2903  1.0455 -0.8427
  167SAPS  H15Y18937   5.900   0.035   5.058 -0.0419  0.3949 -0.4771
  167SAPS  C31618938   5.977   0.199   4.943  0.9261 -0.5098 -0.5277
  167SAPS  H16X18939   6.028   0.296   4.962  0.5298 -0.4614  0.3224
  167SAPS  H16Y18940   5.892   0.202   4.870 -0.9736 -3.6721  1.3188
  167SAPS  C31718941   6.076   0.110   4.873 -0.1552  0.8330  0.3170
  167SAPS  H17X18942   6.026   0.013   4.851 -1.8640  1.3963  1.5160
  167SAPS  H17Y18943   6.162   0.096   4.942 -0.0201  1.2847  0.2475
  167SAPS  C31818944   6.124   0.165   4.743 -0.1009 -0.3634 -0.1676
  167SAPS  H18X18945   6.211   0.233   4.754 -0.7388  0.0777  2.8994
  167SAPS  H18Y18946   6.047   0.229   4.694  1.8010  2.2302 -0.0019
  167SAPS  H18Z18947   6.158   0.098   4.661  2.5071  1.0160 -0.3382
  168SAPS     N18948   1.717   6.310   6.820 -0.2630  0.4908  0.0184
  168SAPS   HN118949   1.802   6.257   6.846 -0.5213 -0.5242 -1.0936
  168SAPS   HN218950   1.635   6.249   6.800  1.3484 -1.2818 -1.6352
  168SAPS   HN318951   1.748   6.356   6.732  1.8740 -2.6710 -1.0538
  168SAPS   C1218952   1.685   6.407   6.923 -0.8481 -0.6921 -0.1703
  168SAPS  H12A18953   1.668   6.358   7.018  0.7997  0.1889  0.6281
  168SAPS   C1318954   1.802   6.498   6.969 -0.4929 -0.1776  0.5226
  168SAPS  O13A18955   1.921   6.457   6.952  0.0729 -0.0256 -0.1262
  168SAPS  O13B18956   1.778   6.593   7.048 -0.4787 -0.4330 -0.6918
  168SAPS   C1118957   1.561   6.492   6.877 -0.3284  0.3650  0.4383
  168SAPS  H11A18958   1.598   6.552   6.792  0.6479  3.1135  2.6449
  168SAPS  H11B18959   1.543   6.577   6.946  0.5732  0.4204  0.6267
  168SAPS     P18960   1.332   6.496   6.750 -0.1903  0.3186 -0.0032
  168SAPS   O1318961   1.344   6.435   6.616 -0.5173  0.2067  0.5931
  168SAPS   O1418962   1.199   6.501   6.817  0.0901  0.5207 -0.2345
  168SAPS   O1218963   1.439   6.425   6.847  0.4963 -0.7265  0.2972
  168SAPS   O1118964   1.373   6.648   6.733  0.1982 -0.6184 -0.3787
  168SAPS    C118965   1.290   6.755   6.785 -0.2829 -0.2803 -0.2013
  168SAPS    HA18966   1.261   6.746   6.892 -1.3820 -0.7519 -0.5192
  168SAPS    HB18967   1.351   6.848   6.777 -0.0338 -0.6023 -3.0245
  168SAPS    C218968   1.167   6.801   6.697 -0.6698 -0.0586  0.6791
  168SAPS    HS18969   1.104   6.710   6.705  0.2278 -1.0586 -2.2578
  168SAPS   O2118970   1.207   6.831   6.562  0.1104 -0.7684 -0.4070
  168SAPS   C2118971   1.122   6.790   6.469 -0.1507 -0.3239  0.5699
  168SAPS   O2218972   1.026   6.725   6.496  0.1255  0.1200 -0.3648
  168SAPS   C2218973   1.161   6.839   6.334  0.8932 -0.4736  0.4684
  168SAPS   H2R18974   1.147   6.949   6.333  1.2759 -0.4066  1.7494
  168SAPS   H2S18975   1.268   6.811   6.325  1.1117  0.4556  0.0573
  168SAPS    C318976   1.092   6.925   6.761 -0.6561 -0.8848  0.5748
  168SAPS    HX18977   1.171   7.002   6.775 -0.1712 -1.2865  0.1183
  168SAPS    HY18978   1.052   6.887   6.857 -0.9916 -0.1853  0.7193
  168SAPS   O3118979   0.985   6.988   6.674 -0.1925  0.2100  0.4332
  168SAPS   C3118980   0.874   6.923   6.679 -1.2870 -0.3398  0.2865
  168SAPS   O3218981   0.851   6.825   6.751 -0.6989 -0.6268 -0.3609
  168SAPS   C3218982   0.777   6.980   6.581 -0.1352  0.2658  0.1844
  168SAPS   H2X18983   0.709   7.053   6.631  0.6060  1.4568 -0.4875
  168SAPS   H2Y18984   0.699   6.903   6.561 -1.1592  1.3964 -0.3249
  168SAPS   C2318985   1.089   6.777   6.212 -0.8599  1.1440 -1.1424
  168SAPS   H3R18986   0.999   6.840   6.197 -0.5247  2.0861  0.5966
  168SAPS   H3S18987   1.063   6.672   6.237  1.2284  1.1362  1.4295
  168SAPS   C2418988   1.157   6.780   6.076 -0.6030  0.4833 -0.1004
  168SAPS   H4R18989   1.259   6.737   6.083 -0.6353  0.4457  0.1545
  168SAPS   H4S18990   1.164   6.886   6.044  3.4972  0.8493  1.5015
  168SAPS   C2518991   1.062   6.709   5.980 -0.4859 -0.3987 -0.1406
  168SAPS   H5R18992   1.016   6.620   6.024  1.9081 -1.3785  0.5618
  168SAPS   C2618993   1.029   6.738   5.855 -0.4416  0.2874 -0.5133
  168SAPS   H6R18994   0.957   6.670   5.805 -1.4283 -0.8358  2.2565
  168SAPS   C2718995   1.090   6.856   5.776  0.0625  0.5978 -0.0937
  168SAPS   H7R18996   1.182   6.814   5.729  0.4499 -1.9780  2.6780
  168SAPS   H7S18997   1.116   6.939   5.844 -0.4036  0.3541  0.3900
  168SAPS   C2818998   0.993   6.913   5.680  0.1779 -0.6776 -0.4691
  168SAPS   H8R18999   0.929   6.997   5.712 -0.3693 -0.0790 -2.9175
  168SAPS   C2919000   0.966   6.870   5.551 -0.7079  0.6961  0.3151
  168SAPS   H9R19001   0.884   6.919   5.497 -1.2003 -0.1490  0.2803
  168SAPS  C21019002   1.034   6.759   5.470 -0.2137 -0.6560 -0.1446
  168SAPS  H10R19003   1.133   6.736   5.515 -0.4409  0.2834  0.8918
  168SAPS  H10S19004   1.055   6.787   5.365 -0.5022  0.8779  0.1859
  168SAPS  C21119005   0.934   6.646   5.479  0.1851  0.0839 -0.8309
  168SAPS  H11R19006   0.936   6.598   5.578  0.0902 -0.7888 -1.2410
  168SAPS  C21219007   0.860   6.587   5.381 -0.1677 -1.1183 -0.4600
  168SAPS  H12R19008   0.804   6.496   5.407  2.8979 -2.6690  1.2677
  168SAPS  C21319009   0.856   6.635   5.240 -0.6411  1.2363  0.8753
  168SAPS  H13R19010   0.887   6.741   5.228  0.8568  0.8133  0.8412
  168SAPS  H13S19011   0.750   6.639   5.209 -0.2631  1.8768 -0.4073
  168SAPS  C21419012   0.953   6.557   5.153 -0.5716 -0.1240 -0.3810
  168SAPS  H14R19013   1.052   6.605   5.153 -0.7459  0.3173 -2.2783
  168SAPS  C21519014   0.940   6.444   5.083  0.6253  0.1986  0.4536
  168SAPS  H15R19015   1.025   6.407   5.024  0.5176 -1.0261  1.0384
  168SAPS  C21619016   0.815   6.365   5.068 -0.1799  0.1284 -0.6696
  168SAPS  H16R19017   0.737   6.409   5.132  3.5910  0.1101  4.6078
  168SAPS  H16S19018   0.846   6.271   5.118  1.1103  0.9230  0.0872
  168SAPS  C21719019   0.765   6.342   4.921  0.8829 -0.6030  0.4267
  168SAPS  H17R19020   0.684   6.266   4.925 -0.2528  0.4619 -1.1528
  168SAPS  H17S19021   0.843   6.316   4.845 -0.3769  1.7913 -1.8555
  168SAPS  C21819022   0.703   6.468   4.867 -0.3366  0.1558  0.7065
  168SAPS  H18R19023   0.777   6.550   4.852  0.2691 -0.3767  0.7547
  168SAPS  H18S19024   0.643   6.507   4.952  0.0489 -0.3363  1.2128
  168SAPS  C21919025   0.615   6.453   4.737 -0.6619 -0.5838 -0.2302
  168SAPS  H19R19026   0.581   6.553   4.703  2.7368  0.9156  0.3028
  168SAPS  H19S19027   0.532   6.380   4.751 -0.0816 -0.7424  3.3172
  168SAPS  C22019028   0.706   6.413   4.623 -0.0508  0.2621 -0.4376
  168SAPS  H20R19029   0.673   6.438   4.519  2.3771  3.4202 -0.5986
  168SAPS  H20S19030   0.729   6.305   4.610  2.9332  0.9073 -1.1519
  168SAPS  H20T19031   0.807   6.457   4.634 -0.8044  2.2347 -0.9241
  168SAPS   C3319032   0.840   7.022   6.452 -0.1363 -0.3666  1.1660
  168SAPS   H3X19033   0.888   6.938   6.397  1.3443  0.8740  0.4803
  168SAPS   H3Y19034   0.922   7.094   6.473  1.3578 -1.5999 -0.1801
  168SAPS   C3419035   0.735   7.093   6.361 -0.1735 -0.8495 -0.2650
  168SAPS   H4X19036   0.709   7.191   6.406  1.5564 -0.4726  0.0142
  168SAPS   H4Y19037   0.642   7.033   6.355 -1.9990  1.9199 -2.0218
  168SAPS   C3519038   0.786   7.122   6.221  0.5021 -0.8532  0.6485
  168SAPS   H5X19039   0.819   7.029   6.171  1.6046 -0.3800  0.4785
  168SAPS   H5Y19040   0.876   7.187   6.218  0.8560 -1.3681  0.0766
  168SAPS   C3619041   0.685   7.194   6.138 -0.3786 -0.2183 -0.0421
  168SAPS   H6X19042   0.674   7.302   6.163 -0.6780 -0.0776 -0.7521
  168SAPS   H6Y19043   0.582   7.159   6.163 -1.3040  0.8007 -2.1446
  168SAPS   C3719044   0.714   7.175   5.992 -0.6490 -0.7717  0.0441
  168SAPS   H7X19045   0.703   7.069   5.960  1.5024 -0.9707 -0.1611
  168SAPS   H7Y19046   0.820   7.198   5.968 -1.0267 -1.5578 -2.7014
  168SAPS   C3819047   0.635   7.269   5.908  0.2505 -0.4667 -0.1902
  168SAPS   H8X19048   0.668   7.372   5.929 -1.7139  0.3270 -0.7339
  168SAPS   H8Y19049   0.532   7.275   5.950  1.1949  0.7581  2.1295
  168SAPS   C3919050   0.614   7.251   5.762  0.3555  0.1815 -0.5093
  168SAPS   H9X19051   0.520   7.302   5.733  0.1649  0.4458  0.5321
  168SAPS   H9Y19052   0.583   7.149   5.730 -0.4730 -0.7280  2.7926
  168SAPS  C31019053   0.737   7.300   5.689 -0.8443  0.3921  0.3273
  168SAPS  H10X19054   0.832   7.251   5.719 -0.3942  0.9556 -0.1466
  168SAPS  H10Y19055   0.762   7.407   5.704  1.3763  0.0021 -0.3161
  168SAPS  C31119056   0.718   7.293   5.534  0.6247  0.5466  0.3708
  168SAPS  H11X19057   0.612   7.326   5.522  1.1811  2.8313  1.1835
  168SAPS  H11Y19058   0.714   7.187   5.502 -0.4920  0.8049 -0.4148
  168SAPS  C31219059   0.818   7.382   5.459  0.4959 -0.6567  0.4022
  168SAPS  H12X19060   0.914   7.337   5.491 -0.1588 -4.8036 -2.7049
  168SAPS  H12Y19061   0.819   7.486   5.499  0.9215  0.5108 -2.4591
  168SAPS  C31319062   0.804   7.382   5.308  0.0162  0.5776  0.3720
  168SAPS  H13X19063   0.865   7.467   5.269 -0.6055  0.4280 -0.9921
  168SAPS  H13Y19064   0.698   7.410   5.287 -0.0186  0.3555  0.2528
  168SAPS  C31419065   0.833   7.257   5.222 -0.3312  0.2812 -0.3187
  168SAPS  H14X19066   0.805   7.280   5.117 -1.3083  0.8601  0.0546
  168SAPS  H14Y19067   0.763   7.176   5.252 -0.2309  0.7858  1.3682
  168SAPS  C31519068   0.983   7.220   5.222  0.1317 -0.3896  0.3170
  168SAPS  H15X19069   1.010   7.193   5.326 -0.3575 -0.2108  0.4938
  168SAPS  H15Y19070   1.049   7.303   5.189 -0.5406  0.2311  0.5134
  168SAPS  C31619071   1.018   7.102   5.129 -0.4150 -0.5678  0.3064
  168SAPS  H16X19072   1.033   7.137   5.025 -0.9677 -1.3204 -0.0361
  168SAPS  H16Y19073   0.941   7.022   5.125  0.9614 -2.0532  1.6917
  168SAPS  C31719074   1.152   7.037   5.155 -0.6278  0.2515  0.2351
  168SAPS  H17X19075   1.162   7.014   5.263 -0.3842 -0.2285  0.1120
  168SAPS  H17Y19076   1.226   7.119   5.145 -0.2042 -0.0613  0.7097
  168SAPS  C31819077   1.185   6.920   5.064 -0.0295  0.1698 -0.4953
  168SAPS  H18X19078   1.267   6.862   5.112 -0.6787 -0.6562 -0.3574
  168SAPS  H18Y19079   1.219   6.948   4.962  0.7252 -2.5388 -1.0610
  168SAPS  H18Z19080   1.105   6.843   5.065 -0.0871  0.2174  1.4806
  169SAPS     N19081   4.690   1.580   6.968 -0.4420 -0.1281 -0.2666
  169SAPS   HN119082   4.699   1.489   6.918 -0.1710  0.6260 -1.6411
  169SAPS   HN219083   4.605   1.633   6.939 -1.5482 -0.5786  1.9061
  169SAPS   HN319084   4.776   1.634   6.945 -0.7134  1.4357  2.1473
  169SAPS   C1219085   4.684   1.567   7.117  0.6431  0.5530 -0.1978
  169SAPS  H12A19086   4.764   1.496   7.131 -0.1768  0.0793  2.6125
  169SAPS   C1319087   4.713   1.696   7.199  0.1236  0.2333 -0.2051
  169SAPS  O13A19088   4.726   1.813   7.145 -0.2379 -0.0123  0.9852
  169SAPS  O13B19089   4.743   1.679   7.325  0.0636 -0.1770 -0.2862
  169SAPS   C1119090   4.552   1.504   7.161  0.0526  0.0160 -0.2952
  169SAPS  H11A19091   4.476   1.585   7.151  0.8655  0.7525 -0.6721
  169SAPS  H11B19092   4.563   1.488   7.270 -0.4226 -0.5883 -0.3315
  169SAPS     P19093   4.383   1.351   7.046  0.4569  0.1355  0.0085
  169SAPS   O1319094   4.379   1.208   7.004  0.2964  0.2510  0.1149
  169SAPS   O1419095   4.284   1.381   7.155 -0.2839 -0.1621 -0.1050
  169SAPS   O1219096   4.527   1.381   7.088  0.3738  0.3148  0.5312
  169SAPS   O1119097   4.351   1.447   6.916 -0.1569  0.5946 -0.1229
  169SAPS    C119098   4.239   1.422   6.840  0.2628 -0.4724  0.4560
  169SAPS    HA19099   4.162   1.354   6.883 -0.1943 -1.2258 -1.4228
  169SAPS    HB19100   4.190   1.520   6.822  0.9315 -0.2843 -0.4062
  169SAPS    C219101   4.284   1.369   6.697 -0.1677 -0.0400 -0.4077
  169SAPS    HS19102   4.333   1.273   6.721  2.2447  1.8258  2.9640
  169SAPS   O2119103   4.379   1.469   6.642  0.1414  0.3935  0.1130
  169SAPS   C2119104   4.465   1.419   6.561  0.0777 -0.1845  0.0706
  169SAPS   O2219105   4.483   1.301   6.531 -0.4694 -0.0648  0.2472
  169SAPS   C2219106   4.546   1.539   6.504  0.2729 -0.3072  0.6445
  169SAPS   H2R19107   4.498   1.633   6.538  0.3663 -0.6233  1.6832
  169SAPS   H2S19108   4.647   1.523   6.547  0.6317  0.2367  0.0131
  169SAPS    C319109   4.160   1.357   6.605  0.1092 -0.1059  0.2162
  169SAPS    HX19110   4.116   1.458   6.598  0.9251  0.2648  0.3451
  169SAPS    HY19111   4.095   1.280   6.652  0.6856 -0.6178  0.2057
  169SAPS   O3119112   4.176   1.305   6.470 -0.4565  0.0150 -0.5889
  169SAPS   C3119113   4.208   1.181   6.454  0.5798 -0.3626  0.6866
  169SAPS   O3219114   4.202   1.100   6.543  0.6935  0.2284  0.0540
  169SAPS   C3219115   4.240   1.165   6.310  0.1367  0.2219  0.7951
  169SAPS   H2X19116   4.314   1.244   6.284 -0.3232  0.4143  0.0447
  169SAPS   H2Y19117   4.154   1.184   6.243  0.6228  1.0874  0.3970
  169SAPS   C2319118   4.540   1.544   6.346 -0.7100 -0.1705 -0.2280
  169SAPS   H3R19119   4.560   1.444   6.303  3.2406  0.0842  0.5883
  169SAPS   H3S19120   4.635   1.594   6.316 -0.3579 -0.4269  0.4252
  169SAPS   C2419121   4.413   1.615   6.289 -0.3609 -0.0593  0.0348
  169SAPS   H4R19122   4.437   1.632   6.182  1.6145 -0.4117  0.3700
  169SAPS   H4S19123   4.429   1.717   6.330  1.6075  0.0280 -0.8302
  169SAPS   C2519124   4.273   1.557   6.311 -0.4157  0.6511 -0.5528
  169SAPS   H5R19125   4.246   1.555   6.417  0.0811  1.9968 -0.3791
  169SAPS   C2619126   4.175   1.530   6.221 -0.4395 -0.3129  0.9089
  169SAPS   H6R19127   4.081   1.490   6.261 -1.9389  1.8860 -0.2428
  169SAPS   C2719128   4.198   1.533   6.069  1.4305 -0.0102 -0.5644
  169SAPS   H7R19129   4.167   1.431   6.038 -0.1392  0.7130 -1.5308
  169SAPS   H7S19130   4.305   1.555   6.053  1.0909  0.8605 -1.7621
  169SAPS   C2819131   4.108   1.625   5.991  0.0162 -0.1604 -0.6959
  169SAPS   H8R19132   4.000   1.629   6.009  0.3299  1.0478  1.2135
  169SAPS   C2919133   4.158   1.701   5.891 -0.2364 -0.1375  0.6165
  169SAPS   H9R19134   4.096   1.780   5.846 -0.8752 -0.1838  1.3869
  169SAPS  C21019135   4.295   1.706   5.838 -0.0363 -0.3844 -0.1545
  169SAPS  H10R19136   4.368   1.631   5.877 -1.2722 -1.0733  0.9228
  169SAPS  H10S19137   4.321   1.801   5.889  1.2482 -1.0352  0.4644
  169SAPS  C21119138   4.304   1.723   5.684 -0.0502  0.5587  0.2973
  169SAPS  H11R19139   4.329   1.826   5.655 -0.7434  0.8313  0.6417
  169SAPS  C21219140   4.276   1.640   5.588 -0.5138 -0.2808  0.5844
  169SAPS  H12R19141   4.265   1.680   5.486  0.9638 -1.5742 -0.1274
  169SAPS  C21319142   4.230   1.496   5.603 -0.2365  0.1459  0.0539
  169SAPS  H13R19143   4.136   1.484   5.544  1.7279 -0.6115 -3.1343
  169SAPS  H13S19144   4.201   1.480   5.710 -0.9961  0.3068 -0.1178
  169SAPS  C21419145   4.336   1.400   5.543  0.0783  0.1159 -0.4260
  169SAPS  H14R19146   4.409   1.367   5.619 -1.7197  0.8966  1.7570
  169SAPS  C21519147   4.336   1.354   5.420 -0.1244  0.3211  0.4113
  169SAPS  H15R19148   4.422   1.294   5.386  0.1051  0.1342  1.2764
  169SAPS  C21619149   4.239   1.392   5.316  0.3351 -0.0562  0.5577
  169SAPS  H16R19150   4.160   1.460   5.355 -0.1102 -1.1060  1.5753
  169SAPS  H16S19151   4.187   1.295   5.300 -2.1697  0.6183  3.6059
  169SAPS  C21719152   4.290   1.471   5.192  1.1451 -0.3767 -0.7419
  169SAPS  H17R19153   4.378   1.429   5.138  0.6486 -0.0735 -1.8313
  169SAPS  H17S19154   4.331   1.565   5.235  3.1563 -0.7798 -1.6427
  169SAPS  C21819155   4.183   1.505   5.094  0.0071 -0.4320  0.5693
  169SAPS  H18R19156   4.084   1.531   5.138  0.2699  0.8238  0.4477
  169SAPS  H18S19157   4.166   1.418   5.027  1.9076 -0.1704 -0.3218
  169SAPS  C21919158   4.215   1.624   4.996 -0.3833 -0.6013  0.3643
  169SAPS  H19R19159   4.133   1.642   4.923  1.9387  2.5769 -1.7110
  169SAPS  H19S19160   4.301   1.608   4.928  0.2564  0.0380  1.0179
  169SAPS  C22019161   4.243   1.769   5.051 -0.7409 -0.3424 -0.0820
  169SAPS  H20R19162   4.218   1.845   4.974 -2.7048 -0.1851  0.6634
  169SAPS  H20S19163   4.352   1.768   5.074 -0.3732 -0.5655 -1.7236
  169SAPS  H20T19164   4.172   1.780   5.135 -0.1437  1.0675  0.2760
  169SAPS   C3319165   4.307   1.032   6.274 -0.0533  0.1487 -0.3831
  169SAPS   H3X19166   4.386   0.993   6.342 -2.0388  0.0008  1.9689
  169SAPS   H3Y19167   4.358   1.055   6.178 -0.0719  0.5115 -0.3104
  169SAPS   C3419168   4.202   0.916   6.246 -0.5100 -0.1634 -0.6943
  169SAPS   H4X19169   4.110   0.953   6.196 -0.7670  1.0565  0.6021
  169SAPS   H4Y19170   4.171   0.884   6.347  0.5431  0.3542 -0.1842
  169SAPS   C3519171   4.271   0.787   6.195 -0.3350  0.0084 -0.0417
  169SAPS   H5X19172   4.203   0.701   6.209 -0.4198  0.1389  0.3619
  169SAPS   H5Y19173   4.365   0.764   6.250  1.6722  0.6645 -2.9439
  169SAPS   C3619174   4.298   0.804   6.045  0.7731  0.3710  0.5578
  169SAPS   H6X19175   4.380   0.735   6.017 -1.1054 -1.3570 -0.9508
  169SAPS   H6Y19176   4.338   0.908   6.042 -0.6009  0.9004 -0.6246
  169SAPS   C3719177   4.177   0.785   5.957  0.2171  0.1940  0.1478
  169SAPS   H7X19178   4.110   0.867   5.991  2.0821  0.9740  2.2260
  169SAPS   H7Y19179   4.128   0.686   5.962 -1.2166  0.9193  1.1075
  169SAPS   C3819180   4.197   0.821   5.810  0.0898  1.0215  0.7175
  169SAPS   H8X19181   4.246   0.920   5.798 -0.4402  1.2281  0.1964
  169SAPS   H8Y19182   4.093   0.831   5.774  0.3315 -2.1741 -1.2407
  169SAPS   C3919183   4.272   0.714   5.736 -0.3354  0.1730 -0.2962
  169SAPS   H9X19184   4.208   0.623   5.728 -0.2634  0.1708 -0.9107
  169SAPS   H9Y19185   4.367   0.681   5.781  0.3471 -1.0990 -2.5090
  169SAPS  C31019186   4.316   0.762   5.599  0.3339 -0.0661  0.7519
  169SAPS  H10X19187   4.351   0.673   5.543  1.5612  0.0711  1.2710
  169SAPS  H10Y19188   4.410   0.821   5.596  0.8215 -0.8267 -2.1042
  169SAPS  C31119189   4.202   0.835   5.524  0.1016 -0.0797 -0.6837
  169SAPS  H11X19190   4.206   0.946   5.536  1.6758 -0.0126 -1.5302
  169SAPS  H11Y19191   4.106   0.787   5.552  0.7899 -2.3440 -1.9981
  169SAPS  C31219192   4.195   0.820   5.370  0.0425  0.6724  0.0650
  169SAPS  H12X19193   4.107   0.883   5.343 -1.0583 -0.2321  1.3919
  169SAPS  H12Y19194   4.179   0.713   5.344  1.3000  0.6118 -0.5279
  169SAPS  C31319195   4.313   0.862   5.294 -0.5373  0.0396 -0.0742
  169SAPS  H13X19196   4.285   0.865   5.186 -0.3713  1.9678 -0.0943
  169SAPS  H13Y19197   4.405   0.802   5.308 -0.8887 -0.2901  0.8693
  169SAPS  C31419198   4.348   1.011   5.320  0.0067  0.0673  0.0444
  169SAPS  H14X19199   4.392   1.026   5.420 -0.1768  1.5032 -0.0696
  169SAPS  H14Y19200   4.259   1.076   5.326 -0.2238 -0.2951  0.6771
  169SAPS  C31519201   4.439   1.076   5.223 -0.1331  0.1651  0.9561
  169SAPS  H15X19202   4.519   1.000   5.206  0.0070  0.2526  1.2241
  169SAPS  H15Y19203   4.493   1.167   5.257  1.9014 -0.2609 -0.9033
  169SAPS  C31619204   4.378   1.113   5.080  0.1993 -0.3003 -0.8871
  169SAPS  H16X19205   4.296   1.187   5.094 -0.7082 -1.3523 -0.4705
  169SAPS  H16Y19206   4.324   1.028   5.032 -0.8870  0.4311 -0.9974
  169SAPS  C31719207   4.484   1.169   4.984 -0.2202 -0.2802  0.4411
  169SAPS  H17X19208   4.573   1.103   4.976  0.3740  0.6435 -0.9895
  169SAPS  H17Y19209   4.522   1.256   5.041 -1.0318  0.3363  0.0550
  169SAPS  C31819210   4.424   1.202   4.845 -0.3099  0.7629 -0.2898
  169SAPS  H18X19211   4.404   1.107   4.790  1.2675  1.6653 -2.5501
  169SAPS  H18Y19212   4.495   1.252   4.777 -0.1736  0.7473 -0.1610
  169SAPS  H18Z19213   4.327   1.255   4.842  0.1995  1.7166 -0.1184
  170SAPS     N19214   5.725   6.840   7.034 -0.2470  0.1280 -0.3690
  170SAPS   HN119215   5.680   6.911   6.973 -0.5124 -0.1327 -0.4797
  170SAPS   HN219216   5.696   6.867   7.130 -0.0980  1.6451 -0.7178
  170SAPS   HN319217   5.829   6.845   7.023  0.1207  0.0764  2.4838
  170SAPS   C1219218   5.700   6.701   6.985 -0.5633 -0.0256 -0.0977
  170SAPS  H12A19219   5.727   6.630   7.062 -3.2987  0.3867  1.3875
  170SAPS   C1319220   5.552   6.670   6.966  0.1696 -0.1242  0.2469
  170SAPS  O13A19221   5.479   6.766   6.966  0.1767  0.3178 -0.3273
  170SAPS  O13B19222   5.513   6.554   6.927 -0.2478 -0.2397 -0.2400
  170SAPS   C1119223   5.781   6.673   6.857  0.0132 -0.1037 -0.2453
  170SAPS  H11A19224   5.765   6.756   6.784  0.4684 -0.8078 -1.1596
  170SAPS  H11B19225   5.731   6.587   6.808 -1.3056  0.5600 -0.1168
  170SAPS     P19226   5.980   6.507   6.901  0.3130  0.1799 -0.3122
  170SAPS   O1319227   6.129   6.525   6.909  0.2933  0.3318  0.1040
  170SAPS   O1419228   5.914   6.424   7.007  0.0139  0.2420 -0.1376
  170SAPS   O1219229   5.913   6.651   6.886 -0.7129 -0.2906 -0.0656
  170SAPS   O1119230   5.941   6.438   6.758  0.0381 -0.6471  0.3593
  170SAPS    C119231   5.985   6.510   6.645  0.3774 -0.7912  0.9489
  170SAPS    HA19232   5.996   6.619   6.666 -0.9867 -0.8705  2.2021
  170SAPS    HB19233   6.082   6.470   6.607  0.0499 -0.0989 -0.7057
  170SAPS    C219234   5.886   6.494   6.529  0.4627  0.0858 -0.3123
  170SAPS    HS19235   5.808   6.568   6.558  2.9999  1.8650  2.7037
  170SAPS   O2119236   5.836   6.361   6.516 -0.2793 -0.0243 -0.0589
  170SAPS   C2119237   5.709   6.344   6.473 -0.7704 -0.0859  0.5051
  170SAPS   O2219238   5.642   6.437   6.436  0.0307 -0.6561 -0.0420
  170SAPS   C2219239   5.674   6.196   6.473  0.2983 -0.5956  0.4276
  170SAPS   H2R19240   5.741   6.155   6.394 -1.2864 -3.2058  0.3415
  170SAPS   H2S19241   5.696   6.147   6.570  1.1030  0.7801  0.9757
  170SAPS    C319242   5.955   6.535   6.396  0.8399 -0.0249  0.2698
  170SAPS    HX19243   5.968   6.643   6.418  2.4512  0.0555 -0.9414
  170SAPS    HY19244   5.879   6.520   6.316 -1.1171  0.7304  1.8885
  170SAPS   O3119245   6.065   6.453   6.372  0.5560  0.2956 -0.1463
  170SAPS   C3119246   6.130   6.487   6.258  0.4356  0.1262  0.0554
  170SAPS   O3219247   6.092   6.569   6.177 -0.0073 -0.6773  0.0916
  170SAPS   C3219248   6.245   6.390   6.232 -0.1824  0.5188  0.0324
  170SAPS   H2X19249   6.219   6.282   6.234  0.4708  0.2414 -2.7029
  170SAPS   H2Y19250   6.326   6.409   6.305 -0.7564  0.3060  0.7412
  170SAPS   C2319251   5.532   6.175   6.422 -0.6356  0.0839  0.3877
  170SAPS   H3R19252   5.519   6.212   6.318 -0.2448 -0.4042  0.1655
  170SAPS   H3S19253   5.467   6.239   6.487 -2.0305 -0.7738 -0.1238
  170SAPS   C2419254   5.482   6.031   6.431 -0.0003 -0.0701  0.2066
  170SAPS   H4R19255   5.371   6.032   6.425 -0.1626  1.3628  2.3432
  170SAPS   H4S19256   5.499   5.999   6.536  0.6677  0.8755  0.3979
  170SAPS   C2519257   5.563   5.946   6.340  0.1369 -0.1787  0.5619
  170SAPS   H5R19258   5.655   5.910   6.388  1.1172  1.2226 -0.2114
  170SAPS   C2619259   5.533   5.894   6.224 -0.8297 -0.8605  0.2108
  170SAPS   H6R19260   5.610   5.844   6.164 -1.0896 -0.1884 -0.7063
  170SAPS   C2719261   5.398   5.912   6.166  0.5868 -0.0423  0.0005
  170SAPS   H7R19262   5.384   6.010   6.117  1.7542 -0.3324 -0.9845
  170SAPS   H7S19263   5.324   5.916   6.249 -2.1673  0.3091 -2.3556
  170SAPS   C2819264   5.368   5.793   6.072 -0.1559 -0.8615 -0.5770
  170SAPS   H8R19265   5.327   5.704   6.123  1.3951 -0.9736  0.5696
  170SAPS   C2919266   5.378   5.793   5.942 -0.2761  0.1612 -0.2122
  170SAPS   H9R19267   5.370   5.703   5.880  0.5214  0.3300 -0.5737
  170SAPS  C21019268   5.426   5.899   5.851 -0.2223 -0.0017  0.0450
  170SAPS  H10R19269   5.476   5.846   5.768 -0.0045  0.3363 -0.0443
  170SAPS  H10S19270   5.503   5.958   5.906  0.8443 -1.3056 -0.0315
  170SAPS  C21119271   5.323   5.997   5.791  0.0044 -0.5985 -0.1370
  170SAPS  H11R19272   5.284   6.065   5.868  2.1110  1.3953 -0.7296
  170SAPS  C21219273   5.274   5.992   5.666 -0.5676  1.4267 -0.7683
  170SAPS  H12R19274   5.204   6.073   5.644 -0.5834  1.6306 -0.0133
  170SAPS  C21319275   5.322   5.893   5.561  0.3178 -0.2462 -0.4243
  170SAPS  H13R19276   5.267   5.801   5.591 -1.1752  0.8621  0.3915
  170SAPS  H13S19277   5.430   5.869   5.563  0.0645 -1.3588  1.0487
  170SAPS  C21419278   5.274   5.948   5.426 -0.2705  1.0377  0.2146
  170SAPS  H14R19279   5.174   5.991   5.415  0.4324  2.2352 -2.3468
  170SAPS  C21519280   5.352   5.967   5.316  0.3342 -0.3769  0.0802
  170SAPS  H15R19281   5.291   5.999   5.230  2.2883 -0.0373 -1.2249
  170SAPS  C21619282   5.495   5.935   5.285  0.1484  0.8046  0.0510
  170SAPS  H16R19283   5.549   5.901   5.377 -0.4575  2.4008  1.0295
  170SAPS  H16S19284   5.543   6.028   5.248  1.8815  0.4904  1.3800
  170SAPS  C21719285   5.497   5.826   5.177 -0.7042 -0.4479 -0.4024
  170SAPS  H17R19286   5.428   5.749   5.216  0.9486 -1.0282  1.4976
  170SAPS  H17S19287   5.604   5.795   5.180 -0.4828  0.3494  1.0528
  170SAPS  C21819288   5.445   5.866   5.040 -0.0392  0.2246  0.2526
  170SAPS  H18R19289   5.479   5.968   5.010  0.7428  0.4923  1.8792
  170SAPS  H18S19290   5.335   5.875   5.048  0.0165  1.3087  0.0649
  170SAPS  C21919291   5.498   5.761   4.938  0.1698 -0.4299 -0.0790
  170SAPS  H19R19292   5.483   5.662   4.987 -1.3874 -0.3708 -0.3770
  170SAPS  H19S19293   5.604   5.786   4.921 -0.4572  3.1733  0.5014
  170SAPS  C22019294   5.427   5.764   4.802 -0.2616 -0.6919 -0.2616
  170SAPS  H20R19295   5.492   5.712   4.729 -2.0035 -0.7472 -1.8516
  170SAPS  H20S19296   5.407   5.863   4.756 -2.0691 -0.1974  1.4499
  170SAPS  H20T19297   5.334   5.704   4.805 -1.1476  0.6270 -0.3525
  170SAPS   C3319298   6.313   6.409   6.094 -0.2537  0.3299 -0.6133
  170SAPS   H3X19299   6.396   6.334   6.096  0.3209  0.9056  2.2349
  170SAPS   H3Y19300   6.359   6.510   6.084  1.3137 -0.1606  1.0209
  170SAPS   C3419301   6.216   6.383   5.978 -0.2423  0.6041 -0.0654
  170SAPS   H4X19302   6.153   6.473   5.964  0.0084  0.9288  0.8218
  170SAPS   H4Y19303   6.151   6.293   5.984  0.5238  0.1228  2.1899
  170SAPS   C3519304   6.299   6.356   5.851  0.3482 -0.4298  0.5316
  170SAPS   H5X19305   6.373   6.280   5.883 -0.0671 -0.4398  1.4947
  170SAPS   H5Y19306   6.356   6.452   5.847 -0.0772 -0.2064 -0.5303
  170SAPS   C3619307   6.209   6.316   5.728 -0.1712  0.2745  0.4087
  170SAPS   H6X19308   6.142   6.402   5.711 -0.6480  0.1187  1.4419
  170SAPS   H6Y19309   6.150   6.228   5.761 -2.4771  0.8161 -1.9940
  170SAPS   C3719310   6.303   6.276   5.603  0.0921 -0.1958 -0.5757
  170SAPS   H7X19311   6.353   6.184   5.638 -0.7158 -0.0603  1.0636
  170SAPS   H7Y19312   6.379   6.356   5.590  1.8396 -1.8993 -1.3304
  170SAPS   C3819313   6.235   6.263   5.470 -0.3192  0.0887  0.7324
  170SAPS   H8X19314   6.306   6.267   5.385 -3.3845 -0.1029 -2.0510
  170SAPS   H8Y19315   6.168   6.349   5.449  0.3351  0.2890 -0.5767
  170SAPS   C3919316   6.151   6.129   5.473 -0.2400 -0.0037 -0.4570
  170SAPS   H9X19317   6.085   6.119   5.562 -1.4684  1.5023 -1.1542
  170SAPS   H9Y19318   6.225   6.046   5.468 -0.6676 -0.7891  3.1047
  170SAPS  C31019319   6.047   6.125   5.353 -0.1985  0.3099  0.4374
  170SAPS  H10X19320   6.025   6.020   5.324 -1.2546  1.4354 -3.5284
  170SAPS  H10Y19321   6.099   6.171   5.266 -0.1705  1.3661  1.0075
  170SAPS  C31119322   5.916   6.192   5.396  0.8202 -0.3116  0.0710
  170SAPS  H11X19323   5.854   6.216   5.307  2.4208 -0.4902 -1.1488
  170SAPS  H11Y19324   5.935   6.282   5.458 -0.4903 -0.5100  0.7953
  170SAPS  C31219325   5.832   6.093   5.472 -0.4663 -0.5031 -0.1362
  170SAPS  H12X19326   5.894   6.069   5.561 -0.6901 -1.4459 -0.2214
  170SAPS  H12Y19327   5.818   5.998   5.416  0.6677 -0.2881 -0.8074
  170SAPS  C31319328   5.699   6.135   5.528  0.9934  0.3367 -0.1246
  170SAPS  H13X19329   5.655   6.047   5.579 -0.2395  1.8163  1.4681
  170SAPS  H13Y19330   5.622   6.170   5.456  0.2715 -0.7677  0.0969
  170SAPS  C31419331   5.722   6.225   5.650  0.2761  0.4143 -0.6011
  170SAPS  H14X19332   5.617   6.257   5.669  0.3560  0.1228  0.3682
  170SAPS  H14Y19333   5.785   6.316   5.636  1.0166  0.7486  3.6894
  170SAPS  C31519334   5.753   6.150   5.776 -0.7642 -0.0382  0.0703
  170SAPS  H15X19335   5.858   6.113   5.777 -0.9723 -0.7910  2.6847
  170SAPS  H15Y19336   5.687   6.060   5.779 -2.0494  0.9159  1.5621
  170SAPS  C31619337   5.731   6.229   5.901  0.3356 -0.1964 -0.2460
  170SAPS  H16X19338   5.750   6.160   5.985 -1.0050 -0.9531 -0.5422
  170SAPS  H16Y19339   5.626   6.259   5.922  0.3905 -0.5836  0.6232
  170SAPS  C31719340   5.832   6.348   5.908  0.7074  0.3518  0.4633
  170SAPS  H17X19341   5.827   6.434   5.838  3.9665  1.5566  1.5140
  170SAPS  H17Y19342   5.931   6.299   5.894  0.2965 -0.6432  0.8999
  170SAPS  C31819343   5.836   6.414   6.045 -0.7359 -0.0496 -0.3085
  170SAPS  H18X19344   5.905   6.501   6.032  2.7749 -1.7828  4.1047
  170SAPS  H18Y19345   5.880   6.352   6.126  2.6198  0.7413 -1.3863
  170SAPS  H18Z19346   5.739   6.461   6.074  0.6363  2.8592 -0.0258
  171SAPS     N19347   5.868   1.324   6.711  0.1494 -0.1125  0.7133
  171SAPS   HN119348   5.788   1.260   6.728 -0.1248  0.4688  1.7170
  171SAPS   HN219349   5.840   1.406   6.653 -1.9786 -0.3074  1.3935
  171SAPS   HN319350   5.940   1.273   6.657 -0.4842  0.3907 -0.6395
  171SAPS   C1219351   5.921   1.357   6.845  0.3744 -0.0836 -0.3352
  171SAPS  H12A19352   5.853   1.427   6.890  0.5476  0.8171 -1.4361
  171SAPS   C1319353   5.954   1.234   6.935  0.1072 -0.2655  0.0152
  171SAPS  O13A19354   5.916   1.119   6.904 -0.1730  0.6804 -0.2003
  171SAPS  O13B19355   6.013   1.258   7.043  0.5758  0.1012 -0.3350
  171SAPS   C1119356   6.052   1.434   6.817  0.6586  0.3462  0.1609
  171SAPS  H11A19357   6.092   1.477   6.911  2.0566 -1.7493  0.5840
  171SAPS  H11B19358   6.022   1.518   6.750 -2.0707 -2.4758 -2.5208
  171SAPS     P19359   6.296   1.434   6.723  0.2112  0.1175  0.5618
  171SAPS   O1319360   6.272   1.577   6.684 -0.6229  0.4573 -0.4149
  171SAPS   O1419361   6.385   1.397   6.833 -0.2465  1.0053 -0.3300
  171SAPS   O1219362   6.152   1.363   6.747  0.5815 -0.0843 -0.3382
  171SAPS   O1119363   6.348   1.372   6.587  0.4646 -0.4421  0.2463
  171SAPS    C119364   6.318   1.246   6.532 -0.9128 -0.5741 -0.4293
  171SAPS    HA19365   6.406   1.179   6.524 -0.8056 -0.5141  0.1678
  171SAPS    HB19366   6.237   1.197   6.590 -1.5455  1.2910  0.3544
  171SAPS    C219367   6.264   1.272   6.397  0.8022  0.4161  0.4203
  171SAPS    HS19368   6.221   1.174   6.366  1.5274  0.0316  0.6077
  171SAPS   O2119369   6.360   1.317   6.297 -0.3546  0.0981 -0.6845
  171SAPS   C2119370   6.427   1.222   6.233 -0.0671 -0.5840 -0.6352
  171SAPS   O2219371   6.420   1.101   6.256  0.3323 -0.1267 -0.1065
  171SAPS   C2219372   6.516   1.280   6.124  0.3312  0.3231 -0.0765
  171SAPS   H2R19373   6.590   1.354   6.162 -0.4401  1.8620 -1.4219
  171SAPS   H2S19374   6.579   1.190   6.109 -0.4582 -0.3497  0.5852
  171SAPS    C319375   6.134   1.362   6.397  0.8188 -0.0121  0.4093
  171SAPS    HX19376   6.160   1.467   6.422 -0.9810  0.2297  1.4890
  171SAPS    HY19377   6.085   1.325   6.490 -1.1138 -0.9005 -0.8971
  171SAPS   O3119378   6.049   1.351   6.287 -0.4042  0.3546 -0.1448
  171SAPS   C3119379   5.995   1.462   6.248 -0.3816 -0.1595  0.5097
  171SAPS   O3219380   6.029   1.572   6.285 -0.2880 -0.4667  0.1461
  171SAPS   C3219381   5.881   1.430   6.141 -0.2188 -0.2361 -0.1792
  171SAPS   H2X19382   5.813   1.365   6.201  2.7776 -3.5515  0.0264
  171SAPS   H2Y19383   5.930   1.372   6.060 -1.0960 -0.5341 -0.5090
  171SAPS   C2319384   6.448   1.320   5.986 -0.0892  0.4543  0.2619
  171SAPS   H3R19385   6.365   1.253   5.956  0.1162  0.8150 -1.2056
  171SAPS   H3S19386   6.532   1.301   5.916 -1.1652  0.2068 -0.9892
  171SAPS   C2419387   6.416   1.471   5.978  0.2302 -0.0886  0.7438
  171SAPS   H4R19388   6.430   1.511   5.876 -0.9442 -0.6454  0.3598
  171SAPS   H4S19389   6.490   1.527   6.040 -1.9328  2.6329  1.0344
  171SAPS   C2519390   6.271   1.520   6.024 -0.4774  0.4313  0.0875
  171SAPS   H5R19391   6.243   1.527   6.130  1.0192  1.1398  0.4728
  171SAPS   C2619392   6.180   1.574   5.944 -0.3763  0.7783 -0.2387
  171SAPS   H6R19393   6.082   1.600   5.986  0.3612 -1.2307  3.1171
  171SAPS   C2719394   6.182   1.578   5.791 -0.1341 -0.1908 -1.1025
  171SAPS   H7R19395   6.258   1.502   5.761 -2.0150 -3.3326  1.5041
  171SAPS   H7S19396   6.218   1.680   5.765  0.0440  0.4955  1.6069
  171SAPS   C2819397   6.049   1.552   5.723  0.3243 -0.0938  0.3620
  171SAPS   H8R19398   5.961   1.544   5.788 -0.3893 -0.3923 -0.6204
  171SAPS   C2919399   6.039   1.520   5.592 -0.0966 -0.0634 -0.1697
  171SAPS   H9R19400   5.941   1.491   5.553 -0.5708  1.8537 -0.5247
  171SAPS  C21019401   6.153   1.504   5.493  0.8776  0.2770  0.0008
  171SAPS  H10R19402   6.241   1.456   5.541 -0.6704 -1.8165  0.9601
  171SAPS  H10S19403   6.196   1.605   5.475 -0.2151  1.0205  1.3311
  171SAPS  C21119404   6.112   1.423   5.375  0.5179 -0.6528  0.2073
  171SAPS  H11R19405   6.083   1.318   5.391 -1.3863 -0.4318 -1.4114
  171SAPS  C21219406   6.110   1.468   5.246  0.0640  0.1055  0.2356
  171SAPS  H12R19407   6.070   1.404   5.166  2.3612 -0.5059 -0.5039
  171SAPS  C21319408   6.141   1.610   5.206 -0.3989 -0.4000 -0.0729
  171SAPS  H13R19409   6.249   1.637   5.215 -0.7610  0.6301  1.6784
  171SAPS  H13S19410   6.109   1.677   5.288  2.2610 -0.1502  0.8742
  171SAPS  C21419411   6.079   1.662   5.075  0.2947  0.2525  0.0222
  171SAPS  H14R19412   5.969   1.660   5.071  0.2467 -3.2626  0.0307
  171SAPS  C21519413   6.145   1.692   4.959  0.2189 -0.8914  0.0161
  171SAPS  H15R19414   6.088   1.728   4.872  0.8168  0.9427  0.3455
  171SAPS  C21619415   6.291   1.698   4.934  0.1249  0.1367 -0.2363
  171SAPS  H16R19416   6.347   1.709   5.029  0.3079  0.7702 -0.4165
  171SAPS  H16S19417   6.324   1.768   4.854 -0.6026 -2.0491 -2.6165
  171SAPS  C21719418   6.330   1.557   4.886  0.0458 -0.0617  0.2704
  171SAPS  H17R19419   6.266   1.528   4.800 -0.3201  1.0079  0.1631
  171SAPS  H17S19420   6.313   1.476   4.959  2.2205  0.7105  1.7198
  171SAPS  C21819421   6.472   1.562   4.834  0.2242 -0.2551 -0.1279
  171SAPS  H18R19422   6.482   1.604   4.732 -3.7463 -4.0250 -2.3848
  171SAPS  H18S19423   6.501   1.458   4.808  2.1927 -0.1397  1.3352
  171SAPS  C21919424   6.571   1.622   4.938 -0.0912 -0.1923 -0.0377
  171SAPS  H19R19425   6.585   1.559   5.028  1.0076 -0.4672 -0.3761
  171SAPS  H19S19426   6.539   1.724   4.971  2.2219 -0.1224  2.2801
  171SAPS  C22019427   6.711   1.643   4.874  0.6626  0.5101 -0.2714
  171SAPS  H20R19428   6.711   1.704   4.781  0.9122  0.6206 -0.1996
  171SAPS  H20S19429   6.768   1.552   4.844  0.0039  0.3559 -1.1083
  171SAPS  H20T19430   6.774   1.683   4.956 -0.0529 -1.3775  1.2883
  171SAPS   C3319431   5.829   1.552   6.069 -0.1142 -0.6074 -0.3965
  171SAPS   H3X19432   5.911   1.624   6.046 -0.3611 -0.5152 -1.0248
  171SAPS   H3Y19433   5.773   1.610   6.145  0.7322 -1.1269  0.6489
  171SAPS   C3419434   5.750   1.517   5.941 -0.4110  0.3973 -0.7878
  171SAPS   H4X19435   5.672   1.441   5.960  0.5599 -1.1210 -2.4983
  171SAPS   H4Y19436   5.808   1.461   5.865 -2.2092 -2.8061  0.0038
  171SAPS   C3519437   5.697   1.646   5.876 -0.2984  0.5524  0.1983
  171SAPS   H5X19438   5.788   1.702   5.842  0.7018 -1.6884 -1.0531
  171SAPS   H5Y19439   5.645   1.708   5.952  2.1647  1.0797  1.5857
  171SAPS   C3619440   5.621   1.607   5.748  0.1261  0.9078 -0.0781
  171SAPS   H6X19441   5.672   1.528   5.690  2.2460  1.6815  0.6562
  171SAPS   H6Y19442   5.624   1.698   5.685 -0.2064  0.8562 -0.1717
  171SAPS   C3719443   5.474   1.572   5.775  0.7239 -0.2143  0.3775
  171SAPS   H7X19444   5.400   1.653   5.791  0.9592 -0.1770  1.3005
  171SAPS   H7Y19445   5.464   1.497   5.856 -2.3369  1.3740  1.6165
  171SAPS   C3819446   5.426   1.492   5.656  0.6059  0.3758  0.0575
  171SAPS   H8X19447   5.487   1.400   5.669  0.5104  0.2859 -0.1178
  171SAPS   H8Y19448   5.461   1.534   5.559  1.5512  0.1508  0.2886
  171SAPS   C3919449   5.275   1.462   5.663 -0.6338 -0.4756 -0.1012
  171SAPS   H9X19450   5.221   1.555   5.688  0.5979  0.6494 -1.4303
  171SAPS   H9Y19451   5.264   1.376   5.733 -0.0928 -1.3843 -1.0931
  171SAPS  C31019452   5.216   1.412   5.532  0.1665  0.2825  0.0281
  171SAPS  H10X19453   5.286   1.330   5.506  0.9063  1.1063 -0.6499
  171SAPS  H10Y19454   5.220   1.483   5.447  0.5335 -0.8705 -0.9438
  171SAPS  C31119455   5.081   1.346   5.551 -0.0817 -0.0840  0.1502
  171SAPS  H11X19456   5.092   1.273   5.635  0.6705 -1.6550 -1.2409
  171SAPS  H11Y19457   5.046   1.296   5.458 -0.3723  0.1031  0.1610
  171SAPS  C31219458   4.983   1.448   5.602 -0.1333  0.3450  0.3356
  171SAPS  H12X19459   4.991   1.545   5.547  1.4409 -0.2841 -0.6299
  171SAPS  H12Y19460   4.988   1.462   5.712 -1.5643  0.2973  0.4190
  171SAPS  C31319461   4.840   1.402   5.577 -0.0750 -0.3245  0.5678
  171SAPS  H13X19462   4.828   1.403   5.467  0.7126 -0.9316  0.4648
  171SAPS  H13Y19463   4.763   1.470   5.619  1.2965  0.6389  1.6182
  171SAPS  C31419464   4.811   1.265   5.632  0.2750  0.6428  0.1955
  171SAPS  H14X19465   4.887   1.235   5.707  0.1326 -3.0305 -0.9464
  171SAPS  H14Y19466   4.820   1.194   5.547 -0.3444  1.6526 -0.7298
  171SAPS  C31519467   4.672   1.251   5.704 -0.2212  1.0017  0.3879
  171SAPS  H15X19468   4.664   1.141   5.719  0.6020  0.9359  0.4031
  171SAPS  H15Y19469   4.594   1.280   5.630 -0.8748 -2.1087 -0.2992
  171SAPS  C31619470   4.653   1.325   5.827  0.1008  0.4674 -0.3310
  171SAPS  H16X19471   4.678   1.433   5.816 -0.2840  0.5964  0.0574
  171SAPS  H16Y19472   4.716   1.281   5.907 -0.2932  0.2880 -0.1207
  171SAPS  C31719473   4.514   1.286   5.878  0.7282  0.0362  0.8014
  171SAPS  H17X19474   4.496   1.176   5.868  1.1261  0.1444 -1.9288
  171SAPS  H17Y19475   4.445   1.337   5.808 -1.2525 -0.8975  1.9796
  171SAPS  C31819476   4.488   1.328   6.021 -0.1793  0.0743  0.4367
  171SAPS  H18X19477   4.497   1.436   6.045 -0.5751  0.4187 -0.8764
  171SAPS  H18Y19478   4.554   1.268   6.087  0.6354  0.0546 -0.3764
  171SAPS  H18Z19479   4.383   1.304   6.046 -0.7274 -0.5031 -2.1268
  172SAPS     N19480   5.682   0.976   6.922  0.1596  0.8458  0.5410
  172SAPS   HN119481   5.719   0.883   6.948  0.4994 -0.2356 -3.2353
  172SAPS   HN219482   5.759   1.046   6.917 -0.1470  1.1310 -1.0074
  172SAPS   HN319483   5.601   1.010   6.978 -1.4310  0.4576 -1.3723
  172SAPS   C1219484   5.621   0.965   6.785 -0.0023  0.2640  0.4744
  172SAPS  H12A19485   5.536   0.898   6.791  0.2785 -0.2522 -0.8647
  172SAPS   C1319486   5.579   1.108   6.727 -0.4231 -0.2571 -0.1864
  172SAPS  O13A19487   5.619   1.212   6.788 -0.6100 -0.2126 -0.5426
  172SAPS  O13B19488   5.503   1.120   6.628  0.0853 -0.5614  0.0199
  172SAPS   C1119489   5.732   0.917   6.692 -0.4778 -0.3758  1.1203
  172SAPS  H11A19490   5.804   1.000   6.679 -0.4672 -0.4875  0.3942
  172SAPS  H11B19491   5.680   0.896   6.596  0.4833 -2.6802  1.0177
  172SAPS     P19492   5.928   0.752   6.681  0.1171 -0.1874  0.0706
  172SAPS   O1319493   6.035   0.802   6.771  0.2935  0.3982 -0.6997
  172SAPS   O1419494   5.927   0.609   6.653  0.5820 -0.3095 -0.3653
  172SAPS   O1219495   5.794   0.801   6.739 -0.0794  0.0050  0.7395
  172SAPS   O1119496   5.931   0.831   6.542  0.7158  0.6568 -0.9299
  172SAPS    C119497   5.859   0.771   6.427 -0.1915 -0.7467  0.0112
  172SAPS    HA19498   5.820   0.667   6.437 -1.4024 -0.2672  0.5069
  172SAPS    HB19499   5.768   0.834   6.419  1.5847  1.7834 -1.4098
  172SAPS    C219500   5.946   0.790   6.302 -0.9966  0.2511  0.9591
  172SAPS    HS19501   5.974   0.898   6.299 -0.2459  0.1461  2.6201
  172SAPS   O2119502   5.881   0.740   6.183  0.2923 -0.0823  0.1518
  172SAPS   C2119503   5.790   0.819   6.135 -0.1631 -0.3192 -0.0629
  172SAPS   O2219504   5.741   0.918   6.185  0.3955  0.1487  0.0531
  172SAPS   C2219505   5.754   0.767   5.999 -0.1508  0.3245  0.1642
  172SAPS   H2R19506   5.839   0.776   5.928  0.5506 -2.3749  0.5732
  172SAPS   H2S19507   5.736   0.658   6.006 -0.4987  0.1586 -2.2148
  172SAPS    C319508   6.083   0.712   6.317  0.0102  0.0486  0.4038
  172SAPS    HX19509   6.074   0.604   6.291  0.0934 -0.7589  3.3450
  172SAPS    HY19510   6.098   0.725   6.426  0.0496  2.0773  0.1887
  172SAPS   O3119511   6.187   0.778   6.245  0.0825 -0.0225  0.3861
  172SAPS   C3119512   6.277   0.691   6.191 -0.0614 -0.0850  0.4457
  172SAPS   O3219513   6.289   0.578   6.212 -0.9416  0.4082 -0.3234
  172SAPS   C3219514   6.363   0.778   6.096  0.4507 -0.3707 -0.4412
  172SAPS   H2X19515   6.468   0.745   6.112  0.7738  1.5504  1.8356
  172SAPS   H2Y19516   6.341   0.884   6.120 -0.9781 -0.5785 -0.7552
  172SAPS   C2319517   5.634   0.834   5.946 -0.2969  0.2286 -0.2039
  172SAPS   H3R19518   5.654   0.935   5.903 -2.0268  0.7561  0.1569
  172SAPS   H3S19519   5.566   0.850   6.032  1.1675 -0.0850  1.0629
  172SAPS   C2419520   5.566   0.741   5.845 -0.3982 -0.5993  0.1025
  172SAPS   H4R19521   5.459   0.769   5.853  0.3314  2.2288  1.3183
  172SAPS   H4S19522   5.566   0.644   5.900  2.4431 -0.3291  0.7578
  172SAPS   C2519523   5.627   0.727   5.706 -0.3127 -0.1741 -0.3265
  172SAPS   H5R19524   5.704   0.648   5.697  0.6373  0.8509 -1.4654
  172SAPS   C2619525   5.587   0.793   5.600  0.1743 -0.3790 -0.3885
  172SAPS   H6R19526   5.633   0.769   5.503 -1.1765 -0.8346 -0.9449
  172SAPS   C2719527   5.483   0.900   5.596  0.7027 -0.3060 -0.8267
  172SAPS   H7R19528   5.507   1.006   5.616 -1.7308  0.2868 -0.8422
  172SAPS   H7S19529   5.402   0.879   5.669  2.2530 -3.1492  0.2386
  172SAPS   C2819530   5.431   0.906   5.454  0.1133  0.5828 -0.7873
  172SAPS   H8R19531   5.394   0.806   5.424 -0.6876  0.2037  1.3072
  172SAPS   C2919532   5.433   1.013   5.367  0.0386  0.0920  0.1820
  172SAPS   H9R19533   5.395   1.007   5.264  1.8517  1.4859 -0.6175
  172SAPS  C21019534   5.479   1.151   5.382  0.6154 -0.0363  0.2545
  172SAPS  H10R19535   5.505   1.174   5.488  2.5145  1.4171 -0.4623
  172SAPS  H10S19536   5.399   1.225   5.363 -0.1229 -0.4823  1.5138
  172SAPS  C21119537   5.597   1.189   5.293  0.2504  0.1695 -0.1628
  172SAPS  H11R19538   5.571   1.187   5.186 -2.6374 -0.8857  0.4747
  172SAPS  C21219539   5.719   1.227   5.338 -0.4870  0.4911 -0.5526
  172SAPS  H12R19540   5.789   1.266   5.262 -0.2253 -0.8800 -1.0387
  172SAPS  C21319541   5.774   1.235   5.481  0.6828 -0.2962 -0.1027
  172SAPS  H13R19542   5.702   1.279   5.553 -1.7689 -2.8301 -0.8577
  172SAPS  H13S19543   5.864   1.300   5.466 -0.3289  0.6588 -2.6355
  172SAPS  C21419544   5.821   1.093   5.514 -0.4098  0.4075  0.4340
  172SAPS  H14R19545   5.765   1.008   5.473 -1.3097  1.3924 -0.4572
  172SAPS  C21519546   5.934   1.059   5.573 -0.2761 -0.0997 -0.1597
  172SAPS  H15R19547   5.963   0.956   5.600  0.2362  1.1216  5.2648
  172SAPS  C21619548   6.036   1.155   5.629 -0.2454  0.5536  0.2236
  172SAPS  H16R19549   6.006   1.258   5.656  0.8580  0.4347  2.0139
  172SAPS  H16S19550   6.136   1.154   5.581 -0.8207  1.3597 -1.0664
  172SAPS  C21719551   6.070   1.102   5.770  0.2894 -0.1310  0.4373
  172SAPS  H17R19552   6.160   1.144   5.821  0.0620  0.2077  0.5622
  172SAPS  H17S19553   6.103   0.997   5.759  3.9585  1.0205 -1.3407
  172SAPS  C21819554   5.954   1.122   5.874 -0.6525  0.1627  1.4995
  172SAPS  H18R19555   5.855   1.097   5.830  0.1136 -1.2025  0.4947
  172SAPS  H18S19556   5.960   1.230   5.896  1.2057  0.4495 -0.1928
  172SAPS  C21919557   5.988   1.052   6.008  0.0288  0.5418  0.8675
  172SAPS  H19R19558   5.997   0.943   5.988  0.9818  0.7925 -0.1934
  172SAPS  H19S19559   5.902   1.058   6.078 -0.9839 -0.4626 -0.2552
  172SAPS  C22019560   6.129   1.094   6.073  0.6691 -0.1338  0.7632
  172SAPS  H20R19561   6.214   1.053   6.014  0.7910  0.0720  0.7907
  172SAPS  H20S19562   6.136   1.072   6.181  2.7421  1.4411  1.0303
  172SAPS  H20T19563   6.128   1.205   6.066 -0.5126  0.0404  2.9274
  172SAPS   C3319564   6.312   0.752   5.951 -0.5482 -0.4368 -0.5562
  172SAPS   H3X19565   6.203   0.769   5.958  0.0955  4.6732  3.5315
  172SAPS   H3Y19566   6.332   0.644   5.933  1.0643  0.0804 -2.1340
  172SAPS   C3419567   6.365   0.842   5.839 -0.0129  0.4913  0.5062
  172SAPS   H4X19568   6.475   0.829   5.849  0.2595  1.7959 -0.5090
  172SAPS   H4Y19569   6.348   0.952   5.845  1.5735  0.8703 -0.9911
  172SAPS   C3519570   6.334   0.792   5.698  0.2530  0.6362  0.7206
  172SAPS   H5X19571   6.224   0.804   5.681  0.2874  0.4216  0.3258
  172SAPS   H5Y19572   6.363   0.686   5.680 -1.5256  0.1623  0.4382
  172SAPS   C3619573   6.420   0.873   5.598  0.3257 -0.1636 -0.0654
  172SAPS   H6X19574   6.528   0.846   5.609  0.7520  1.8812  1.1904
  172SAPS   H6Y19575   6.407   0.981   5.619  3.2769  0.2300  0.1645
  172SAPS   C3719576   6.369   0.838   5.459 -0.2377 -0.2002 -0.1165
  172SAPS   H7X19577   6.365   0.728   5.444  2.5601 -0.0408 -3.1562
  172SAPS   H7Y19578   6.452   0.857   5.388 -1.8049  1.4302 -1.6087
  172SAPS   C3819579   6.252   0.923   5.412 -0.4970  0.1379  0.0704
  172SAPS   H8X19580   6.268   1.027   5.447  0.4007 -0.2770  0.9482
  172SAPS   H8Y19581   6.154   0.893   5.456 -0.1624  0.6280  1.1996
  172SAPS   C3919582   6.244   0.924   5.259 -0.9881  0.5369  0.2807
  172SAPS   H9X19583   6.205   0.826   5.224 -2.7273  2.0229 -2.3165
  172SAPS   H9Y19584   6.344   0.932   5.212 -0.1100 -0.8247  1.8243
  172SAPS  C31019585   6.144   1.031   5.204 -1.0410  0.1699 -0.7174
  172SAPS  H10X19586   6.175   1.136   5.222 -1.5306  0.0342  1.1111
  172SAPS  H10Y19587   6.043   1.013   5.246 -0.6010 -0.7993 -0.0456
  172SAPS  C31119588   6.138   1.008   5.049 -0.5785  0.7332 -0.2921
  172SAPS  H11X19589   6.109   0.903   5.030 -1.6330  1.0302 -0.3473
  172SAPS  H11Y19590   6.245   1.023   5.022 -0.1439  0.2199  1.0781
  172SAPS  C31219591   6.064   1.107   4.966 -0.1874  0.2384  0.4673
  172SAPS  H12X19592   6.093   1.118   4.860 -0.8467 -0.5353  0.1978
  172SAPS  H12Y19593   6.080   1.208   5.010  1.0331 -0.1286  0.9283
  172SAPS  C31319594   5.919   1.076   4.957 -0.0968 -0.0642 -0.7175
  172SAPS  H13X19595   5.878   1.079   5.060  1.6353  1.4131 -0.0256
  172SAPS  H13Y19596   5.906   0.977   4.909  1.8953  0.0771 -1.6619
  172SAPS  C31419597   5.831   1.175   4.883 -0.2523 -0.0215 -0.3468
  172SAPS  H14X19598   5.725   1.142   4.892 -0.1403 -0.0623  0.9766
  172SAPS  H14Y19599   5.878   1.186   4.783  0.7879 -0.3259  0.0962
  172SAPS  C31519600   5.838   1.323   4.940 -0.1092 -0.1367 -0.3366
  172SAPS  H15X19601   5.938   1.359   4.908  0.1626 -2.8929 -3.1303
  172SAPS  H15Y19602   5.827   1.318   5.050 -1.0335  0.4702 -0.3824
  172SAPS  C31619603   5.728   1.407   4.883  0.0291 -0.4550  0.2814
  172SAPS  H16X19604   5.724   1.389   4.773  0.0035  0.4974  0.1223
  172SAPS  H16Y19605   5.624   1.383   4.914  0.5232 -3.1940  0.0943
  172SAPS  C31719606   5.738   1.559   4.897 -0.3789  0.4889 -0.0490
  172SAPS  H17X19607   5.826   1.587   4.835  0.4505 -0.8789  0.4910
  172SAPS  H17Y19608   5.757   1.594   5.000 -0.8724 -0.8637  0.5189
  172SAPS  C31819609   5.612   1.625   4.844  0.5648 -0.0611  0.0846
  172SAPS  H18X19610   5.578   1.617   4.739 -1.7625  0.3618  0.7266
  172SAPS  H18Y19611   5.612   1.734   4.863 -0.1486  0.6897 -3.4823
  172SAPS  H18Z19612   5.521   1.583   4.893 -0.0696  0.5589 -0.5337
  173SAPS     N19613   1.837   6.019   2.458  0.3851 -0.1351  0.2059
  173SAPS   HN119614   1.933   6.025   2.497  0.2231 -0.0553  0.6041
  173SAPS   HN219615   1.773   6.017   2.540 -1.2626 -0.1847 -1.0284
  173SAPS   HN319616   1.828   5.923   2.417  0.8328 -1.1044  2.2404
  173SAPS   C1219617   1.812   6.112   2.352  0.2825  0.2619  0.2718
  173SAPS  H12A19618   1.875   6.088   2.267 -2.3723 -1.9591 -1.2469
  173SAPS   C1319619   1.666   6.110   2.297 -0.0682  0.3120  0.3730
  173SAPS  O13A19620   1.574   6.058   2.369  0.5523 -0.4747  0.0016
  173SAPS  O13B19621   1.636   6.171   2.194 -0.1316 -0.2836  0.0423
  173SAPS   C1119622   1.830   6.265   2.399  0.5546 -0.6328 -0.8019
  173SAPS  H11A19623   1.764   6.296   2.483  1.9859 -0.0164  0.1415
  173SAPS  H11B19624   1.797   6.329   2.315  0.2861 -1.5214 -1.3802
  173SAPS     P19625   2.075   6.358   2.372 -0.0209  0.0811 -0.5168
  173SAPS   O1319626   2.122   6.257   2.271 -0.1394 -0.1316 -0.2515
  173SAPS   O1419627   2.037   6.492   2.322 -0.1596  0.1506 -0.2301
  173SAPS   O1219628   1.959   6.294   2.455 -0.4846 -0.1012  0.2450
  173SAPS   O1119629   2.193   6.371   2.478 -0.1758  0.0644 -0.7848
  173SAPS    C119630   2.170   6.378   2.620 -1.2431 -0.2124 -0.3843
  173SAPS    HA19631   2.260   6.419   2.671 -0.6209 -1.3809 -0.5046
  173SAPS    HB19632   2.081   6.436   2.650 -0.2006  1.0501  0.3333
  173SAPS    C219633   2.172   6.235   2.679  0.1685  0.2372 -0.4555
  173SAPS    HS19634   2.076   6.184   2.661  1.8923 -4.1627  1.4090
  173SAPS   O2119635   2.203   6.243   2.824  0.0531  0.1310 -0.4301
  173SAPS   C2119636   2.094   6.265   2.898  0.6846 -0.1890 -0.1526
  173SAPS   O2219637   1.978   6.271   2.858  0.0912 -0.1221 -0.0999
  173SAPS   C2219638   2.136   6.275   3.043  0.0723 -0.4147  0.5859
  173SAPS   H2R19639   2.206   6.192   3.065 -0.5089 -1.0880 -0.0466
  173SAPS   H2S19640   2.197   6.367   3.057 -2.0412  0.8512  2.4334
  173SAPS    C319641   2.293   6.150   2.622  0.0566 -0.4751 -0.9302
  173SAPS    HX19642   2.379   6.201   2.672 -0.3177 -0.0559 -0.6991
  173SAPS    HY19643   2.288   6.156   2.512 -1.7168  2.3651 -0.7941
  173SAPS   O3119644   2.289   6.014   2.664  0.1368 -0.2369 -0.2074
  173SAPS   C3119645   2.184   5.941   2.621  0.1677 -0.1694 -0.0528
  173SAPS   O3219646   2.095   5.977   2.543  0.7681 -0.2309 -0.8986
  173SAPS   C3219647   2.175   5.807   2.683  0.6053  1.2813  0.0718
  173SAPS   H2X19648   2.272   5.755   2.694 -0.3936 -0.6625  0.1372
  173SAPS   H2Y19649   2.119   5.737   2.617 -1.4231  1.0465  1.9640
  173SAPS   C2319650   2.026   6.272   3.151 -0.0980 -0.1501  0.4209
  173SAPS   H3R19651   1.959   6.184   3.135 -0.2409  0.4225 -2.7889
  173SAPS   H3S19652   1.953   6.355   3.147  0.0404 -0.0264  0.4587
  173SAPS   C2419653   2.079   6.274   3.296  0.0022  0.3151  0.1778
  173SAPS   H4R19654   2.166   6.205   3.300  0.4634  0.8835 -0.0907
  173SAPS   H4S19655   1.996   6.245   3.365 -1.8434  0.4583 -1.8627
  173SAPS   C2519656   2.130   6.412   3.340 -0.0174 -0.2857 -0.1389
  173SAPS   H5R19657   2.180   6.463   3.256  0.6175 -0.4634  0.1242
  173SAPS   C2619658   2.134   6.467   3.466  0.1143  0.1481 -0.0863
  173SAPS   H6R19659   2.164   6.571   3.485 -2.3122  0.7906  0.4623
  173SAPS   C2719660   2.078   6.400   3.588  0.1594  0.9464 -0.3621
  173SAPS   H7R19661   2.085   6.289   3.598 -2.2150  0.8773  1.1543
  173SAPS   H7S19662   1.969   6.422   3.584  0.1649  1.0654  0.1449
  173SAPS   C2819663   2.145   6.459   3.716 -0.1314  0.1055  0.2706
  173SAPS   H8R19664   2.242   6.508   3.701 -1.5840  2.8478 -1.1128
  173SAPS   C2919665   2.079   6.486   3.832  0.3100 -0.4259  0.5318
  173SAPS   H9R19666   2.138   6.518   3.919  0.7566  0.1055  0.0391
  173SAPS  C21019667   1.933   6.455   3.850 -0.1917 -0.3627  0.4237
  173SAPS  H10R19668   1.899   6.350   3.839 -0.7794 -0.2658  1.2332
  173SAPS  H10S19669   1.872   6.503   3.771  0.2337 -1.8064 -0.8192
  173SAPS  C21119670   1.884   6.526   3.981 -0.1319 -0.7877  0.0343
  173SAPS  H11R19671   1.886   6.636   3.969  4.1066 -0.8305 -1.2620
  173SAPS  C21219672   1.865   6.463   4.097  0.3254  0.3210  0.7658
  173SAPS  H12R19673   1.827   6.529   4.176  1.7874  0.4725  1.3854
  173SAPS  C21319674   1.870   6.312   4.118  0.1274 -0.1716 -0.9033
  173SAPS  H13R19675   1.874   6.298   4.228 -2.3090 -0.9749 -0.8495
  173SAPS  H13S19676   1.959   6.270   4.067 -0.7784 -2.0295 -1.0364
  173SAPS  C21419677   1.741   6.253   4.075  0.2663 -0.1568  0.6062
  173SAPS  H14R19678   1.742   6.207   3.975  0.2796  2.0908 -0.4835
  173SAPS  C21519679   1.619   6.246   4.129 -0.8485 -0.7377 -0.1818
  173SAPS  H15R19680   1.543   6.197   4.067 -2.1534  1.6778 -0.5891
  173SAPS  C21619681   1.587   6.299   4.267  0.7205  0.7168  0.3256
  173SAPS  H16R19682   1.513   6.381   4.254  1.1921  1.2321  0.8715
  173SAPS  H16S19683   1.667   6.336   4.334  1.1234  0.6748 -0.1236
  173SAPS  C21719684   1.507   6.193   4.350  0.2593 -0.3744 -0.0904
  173SAPS  H17R19685   1.500   6.232   4.454  0.7044 -0.6022  0.0265
  173SAPS  H17S19686   1.559   6.096   4.339  1.3618  0.3666 -1.7975
  173SAPS  C21819687   1.360   6.170   4.303 -0.1328 -0.2578 -0.4652
  173SAPS  H18R19688   1.317   6.086   4.361 -2.1211  1.8987  1.3682
  173SAPS  H18S19689   1.363   6.142   4.196  1.2863 -1.9095 -0.0423
  173SAPS  C21919690   1.265   6.291   4.322 -0.2563  0.0700  0.7725
  173SAPS  H19R19691   1.160   6.256   4.308 -0.0636 -0.9871  1.8592
  173SAPS  H19S19692   1.287   6.372   4.249  0.8031 -0.8329  0.0479
  173SAPS  C22019693   1.280   6.360   4.457 -0.6272  0.8674  0.0513
  173SAPS  H20R19694   1.196   6.429   4.481 -0.3561  0.7027  1.5819
  173SAPS  H20S19695   1.375   6.415   4.477 -0.1786  0.2683 -0.3985
  173SAPS  H20T19696   1.267   6.274   4.527 -0.4120  1.0443  0.3121
  173SAPS   C3319697   2.094   5.809   2.818  0.1424  0.1477  0.1282
  173SAPS   H3X19698   2.095   5.706   2.858 -1.9597 -0.3884 -1.0540
  173SAPS   H3Y19699   1.992   5.848   2.799  1.3991  2.9025 -1.6032
  173SAPS   C3419700   2.158   5.892   2.932 -0.2314  0.3348  0.7270
  173SAPS   H4X19701   2.157   6.000   2.906  1.8243  0.5785  1.5004
  173SAPS   H4Y19702   2.268   5.877   2.927 -0.1962  0.7083  0.2693
  173SAPS   C3519703   2.102   5.849   3.065  0.5721  0.4465  0.3954
  173SAPS   H5X19704   2.121   5.741   3.077  1.7794  0.5446 -0.5375
  173SAPS   H5Y19705   1.993   5.868   3.077 -0.1896 -3.0805  0.1651
  173SAPS   C3619706   2.168   5.907   3.187 -0.4446  0.1752 -0.1420
  173SAPS   H6X19707   2.148   6.016   3.189 -0.6186  0.1761 -1.2594
  173SAPS   H6Y19708   2.277   5.894   3.172  0.1115  4.0107 -0.4405
  173SAPS   C3719709   2.144   5.849   3.324  0.0022 -0.1712 -0.3258
  173SAPS   H7X19710   2.172   5.743   3.306 -1.9559 -0.4525 -2.0334
  173SAPS   H7Y19711   2.035   5.854   3.347 -0.1090  1.4079 -1.0591
  173SAPS   C3819712   2.228   5.912   3.433  0.0540  0.2850 -0.1241
  173SAPS   H8X19713   2.189   6.015   3.446 -2.7355 -0.7303  0.1811
  173SAPS   H8Y19714   2.334   5.908   3.400 -0.0046  0.1234 -0.2958
  173SAPS   C3919715   2.220   5.839   3.563  0.5643 -0.1602  0.4709
  173SAPS   H9X19716   2.289   5.753   3.554 -1.9194 -2.5881  2.7360
  173SAPS   H9Y19717   2.126   5.782   3.575 -0.0958  0.6228 -0.8570
  173SAPS  C31019718   2.242   5.910   3.695  0.2863 -0.4736  0.3039
  173SAPS  H10X19719   2.346   5.947   3.690  0.0701 -0.0107 -1.0371
  173SAPS  H10Y19720   2.241   5.822   3.763  2.0653 -1.4932 -0.9175
  173SAPS  C31119721   2.137   6.015   3.731  0.7611  0.0911  0.3703
  173SAPS  H11X19722   2.036   5.969   3.734  0.6980  0.0604 -1.3132
  173SAPS  H11Y19723   2.146   6.092   3.650  0.6889  0.2100  0.4735
  173SAPS  C31219724   2.160   6.091   3.865  0.5049 -0.2116  0.4171
  173SAPS  H12X19725   2.071   6.157   3.876  1.2019  0.6804  0.8232
  173SAPS  H12Y19726   2.244   6.164   3.870 -0.6226  1.0156  2.5437
  173SAPS  C31319727   2.148   6.005   3.989  0.3939 -0.0158 -0.1285
  173SAPS  H13X19728   2.104   5.904   3.979 -0.1989 -0.2759  3.5247
  173SAPS  H13Y19729   2.103   6.053   4.078  0.4923 -0.9141  0.4216
  173SAPS  C31419730   2.294   5.971   4.033  0.4020  0.1802 -0.3070
  173SAPS  H14X19731   2.350   6.065   4.051  0.6611 -0.4787  3.0268
  173SAPS  H14Y19732   2.345   5.924   3.947  0.2484 -0.6665  0.0503
  173SAPS  C31519733   2.298   5.878   4.157 -0.3566 -0.1094  0.0062
  173SAPS  H15X19734   2.248   5.781   4.136 -1.0693  0.4567 -0.9920
  173SAPS  H15Y19735   2.232   5.925   4.233  0.5038  0.6690  0.2835
  173SAPS  C31619736   2.439   5.846   4.213 -0.1835 -0.5179 -0.8909
  173SAPS  H16X19737   2.517   5.828   4.136  2.6031 -1.4505  1.9722
  173SAPS  H16Y19738   2.442   5.759   4.283  0.2661 -0.1570 -0.4595
  173SAPS  C31719739   2.507   5.968   4.287 -0.2216  0.1929  0.0588
  173SAPS  H17X19740   2.500   6.052   4.214 -0.5059 -0.5189 -0.7556
  173SAPS  H17Y19741   2.614   5.952   4.313  0.0714  1.6400 -0.1394
  173SAPS  C31819742   2.442   6.001   4.425  0.9876 -0.4425 -0.2946
  173SAPS  H18X19743   2.338   6.039   4.410  0.5377 -2.2405 -2.2815
  173SAPS  H18Y19744   2.487   6.090   4.474 -1.4164  0.7718 -0.1090
  173SAPS  H18Z19745   2.444   5.914   4.493  1.9246 -0.4165 -0.2838
  174SAPS     N19746   4.847   3.331   2.240 -0.4338  0.0528  0.7275
  174SAPS   HN119747   4.900   3.402   2.186 -0.2133  0.6497  1.6890
  174SAPS   HN219748   4.791   3.268   2.179  3.2713 -0.9652 -1.9681
  174SAPS   HN319749   4.792   3.371   2.319 -0.0221  1.4073  0.3526
  174SAPS   C1219750   4.944   3.223   2.298  0.1225 -0.2317 -0.1273
  174SAPS  H12A19751   4.880   3.174   2.370  0.9373  0.5328  1.1513
  174SAPS   C1319752   4.998   3.117   2.194  0.2776 -0.5487  0.6284
  174SAPS  O13A19753   4.950   3.126   2.076 -0.1745 -0.1379  0.3673
  174SAPS  O13B19754   5.040   3.011   2.238 -0.3678 -0.3407  0.0224
  174SAPS   C1119755   5.053   3.292   2.390  0.0930 -0.0541  0.4408
  174SAPS  H11A19756   5.114   3.362   2.329 -1.2155 -0.2869 -1.2257
  174SAPS  H11B19757   5.109   3.198   2.412 -0.6414 -0.7260 -0.4661
  174SAPS     P19758   5.018   3.300   2.647 -0.3192  0.2255 -0.5456
  174SAPS   O1319759   4.978   3.406   2.739  0.5316 -0.1297 -0.5105
  174SAPS   O1419760   4.943   3.172   2.652 -0.6999 -0.0496 -0.6345
  174SAPS   O1219761   5.000   3.355   2.505 -0.4021 -0.6119 -0.3215
  174SAPS   O1119762   5.171   3.275   2.650  0.2441  0.6265  0.0739
  174SAPS    C119763   5.256   3.286   2.769  0.3623  0.0376 -0.5369
  174SAPS    HA19764   5.363   3.285   2.739  0.9239 -0.4968  1.3243
  174SAPS    HB19765   5.240   3.373   2.835  0.5844  1.0238 -1.7552
  174SAPS    C219766   5.254   3.159   2.861 -0.3743 -1.1001 -0.0959
  174SAPS    HS19767   5.273   3.074   2.792  1.1730 -0.8111 -0.0548
  174SAPS   O2119768   5.129   3.166   2.931 -0.3815 -0.7094 -0.2465
  174SAPS   C2119769   5.061   3.056   2.928  0.4305 -0.5100 -0.5325
  174SAPS   O2219770   5.080   2.956   2.868 -0.6584 -0.5725  0.4296
  174SAPS   C2219771   4.925   3.081   2.987 -0.1539 -0.3279  0.0653
  174SAPS   H2R19772   4.936   3.123   3.089 -0.3568 -0.7103  0.2469
  174SAPS   H2S19773   4.884   3.159   2.919  0.3199 -0.9938 -1.0178
  174SAPS    C319774   5.365   3.151   2.970  1.0682  0.4924 -0.0852
  174SAPS    HX19775   5.354   3.243   3.032 -1.2483 -1.2971  2.3859
  174SAPS    HY19776   5.458   3.156   2.909  0.9158  2.1493 -0.2407
  174SAPS   O3119777   5.364   3.034   3.057  0.3888 -0.6336 -0.6124
  174SAPS   C3119778   5.406   2.920   3.015  0.6746  0.5663  0.1741
  174SAPS   O3219779   5.451   2.907   2.901  0.1581  0.6169  1.0221
  174SAPS   C3219780   5.389   2.804   3.114  0.3890  0.5800 -0.1245
  174SAPS   H2X19781   5.302   2.748   3.074  0.4091  0.3151  0.1962
  174SAPS   H2Y19782   5.354   2.849   3.210 -0.6290 -0.0550 -0.1859
  174SAPS   C2319783   4.816   2.966   2.977 -0.0873 -0.1607 -0.1209
  174SAPS   H3R19784   4.817   2.924   2.875  2.3493 -0.8678  0.1395
  174SAPS   H3S19785   4.716   3.013   2.993 -0.1650 -0.8508  1.6399
  174SAPS   C2419786   4.835   2.852   3.082 -0.7134 -0.2426  0.2719
  174SAPS   H4R19787   4.927   2.793   3.059 -0.7833 -0.7847  1.3432
  174SAPS   H4S19788   4.758   2.778   3.054 -0.2221  0.0829 -2.2800
  174SAPS   C2519789   4.813   2.906   3.222  0.1947  0.2294 -0.6160
  174SAPS   H5R19790   4.715   2.954   3.238  1.1155  2.2944 -0.9202
  174SAPS   C2619791   4.894   2.894   3.332  0.2782 -0.6961  0.2883
  174SAPS   H6R19792   4.864   2.932   3.431  0.4925  0.8885 -0.2207
  174SAPS   C2719793   5.033   2.843   3.303  0.7344 -0.4902 -0.8232
  174SAPS   H7R19794   5.102   2.907   3.361  0.9206 -4.1186  3.5652
  174SAPS   H7S19795   5.064   2.853   3.197 -0.1676  0.8441 -0.9780
  174SAPS   C2819796   5.056   2.703   3.349 -0.8825  0.3178 -0.6680
  174SAPS   H8R19797   5.081   2.638   3.264  5.7087  2.0772 -0.6402
  174SAPS   C2919798   5.070   2.660   3.469  0.3829 -0.1581 -0.5516
  174SAPS   H9R19799   5.096   2.554   3.482  1.7536  0.1777 -0.4162
  174SAPS  C21019800   5.050   2.742   3.600  0.5925 -0.2309  0.2895
  174SAPS  H10R19801   5.035   2.850   3.579  0.2660 -0.5045 -0.9413
  174SAPS  H10S19802   5.141   2.733   3.663 -2.0943 -0.7788  4.4969
  174SAPS  C21119803   4.934   2.698   3.681 -0.0278 -0.4576  0.4080
  174SAPS  H11R19804   4.851   2.644   3.632 -0.7951  0.3210  0.8268
  174SAPS  C21219805   4.918   2.728   3.814 -0.0188 -0.4591  0.3564
  174SAPS  H12R19806   4.826   2.706   3.870  0.3259  0.3458  1.2606
  174SAPS  C21319807   5.006   2.814   3.894  0.4510 -0.4404 -0.1146
  174SAPS  H13R19808   4.941   2.899   3.923  0.7868  0.1430 -1.0467
  174SAPS  H13S19809   5.089   2.858   3.835 -0.0196 -0.9384 -1.1877
  174SAPS  C21419810   5.074   2.748   4.007  0.6227  1.0566 -0.5281
  174SAPS  H14R19811   5.043   2.645   4.033 -0.8759  1.9008  1.3503
  174SAPS  C21519812   5.170   2.808   4.079 -0.4492  0.0513 -0.3697
  174SAPS  H15R19813   5.223   2.759   4.162 -0.8096 -0.3772 -0.3865
  174SAPS  C21619814   5.214   2.950   4.058  0.6566 -0.0595 -0.0612
  174SAPS  H16R19815   5.181   3.011   4.145  0.3686  0.4444 -0.5192
  174SAPS  H16S19816   5.173   3.002   3.969 -0.2935 -1.1386 -0.2819
  174SAPS  C21719817   5.366   2.959   4.038 -0.0387  0.6231 -0.1867
  174SAPS  H17R19818   5.426   2.930   4.127  0.6097  3.7143  0.5322
  174SAPS  H17S19819   5.395   3.067   4.033  1.1479  0.2749 -1.2702
  174SAPS  C21819820   5.412   2.885   3.917 -0.1424  0.1725  0.1741
  174SAPS  H18R19821   5.367   2.916   3.820 -0.2232 -0.4214  0.0180
  174SAPS  H18S19822   5.399   2.775   3.927  1.4784 -0.2332 -1.6191
  174SAPS  C21919823   5.564   2.904   3.902  0.2976  0.6148 -0.9266
  174SAPS  H19R19824   5.609   2.838   3.980 -1.8533 -0.3589 -0.4421
  174SAPS  H19S19825   5.586   3.011   3.922  0.1886  0.2037  1.8258
  174SAPS  C22019826   5.615   2.848   3.771  0.3668 -0.1751  0.4549
  174SAPS  H20R19827   5.567   2.752   3.741 -1.9054  1.5697 -2.0062
  174SAPS  H20S19828   5.725   2.835   3.773  0.5167  0.7812 -0.4235
  174SAPS  H20T19829   5.595   2.916   3.685  0.3326  2.2516  2.2715
  174SAPS   C3319830   5.501   2.706   3.119  0.4980 -0.9288 -0.5899
  174SAPS   H3X19831   5.576   2.757   3.184 -0.4085 -0.3489  0.0176
  174SAPS   H3Y19832   5.552   2.683   3.023  0.5529 -1.4280 -0.4414
  174SAPS   C3419833   5.479   2.571   3.195  0.0763 -0.0273  0.2738
  174SAPS   H4X19834   5.569   2.505   3.192 -0.2947 -0.7860  3.0344
  174SAPS   H4Y19835   5.398   2.523   3.136 -0.2037 -0.4735  1.0066
  174SAPS   C3519836   5.440   2.593   3.346  0.1376  0.3540 -0.4408
  174SAPS   H5X19837   5.346   2.650   3.357  0.3072  0.4120  0.8437
  174SAPS   H5Y19838   5.520   2.640   3.407 -1.1638  0.3174  1.3711
  174SAPS   C3619839   5.396   2.458   3.410 -0.6622 -0.4999 -0.0056
  174SAPS   H6X19840   5.474   2.380   3.395 -0.3615 -0.6013  1.8382
  174SAPS   H6Y19841   5.307   2.435   3.347  0.2266 -1.8880 -0.8070
  174SAPS   C3719842   5.384   2.481   3.562 -0.6912 -0.2088 -0.2075
  174SAPS   H7X19843   5.308   2.559   3.584 -0.2691  0.4306 -0.9799
  174SAPS   H7Y19844   5.483   2.513   3.601 -1.1457 -0.7794  1.5205
  174SAPS   C3819845   5.339   2.353   3.637 -0.3609 -0.1975  0.1832
  174SAPS   H8X19846   5.396   2.267   3.595  0.5484  0.5832 -0.2226
  174SAPS   H8Y19847   5.231   2.339   3.616 -0.3707 -0.8488  0.6365
  174SAPS   C3919848   5.353   2.360   3.787  1.0979  0.2998 -0.2954
  174SAPS   H9X19849   5.299   2.275   3.833 -1.9056  1.9821 -0.4625
  174SAPS   H9Y19850   5.304   2.457   3.811 -1.5239 -0.9634 -0.2175
  174SAPS  C31019851   5.496   2.357   3.832  0.7358 -0.2988 -0.0666
  174SAPS  H10X19852   5.529   2.460   3.806 -4.2010  1.3929 -0.6502
  174SAPS  H10Y19853   5.546   2.273   3.780  3.0037  0.1823  1.2060
  174SAPS  C31119854   5.521   2.349   3.982 -0.1028  0.1535  0.5628
  174SAPS  H11X19855   5.625   2.314   4.000 -0.3223 -0.0017  1.5719
  174SAPS  H11Y19856   5.458   2.265   4.019 -2.3889  1.5740  0.0923
  174SAPS  C31219857   5.492   2.480   4.049  0.1491 -0.0698 -0.0597
  174SAPS  H12X19858   5.384   2.496   4.029 -0.6599 -3.5091  1.0012
  174SAPS  H12Y19859   5.550   2.562   4.001  0.5224  0.1398  0.7374
  174SAPS  C31319860   5.534   2.485   4.193  0.0335  0.2594  0.6371
  174SAPS  H13X19861   5.644   2.472   4.191  0.0644  0.5482  0.4540
  174SAPS  H13Y19862   5.500   2.399   4.255  1.5141 -0.3367  0.6549
  174SAPS  C31419863   5.500   2.620   4.251 -0.2544 -0.5463 -0.1705
  174SAPS  H14X19864   5.391   2.633   4.261 -0.2264  0.9880 -1.4508
  174SAPS  H14Y19865   5.537   2.697   4.180  1.3301  0.4742  1.6409
  174SAPS  C31519866   5.558   2.655   4.387 -0.6085  0.0219 -0.2346
  174SAPS  H15X19867   5.668   2.665   4.371 -0.6625  0.1081 -0.5553
  174SAPS  H15Y19868   5.548   2.565   4.452  1.9435 -1.1872 -1.3661
  174SAPS  C31619869   5.516   2.787   4.452 -0.6633  0.2636 -0.1415
  174SAPS  H16X19870   5.410   2.797   4.484 -0.7068 -1.7990  0.4911
  174SAPS  H16Y19871   5.531   2.864   4.372 -1.6308 -0.4110 -0.9982
  174SAPS  C31719872   5.616   2.807   4.573  0.8260 -0.4482 -0.0752
  174SAPS  H17X19873   5.704   2.834   4.511  1.0621 -1.8232 -0.3886
  174SAPS  H17Y19874   5.643   2.709   4.619 -2.2705 -1.7441 -0.7233
  174SAPS  C31819875   5.574   2.916   4.668  0.0630 -0.1476  0.2185
  174SAPS  H18X19876   5.530   3.004   4.616  1.2211 -0.1950 -0.8850
  174SAPS  H18Y19877   5.658   2.955   4.729  0.0236 -2.3905  1.8154
  174SAPS  H18Z19878   5.496   2.883   4.739 -0.5384  1.0662  0.1520
  175SAPS     N19879   2.010   2.517   2.505 -0.2564  0.3528  0.2959
  175SAPS   HN119880   1.966   2.431   2.468  1.8186 -0.0648 -1.4019
  175SAPS   HN219881   2.076   2.543   2.429  1.2416 -1.4374  0.9386
  175SAPS   HN319882   2.063   2.486   2.588  2.9351  0.1609 -1.6327
  175SAPS   C1219883   1.925   2.635   2.529  0.2895 -0.0942 -0.0679
  175SAPS  H12A19884   1.979   2.722   2.563 -0.0514 -0.7503  2.3532
  175SAPS   C1319885   1.847   2.696   2.412  0.2643 -0.0890 -0.3616
  175SAPS  O13A19886   1.865   2.645   2.298 -0.4156  0.2534 -0.3830
  175SAPS  O13B19887   1.777   2.803   2.426 -0.2121 -0.9125 -0.3703
  175SAPS   C1119888   1.829   2.606   2.647  0.0749 -0.3952 -0.0112
  175SAPS  H11A19889   1.756   2.533   2.604 -1.4149  1.9324 -1.6614
  175SAPS  H11B19890   1.768   2.690   2.687  1.7995  0.3577  1.1085
  175SAPS     P19891   1.847   2.510   2.890 -0.0748 -0.2054 -0.1072
  175SAPS   O1319892   1.875   2.634   2.969 -0.5776  0.4885 -0.3958
  175SAPS   O1419893   1.705   2.452   2.884 -0.4974 -0.8282 -0.2557
  175SAPS   O1219894   1.899   2.537   2.749 -0.3152 -0.0291 -0.3443
  175SAPS   O1119895   1.942   2.408   2.954  0.3339  0.0924  0.2481
  175SAPS    C119896   1.908   2.277   3.000  0.4351 -0.0658 -0.6828
  175SAPS    HA19897   1.812   2.247   2.953  0.0266  1.6319 -1.0128
  175SAPS    HB19898   1.988   2.209   2.966  0.3439 -0.8746  0.6524
  175SAPS    C219899   1.913   2.279   3.154  1.1194 -0.4790  0.6580
  175SAPS    HS19900   1.858   2.191   3.193 -0.3823 -0.2766 -0.9053
  175SAPS   O2119901   1.846   2.406   3.203 -0.4569 -0.0050  0.3532
  175SAPS   C2119902   1.745   2.399   3.286 -0.4182  0.2258 -0.1386
  175SAPS   O2219903   1.692   2.301   3.331 -0.5384 -0.0133  0.3906
  175SAPS   C2219904   1.685   2.540   3.312 -0.1289 -0.4140 -0.4398
  175SAPS   H2R19905   1.736   2.579   3.403 -2.8289  0.8854  0.6167
  175SAPS   H2S19906   1.701   2.606   3.224 -1.0778 -1.5444 -1.4910
  175SAPS    C319907   2.054   2.277   3.219  0.0258 -0.4852 -0.7315
  175SAPS    HX19908   2.115   2.364   3.189  0.6493 -0.4156  0.6603
  175SAPS    HY19909   2.095   2.179   3.184  1.3343 -0.6480  1.1096
  175SAPS   O3119910   2.041   2.270   3.366 -0.1362  0.5810  0.0053
  175SAPS   C3119911   2.046   2.382   3.431  0.3199 -1.0543  0.6965
  175SAPS   O3219912   2.066   2.492   3.380 -0.3376 -0.4235  0.4017
  175SAPS   C3219913   2.026   2.357   3.575  0.2905 -0.3608 -0.0734
  175SAPS   H2X19914   2.088   2.272   3.612  1.0492 -0.0956 -0.7173
  175SAPS   H2Y19915   1.920   2.329   3.590  0.4673 -2.9467 -2.7610
  175SAPS   C2319916   1.541   2.534   3.363  0.0804 -0.0674  0.1923
  175SAPS   H3R19917   1.534   2.447   3.432  0.9831  0.5563  1.0980
  175SAPS   H3S19918   1.474   2.522   3.275  0.4199  0.5036 -0.1484
  175SAPS   C2419919   1.499   2.657   3.448 -0.1579 -0.2122 -0.4775
  175SAPS   H4R19920   1.560   2.676   3.539  0.9442  0.3867 -1.3211
  175SAPS   H4S19921   1.397   2.624   3.477 -0.4089  1.6168  0.8938
  175SAPS   C2519922   1.476   2.780   3.362 -0.7678 -0.4388  0.2732
  175SAPS   H5R19923   1.422   2.770   3.266  0.4766  1.9893 -0.7610
  175SAPS   C2619924   1.551   2.891   3.379 -0.1103 -0.6426 -0.6980
  175SAPS   H6R19925   1.531   2.974   3.310 -1.5080 -0.1241  0.2822
  175SAPS   C2719926   1.655   2.931   3.484  0.6410 -0.1717 -0.1625
  175SAPS   H7R19927   1.640   2.867   3.574 -0.6899  0.1056 -0.1639
  175SAPS   H7S19928   1.634   3.035   3.516  0.3217 -0.0485 -0.7621
  175SAPS   C2819929   1.794   2.930   3.439 -0.2496  0.1267  0.1756
  175SAPS   H8R19930   1.809   2.906   3.333 -2.7262  0.8665 -0.4018
  175SAPS   C2919931   1.896   2.973   3.517  0.2721  0.1336  0.6845
  175SAPS   H9R19932   1.999   2.955   3.482 -0.3832  1.0613 -1.9728
  175SAPS  C21019933   1.869   3.011   3.665  0.3889 -0.6792  0.1764
  175SAPS  H10R19934   1.901   2.916   3.713  3.1079 -1.2247 -2.3961
  175SAPS  H10S19935   1.766   3.046   3.684  0.8272  0.1710  1.0691
  175SAPS  C21119936   1.972   3.096   3.729  0.4373  0.3299  0.7532
  175SAPS  H11R19937   2.050   3.128   3.658 -0.8329 -0.8054 -1.2696
  175SAPS  C21219938   1.972   3.150   3.848 -0.6429 -0.3698 -0.1820
  175SAPS  H12R19939   2.058   3.217   3.865 -1.4872  0.8362 -0.5282
  175SAPS  C21319940   1.880   3.124   3.967  0.0790 -0.1441 -0.6505
  175SAPS  H13R19941   1.795   3.061   3.931  0.3170 -0.6519 -0.3397
  175SAPS  H13S19942   1.843   3.227   3.985  0.8695 -0.1418  1.0934
  175SAPS  C21419943   1.953   3.055   4.084  0.0593 -0.5365 -0.0829
  175SAPS  H14R19944   1.971   2.949   4.062  0.6624 -0.2164 -1.2584
  175SAPS  C21519945   2.024   3.110   4.187 -0.6249  0.1904  0.7131
  175SAPS  H15R19946   2.074   3.045   4.260 -0.7405 -0.0024  0.6214
  175SAPS  C21619947   2.039   3.256   4.218 -0.3040 -0.3270  0.0020
  175SAPS  H16R19948   2.001   3.313   4.130  1.1941 -0.0876 -0.5114
  175SAPS  H16S19949   2.147   3.279   4.213 -0.1379 -1.2419 -0.8324
  175SAPS  C21719950   1.985   3.312   4.353 -0.1236  0.3168 -0.6195
  175SAPS  H17R19951   1.889   3.264   4.383  0.6961  0.4399  2.5662
  175SAPS  H17S19952   1.961   3.419   4.339 -0.2319  0.4216  0.2976
  175SAPS  C21819953   2.074   3.287   4.479  0.0071  0.2123  0.5146
  175SAPS  H18R19954   2.170   3.343   4.469  0.1877 -0.0634  0.6885
  175SAPS  H18S19955   2.096   3.178   4.478  2.4142  0.6264  0.8018
  175SAPS  C21919956   2.009   3.326   4.612  0.8388 -0.5061  0.8794
  175SAPS  H19R19957   1.918   3.262   4.610 -0.7688  1.6713 -0.3752
  175SAPS  H19S19958   1.976   3.431   4.596 -2.9653 -1.6973 -0.0503
  175SAPS  C22019959   2.093   3.299   4.735 -0.3059 -0.2205  0.4866
  175SAPS  H20R19960   2.196   3.336   4.717 -0.7072  0.7811  0.1342
  175SAPS  H20S19961   2.089   3.192   4.764  2.1084 -0.9337 -1.5314
  175SAPS  H20T19962   2.064   3.362   4.823 -0.2463 -0.6904  0.8473
  175SAPS   C3319963   2.054   2.486   3.660  0.2036 -0.3555  0.2847
  175SAPS   H3X19964   1.983   2.565   3.630  1.9176  0.9632 -0.5056
  175SAPS   H3Y19965   2.156   2.526   3.641 -1.0078  1.8158 -2.2600
  175SAPS   C3419966   2.039   2.462   3.802  0.1438  0.4784 -0.3276
  175SAPS   H4X19967   2.088   2.371   3.841 -0.4390  1.1821  2.1962
  175SAPS   H4Y19968   1.933   2.442   3.829  0.2649 -0.9118 -0.8268
  175SAPS   C3519969   2.099   2.580   3.871 -0.5355 -0.0657  0.3304
  175SAPS   H5X19970   2.046   2.667   3.825  0.3185 -0.8319 -2.2446
  175SAPS   H5Y19971   2.204   2.581   3.837 -0.6365  0.7648  0.0165
  175SAPS   C3619972   2.083   2.579   4.019 -0.0283 -0.2122  0.0463
  175SAPS   H6X19973   1.975   2.585   4.044 -0.2776 -0.7874 -0.8686
  175SAPS   H6Y19974   2.145   2.659   4.065 -2.0971  1.9202 -0.6666
  175SAPS   C3719975   2.128   2.446   4.081  0.4596 -0.6815  0.0623
  175SAPS   H7X19976   2.220   2.416   4.026  1.1237  0.1176  0.6965
  175SAPS   H7Y19977   2.051   2.372   4.049 -0.4824  1.2080 -2.3475
  175SAPS   C3819978   2.139   2.437   4.231  0.3596 -0.4045 -0.0456
  175SAPS   H8X19979   2.163   2.331   4.258  0.9707  0.3582  2.7503
  175SAPS   H8Y19980   2.038   2.451   4.276  1.3848 -1.2129  2.7627
  175SAPS   C3919981   2.245   2.516   4.306 -0.1708 -0.1328  0.1505
  175SAPS   H9X19982   2.331   2.537   4.239  1.1317 -1.8519  1.1857
  175SAPS   H9Y19983   2.270   2.470   4.404 -0.2741  0.9166  0.6735
  175SAPS  C31019984   2.193   2.661   4.341  0.5024  0.2516  0.3987
  175SAPS  H10X19985   2.089   2.658   4.378 -0.0513 -1.8479 -1.1226
  175SAPS  H10Y19986   2.191   2.733   4.256 -0.1210  0.4672  0.5981
  175SAPS  C31119987   2.287   2.711   4.452 -0.2351  0.0713 -0.0172
  175SAPS  H11X19988   2.397   2.706   4.438 -0.2112  0.6019 -0.0627
  175SAPS  H11Y19989   2.262   2.644   4.537  1.9000  0.2927  0.8321
  175SAPS  C31219990   2.234   2.855   4.502 -0.5789  0.9032 -0.1363
  175SAPS  H12X19991   2.130   2.837   4.535  0.0847 -0.7877  1.2273
  175SAPS  H12Y19992   2.238   2.927   4.418 -0.9572  3.0950  1.6250
  175SAPS  C31319993   2.329   2.912   4.615 -0.1375  0.1291 -0.1259
  175SAPS  H13X19994   2.276   3.002   4.655 -1.0195 -1.5235  2.7090
  175SAPS  H13Y19995   2.417   2.949   4.558  0.0320  0.1988  0.1831
  175SAPS  C31419996   2.375   2.810   4.725 -0.5272  0.1910 -0.2608
  175SAPS  H14X19997   2.437   2.880   4.786  0.0315  1.5813 -2.3176
  175SAPS  H14Y19998   2.432   2.726   4.678  1.2893  0.3320  1.5383
  175SAPS  C31519999   2.254   2.764   4.804 -0.5280  0.4585 -0.0949
  175SAPS  H15X20000   2.296   2.690   4.876  0.4404  0.6800 -0.4195
  175SAPS  H15Y20001   2.179   2.704   4.747  0.2869 -1.2060  0.5080
  175SAPS  C31620002   2.184   2.879   4.878 -0.4399  0.4816 -0.1456
  175SAPS  H16X20003   2.139   2.945   4.802 -0.1444  3.2930  1.9633
  175SAPS  H16Y20004   2.256   2.943   4.932  0.7693 -0.0993 -1.0401
  175SAPS  C31720005   2.070   2.832   4.972 -0.2572 -0.0566 -0.7121
  175SAPS  H17X20006   2.115   2.749   5.031 -0.1785 -0.0584 -0.7743
  175SAPS  H17Y20007   1.979   2.798   4.919  0.4924 -1.3355 -1.2357
  175SAPS  C31820008   2.031   2.935   5.080 -0.4369  1.4279 -0.2427
  175SAPS  H18X20009   1.986   3.021   5.026 -3.5514 -0.4067 -0.8168
  175SAPS  H18Y20010   2.124   2.959   5.135  0.4654 -2.1004  0.0043
  175SAPS  H18Z20011   1.953   2.899   5.151 -1.5494 -1.1501 -2.5789
  176SAPS     N20012   2.115   0.765   2.662 -0.5067 -0.1874 -0.9610
  176SAPS   HN120013   2.096   0.856   2.615 -2.4983  0.3931  0.8067
  176SAPS   HN220014   2.044   0.695   2.632 -1.7590  1.0168 -0.8945
  176SAPS   HN320015   2.096   0.784   2.762 -0.9209  0.9906 -1.2450
  176SAPS   C1220016   2.257   0.723   2.643  0.0738  0.4446 -0.7542
  176SAPS  H12A20017   2.266   0.634   2.703  0.4134  0.5702 -0.6186
  176SAPS   C1320018   2.299   0.691   2.501  0.5324 -0.0239  0.7500
  176SAPS  O13A20019   2.205   0.664   2.420 -0.1921 -0.3495  0.6968
  176SAPS  O13B20020   2.420   0.666   2.465  0.0672  0.4713  0.2874
  176SAPS   C1120021   2.336   0.843   2.705 -0.6557  0.8470  0.6350
  176SAPS  H11A20022   2.329   0.931   2.638 -0.4898  1.0316  0.8575
  176SAPS  H11B20023   2.445   0.819   2.707 -0.6725  0.5673 -0.8669
  176SAPS     P20024   2.352   0.995   2.910 -0.2974  0.0970 -0.0535
  176SAPS   O1320025   2.459   1.061   2.828 -0.0363 -0.3638  0.2789
  176SAPS   O1420026   2.246   1.076   2.969 -0.2213  0.0835 -0.4773
  176SAPS   O1220027   2.289   0.884   2.833  0.6360  0.2837  0.8079
  176SAPS   O1120028   2.422   0.918   3.031  0.3725 -0.4537 -0.3526
  176SAPS    C120029   2.508   0.993   3.121  0.0735  0.2749  0.1923
  176SAPS    HA20030   2.611   0.987   3.078 -0.2116 -1.4725 -0.3350
  176SAPS    HB20031   2.470   1.097   3.118 -3.9644 -1.0391  0.4553
  176SAPS    C220032   2.501   0.930   3.267  0.6954  0.3609  0.0679
  176SAPS    HS20033   2.561   0.837   3.255  1.9214  1.2656 -1.1450
  176SAPS   O2120034   2.363   0.918   3.309 -0.0940  0.0957  1.0794
  176SAPS   C2120035   2.338   0.802   3.375  0.0492  0.5537 -0.6448
  176SAPS   O2220036   2.426   0.716   3.401 -0.0758 -0.3479  0.7203
  176SAPS   C2220037   2.200   0.809   3.433  0.3535 -0.1513  0.4765
  176SAPS   H2R20038   2.152   0.901   3.393 -0.8275 -0.4639  1.1526
  176SAPS   H2S20039   2.138   0.733   3.382 -1.2261  1.4147 -0.0633
  176SAPS    C320040   2.571   1.024   3.372 -0.0115  0.7997  0.0540
  176SAPS    HX20041   2.527   1.126   3.365 -2.8290 -0.2426  1.0131
  176SAPS    HY20042   2.678   1.014   3.345 -0.0732 -1.9174  0.5968
  176SAPS   O3120043   2.552   0.981   3.512  0.1739  0.3644  0.6480
  176SAPS   C3120044   2.653   0.904   3.556  0.1067 -0.5067  0.3497
  176SAPS   O3220045   2.751   0.875   3.497  0.4742  0.1940  0.4588
  176SAPS   C3220046   2.605   0.834   3.686 -0.3735 -0.3093  0.2321
  176SAPS   H2X20047   2.517   0.769   3.663 -1.6356  1.1994  0.6487
  176SAPS   H2Y20048   2.567   0.917   3.748 -2.7832 -2.7656  2.3170
  176SAPS   C2320049   2.192   0.807   3.586  0.2326  0.1506 -0.1587
  176SAPS   H3R20050   2.275   0.744   3.625  0.5863 -1.0169 -2.6211
  176SAPS   H3S20051   2.093   0.772   3.624  0.1529 -0.3317 -0.7900
  176SAPS   C2420052   2.203   0.944   3.658  0.2102  0.3249 -0.3086
  176SAPS   H4R20053   2.110   1.005   3.650 -1.1397 -1.8456 -2.2890
  176SAPS   H4S20054   2.285   1.001   3.610  0.9714  1.1943  1.8656
  176SAPS   C2520055   2.231   0.927   3.806  0.0530  0.5255  0.4181
  176SAPS   H5R20056   2.282   0.830   3.817 -1.3374 -0.8044 -3.0598
  176SAPS   C2620057   2.227   1.018   3.903 -0.4809 -0.2032  0.0899
  176SAPS   H6R20058   2.251   0.993   4.007 -0.1683  1.4964  0.4640
  176SAPS   C2720059   2.170   1.153   3.872  0.0331 -0.2596  1.1590
  176SAPS   H7R20060   2.085   1.142   3.803  3.2960  1.8923 -3.7405
  176SAPS   H7S20061   2.239   1.200   3.799 -0.3234 -2.6237 -0.8088
  176SAPS   C2820062   2.154   1.243   3.986  1.1530 -0.3204 -1.3076
  176SAPS   H8R20063   2.249   1.273   4.032  1.5645  0.3966 -2.5564
  176SAPS   C2920064   2.037   1.296   4.032 -0.5211 -0.2966  0.3107
  176SAPS   H9R20065   2.035   1.346   4.129 -1.2578 -0.3021  0.3043
  176SAPS  C21020066   1.902   1.277   3.982 -0.9341  0.7828 -0.1770
  176SAPS  H10R20067   1.839   1.245   4.069  1.0040 -0.0315  1.0012
  176SAPS  H10S20068   1.895   1.184   3.921 -0.6417 -1.2667  2.6662
  176SAPS  C21120069   1.838   1.388   3.918  0.2107 -0.3002 -0.1632
  176SAPS  H11R20070   1.879   1.419   3.820  1.4456  1.8210  0.9527
  176SAPS  C21220071   1.747   1.472   3.978 -0.4718  0.2059  0.0711
  176SAPS  H12R20072   1.699   1.545   3.911 -0.3351 -1.5557 -2.0810
  176SAPS  C21320073   1.702   1.481   4.121 -0.8480  0.4607  0.3060
  176SAPS  H13R20074   1.661   1.583   4.130 -0.1797  0.9631 -1.7637
  176SAPS  H13S20075   1.791   1.483   4.187 -1.7222  0.0778  1.5285
  176SAPS  C21420076   1.586   1.387   4.163  0.2357  0.3892 -0.0753
  176SAPS  H14R20077   1.613   1.282   4.179 -0.6854  0.3622  1.5341
  176SAPS  C21520078   1.458   1.422   4.190  0.7616  0.2019  0.7009
  176SAPS  H15R20079   1.400   1.337   4.229  1.7448 -0.2980  1.0963
  176SAPS  C21620080   1.376   1.547   4.185  0.6558  0.0565  0.3841
  176SAPS  H16R20081   1.289   1.544   4.117  1.0736  0.4331 -0.1790
  176SAPS  H16S20082   1.440   1.623   4.135 -0.0319  2.0101  2.3387
  176SAPS  C21720083   1.317   1.601   4.323 -0.3878  0.1011 -0.2377
  176SAPS  H17R20084   1.280   1.513   4.380  0.5542 -0.6260 -0.7181
  176SAPS  H17S20085   1.237   1.676   4.303  2.0131  2.6133 -1.0345
  176SAPS  C21820086   1.422   1.680   4.402  0.0402  0.0059  0.7128
  176SAPS  H18R20087   1.443   1.784   4.369  3.0020 -0.6559  0.2526
  176SAPS  H18S20088   1.522   1.635   4.388  0.6989  1.4582  0.6195
  176SAPS  C21920089   1.386   1.681   4.554 -0.0853  0.3737  0.3490
  176SAPS  H19R20090   1.362   1.578   4.587 -0.3903  0.9163  1.9046
  176SAPS  H19S20091   1.293   1.741   4.563 -0.7461 -0.3758 -1.2215
  176SAPS  C22020092   1.501   1.745   4.633 -0.0178  0.1031  0.4047
  176SAPS  H20R20093   1.540   1.830   4.573 -1.5934  0.4077 -0.2289
  176SAPS  H20S20094   1.594   1.685   4.645  1.2614  1.7090 -1.0220
  176SAPS  H20T20095   1.469   1.775   4.735 -1.1409 -0.1655  0.1398
  176SAPS   C3320096   2.719   0.764   3.771  0.6043 -0.2239  0.0828
  176SAPS   H3X20097   2.822   0.804   3.763  0.6703 -0.7095 -2.2117
  176SAPS   H3Y20098   2.735   0.660   3.735  0.3954 -0.3399  0.3223
  176SAPS   C3420099   2.675   0.765   3.919  0.3414 -0.0991 -0.5867
  176SAPS   H4X20100   2.587   0.697   3.931  0.1497  0.3494  0.7783
  176SAPS   H4Y20101   2.624   0.863   3.930 -1.0680 -0.9855  1.4366
  176SAPS   C3520102   2.782   0.742   4.021  0.2236  0.1752 -0.1581
  176SAPS   H5X20103   2.849   0.829   4.037  1.1386 -0.8996  2.2914
  176SAPS   H5Y20104   2.855   0.669   3.979 -0.7366 -2.5247  2.4383
  176SAPS   C3620105   2.733   0.689   4.158  0.4637 -0.2040 -0.4216
  176SAPS   H6X20106   2.701   0.583   4.161  1.2409 -0.4611  3.0955
  176SAPS   H6Y20107   2.654   0.755   4.198  2.0209  0.1393  2.3664
  176SAPS   C3720108   2.840   0.698   4.272  0.4464 -0.2201 -0.0564
  176SAPS   H7X20109   2.884   0.799   4.262  0.6428 -0.1729  1.0984
  176SAPS   H7Y20110   2.924   0.633   4.240  0.0011 -0.4384 -0.8049
  176SAPS   C3820111   2.798   0.659   4.414 -0.3249 -0.5712  0.2325
  176SAPS   H8X20112   2.769   0.552   4.422 -1.6313 -0.2741 -0.2361
  176SAPS   H8Y20113   2.699   0.707   4.429  0.0829 -0.2483  2.1288
  176SAPS   C3920114   2.910   0.697   4.520 -0.1034 -0.1484  0.5407
  176SAPS   H9X20115   2.915   0.808   4.529  0.8643 -0.3085  2.5484
  176SAPS   H9Y20116   3.015   0.680   4.488  0.3714  1.6284  1.0286
  176SAPS  C31020117   2.877   0.633   4.658 -0.2679 -0.1218 -0.2443
  176SAPS  H10X20118   2.881   0.523   4.669 -0.8118 -0.1692 -0.4721
  176SAPS  H10Y20119   2.773   0.664   4.683 -0.3922 -0.9853  0.3449
  176SAPS  C31120120   2.964   0.681   4.776 -0.1008 -0.3998  0.1834
  176SAPS  H11X20121   2.945   0.790   4.791  2.7942  0.4034 -1.2779
  176SAPS  H11Y20122   3.070   0.675   4.746  0.4695  1.8385  1.4600
  176SAPS  C31220123   2.935   0.621   4.910  0.6430  1.2891  0.6589
  176SAPS  H12X20124   2.973   0.517   4.898 -0.2669  0.9151  0.9692
  176SAPS  H12Y20125   2.827   0.619   4.936  0.0687 -3.3198 -1.2043
  176SAPS  C31320126   2.995   0.688   5.033  0.1141 -0.7334 -0.9116
  176SAPS  H13X20127   2.986   0.799   5.025 -0.8585 -0.8012 -0.9163
  176SAPS  H13Y20128   3.106   0.681   5.031  0.3241  1.2388  0.3763
  176SAPS  C31420129   2.932   0.638   5.170 -0.4528  0.2325 -0.1389
  176SAPS  H14X20130   2.914   0.530   5.154 -2.6698  0.5171  0.1515
  176SAPS  H14Y20131   2.835   0.693   5.174 -0.5936 -0.0943  1.3054
  176SAPS  C31520132   3.018   0.673   5.294 -0.3403 -0.6472 -1.0072
  176SAPS  H15X20133   2.961   0.665   5.389  2.7075 -0.2977  1.0277
  176SAPS  H15Y20134   3.060   0.775   5.281 -0.6409 -0.4280 -0.3006
  176SAPS  C31620135   3.155   0.592   5.313 -0.3569  0.1343 -0.2391
  176SAPS  H16X20136   3.198   0.569   5.213  0.6769  0.2943  0.1552
  176SAPS  H16Y20137   3.120   0.493   5.349 -0.0612  0.0402 -0.2072
  176SAPS  C31720138   3.248   0.654   5.421 -0.0740 -0.4331 -0.3283
  176SAPS  H17X20139   3.315   0.576   5.464  0.8904  0.1548 -0.7480
  176SAPS  H17Y20140   3.186   0.694   5.504  0.6191 -1.6969  0.8406
  176SAPS  C31820141   3.341   0.766   5.375 -0.5156  0.9085 -0.3230
  176SAPS  H18X20142   3.292   0.820   5.292 -0.9960 -0.3647 -0.8850
  176SAPS  H18Y20143   3.433   0.726   5.327 -0.3420  0.4960  0.3369
  176SAPS  H18Z20144   3.355   0.829   5.466 -0.3686 -2.7403  2.4303
  177SAPS     N20145   4.140   3.461   2.757 -0.5186  0.2202  0.1841
  177SAPS   HN120146   4.152   3.503   2.663 -0.7612  2.1248  0.9767
  177SAPS   HN220147   4.039   3.437   2.766 -0.5582 -0.2763 -1.2838
  177SAPS   HN320148   4.177   3.531   2.824  0.8108  1.2375 -1.5354
  177SAPS   C1220149   4.223   3.343   2.773  0.2618 -0.3455 -0.1900
  177SAPS  H12A20150   4.210   3.314   2.876  3.8817  0.3483  0.5936
  177SAPS   C1320151   4.188   3.220   2.678  0.1062 -1.4923  0.5310
  177SAPS  O13A20152   4.117   3.226   2.580  0.2814 -0.3703  0.7723
  177SAPS  O13B20153   4.243   3.113   2.713 -0.0576 -0.7741  0.3335
  177SAPS   C1120154   4.373   3.379   2.751  0.4204 -0.0967  0.4693
  177SAPS  H11A20155   4.383   3.415   2.646  1.0610  1.1120  0.9270
  177SAPS  H11B20156   4.435   3.288   2.767  1.2221  0.2968 -0.2915
  177SAPS     P20157   4.563   3.528   2.865  0.0534  0.4054  0.2243
  177SAPS   O1320158   4.645   3.443   2.772 -0.2273  0.1009 -0.2119
  177SAPS   O1420159   4.582   3.669   2.849  0.1705 -0.6281  0.2868
  177SAPS   O1220160   4.418   3.484   2.848 -0.3744  0.2023 -0.4836
  177SAPS   O1120161   4.611   3.492   3.016 -0.1041 -0.2381  0.2726
  177SAPS    C120162   4.683   3.366   3.031  0.5024 -0.3625  0.3136
  177SAPS    HA20163   4.638   3.282   2.973  2.1942 -1.5111  0.6139
  177SAPS    HB20164   4.790   3.369   3.000  0.9616 -0.8403  1.7821
  177SAPS    C220165   4.669   3.314   3.179 -0.5939 -0.2685  0.2190
  177SAPS    HS20166   4.709   3.211   3.190  1.9601  0.5823 -0.4788
  177SAPS   O2120167   4.542   3.328   3.237 -0.6699  1.0657 -0.1089
  177SAPS   C2120168   4.447   3.251   3.179  0.6402  0.6619 -0.7298
  177SAPS   O2220169   4.474   3.158   3.110  0.2307  0.3802  0.3164
  177SAPS   C2220170   4.307   3.297   3.212 -0.4492  0.0176  0.1837
  177SAPS   H2R20171   4.318   3.388   3.275 -0.8257  1.9140 -2.3453
  177SAPS   H2S20172   4.270   3.324   3.111  0.1242  1.5125  0.3481
  177SAPS    C320173   4.771   3.390   3.269 -0.3060 -0.2794  0.5175
  177SAPS    HX20174   4.774   3.500   3.254  1.0493 -0.2644  0.7392
  177SAPS    HY20175   4.870   3.362   3.226  0.3081  0.4066  1.4580
  177SAPS   O3120176   4.770   3.340   3.403 -0.2159 -0.1983 -0.2468
  177SAPS   C3120177   4.705   3.411   3.487 -0.1477 -1.0313  0.5146
  177SAPS   O3220178   4.648   3.520   3.470  0.0291 -0.0859 -0.7608
  177SAPS   C3220179   4.690   3.321   3.612 -0.8636  0.8989  0.6740
  177SAPS   H2X20180   4.791   3.294   3.648 -0.1632  0.5296 -1.4725
  177SAPS   H2Y20181   4.655   3.223   3.573  1.4044  1.5081 -3.3694
  177SAPS   C2320182   4.236   3.171   3.266  0.6364 -0.4838 -0.4889
  177SAPS   H3R20183   4.250   3.082   3.201 -0.6926 -1.1799  0.1333
  177SAPS   H3S20184   4.128   3.193   3.273  0.9127  1.1246 -1.0499
  177SAPS   C2420185   4.308   3.129   3.396  0.4444  0.0093 -0.6206
  177SAPS   H4R20186   4.418   3.111   3.397  0.1345 -2.5662  1.8949
  177SAPS   H4S20187   4.263   3.029   3.415 -1.1223  1.0122  1.3187
  177SAPS   C2520188   4.275   3.224   3.508  0.4554  0.3449  0.1783
  177SAPS   H5R20189   4.296   3.331   3.497 -3.6398  1.2563 -0.4252
  177SAPS   C2620190   4.216   3.190   3.621 -0.4294 -0.2245  0.0502
  177SAPS   H6R20191   4.207   3.268   3.698  0.1006 -1.1958  1.1370
  177SAPS   C2720192   4.174   3.051   3.662 -1.5457 -0.4179 -0.9354
  177SAPS   H7R20193   4.215   3.036   3.764 -1.1004  1.9240 -0.6972
  177SAPS   H7S20194   4.231   2.970   3.611  3.3375  1.6038  0.6293
  177SAPS   C2820195   4.024   3.024   3.662  0.4807  0.0595  0.2508
  177SAPS   H8R20196   3.989   3.019   3.559 -0.0769 -0.7703  0.4706
  177SAPS   C2920197   3.936   3.043   3.759  0.2103 -0.7684  0.0939
  177SAPS   H9R20198   3.828   3.029   3.744 -0.5218 -0.3133  3.8931
  177SAPS  C21020199   3.970   3.073   3.906  0.2834 -0.8616  0.0762
  177SAPS  H10R20200   3.955   3.181   3.925 -0.3190 -0.6021 -1.6575
  177SAPS  H10S20201   4.074   3.052   3.937 -0.2145  1.7871  4.2425
  177SAPS  C21120202   3.879   3.002   3.999 -0.3869 -0.3479 -0.3906
  177SAPS  H11R20203   3.886   2.893   3.984 -0.7777 -0.4663  0.2306
  177SAPS  C21220204   3.778   3.060   4.068  0.1036 -0.1474 -0.1655
  177SAPS  H12R20205   3.716   2.993   4.129 -0.9687  0.5966 -0.4276
  177SAPS  C21320206   3.751   3.211   4.071  0.0187  0.3622 -0.6679
  177SAPS  H13R20207   3.776   3.252   3.971 -1.7995  2.5723 -0.2900
  177SAPS  H13S20208   3.818   3.259   4.146 -0.9211  1.8086 -0.7126
  177SAPS  C21420209   3.614   3.248   4.111 -0.5998 -0.0482  0.6773
  177SAPS  H14R20210   3.586   3.198   4.205  0.5059 -2.1018 -0.0063
  177SAPS  C21520211   3.541   3.326   4.032 -1.1797  0.1104  0.6741
  177SAPS  H15R20212   3.441   3.358   4.065 -0.8168  0.6741  1.2371
  177SAPS  C21620213   3.588   3.390   3.900  0.8944 -0.3005  0.4017
  177SAPS  H16R20214   3.695   3.382   3.872  0.8710 -0.0967  0.2477
  177SAPS  H16S20215   3.552   3.495   3.890 -0.3200 -0.8148 -1.0968
  177SAPS  C21720216   3.515   3.322   3.781 -0.4335 -0.1282 -0.3624
  177SAPS  H17R20217   3.407   3.348   3.786 -0.3570  0.6595 -2.0352
  177SAPS  H17S20218   3.536   3.214   3.793 -1.4592 -0.1223  2.0360
  177SAPS  C21820219   3.586   3.380   3.654  0.4501 -0.6085 -0.9878
  177SAPS  H18R20220   3.601   3.489   3.670 -0.0411 -0.9709  2.6423
  177SAPS  H18S20221   3.507   3.366   3.577  1.5567 -1.6804 -1.9658
  177SAPS  C21920222   3.707   3.307   3.603 -0.6796  0.4054 -0.3592
  177SAPS  H19R20223   3.675   3.201   3.595  1.3230 -0.2421 -0.2531
  177SAPS  H19S20224   3.795   3.312   3.670 -0.4604  4.9663 -0.6495
  177SAPS  C22020225   3.769   3.340   3.464 -0.0384 -0.6947 -0.1945
  177SAPS  H20R20226   3.760   3.450   3.450  0.1908 -0.4967  1.0934
  177SAPS  H20S20227   3.715   3.296   3.378 -0.5315 -1.8596  0.6747
  177SAPS  H20T20228   3.871   3.297   3.456  0.0325 -0.6444  0.3436
  177SAPS   C3320229   4.593   3.373   3.727  0.7422  0.1191  0.4671
  177SAPS   H3X20230   4.602   3.298   3.808  2.0577 -0.6962 -0.3973
  177SAPS   H3Y20231   4.483   3.370   3.707  0.6911 -2.8939  0.8078
  177SAPS   C3420232   4.626   3.512   3.788  0.2560  0.6410 -0.2072
  177SAPS   H4X20233   4.590   3.593   3.721  0.3337  1.5026  0.7726
  177SAPS   H4Y20234   4.737   3.511   3.789  0.3788 -2.7139 -2.5744
  177SAPS   C3520235   4.560   3.528   3.929  0.0081 -0.1335 -0.0844
  177SAPS   H5X20236   4.626   3.467   3.994  2.2345  0.6421 -1.5097
  177SAPS   H5Y20237   4.454   3.493   3.928 -0.3896  0.9860  0.3475
  177SAPS   C3620238   4.574   3.680   3.981  0.3183  0.4741 -0.0330
  177SAPS   H6X20239   4.492   3.739   3.934  0.4659  0.3246 -0.4832
  177SAPS   H6Y20240   4.671   3.723   3.951  1.4615 -1.9601 -0.0507
  177SAPS   C3720241   4.581   3.703   4.135  1.0635  0.8754  0.1535
  177SAPS   H7X20242   4.675   3.654   4.169 -0.1726 -0.8360  1.2080
  177SAPS   H7Y20243   4.490   3.664   4.185 -1.8631  5.5366 -0.9274
  177SAPS   C3820244   4.596   3.845   4.174  0.1513  0.5886  0.6533
  177SAPS   H8X20245   4.513   3.896   4.119 -1.5538 -2.3172  0.2999
  177SAPS   H8Y20246   4.689   3.886   4.131  0.3223 -0.2240  0.2232
  177SAPS   C3920247   4.581   3.846   4.328  0.3987  0.5161 -0.3301
  177SAPS   H9X20248   4.477   3.816   4.353  0.1929  1.9400  0.6646
  177SAPS   H9Y20249   4.605   3.945   4.372 -0.7567  1.4189 -1.6649
  177SAPS  C31020250   4.688   3.759   4.399 -0.2726 -0.1997  0.3555
  177SAPS  H10X20251   4.785   3.768   4.347  0.0180 -0.3459  0.8679
  177SAPS  H10Y20252   4.669   3.650   4.385 -0.2004 -0.1517 -0.1199
  177SAPS  C31120253   4.708   3.784   4.545 -0.6628 -0.0558  0.0441
  177SAPS  H11X20254   4.743   3.888   4.558  2.8331 -1.3357  2.1045
  177SAPS  H11Y20255   4.787   3.710   4.573  0.0893  1.4354  2.0815
  177SAPS  C31220256   4.580   3.754   4.620  0.5375 -0.7176  0.1632
  177SAPS  H12X20257   4.533   3.654   4.604  0.4965 -0.4257 -1.7727
  177SAPS  H12Y20258   4.507   3.832   4.590  0.2801 -0.9807  0.0997
  177SAPS  C31320259   4.595   3.779   4.770  0.0077  0.0208  0.2992
  177SAPS  H13X20260   4.627   3.885   4.775 -1.8590  0.6903 -0.9054
  177SAPS  H13Y20261   4.676   3.722   4.819 -0.1579 -2.5369 -2.1163
  177SAPS  C31420262   4.457   3.754   4.836 -0.1552 -0.2604 -1.3077
  177SAPS  H14X20263   4.473   3.754   4.946  2.4133  0.9882 -1.6006
  177SAPS  H14Y20264   4.423   3.655   4.801 -0.2933 -0.3293 -0.9823
  177SAPS  C31520265   4.356   3.859   4.802  0.5552 -0.1439 -0.0631
  177SAPS  H15X20266   4.298   3.810   4.721  1.6219 -1.8340  0.1365
  177SAPS  H15Y20267   4.408   3.950   4.767 -1.5668  1.9151  1.7901
  177SAPS  C31620268   4.263   3.901   4.919  0.0982 -0.5135  0.2147
  177SAPS  H16X20269   4.323   3.946   5.001  1.8019 -2.8049  0.3266
  177SAPS  H16Y20270   4.226   3.804   4.961 -2.7469  0.1851 -0.4604
  177SAPS  C31720271   4.147   3.994   4.879 -0.1509 -0.1253 -0.4791
  177SAPS  H17X20272   4.103   3.979   4.778 -1.9934 -2.0167  0.5279
  177SAPS  H17Y20273   4.197   4.092   4.863 -1.0572  0.8122  1.9755
  177SAPS  C31820274   4.032   4.004   4.977 -0.0116 -0.0386 -0.1518
  177SAPS  H18X20275   3.979   3.912   5.011 -2.0955  1.7866  1.9816
  177SAPS  H18Y20276   3.950   4.077   4.954 -0.0630 -0.5128 -1.6057
  177SAPS  H18Z20277   4.072   4.055   5.067  0.8323  0.7935 -0.9744
  178SAPS     N20278   2.415   0.223   2.699  0.5668 -0.0881  0.3167
  178SAPS   HN120279   2.415   0.298   2.627 -0.6912  0.4300  0.8147
  178SAPS   HN220280   2.442   0.267   2.790  0.6944  2.1621 -0.7443
  178SAPS   HN320281   2.487   0.153   2.673 -0.3533 -0.5305 -1.1442
  178SAPS   C1220282   2.280   0.167   2.703  0.1799 -0.1931  0.8133
  178SAPS  H12A20283   2.280   0.084   2.772  2.7810 -2.4894 -1.6552
  178SAPS   C1320284   2.171   0.260   2.752  0.4295 -0.3090 -0.6532
  178SAPS  O13A20285   2.176   0.386   2.760  0.0066  0.0815  0.4295
  178SAPS  O13B20286   2.068   0.210   2.795  0.2698 -0.1162  0.2065
  178SAPS   C1120287   2.244   0.111   2.561  0.0876  0.9849  0.7026
  178SAPS  H11A20288   2.236   0.195   2.488 -0.5614  0.7029  0.4496
  178SAPS  H11B20289   2.144   0.064   2.556 -0.3694  1.9192  0.8601
  178SAPS     P20290   2.345  -0.131   2.514  0.0074  0.0419  0.1213
  178SAPS   O1320291   2.203  -0.174   2.491  0.3542 -0.1414  0.0544
  178SAPS   O1420292   2.448  -0.194   2.430  0.4839  0.1936  0.0688
  178SAPS   O1220293   2.351   0.027   2.514 -0.4462  0.5629  0.3460
  178SAPS   O1120294   2.383  -0.164   2.666  0.7117  0.4935  0.2326
  178SAPS    C120295   2.274  -0.199   2.753  0.3053 -0.1733  0.4091
  178SAPS    HA20296   2.193  -0.123   2.752 -0.6985 -1.1061  3.0055
  178SAPS    HB20297   2.217  -0.281   2.704 -1.1420  0.3105  1.2364
  178SAPS    C220298   2.324  -0.238   2.893 -0.1507 -0.3298 -1.4630
  178SAPS    HS20299   2.257  -0.315   2.937  0.0140  0.3413  0.0080
  178SAPS   O2120300   2.328  -0.118   2.977  0.0477  0.7139 -0.0510
  178SAPS   C2120301   2.209  -0.061   3.012  0.7957  0.1063  0.6034
  178SAPS   O2220302   2.100  -0.095   2.961 -0.3056  0.2846 -0.4246
  178SAPS   C2220303   2.218   0.055   3.110 -0.4155  0.3725  0.2092
  178SAPS   H2R20304   2.290   0.133   3.079  1.0757 -1.6033 -1.5884
  178SAPS   H2S20305   2.127   0.116   3.129  0.6369  1.2990  2.6068
  178SAPS    C320306   2.456  -0.306   2.897  0.8668  0.5219  0.0823
  178SAPS    HX20307   2.538  -0.233   2.879  0.9528  0.4561  0.1989
  178SAPS    HY20308   2.464  -0.380   2.814 -0.3540 -0.1553  0.5478
  178SAPS   O3120309   2.486  -0.377   3.016 -0.3825  0.0612 -0.2639
  178SAPS   C3120310   2.540  -0.299   3.114  0.7616 -0.2418 -0.1295
  178SAPS   O3220311   2.564  -0.177   3.098  0.0869  0.2268 -0.1752
  178SAPS   C3220312   2.568  -0.387   3.242 -0.3134  0.5829 -0.5853
  178SAPS   H2X20313   2.653  -0.455   3.217 -1.2045 -1.1955  0.9598
  178SAPS   H2Y20314   2.473  -0.441   3.264  0.1571 -0.0355 -0.0221
  178SAPS   C2320315   2.258  -0.001   3.250 -0.8040  0.1324 -0.8545
  178SAPS   H3R20316   2.264   0.080   3.325 -0.5031 -0.9370  0.3259
  178SAPS   H3S20317   2.361  -0.042   3.247  0.0025  1.9819  0.2363
  178SAPS   C2420318   2.160  -0.105   3.302  0.3948  0.3302  0.1086
  178SAPS   H4R20319   2.198  -0.135   3.402  1.8565 -0.0652 -0.5403
  178SAPS   H4S20320   2.166  -0.188   3.229 -2.2307 -0.3224  0.5570
  178SAPS   C2520321   2.021  -0.057   3.319  0.6641 -0.4211  0.3607
  178SAPS   H5R20322   1.941  -0.083   3.248  0.3080 -1.1388  1.0133
  178SAPS   C2620323   1.982   0.023   3.422 -0.1718 -0.3785  0.9048
  178SAPS   H6R20324   1.876   0.052   3.431  0.6394  2.5445  2.0197
  178SAPS   C2720325   2.070   0.062   3.539  0.2421 -0.2459  0.0621
  178SAPS   H7R20326   2.036   0.165   3.562  2.2408  0.7791 -1.2577
  178SAPS   H7S20327   2.176   0.066   3.508  0.2711 -0.0154  0.1880
  178SAPS   C2820328   2.060  -0.033   3.655 -0.0041  0.2549  1.1288
  178SAPS   H8R20329   2.110  -0.130   3.639 -0.9458 -0.0040 -0.4579
  178SAPS   C2920330   1.999  -0.010   3.774 -0.1992 -0.2906 -0.2318
  178SAPS   H9R20331   2.006  -0.088   3.852 -0.0686  0.1683  0.2207
  178SAPS  C21020332   1.923   0.110   3.819 -0.8521 -0.4281 -0.1642
  178SAPS  H10R20333   1.893   0.179   3.737 -1.5652 -0.3449  0.1588
  178SAPS  H10S20334   1.991   0.169   3.884  0.0625 -1.0040 -0.5739
  178SAPS  C21120335   1.799   0.083   3.897 -0.2227  0.2415 -0.7326
  178SAPS  H11R20336   1.706   0.075   3.839  0.3475  1.0386 -1.7866
  178SAPS  C21220337   1.796   0.057   4.027 -0.3028  0.2547 -0.7998
  178SAPS  H12R20338   1.697   0.033   4.069  1.4196 -1.7365  2.6198
  178SAPS  C21320339   1.906   0.065   4.132 -0.4066 -0.3493 -0.6326
  178SAPS  H13R20340   1.892   0.149   4.204  2.1390  0.0420 -0.5085
  178SAPS  H13S20341   2.004   0.084   4.082  0.3007 -1.2683  0.3528
  178SAPS  C21420342   1.911  -0.061   4.203 -0.5233  0.5632  0.8030
  178SAPS  H14R20343   1.814  -0.076   4.252 -2.4349 -0.4974 -2.9216
  178SAPS  C21520344   2.010  -0.148   4.219  0.8067  0.3769  0.1526
  178SAPS  H15R20345   1.991  -0.223   4.298  0.6624  0.2006 -0.0509
  178SAPS  C21620346   2.154  -0.131   4.164 -0.3363  0.8399 -0.9986
  178SAPS  H16R20347   2.221  -0.106   4.249 -1.8542  2.0989 -0.1238
  178SAPS  H16S20348   2.171  -0.046   4.094  0.1822  0.0059 -1.9247
  178SAPS  C21720349   2.208  -0.258   4.111  0.1974  0.3163  0.2347
  178SAPS  H17R20350   2.313  -0.249   4.074 -0.1065 -0.5809 -0.9331
  178SAPS  H17S20351   2.155  -0.275   4.015 -0.8752 -0.5714  0.9669
  178SAPS  C21820352   2.211  -0.374   4.214  0.3077  0.0779  0.4190
  178SAPS  H18R20353   2.121  -0.377   4.278 -0.9568 -1.4701 -1.3121
  178SAPS  H18S20354   2.294  -0.348   4.283 -1.2655 -0.2925  2.5150
  178SAPS  C21920355   2.235  -0.511   4.156 -0.0916 -0.1811 -0.1545
  178SAPS  H19R20356   2.324  -0.510   4.089  2.1887  0.9924  2.7003
  178SAPS  H19S20357   2.147  -0.540   4.094 -1.3453  5.3581 -1.5075
  178SAPS  C22020358   2.257  -0.617   4.263 -0.4241  0.5564  0.5601
  178SAPS  H20R20359   2.357  -0.608   4.311 -0.5002  1.0662  0.6228
  178SAPS  H20S20360   2.259  -0.717   4.213  0.9026 -0.6880  2.9127
  178SAPS  H20T20361   2.183  -0.613   4.345 -4.1488 -1.8958 -2.3248
  178SAPS   C3320362   2.618  -0.303   3.369  0.4874  0.1505 -0.1546
  178SAPS   H3X20363   2.688  -0.220   3.348  1.8833 -0.2360  2.5804
  178SAPS   H3Y20364   2.676  -0.378   3.427 -0.2063 -0.0595  0.2859
  178SAPS   C3420365   2.508  -0.259   3.459  0.1790 -0.0031 -0.1263
  178SAPS   H4X20366   2.445  -0.340   3.502 -0.3818 -0.7356 -2.1804
  178SAPS   H4Y20367   2.432  -0.202   3.401 -0.9404  1.1809  2.3855
  178SAPS   C3520368   2.571  -0.164   3.564  0.1494  0.2420  0.1314
  178SAPS   H5X20369   2.614  -0.074   3.516  1.7076 -0.3703  0.3213
  178SAPS   H5Y20370   2.651  -0.218   3.619  2.0279  2.4026 -0.3319
  178SAPS   C3620371   2.472  -0.093   3.659  0.2823  0.0751 -0.3967
  178SAPS   H6X20372   2.438  -0.172   3.729  1.7422  0.2338  0.5413
  178SAPS   H6Y20373   2.389  -0.055   3.596  0.9616  1.3031 -0.5857
  178SAPS   C3720374   2.542   0.021   3.739  0.0586  0.0408  0.1926
  178SAPS   H7X20375   2.560   0.104   3.667 -0.2827  0.2074  0.2923
  178SAPS   H7Y20376   2.639  -0.013   3.780  0.7136 -0.6548 -1.8232
  178SAPS   C3820377   2.443   0.070   3.853  0.0587  0.4447 -0.3575
  178SAPS   H8X20378   2.413  -0.016   3.916 -2.5530 -0.3279 -2.4639
  178SAPS   H8Y20379   2.352   0.109   3.803  1.5577  3.0611 -1.2836
  178SAPS   C3920380   2.505   0.179   3.945  0.2447 -0.0207 -0.5101
  178SAPS   H9X20381   2.512   0.274   3.888  1.7948 -1.0510 -2.1375
  178SAPS   H9Y20382   2.604   0.140   3.977  0.7849  1.9084  0.3444
  178SAPS  C31020383   2.419   0.189   4.069 -0.6743 -0.5144 -0.1711
  178SAPS  H10X20384   2.402   0.086   4.109  1.8175 -0.4974  1.0880
  178SAPS  H10Y20385   2.317   0.226   4.042 -0.5398 -1.2788 -1.8690
  178SAPS  C31120386   2.479   0.285   4.178  0.2806  0.5662  0.2302
  178SAPS  H11X20387   2.489   0.385   4.130 -2.0022 -0.4540 -2.6716
  178SAPS  H11Y20388   2.575   0.238   4.210  1.5383  1.3041 -2.1938
  178SAPS  C31220389   2.383   0.291   4.298  0.0597 -0.1878  0.6564
  178SAPS  H12X20390   2.421   0.208   4.361 -0.2051 -0.7985  0.0275
  178SAPS  H12Y20391   2.281   0.265   4.262  0.3820  2.6348 -2.8836
  178SAPS  C31320392   2.387   0.430   4.366 -0.2907 -0.2050  0.4946
  178SAPS  H13X20393   2.327   0.509   4.318 -1.1153 -1.4917 -0.6664
  178SAPS  H13Y20394   2.493   0.463   4.369 -0.5229  0.6771 -0.4287
  178SAPS  C31420395   2.342   0.427   4.516 -0.1342  0.1969  0.5834
  178SAPS  H14X20396   2.372   0.337   4.573 -1.4490 -1.3271 -1.0139
  178SAPS  H14Y20397   2.233   0.433   4.534 -0.1962  1.3751 -0.1205
  178SAPS  C31520398   2.406   0.548   4.589  0.0405 -0.2308 -0.1669
  178SAPS  H15X20399   2.355   0.638   4.548  0.0638 -0.3404 -0.4386
  178SAPS  H15Y20400   2.513   0.552   4.558  0.0325 -2.2085 -0.5707
  178SAPS  C31620401   2.397   0.548   4.747 -0.1503  0.4941  0.2885
  178SAPS  H16X20402   2.466   0.625   4.787  0.9608 -1.4573  2.3595
  178SAPS  H16Y20403   2.430   0.450   4.786 -1.3470 -0.7500 -1.6454
  178SAPS  C31720404   2.260   0.569   4.804  0.0511  0.2044 -0.0254
  178SAPS  H17X20405   2.189   0.491   4.768  2.1436 -1.9716  0.3205
  178SAPS  H17Y20406   2.225   0.671   4.777 -2.2179 -0.5486 -0.1348
  178SAPS  C31820407   2.253   0.567   4.959 -0.2575 -0.2502 -0.1820
  178SAPS  H18X20408   2.288   0.466   4.988  3.3143  0.2660 -2.1993
  178SAPS  H18Y20409   2.157   0.582   5.013  1.0043  0.7121  1.8958
  178SAPS  H18Z20410   2.331   0.634   5.002  0.9028 -2.5346  1.4643
  179SAPS     N20411   3.146   3.988   2.853  0.3033  0.6337 -0.4748
  179SAPS   HN120412   3.134   3.885   2.839 -1.1317  0.6520  0.4683
  179SAPS   HN220413   3.219   4.005   2.926 -1.9251  0.6481  1.8967
  179SAPS   HN320414   3.054   4.027   2.883  0.8123  2.2696 -0.9383
  179SAPS   C1220415   3.181   4.042   2.725 -0.3662 -0.3313 -0.2044
  179SAPS  H12A20416   3.286   4.022   2.709  0.1907  2.9544 -1.4925
  179SAPS   C1320417   3.122   3.978   2.595 -0.0502  0.1619  0.4470
  179SAPS  O13A20418   3.013   3.909   2.611  0.1864 -0.0352 -0.6560
  179SAPS  O13B20419   3.160   4.021   2.480 -0.5910 -0.0354 -0.5995
  179SAPS   C1120420   3.169   4.196   2.729  0.2067 -0.3791 -0.6135
  179SAPS  H11A20421   3.182   4.234   2.625 -0.7794  1.9692  0.0450
  179SAPS  H11B20422   3.252   4.232   2.793  1.1061 -1.1955 -1.2939
  179SAPS     P20423   2.998   4.375   2.807 -0.1280 -0.1070 -0.0644
  179SAPS   O1320424   2.997   4.446   2.674 -0.0151  0.2152  0.1129
  179SAPS   O1420425   2.877   4.384   2.889 -0.0371 -0.0815  0.2507
  179SAPS   O1220426   3.035   4.227   2.776  0.0985 -0.3837  0.0373
  179SAPS   O1120427   3.122   4.427   2.893 -0.3405 -0.2992  0.5568
  179SAPS    C120428   3.147   4.369   3.026  0.3843  1.3227  0.9771
  179SAPS    HA20429   3.070   4.294   3.056 -0.2848  0.8227 -1.6849
  179SAPS    HB20430   3.247   4.321   3.022 -0.3023 -0.1127 -2.1324
  179SAPS    C220431   3.139   4.477   3.139 -0.3812  0.2730  0.0457
  179SAPS    HS20432   3.242   4.520   3.143  0.0929 -0.4738 -2.2677
  179SAPS   O2120433   3.115   4.414   3.265  0.6074 -0.0151  0.0604
  179SAPS   C2120434   3.212   4.330   3.305 -0.1195 -0.5585 -0.1098
  179SAPS   O2220435   3.314   4.301   3.243 -0.3570  0.0582  0.0522
  179SAPS   C2220436   3.155   4.256   3.423 -0.5672  0.2811 -0.3828
  179SAPS   H2R20437   3.068   4.316   3.461 -2.3219 -1.7266 -1.0476
  179SAPS   H2S20438   3.106   4.160   3.395  0.4570 -0.3629  0.0115
  179SAPS    C320439   3.028   4.582   3.112 -0.4124  0.4806  0.0684
  179SAPS    HX20440   2.936   4.536   3.069 -0.9364 -0.3363  1.9487
  179SAPS    HY20441   3.078   4.637   3.030  0.5692 -0.6075 -0.0940
  179SAPS   O3120442   3.005   4.677   3.218 -1.0931 -0.2994  0.0095
  179SAPS   C3120443   2.930   4.653   3.322 -0.1366  0.1829  0.2112
  179SAPS   O3220444   2.861   4.549   3.339 -0.3864 -0.9000  0.0843
  179SAPS   C3220445   2.916   4.779   3.411  0.0006  0.4861  0.1017
  179SAPS   H2X20446   2.807   4.795   3.423  0.1057  0.6065  0.9705
  179SAPS   H2Y20447   2.950   4.871   3.359 -0.2616  0.3558 -0.3037
  179SAPS   C2320448   3.260   4.234   3.538  0.1002 -0.5786  0.6318
  179SAPS   H3R20449   3.322   4.324   3.556  1.5389 -1.1927 -0.9984
  179SAPS   H3S20450   3.327   4.161   3.488 -1.3320  0.2478 -2.7388
  179SAPS   C2420451   3.199   4.185   3.667 -0.4994 -0.4690 -0.6049
  179SAPS   H4R20452   3.286   4.161   3.733 -2.4417 -0.3553  2.1488
  179SAPS   H4S20453   3.156   4.083   3.662 -0.4630 -0.5354  0.2084
  179SAPS   C2520454   3.108   4.278   3.738  0.4693 -0.6014 -0.2032
  179SAPS   H5R20455   3.028   4.314   3.671  1.0150 -0.0108 -0.5497
  179SAPS   C2620456   3.103   4.324   3.865  0.1069  0.0179  0.4073
  179SAPS   H6R20457   3.017   4.382   3.902  1.8065  1.9102  1.6148
  179SAPS   C2720458   3.192   4.266   3.980  0.4232 -0.2155 -0.3865
  179SAPS   H7R20459   3.221   4.348   4.050 -0.8329  2.2016 -2.5148
  179SAPS   H7S20460   3.282   4.215   3.939 -0.0855 -3.4732  2.2041
  179SAPS   C2820461   3.123   4.165   4.057 -0.5197  0.1550 -0.1109
  179SAPS   H8R20462   3.033   4.128   4.006 -1.1315  1.0338  0.2966
  179SAPS   C2920463   3.152   4.142   4.191 -0.0798 -0.2866 -0.1729
  179SAPS   H9R20464   3.084   4.081   4.253  0.0486  0.3434  0.6000
  179SAPS  C21020465   3.265   4.211   4.271 -0.2167 -0.5281  0.6519
  179SAPS  H10R20466   3.239   4.315   4.301  0.5303 -0.8959  2.7666
  179SAPS  H10S20467   3.366   4.225   4.226  0.3005  2.1741  2.3968
  179SAPS  C21120468   3.292   4.146   4.406  0.5607 -0.7845  0.1186
  179SAPS  H11R20469   3.380   4.080   4.409  1.0116 -0.2007 -0.0801
  179SAPS  C21220470   3.217   4.165   4.515  0.6199 -0.8422 -0.4361
  179SAPS  H12R20471   3.250   4.111   4.604  1.6388  0.2769 -0.1065
  179SAPS  C21320472   3.091   4.250   4.528 -0.1924  0.4965 -0.2552
  179SAPS  H13R20473   3.074   4.285   4.424 -1.5287 -0.6622 -0.4598
  179SAPS  H13S20474   3.109   4.336   4.596  1.9376  0.3085 -0.5088
  179SAPS  C21420475   2.984   4.163   4.578 -0.3281  0.4618 -0.6777
  179SAPS  H14R20476   2.933   4.104   4.500  0.2920  0.2721 -0.9422
  179SAPS  C21520477   2.935   4.160   4.705  0.5812 -0.4140  0.2964
  179SAPS  H15R20478   2.846   4.099   4.725  0.4514  0.2131  1.7249
  179SAPS  C21620479   2.980   4.243   4.824 -0.0404  0.5427  0.6102
  179SAPS  H16R20480   2.894   4.249   4.894 -0.7813 -0.7312 -0.1594
  179SAPS  H16S20481   3.004   4.345   4.787  0.7359 -0.5621 -2.1189
  179SAPS  C21720482   3.106   4.190   4.886 -1.2787  0.2823 -0.2095
  179SAPS  H17R20483   3.153   4.266   4.951 -0.7150  2.0662 -2.5462
  179SAPS  H17S20484   3.189   4.172   4.814 -0.3468 -0.5171  1.0205
  179SAPS  C21820485   3.080   4.069   4.966  0.5202  0.0835  0.0728
  179SAPS  H18R20486   3.174   4.015   4.991 -0.5732 -1.1752  1.7687
  179SAPS  H18S20487   3.018   3.989   4.919  0.4311 -0.3397  0.8995
  179SAPS  C21920488   2.998   4.091   5.093  0.0052  0.7102 -0.0857
  179SAPS  H19R20489   2.969   3.989   5.125  2.0595 -0.4282 -1.6268
  179SAPS  H19S20490   2.907   4.153   5.074 -0.9174  0.0739  1.9618
  179SAPS  C22020491   3.082   4.146   5.209 -0.1396  0.6416  0.4399
  179SAPS  H20R20492   3.147   4.067   5.254 -0.9944 -1.7060 -2.1173
  179SAPS  H20S20493   3.019   4.185   5.292  0.1483 -0.4060  1.1818
  179SAPS  H20T20494   3.149   4.223   5.166 -0.2691  1.2017  1.2374
  179SAPS   C3320495   2.993   4.756   3.539 -0.0963  0.3115  0.4626
  179SAPS   H3X20496   3.064   4.839   3.561 -1.8946  1.5967  1.7061
  179SAPS   H3Y20497   3.066   4.673   3.527 -0.4886  0.3294 -3.1930
  179SAPS   C3420498   2.903   4.719   3.651  0.4281  0.0794  0.1161
  179SAPS   H4X20499   2.841   4.627   3.635  0.6103 -0.4020  2.0050
  179SAPS   H4Y20500   2.828   4.801   3.656  1.1368  0.6832  0.9228
  179SAPS   C3520501   2.979   4.708   3.779 -0.2880  0.6194 -0.2022
  179SAPS   H5X20502   3.021   4.807   3.808 -0.3677 -0.0460  2.4219
  179SAPS   H5Y20503   3.058   4.630   3.777 -1.8708 -1.0450 -0.4210
  179SAPS   C3620504   2.891   4.661   3.904  0.3940 -0.2444 -0.2378
  179SAPS   H6X20505   2.863   4.553   3.907  0.1755 -0.1741  2.0264
  179SAPS   H6Y20506   2.796   4.718   3.914  0.4844 -0.4430  2.5748
  179SAPS   C3720507   2.957   4.676   4.044  0.6841 -0.3980 -0.2574
  179SAPS   H7X20508   2.967   4.786   4.056  2.2244 -0.5567  0.1195
  179SAPS   H7Y20509   3.059   4.634   4.031  0.3902 -2.5977  3.3342
  179SAPS   C3820510   2.869   4.614   4.156  0.0592 -0.0516  0.8617
  179SAPS   H8X20511   2.873   4.503   4.147  1.4279  0.0125  0.5341
  179SAPS   H8Y20512   2.768   4.656   4.133 -0.0875 -0.0500  1.4918
  179SAPS   C3920513   2.891   4.658   4.301 -0.3242 -0.1682  0.4860
  179SAPS   H9X20514   2.796   4.642   4.356 -0.4570 -0.5540  0.1555
  179SAPS   H9Y20515   2.912   4.767   4.309 -2.3011  0.3515 -0.6695
  179SAPS  C31020516   3.015   4.585   4.363 -0.0788  0.0557 -0.9405
  179SAPS  H10X20517   3.086   4.566   4.280 -0.9944  0.8410 -1.9167
  179SAPS  H10Y20518   2.987   4.484   4.400 -2.4687  1.2929  0.9078
  179SAPS  C31120519   3.082   4.663   4.482 -0.1364 -0.1913 -0.4162
  179SAPS  H11X20520   3.098   4.771   4.460 -0.9303  0.1925  0.8005
  179SAPS  H11Y20521   3.177   4.613   4.510 -0.1682  0.9887  2.0832
  179SAPS  C31220522   2.995   4.662   4.608 -0.0394  0.6894 -0.3730
  179SAPS  H12X20523   2.967   4.557   4.631  2.5211 -0.1962 -1.0293
  179SAPS  H12Y20524   2.904   4.724   4.590 -0.1585  1.3572  2.1114
  179SAPS  C31320525   3.064   4.718   4.735  0.1352  0.3133 -0.0958
  179SAPS  H13X20526   3.153   4.654   4.754 -0.8186 -0.7056  1.1409
  179SAPS  H13Y20527   2.996   4.703   4.821  0.0902 -1.5446 -0.4166
  179SAPS  C31420528   3.115   4.864   4.722  0.1476  0.3097  0.2681
  179SAPS  H14X20529   3.043   4.923   4.661  0.5670 -0.1154 -0.6750
  179SAPS  H14Y20530   3.218   4.858   4.679  0.0666  1.7544 -0.1523
  179SAPS  C31520531   3.122   4.938   4.855  0.6669  0.0975  1.0632
  179SAPS  H15X20532   3.182   5.031   4.842  0.0212  0.4097  0.2677
  179SAPS  H15Y20533   3.161   4.876   4.938  0.4110 -0.6588  0.6303
  179SAPS  C31620534   2.981   4.983   4.906 -0.7200 -0.7894 -0.1326
  179SAPS  H16X20535   2.907   4.901   4.920 -1.3262 -0.2009  0.1495
  179SAPS  H16Y20536   2.939   5.053   4.830 -2.1514 -1.4535  0.0079
  179SAPS  C31720537   3.005   5.080   5.031 -0.6766  1.1607  0.3565
  179SAPS  H17X20538   3.060   5.168   4.990 -2.9389  2.2264 -0.5576
  179SAPS  H17Y20539   3.071   5.035   5.108 -0.0381  0.6690 -0.4598
  179SAPS  C31820540   2.884   5.139   5.110  0.4062  0.2186  0.0764
  179SAPS  H18X20541   2.920   5.165   5.211  0.5999 -0.7523  0.2730
  179SAPS  H18Y20542   2.800   5.065   5.105  1.1163 -0.5398 -1.3804
  179SAPS  H18Z20543   2.845   5.229   5.058 -2.2965 -1.1264 -0.4402
  180SAPS     N20544   3.894   3.122   2.681  0.6721 -0.0290  0.7859
  180SAPS   HN120545   3.927   3.126   2.780  0.4628  1.2077  0.8277
  180SAPS   HN220546   3.861   3.030   2.646  1.3365  0.6520 -1.8404
  180SAPS   HN320547   3.983   3.141   2.632  0.5528  0.9053  0.8966
  180SAPS   C1220548   3.794   3.232   2.641 -0.2555  0.4221 -0.4074
  180SAPS  H12A20549   3.848   3.323   2.619 -1.7491  0.8059 -2.9593
  180SAPS   C1320550   3.732   3.213   2.501  0.4824  0.7794 -0.1444
  180SAPS  O13A20551   3.774   3.116   2.431  0.7685  0.1605 -0.2321
  180SAPS  O13B20552   3.681   3.314   2.447  0.3178  0.4738  0.1875
  180SAPS   C1120553   3.680   3.252   2.751  0.3015 -0.3086 -0.0568
  180SAPS  H11A20554   3.657   3.145   2.774  1.7531 -0.7022 -0.3264
  180SAPS  H11B20555   3.586   3.284   2.703 -0.9380 -3.0721  0.3059
  180SAPS     P20556   3.746   3.465   2.849 -0.0828 -0.4750  0.4717
  180SAPS   O1320557   3.880   3.467   2.778  0.5692 -0.5115  0.0472
  180SAPS   O1420558   3.632   3.530   2.782  0.6708  0.5539 -0.0540
  180SAPS   O1220559   3.721   3.317   2.870  0.1799  0.1494  0.1746
  180SAPS   O1120560   3.756   3.523   3.003  0.2145 -0.7794  0.6995
  180SAPS    C120561   3.652   3.499   3.095  0.1351  0.2594  0.7627
  180SAPS    HA20562   3.618   3.396   3.071  2.5823 -0.4385 -0.0339
  180SAPS    HB20563   3.697   3.493   3.196  1.1362  0.5691  0.3511
  180SAPS    C220564   3.542   3.610   3.101 -0.2342  0.8233  1.2413
  180SAPS    HS20565   3.544   3.635   2.993  2.6839 -0.8683  0.7652
  180SAPS   O2120566   3.598   3.721   3.166  0.4751 -0.0042 -0.1711
  180SAPS   C2120567   3.527   3.828   3.186  0.4819 -0.2827  0.3305
  180SAPS   O2220568   3.409   3.844   3.165 -0.3492 -0.3114 -0.3673
  180SAPS   C2220569   3.615   3.922   3.270 -0.6111  0.5126  0.2404
  180SAPS   H2R20570   3.701   3.865   3.313 -0.3317  1.1381  0.5304
  180SAPS   H2S20571   3.654   3.995   3.196 -1.0506 -0.8544 -1.4088
  180SAPS    C320572   3.402   3.565   3.148  0.4757 -0.5260  0.4676
  180SAPS    HX20573   3.383   3.458   3.122  0.2933 -0.3524 -0.1509
  180SAPS    HY20574   3.334   3.620   3.079  2.5727 -0.6393 -1.8243
  180SAPS   O3120575   3.379   3.598   3.284  0.2147 -0.0488 -0.4877
  180SAPS   C3120576   3.335   3.508   3.369 -0.2889 -0.5463 -0.2899
  180SAPS   O3220577   3.302   3.395   3.345 -0.2574  0.3210 -0.0893
  180SAPS   C3220578   3.319   3.582   3.513  0.0247  0.2902  0.8597
  180SAPS   H2X20579   3.272   3.680   3.489 -0.1891  0.0371  0.2210
  180SAPS   H2Y20580   3.423   3.594   3.550  0.6888  2.3191 -1.3670
  180SAPS   C2320581   3.535   3.997   3.374 -0.3843 -0.4462  0.7590
  180SAPS   H3R20582   3.450   4.046   3.321  1.3344  1.8322 -0.0719
  180SAPS   H3S20583   3.595   4.083   3.410  1.9076 -0.6790 -2.2058
  180SAPS   C2420584   3.487   3.907   3.492  0.7003  0.1371 -0.3269
  180SAPS   H4R20585   3.406   3.840   3.456 -0.6817  1.5679  0.0437
  180SAPS   H4S20586   3.442   3.979   3.563 -1.4429 -1.0217 -0.4498
  180SAPS   C2520587   3.596   3.830   3.562  0.2889 -1.1434 -0.8320
  180SAPS   H5R20588   3.632   3.736   3.518  0.5489 -1.6930  0.5344
  180SAPS   C2620589   3.636   3.843   3.688 -0.3992 -0.6486 -0.2236
  180SAPS   H6R20590   3.719   3.782   3.726 -0.2630  0.1806  0.8613
  180SAPS   C2720591   3.592   3.959   3.785 -0.2302  0.1364 -0.5492
  180SAPS   H7R20592   3.482   3.968   3.799 -0.4577  0.8922 -2.5222
  180SAPS   H7S20593   3.607   4.063   3.748  2.8599  1.2943  3.2815
  180SAPS   C2820594   3.651   3.930   3.920  0.0664  0.4699 -0.2087
  180SAPS   H8R20595   3.683   3.826   3.935 -1.2140  0.0145 -0.4676
  180SAPS   C2920596   3.673   4.025   4.009  0.0179 -0.0207  0.5578
  180SAPS   H9R20597   3.723   4.007   4.106  0.1787  1.9470  0.8869
  180SAPS  C21020598   3.634   4.165   3.995  0.5639  0.2421  0.4376
  180SAPS  H10R20599   3.532   4.181   3.954  0.5683  0.8473  0.6520
  180SAPS  H10S20600   3.703   4.215   3.924 -0.8988  1.9849  0.1506
  180SAPS  C21120601   3.618   4.250   4.116  0.2738 -0.2863  0.2230
  180SAPS  H11R20602   3.526   4.309   4.110  0.3245  0.0453  2.1442
  180SAPS  C21220603   3.699   4.272   4.223  0.7173 -0.0616 -0.1402
  180SAPS  H12R20604   3.667   4.344   4.300  0.9380 -0.1179  0.0072
  180SAPS  C21320605   3.835   4.216   4.252 -0.1308  0.5451  0.5831
  180SAPS  H13R20606   3.909   4.282   4.202  1.1524 -0.7937  0.6352
  180SAPS  H13S20607   3.851   4.122   4.194 -3.2011  0.9480 -1.1108
  180SAPS  C21420608   3.867   4.177   4.395 -0.0238 -0.1583  0.3657
  180SAPS  H14R20609   3.837   4.079   4.435  0.0391 -0.9721 -1.4587
  180SAPS  C21520610   3.927   4.264   4.481  0.4548  0.7505  0.2514
  180SAPS  H15R20611   3.954   4.226   4.581  2.8046 -1.1579 -1.0070
  180SAPS  C21620612   3.954   4.407   4.458  0.0213  0.0889  0.1253
  180SAPS  H16R20613   3.917   4.458   4.366 -0.3080  1.3378  0.9077
  180SAPS  H16S20614   4.063   4.425   4.445 -0.3937  1.4150 -2.1299
  180SAPS  C21720615   3.904   4.493   4.577 -0.4914  0.2223 -0.0117
  180SAPS  H17R20616   3.795   4.474   4.580 -0.5201  0.0547 -1.4665
  180SAPS  H17S20617   3.924   4.601   4.561 -0.0852  0.2511  0.6782
  180SAPS  C21820618   3.966   4.454   4.711  0.2688 -0.0197 -0.1568
  180SAPS  H18R20619   4.075   4.477   4.703 -0.1545  1.7820 -1.1149
  180SAPS  H18S20620   3.955   4.346   4.738  1.2122 -0.3819 -1.1108
  180SAPS  C21920621   3.900   4.518   4.832  0.0153  0.3789 -0.7276
  180SAPS  H19R20622   3.797   4.481   4.848  0.3296 -1.0270 -1.6878
  180SAPS  H19S20623   3.889   4.628   4.820  0.5906  1.0715  3.5305
  180SAPS  C22020624   3.992   4.498   4.955  0.0809  0.2216  0.7759
  180SAPS  H20R20625   4.094   4.534   4.933  0.9967  0.8426  5.1548
  180SAPS  H20S20626   3.951   4.566   5.033  0.0924  0.1691  0.8275
  180SAPS  H20T20627   3.986   4.394   4.993 -0.5320 -0.2437 -0.5260
  180SAPS   C3320628   3.211   3.510   3.601  0.1935 -0.4165 -0.0428
  180SAPS   H3X20629   3.262   3.416   3.632  1.1806 -0.3671 -1.4246
  180SAPS   H3Y20630   3.121   3.480   3.544 -0.5802  3.7733 -1.3700
  180SAPS   C3420631   3.151   3.597   3.710  0.7709 -0.2137 -0.1415
  180SAPS   H4X20632   3.079   3.537   3.770 -1.0090 -0.0064 -1.9689
  180SAPS   H4Y20633   3.086   3.668   3.654  1.1254  1.3737  1.3916
  180SAPS   C3520634   3.252   3.651   3.809  0.0715 -0.3100  0.2887
  180SAPS   H5X20635   3.302   3.732   3.751 -0.7288 -0.2239 -0.3019
  180SAPS   H5Y20636   3.324   3.574   3.843 -0.9642 -0.8715  1.2510
  180SAPS   C3620637   3.184   3.713   3.931  0.9785 -0.2486  0.4732
  180SAPS   H6X20638   3.161   3.637   4.009  3.1993 -2.3224 -0.7467
  180SAPS   H6Y20639   3.085   3.762   3.918  0.5548 -0.8363  1.3760
  180SAPS   C3720640   3.277   3.812   3.998  0.0970 -0.5112 -0.5432
  180SAPS   H7X20641   3.219   3.888   4.055 -1.8281 -2.4348  0.1796
  180SAPS   H7Y20642   3.328   3.860   3.912 -1.5282  0.5837 -0.9490
  180SAPS   C3820643   3.388   3.740   4.079  0.5529 -0.6433 -0.4430
  180SAPS   H8X20644   3.459   3.702   4.002 -0.3269  0.3167 -1.7791
  180SAPS   H8Y20645   3.342   3.658   4.137  1.3321 -1.4480 -0.9322
  180SAPS   C3920646   3.446   3.824   4.195 -0.4851 -0.5646 -0.0561
  180SAPS   H9X20647   3.367   3.836   4.272 -0.1349 -0.5293  0.2966
  180SAPS   H9Y20648   3.471   3.923   4.151  1.4469 -1.5321 -1.2848
  180SAPS  C31020649   3.570   3.765   4.260  0.0700 -0.1631 -0.5908
  180SAPS  H10X20650   3.647   3.761   4.181 -1.5692 -0.2110 -2.2709
  180SAPS  H10Y20651   3.525   3.668   4.290 -2.4508  1.2998  0.7269
  180SAPS  C31120652   3.620   3.836   4.390  0.2056  0.7363  0.5231
  180SAPS  H11X20653   3.612   3.946   4.376 -0.0062  0.6154 -0.3401
  180SAPS  H11Y20654   3.730   3.818   4.393  0.5264  2.3741 -0.3003
  180SAPS  C31220655   3.551   3.800   4.523  0.1443 -0.2071  0.1237
  180SAPS  H12X20656   3.617   3.723   4.570  0.7454 -0.8613 -1.6889
  180SAPS  H12Y20657   3.451   3.761   4.493 -0.1489  0.9809 -0.5036
  180SAPS  C31320658   3.527   3.910   4.629 -0.1003  0.5561 -0.3258
  180SAPS  H13X20659   3.473   4.001   4.595 -0.5526  1.4739  2.5643
  180SAPS  H13Y20660   3.626   3.940   4.670 -0.6755 -0.0785  1.6719
  180SAPS  C31420661   3.457   3.845   4.756 -0.2612 -0.4732 -0.2643
  180SAPS  H14X20662   3.379   3.776   4.717 -0.0884 -1.1453  0.5369
  180SAPS  H14Y20663   3.410   3.924   4.818  1.8863  0.5760  0.1016
  180SAPS  C31520664   3.553   3.781   4.854 -0.6920 -0.2276 -0.5190
  180SAPS  H15X20665   3.623   3.854   4.902 -0.2859 -0.3918 -0.8621
  180SAPS  H15Y20666   3.616   3.708   4.800 -0.5855 -0.2627 -0.3500
  180SAPS  C31620667   3.483   3.697   4.966 -0.8465  0.2839 -0.1420
  180SAPS  H16X20668   3.564   3.634   5.009 -0.6587  1.4814  1.3637
  180SAPS  H16Y20669   3.400   3.636   4.925  0.1044 -1.0588 -0.1356
  180SAPS  C31720670   3.415   3.779   5.071  0.2566 -0.2040 -0.7864
  180SAPS  H17X20671   3.359   3.716   5.143  1.6764  1.7163  2.1668
  180SAPS  H17Y20672   3.338   3.845   5.026  0.2862  1.3934  1.3531
  180SAPS  C31820673   3.504   3.863   5.159  0.1501 -0.2570 -0.5654
  180SAPS  H18X20674   3.582   3.808   5.216  0.2007  0.5808  0.2031
  180SAPS  H18Y20675   3.439   3.910   5.235  0.3094 -1.9934  0.7012
  180SAPS  H18Z20676   3.553   3.943   5.099  0.5074 -0.7589 -0.9535
  181POPC     N20677   3.515   2.780   7.178  0.7775  0.1647 -0.1826
  181POPC   C1220678   3.371   2.719   7.202  0.0584  0.0840 -0.0113
  181POPC  H12A20679   3.328   2.776   7.283  0.4552  0.2415  0.0898
  181POPC  H12B20680   3.387   2.614   7.223 -0.3673  0.2119  0.9911
  181POPC   C1320681   3.590   2.733   7.062  0.0364  0.2626  0.2695
  181POPC  H13A20682   3.602   2.626   7.071  1.4723  0.2239 -1.4101
  181POPC  H13B20683   3.533   2.748   6.971  1.6959 -0.2212 -0.9035
  181POPC  H13C20684   3.691   2.764   7.042  0.2427 -1.0076 -0.8074
  181POPC   C1420685   3.504   2.931   7.177  0.1916  0.2807 -0.0060
  181POPC  H14A20686   3.440   2.959   7.260  0.6642  4.6250 -0.8610
  181POPC  H14B20687   3.598   2.981   7.187 -1.0447  2.7861 -0.1213
  181POPC  H14C20688   3.448   2.961   7.089  1.1532  1.3580 -0.2827
  181POPC   C1520689   3.595   2.744   7.301  0.0127 -0.8727  1.1452
  181POPC  H15A20690   3.626   2.641   7.304  0.5598 -0.8046 -0.9591
  181POPC  H15B20691   3.532   2.754   7.388 -1.1583  1.3476  0.1285
  181POPC  H15C20692   3.685   2.804   7.308 -0.0981 -0.4439 -0.6085
  181POPC   C1120693   3.265   2.738   7.085  0.5337  0.0655  0.1109
  181POPC  H11A20694   3.178   2.680   7.122  0.9788 -0.5104  0.2779
  181POPC  H11B20695   3.299   2.691   6.990 -0.4090 -2.5704  0.9916
  181POPC     P20696   3.136   2.948   7.181 -0.1122  0.1417  0.0634
  181POPC   O1320697   3.100   3.084   7.141  0.0508  0.1198  0.5130
  181POPC   O1420698   3.191   2.929   7.320  0.1929  0.7296  0.2594
  181POPC   O1220699   3.230   2.882   7.074 -0.0560  0.6064 -0.2809
  181POPC   O1120700   3.004   2.859   7.165 -0.5509  0.5087  0.2394
  181POPC    C120701   2.907   2.891   7.070 -0.5758 -0.4718  0.4203
  181POPC    HA20702   2.942   2.952   6.984 -0.7214 -2.4719 -1.1200
  181POPC    HB20703   2.819   2.925   7.129  0.3872  0.5049  1.3369
  181POPC    C220704   2.854   2.760   7.006 -0.2102 -0.2357  0.8888
  181POPC    HS20705   2.948   2.710   6.972 -1.0854 -0.7667 -0.8828
  181POPC   O2120706   2.761   2.788   6.901 -0.0844  0.5429 -0.5753
  181POPC   C2120707   2.824   2.827   6.788  0.0763  0.1536 -0.7085
  181POPC   O2220708   2.943   2.809   6.769 -0.3218  0.1910  0.0587
  181POPC   C2220709   2.720   2.889   6.688  0.1860 -0.3856 -0.5503
  181POPC   H2R20710   2.685   2.991   6.716  0.5876 -0.1749 -0.7971
  181POPC   H2S20711   2.626   2.831   6.678 -0.3806  0.5713 -1.0423
  181POPC    C320712   2.791   2.655   7.092  0.6946 -0.1188 -0.4129
  181POPC    HX20713   2.722   2.708   7.160 -2.4806 -2.8260 -1.2709
  181POPC    HY20714   2.871   2.607   7.152 -0.4371  1.2722  2.3839
  181POPC   O3120715   2.712   2.560   7.016  0.4500  0.0707  0.0902
  181POPC   C3120716   2.765   2.449   6.988  0.5463  0.3906 -0.5841
  181POPC   O3220717   2.878   2.409   7.021 -0.5889  0.6788 -0.0267
  181POPC   C3220718   2.655   2.363   6.914 -0.9354  0.5096 -0.6429
  181POPC   H2X20719   2.564   2.348   6.975 -1.0801  1.6941 -0.5403
  181POPC   H2Y20720   2.695   2.264   6.882 -0.3413  0.8916 -1.0974
  181POPC   C2320721   2.785   2.907   6.552 -0.2563 -1.0435  0.1256
  181POPC   H3R20722   2.817   2.809   6.510  0.1486 -0.5356 -0.7751
  181POPC   H3S20723   2.870   2.978   6.556 -0.4431 -0.8308  0.3388
  181POPC   C2420724   2.678   2.964   6.459  0.0780 -0.3309  0.1444
  181POPC   H4R20725   2.641   3.061   6.501 -0.7790 -1.7458  2.8505
  181POPC   H4S20726   2.590   2.898   6.447 -1.1864  1.5961 -2.5374
  181POPC   C2520727   2.736   3.006   6.321  0.3539 -0.0976 -0.2966
  181POPC   H5R20728   2.760   2.912   6.267 -1.7653 -0.3044 -0.9399
  181POPC   H5S20729   2.829   3.060   6.350  0.0090  1.0843 -1.3360
  181POPC   C2620730   2.646   3.102   6.245 -0.0421  0.1542  0.9087
  181POPC   H6R20731   2.642   3.206   6.283 -0.1556  1.0337 -1.3602
  181POPC   H6S20732   2.542   3.065   6.233  0.2494 -0.0905 -1.4978
  181POPC   C2720733   2.699   3.109   6.102 -0.1264  0.1703  0.0748
  181POPC   H7R20734   2.674   3.014   6.050 -1.5286 -0.4406  1.7810
  181POPC   H7S20735   2.809   3.122   6.097 -0.1980  1.2925  1.0338
  181POPC   C2820736   2.646   3.224   6.019  0.7012  0.4240 -0.4323
  181POPC   H8R20737   2.683   3.321   6.058  0.4675  0.4483 -0.2691
  181POPC   H8S20738   2.536   3.214   6.016  0.9264 -3.4110 -3.4043
  181POPC   C2920739   2.684   3.220   5.877 -0.0121 -0.4478 -0.3618
  181POPC   H9120740   2.788   3.185   5.868 -0.3709 -2.0926  1.3169
  181POPC  C21020741   2.617   3.262   5.766 -0.5394 -0.3849  0.5284
  181POPC  H10120742   2.669   3.241   5.671  1.2926  0.7068  1.2363
  181POPC  C21120743   2.475   3.319   5.758 -0.9619 -0.2040 -0.3360
  181POPC  H11R20744   2.459   3.399   5.833  0.9821  1.0142 -1.1422
  181POPC  H11S20745   2.405   3.233   5.766 -0.7178 -0.4547 -0.9029
  181POPC  C21220746   2.449   3.374   5.622 -0.4536  0.1875  0.3395
  181POPC  H12R20747   2.523   3.448   5.584 -1.6448  1.1362 -0.2074
  181POPC  H12S20748   2.361   3.440   5.635 -0.1543  0.6887 -0.1219
  181POPC  C21320749   2.421   3.274   5.512 -0.3384 -0.3064  1.1677
  181POPC  H13R20750   2.342   3.210   5.556 -2.6017  1.5577  0.0308
  181POPC  H13S20751   2.509   3.210   5.488  1.3635  2.0515  0.8142
  181POPC  C21420752   2.370   3.341   5.381  0.4548  0.3531 -0.2253
  181POPC  H14R20753   2.464   3.394   5.353  1.5946 -0.1425  2.3870
  181POPC  H14S20754   2.298   3.414   5.422  1.6586  0.5296  1.7041
  181POPC  C21520755   2.301   3.236   5.287  0.6765  0.2093 -0.5541
  181POPC  H15R20756   2.234   3.285   5.213 -0.3775  0.8183  0.7704
  181POPC  H15S20757   2.233   3.189   5.359  1.5248  1.1590  0.9230
  181POPC  C21620758   2.392   3.121   5.241 -0.5424  0.1951 -0.6523
  181POPC  H16R20759   2.328   3.033   5.217 -0.3774 -0.3828  0.9335
  181POPC  H16S20760   2.468   3.088   5.315 -0.6422 -0.1377 -0.6965
  181POPC  C21720761   2.470   3.145   5.108 -0.2352 -0.5758 -0.3206
  181POPC  H17R20762   2.521   3.243   5.105  1.3191 -1.3724 -1.3491
  181POPC  H17S20763   2.388   3.137   5.033  1.7875 -0.0069 -2.7202
  181POPC  C21820764   2.565   3.024   5.081 -0.6679 -0.4215  0.2971
  181POPC  H18R20765   2.521   2.925   5.105 -1.9888 -0.6799 -2.7690
  181POPC  H18S20766   2.654   3.036   5.147 -0.0976  2.0184 -0.8231
  181POPC  H18T20767   2.598   3.013   4.975  2.1980  0.4609  0.9971
  181POPC   C3320768   2.614   2.436   6.790 -0.8810  0.2062  0.1782
  181POPC   H3X20769   2.590   2.544   6.800 -2.4878  0.1839 -2.3433
  181POPC   H3Y20770   2.526   2.378   6.756  0.6150 -1.3653 -1.1949
  181POPC   C3420771   2.729   2.441   6.682 -0.3486  0.5292  0.2924
  181POPC   H4X20772   2.786   2.348   6.659  0.8386  1.4182 -0.5272
  181POPC   H4Y20773   2.813   2.504   6.718 -0.5782  1.0251 -0.0425
  181POPC   C3520774   2.674   2.481   6.545  0.1306  0.5415  0.6363
  181POPC   H5X20775   2.607   2.569   6.554  1.0173  1.2479  0.5610
  181POPC   H5Y20776   2.613   2.401   6.500  0.0492  1.4190 -0.8658
  181POPC   C3620777   2.784   2.515   6.446 -0.0506 -0.1691  0.6472
  181POPC   H6X20778   2.842   2.421   6.435 -0.2968 -0.2620  0.1126
  181POPC   H6Y20779   2.848   2.591   6.497  2.7283 -1.4463 -0.7252
  181POPC   C3720780   2.743   2.571   6.312  0.2310  0.5520 -0.4910
  181POPC   H7X20781   2.831   2.585   6.245  0.2575 -0.6345 -0.7282
  181POPC   H7Y20782   2.689   2.668   6.317  0.1836  0.4872  0.3865
  181POPC   C3820783   2.651   2.477   6.233 -0.0786 -0.3526  0.1077
  181POPC   H8X20784   2.550   2.481   6.279 -0.7480  0.8233 -1.3756
  181POPC   H8Y20785   2.683   2.370   6.236  0.5388 -0.2167 -0.9121
  181POPC   C3920786   2.637   2.502   6.079 -0.0444  0.4294 -0.7180
  181POPC   H9X20787   2.583   2.414   6.038  1.7252 -1.6163  1.0760
  181POPC   H9Y20788   2.739   2.515   6.037  0.2367 -1.2767 -0.6455
  181POPC  C31020789   2.558   2.628   6.043 -0.4845  0.1799  0.0112
  181POPC  H10X20790   2.606   2.719   6.083 -2.3634  0.7000  1.1873
  181POPC  H10Y20791   2.457   2.622   6.089  0.1479  2.0193  1.8031
  181POPC  C31120792   2.552   2.656   5.883  0.1887  0.4421 -0.9778
  181POPC  H11X20793   2.513   2.565   5.832 -2.1485  0.4578  0.5841
  181POPC  H11Y20794   2.654   2.655   5.840  1.1217 -3.0202  0.8782
  181POPC  C31220795   2.470   2.774   5.831 -0.5435 -0.2180  0.0894
  181POPC  H12X20796   2.500   2.859   5.897  0.3977  0.1248 -0.7599
  181POPC  H12Y20797   2.365   2.746   5.855 -0.8135  0.7466  0.0479
  181POPC  C31320798   2.487   2.811   5.685 -0.1869  0.2979 -0.8031
  181POPC  H13X20799   2.483   2.712   5.636  0.9569 -0.4810  0.5777
  181POPC  H13Y20800   2.591   2.848   5.672  1.1794 -1.9973  2.2252
  181POPC  C31420801   2.376   2.905   5.634 -0.2384 -0.1968  0.1083
  181POPC  H14X20802   2.426   2.941   5.541  0.7776  0.2012  0.7910
  181POPC  H14Y20803   2.372   2.981   5.715  1.7251  0.0990 -0.0250
  181POPC  C31520804   2.240   2.842   5.623  0.1943 -0.6064 -0.9137
  181POPC  H15X20805   2.213   2.812   5.726  1.2366 -1.2476 -0.8062
  181POPC  H15Y20806   2.243   2.748   5.565 -2.0143 -1.6622  0.5499
  181POPC  C31620807   2.126   2.930   5.560  0.1818  0.5427 -0.7010
  181POPC  H16X20808   2.070   2.996   5.630  2.7059  0.0008  1.9682
  181POPC  H16Y20809   2.060   2.866   5.497  0.2861 -0.1818 -0.0781
  181POPC  H16Z20810   2.180   2.988   5.482 -0.0087 -0.1456 -1.3572
  182POPC     N20811   6.546   1.050   6.882  0.2961  0.4457 -0.0895
  182POPC   C1220812   6.661   1.070   6.786  0.6438  0.1351 -0.4221
  182POPC  H12A20813   6.644   1.005   6.702  1.6160 -1.3616  0.4891
  182POPC  H12B20814   6.744   1.025   6.840  0.3006  1.5192  1.3552
  182POPC   C1320815   6.570   1.134   7.002  0.4782  0.7291  0.2260
  182POPC  H13A20816   6.595   1.234   6.972  0.0383  0.0278 -2.8447
  182POPC  H13B20817   6.490   1.117   7.074  0.6844  0.3260  0.3644
  182POPC  H13C20818   6.654   1.094   7.057  0.3099  0.3045  0.1826
  182POPC   C1420819   6.420   1.086   6.820 -0.2050 -0.4599 -0.2212
  182POPC  H14A20820   6.404   1.035   6.726 -1.6277  0.5955 -0.5893
  182POPC  H14B20821   6.332   1.073   6.882 -0.0579  0.9392  0.3171
  182POPC  H14C20822   6.419   1.191   6.793 -1.2402  0.2561  2.3184
  182POPC   C1520823   6.533   0.903   6.919 -0.4438  0.1865  0.1899
  182POPC  H15A20824   6.628   0.877   6.962 -0.0927  0.6580 -0.2990
  182POPC  H15B20825   6.527   0.839   6.832  0.6285 -2.2816  1.8079
  182POPC  H15C20826   6.464   0.882   6.999 -0.3623 -1.2214 -0.0796
  182POPC   C1120827   6.703   1.214   6.747 -0.2889  0.7143 -0.0006
  182POPC  H11A20828   6.605   1.262   6.725 -1.0001 -0.1885  1.1056
  182POPC  H11B20829   6.762   1.216   6.653 -0.0044  1.4280  0.1872
  182POPC     P20830   6.917   1.249   6.888 -0.2711  0.6766 -0.0226
  182POPC   O1320831   6.952   1.113   6.844  0.3353  0.0273 -0.3862
  182POPC   O1420832   6.936   1.291   7.027  0.1110 -0.1265 -0.7983
  182POPC   O1220833   6.775   1.281   6.853 -0.1930 -0.7298  0.3002
  182POPC   O1120834   7.007   1.346   6.803 -0.0260  0.2783 -0.4879
  182POPC    C120835   6.969   1.470   6.752  0.0498 -0.5343 -0.9740
  182POPC    HA20836   7.045   1.545   6.784 -2.0662  1.3029  0.0450
  182POPC    HB20837   6.863   1.493   6.776 -0.0510 -1.5308 -0.4417
  182POPC    C220838   6.963   1.466   6.596  0.3701  0.0854 -0.2904
  182POPC    HS20839   6.881   1.393   6.574 -1.1704  1.8805 -0.7634
  182POPC   O2120840   7.089   1.417   6.544 -0.3293  0.2885 -0.2974
  182POPC   C2120841   7.098   1.289   6.529 -0.9730  0.2491 -0.0167
  182POPC   O2220842   7.001   1.217   6.510 -0.0454 -0.9468  0.7677
  182POPC   C2220843   7.244   1.234   6.541 -0.0457  0.4178 -0.7241
  182POPC   H2R20844   7.246   1.190   6.643 -0.6892 -1.0845 -1.3174
  182POPC   H2S20845   7.316   1.318   6.543  2.0385 -1.2491 -1.7328
  182POPC    C320846   6.913   1.596   6.538  0.1094 -0.4761  0.3935
  182POPC    HX20847   7.001   1.664   6.536 -0.2200 -0.0236  0.8406
  182POPC    HY20848   6.836   1.643   6.603  0.6375 -0.9871  1.4062
  182POPC   O3120849   6.853   1.581   6.405 -0.5027  0.1531 -0.1865
  182POPC   C3120850   6.944   1.576   6.311  0.4013 -0.5867  0.1431
  182POPC   O3220851   7.062   1.603   6.324  0.0475 -0.3292 -0.2164
  182POPC   C3220852   6.881   1.515   6.183  1.1008  0.5391  0.4652
  182POPC   H2X20853   6.772   1.503   6.203  0.2232  2.3250 -2.5807
  182POPC   H2Y20854   6.931   1.417   6.174  0.3042  0.3103 -2.2561
  182POPC   C2320855   7.271   1.128   6.430 -0.1807  0.3155 -0.1936
  182POPC   H3R20856   7.185   1.058   6.418 -0.1036  0.3666 -1.0953
  182POPC   H3S20857   7.351   1.066   6.476  1.4627  0.9037 -2.1144
  182POPC   C2420858   7.323   1.182   6.299 -0.1739 -0.1123  0.7729
  182POPC   H4R20859   7.424   1.218   6.326  0.8858 -2.2344 -0.1935
  182POPC   H4S20860   7.254   1.263   6.267  1.3826  1.1172  0.4576
  182POPC   C2520861   7.346   1.068   6.198  0.5980  0.4358 -0.0768
  182POPC   H5R20862   7.260   0.999   6.187  0.7453  0.5038 -2.1807
  182POPC   H5S20863   7.434   1.006   6.227  1.2136  1.8465  1.1873
  182POPC   C2620864   7.379   1.117   6.055  0.4179 -0.7079  0.0910
  182POPC   H6R20865   7.477   1.170   6.061  0.4625 -0.9317  1.4861
  182POPC   H6S20866   7.307   1.194   6.022  1.8951  0.4045 -0.7044
  182POPC   C2720867   7.389   1.003   5.956 -0.6040 -0.2846  0.4001
  182POPC   H7R20868   7.289   0.954   5.968  0.3986 -1.9647  2.9348
  182POPC   H7S20869   7.472   0.938   5.992  0.1838  0.7613  0.4926
  182POPC   C2820870   7.420   1.042   5.809  0.3308  0.3804  0.0598
  182POPC   H8R20871   7.444   0.952   5.748  2.7770  0.8569  0.2352
  182POPC   H8S20872   7.508   1.109   5.804 -0.2650  1.1139 -2.8341
  182POPC   C2920873   7.312   1.110   5.738  0.7883 -0.2776  0.5298
  182POPC   H9120874   7.218   1.055   5.719 -0.0631  1.3766 -0.3651
  182POPC  C21020875   7.306   1.246   5.711 -0.4201  0.1274  0.0077
  182POPC  H10120876   7.215   1.284   5.662 -0.7797 -2.5892 -1.6574
  182POPC  C21120877   7.410   1.344   5.741 -0.1173  0.6313  0.4734
  182POPC  H11R20878   7.454   1.315   5.838 -0.0397 -0.8302  0.0283
  182POPC  H11S20879   7.363   1.444   5.754 -1.5001 -0.2813  3.1533
  182POPC  C21220880   7.527   1.358   5.640  0.8778  0.1327 -0.1242
  182POPC  H12R20881   7.588   1.266   5.635  1.4239  0.3471  1.8190
  182POPC  H12S20882   7.588   1.442   5.679  1.4897  0.0754 -0.9281
  182POPC  C21320883   7.481   1.396   5.498  0.6268  0.0475  0.0502
  182POPC  H13R20884   7.400   1.471   5.498 -0.1905 -0.8143  0.0184
  182POPC  H13S20885   7.436   1.305   5.453  0.1190  0.7553 -0.9235
  182POPC  C21420886   7.595   1.447   5.405  0.3855  0.2186  0.9997
  182POPC  H14R20887   7.664   1.361   5.393  0.1418  0.3132 -1.9657
  182POPC  H14S20888   7.654   1.521   5.462 -1.5373  1.4274  1.5223
  182POPC  C21520889   7.548   1.505   5.273 -0.2582 -0.4853  0.3389
  182POPC  H15R20890   7.472   1.581   5.302 -0.8855 -0.8359 -0.3283
  182POPC  H15S20891   7.504   1.420   5.217 -1.1164 -2.0163  3.1456
  182POPC  C21620892   7.658   1.574   5.180 -0.0150  0.4857  0.0987
  182POPC  H16R20893   7.713   1.488   5.137 -0.2838 -0.5061  1.6535
  182POPC  H16S20894   7.737   1.628   5.236  0.1875  0.0656  0.2250
  182POPC  C21720895   7.591   1.649   5.059 -0.3895 -0.0207 -0.5321
  182POPC  H17R20896   7.530   1.730   5.103 -1.1146 -0.9806  0.2600
  182POPC  H17S20897   7.526   1.574   5.009 -1.2053 -0.3942  1.0242
  182POPC  C21820898   7.703   1.717   4.976  0.2482  0.2171 -0.0974
  182POPC  H18R20899   7.739   1.808   5.027  3.4719 -0.1502 -1.4930
  182POPC  H18S20900   7.668   1.730   4.871 -0.4111 -0.8767 -0.0341
  182POPC  H18T20901   7.788   1.646   4.974 -0.7699 -1.0434 -1.7642
  182POPC   C3320902   6.894   1.602   6.049 -0.2209 -0.3834 -1.1900
  182POPC   H3X20903   6.860   1.702   6.083  0.9853  0.7639 -3.1571
  182POPC   H3Y20904   6.824   1.547   5.982  0.2942 -1.4401 -0.8750
  182POPC   C3420905   7.027   1.614   5.988  0.1956  0.1702 -0.3992
  182POPC   H4X20906   7.053   1.509   5.962 -1.7998 -1.2113  2.6565
  182POPC   H4Y20907   7.098   1.666   6.055 -1.1998  1.6346 -0.0000
  182POPC   C3520908   7.021   1.698   5.855  0.2045 -0.5163  0.3163
  182POPC   H5X20909   6.979   1.799   5.878  2.9172  1.1407 -1.4943
  182POPC   H5Y20910   6.956   1.660   5.773 -1.1104  0.5693  0.8146
  182POPC   C3620911   7.165   1.702   5.803  0.3535  0.5339 -0.4074
  182POPC   H6X20912   7.206   1.599   5.796 -1.3355 -0.2221  0.3738
  182POPC   H6Y20913   7.222   1.759   5.880  0.0290  0.5696 -0.1926
  182POPC   C3720914   7.175   1.768   5.662  0.4778 -0.1269  0.5814
  182POPC   H7X20915   7.098   1.846   5.644 -0.2298 -1.4891 -3.2411
  182POPC   H7Y20916   7.160   1.694   5.580 -2.3930 -2.3995  2.9492
  182POPC   C3820917   7.321   1.831   5.654  0.0774  0.3762 -0.9091
  182POPC   H8X20918   7.389   1.749   5.622 -0.4377 -1.0916  1.5206
  182POPC   H8Y20919   7.357   1.875   5.749  1.3273  1.4183 -1.8229
  182POPC   C3920920   7.315   1.951   5.550 -0.7777 -0.2050  0.7786
  182POPC   H9X20921   7.235   2.021   5.583 -1.0194 -0.8970  1.7373
  182POPC   H9Y20922   7.276   1.933   5.447 -0.9512  2.0832  0.4016
  182POPC  C31020923   7.450   2.013   5.523  0.1140  0.0758  0.3177
  182POPC  H10X20924   7.537   1.952   5.555  0.2559 -0.2211 -0.5995
  182POPC  H10Y20925   7.447   2.105   5.586 -1.5245  0.2867 -0.0303
  182POPC  C31120926   7.476   2.058   5.375  0.6838  0.9393 -0.6831
  182POPC  H11X20927   7.454   1.969   5.313 -0.2630  1.2276 -0.7796
  182POPC  H11Y20928   7.584   2.085   5.373  0.7127  0.8083 -0.9683
  182POPC  C31220929   7.394   2.160   5.311 -0.2982  0.0852 -0.5853
  182POPC  H12X20930   7.404   2.242   5.386  0.2908 -2.7923  2.7864
  182POPC  H12Y20931   7.288   2.133   5.325  0.3997 -1.5187  2.7090
  182POPC  C31320932   7.425   2.215   5.172 -0.3189  0.3460 -0.4302
  182POPC  H13X20933   7.413   2.130   5.102 -0.5961 -0.1155  0.1709
  182POPC  H13Y20934   7.533   2.240   5.173 -0.0776 -0.6353 -1.0615
  182POPC  C31420935   7.329   2.330   5.126 -0.2652  0.3280 -0.1048
  182POPC  H14X20936   7.314   2.402   5.209 -3.7407 -0.9857  0.5849
  182POPC  H14Y20937   7.234   2.277   5.105 -1.0031  0.0407  3.3561
  182POPC  C31520938   7.398   2.390   5.002  0.8115  0.0835  0.6943
  182POPC  H15X20939   7.418   2.312   4.925 -2.6652  0.3569 -0.6529
  182POPC  H15Y20940   7.500   2.427   5.024  1.2942 -1.2582  0.8319
  182POPC  C31620941   7.316   2.505   4.940  1.2399  0.1420  0.0192
  182POPC  H16X20942   7.381   2.547   4.860  3.6109 -0.4650  1.5076
  182POPC  H16Y20943   7.282   2.576   5.019  0.6273  0.5110 -0.5692
  182POPC  H16Z20944   7.234   2.453   4.886  1.0077  2.0262 -1.5797
  183POPC     N20945   3.457   1.434   7.074 -0.2228 -0.0145 -0.6789
  183POPC   C1220946   3.416   1.365   6.945  0.5850 -0.7163  0.1065
  183POPC  H12A20947   3.461   1.266   6.946 -0.1741 -1.0695  1.6359
  183POPC  H12B20948   3.455   1.424   6.864 -1.4066  0.0853 -0.3244
  183POPC   C1320949   3.606   1.451   7.074 -0.1282  0.6980  0.3557
  183POPC  H13A20950   3.641   1.512   7.157  3.6401  0.7740 -1.1174
  183POPC  H13B20951   3.657   1.357   7.081 -2.2047 -0.8559 -3.0607
  183POPC  H13C20952   3.647   1.499   6.986  0.2558 -0.5452 -0.1548
  183POPC   C1420953   3.398   1.574   7.087  0.1168 -0.1011 -0.5035
  183POPC  H14A20954   3.290   1.567   7.089 -0.0635  2.0939  0.9394
  183POPC  H14B20955   3.426   1.624   7.179 -0.6595 -0.7579  0.1101
  183POPC  H14C20956   3.435   1.634   7.006 -0.3920  0.6961 -0.1573
  183POPC   C1520957   3.429   1.360   7.206  0.3805 -0.6678  0.4011
  183POPC  H15A20958   3.503   1.386   7.280  1.7169  1.3020 -1.5199
  183POPC  H15B20959   3.440   1.254   7.192 -1.2554 -0.7223 -0.9034
  183POPC  H15C20960   3.329   1.385   7.238  1.1078  2.8591  0.3381
  183POPC   C1120961   3.270   1.352   6.910 -0.0378  0.5034 -0.3477
  183POPC  H11A20962   3.254   1.311   6.808  0.4842  2.8845 -1.4444
  183POPC  H11B20963   3.225   1.453   6.906  1.1925  1.1569  1.1087
  183POPC     P20964   3.198   1.119   7.016 -0.1587  0.0554 -0.0840
  183POPC   O1320965   3.086   1.072   7.104 -0.1286 -0.1397  0.4860
  183POPC   O1420966   3.335   1.076   7.056 -0.5116 -0.3571  0.1864
  183POPC   O1220967   3.189   1.279   7.003  0.0743  0.3956 -0.1691
  183POPC   O1120968   3.174   1.075   6.863 -0.1217 -0.1888  0.3060
  183POPC    C120969   3.041   1.021   6.848 -0.2974  0.4839  0.4037
  183POPC    HA20970   2.970   1.099   6.885  1.0153  1.4138  1.0654
  183POPC    HB20971   3.029   0.925   6.902 -0.6539  0.5882  0.5196
  183POPC    C220972   3.008   0.988   6.704 -0.1362 -0.0340 -0.1108
  183POPC    HS20973   2.898   0.975   6.697 -0.2461  0.7644 -0.0120
  183POPC   O2120974   3.091   0.886   6.652 -0.1529 -0.6078  0.4601
  183POPC   C2120975   3.040   0.822   6.552 -0.0624 -0.0327  0.7971
  183POPC   O2220976   2.932   0.833   6.506  0.2458  1.3279  0.3367
  183POPC   C2220977   3.142   0.720   6.513 -0.5453  0.2079  0.2797
  183POPC   H2R20978   3.120   0.637   6.584 -3.5449  2.6397  2.4628
  183POPC   H2S20979   3.247   0.751   6.528  0.7630 -3.4530 -0.1628
  183POPC    C320980   3.027   1.127   6.626  0.1417 -0.2655  1.5049
  183POPC    HX20981   3.137   1.135   6.614 -0.0267 -0.2093 -0.0991
  183POPC    HY20982   3.002   1.217   6.686 -0.4244  0.5625  0.0590
  183POPC   O3120983   2.984   1.133   6.491 -0.0167 -0.3615 -0.5333
  183POPC   C3120984   2.854   1.141   6.468 -0.5043 -0.0116  0.1793
  183POPC   O3220985   2.767   1.126   6.548  0.8219 -0.1626  0.5911
  183POPC   C3220986   2.834   1.157   6.318 -0.5188 -0.0220  0.7822
  183POPC   H2X20987   2.845   1.052   6.284 -0.2017 -0.5163  2.3282
  183POPC   H2Y20988   2.902   1.233   6.275  0.5686  0.1319  2.6388
  183POPC   C2320989   3.126   0.678   6.362 -1.0926 -0.2135  1.1793
  183POPC   H3R20990   3.085   0.764   6.305  0.8134 -0.0697 -0.0529
  183POPC   H3S20991   3.062   0.590   6.344 -0.4178  0.0541 -3.8262
  183POPC   C2420992   3.267   0.644   6.299 -0.1137  0.3903  0.3101
  183POPC   H4R20993   3.307   0.551   6.345  1.3051  2.4744  3.6424
  183POPC   H4S20994   3.337   0.724   6.329  0.2959 -0.5387  1.9708
  183POPC   C2520995   3.261   0.633   6.146  0.0873 -0.6304  0.3012
  183POPC   H5R20996   3.169   0.577   6.118 -0.8867  0.2078  1.6871
  183POPC   H5S20997   3.347   0.571   6.114  1.1257  0.0925  1.5920
  183POPC   C2620998   3.268   0.775   6.067  0.1579  0.4951 -0.4426
  183POPC   H6R20999   3.356   0.817   6.121  1.6113 -0.2884 -2.1244
  183POPC   H6S21000   3.175   0.831   6.090  0.7878  0.7811  1.6274
  183POPC   C2721001   3.313   0.765   5.918  0.5154  0.3026  0.1089
  183POPC   H7R21002   3.231   0.733   5.851  1.1971 -2.0990  0.3037
  183POPC   H7S21003   3.384   0.679   5.912  0.3176  0.1795 -0.6259
  183POPC   C2821004   3.376   0.901   5.864 -0.0934 -0.5582  0.3228
  183POPC   H8R21005   3.436   0.865   5.778 -1.5260 -3.1680  0.3050
  183POPC   H8S21006   3.442   0.945   5.942  0.1599  2.5147 -1.4751
  183POPC   C2921007   3.272   1.002   5.822 -0.2045  0.0743  0.0177
  183POPC   H9121008   3.168   0.986   5.855 -0.2570  0.0353 -0.1634
  183POPC  C21021009   3.283   1.105   5.735  0.4737 -0.1605 -0.0308
  183POPC  H10121010   3.195   1.168   5.720  0.5843 -0.1401 -0.5916
  183POPC  C21121011   3.412   1.142   5.668  0.8079 -0.2320 -0.3216
  183POPC  H11R21012   3.386   1.164   5.563 -1.6271 -2.1928 -0.2338
  183POPC  H11S21013   3.493   1.066   5.668  0.5116 -0.5572  0.3443
  183POPC  C21221014   3.472   1.265   5.735  0.1874 -0.3551  0.0289
  183POPC  H12R21015   3.567   1.285   5.680  1.0308  0.1047  1.5602
  183POPC  H12S21016   3.520   1.256   5.835  1.1527 -1.5741 -0.5173
  183POPC  C21321017   3.381   1.389   5.723 -0.2688 -0.2506 -0.5175
  183POPC  H13R21018   3.282   1.368   5.771 -0.7366  1.6196 -0.5696
  183POPC  H13S21019   3.366   1.391   5.613  3.0262  0.9793 -1.0673
  183POPC  C21421020   3.453   1.520   5.773 -0.5630 -0.4598  0.1800
  183POPC  H14R21021   3.387   1.606   5.750  0.1208  0.2747  0.8865
  183POPC  H14S21022   3.546   1.523   5.712  0.2500  0.2702  1.4064
  183POPC  C21521023   3.476   1.508   5.928  0.3266  0.5951 -0.6518
  183POPC  H15R21024   3.571   1.453   5.946 -0.8839 -1.6457 -0.8001
  183POPC  H15S21025   3.399   1.445   5.977  0.3488  0.7871 -0.3696
  183POPC  C21621026   3.479   1.636   6.012 -0.5028  0.6043 -0.0103
  183POPC  H16R21027   3.384   1.691   6.026 -0.9643  0.9515 -3.5011
  183POPC  H16S21028   3.551   1.708   5.968 -1.2313  0.9606 -0.6492
  183POPC  C21721029   3.544   1.590   6.153 -0.4751 -0.2109 -0.5243
  183POPC  H17R21030   3.643   1.540   6.145 -1.2432 -2.1800  1.1230
  183POPC  H17S21031   3.478   1.508   6.190  0.0569  0.6455  2.6361
  183POPC  C21821032   3.546   1.697   6.255  0.6779 -0.3350 -0.7997
  183POPC  H18R21033   3.629   1.691   6.329  0.1975 -0.9784 -0.3023
  183POPC  H18S21034   3.454   1.695   6.317  0.6486  0.9779 -0.7819
  183POPC  H18T21035   3.536   1.800   6.217  0.5936  0.1632  0.5275
  183POPC   C3321036   2.683   1.198   6.280  0.1157  0.5547 -0.5767
  183POPC   H3X21037   2.670   1.308   6.291  2.8208  0.9953 -0.8534
  183POPC   H3Y21038   2.619   1.135   6.344  0.9879 -0.8538 -1.0445
  183POPC   C3421039   2.656   1.161   6.132  0.2499 -0.4579  0.5450
  183POPC   H4X21040   2.681   1.054   6.115  1.9189 -0.3269  1.9321
  183POPC   H4Y21041   2.712   1.226   6.062 -2.4420 -1.3078 -2.7005
  183POPC   C3521042   2.508   1.178   6.092 -0.3640  0.9422 -0.4626
  183POPC   H5X21043   2.471   1.280   6.116 -1.8865  0.1687  0.6665
  183POPC   H5Y21044   2.438   1.107   6.142 -1.9274  3.3243  0.9535
  183POPC   C3621045   2.485   1.142   5.943 -0.2943 -0.4895  0.2353
  183POPC   H6X21046   2.375   1.142   5.927 -0.6465 -2.5925  2.0831
  183POPC   H6Y21047   2.532   1.042   5.925 -2.1324 -1.4850  0.7353
  183POPC   C3721048   2.548   1.241   5.852 -0.3893 -0.1823  0.4448
  183POPC   H7X21049   2.657   1.248   5.872 -0.2864 -0.1037 -0.1227
  183POPC   H7Y21050   2.500   1.338   5.875 -1.5882 -0.2252 -1.5858
  183POPC   C3821051   2.529   1.216   5.698 -0.1905 -0.7118  0.4785
  183POPC   H8X21052   2.423   1.195   5.675 -0.8520  0.2820  2.3734
  183POPC   H8Y21053   2.591   1.131   5.664  0.6421  0.1377 -0.1963
  183POPC   C3921054   2.581   1.333   5.609 -0.4661  0.8660 -0.1949
  183POPC   H9X21055   2.687   1.356   5.633 -0.2378  0.5208 -0.8625
  183POPC   H9Y21056   2.532   1.427   5.640  2.0114  1.2717  3.0723
  183POPC  C31021057   2.566   1.303   5.455  0.1862  0.2366 -0.1438
  183POPC  H10X21058   2.456   1.291   5.447 -0.2343  1.2144  2.7707
  183POPC  H10Y21059   2.622   1.213   5.422 -1.4613 -0.7254 -0.4188
  183POPC  C31121060   2.603   1.433   5.374 -0.3678  0.0385 -0.5746
  183POPC  H11X21061   2.698   1.476   5.412 -0.1597 -1.7292  0.9945
  183POPC  H11Y21062   2.527   1.512   5.392  1.1332  1.6662 -1.1091
  183POPC  C31221063   2.641   1.401   5.227 -0.2324  0.0639  0.0824
  183POPC  H12X21064   2.691   1.301   5.221  1.2825  0.7694  0.5400
  183POPC  H12Y21065   2.710   1.483   5.199  1.0375 -1.0652 -0.2434
  183POPC  C31321066   2.512   1.400   5.144  0.3432 -0.7813 -0.1168
  183POPC  H13X21067   2.448   1.313   5.173 -0.4856 -0.2184 -0.2224
  183POPC  H13Y21068   2.542   1.384   5.039  0.8630  1.0726 -0.2855
  183POPC  C31421069   2.422   1.525   5.147  0.8316 -0.1674  0.5350
  183POPC  H14X21070   2.489   1.613   5.154 -1.3979  1.5686  1.2606
  183POPC  H14Y21071   2.360   1.525   5.240 -0.4645  0.4289 -0.2966
  183POPC  C31521072   2.329   1.523   5.019 -0.2799 -0.1263 -0.2280
  183POPC  H15X21073   2.263   1.434   5.033  0.0272 -0.4091 -0.5629
  183POPC  H15Y21074   2.382   1.505   4.923 -1.0137 -0.9226 -0.4974
  183POPC  C31621075   2.247   1.648   5.001  0.3274 -0.2618 -0.0604
  183POPC  H16X21076   2.187   1.673   5.092  1.2995 -0.4063  0.6285
  183POPC  H16Y21077   2.188   1.630   4.909  1.9083 -1.1088 -0.9298
  183POPC  H16Z21078   2.308   1.739   4.982  0.0642  0.3757  1.8847
  184POPC     N21079   2.052   0.652   6.927  0.0608 -0.0711 -0.6738
  184POPC   C1221080   2.164   0.556   6.893  0.2875  0.9207 -0.5203
  184POPC  H12A21081   2.125   0.470   6.841  0.5464  1.0136 -0.8729
  184POPC  H12B21082   2.200   0.506   6.982  1.0036  0.0932 -1.2476
  184POPC   C1321083   1.988   0.698   6.797 -0.1887 -0.7192 -0.5396
  184POPC  H13A21084   1.974   0.609   6.738  1.3128 -1.3813  0.0267
  184POPC  H13B21085   1.900   0.756   6.821  0.4617 -0.1967  0.6798
  184POPC  H13C21086   2.054   0.769   6.749 -1.6181  1.6247  0.7490
  184POPC   C1421087   1.950   0.576   7.003  0.3081  0.1576  0.7644
  184POPC  H14A21088   1.888   0.644   7.059 -0.2459  1.8143 -1.7024
  184POPC  H14B21089   1.886   0.524   6.933 -0.3137 -0.1947  1.5791
  184POPC  H14C21090   2.001   0.503   7.064  2.1692  0.9980  0.2966
  184POPC   C1521091   2.099   0.769   7.008 -0.4400 -0.7093  0.6183
  184POPC  H15A21092   2.016   0.838   7.009 -0.6596 -0.9699  0.5699
  184POPC  H15B21093   2.186   0.816   6.965  0.1752 -3.8865 -2.0277
  184POPC  H15C21094   2.125   0.734   7.107 -0.7349 -3.2423 -0.1432
  184POPC   C1121095   2.291   0.618   6.818  0.7667 -0.9276 -0.9731
  184POPC  H11A21096   2.260   0.660   6.720  0.2210  0.1772 -0.3378
  184POPC  H11B21097   2.356   0.530   6.796  2.3636 -0.3199  0.9729
  184POPC     P21098   2.483   0.686   6.992 -0.1813 -0.0626 -0.0685
  184POPC   O1321099   2.453   0.567   7.078 -0.1449 -0.2489 -0.1535
  184POPC   O1421100   2.525   0.809   7.070  0.5684  0.2723  0.2213
  184POPC   O1221101   2.357   0.717   6.899 -0.0280 -0.5203 -0.0464
  184POPC   O1121102   2.591   0.657   6.879  0.4379  0.3464 -0.2110
  184POPC    C121103   2.638   0.763   6.792  0.5998 -0.1764 -0.2709
  184POPC    HA21104   2.747   0.780   6.798  0.5004 -0.0403  1.8642
  184POPC    HB21105   2.588   0.858   6.820  1.3383 -0.1166  0.9177
  184POPC    C221106   2.597   0.723   6.646 -0.1509  0.3821 -0.2264
  184POPC    HS21107   2.495   0.683   6.661  0.8367 -2.4521 -0.5826
  184POPC   O2121108   2.681   0.623   6.584 -0.0817  0.4570  0.4930
  184POPC   C2121109   2.611   0.540   6.507 -0.1591  0.1753  0.0635
  184POPC   O2221110   2.492   0.548   6.492 -0.1261  0.0660 -0.2995
  184POPC   C2221111   2.712   0.443   6.433 -0.1819  0.0328  0.3940
  184POPC   H2R21112   2.662   0.363   6.374 -0.0175  0.0353  0.2510
  184POPC   H2S21113   2.773   0.399   6.514  1.4697 -0.1941 -0.9153
  184POPC    C321114   2.591   0.851   6.554 -0.2623  0.5853  0.0633
  184POPC    HX21115   2.692   0.896   6.546  0.5704 -1.2186 -0.0404
  184POPC    HY21116   2.524   0.925   6.602  1.8961  2.6566  0.0527
  184POPC   O3121117   2.541   0.817   6.419 -0.3707  0.1195  0.3073
  184POPC   C3121118   2.413   0.808   6.399 -0.0656  0.5776  0.6847
  184POPC   O3221119   2.327   0.836   6.484  0.2156  0.7103 -0.3004
  184POPC   C3221120   2.387   0.763   6.258 -0.8892  0.1692 -0.2807
  184POPC   H2X21121   2.352   0.657   6.257 -2.3266  0.5136  2.3559
  184POPC   H2Y21122   2.475   0.774   6.192 -0.9644 -1.7913 -0.7668
  184POPC   C2321123   2.792   0.515   6.324 -0.6976 -0.3913  0.5677
  184POPC   H3R21124   2.885   0.459   6.299  0.2091  0.7931  1.1747
  184POPC   H3S21125   2.820   0.607   6.379 -1.6093  1.3674 -1.7536
  184POPC   C2421126   2.705   0.552   6.208 -0.0094  0.6031  0.0933
  184POPC   H4R21127   2.604   0.573   6.249 -1.7649  1.4557 -4.1755
  184POPC   H4S21128   2.681   0.456   6.158  0.0096 -0.1957  1.5548
  184POPC   C2521129   2.721   0.678   6.121 -0.0780 -0.7841  0.2706
  184POPC   H5R21130   2.714   0.768   6.185  0.0810 -1.1683  0.8378
  184POPC   H5S21131   2.639   0.683   6.046 -0.4835  1.7971  0.8160
  184POPC   C2621132   2.857   0.671   6.044  0.1743 -0.0988  0.1691
  184POPC   H6R21133   2.840   0.591   5.969  1.1214 -0.6128  0.4891
  184POPC   H6S21134   2.941   0.641   6.111 -0.7691 -1.3064  0.8409
  184POPC   C2721135   2.901   0.811   5.990  0.0624  0.1611  0.6765
  184POPC   H7R21136   3.007   0.797   5.962  0.2948 -1.7311  2.2412
  184POPC   H7S21137   2.899   0.873   6.083  0.0431 -0.1094  0.8581
  184POPC   C2821138   2.812   0.866   5.878  0.8157  0.1245  0.1642
  184POPC   H8R21139   2.704   0.883   5.897  0.5406  0.5591 -1.6127
  184POPC   H8S21140   2.811   0.788   5.799 -2.3071  0.0001  0.1905
  184POPC   C2921141   2.863   1.000   5.839 -0.6477 -1.1605  0.5593
  184POPC   H9121142   2.897   1.064   5.922 -1.3205  1.0590 -0.7839
  184POPC  C21021143   2.857   1.053   5.715  0.1584  0.3273  0.2903
  184POPC  H10121144   2.882   1.160   5.707 -0.5735  0.5357  0.6910
  184POPC  C21121145   2.804   0.978   5.590 -0.4189  0.3157 -0.0072
  184POPC  H11R21146   2.744   1.051   5.532 -1.7042 -1.6250 -1.2218
  184POPC  H11S21147   2.722   0.909   5.617 -1.5490  1.5085 -0.2526
  184POPC  C21221148   2.910   0.927   5.490  0.1264 -0.1656 -0.2678
  184POPC  H12R21149   2.857   0.857   5.423 -0.7583  1.2192 -1.0731
  184POPC  H12S21150   2.987   0.873   5.549 -0.3744 -0.8786 -0.2513
  184POPC  C21321151   2.976   1.030   5.407  0.1013 -0.3392 -0.5665
  184POPC  H13R21152   3.067   0.979   5.367 -0.9643  0.0418 -3.8032
  184POPC  H13S21153   3.005   1.119   5.467  1.5219 -1.3636  0.3327
  184POPC  C21421154   2.884   1.075   5.284  0.2277 -0.0074 -0.2581
  184POPC  H14R21155   2.780   1.096   5.317  0.0044 -0.8289 -0.4050
  184POPC  H14S21156   2.874   0.984   5.221  1.0507 -0.8160  0.7528
  184POPC  C21521157   2.937   1.191   5.203 -0.4514 -0.2934  0.5406
  184POPC  H15R21158   2.912   1.284   5.258 -2.7598 -1.1060  0.9680
  184POPC  H15S21159   2.883   1.200   5.106  0.6831  2.3655  0.0717
  184POPC  C21621160   3.089   1.179   5.171 -0.5484 -0.1100 -0.8547
  184POPC  H16R21161   3.126   1.085   5.127  1.4364  0.2495 -0.0756
  184POPC  H16S21162   3.146   1.189   5.267 -1.3805 -1.7587 -0.1505
  184POPC  C21721163   3.127   1.293   5.082 -0.4348 -0.3400  0.3537
  184POPC  H17R21164   3.069   1.385   5.104  0.1328  0.3430 -0.8882
  184POPC  H17S21165   3.098   1.261   4.980  0.1334 -0.2426  0.1547
  184POPC  C21821166   3.271   1.332   5.090  0.4452  0.9036 -0.4006
  184POPC  H18R21167   3.303   1.360   5.193  0.9928 -0.4768 -0.1652
  184POPC  H18S21168   3.290   1.418   5.023  0.0617 -0.1618 -1.9378
  184POPC  H18T21169   3.339   1.249   5.059 -1.1620 -0.2391 -0.9602
  184POPC   C3321170   2.268   0.840   6.195 -0.9278  0.5384 -0.4939
  184POPC   H3X21171   2.277   0.950   6.210 -3.8813  0.5762  2.1101
  184POPC   H3Y21172   2.173   0.808   6.242 -0.5471  0.5067  0.2727
  184POPC   C3421173   2.268   0.808   6.042 -0.2694 -0.3084 -0.2372
  184POPC   H4X21174   2.265   0.699   6.023 -2.2260 -0.8047  2.4407
  184POPC   H4Y21175   2.367   0.842   6.002 -0.5336 -0.7617 -1.3155
  184POPC   C3521176   2.149   0.873   5.965  0.5599 -0.0139 -0.2229
  184POPC   H5X21177   2.147   0.983   5.979  2.0390 -0.0694  0.7132
  184POPC   H5Y21178   2.052   0.843   6.010  0.5314  0.5434  0.0874
  184POPC   C3621179   2.145   0.841   5.819  0.5757 -0.2106  0.1351
  184POPC   H6X21180   2.055   0.900   5.791 -0.2771 -0.8224  1.4558
  184POPC   H6Y21181   2.132   0.732   5.801  2.4726 -0.5843  0.7402
  184POPC   C3721182   2.274   0.875   5.743 -0.2051  0.3006  0.6148
  184POPC   H7X21183   2.356   0.809   5.779 -2.2830 -2.1030  1.1414
  184POPC   H7Y21184   2.302   0.981   5.763 -0.8808  0.5819  0.0986
  184POPC   C3821185   2.260   0.862   5.595  0.3839 -0.2441 -0.3039
  184POPC   H8X21186   2.204   0.947   5.551  1.0945  0.7439  0.6324
  184POPC   H8Y21187   2.203   0.771   5.571 -1.0676  1.5412 -4.4277
  184POPC   C3921188   2.397   0.862   5.525 -0.3377  0.2968  0.2338
  184POPC   H9X21189   2.460   0.782   5.570 -0.4012 -0.9009 -1.6923
  184POPC   H9Y21190   2.442   0.961   5.543 -1.2895  0.7103  0.4137
  184POPC  C31021191   2.394   0.858   5.374  0.0797 -0.3560  0.1692
  184POPC  H10X21192   2.330   0.778   5.330  1.4736  0.1998 -3.1549
  184POPC  H10Y21193   2.494   0.843   5.329  0.6778  1.7518  0.6908
  184POPC  C31121194   2.342   0.986   5.304  0.5113 -0.4132 -0.8636
  184POPC  H11X21195   2.420   1.063   5.286  0.4517 -0.2033 -0.2438
  184POPC  H11Y21196   2.273   1.031   5.378 -0.8138 -0.9294 -1.7441
  184POPC  C31221197   2.263   0.956   5.173 -0.0341  0.1088 -0.2823
  184POPC  H12X21198   2.169   0.901   5.197  0.3369 -1.2660 -1.8132
  184POPC  H12Y21199   2.330   0.892   5.111 -1.3818 -1.0929 -0.5398
  184POPC  C31321200   2.229   1.087   5.101 -0.1545 -0.1933 -0.3415
  184POPC  H13X21201   2.329   1.125   5.070  2.3251 -2.9507  3.4089
  184POPC  H13Y21202   2.192   1.155   5.180  0.4040 -0.1356 -0.1228
  184POPC  C31421203   2.124   1.077   4.993 -0.3988  0.2315 -0.1734
  184POPC  H14X21204   2.028   1.054   5.043 -0.5476  0.7282 -0.2282
  184POPC  H14Y21205   2.151   0.994   4.924  0.3152 -1.1438  1.6879
  184POPC  C31521206   2.099   1.213   4.919  0.1311  0.4480 -1.0337
  184POPC  H15X21207   2.197   1.249   4.882 -0.6041  2.7151 -0.9415
  184POPC  H15Y21208   2.075   1.287   4.999  2.0422 -0.5886  0.5924
  184POPC  C31621209   1.994   1.212   4.810 -0.1344 -0.3567  0.3431
  184POPC  H16X21210   1.900   1.188   4.863 -0.1318 -0.0726  0.4787
  184POPC  H16Y21211   2.003   1.140   4.725  0.0384  0.8450 -0.6900
  184POPC  H16Z21212   1.984   1.307   4.754 -1.0854 -0.8918 -0.4293
  185POPC     N21213   6.845   5.828   2.343  0.2180 -0.2737 -0.5986
  185POPC   C1221214   6.963   5.748   2.397 -0.5099 -0.3231  0.0657
  185POPC  H12A21215   6.939   5.744   2.502 -1.0402 -0.9237 -0.0743
  185POPC  H12B21216   7.051   5.808   2.380  0.7979 -2.3343 -0.4830
  185POPC   C1321217   6.831   5.808   2.198 -0.1601 -0.1309 -0.4278
  185POPC  H13A21218   6.776   5.887   2.150 -1.8400 -1.5244 -0.8977
  185POPC  H13B21219   6.927   5.823   2.150 -1.3260  2.1314 -2.2243
  185POPC  H13C21220   6.784   5.719   2.160 -0.4955  0.3492 -1.1499
  185POPC   C1421221   6.722   5.772   2.415  0.3152 -0.1503  0.2549
  185POPC  H14A21222   6.738   5.804   2.517  1.6130 -2.8287  1.0197
  185POPC  H14B21223   6.642   5.837   2.384  2.7278  2.3116 -1.2919
  185POPC  H14C21224   6.705   5.665   2.420 -0.3908 -0.0465  0.0964
  185POPC   C1521225   6.870   5.974   2.380 -0.5465 -0.3953 -0.3036
  185POPC  H15A21226   6.968   6.002   2.344  0.3689 -2.0751  0.7320
  185POPC  H15B21227   6.883   5.987   2.486  1.4359  1.8489 -0.7224
  185POPC  H15C21228   6.792   6.039   2.343 -0.8421 -0.7593 -0.3189
  185POPC   C1121229   6.983   5.600   2.356 -0.2777  0.5806  0.8634
  185POPC  H11A21230   7.072   5.554   2.404  0.6939  0.2722 -1.1288
  185POPC  H11B21231   7.014   5.607   2.249  1.1424  2.3082  1.3407
  185POPC     P21232   6.862   5.436   2.510  0.0755  0.1654 -0.3667
  185POPC   O1321233   6.890   5.292   2.494 -0.4561 -0.1900 -0.8796
  185POPC   O1421234   6.735   5.461   2.585  0.5269 -0.3320 -0.0856
  185POPC   O1221235   6.869   5.526   2.373 -0.3683 -0.4677  0.1758
  185POPC   O1121236   6.974   5.505   2.600  0.4461 -0.2110 -0.7585
  185POPC    C121237   7.079   5.431   2.657  0.5396 -0.0174 -0.2403
  185POPC    HA21238   7.134   5.517   2.702 -0.3173  1.6876 -2.2719
  185POPC    HB21239   7.130   5.373   2.578  0.0696  2.5202 -2.5591
  185POPC    C221240   7.037   5.336   2.769  0.0506 -0.3452 -0.0470
  185POPC    HS21241   6.964   5.264   2.726  0.8366 -0.1722 -1.7430
  185POPC   O2121242   6.980   5.419   2.870  0.1732  0.3185 -0.4555
  185POPC   C2121243   6.863   5.377   2.926 -1.0586  1.1068  0.3888
  185POPC   O2221244   6.798   5.283   2.881 -0.1816  0.1349  0.5759
  185POPC   C2221245   6.840   5.462   3.054 -0.4479  0.3437 -0.7134
  185POPC   H2R21246   6.864   5.569   3.037  0.1705  0.3711  0.2924
  185POPC   H2S21247   6.900   5.410   3.131  0.1911 -0.0162 -1.4503
  185POPC    C321248   7.151   5.262   2.831 -0.2262  0.2744 -0.3208
  185POPC    HX21249   7.218   5.334   2.882 -0.0152 -0.5803  0.6411
  185POPC    HY21250   7.215   5.205   2.759 -0.0521  0.1643 -0.0793
  185POPC   O3121251   7.108   5.178   2.939 -0.5931 -1.1127 -0.1491
  185POPC   C3121252   7.059   5.070   2.903  0.2585  0.2498 -0.3738
  185POPC   O3221253   7.062   5.019   2.789 -0.0495  0.4090 -0.3804
  185POPC   C3221254   7.010   4.993   3.025 -0.0550 -0.4688  0.4416
  185POPC   H2X21255   7.064   5.036   3.111 -2.8213  1.5028  1.3414
  185POPC   H2Y21256   7.023   4.883   3.018 -0.5380 -0.5447  0.7274
  185POPC   C2321257   6.705   5.437   3.113 -0.3701  0.5273  0.2317
  185POPC   H3R21258   6.699   5.326   3.120  0.2006  0.0578 -4.1126
  185POPC   H3S21259   6.624   5.457   3.039  0.9434  0.1995 -1.3473
  185POPC   C2421260   6.683   5.503   3.242 -0.3185 -0.0617 -0.0882
  185POPC   H4R21261   6.662   5.612   3.230  0.3660 -0.1018 -1.9536
  185POPC   H4S21262   6.770   5.498   3.312 -0.9321  1.8478  0.8730
  185POPC   C2521263   6.565   5.434   3.311  0.2648  0.6105 -0.1850
  185POPC   H5R21264   6.502   5.390   3.231  1.1698  2.1158 -1.8018
  185POPC   H5S21265   6.504   5.516   3.355 -1.6392 -1.5359  1.3826
  185POPC   C2621266   6.591   5.350   3.433 -0.4036  0.4520  0.7431
  185POPC   H6R21267   6.671   5.275   3.416 -0.2913  0.6710  0.2731
  185POPC   H6S21268   6.506   5.291   3.471 -1.1278 -0.3030 -1.9026
  185POPC   C2721269   6.667   5.433   3.543  0.1030  0.4185  0.0560
  185POPC   H7R21270   6.604   5.521   3.567  0.0298  0.2402  0.5300
  185POPC   H7S21271   6.770   5.456   3.509  0.5559 -0.1075  1.0112
  185POPC   C2821272   6.682   5.354   3.673  0.5456 -0.2383 -0.4747
  185POPC   H8R21273   6.786   5.318   3.687 -0.7210 -4.1545  0.3234
  185POPC   H8S21274   6.617   5.265   3.657 -1.3053  1.0486 -0.5029
  185POPC   C2921275   6.639   5.441   3.795  1.1482  0.3343 -0.2029
  185POPC   H9121276   6.588   5.537   3.774  3.8576  2.9714  3.8274
  185POPC  C21021277   6.652   5.413   3.924  0.6290  0.5554  0.1852
  185POPC  H10121278   6.624   5.482   4.005  1.6636  0.7546  0.3863
  185POPC  C21121279   6.704   5.280   3.969  1.4618 -0.0091 -0.3486
  185POPC  H11R21280   6.806   5.267   3.926  1.3151  1.3459 -1.1912
  185POPC  H11S21281   6.637   5.205   3.922  1.4448 -0.9482  1.1340
  185POPC  C21221282   6.692   5.272   4.121 -0.4735  0.5711  0.1973
  185POPC  H12R21283   6.587   5.294   4.149 -0.5214 -1.1591  1.4772
  185POPC  H12S21284   6.757   5.349   4.168 -0.6523 -0.0567  1.5192
  185POPC  C21321285   6.719   5.140   4.184  0.5902  0.0534  0.2300
  185POPC  H13R21286   6.829   5.131   4.175  0.7109  1.7076 -0.2980
  185POPC  H13S21287   6.658   5.062   4.133 -2.0337  1.3900  1.1190
  185POPC  C21421288   6.691   5.134   4.332  0.4094  0.4639  0.3827
  185POPC  H14R21289   6.584   5.158   4.350 -0.4471 -2.8250  0.3237
  185POPC  H14S21290   6.742   5.218   4.384  0.6798  1.3109 -1.2090
  185POPC  C21521291   6.698   4.993   4.394  0.4115  0.1086 -0.0241
  185POPC  H15R21292   6.799   4.952   4.371  1.2465  0.7717  2.2179
  185POPC  H15S21293   6.619   4.922   4.361  1.0893 -1.3643  1.3677
  185POPC  C21621294   6.694   5.002   4.543  0.3406  0.3393 -0.6465
  185POPC  H16R21295   6.605   5.058   4.581  0.7894  1.5681 -1.3286
  185POPC  H16S21296   6.780   5.067   4.570  0.4147  0.1205 -0.3572
  185POPC  C21721297   6.701   4.864   4.613 -0.1038  0.1925 -0.8038
  185POPC  H17R21298   6.791   4.808   4.582  1.2108  0.5261  2.1204
  185POPC  H17S21299   6.608   4.805   4.594 -0.4732 -0.1723  1.7153
  185POPC  C21821300   6.691   4.867   4.766  0.9761  0.3967 -0.3647
  185POPC  H18R21301   6.792   4.898   4.799  1.2651 -0.2378 -0.6384
  185POPC  H18S21302   6.657   4.767   4.798  1.3177  0.1326 -0.8197
  185POPC  H18T21303   6.612   4.939   4.798  1.3752  0.7811 -0.2279
  185POPC   C3321304   6.853   5.014   3.045  1.1037 -0.7341 -0.9038
  185POPC   H3X21305   6.801   4.973   2.956 -3.1235 -0.0582  1.0157
  185POPC   H3Y21306   6.837   5.123   3.051  0.7062 -0.8652  2.8952
  185POPC   C3421307   6.796   4.935   3.165  0.6326 -0.3429 -0.9994
  185POPC   H4X21308   6.810   4.825   3.165  0.6702 -0.3580  0.6268
  185POPC   H4Y21309   6.686   4.943   3.157  0.3314 -0.9553  1.6014
  185POPC   C3521310   6.826   5.003   3.301 -0.0450  0.1222  0.3684
  185POPC   H5X21311   6.767   5.095   3.320  0.5716  0.3459  1.2886
  185POPC   H5Y21312   6.930   5.039   3.289  0.4317 -1.5625 -0.9595
  185POPC   C3621313   6.801   4.907   3.426  0.1472 -0.2086  0.1304
  185POPC   H6X21314   6.834   4.803   3.402  0.1862 -0.1638 -0.0140
  185POPC   H6Y21315   6.691   4.900   3.437 -0.0677 -0.9108 -1.9475
  185POPC   C3721316   6.858   4.962   3.561 -0.2177 -1.2384  0.3252
  185POPC   H7X21317   6.843   5.072   3.566  0.1062 -1.1496 -0.4665
  185POPC   H7Y21318   6.965   4.940   3.577 -0.2189 -0.3264  1.8043
  185POPC   C3821319   6.786   4.910   3.683 -0.0658 -0.3120 -0.1776
  185POPC   H8X21320   6.791   4.801   3.663 -3.0816 -0.9041  1.5734
  185POPC   H8Y21321   6.680   4.939   3.663 -0.0135 -0.1814 -0.2635
  185POPC   C3921322   6.826   4.961   3.819  0.2168  0.1059 -0.1296
  185POPC   H9X21323   6.822   5.071   3.835  0.1179 -0.2449  2.7508
  185POPC   H9Y21324   6.934   4.950   3.840  0.3289 -0.0041 -0.7433
  185POPC  C31021325   6.742   4.903   3.938 -0.2690  0.0974 -0.3197
  185POPC  H10X21326   6.656   4.971   3.955  1.0733  1.4050  1.9132
  185POPC  H10Y21327   6.802   4.915   4.032 -1.5009  4.0664  0.1332
  185POPC  C31121328   6.703   4.753   3.927  0.2345  0.3771  0.1191
  185POPC  H11X21329   6.792   4.698   3.889 -1.1883 -1.0614 -1.3062
  185POPC  H11Y21330   6.621   4.723   3.857 -0.4936  0.4359  0.9344
  185POPC  C31221331   6.672   4.710   4.070  0.0017 -0.1036  0.7119
  185POPC  H12X21332   6.573   4.755   4.095  0.2631  0.2921  1.0492
  185POPC  H12Y21333   6.755   4.745   4.135  1.6648 -2.2528 -0.1311
  185POPC  C31321334   6.657   4.559   4.086  0.4167 -0.0461 -0.0414
  185POPC  H13X21335   6.742   4.507   4.036 -1.0729 -1.1667 -1.4904
  185POPC  H13Y21336   6.566   4.536   4.028  1.5200 -1.6864 -1.2126
  185POPC  C31421337   6.639   4.515   4.232  0.1235 -0.0237 -0.4006
  185POPC  H14X21338   6.539   4.554   4.260 -0.0291  0.5754 -1.7179
  185POPC  H14Y21339   6.712   4.563   4.300 -0.6333  0.2003  0.2735
  185POPC  C31521340   6.664   4.364   4.262  0.6597 -0.6927  0.1152
  185POPC  H15X21341   6.577   4.311   4.218 -1.2093  1.0444  1.5141
  185POPC  H15Y21342   6.659   4.347   4.372 -1.8625  0.8586  0.3018
  185POPC  C31621343   6.791   4.313   4.201 -0.6629 -0.4291  0.3917
  185POPC  H16X21344   6.786   4.309   4.091 -1.3433  3.0859  0.1627
  185POPC  H16Y21345   6.813   4.212   4.243 -0.7919 -0.2906  0.8027
  185POPC  H16Z21346   6.876   4.376   4.236 -1.2920  1.0328 -0.6292
  186POPC     N21347   3.887   6.624   2.343  0.4237 -0.6940 -0.3261
  186POPC   C1221348   3.852   6.504   2.428 -0.9561 -0.2155  0.2862
  186POPC  H12A21349   3.946   6.472   2.472  1.3377  1.8925 -2.6429
  186POPC  H12B21350   3.822   6.424   2.362  0.5456 -1.1670  0.6809
  186POPC   C1321351   3.928   6.743   2.424  0.8039 -0.1387  0.2469
  186POPC  H13A21352   3.972   6.822   2.365  1.2457 -1.5038 -1.3508
  186POPC  H13B21353   3.844   6.798   2.464  2.4144  2.0790  0.7280
  186POPC  H13C21354   3.993   6.719   2.507 -0.2324  1.7606  1.6927
  186POPC   C1421355   3.993   6.594   2.241  0.0578 -0.1489  0.4825
  186POPC  H14A21356   3.974   6.514   2.172  0.2708 -0.4708  0.7994
  186POPC  H14B21357   3.992   6.682   2.178 -2.0558 -0.5367 -0.1125
  186POPC  H14C21358   4.088   6.577   2.288 -0.0326 -1.1445  0.3264
  186POPC   C1521359   3.768   6.671   2.260  0.5396 -0.1140  0.1230
  186POPC  H15A21360   3.725   6.589   2.205 -1.0172  0.2754  0.6939
  186POPC  H15B21361   3.786   6.756   2.196 -0.6142  0.7137  0.8608
  186POPC  H15C21362   3.689   6.701   2.328 -0.4790 -0.6112 -0.8093
  186POPC   C1121363   3.752   6.526   2.542 -0.4805 -0.0403 -0.4839
  186POPC  H11A21364   3.718   6.431   2.590  0.0896  0.5832  1.2174
  186POPC  H11B21365   3.652   6.563   2.512 -0.5490  0.8516  0.7855
  186POPC     P21366   3.871   6.572   2.777 -0.1068  0.0646  0.3386
  186POPC   O1321367   4.021   6.577   2.769 -0.5289 -0.1637 -0.2412
  186POPC   O1421368   3.810   6.439   2.812  0.0661 -0.3498  0.6418
  186POPC   O1221369   3.804   6.615   2.639  0.2916 -0.4335  0.0736
  186POPC   O1121370   3.813   6.687   2.872 -0.4366  0.3219  0.2877
  186POPC    C121371   3.701   6.666   2.954 -0.1346 -0.4346  0.5756
  186POPC    HA21372   3.656   6.565   2.939  2.6159 -1.7722  0.7363
  186POPC    HB21373   3.620   6.740   2.931  1.5082  1.2327 -0.0867
  186POPC    C221374   3.745   6.671   3.104 -0.6249  0.5779  0.0258
  186POPC    HS21375   3.654   6.643   3.161 -1.2834 -0.0420 -1.3110
  186POPC   O2121376   3.799   6.799   3.136  0.8134  0.4754  0.3671
  186POPC   C2121377   3.793   6.822   3.271 -0.3548 -1.1312 -0.0600
  186POPC   O2221378   3.728   6.762   3.350 -0.4366 -0.2223 -0.2088
  186POPC   C2221379   3.895   6.938   3.302 -0.4795 -0.5855 -0.5169
  186POPC   H2R21380   3.838   7.033   3.305 -0.0730 -0.3515 -0.2581
  186POPC   H2S21381   3.965   6.951   3.217  1.3098 -1.3325  0.7843
  186POPC    C321382   3.851   6.561   3.125 -0.2695  0.8385 -0.1546
  186POPC    HX21383   3.948   6.593   3.081  1.3880 -0.0311  2.6301
  186POPC    HY21384   3.805   6.476   3.069 -1.1227 -0.2321  2.0259
  186POPC   O3121385   3.873   6.535   3.265  0.0497  0.4709 -0.2156
  186POPC   C3121386   3.780   6.463   3.321 -0.0289  0.0261  0.8639
  186POPC   O3221387   3.690   6.404   3.261 -0.2353  0.3329  0.1213
  186POPC   C3221388   3.792   6.478   3.477  0.1717 -0.3506 -0.1007
  186POPC   H2X21389   3.793   6.587   3.493  0.2110 -0.3571 -0.0602
  186POPC   H2Y21390   3.895   6.436   3.487  1.2327  1.7280 -1.5879
  186POPC   C2321391   3.975   6.912   3.434  0.8502 -0.1806  0.9179
  186POPC   H3R21392   3.908   6.872   3.512  1.4462 -2.0722  0.5205
  186POPC   H3S21393   4.024   7.007   3.467  0.1350  1.2032 -1.7521
  186POPC   C2421394   4.089   6.815   3.390  0.1499  0.2978 -0.0818
  186POPC   H4R21395   4.159   6.861   3.317  2.3247 -1.5291  0.7398
  186POPC   H4S21396   4.049   6.725   3.340 -0.0127 -0.6841  1.7237
  186POPC   C2521397   4.177   6.771   3.511  0.7404 -0.8438  0.8978
  186POPC   H5R21398   4.213   6.866   3.558 -1.2759 -0.8412  2.6487
  186POPC   H5S21399   4.259   6.712   3.467  0.3869  1.9192 -4.1554
  186POPC   C2621400   4.103   6.688   3.612 -0.4394 -0.8111  0.6226
  186POPC   H6R21401   4.070   6.593   3.565  1.3454 -1.0899 -0.1176
  186POPC   H6S21402   4.026   6.746   3.667 -0.1348 -0.6240  0.8492
  186POPC   C2721403   4.203   6.630   3.705 -1.1066  0.1367  0.5772
  186POPC   H7R21404   4.273   6.713   3.730  0.3597 -0.3922 -1.4741
  186POPC   H7S21405   4.280   6.565   3.659 -0.6079 -1.0270  2.9191
  186POPC   C2821406   4.132   6.581   3.836  0.0262 -0.2618 -0.1563
  186POPC   H8R21407   4.046   6.518   3.806 -1.2746  1.1173  0.5336
  186POPC   H8S21408   4.092   6.673   3.884  2.2579 -0.0255  1.4137
  186POPC   C2921409   4.231   6.506   3.932  0.0030  0.1294  0.1986
  186POPC   H9121410   4.264   6.406   3.900  1.3720  0.4104  0.6845
  186POPC  C21021411   4.281   6.543   4.047  0.2120 -0.5122  0.4329
  186POPC  H10121412   4.347   6.476   4.104  1.7531 -0.6968 -1.4659
  186POPC  C21121413   4.267   6.683   4.094  0.1159  0.6753  0.2580
  186POPC  H11R21414   4.238   6.756   4.015 -2.3518 -0.6308 -0.1204
  186POPC  H11S21415   4.370   6.712   4.124  0.4237 -2.3632  2.6010
  186POPC  C21221416   4.173   6.697   4.213  0.3945  0.1907  0.0651
  186POPC  H12R21417   4.207   6.623   4.288 -1.0635 -0.0880  0.4795
  186POPC  H12S21418   4.076   6.661   4.172  0.0259 -0.3591  1.3846
  186POPC  C21321419   4.170   6.832   4.289  0.2742  0.2771  0.0766
  186POPC  H13R21420   4.141   6.904   4.210 -1.0924 -1.2820 -0.9104
  186POPC  H13S21421   4.275   6.860   4.316  1.0795 -2.8026  0.5372
  186POPC  C21421422   4.068   6.830   4.402 -0.3936  0.1147  0.4232
  186POPC  H14R21423   4.075   6.931   4.447  2.0086  0.1618  0.0896
  186POPC  H14S21424   4.107   6.758   4.477  1.9860  0.0472 -0.7840
  186POPC  C21521425   3.920   6.796   4.360 -0.0308 -0.5782  0.4718
  186POPC  H15R21426   3.912   6.707   4.294 -2.8687 -0.2379  0.2197
  186POPC  H15S21427   3.869   6.884   4.315 -2.2964 -1.1741  1.6961
  186POPC  C21621428   3.843   6.744   4.477  0.5581  0.0029  0.1863
  186POPC  H16R21429   3.827   6.820   4.556  0.0242  2.1671 -1.9005
  186POPC  H16S21430   3.885   6.652   4.524 -0.1003 -0.2394  0.3122
  186POPC  C21721431   3.689   6.721   4.440 -0.6500  0.0875  0.4775
  186POPC  H17R21432   3.682   6.633   4.372  0.7260  0.4372 -0.1471
  186POPC  H17S21433   3.641   6.809   4.392  0.1676 -0.5431 -1.6168
  186POPC  C21821434   3.594   6.699   4.558 -0.4296 -0.3950  0.1570
  186POPC  H18R21435   3.618   6.604   4.610  2.6777  0.3859  0.3694
  186POPC  H18S21436   3.596   6.785   4.628  0.7133 -1.8874  2.0605
  186POPC  H18T21437   3.490   6.698   4.520 -0.5037  0.1207  0.3380
  186POPC   C3321438   3.670   6.398   3.531 -0.3341  1.2401  0.2126
  186POPC   H3X21439   3.666   6.289   3.508 -1.2386  0.7065  2.6538
  186POPC   H3Y21440   3.580   6.436   3.478  0.5122  0.2461 -2.0846
  186POPC   C3421441   3.656   6.423   3.681  0.5437  0.4580 -0.4879
  186POPC   H4X21442   3.584   6.345   3.713  1.8958 -0.8480 -0.5239
  186POPC   H4Y21443   3.605   6.516   3.715  0.0608  0.1676 -0.4088
  186POPC   C3521444   3.778   6.383   3.758 -0.1454 -0.1678 -0.1892
  186POPC   H5X21445   3.833   6.477   3.781  1.3701 -0.9882 -0.3510
  186POPC   H5Y21446   3.848   6.318   3.703  0.4677  1.2505 -1.1546
  186POPC   C3621447   3.750   6.316   3.891  0.4282 -0.7456  0.3334
  186POPC   H6X21448   3.733   6.210   3.865 -0.7449 -0.2146 -1.1887
  186POPC   H6Y21449   3.659   6.356   3.940  1.6903  2.2046  0.5555
  186POPC   C3721450   3.869   6.336   3.988  0.2603 -0.0397  0.3336
  186POPC   H7X21451   3.868   6.445   4.013 -0.9173  0.2728 -0.9754
  186POPC   H7Y21452   3.963   6.304   3.939 -1.3066 -0.3054 -2.6868
  186POPC   C3821453   3.844   6.249   4.109 -0.4912 -0.6391  1.2885
  186POPC   H8X21454   3.856   6.143   4.078  1.5197 -0.3064  0.7925
  186POPC   H8Y21455   3.745   6.276   4.150 -0.1095 -0.9482  2.4384
  186POPC   C3921456   3.962   6.264   4.210  0.8296  0.7182  0.2803
  186POPC   H9X21457   3.967   6.369   4.243  2.9131  1.1740 -1.2620
  186POPC   H9Y21458   4.053   6.235   4.153 -0.6304  0.0223 -1.8573
  186POPC  C31021459   3.934   6.178   4.339 -0.2393  0.3829  1.3609
  186POPC  H10X21460   4.030   6.138   4.378 -0.4176 -0.0059  1.4138
  186POPC  H10Y21461   3.866   6.090   4.324 -1.1706  1.4464 -1.4705
  186POPC  C31121462   3.862   6.257   4.444 -0.2214 -0.3776 -0.3853
  186POPC  H11X21463   3.761   6.283   4.408 -0.6685 -0.7034  0.6044
  186POPC  H11Y21464   3.924   6.344   4.475  0.9206 -0.6170 -1.8689
  186POPC  C31221465   3.856   6.176   4.576  0.6730 -0.2592 -0.1940
  186POPC  H12X21466   3.797   6.239   4.647 -0.3484 -0.3732 -0.9085
  186POPC  H12Y21467   3.957   6.164   4.620  1.7146 -1.7256 -2.7908
  186POPC  C31321468   3.775   6.052   4.579 -0.1350 -0.3188  0.1149
  186POPC  H13X21469   3.810   5.993   4.491 -2.0261 -1.0809 -0.1793
  186POPC  H13Y21470   3.671   6.088   4.564  0.7678  2.0746 -0.8224
  186POPC  C31421471   3.798   5.951   4.698  0.2809 -0.0255 -0.3229
  186POPC  H14X21472   3.728   5.865   4.698 -3.4233  2.7491  0.2024
  186POPC  H14Y21473   3.772   6.009   4.789 -2.3190 -0.1393 -0.9187
  186POPC  C31521474   3.948   5.903   4.699 -0.4036  0.0114  0.9119
  186POPC  H15X21475   3.976   5.853   4.795 -1.3278 -2.7645 -0.1536
  186POPC  H15Y21476   4.009   5.994   4.687 -0.5573 -0.0310 -0.2754
  186POPC  C31621477   3.979   5.808   4.582  0.2144  0.5690  0.5200
  186POPC  H16X21478   3.966   5.874   4.494 -0.2893  1.4582  1.2436
  186POPC  H16Y21479   3.906   5.725   4.572  2.0996 -0.9571 -1.4947
  186POPC  H16Z21480   4.083   5.769   4.587  1.6339  3.2163 -3.4621
  187POPC     N21481   1.914   4.751   2.785 -0.3767  0.4469  0.2031
  187POPC   C1221482   1.928   4.902   2.783 -0.3959 -0.1606 -0.3090
  187POPC  H12A21483   1.898   4.937   2.685  0.4865 -0.2140 -0.6038
  187POPC  H12B21484   2.035   4.918   2.777 -0.3554 -0.4436 -0.3615
  187POPC   C1321485   1.987   4.689   2.898 -0.0486  0.0646  0.0615
  187POPC  H13A21486   1.963   4.585   2.918 -1.4434  0.4148  0.2800
  187POPC  H13B21487   2.095   4.694   2.890 -0.0617  0.7433  0.2934
  187POPC  H13C21488   1.957   4.736   2.991 -1.5665 -1.0160  0.1600
  187POPC   C1421489   1.776   4.712   2.795  0.3365 -0.0160 -0.4344
  187POPC  H14A21490   1.758   4.606   2.811  1.5258 -0.2867 -0.7728
  187POPC  H14B21491   1.727   4.758   2.880  0.3608 -2.1001  0.7822
  187POPC  H14C21492   1.723   4.742   2.707  0.6862  0.7799 -0.3775
  187POPC   C1521493   1.979   4.694   2.662  0.8541 -0.3721  0.1229
  187POPC  H15A21494   2.077   4.738   2.659 -0.3991  2.6673 -0.1212
  187POPC  H15B21495   1.931   4.722   2.570  0.0762 -4.2848 -0.8457
  187POPC  H15C21496   1.974   4.586   2.665 -2.7476 -0.3779 -0.9479
  187POPC   C1121497   1.864   4.989   2.886 -0.6522 -0.5018  0.1467
  187POPC  H11A21498   1.912   5.089   2.896 -1.7729  0.0111  0.5320
  187POPC  H11B21499   1.861   4.937   2.984 -3.0728 -0.9199 -0.0848
  187POPC     P21500   1.687   5.084   2.726  0.3385 -0.1275  0.0847
  187POPC   O1321501   1.583   5.009   2.644  0.1308 -0.0650 -0.1596
  187POPC   O1421502   1.807   5.128   2.649 -0.4461 -0.0375  0.2267
  187POPC   O1221503   1.723   4.992   2.848 -0.2450  0.3040 -0.0411
  187POPC   O1121504   1.615   5.210   2.792  0.3474 -0.8473  0.2229
  187POPC    C121505   1.531   5.210   2.905 -0.1815 -0.0452 -0.0530
  187POPC    HA21506   1.507   5.105   2.930 -2.2628  1.1395  3.7374
  187POPC    HB21507   1.432   5.257   2.893 -1.1719 -2.0404 -0.0484
  187POPC    C221508   1.612   5.263   3.029  0.6758  0.7525  0.7031
  187POPC    HS21509   1.705   5.203   3.045 -0.6463 -1.1499  1.5495
  187POPC   O2121510   1.526   5.264   3.138  0.3088  0.6023 -0.3074
  187POPC   C2121511   1.494   5.140   3.187 -0.4068 -0.1870 -0.4370
  187POPC   O2221512   1.546   5.036   3.162  0.2075  0.9561  0.4527
  187POPC   C2221513   1.385   5.156   3.283  0.2923 -0.4176 -0.3363
  187POPC   H2R21514   1.349   5.055   3.313 -0.0773 -0.6667 -1.5548
  187POPC   H2S21515   1.298   5.204   3.233  0.0055  2.0226  2.2668
  187POPC    C321516   1.647   5.406   3.002 -0.2926 -0.5418  0.2531
  187POPC    HX21517   1.556   5.461   2.969  1.4759  2.2224 -0.3617
  187POPC    HY21518   1.706   5.425   2.910 -0.0636  0.9638  0.6873
  187POPC   O3121519   1.690   5.478   3.117 -0.3180  0.1802 -0.4086
  187POPC   C3121520   1.774   5.578   3.085 -0.6625  0.0178  0.0156
  187POPC   O3221521   1.807   5.617   2.976  0.2511 -0.0410 -0.3141
  187POPC   C3221522   1.833   5.632   3.216  0.0244 -0.3016  0.4250
  187POPC   H2X21523   1.806   5.740   3.222 -1.7059 -0.7145  0.5764
  187POPC   H2Y21524   1.943   5.622   3.219  0.4757  3.2171  3.9653
  187POPC   C2321525   1.431   5.229   3.411  0.3045  0.3618 -0.5028
  187POPC   H3R21526   1.445   5.338   3.398  0.9438  0.3670  0.1470
  187POPC   H3S21527   1.533   5.189   3.429 -0.3854 -1.7521 -0.9777
  187POPC   C2421528   1.342   5.211   3.531 -0.5772  0.1486 -0.4698
  187POPC   H4R21529   1.351   5.106   3.566  1.5368  0.0909 -1.0473
  187POPC   H4S21530   1.242   5.246   3.501  0.1863 -0.2504 -3.8627
  187POPC   C2521531   1.390   5.306   3.656  0.4063 -0.2441  0.2872
  187POPC   H5R21532   1.368   5.408   3.618  0.3353 -0.6166 -0.7221
  187POPC   H5S21533   1.498   5.301   3.682  0.0426  1.0231  2.1910
  187POPC   C2621534   1.317   5.272   3.782  0.0361  0.3813 -0.0067
  187POPC   H6R21535   1.370   5.183   3.823  0.7897  0.1490 -1.4118
  187POPC   H6S21536   1.209   5.247   3.770 -0.1127  0.0679  1.6972
  187POPC   C2721537   1.329   5.383   3.900  0.7874 -0.1753  0.2483
  187POPC   H7R21538   1.307   5.478   3.847  1.4137 -0.3492 -0.3399
  187POPC   H7S21539   1.439   5.388   3.916  0.6410  1.3502  0.9257
  187POPC   C2821540   1.254   5.368   4.028 -0.3405  0.3833  0.0891
  187POPC   H8R21541   1.146   5.373   4.003 -0.1580  1.6214 -0.5283
  187POPC   H8S21542   1.277   5.449   4.101 -1.5243  0.3102  0.5675
  187POPC   C2921543   1.304   5.232   4.085  0.3435 -0.8335  0.1201
  187POPC   H9121544   1.405   5.199   4.060  1.6281  1.9333  1.1774
  187POPC  C21021545   1.233   5.156   4.167 -0.0498 -1.0041  0.3042
  187POPC  H10121546   1.267   5.058   4.204  0.6289 -0.4145  1.2879
  187POPC  C21121547   1.090   5.188   4.217  0.0071  0.3839 -0.5960
  187POPC  H11R21548   1.017   5.182   4.134 -0.2257 -0.3321 -0.3465
  187POPC  H11S21549   1.080   5.293   4.253  0.8916  0.3786 -0.2977
  187POPC  C21221550   1.024   5.099   4.330  0.5834 -0.3375 -0.0106
  187POPC  H12R21551   0.938   5.154   4.373  0.3836  0.2165 -1.0767
  187POPC  H12S21552   1.092   5.090   4.417  1.1698  0.9730 -0.3098
  187POPC  C21321553   0.955   4.971   4.282  0.6279  0.1387  0.6670
  187POPC  H13R21554   1.032   4.913   4.227 -0.8879 -0.7725 -0.5736
  187POPC  H13S21555   0.881   4.985   4.201  0.8368 -2.2435  0.0065
  187POPC  C21421556   0.908   4.877   4.393  0.2603  0.2937  0.0469
  187POPC  H14R21557   0.851   4.794   4.346 -1.2139  2.0931 -1.4851
  187POPC  H14S21558   0.827   4.935   4.443  0.5685  1.7229 -1.0488
  187POPC  C21521559   1.015   4.822   4.495 -0.5435  0.3223 -0.2181
  187POPC  H15R21560   1.044   4.900   4.568 -0.5636 -1.0158  1.2799
  187POPC  H15S21561   1.105   4.801   4.434 -0.1051 -0.2052  0.5988
  187POPC  C21621562   0.980   4.690   4.568 -0.1122 -0.2773 -0.4900
  187POPC  H16R21563   0.981   4.606   4.494 -1.1774 -1.0240  0.3146
  187POPC  H16S21564   0.879   4.711   4.608  0.0207  1.3475 -0.9343
  187POPC  C21721565   1.072   4.648   4.684 -1.0008 -0.0911  0.2592
  187POPC  H17R21566   1.071   4.716   4.772 -0.5649  1.1470 -0.6762
  187POPC  H17S21567   1.179   4.652   4.657 -1.1504 -1.8435 -0.7405
  187POPC  C21821568   1.035   4.510   4.730 -0.4363 -0.3953 -0.4945
  187POPC  H18R21569   0.935   4.510   4.778 -1.5696  0.5413 -2.6933
  187POPC  H18S21570   1.112   4.495   4.809  0.2707  0.3618 -1.0186
  187POPC  H18T21571   1.040   4.438   4.646 -0.6414 -2.0321  0.8393
  187POPC   C3321572   1.783   5.568   3.350 -0.5289 -0.0966  0.9294
  187POPC   H3X21573   1.818   5.463   3.348 -2.9235 -0.9621 -0.2225
  187POPC   H3Y21574   1.673   5.569   3.367 -0.8205  2.6660 -0.4444
  187POPC   C3421575   1.855   5.645   3.460  0.7119 -0.1532  0.5073
  187POPC   H4X21576   1.813   5.748   3.459 -0.6150 -0.6825  0.3902
  187POPC   H4Y21577   1.964   5.647   3.440  0.5153 -1.5001 -0.8010
  187POPC   C3521578   1.842   5.590   3.605  0.3832  0.5466  0.3335
  187POPC   H5X21579   1.889   5.492   3.628  1.3636  0.3932 -2.0222
  187POPC   H5Y21580   1.732   5.574   3.618  0.3437 -1.9027 -2.1156
  187POPC   C3621581   1.877   5.672   3.733 -0.0408  0.3559 -0.0819
  187POPC   H6X21582   1.855   5.781   3.728  2.0975  0.7671 -2.5727
  187POPC   H6Y21583   1.986   5.670   3.752 -0.2767 -1.9699  1.5215
  187POPC   C3721584   1.817   5.610   3.862  1.0195  0.2097 -0.5930
  187POPC   H7X21585   1.844   5.503   3.867 -1.2461 -0.4218 -0.4311
  187POPC   H7Y21586   1.706   5.611   3.849  0.9261  0.8232  0.1557
  187POPC   C3821587   1.873   5.667   3.988  0.2448  0.5916 -0.6614
  187POPC   H8X21588   1.845   5.775   3.979 -2.2336  0.0543 -0.1927
  187POPC   H8Y21589   1.981   5.647   4.003  0.0555 -0.4799 -0.6558
  187POPC   C3921590   1.805   5.610   4.119  0.4874 -0.2162  0.6629
  187POPC   H9X21591   1.824   5.502   4.133  1.8361 -0.1838 -0.6994
  187POPC   H9Y21592   1.695   5.625   4.120  0.3814  0.4562 -3.3678
  187POPC  C31021593   1.845   5.682   4.254 -0.7475 -0.0930 -0.3609
  187POPC  H10X21594   1.842   5.791   4.230  2.1675  0.1603  0.1272
  187POPC  H10Y21595   1.949   5.652   4.277 -0.8244 -0.2313 -0.1981
  187POPC  C31121596   1.747   5.669   4.369  0.6345  0.0242 -0.0694
  187POPC  H11X21597   1.645   5.689   4.329 -0.1286 -4.0470 -0.6673
  187POPC  H11Y21598   1.766   5.748   4.444 -0.2496 -0.4539  0.6866
  187POPC  C31221599   1.766   5.542   4.451  1.1618  0.3415 -0.1797
  187POPC  H12X21600   1.866   5.532   4.499 -0.2017 -1.9043  2.4269
  187POPC  H12Y21601   1.757   5.452   4.385 -1.5559  0.1131  0.3884
  187POPC  C31321602   1.672   5.539   4.572  0.4518  0.1885  0.1130
  187POPC  H13X21603   1.569   5.509   4.545 -0.0353  2.0308 -0.2423
  187POPC  H13Y21604   1.645   5.645   4.592 -2.7648 -0.4036 -0.5676
  187POPC  C31421605   1.715   5.474   4.706 -0.4811 -0.5349  0.1927
  187POPC  H14X21606   1.811   5.522   4.736 -0.4194 -0.4173 -0.1827
  187POPC  H14Y21607   1.718   5.366   4.676 -0.8320 -0.5810  0.3322
  187POPC  C31521608   1.605   5.485   4.812 -0.8219 -0.5383 -0.0937
  187POPC  H15X21609   1.515   5.439   4.765 -1.1659 -0.5158  0.5430
  187POPC  H15Y21610   1.580   5.589   4.841  0.1612  0.2142 -1.7326
  187POPC  C31621611   1.662   5.425   4.939  0.2885 -0.6402 -0.2564
  187POPC  H16X21612   1.583   5.417   5.017  0.9219 -2.2614  0.2628
  187POPC  H16Y21613   1.742   5.490   4.981 -0.6984  0.2773  0.2323
  187POPC  H16Z21614   1.696   5.320   4.925  3.0199  0.0389  0.7268
  188POPC     N21615   3.415   5.032   2.417 -0.0865 -0.1103  0.2589
  188POPC   C1221616   3.552   5.030   2.491  0.5557  0.0919 -0.0786
  188POPC  H12A21617   3.609   5.111   2.448  2.1180 -0.8216  0.2188
  188POPC  H12B21618   3.604   4.938   2.468  0.6099  0.5556 -2.0668
  188POPC   C1321619   3.355   5.168   2.424  0.2034  0.5554 -0.3000
  188POPC  H13A21620   3.366   5.209   2.523 -0.5048  0.8728 -0.3478
  188POPC  H13B21621   3.407   5.235   2.357  0.7185 -0.9835 -1.4997
  188POPC  H13C21622   3.249   5.165   2.404  0.0887  1.6329  0.1006
  188POPC   C1421623   3.444   5.002   2.271 -0.5686  0.1685  0.6242
  188POPC  H14A21624   3.362   5.043   2.214 -0.0531  0.4927  0.1086
  188POPC  H14B21625   3.539   5.041   2.237 -2.1902  1.9364 -2.3265
  188POPC  H14C21626   3.453   4.895   2.257 -2.1153 -0.1109  1.5225
  188POPC   C1521627   3.325   4.930   2.474  0.5549  1.0889  0.0193
  188POPC  H15A21628   3.278   4.976   2.560  0.3709 -1.1658  1.1958
  188POPC  H15B21629   3.376   4.840   2.504  0.0103 -0.3236 -2.9293
  188POPC  H15C21630   3.247   4.903   2.405  1.9097  1.5020 -1.7344
  188POPC   C1121631   3.541   5.048   2.641  0.6742 -0.2273 -0.3283
  188POPC  H11A21632   3.643   5.043   2.685  0.1858 -1.4163  0.7583
  188POPC  H11B21633   3.481   4.965   2.685  0.2826  0.5477  0.6450
  188POPC     P21634   3.544   5.306   2.673  0.1362 -0.0289 -0.1498
  188POPC   O1321635   3.445   5.416   2.691 -0.1976 -0.0305  0.0364
  188POPC   O1421636   3.628   5.312   2.549  0.2508  0.3641 -0.1505
  188POPC   O1221637   3.473   5.168   2.680  0.2315 -0.1720 -0.3876
  188POPC   O1121638   3.635   5.290   2.807 -0.7203  0.2229 -0.9308
  188POPC    C121639   3.596   5.328   2.941 -0.3107  0.3281 -0.4126
  188POPC    HA21640   3.490   5.363   2.940 -0.5738 -0.4550 -0.8575
  188POPC    HB21641   3.669   5.404   2.975 -0.5355  0.3920 -0.0693
  188POPC    C221642   3.598   5.211   3.035  0.2005  0.4601 -0.6953
  188POPC    HS21643   3.670   5.138   2.991  1.0391  0.2917  0.8763
  188POPC   O2121644   3.463   5.152   3.041  0.1005  0.4053 -0.0312
  188POPC   C2121645   3.460   5.022   3.083  0.6491  0.3930  0.1638
  188POPC   O2221646   3.559   4.956   3.105  0.0960 -0.3055 -0.0984
  188POPC   C2221647   3.311   4.978   3.103 -0.2584  0.0977  0.5814
  188POPC   H2R21648   3.273   4.924   3.014 -0.6857  1.2099  0.0664
  188POPC   H2S21649   3.254   5.073   3.109 -1.0843 -0.2200 -1.4491
  188POPC    C321650   3.640   5.266   3.174  0.3290  0.6109 -0.3589
  188POPC    HX21651   3.549   5.315   3.216 -0.9407 -2.1265  0.3157
  188POPC    HY21652   3.720   5.342   3.164 -0.6341  1.7990  0.5420
  188POPC   O3121653   3.675   5.156   3.263  0.5196 -0.7141  0.4940
  188POPC   C3121654   3.789   5.096   3.232  0.1293  0.3121 -0.8057
  188POPC   O3221655   3.872   5.140   3.157  0.1332 -0.5975  0.4583
  188POPC   C3221656   3.813   4.983   3.330  0.0364  0.1916  0.7756
  188POPC   H2X21657   3.811   4.895   3.261 -1.1424  0.6791  0.1645
  188POPC   H2Y21658   3.735   4.977   3.408 -0.0518  0.6282  0.7196
  188POPC   C2321659   3.305   4.886   3.225  0.3351 -0.3619 -0.4357
  188POPC   H3R21660   3.356   4.794   3.191  1.7442  0.4689 -0.6308
  188POPC   H3S21661   3.199   4.861   3.249 -0.0461  1.2564 -0.2791
  188POPC   C2421662   3.363   4.938   3.356 -0.2319  0.1808 -0.2148
  188POPC   H4R21663   3.474   4.941   3.347 -0.2209 -0.9441 -0.5505
  188POPC   H4S21664   3.346   4.861   3.434  2.3474  0.6920  1.0008
  188POPC   C2521665   3.301   5.069   3.399  0.0134 -0.3279  0.1197
  188POPC   H5R21666   3.192   5.050   3.406 -0.0722 -1.5711 -2.9019
  188POPC   H5S21667   3.315   5.138   3.313  0.5116 -0.5403  0.0268
  188POPC   C2621668   3.353   5.126   3.528 -0.3116 -0.3372  0.5539
  188POPC   H6R21669   3.331   5.235   3.524  2.4375  0.2486 -1.8401
  188POPC   H6S21670   3.463   5.120   3.536 -0.0414  0.8960 -1.5292
  188POPC   C2721671   3.284   5.072   3.657  0.1205 -0.2372 -0.7738
  188POPC   H7R21672   3.306   4.963   3.649  1.9298 -0.0548  0.9358
  188POPC   H7S21673   3.177   5.100   3.661  0.8764  2.9199  2.9545
  188POPC   C2821674   3.353   5.107   3.797 -0.2385 -0.3999 -0.2195
  188POPC   H8R21675   3.343   5.217   3.809  0.1347 -0.0421 -2.5965
  188POPC   H8S21676   3.460   5.078   3.781 -0.6511 -1.0512 -2.0275
  188POPC   C2921677   3.305   5.032   3.915 -0.5661 -0.4660 -0.4285
  188POPC   H9121678   3.300   4.922   3.916  0.9328 -0.5632  1.1646
  188POPC  C21021679   3.229   5.086   4.011  0.6740  0.0591  0.2852
  188POPC  H10121680   3.202   5.026   4.099  1.1136  0.3831  0.6482
  188POPC  C21121681   3.188   5.231   4.034  0.0192 -0.6875  0.6675
  188POPC  H11R21682   3.078   5.231   4.040  0.0307 -3.2494  2.9405
  188POPC  H11S21683   3.225   5.300   3.954  0.2123 -1.0523  0.4360
  188POPC  C21221684   3.254   5.283   4.165  0.0782 -0.3073  0.2391
  188POPC  H12R21685   3.227   5.390   4.178  0.1069 -0.2719  0.0169
  188POPC  H12S21686   3.365   5.285   4.163  0.0883  0.3283  1.0197
  188POPC  C21321687   3.204   5.223   4.296 -0.2756  0.1169 -0.3505
  188POPC  H13R21688   3.175   5.117   4.283 -0.9392  0.3387 -0.7029
  188POPC  H13S21689   3.126   5.285   4.346 -0.5900 -0.9946  0.5906
  188POPC  C21421690   3.308   5.218   4.413  0.1687  0.0608 -0.6880
  188POPC  H14R21691   3.368   5.312   4.411 -0.7779  0.6920  0.0203
  188POPC  H14S21692   3.377   5.132   4.399  1.3187  0.2309  2.9735
  188POPC  C21521693   3.236   5.206   4.545 -0.3029  0.6153  0.3312
  188POPC  H15R21694   3.304   5.160   4.621 -1.1878 -1.3638 -0.0228
  188POPC  H15S21695   3.155   5.130   4.539  0.1607  0.1501 -0.1583
  188POPC  C21621696   3.191   5.332   4.612  0.5949 -0.0514 -0.1793
  188POPC  H16R21697   3.093   5.357   4.566  1.7492  3.4281 -1.0190
  188POPC  H16S21698   3.257   5.418   4.586  1.3983 -0.8818 -0.9790
  188POPC  C21721699   3.179   5.326   4.773  0.5812  0.0078 -0.2539
  188POPC  H17R21700   3.119   5.237   4.802  1.7700 -0.3013  1.4502
  188POPC  H17S21701   3.124   5.417   4.804 -0.6743 -0.5968 -0.6677
  188POPC  C21821702   3.314   5.325   4.838 -0.7198  0.1171 -0.1006
  188POPC  H18R21703   3.392   5.259   4.793 -1.5492 -3.1671  2.8665
  188POPC  H18S21704   3.311   5.281   4.940  0.3938 -2.3603 -1.0682
  188POPC  H18T21705   3.356   5.428   4.841  0.6903 -0.3923 -1.0618
  188POPC   C3321706   3.953   4.991   3.401  0.0544  0.0727  0.2826
  188POPC   H3X21707   4.034   5.008   3.327  0.4906  2.6059  1.2697
  188POPC   H3Y21708   3.958   4.891   3.449 -0.2018 -0.8757 -1.5331
  188POPC   C3421709   3.951   5.110   3.495  0.2110 -0.2400  0.0244
  188POPC   H4X21710   3.845   5.124   3.528  0.1794 -0.0186 -0.1669
  188POPC   H4Y21711   3.983   5.203   3.444 -0.7484 -0.6006 -1.3217
  188POPC   C3521712   4.044   5.081   3.615  0.8054 -0.5158 -0.3596
  188POPC   H5X21713   4.147   5.084   3.573  0.8461 -1.0538 -0.3163
  188POPC   H5Y21714   4.017   4.979   3.650 -0.7615 -0.9129 -2.5457
  188POPC   C3621715   4.030   5.187   3.723 -0.0337 -0.2513  0.4724
  188POPC   H6X21716   3.924   5.188   3.756 -0.0744 -0.2219  0.3438
  188POPC   H6Y21717   4.049   5.286   3.674  0.1979  0.6463  2.2932
  188POPC   C3721718   4.125   5.157   3.844  0.6825 -0.3379 -0.6187
  188POPC   H7X21719   4.233   5.154   3.816  1.1437 -0.2318  1.0348
  188POPC   H7Y21720   4.088   5.058   3.880 -0.5850  0.9584  1.8455
  188POPC   C3821721   4.086   5.251   3.957  0.3275  0.3827 -0.1240
  188POPC   H8X21722   3.976   5.263   3.955  0.2268 -0.1640 -3.7743
  188POPC   H8Y21723   4.125   5.355   3.954  0.3476  0.5188  2.4637
  188POPC   C3921724   4.149   5.191   4.081 -0.6130 -0.0847 -0.2430
  188POPC   H9X21725   4.254   5.158   4.065  0.0158  1.1402  1.0261
  188POPC   H9Y21726   4.085   5.107   4.114 -0.6635 -0.4911 -1.3440
  188POPC  C31021727   4.167   5.294   4.194  0.5392  0.3390  0.0549
  188POPC  H10X21728   4.082   5.367   4.200  0.0654  0.1516 -2.9412
  188POPC  H10Y21729   4.256   5.357   4.174 -0.6743  2.1845  0.1361
  188POPC  C31121730   4.198   5.225   4.334 -0.4960 -0.2434 -0.0339
  188POPC  H11X21731   4.263   5.134   4.334  0.0334  0.1195  0.8883
  188POPC  H11Y21732   4.109   5.195   4.392 -0.5104  0.6851  0.4340
  188POPC  C31221733   4.292   5.319   4.412  0.1412  0.1955 -0.1667
  188POPC  H12X21734   4.393   5.316   4.364  0.3849 -2.0298  0.3825
  188POPC  H12Y21735   4.302   5.276   4.514 -0.3324  1.5614  0.4768
  188POPC  C31321736   4.252   5.462   4.425  0.2967  0.3544 -0.5348
  188POPC  H13X21737   4.144   5.458   4.451  0.4308  1.3456  0.2336
  188POPC  H13Y21738   4.256   5.523   4.332 -0.1921 -0.6061 -1.2068
  188POPC  C31421739   4.328   5.553   4.537  0.3127 -0.1350  0.4300
  188POPC  H14X21740   4.279   5.652   4.544  1.4287  0.6336 -1.7352
  188POPC  H14Y21741   4.432   5.583   4.512 -0.2470  2.0410  0.5550
  188POPC  C31521742   4.319   5.487   4.669 -0.4658 -0.8411  0.1718
  188POPC  H15X21743   4.378   5.393   4.665 -1.5687 -1.6530  1.6638
  188POPC  H15Y21744   4.217   5.446   4.687 -0.0554 -0.6626  3.4804
  188POPC  C31621745   4.367   5.555   4.795  0.2103 -0.3525  0.0919
  188POPC  H16X21746   4.469   5.598   4.789  0.8010 -1.8724 -2.4386
  188POPC  H16Y21747   4.371   5.474   4.872 -0.8901 -0.2178  0.3015
  188POPC  H16Z21748   4.302   5.641   4.820 -1.3878 -0.9605 -1.7389
  189SAPI   C1221749   2.478   6.006   6.906 -0.2723  0.1766  0.1788
  189SAPI    H221750   2.433   5.947   6.824  0.4721  0.2802 -0.3123
  189SAPI    O221751   2.592   5.939   6.960  0.5981 -0.2779 -0.4628
  189SAPI   HO221752   2.668   5.967   6.908  0.9334 -0.7969 -0.2561
  189SAPI   C1321753   2.511   6.145   6.858 -0.1505 -0.1509  0.4848
  189SAPI    H321754   2.418   6.194   6.819  0.1110 -0.5369 -0.6727
  189SAPI    O321755   2.605   6.148   6.744 -0.2838 -0.5330 -0.0507
  189SAPI   HO321756   2.566   6.214   6.686  0.1760  0.1322  0.3836
  189SAPI   C1421757   2.568   6.225   6.973  0.8079  0.2460  0.7916
  189SAPI    H421758   2.671   6.189   6.996  1.4475  1.5002  0.0206
  189SAPI    O421759   2.584   6.362   6.931 -0.1172 -0.5705  0.5029
  189SAPI   HO421760   2.677   6.380   6.913 -0.3432 -0.4808 -0.6456
  189SAPI   C1521761   2.490   6.208   7.102 -0.0629 -0.2686 -0.2178
  189SAPI    H521762   2.399   6.269   7.082 -0.8106 -1.3678 -0.2686
  189SAPI    O521763   2.551   6.270   7.217 -0.3843  0.0226  0.0542
  189SAPI   HO521764   2.636   6.226   7.213 -0.1309  0.5841 -1.6405
  189SAPI   C1621765   2.426   6.072   7.134  0.3120  0.4760 -0.1166
  189SAPI    H621766   2.502   6.013   7.190 -0.9689  0.5733  1.8285
  189SAPI    O621767   2.326   6.096   7.240  0.8514  0.3869 -0.6786
  189SAPI   HO621768   2.304   6.018   7.291  2.0764  1.1489  1.1053
  189SAPI   C1121769   2.363   6.009   7.005 -0.5376 -0.0387 -0.2675
  189SAPI    H121770   2.285   6.082   6.973  0.1666  0.2753 -1.3411
  189SAPI     P21771   2.166   5.830   6.952  0.3172  0.0755 -0.0492
  189SAPI   O1321772   2.081   5.944   6.902 -0.8135 -0.0823  0.0651
  189SAPI   O1421773   2.105   5.718   7.030  0.3727  0.2250  0.0846
  189SAPI   O1221774   2.303   5.882   7.029 -0.5699  0.6175  0.2230
  189SAPI   O1121775   2.230   5.767   6.824  0.0468  0.0638 -0.1276
  189SAPI    C121776   2.308   5.647   6.837 -0.4297 -0.1332  0.1198
  189SAPI    HA21777   2.390   5.651   6.912 -1.7696 -1.3439  1.7191
  189SAPI    HB21778   2.232   5.576   6.875 -1.2735  1.1639  0.9305
  189SAPI    C221779   2.359   5.591   6.694 -0.1150 -0.3221 -0.2995
  189SAPI    HS21780   2.400   5.487   6.694 -0.9800 -0.6735 -0.2045
  189SAPI   O2121781   2.455   5.680   6.642  0.5952 -0.4932  0.0147
  189SAPI   C2121782   2.564   5.694   6.711 -0.4238 -0.2779  0.0768
  189SAPI   O2221783   2.605   5.621   6.804  0.0644 -0.2917 -0.3184
  189SAPI   C2221784   2.650   5.796   6.633  0.0383 -0.5466 -0.7950
  189SAPI   H2R21785   2.580   5.877   6.602 -0.8281 -1.1718 -0.4966
  189SAPI   H2S21786   2.716   5.840   6.711 -0.0804  1.8608 -1.9535
  189SAPI    C321787   2.240   5.574   6.606 -0.1825 -0.1783  0.3553
  189SAPI    HX21788   2.192   5.673   6.616  1.5301  0.7110  0.2120
  189SAPI    HY21789   2.167   5.499   6.644 -1.3358  0.4054 -0.6527
  189SAPI   O3121790   2.271   5.560   6.467 -1.1466 -0.4446  0.6101
  189SAPI   C3121791   2.307   5.442   6.423  0.3936 -0.1294  0.7372
  189SAPI   O3221792   2.325   5.347   6.492 -0.2481  0.4735  0.8327
  189SAPI   C3221793   2.330   5.459   6.266  0.0127 -0.8576 -0.2616
  189SAPI   H2X21794   2.420   5.524   6.266  0.0178 -0.7961  1.7843
  189SAPI   H2Y21795   2.251   5.517   6.214 -0.4824 -1.0593  0.2583
  189SAPI   C2321796   2.739   5.739   6.519 -0.0054 -0.2480  0.7359
  189SAPI   H3R21797   2.799   5.649   6.547  2.2859  0.7690 -0.5811
  189SAPI   H3S21798   2.806   5.824   6.492  1.5582 -1.2924  1.1798
  189SAPI   C2421799   2.666   5.690   6.398 -0.2991  0.4257 -0.3029
  189SAPI   H4R21800   2.592   5.630   6.456  0.3873  0.8253  1.0255
  189SAPI   H4S21801   2.728   5.626   6.332 -0.7149  0.8893 -1.1646
  189SAPI   C2521802   2.615   5.808   6.315  0.1959  0.1342 -0.2817
  189SAPI   H5R21803   2.553   5.877   6.374 -0.2171  1.6358 -2.3240
  189SAPI   C2621804   2.629   5.832   6.183 -0.1515  0.3214  0.2587
  189SAPI   H6R21805   2.597   5.925   6.134  2.4598  0.8942 -0.5022
  189SAPI   C2721806   2.697   5.729   6.084  0.4896  0.9970 -0.4437
  189SAPI   H7R21807   2.635   5.726   5.992  3.4929  2.1028 -2.6990
  189SAPI   H7S21808   2.679   5.628   6.125  3.5864  0.9729  1.1918
  189SAPI   C2821809   2.839   5.753   6.041 -0.1599 -0.6467 -0.8408
  189SAPI   H8R21810   2.915   5.758   6.120  1.0014  0.3786 -1.9886
  189SAPI   C2921811   2.883   5.781   5.918 -0.0601 -0.9741 -0.3817
  189SAPI   H9R21812   2.993   5.794   5.912 -0.0501 -0.5621  0.5625
  189SAPI  C21021813   2.808   5.823   5.788 -0.3893  0.0041  0.2041
  189SAPI  H10R21814   2.875   5.896   5.737  1.4603 -0.9924  1.1146
  189SAPI  H10S21815   2.718   5.880   5.820 -0.2283 -0.5444  1.6974
  189SAPI  C21121816   2.756   5.713   5.695  0.0464 -0.1449 -0.0128
  189SAPI  H11R21817   2.726   5.617   5.739 -0.7156  0.1372  0.0996
  189SAPI  C21221818   2.722   5.723   5.565  0.1013  0.3170 -0.2774
  189SAPI  H12R21819   2.699   5.630   5.512  0.2203  0.1871 -0.0996
  189SAPI  C21321820   2.721   5.849   5.482 -0.1748  0.3496 -0.0218
  189SAPI  H13R21821   2.716   5.937   5.550 -0.3049  1.0086 -0.8611
  189SAPI  H13S21822   2.630   5.849   5.417  0.9842  1.0722 -1.7381
  189SAPI  C21421823   2.841   5.857   5.390 -0.0578 -0.2188 -0.2459
  189SAPI  H14R21824   2.921   5.915   5.439 -1.3511 -0.7326  2.6727
  189SAPI  C21521825   2.865   5.802   5.270 -0.5746 -0.2736 -0.3111
  189SAPI  H15R21826   2.960   5.813   5.216  0.3802 -2.6650  0.7119
  189SAPI  C21621827   2.762   5.732   5.183 -0.3333  0.3577  0.2232
  189SAPI  H16R21828   2.759   5.794   5.091 -0.4609  0.3541  0.2245
  189SAPI  H16S21829   2.661   5.730   5.229  0.0879 -1.3885  1.1750
  189SAPI  C21721830   2.786   5.585   5.133  1.3601 -0.1355  0.2444
  189SAPI  H17R21831   2.744   5.526   5.218  1.3344 -0.9616 -0.3352
  189SAPI  H17S21832   2.893   5.564   5.115  1.2093 -1.7548  1.1011
  189SAPI  C21821833   2.705   5.542   5.009 -0.2988  0.1120  0.2775
  189SAPI  H18R21834   2.728   5.438   4.976  2.0697  0.7619 -0.3785
  189SAPI  H18S21835   2.736   5.611   4.927 -0.0775 -0.5162 -0.1857
  189SAPI  C21921836   2.557   5.549   5.027  0.3414 -0.1324 -0.3509
  189SAPI  H19R21837   2.539   5.649   5.071 -0.6423 -0.7330  0.6507
  189SAPI  H19S21838   2.520   5.477   5.103  1.6245  0.7607  1.1890
  189SAPI  C22021839   2.469   5.529   4.907 -0.3315  0.0197 -0.1421
  189SAPI  H20R21840   2.366   5.494   4.925  0.3721 -2.4523 -0.5338
  189SAPI  H20S21841   2.519   5.452   4.844  2.2840  0.3759  1.3276
  189SAPI  H20T21842   2.460   5.624   4.849 -3.1247  0.8395  1.4616
  189SAPI   C3321843   2.342   5.322   6.203  0.0026 -0.3093  0.6428
  189SAPI   H3X21844   2.239   5.281   6.194  0.0477 -0.6503  1.5863
  189SAPI   H3Y21845   2.401   5.251   6.264  0.0503 -0.4696  0.4097
  189SAPI   C3421846   2.387   5.322   6.052 -0.0064 -0.1202  0.1907
  189SAPI   H4X21847   2.496   5.343   6.047 -0.4401  2.4295 -0.1438
  189SAPI   H4Y21848   2.327   5.396   5.993 -0.5814  2.0555  3.2407
  189SAPI   C3521849   2.355   5.187   5.988 -0.5386 -0.7243  0.4282
  189SAPI   H5X21850   2.251   5.158   6.015 -0.4482 -0.9916  0.4948
  189SAPI   H5Y21851   2.438   5.122   6.023  1.3626  0.6170 -1.3966
  189SAPI   C3621852   2.356   5.193   5.832 -0.9103 -0.6480 -0.3305
  189SAPI   H6X21853   2.261   5.249   5.820 -0.8991 -0.7121 -0.7034
  189SAPI   H6Y21854   2.342   5.090   5.792  0.2386 -1.0723  0.2964
  189SAPI   C3721855   2.484   5.261   5.777  0.4910 -0.0455 -0.4005
  189SAPI   H7X21856   2.557   5.181   5.802 -0.1533 -0.9019 -1.2082
  189SAPI   H7Y21857   2.526   5.358   5.810  2.3284 -0.1556 -2.1960
  189SAPI   C3821858   2.480   5.279   5.621 -0.0518  0.0417  0.1624
  189SAPI   H8X21859   2.483   5.177   5.577  1.0213  0.6244 -1.1528
  189SAPI   H8Y21860   2.571   5.333   5.588 -0.5146  0.3981 -0.5507
  189SAPI   C3921861   2.356   5.358   5.569  0.4034  0.3124  0.5483
  189SAPI   H9X21862   2.357   5.457   5.621  0.2172 -0.3744  1.9164
  189SAPI   H9Y21863   2.262   5.301   5.584  1.9950 -2.8094 -0.5997
  189SAPI  C31021864   2.367   5.381   5.413 -0.9795  0.5582  0.2474
  189SAPI  H10X21865   2.393   5.286   5.361 -0.7254  0.4236  0.6133
  189SAPI  H10Y21866   2.444   5.460   5.400 -0.2848 -0.3136 -1.1689
  189SAPI  C31121867   2.237   5.430   5.354 -0.5762  0.8653 -0.2302
  189SAPI  H11X21868   2.216   5.528   5.401 -0.7360  0.3931  0.7084
  189SAPI  H11Y21869   2.154   5.359   5.376 -0.3352  0.4029 -0.7912
  189SAPI  C31221870   2.245   5.428   5.205 -0.0162  0.1859  0.0463
  189SAPI  H12X21871   2.303   5.338   5.175 -1.4899 -1.3330  1.5703
  189SAPI  H12Y21872   2.305   5.519   5.183  2.2437 -0.7693  1.8612
  189SAPI  C31321873   2.110   5.445   5.137  0.0523  0.7837 -0.7194
  189SAPI  H13X21874   2.043   5.367   5.180 -0.0372 -0.8333 -3.5620
  189SAPI  H13Y21875   2.117   5.407   5.033  0.7334 -1.0542 -0.0606
  189SAPI  C31421876   2.044   5.584   5.148 -0.0726  0.3115  0.9206
  189SAPI  H14X21877   2.065   5.625   5.249  3.3551 -1.3049  1.0018
  189SAPI  H14Y21878   1.935   5.567   5.133  0.0964 -2.9213  2.3361
  189SAPI  C31521879   2.092   5.689   5.040 -0.0396  0.9648  0.2331
  189SAPI  H15X21880   2.202   5.695   5.055  0.6664  3.1142 -4.1883
  189SAPI  H15Y21881   2.044   5.787   5.058 -1.6803  0.3376 -0.5486
  189SAPI  C31621882   2.055   5.647   4.894 -0.2299  0.2261  0.3106
  189SAPI  H16X21883   1.947   5.625   4.877  0.4008 -2.8708 -0.2887
  189SAPI  H16Y21884   2.110   5.556   4.862  1.7390  1.6753 -0.5810
  189SAPI  C31721885   2.099   5.759   4.811  0.6684 -0.0318  0.3706
  189SAPI  H17X21886   2.205   5.779   4.836  0.9111 -1.2427  0.3427
  189SAPI  H17Y21887   2.044   5.852   4.838 -3.1072 -1.5084 -1.4892
  189SAPI  C31821888   2.073   5.742   4.663  0.0419  0.4257  0.0007
  189SAPI  H18X21889   2.139   5.664   4.621 -1.3431 -0.3883 -0.7240
  189SAPI  H18Y21890   2.096   5.840   4.614 -1.4913  0.2672 -1.0901
  189SAPI  H18Z21891   1.964   5.730   4.645  0.4834 -0.0651 -2.6815
  190SAPI   C1221892   1.500   1.846   7.258  0.4794  1.0438 -0.8644
  190SAPI    H221893   1.574   1.873   7.336 -0.5610  0.1017  0.5011
  190SAPI    O221894   1.503   1.700   7.249 -0.5020  0.7509  0.6816
  190SAPI   HO221895   1.570   1.676   7.313 -0.3622 -1.6889 -0.2946
  190SAPI   C1321896   1.370   1.888   7.331  0.1407  0.5509 -0.6544
  190SAPI    H321897   1.383   1.996   7.355  2.7144  0.0450  0.6174
  190SAPI    O321898   1.371   1.831   7.465 -0.2409  0.7384  0.8160
  190SAPI   HO321899   1.310   1.758   7.466  1.7106 -1.0167  2.8908
  190SAPI   C1421900   1.241   1.862   7.244 -0.2220 -0.6077  0.6738
  190SAPI    H421901   1.228   1.752   7.233  0.6220 -0.4321 -5.3086
  190SAPI    O421902   1.127   1.929   7.300  0.5878  0.1502  0.3048
  190SAPI   HO421903   1.062   1.927   7.229 -0.0486 -0.7486  0.8990
  190SAPI   C1521904   1.267   1.901   7.101  0.7709  0.0655  0.4655
  190SAPI    H521905   1.237   2.008   7.100 -0.8113 -0.3480  0.2272
  190SAPI    O521906   1.169   1.848   7.010  0.6713  0.0587 -0.0429
  190SAPI   HO521907   1.120   1.918   6.965  0.5667 -0.8483 -1.4221
  190SAPI   C1621908   1.404   1.903   7.040  0.0826 -0.5549 -0.0782
  190SAPI    H621909   1.428   1.800   7.007  0.0950 -0.2306 -1.1372
  190SAPI    O621910   1.415   1.986   6.924 -0.4800 -0.2960  0.2562
  190SAPI   HO621911   1.481   1.946   6.866 -1.1102 -1.1697  0.1227
  190SAPI   C1121912   1.517   1.927   7.142  0.2384  0.1470 -0.1170
  190SAPI    H121913   1.508   2.033   7.173  2.9072  0.1734  0.8589
  190SAPI     P21914   1.778   1.994   7.110 -0.2028  0.3023  0.0391
  190SAPI   O1321915   1.869   1.915   7.196 -0.0882  0.6394  0.1320
  190SAPI   O1421916   1.740   2.126   7.164  0.4269  0.2508 -0.4289
  190SAPI   O1221917   1.645   1.901   7.075  0.5841 -0.0038 -0.3564
  190SAPI   O1121918   1.842   2.030   6.971  0.0038 -0.7787 -0.3796
  190SAPI    C121919   1.874   1.938   6.873  0.2684 -0.5371 -0.5709
  190SAPI    HA21920   1.873   1.837   6.919  0.3409 -0.2983 -0.0299
  190SAPI    HB21921   1.793   1.937   6.798 -1.3984 -0.8537  1.1458
  190SAPI    C221922   2.020   1.957   6.819  0.3014 -0.4313 -0.2353
  190SAPI    HS21923   2.077   1.978   6.912 -0.4094 -1.3288  0.4178
  190SAPI   O2121924   2.006   2.070   6.730 -0.7091  0.2773  0.0135
  190SAPI   C2121925   2.116   2.149   6.704  0.3303 -0.3510  0.5044
  190SAPI   O2221926   2.225   2.136   6.750  0.5745 -0.2556  0.2683
  190SAPI   C2221927   2.070   2.260   6.612  1.1703  0.4332 -0.1675
  190SAPI   H2R21928   1.989   2.220   6.547  0.6903  1.0484  0.0322
  190SAPI   H2S21929   2.025   2.332   6.684  0.1060 -1.5795  1.3159
  190SAPI    C321930   2.075   1.824   6.754  0.1727  0.2021 -0.1999
  190SAPI    HX21931   2.076   1.743   6.829 -0.7120 -1.2416 -1.6975
  190SAPI    HY21932   2.182   1.843   6.729  0.3503 -0.9617 -0.3835
  190SAPI   O3121933   2.009   1.790   6.629  0.2098  0.0986 -0.2802
  190SAPI   C3121934   1.978   1.666   6.608  0.0905 -0.6907  0.0752
  190SAPI   O3221935   2.016   1.561   6.659  0.2639  0.3453 -0.3479
  190SAPI   C3221936   1.855   1.661   6.509  0.0704  0.0127  0.1737
  190SAPI   H2X21937   1.850   1.763   6.467  1.1612 -0.7682 -2.0670
  190SAPI   H2Y21938   1.761   1.633   6.561  0.8980 -1.4678  0.9506
  190SAPI   C2321939   2.195   2.324   6.542  0.1075  0.0808 -0.4122
  190SAPI   H3R21940   2.285   2.331   6.606 -1.6414 -2.0361  2.5465
  190SAPI   H3S21941   2.166   2.430   6.521  0.8083  0.3302 -0.1418
  190SAPI   C2421942   2.245   2.240   6.427 -0.0609 -0.0959 -0.4953
  190SAPI   H4R21943   2.277   2.141   6.466 -0.2663 -0.1632 -0.4942
  190SAPI   H4S21944   2.333   2.293   6.384  1.1257 -2.8099 -1.6762
  190SAPI   C2521945   2.148   2.215   6.317 -0.6932  0.7071 -0.2468
  190SAPI   H5R21946   2.084   2.127   6.333  0.1346 -0.2123 -1.7080
  190SAPI   C2621947   2.118   2.293   6.208  0.4455 -0.9781  0.4166
  190SAPI   H6R21948   2.038   2.263   6.139  0.8338  1.4893 -1.2653
  190SAPI   C2721949   2.186   2.426   6.181 -0.3535  0.0689  0.2547
  190SAPI   H7R21950   2.293   2.405   6.160 -0.6283 -1.9378  0.6876
  190SAPI   H7S21951   2.177   2.487   6.274 -2.2375  2.6315 -1.4718
  190SAPI   C2821952   2.127   2.511   6.071 -0.9143 -0.8806  0.0778
  190SAPI   H8R21953   2.051   2.586   6.099  1.7202  2.4996 -1.1335
  190SAPI   C2921954   2.170   2.520   5.947  0.0911  0.1944  0.1027
  190SAPI   H9R21955   2.120   2.591   5.880 -0.0288  1.6810  1.7186
  190SAPI  C21021956   2.275   2.434   5.883 -0.1731 -0.3179  0.5215
  190SAPI  H10R21957   2.346   2.393   5.958  2.2475  1.0731 -0.8773
  190SAPI  H10S21958   2.338   2.499   5.819 -0.9102 -0.1945 -0.0892
  190SAPI  C21121959   2.224   2.328   5.795 -0.2656  0.0782 -0.5043
  190SAPI  H11R21960   2.180   2.248   5.857 -1.3341 -0.4148 -1.8479
  190SAPI  C21221961   2.254   2.306   5.668 -0.9163 -0.1891  0.4042
  190SAPI  H12R21962   2.197   2.229   5.615 -0.7885 -0.8387  1.1938
  190SAPI  C21321963   2.337   2.389   5.571 -0.4737 -0.1539 -0.2380
  190SAPI  H13R21964   2.433   2.422   5.618 -1.3412  0.0769  1.4644
  190SAPI  H13S21965   2.280   2.484   5.563 -1.2720 -0.1328  3.6827
  190SAPI  C21421966   2.359   2.326   5.433  0.2216  0.4504 -0.8478
  190SAPI  H14R21967   2.341   2.218   5.428 -1.5898  0.6391  0.6433
  190SAPI  C21521968   2.395   2.387   5.324 -0.2363  0.3452  0.4141
  190SAPI  H15R21969   2.399   2.326   5.232 -0.2682  0.7839  0.1191
  190SAPI  C21621970   2.409   2.534   5.308  0.1128 -0.1739  0.1691
  190SAPI  H16R21971   2.355   2.586   5.390 -1.6115  0.3119 -1.2374
  190SAPI  H16S21972   2.357   2.571   5.218 -2.7311 -1.6526  1.0747
  190SAPI  C21721973   2.565   2.571   5.314  0.8687 -0.4339 -0.1678
  190SAPI  H17R21974   2.568   2.682   5.303 -0.8974 -0.4210 -0.8580
  190SAPI  H17S21975   2.604   2.525   5.220 -0.9839 -0.3662 -1.0120
  190SAPI  C21821976   2.648   2.517   5.425 -0.0594  0.1483 -0.3751
  190SAPI  H18R21977   2.643   2.406   5.412 -0.1923 -0.3529  3.1150
  190SAPI  H18S21978   2.588   2.546   5.513 -0.4579  0.2355 -0.6731
  190SAPI  C21921979   2.789   2.573   5.432 -0.1032  0.2019  0.4682
  190SAPI  H19R21980   2.844   2.594   5.337  0.5035  0.6415  0.9130
  190SAPI  H19S21981   2.846   2.488   5.477  3.3177  2.3947  0.6064
  190SAPI  C22021982   2.807   2.683   5.528 -0.2806 -0.8169 -0.6073
  190SAPI  H20R21983   2.764   2.771   5.475 -3.4378  0.2486  3.2479
  190SAPI  H20S21984   2.916   2.701   5.540 -0.5132 -1.1542  3.3205
  190SAPI  H20T21985   2.770   2.679   5.633  1.0413 -0.0188 -0.0833
  190SAPI   C3321986   1.891   1.556   6.396  0.1239 -0.3293  0.2581
  190SAPI   H3X21987   1.907   1.464   6.456 -0.1383 -0.4126  0.1992
  190SAPI   H3Y21988   1.985   1.592   6.347 -0.0107  0.8439  0.8244
  190SAPI   C3421989   1.778   1.538   6.291  0.6196 -0.2895 -0.1556
  190SAPI   H4X21990   1.774   1.639   6.245  3.3469  0.1102  0.2744
  190SAPI   H4Y21991   1.687   1.507   6.346  0.8414 -1.5511 -0.4785
  190SAPI   C3521992   1.818   1.430   6.189  0.1195 -0.4273  0.6850
  190SAPI   H5X21993   1.732   1.392   6.130  0.9386  1.2019 -1.7175
  190SAPI   H5Y21994   1.853   1.343   6.247 -3.2841 -0.5116  2.8774
  190SAPI   C3621995   1.914   1.483   6.100  0.3126  0.2541  0.6094
  190SAPI   H6X21996   2.007   1.524   6.146  1.6554  0.6853 -2.2245
  190SAPI   H6Y21997   1.871   1.564   6.037  0.8769 -0.8687 -1.3200
  190SAPI   C3721998   1.959   1.368   6.002 -0.2161 -0.2575 -0.8344
  190SAPI   H7X21999   1.865   1.343   5.948  0.2553 -0.6479 -1.4910
  190SAPI   H7Y22000   2.010   1.277   6.038 -0.0202  0.3796  0.5335
  190SAPI   C3822001   2.052   1.419   5.887  0.5240 -0.2958 -0.4636
  190SAPI   H8X22002   2.147   1.456   5.930 -1.5883  3.2694  1.6193
  190SAPI   H8Y22003   2.000   1.502   5.833  0.4814 -0.4846 -0.7171
  190SAPI   C3922004   2.078   1.306   5.793 -0.1202  0.4150 -0.4100
  190SAPI   H9X22005   1.984   1.285   5.736 -1.5589  2.1066  1.2285
  190SAPI   H9Y22006   2.083   1.211   5.850  1.1848  0.2154 -0.8256
  190SAPI  C31022007   2.207   1.321   5.709 -0.1103 -0.6714  0.5118
  190SAPI  H10X22008   2.231   1.220   5.670  2.7816  0.0910  0.1188
  190SAPI  H10Y22009   2.289   1.345   5.780  0.7993  0.2805 -0.8260
  190SAPI  C31122010   2.197   1.425   5.601 -0.7000  1.0139 -0.3580
  190SAPI  H11X22011   2.298   1.467   5.581  1.3855 -3.0191  0.5556
  190SAPI  H11Y22012   2.126   1.499   5.645 -0.4335 -0.2128  2.3484
  190SAPI  C31222013   2.139   1.377   5.467 -0.3869  0.2739 -0.6896
  190SAPI  H12X22014   2.060   1.303   5.491 -1.3213  1.6821  0.7096
  190SAPI  H12Y22015   2.206   1.321   5.397 -0.3947 -1.4330  0.6143
  190SAPI  C31322016   2.077   1.483   5.378  0.0321  0.1527  0.2275
  190SAPI  H13X22017   2.142   1.564   5.339 -0.2330 -0.2563 -1.1196
  190SAPI  H13Y22018   2.010   1.535   5.449 -0.4644  0.3852 -0.3973
  190SAPI  C31422019   1.990   1.415   5.275  0.0855 -0.4407  0.0103
  190SAPI  H14X22020   1.923   1.342   5.324 -0.9701  0.7017  0.3267
  190SAPI  H14Y22021   2.054   1.361   5.202  0.4098 -1.7872  1.2403
  190SAPI  C31522022   1.893   1.502   5.189 -0.8304  0.3907 -0.6196
  190SAPI  H15X22023   1.943   1.578   5.126 -2.8490 -0.0752 -2.9467
  190SAPI  H15Y22024   1.819   1.548   5.258 -1.1516 -0.8711 -0.0788
  190SAPI  C31622025   1.801   1.420   5.088 -0.4234 -0.1192  0.6137
  190SAPI  H16X22026   1.778   1.318   5.124 -1.6155 -0.6684 -1.5334
  190SAPI  H16Y22027   1.865   1.397   5.000  1.5620  1.1902  1.6291
  190SAPI  C31722028   1.670   1.484   5.040  0.3037  0.3753 -0.3880
  190SAPI  H17X22029   1.602   1.524   5.118  2.3261  0.0279  1.6816
  190SAPI  H17Y22030   1.616   1.400   4.992  1.0396 -0.7925  0.7601
  190SAPI  C31822031   1.691   1.597   4.934 -0.3813  0.3109 -0.4616
  190SAPI  H18X22032   1.761   1.674   4.972 -1.2345  0.4255  0.9280
  190SAPI  H18Y22033   1.588   1.639   4.921 -0.2845  0.5025 -0.6084
  190SAPI  H18Z22034   1.729   1.554   4.839 -1.2710  0.4811 -0.9085
  191SAPI   C1222035   0.429   1.759   2.405 -0.6176  0.4017 -0.3324
  191SAPI    H222036   0.407   1.743   2.513 -0.2927  1.4440 -0.0954
  191SAPI    O222037   0.451   1.905   2.392 -0.0918 -0.1449  0.3971
  191SAPI   HO222038   0.387   1.949   2.449 -1.0560 -1.2664  0.2332
  191SAPI   C1322039   0.543   1.682   2.352  0.9312 -0.1799  0.2355
  191SAPI    H322040   0.512   1.575   2.353  1.0153 -0.3166 -2.6298
  191SAPI    O322041   0.656   1.691   2.435  0.2007  0.3516  0.4586
  191SAPI   HO322042   0.715   1.619   2.412 -0.9702 -0.4340 -0.1973
  191SAPI   C1422043   0.574   1.716   2.204  0.1494 -0.3573 -0.0056
  191SAPI    H422044   0.624   1.816   2.203 -1.0559  0.2739  0.8568
  191SAPI    O422045   0.668   1.611   2.158 -0.1774  0.3167 -0.3236
  191SAPI   HO422046   0.753   1.615   2.203  1.6988  0.0181 -3.4737
  191SAPI   C1522047   0.449   1.738   2.111  0.1236 -1.1339 -0.0938
  191SAPI    H522048   0.431   1.639   2.064 -1.4532 -1.0546  0.3138
  191SAPI    O522049   0.478   1.836   2.008  0.5116 -0.2990  0.5403
  191SAPI   HO522050   0.536   1.791   1.946  2.2328  1.3803  0.8542
  191SAPI   C1622051   0.311   1.770   2.174  0.6039  0.5550  0.4623
  191SAPI    H622052   0.311   1.881   2.184  2.2024  0.5324  0.8796
  191SAPI    O622053   0.206   1.720   2.089  0.6275 -0.1517 -0.1495
  191SAPI   HO622054   0.129   1.771   2.112  1.9704  1.9756 -0.0997
  191SAPI   C1122055   0.309   1.724   2.316  0.8677 -0.7899  0.0087
  191SAPI    H122056   0.307   1.614   2.303 -1.0028 -0.8317  0.4137
  191SAPI     P22057   0.084   1.674   2.452  0.1457  0.0567 -0.0369
  191SAPI   O1322058   0.100   1.538   2.402 -0.1379  0.0854 -0.0828
  191SAPI   O1422059  -0.050   1.741   2.456 -0.3318 -0.2818  0.0961
  191SAPI   O1222060   0.189   1.782   2.373  0.1603 -0.5247  0.3694
  191SAPI   O1122061   0.132   1.665   2.605 -0.6848 -0.1426 -0.3757
  191SAPI    C122062   0.126   1.783   2.684  0.1639  0.5700  0.5825
  191SAPI    HA22063   0.190   1.864   2.643 -2.0561  2.2842  0.2703
  191SAPI    HB22064   0.022   1.823   2.681  0.7041  1.9985 -0.6450
  191SAPI    C222065   0.168   1.757   2.825 -0.6581 -0.3995 -0.3587
  191SAPI    HS22066   0.174   1.848   2.888 -2.4764  0.7037 -1.6955
  191SAPI   O2122067   0.295   1.685   2.830  0.5455 -0.1020  0.2396
  191SAPI   C2122068   0.403   1.750   2.785 -0.6999 -0.3884 -0.0069
  191SAPI   O2222069   0.408   1.874   2.776  0.5133 -0.5045  0.5111
  191SAPI   C2222070   0.514   1.656   2.756  0.1857 -0.0557  1.4047
  191SAPI   H2R22071   0.494   1.603   2.660  0.9904 -1.5596  2.0274
  191SAPI   H2S22072   0.613   1.704   2.738 -0.0119 -0.1432 -0.0355
  191SAPI    C322073   0.064   1.667   2.898 -0.0782 -0.9637 -0.1173
  191SAPI    HX22074   0.054   1.578   2.831  0.0801 -2.2796  1.5436
  191SAPI    HY22075  -0.026   1.728   2.923  2.8293  2.6797  2.5662
  191SAPI   O3122076   0.117   1.617   3.024  0.3170  0.0549 -0.2271
  191SAPI   C3122077   0.100   1.694   3.135 -0.1756  0.7884  0.1531
  191SAPI   O3222078   0.026   1.789   3.146 -0.6027  0.5132 -0.3068
  191SAPI   C3222079   0.195   1.633   3.240  0.0850 -0.4738 -0.3205
  191SAPI   H2X22080   0.295   1.618   3.196 -0.2200 -1.2153 -0.7722
  191SAPI   H2Y22081   0.157   1.530   3.257  0.6228 -0.2169  3.3782
  191SAPI   C2322082   0.547   1.551   2.864 -0.6125 -0.6430  0.2516
  191SAPI   H3R22083   0.631   1.486   2.832  2.2227  3.4353 -1.5458
  191SAPI   H3S22084   0.462   1.490   2.900 -0.7241  0.3522  1.7948
  191SAPI   C2422085   0.607   1.622   2.989 -0.3959  0.3080 -0.3466
  191SAPI   H4R22086   0.525   1.651   3.058 -0.7238  0.5011 -0.8167
  191SAPI   H4S22087   0.669   1.710   2.960 -0.7542  0.8050  0.3795
  191SAPI   C2522088   0.703   1.525   3.053 -0.0155  1.0295 -0.0311
  191SAPI   H5R22089   0.808   1.525   3.019 -0.1606 -0.1313 -0.5405
  191SAPI   C2622090   0.692   1.461   3.165 -0.1760  0.1892 -0.0110
  191SAPI   H6R22091   0.775   1.396   3.195  0.4110  0.7864 -0.3173
  191SAPI   C2722092   0.569   1.449   3.249 -0.6092  0.0136  0.1734
  191SAPI   H7R22093   0.520   1.548   3.264 -1.6616 -0.6133  0.9906
  191SAPI   H7S22094   0.611   1.432   3.350 -0.6836  2.2964  0.6456
  191SAPI   C2822095   0.465   1.342   3.223 -0.1206 -0.4077  0.4986
  191SAPI   H8R22096   0.433   1.330   3.118  0.4627 -1.0788  0.3939
  191SAPI   C2922097   0.420   1.264   3.323 -0.5446  0.0937 -0.6509
  191SAPI   H9R22098   0.341   1.191   3.300  0.5647 -0.6263 -2.3723
  191SAPI  C21022099   0.455   1.270   3.471  0.3561 -0.0649 -0.1874
  191SAPI  H10R22100   0.390   1.199   3.526  2.5146 -1.3077  0.8328
  191SAPI  H10S22101   0.409   1.366   3.505 -0.4549 -0.4779 -0.0902
  191SAPI  C21122102   0.598   1.239   3.519 -0.3053  0.3366  0.4231
  191SAPI  H11R22103   0.669   1.198   3.445  0.7033 -3.4626  3.1460
  191SAPI  C21222104   0.637   1.261   3.649 -0.1933 -0.5096  0.1182
  191SAPI  H12R22105   0.739   1.224   3.665  0.0605  0.5781  1.0868
  191SAPI  C21322106   0.551   1.309   3.763  0.1492 -0.7581 -0.5276
  191SAPI  H13R22107   0.493   1.220   3.795 -1.2938  0.0202 -0.8907
  191SAPI  H13S22108   0.481   1.390   3.733  1.7726  0.7241 -0.4418
  191SAPI  C21422109   0.638   1.364   3.870 -0.2915 -0.5532  0.8494
  191SAPI  H14R22110   0.688   1.459   3.845  1.7768 -1.1263  2.4681
  191SAPI  C21522111   0.682   1.298   3.977  0.1566 -0.5890 -0.3951
  191SAPI  H15R22112   0.753   1.347   4.046  1.5438 -1.0620 -1.4353
  191SAPI  C21622113   0.632   1.163   4.029  0.6636  0.2179  0.3929
  191SAPI  H16R22114   0.717   1.111   4.079  2.3492  0.8546 -1.6673
  191SAPI  H16S22115   0.602   1.099   3.944 -1.5518  1.1307  0.4102
  191SAPI  C21722116   0.513   1.191   4.120 -0.7751 -0.2117 -0.1743
  191SAPI  H17R22117   0.439   1.109   4.129 -1.8504  0.8543  1.1541
  191SAPI  H17S22118   0.455   1.273   4.071  0.0976  0.9013  0.6002
  191SAPI  C21822119   0.561   1.237   4.262  0.0378  0.2139 -0.2073
  191SAPI  H18R22120   0.474   1.268   4.324 -0.6816  1.9161 -1.9825
  191SAPI  H18S22121   0.625   1.324   4.240 -0.8737  1.8621  3.1195
  191SAPI  C21922122   0.642   1.143   4.352  0.2900  0.7281  0.2337
  191SAPI  H19R22123   0.706   1.080   4.287 -1.5217 -0.2546 -0.6668
  191SAPI  H19S22124   0.564   1.079   4.397 -2.0214  2.1194 -1.5609
  191SAPI  C22022125   0.721   1.221   4.458 -0.1460 -0.3793  0.1265
  191SAPI  H20R22126   0.652   1.306   4.478 -1.9678 -1.3151 -1.8411
  191SAPI  H20S22127   0.812   1.265   4.411 -1.5588  1.1995 -1.2355
  191SAPI  H20T22128   0.749   1.166   4.550 -3.4686  0.1355  1.5612
  191SAPI   C3322129   0.182   1.696   3.380 -0.3672  0.8482 -0.2322
  191SAPI   H3X22130   0.074   1.698   3.406 -0.2622 -1.2728  0.5269
  191SAPI   H3Y22131   0.209   1.804   3.386  2.6007  0.1472  0.7468
  191SAPI   C3422132   0.269   1.639   3.502 -0.4300  0.1900  0.1242
  191SAPI   H4X22133   0.380   1.639   3.491  0.0526  0.2353  3.8129
  191SAPI   H4Y22134   0.248   1.531   3.517 -0.2220 -0.1519 -1.7452
  191SAPI   C3522135   0.265   1.724   3.632  0.9591 -0.0654 -0.1770
  191SAPI   H5X22136   0.159   1.706   3.657  1.0945 -0.3113  0.2263
  191SAPI   H5Y22137   0.273   1.833   3.612  0.7548 -0.2346 -1.2827
  191SAPI   C3622138   0.364   1.683   3.742 -0.0317 -0.2942 -0.2690
  191SAPI   H6X22139   0.454   1.739   3.709  1.5344 -2.1838  0.5487
  191SAPI   H6Y22140   0.387   1.575   3.729 -1.7286 -0.5592 -1.3462
  191SAPI   C3722141   0.310   1.710   3.880 -0.0808 -0.1380 -0.4772
  191SAPI   H7X22142   0.207   1.671   3.894 -0.3692  1.1835  1.5854
  191SAPI   H7Y22143   0.311   1.818   3.909  0.1383 -0.2012 -0.2471
  191SAPI   C3822144   0.393   1.632   3.991 -0.1343 -0.7307  0.9104
  191SAPI   H8X22145   0.496   1.674   3.983 -0.6808  0.5463  0.3737
  191SAPI   H8Y22146   0.396   1.522   3.975 -2.0049 -0.3814 -2.8647
  191SAPI   C3922147   0.326   1.666   4.116  0.4550 -0.3460 -0.0903
  191SAPI   H9X22148   0.234   1.604   4.124  1.8104 -3.0602 -3.3512
  191SAPI   H9Y22149   0.304   1.775   4.113  1.1757 -0.2211 -1.4951
  191SAPI  C31022150   0.410   1.643   4.247 -0.2116 -0.2060 -0.0170
  191SAPI  H10X22151   0.469   1.737   4.260  1.0687 -0.9617 -0.2193
  191SAPI  H10Y22152   0.479   1.559   4.228 -1.0795 -1.7484  3.0186
  191SAPI  C31122153   0.331   1.622   4.371 -0.2648 -0.4843 -1.1313
  191SAPI  H11X22154   0.256   1.541   4.362 -2.6840  1.0890  2.7103
  191SAPI  H11Y22155   0.280   1.719   4.390  0.5770 -0.2054 -0.2096
  191SAPI  C31222156   0.413   1.587   4.500  0.3084  0.0657 -1.0080
  191SAPI  H12X22157   0.477   1.670   4.537 -2.2800  0.4079  3.5246
  191SAPI  H12Y22158   0.478   1.506   4.462 -0.3173 -0.3147 -1.2833
  191SAPI  C31322159   0.328   1.529   4.620  0.3234  0.0776  0.2213
  191SAPI  H13X22160   0.257   1.457   4.574 -0.0945  0.0057  0.9618
  191SAPI  H13Y22161   0.279   1.614   4.671  0.5382 -0.2271  0.9468
  191SAPI  C31422162   0.424   1.453   4.712 -0.0357 -0.2435 -0.3292
  191SAPI  H14X22163   0.498   1.522   4.757  1.0642 -0.3346 -1.9078
  191SAPI  H14Y22164   0.487   1.387   4.648  3.7390  1.0353  1.7668
  191SAPI  C31522165   0.349   1.374   4.824  0.5793  0.4485 -0.0931
  191SAPI  H15X22166   0.421   1.315   4.885 -0.3939  0.8002  1.4509
  191SAPI  H15Y22167   0.289   1.304   4.762  2.4611 -0.5991 -0.7813
  191SAPI  C31622168   0.255   1.450   4.916  0.3263  0.2316 -0.4673
  191SAPI  H16X22169   0.193   1.521   4.857  1.2753  0.9600 -0.6143
  191SAPI  H16Y22170   0.322   1.515   4.977 -2.6162  1.4236  1.7331
  191SAPI  C31722171   0.174   1.364   5.014  0.2648  0.3555  0.6210
  191SAPI  H17X22172   0.144   1.424   5.103 -0.1508  0.4182  0.4429
  191SAPI  H17Y22173   0.241   1.294   5.068  1.2381  2.0455  1.7039
  191SAPI  C31822174   0.051   1.297   4.952 -0.0685  0.3544 -0.1128
  191SAPI  H18X22175  -0.016   1.252   5.028 -2.9785  0.0770 -2.6672
  191SAPI  H18Y22176   0.083   1.226   4.873 -0.4905  0.6561 -0.5570
  191SAPI  H18Z22177  -0.003   1.379   4.901 -1.0783  2.5147  3.9656
  192SAPI   C1222178   5.773   5.927   2.348 -0.1242  0.0076  0.0079
  192SAPI    H222179   5.796   5.834   2.292 -0.7136  1.0323 -2.0265
  192SAPI    O222180   5.727   6.030   2.261 -0.6825 -0.2594  0.3676
  192SAPI   HO222181   5.798   6.093   2.247  2.6360 -3.4735  1.3538
  192SAPI   C1322182   5.657   5.890   2.441  1.1525  0.0153  0.0618
  192SAPI    H322183   5.695   5.801   2.495 -0.0743 -0.8330 -0.4295
  192SAPI    O322184   5.543   5.838   2.372  0.1254  0.4493  0.2037
  192SAPI   HO322185   5.524   5.752   2.411  0.1943  0.4071  0.1442
  192SAPI   C1422186   5.625   6.001   2.551 -0.2885  0.0890  0.8568
  192SAPI    H422187   5.552   6.070   2.503 -1.0262 -0.1770  1.5684
  192SAPI    O422188   5.542   5.947   2.658 -0.0182  0.2039  0.4173
  192SAPI   HO422189   5.463   6.001   2.667  1.0156  2.1903 -1.4887
  192SAPI   C1522190   5.736   6.096   2.607  0.4722 -0.7867  0.1015
  192SAPI    H522191   5.773   6.051   2.702 -1.8565 -1.7923  0.6050
  192SAPI    O522192   5.685   6.221   2.652  0.8777 -0.1319  0.4878
  192SAPI   HO522193   5.654   6.225   2.743 -1.5956 -1.5687 -0.1772
  192SAPI   C1622194   5.846   6.111   2.501  0.1653 -0.6365 -0.2694
  192SAPI    H622195   5.813   6.189   2.430 -0.1204 -2.0534 -1.7620
  192SAPI    O622196   5.959   6.165   2.564 -0.0139  0.5652 -0.2772
  192SAPI   HO622197   6.042   6.121   2.543  1.0835  2.2889  0.2154
  192SAPI   C1122198   5.888   5.985   2.427  0.6095  0.9060  0.2163
  192SAPI    H122199   5.926   5.910   2.500  0.9688 -0.3599 -1.2097
  192SAPI     P22200   6.111   5.904   2.279  0.5677  0.4677 -0.5849
  192SAPI   O1322201   6.183   5.955   2.162  0.6161  0.0789  0.0349
  192SAPI   O1422202   6.049   5.767   2.265 -0.4029  0.0192  0.1039
  192SAPI   O1222203   5.992   6.005   2.331 -0.1168 -0.2695 -0.0113
  192SAPI   O1122204   6.207   5.902   2.399 -0.1504 -1.1372  0.2826
  192SAPI    C122205   6.272   5.784   2.435  1.5114 -0.0106 -0.3951
  192SAPI    HA22206   6.282   5.713   2.350  0.7307 -0.1321 -0.3989
  192SAPI    HB22207   6.372   5.824   2.462 -0.3605  4.3964  0.9645
  192SAPI    C222208   6.209   5.716   2.559 -0.2009  0.0233  0.0419
  192SAPI    HS22209   6.107   5.677   2.537 -0.6058  0.6376  0.7595
  192SAPI   O2122210   6.190   5.825   2.656 -0.0066  0.5345  0.9357
  192SAPI   C2122211   6.096   5.795   2.747  0.4661  0.7389 -0.9198
  192SAPI   O2222212   6.022   5.700   2.745 -0.2061  0.2238  0.0460
  192SAPI   C2222213   6.096   5.897   2.862 -0.2971  0.4408  0.0698
  192SAPI   H2R22214   6.040   5.985   2.823  0.3192  1.4069  1.2960
  192SAPI   H2S22215   6.038   5.849   2.944 -2.3695 -1.0731 -2.1491
  192SAPI    C322216   6.304   5.605   2.613 -0.9577  0.4693  0.1698
  192SAPI    HX22217   6.403   5.656   2.619 -1.8221  2.0785  1.5612
  192SAPI    HY22218   6.306   5.525   2.535  1.1587  0.4287  0.2051
  192SAPI   O3122219   6.264   5.550   2.740  0.4409 -0.1967 -0.2543
  192SAPI   C3122220   6.339   5.578   2.847 -0.1176 -0.1851  0.7050
  192SAPI   O3222221   6.443   5.639   2.850  0.2172  0.1783 -0.8368
  192SAPI   C3222222   6.259   5.537   2.970 -0.2118 -0.1809  0.2125
  192SAPI   H2X22223   6.293   5.432   2.988  0.8848  0.2965  1.0320
  192SAPI   H2Y22224   6.157   5.519   2.930 -0.4263  0.9702  0.2255
  192SAPI   C2322225   6.238   5.951   2.893  0.8109  0.2569  0.2399
  192SAPI   H3R22226   6.300   5.966   2.802  1.0217  1.5477  0.5751
  192SAPI   H3S22227   6.285   5.872   2.955  1.1071  2.1514  2.5395
  192SAPI   C2422228   6.220   6.091   2.963  0.3149 -0.1896  0.3522
  192SAPI   H4R22229   6.170   6.098   3.063 -0.3198 -1.7754  0.1733
  192SAPI   H4S22230   6.143   6.141   2.900 -1.3405 -3.4233 -0.4080
  192SAPI   C2522231   6.347   6.175   2.956 -0.5408 -0.0301 -1.2385
  192SAPI   H5R22232   6.405   6.146   2.867  0.4282  0.8320 -0.9066
  192SAPI   C2622233   6.399   6.254   3.054  0.5451  0.5908 -0.3238
  192SAPI   H6R22234   6.496   6.299   3.030  0.7585  0.2630 -0.0694
  192SAPI   C2722235   6.332   6.304   3.177 -0.4055 -0.7309 -0.4052
  192SAPI   H7R22236   6.358   6.228   3.253 -2.2429  0.1856  1.2216
  192SAPI   H7S22237   6.221   6.305   3.175 -0.4205  0.9315  0.2068
  192SAPI   C2822238   6.378   6.441   3.225  0.1860 -0.1251  0.8251
  192SAPI   H8R22239   6.372   6.514   3.143  0.4917 -0.7006  0.2826
  192SAPI   C2922240   6.433   6.469   3.347  0.4309 -0.2969 -0.4124
  192SAPI   H9R22241   6.472   6.571   3.357  1.5869 -0.9223  2.3062
  192SAPI  C21022242   6.471   6.371   3.457 -0.3054  0.1446 -0.0031
  192SAPI  H10R22243   6.537   6.422   3.530 -1.7481  1.1259  0.6635
  192SAPI  H10S22244   6.526   6.284   3.416 -0.7499 -0.2138  0.1485
  192SAPI  C21122245   6.347   6.327   3.530  0.0628 -0.1759  0.0958
  192SAPI  H11R22246   6.271   6.278   3.468  1.1121 -0.4174 -1.0435
  192SAPI  C21222247   6.314   6.340   3.660  0.2591 -0.4048 -0.4026
  192SAPI  H12R22248   6.210   6.321   3.690  0.2027  0.5102  0.0156
  192SAPI  C21322249   6.399   6.405   3.768  0.1051  0.3429 -0.0106
  192SAPI  H13R22250   6.487   6.460   3.729 -0.5485  0.5914 -1.1891
  192SAPI  H13S22251   6.443   6.335   3.842  0.8262  0.5683 -0.2128
  192SAPI  C21422252   6.308   6.509   3.826  0.4854  0.5250 -0.9976
  192SAPI  H14R22253   6.233   6.468   3.895  1.3762 -2.3698 -1.5969
  192SAPI  C21522254   6.312   6.641   3.805 -0.3477 -0.3523  0.2008
  192SAPI  H15R22255   6.244   6.711   3.856  1.6777  0.1620  2.3606
  192SAPI  C21622256   6.402   6.716   3.707 -0.4823 -0.2766  0.3174
  192SAPI  H16R22257   6.491   6.659   3.676  0.6010  1.7459 -0.5252
  192SAPI  H16S22258   6.427   6.821   3.734 -1.0982  0.4028 -1.5730
  192SAPI  C21722259   6.314   6.737   3.583  0.2245 -0.1625  0.2155
  192SAPI  H17R22260   6.217   6.788   3.603 -0.6683 -2.2285  1.5215
  192SAPI  H17S22261   6.299   6.636   3.538  1.4112 -0.3808  0.2806
  192SAPI  C21822262   6.396   6.826   3.480 -0.4885  0.2792 -0.8070
  192SAPI  H18R22263   6.480   6.767   3.438  1.1346  2.0455 -0.1872
  192SAPI  H18S22264   6.453   6.900   3.540  1.4439 -0.7907 -1.2228
  192SAPI  C21922265   6.318   6.885   3.371  0.1180  0.3593  0.1473
  192SAPI  H19R22266   6.245   6.955   3.416 -1.9120 -1.0493 -0.7659
  192SAPI  H19S22267   6.264   6.800   3.323 -0.9881  0.7976  0.5855
  192SAPI  C22022268   6.408   6.945   3.264  0.2610  0.9414  0.1879
  192SAPI  H20R22269   6.479   6.874   3.217 -1.1817  0.9657 -2.2071
  192SAPI  H20S22270   6.468   7.029   3.307  1.0202  0.2841  0.4338
  192SAPI  H20T22271   6.348   6.985   3.179  1.6203 -1.7976 -2.2211
  192SAPI   C3322272   6.255   5.637   3.088  0.2141  0.2975  0.3402
  192SAPI   H3X22273   6.193   5.729   3.075  1.4651  1.2262  0.7735
  192SAPI   H3Y22274   6.355   5.664   3.127  0.5626 -1.0717  0.4383
  192SAPI   C3422275   6.192   5.562   3.201  0.5347 -0.1260 -0.1466
  192SAPI   H4X22276   6.275   5.506   3.250  0.5149 -0.4805 -0.5135
  192SAPI   H4Y22277   6.117   5.485   3.175  0.6967 -0.4921  0.4497
  192SAPI   C3522278   6.122   5.667   3.290  0.5181  0.3701 -0.2775
  192SAPI   H5X22279   6.029   5.698   3.237  1.1318  0.4556 -1.3258
  192SAPI   H5Y22280   6.186   5.753   3.320 -0.7472  0.6238  1.9687
  192SAPI   C3622281   6.074   5.592   3.416  0.5224 -0.8534 -0.0079
  192SAPI   H6X22282   6.006   5.512   3.382  0.5056 -0.7814 -0.1428
  192SAPI   H6Y22283   6.024   5.672   3.475  2.1514  1.4963 -1.6203
  192SAPI   C3722284   6.191   5.544   3.500  0.6986  0.1213  0.7960
  192SAPI   H7X22285   6.283   5.601   3.475 -0.2777  0.7512 -1.7886
  192SAPI   H7Y22286   6.206   5.434   3.488  3.1051  0.5520 -1.1401
  192SAPI   C3822287   6.160   5.587   3.649 -0.5702  0.1951  0.4252
  192SAPI   H8X22288   6.062   5.551   3.689 -1.5012  0.3468 -1.6057
  192SAPI   H8Y22289   6.149   5.697   3.640 -0.5736  0.1654  0.0483
  192SAPI   C3922290   6.278   5.555   3.751  0.3538 -0.2112  0.4200
  192SAPI   H9X22291   6.370   5.612   3.729  0.5548  0.2678  2.3432
  192SAPI   H9Y22292   6.294   5.448   3.726  1.8518  0.2914 -0.9074
  192SAPI  C31022293   6.250   5.592   3.893  1.4548 -0.3854  0.4149
  192SAPI  H10X22294   6.145   5.560   3.910  1.7097 -1.5297 -0.0271
  192SAPI  H10Y22295   6.244   5.702   3.903  2.7044 -0.1248 -1.3227
  192SAPI  C31122296   6.351   5.550   3.996 -0.1677 -0.4283 -0.2511
  192SAPI  H11X22297   6.453   5.592   3.985  0.9896 -2.8089  0.6050
  192SAPI  H11Y22298   6.358   5.441   4.019 -0.1090 -0.2587  0.5657
  192SAPI  C31222299   6.311   5.618   4.125  0.3389 -0.2513 -0.1343
  192SAPI  H12X22300   6.219   5.570   4.165 -0.9140 -0.4009 -2.9875
  192SAPI  H12Y22301   6.289   5.725   4.108 -0.1447 -0.4065 -0.4929
  192SAPI  C31322302   6.409   5.593   4.242 -0.1192 -0.0544 -0.4101
  192SAPI  H13X22303   6.499   5.653   4.216  0.5865 -0.5710  0.7418
  192SAPI  H13Y22304   6.431   5.485   4.254  1.0197  0.2075 -0.0017
  192SAPI  C31422305   6.359   5.649   4.371  0.3896 -0.4326 -0.1157
  192SAPI  H14X22306   6.257   5.612   4.395  0.0750 -0.7765 -1.8175
  192SAPI  H14Y22307   6.339   5.759   4.371  1.8994 -0.1280  1.0700
  192SAPI  C31522308   6.458   5.622   4.494  0.9039  0.0093  0.1197
  192SAPI  H15X22309   6.563   5.645   4.466 -0.2882  1.8956 -3.4150
  192SAPI  H15Y22310   6.453   5.515   4.524  0.1946 -0.2447 -0.8481
  192SAPI  C31622311   6.415   5.698   4.620  0.4323 -0.4191  0.3564
  192SAPI  H16X22312   6.310   5.671   4.641 -0.5113  3.4472  1.3232
  192SAPI  H16Y22313   6.430   5.806   4.600  3.5370 -0.8884 -0.4703
  192SAPI  C31722314   6.500   5.672   4.747  0.0781  0.4930  0.5528
  192SAPI  H17X22315   6.608   5.686   4.727  0.0387 -1.2459 -1.1456
  192SAPI  H17Y22316   6.492   5.566   4.779  0.3194  0.0632 -0.7582
  192SAPI  C31822317   6.457   5.771   4.857  0.2439  0.1172  1.1913
  192SAPI  H18X22318   6.516   5.749   4.948  2.6453  0.1659 -0.2624
  192SAPI  H18Y22319   6.348   5.762   4.881 -0.4250 -2.4448 -2.1267
  192SAPI  H18Z22320   6.475   5.875   4.822 -0.5562  0.1450  0.8202
  193SOD    SOD22321   2.924   5.318   0.208 -0.1470 -0.2608 -0.3712
  194SOD    SOD22322   5.943   2.209   2.021 -0.2402 -0.2189  0.1765
  195SOD    SOD22323   0.724   3.136   1.428 -0.1353  0.3672  0.1291
  196SOD    SOD22324   1.679   0.343   0.209 -0.5492 -0.1206  0.0131
  197SOD    SOD22325   6.741   3.215   2.468 -0.1870  0.1662  0.3034
  198SOD    SOD22326   4.920   4.834   0.165  0.0318  0.0500  0.2473
  199SOD    SOD22327   4.067   0.979   6.720 -0.5489  0.0821 -0.0104
  200SOD    SOD22328   3.620   3.077   8.477 -0.3195 -0.6217 -0.4415
  201SOD    SOD22329   0.079   0.271   7.800 -0.0701 -0.2891 -0.3831
  202SOD    SOD22330   4.650   1.448   1.696 -0.2679  0.2681  0.4533
  203SOD    SOD22331   3.200   0.440   2.246 -0.3949  0.3821  0.1894
  204SOD    SOD22332   5.881   6.355   2.686 -0.1343  0.0658  0.4133
  205SOD    SOD22333   2.306   2.643   3.011  0.0687 -0.1348 -0.5243
  206SOD    SOD22334   4.665   3.439   1.124 -0.4699  0.1234  0.2857
  207SOD    SOD22335   3.898   6.903   0.190 -0.0159 -0.1439 -0.3882
  208SOD    SOD22336   6.632   1.721   7.256 -0.1059  0.0874 -0.2495
  209SOD    SOD22337   4.407   3.035   0.070 -0.0585  0.3619 -0.1397
  210SOD    SOD22338   6.046   5.223   7.657 -0.4779 -0.4937 -0.1415
  211SOD    SOD22339   3.323   3.536   2.264 -0.0661 -0.3451  0.2824
  212SOD    SOD22340   0.579   6.880   0.120 -0.0777 -0.3369  0.0544
  213SOD    SOD22341   5.888   4.008   2.332  0.2185  0.4085  0.0457
  214SOD    SOD22342   4.040   3.710   7.418 -0.0423  0.4020 -0.0395
  215SOD    SOD22343   4.548   5.995   1.319 -0.2873 -0.3182  0.8032
  216SOD    SOD22344   2.791   6.204   0.389  0.3525  0.2724 -0.1463
  217SOD    SOD22345   1.619   1.226   7.878  0.5919 -0.0745  0.3755
  218SOD    SOD22346   6.599   2.544   1.212  0.2699  0.0110 -0.4785
  219SOD    SOD22347   5.145   5.564   2.761  0.0489 -0.0591  0.0561
  220SOD    SOD22348   5.473   1.292   7.380  0.4940 -0.1722  0.1547
  221SOD    SOD22349   0.148   5.254   0.852 -0.1313 -0.3167 -0.6556
  222SOD    SOD22350   1.737   0.461   6.564  0.3075  0.3792 -0.3906
  223SOD    SOD22351   1.859   1.944   0.144 -0.0933  0.1236  0.3306
  224SOD    SOD22352   1.696   5.233   6.967 -0.4665 -0.4794  0.2470
  225SOD    SOD22353   5.681   3.148   2.253  0.3643  0.0522 -0.7551
  226SOD    SOD22354   6.019   5.838   1.570  0.2033 -0.0265 -0.2242
  227SOD    SOD22355   3.877   3.241   1.018  0.1864  0.3508  0.0363
  228SOD    SOD22356   0.621   3.506   0.108 -0.2185  0.2232 -0.4449
  229SOD    SOD22357   1.194   1.542   1.532  0.4405  0.1495  0.2607
  230CLA    CLA22358   6.726   6.354   0.614  0.2426  0.2134  0.1963
  231CLA    CLA22359   5.628   5.217   1.948  0.0839 -0.0774  0.0446
  232CLA    CLA22360   2.690   0.296   7.737  0.2038 -0.4056 -0.1619
  233CLA    CLA22361   0.910   6.346   8.238  0.0619  0.2315 -0.0076
  234CLA    CLA22362   6.773   1.494   0.455 -0.0816 -0.1525  0.1244
  235CLA    CLA22363   4.026   6.268   0.627 -0.2548 -0.3441  0.1808
  236CLA    CLA22364   5.180   0.181   1.962  0.2548  0.1486  0.2226
  237CLA    CLA22365   4.412   3.707   0.262  0.1541  0.2809  0.0711
  238CLA    CLA22366   0.408   2.496   8.341 -0.0059 -0.4133 -0.1244
  239CLA    CLA22367   6.096   3.168   7.675 -0.5265  0.0692 -0.3828
  240CLA    CLA22368   2.041   1.265   8.264 -0.1479  0.3529 -0.3013
  241CLA    CLA22369   6.516   5.492   0.021 -0.6002  0.2027 -0.0775
  242CLA    CLA22370   5.010   1.811   1.607 -0.3947 -0.4314  0.3296
  243CLA    CLA22371   6.494   2.960   2.234 -0.2122 -0.1839  0.1021
  244CLA    CLA22372   1.649   0.627   2.036  0.0254  0.1833  0.2621
  245CLA    CLA22373   2.929   0.715   1.259 -0.2166 -0.2801  0.2357
  246CLA    CLA22374   6.022   2.071   0.942 -0.2783  0.0374  0.3922
  247TIP3   OH222375   2.342   5.038   1.486 -0.1774 -0.1801  0.2908
  247TIP3    H122376   2.358   5.094   1.410  0.7915  0.2481  0.7938
  247TIP3    H222377   2.427   5.031   1.529 -1.0023  0.9580  2.2570
  248TIP3   OH222378   4.855   6.356   8.162 -0.2332  0.1812 -0.1299
  248TIP3    H122379   4.928   6.362   8.223 -0.8330 -0.0428  0.6245
  248TIP3    H222380   4.822   6.267   8.174 -1.2720  0.6128  0.2856
  249TIP3   OH222381   4.685   6.316   0.539  0.6489 -0.1826 -0.5687
  249TIP3    H122382   4.724   6.403   0.547  2.5578 -0.6736 -3.2867
  249TIP3    H222383   4.615   6.327   0.475 -1.6456 -0.0281  1.7771
  250TIP3   OH222384   3.876   5.585   1.095 -0.1998  0.3091 -0.0990
  250TIP3    H122385   3.828   5.536   1.028  1.6010 -0.1681 -1.1142
  250TIP3    H222386   3.851   5.676   1.081 -2.2092 -0.0756  0.6393
  251TIP3   OH222387   4.526   6.694   7.899  0.5755  0.2330 -0.2661
  251TIP3    H122388   4.538   6.667   7.991 -3.1457  0.1261  0.3502
  251TIP3    H222389   4.538   6.613   7.849 -1.8761 -0.8519  0.7109
  252TIP3   OH222390   6.728   4.896   7.098  0.6938  0.8024  0.2435
  252TIP3    H122391   6.656   4.911   7.036  1.5442  0.8564 -0.7674
  252TIP3    H222392   6.687   4.897   7.184 -0.1729  3.4510 -0.1162
  253TIP3   OH222393   0.680   6.230   7.722  0.4974  0.2144  0.4310
  253TIP3    H122394   0.672   6.314   7.766 -1.5198  0.2226  0.1447
  253TIP3    H222395   0.633   6.168   7.778  1.1674 -0.5471  0.1779
  254TIP3   OH222396   4.778   3.262   1.016  0.1083  0.4681 -0.0232
  254TIP3    H122397   4.844   3.238   0.951  1.1979  0.1664  1.1608
  254TIP3    H222398   4.785   3.194   1.084 -2.4363 -0.4276 -0.5365
  255TIP3   OH222399   6.208   5.803   6.775  0.2976 -0.3078 -0.1306
  255TIP3    H122400   6.290   5.754   6.786 -0.0542 -0.5642  1.6198
  255TIP3    H222401   6.162   5.757   6.705  1.0481 -0.9831 -0.1948
  256TIP3   OH222402   4.502   0.874   7.434 -0.3730  0.2560  0.3991
  256TIP3    H122403   4.469   0.913   7.353 -0.3536  0.3338  0.4288
  256TIP3    H222404   4.426   0.832   7.473  0.1399 -2.0973 -0.9888
  257TIP3   OH222405   0.903   4.385   7.522  0.0747 -0.5313  0.5060
  257TIP3    H122406   0.894   4.394   7.427 -0.4196  0.9459  0.6580
  257TIP3    H222407   0.894   4.291   7.538 -1.0546 -0.6881 -0.7889
  258TIP3   OH222408   4.524   2.819   0.728 -0.0917  0.2005  0.1495
  258TIP3    H122409   4.615   2.828   0.755 -0.2325 -2.4780  1.8787
  258TIP3    H222410   4.521   2.857   0.640  2.4452  1.1677  0.3940
  259TIP3   OH222411   5.041   2.354   7.685 -0.5548 -0.1342 -0.3871
  259TIP3    H122412   5.003   2.439   7.707  0.5922  0.2184  0.2743
  259TIP3    H222413   5.007   2.336   7.597 -2.2555  0.1446  0.1663
  260TIP3   OH222414   3.171   1.129   3.175  0.2367  0.5275 -0.7890
  260TIP3    H122415   3.242   1.152   3.235  0.5583 -1.2629 -0.4421
  260TIP3    H222416   3.130   1.052   3.214 -0.2405 -0.0268 -2.3028
  261TIP3   OH222417   1.761   1.975   2.482  0.2020 -0.4605 -0.0067
  261TIP3    H122418   1.790   2.020   2.561  0.9948 -1.0964  0.0811
  261TIP3    H222419   1.769   1.882   2.503 -1.1925 -0.6640 -0.2553
  262TIP3   OH222420   1.516   1.627   2.683 -0.2475  0.1895 -0.2027
  262TIP3    H122421   1.449   1.564   2.658  0.8145 -1.2439  0.4702
  262TIP3    H222422   1.538   1.604   2.773 -0.6868  2.3156  0.5133
  263TIP3   OH222423   1.527   2.552   2.357  0.5136  0.3918 -0.3302
  263TIP3    H122424   1.500   2.515   2.273 -0.5620  0.5232 -0.0686
  263TIP3    H222425   1.534   2.646   2.341 -1.9141  0.7416  0.2058
  264TIP3   OH222426   0.032   5.785   2.704 -0.4195 -0.3558 -0.2325
  264TIP3    H122427  -0.022   5.864   2.707 -1.4305 -0.9340 -1.6871
  264TIP3    H222428  -0.031   5.713   2.714  0.5081 -1.0071  1.3235
  265TIP3   OH222429   4.292   5.325   0.225  0.2475  0.6224 -0.3091
  265TIP3    H122430   4.313   5.277   0.306  2.0741  0.0906 -1.0381
  265TIP3    H222431   4.329   5.412   0.239  1.6557  0.1695 -0.9805
  266TIP3   OH222432   5.210   5.298   2.137  0.5960 -0.2113  0.3652
  266TIP3    H122433   5.165   5.279   2.054  0.8023 -2.0669  0.6278
  266TIP3    H222434   5.286   5.350   2.112  1.7426 -2.3472 -0.9358
  267TIP3   OH222435   5.414   5.288   1.122  0.2891 -0.3747  0.7101
  267TIP3    H122436   5.497   5.239   1.126  0.3131 -0.6023 -1.3940
  267TIP3    H222437   5.361   5.240   1.058 -0.1362  1.6770 -0.5729
  268TIP3   OH222438   4.618   3.056   2.344  0.9412 -0.3359  0.3611
  268TIP3    H122439   4.524   3.046   2.354  1.2295 -1.2372  3.7102
  268TIP3    H222440   4.630   3.094   2.257 -2.5696  1.1557  0.3504
  269TIP3   OH222441   5.722   3.894   2.470  0.1646 -0.4268  0.4094
  269TIP3    H122442   5.639   3.853   2.494 -0.8352  0.6334 -1.0375
  269TIP3    H222443   5.725   3.974   2.523 -0.9900  0.8027 -1.2873
  270TIP3   OH222444   4.597   3.886   0.053 -0.5644  0.5388  0.1111
  270TIP3    H122445   4.503   3.889   0.040 -0.5503  0.5160  0.0007
  270TIP3    H222446   4.608   3.850   0.141 -0.7338  3.3805  1.4195
  271TIP3   OH222447   1.366   0.850   7.159  0.2175  0.4795  0.2283
  271TIP3    H122448   1.442   0.826   7.213 -0.3787 -2.4325 -0.0840
  271TIP3    H222449   1.404   0.892   7.082  1.5316 -0.7218  0.1775
  272TIP3   OH222450   5.719   1.249   0.514 -0.2036  0.2675 -0.3158
  272TIP3    H122451   5.652   1.213   0.573 -0.4027  1.6612  0.3569
  272TIP3    H222452   5.788   1.281   0.573  0.6287 -0.3007 -0.9622
  273TIP3   OH222453   3.517   1.796   0.433 -0.3138 -0.7525  0.1764
  273TIP3    H122454   3.493   1.872   0.380  0.4657 -0.8404 -0.3297
  273TIP3    H222455   3.611   1.807   0.449 -0.0290 -1.9894 -0.5457
  274TIP3   OH222456   4.326   2.283   0.602 -0.2617  0.6122  0.2952
  274TIP3    H122457   4.353   2.290   0.511  0.3187  0.9909  0.4926
  274TIP3    H222458   4.391   2.226   0.642  2.2399  3.9369  1.4975
  275TIP3   OH222459   3.130   4.007   1.011  0.1557  0.4518 -0.0097
  275TIP3    H122460   3.044   3.992   0.972  0.5658  0.0611 -0.7856
  275TIP3    H222461   3.121   3.975   1.101 -0.2367 -0.5238 -0.3741
  276TIP3   OH222462   3.367   0.871   6.772  0.4466  0.2332 -0.1815
  276TIP3    H122463   3.328   0.792   6.810  2.6167 -0.4230  0.8377
  276TIP3    H222464   3.294   0.933   6.767 -0.6795 -0.8165  1.8623
  277TIP3   OH222465   4.439   0.567   1.797  0.1164  0.3364 -0.0905
  277TIP3    H122466   4.403   0.629   1.860 -0.6931 -0.6996  0.4894
  277TIP3    H222467   4.507   0.617   1.751 -1.4903  2.1239 -0.6781
  278TIP3   OH222468   5.840   0.352   0.337  0.0511  0.3063  0.2549
  278TIP3    H122469   5.769   0.386   0.391  0.6395  0.5562  0.8928
  278TIP3    H222470   5.877   0.280   0.388  0.4113  0.3400  0.0479
  279TIP3   OH222471   3.879   3.768   8.385 -0.1061  0.4412 -0.5088
  279TIP3    H122472   3.970   3.778   8.356 -0.0462 -0.9416 -0.8991
  279TIP3    H222473   3.833   3.739   8.307 -0.7516  0.4991 -0.1527
  280TIP3   OH222474   2.636   6.529   7.803 -0.0460  0.3164  0.3354
  280TIP3    H122475   2.552   6.559   7.838 -0.5926 -0.0401 -0.6478
  280TIP3    H222476   2.685   6.500   7.880 -0.2597  1.8345  1.0967
  281TIP3   OH222477   5.366   2.019   1.180  0.6302 -0.0390  0.3862
  281TIP3    H122478   5.415   1.975   1.110  0.7187 -2.7207  2.0351
  281TIP3    H222479   5.279   2.033   1.142  1.0426 -0.2178 -0.6832
  282TIP3   OH222480   5.640   2.294   7.651 -0.3994 -0.3214  0.5535
  282TIP3    H122481   5.646   2.228   7.582  1.3655  0.3271  0.0153
  282TIP3    H222482   5.629   2.244   7.732  1.9928 -1.4243  0.2987
  283TIP3   OH222483   2.943   1.410   8.288 -0.3733 -0.3236  0.1167
  283TIP3    H122484   2.906   1.479   8.234 -0.4795  1.4859  2.3479
  283TIP3    H222485   3.037   1.421   8.280 -0.3894  0.2599  0.6291
  284TIP3   OH222486   4.254   2.413   7.997 -0.0671  0.3868 -0.0291
  284TIP3    H122487   4.279   2.379   8.082 -1.2422  0.9555  0.5630
  284TIP3    H222488   4.206   2.494   8.016  1.0382  1.4048 -1.2978
  285TIP3   OH222489   6.167   6.214   0.912  0.1210 -0.2936 -0.6287
  285TIP3    H122490   6.140   6.302   0.888  2.8780  0.9748  0.4706
  285TIP3    H222491   6.137   6.159   0.840 -1.3833  1.5727 -1.5008
  286TIP3   OH222492   0.803   2.324   0.777 -0.5672 -0.2211 -0.1248
  286TIP3    H122493   0.741   2.381   0.824 -0.0755 -0.0049  0.2723
  286TIP3    H222494   0.875   2.311   0.838  0.4688  0.7175 -1.0990
  287TIP3   OH222495   2.488   1.227   0.957  0.0090  0.2467 -0.0402
  287TIP3    H122496   2.482   1.199   0.866  1.0712 -1.1294  0.2864
  287TIP3    H222497   2.512   1.148   1.006  0.5762  1.1962  1.2845
  288TIP3   OH222498   4.376   1.507   0.231  0.5461 -0.0592  0.1642
  288TIP3    H122499   4.286   1.477   0.220  0.2609  1.4282 -2.1226
  288TIP3    H222500   4.397   1.487   0.323 -1.5181 -1.9155  0.3110
  289TIP3   OH222501   6.029   3.851   0.022 -0.4186  0.7937 -0.8647
  289TIP3    H122502   6.005   3.777  -0.033  0.1736 -0.5235  0.5710
  289TIP3    H222503   6.107   3.888  -0.020 -0.3895  0.2586 -1.2906
  290TIP3   OH222504   0.983   2.327   7.916 -0.0520 -0.1291  0.1296
  290TIP3    H122505   1.039   2.270   7.968  0.6953  1.0751  0.6867
  290TIP3    H222506   1.022   2.414   7.924 -1.9438  0.7501  0.4498
  291TIP3   OH222507   5.901   1.179   8.002 -0.1917  0.3769 -0.7551
  291TIP3    H122508   5.994   1.157   8.008 -0.6249 -1.6805 -0.8173
  291TIP3    H222509   5.858   1.115   8.058 -1.7298 -0.0930 -2.3961
  292TIP3   OH222510   5.767   2.012   1.338  0.0448  0.3018  0.2477
  292TIP3    H122511   5.862   2.006   1.334  0.0589 -0.2637  1.0537
  292TIP3    H222512   5.739   2.016   1.246  0.7872 -0.6627 -0.0419
  293TIP3   OH222513   5.711   4.695   7.947  0.1700 -0.6049 -0.4737
  293TIP3    H122514   5.650   4.744   7.893 -1.0525 -0.5772  0.8827
  293TIP3    H222515   5.780   4.667   7.886 -1.5596 -1.2948 -2.2037
  294TIP3   OH222516   1.841   4.908   7.867 -0.4132 -0.0681  0.4390
  294TIP3    H122517   1.815   5.000   7.861  0.6905  0.2045 -0.6305
  294TIP3    H222518   1.893   4.893   7.788 -1.0671 -1.7766  0.2868
  295TIP3   OH222519   3.230   2.324   1.380  0.5081 -0.2255 -0.5784
  295TIP3    H122520   3.175   2.314   1.302  2.0543  0.4571 -1.8412
  295TIP3    H222521   3.230   2.238   1.421 -1.2462 -0.3045 -0.6695
  296TIP3   OH222522   4.061   5.944   7.913 -0.1994  0.5485  0.0855
  296TIP3    H122523   4.114   5.976   7.840  0.5097  0.7759  0.6893
  296TIP3    H222524   4.122   5.897   7.969 -0.8548 -0.1582  0.2327
  297TIP3   OH222525   4.195   0.129   1.984  0.2027  0.0391  0.0568
  297TIP3    H122526   4.107   0.157   1.962 -0.2658  0.1786  1.9109
  297TIP3    H222527   4.250   0.162   1.913 -1.0192  1.2760 -0.3550
  298TIP3   OH222528   2.266   2.356   1.668  0.4077 -0.0569 -0.0818
  298TIP3    H122529   2.227   2.437   1.703  0.0682 -0.3140  0.1417
  298TIP3    H222530   2.353   2.354   1.706  0.2881  0.0216  0.2027
  299TIP3   OH222531   3.516   4.790   2.077 -0.2016 -0.1833 -0.1024
  299TIP3    H122532   3.484   4.726   2.013 -1.1505  1.0750 -0.9344
  299TIP3    H222533   3.496   4.751   2.162  0.5000 -1.5991 -0.5601
  300TIP3   OH222534   4.521   6.221   2.372  0.1542 -0.0326 -0.0227
  300TIP3    H122535   4.432   6.190   2.389 -0.7326  0.4888 -3.2159
  300TIP3    H222536   4.569   6.142   2.344  0.1553  0.0518 -0.2557
  301TIP3   OH222537   1.518   2.856   2.439  0.4771 -0.0487  0.1441
  301TIP3    H122538   1.612   2.837   2.437  0.6736  0.7858  0.8203
  301TIP3    H222539   1.507   2.911   2.516 -0.7669 -1.1465  0.7984
  302TIP3   OH222540   2.156   4.250   1.399  0.1271 -0.0217 -0.4064
  302TIP3    H122541   2.091   4.189   1.365  2.1083 -1.8626 -1.0728
  302TIP3    H222542   2.106   4.311   1.453 -1.9675 -2.0962  0.1273
  303TIP3   OH222543   5.084   0.894   1.333 -0.0336  0.0492 -0.8351
  303TIP3    H122544   5.038   0.811   1.319 -0.6630  0.4769 -1.4019
  303TIP3    H222545   5.127   0.884   1.417 -2.2253  0.0911  0.3768
  304TIP3   OH222546   1.704   6.867   0.206  0.1789  0.1502 -0.7767
  304TIP3    H122547   1.775   6.817   0.246  0.0296 -0.4139 -1.2002
  304TIP3    H222548   1.625   6.831   0.247  0.0536 -0.1451 -1.2690
  305TIP3   OH222549   2.113   1.738   0.618 -0.1318  0.4099 -0.0142
  305TIP3    H122550   2.175   1.689   0.672  0.0610  0.8122  0.1337
  305TIP3    H222551   2.157   1.751   0.535  0.6243  2.0359  0.5990
  306TIP3   OH222552   0.238   5.535   7.787  0.2570  0.6550  0.4934
  306TIP3    H122553   0.218   5.441   7.784 -1.7139  1.0448 -0.2680
  306TIP3    H222554   0.174   5.571   7.849 -0.4415  1.7806 -0.8372
  307TIP3   OH222555   1.581   4.832   3.012  0.6536 -0.1826  0.3756
  307TIP3    H122556   1.562   4.890   3.086 -0.3089  0.3157 -0.2352
  307TIP3    H222557   1.646   4.879   2.961 -1.9259  1.6694 -1.4883
  308TIP3   OH222558   0.082   0.916   0.995  0.2251 -0.0281 -0.5176
  308TIP3    H122559   0.151   0.953   1.051  1.1977 -0.1581 -1.5902
  308TIP3    H222560   0.095   0.957   0.910 -2.1604  1.2701 -0.3429
  309TIP3   OH222561   2.482   1.905   8.268  0.0750 -0.4004  0.4729
  309TIP3    H122562   2.492   1.944   8.355  0.9571 -0.0011  0.2097
  309TIP3    H222563   2.511   1.973   8.207 -1.6570 -0.2455 -0.2328
  310TIP3   OH222564   4.719   2.864   1.786  0.2317  0.7397 -0.1350
  310TIP3    H122565   4.804   2.832   1.756 -0.3571 -0.2755 -0.7735
  310TIP3    H222566   4.727   2.870   1.881  0.6925 -0.3457 -0.0918
  311TIP3   OH222567   0.820   5.474   1.335  0.0935 -0.0616  0.0838
  311TIP3    H122568   0.802   5.551   1.281 -0.1228  0.4930  0.9332
  311TIP3    H222569   0.752   5.411   1.311  0.5284 -0.1771 -0.9300
  312TIP3   OH222570   5.580   6.183   1.972  0.1186  0.2138 -0.0094
  312TIP3    H122571   5.635   6.120   1.927 -0.7653  0.4054 -1.3897
  312TIP3    H222572   5.504   6.195   1.915 -0.8191  0.8110  1.3093
  313TIP3   OH222573   0.908   1.549   1.486 -0.5414  0.1374 -0.1844
  313TIP3    H122574   0.894   1.643   1.498 -1.8472 -0.0599 -0.0300
  313TIP3    H222575   0.904   1.536   1.391 -0.6453  0.1975 -0.1882
  314TIP3   OH222576   2.332   6.457   6.873 -0.4922  0.1505  0.1992
  314TIP3    H122577   2.269   6.396   6.912 -0.4279 -0.4528 -0.6252
  314TIP3    H222578   2.417   6.415   6.886 -0.0201  1.6865  2.7243
  315TIP3   OH222579   4.091   3.743   1.116 -0.3982 -0.3787 -0.1305
  315TIP3    H122580   4.111   3.722   1.208  1.7582  0.2562 -0.4070
  315TIP3    H222581   4.159   3.697   1.066 -0.4747  0.7035 -1.2728
  316TIP3   OH222582   3.313   1.267   7.490 -0.4375 -0.2108  0.5951
  316TIP3    H122583   3.228   1.247   7.452 -0.2440 -0.3778  0.2406
  316TIP3    H222584   3.297   1.341   7.548 -0.5016  0.9283 -0.8211
  317TIP3   OH222585   4.173   1.951   1.152  0.0209  0.6393  0.4059
  317TIP3    H122586   4.098   1.949   1.212  0.4332  0.2299  0.9113
  317TIP3    H222587   4.141   2.000   1.076 -1.1079 -0.4555  0.1434
  318TIP3   OH222588   2.293   4.792   2.675  0.1767  0.0976 -1.0068
  318TIP3    H122589   2.305   4.717   2.618  1.5357 -0.1408 -0.4638
  318TIP3    H222590   2.300   4.868   2.617  0.7351 -0.1595 -1.2837
  319TIP3   OH222591   5.430   1.361   1.787  0.0342 -0.4637 -0.3426
  319TIP3    H122592   5.491   1.386   1.856 -0.1368 -0.1157 -0.3120
  319TIP3    H222593   5.343   1.370   1.826 -0.0759 -0.0127 -0.6740
  320TIP3   OH222594   0.869   2.980   7.098 -0.1922 -0.3494  0.3107
  320TIP3    H122595   0.805   2.965   7.167 -2.1990  2.2794 -0.8343
  320TIP3    H222596   0.828   2.945   7.019  0.5363 -0.1566 -0.1603
  321TIP3   OH222597   2.233   6.487   8.084 -0.0781  0.2262 -0.0447
  321TIP3    H122598   2.303   6.533   8.038  0.2121  0.5894  0.7392
  321TIP3    H222599   2.278   6.422   8.137 -0.2190  1.2413  1.3710
  322TIP3   OH222600   0.678   6.473   0.782  0.0931 -0.5764 -0.3530
  322TIP3    H122601   0.609   6.459   0.846  0.5762 -0.8500  0.1143
  322TIP3    H222602   0.736   6.537   0.823  2.2833 -3.2358  1.0182
  323TIP3   OH222603   1.737   2.852   8.068 -0.6579 -0.6982  0.7102
  323TIP3    H122604   1.684   2.872   7.990 -0.6987 -0.3247  0.8344
  323TIP3    H222605   1.827   2.869   8.041 -0.6832 -0.4482  0.7831
  324TIP3   OH222606   6.052   3.725   2.473  0.0924 -0.0906 -0.5628
  324TIP3    H122607   6.022   3.815   2.478  0.0399 -0.0404 -1.5281
  324TIP3    H222608   6.147   3.730   2.486 -0.0772 -0.0728  0.8432
  325TIP3   OH222609   2.291   0.922   0.103  0.3021  0.1859 -0.0842
  325TIP3    H122610   2.342   0.986   0.153  1.0350  0.1539 -0.7772
  325TIP3    H222611   2.302   0.840   0.150 -0.2349  0.4478  0.5281
  326TIP3   OH222612   0.534   0.858   1.724 -0.0680 -0.4137 -0.1721
  326TIP3    H122613   0.466   0.815   1.775 -0.6489  0.2172 -0.3974
  326TIP3    H222614   0.522   0.824   1.635  0.3044 -0.7601 -0.0918
  327TIP3   OH222615   2.033   4.452   1.611 -0.2643  0.5387 -0.5431
  327TIP3    H122616   1.950   4.445   1.564 -0.9802  0.3109  0.7067
  327TIP3    H222617   2.040   4.546   1.631 -0.1363  0.5809 -0.7777
  328TIP3   OH222618   1.336   4.139   8.114  0.1114 -0.1411 -0.4535
  328TIP3    H122619   1.269   4.094   8.062  0.5481  0.5877 -1.6823
  328TIP3    H222620   1.286   4.186   8.182 -0.4114 -1.7035  0.2982
  329TIP3   OH222621   2.093   1.037   7.195  0.4939  0.1313 -0.0787
  329TIP3    H122622   2.185   1.046   7.220  0.6762  1.6703 -1.1033
  329TIP3    H222623   2.090   1.066   7.104 -0.5503 -2.7147 -1.0516
  330TIP3   OH222624   6.020   5.132   1.959  0.5544 -0.1547 -0.7166
  330TIP3    H122625   5.949   5.142   1.895 -0.3716 -2.2842 -0.1305
  330TIP3    H222626   6.049   5.221   1.977 -1.3268  0.7271 -1.7167
  331TIP3   OH222627   0.224   5.115   2.027 -0.4043 -0.0306  0.2923
  331TIP3    H122628   0.156   5.053   2.053  0.0526  0.0238  1.7240
  331TIP3    H222629   0.306   5.071   2.051  0.0073  0.4234 -0.2511
  332TIP3   OH222630   5.374   6.865   7.201  0.3612 -0.0227 -0.5395
  332TIP3    H122631   5.404   6.836   7.115  1.4520  1.5434 -0.7479
  332TIP3    H222632   5.298   6.921   7.183 -1.4845 -2.2806 -0.1752
  333TIP3   OH222633   0.807   6.769   2.280 -0.2776 -0.1919  0.0581
  333TIP3    H122634   0.862   6.805   2.350  1.0943  0.7067 -1.4097
  333TIP3    H222635   0.778   6.684   2.314  0.6069  0.0735  1.5851
  334TIP3   OH222636   4.429   0.531   0.116  0.1601  0.2813  0.0524
  334TIP3    H122637   4.522   0.554   0.108  0.1483  0.9194  1.4896
  334TIP3    H222638   4.413   0.470   0.043  2.3673 -1.9621  1.2802
  335TIP3   OH222639   3.794   3.116   1.192 -0.3998 -0.8147  0.0759
  335TIP3    H122640   3.855   3.060   1.240 -0.8484  1.0813  3.1401
  335TIP3    H222641   3.707   3.085   1.218 -0.6561  1.1066  1.8259
  336TIP3   OH222642   0.191   6.052   8.192 -0.5194 -0.4632 -0.4692
  336TIP3    H122643   0.232   6.012   8.115  0.7595 -0.3473  0.1236
  336TIP3    H222644   0.195   6.146   8.175  1.9568 -0.2686  0.7167
  337TIP3   OH222645   3.637   0.259   7.203  0.0478  0.1170  0.4786
  337TIP3    H122646   3.634   0.354   7.191 -2.2296  0.2847  1.7582
  337TIP3    H222647   3.564   0.240   7.262  0.0776 -2.5057 -0.1994
  338TIP3   OH222648   4.723   2.188   0.943 -0.7176 -0.4604 -0.0326
  338TIP3    H122649   4.643   2.201   0.993  0.0267 -1.4164  1.4694
  338TIP3    H222650   4.718   2.097   0.913  1.0227 -1.5057  2.4894
  339TIP3   OH222651   4.065   0.774   2.875  0.1777  0.0738 -0.1589
  339TIP3    H122652   4.026   0.770   2.788  1.4064  0.6517 -0.7662
  339TIP3    H222653   4.092   0.684   2.894  0.4627  0.0545 -0.6445
  340TIP3   OH222654   4.421   1.095   0.483 -0.0960 -0.1519 -0.8998
  340TIP3    H122655   4.514   1.077   0.465  0.5641  1.7716  0.3055
  340TIP3    H222656   4.416   1.190   0.491 -2.0981 -0.2608 -0.4160
  341TIP3   OH222657   3.119   2.477   7.966  0.3289  0.1656  0.3883
  341TIP3    H122658   3.027   2.450   7.971  0.2865  0.4512  1.1965
  341TIP3    H222659   3.116   2.562   7.921  0.2814 -0.2280 -0.3641
  342TIP3   OH222660   2.560   2.577   2.055 -0.1961  0.2611 -0.3885
  342TIP3    H122661   2.469   2.604   2.042 -0.1074  1.2264  0.8137
  342TIP3    H222662   2.575   2.587   2.149  1.6486  1.7792 -0.7807
  343TIP3   OH222663   4.186   0.058   1.639  0.2533  0.5052  0.2878
  343TIP3    H122664   4.276   0.086   1.623  0.9645 -1.8388 -0.3012
  343TIP3    H222665   4.136   0.139   1.645  2.6753  1.9917  2.6249
  344TIP3   OH222666   5.539   6.133   8.459 -0.3152  0.4324  0.1381
  344TIP3    H122667   5.601   6.071   8.420  1.0854  1.2894  0.8927
  344TIP3    H222668   5.495   6.083   8.527 -1.6577 -0.6377 -1.4483
  345TIP3   OH222669   3.593   2.920   1.289  0.2454 -0.3657 -0.0909
  345TIP3    H122670   3.514   2.953   1.334  1.0479  1.3954  0.1402
  345TIP3    H222671   3.605   2.832   1.323 -2.9905 -1.7267 -1.9588
  346TIP3   OH222672   5.257   6.019   1.950  0.0522  0.0973  0.3792
  346TIP3    H122673   5.330   6.012   2.012  1.0954  0.8244 -0.7090
  346TIP3    H222674   5.225   5.929   1.940  1.3178 -0.3650  0.2931
  347TIP3   OH222675   5.459   0.935   7.982  0.6187  0.2385 -0.4173
  347TIP3    H122676   5.380   0.885   7.960 -0.0560  1.1009 -0.0470
  347TIP3    H222677   5.432   0.991   8.055  1.6866  0.2928 -0.0391
  348TIP3   OH222678   6.858   2.506   7.928 -0.4463  0.7479 -0.0662
  348TIP3    H122679   6.883   2.500   8.020 -0.3227 -0.9110 -0.1688
  348TIP3    H222680   6.841   2.599   7.913  1.2044  1.2971  1.1882
  349TIP3   OH222681   2.961   2.577   1.864 -0.0678  0.4160 -0.2680
  349TIP3    H122682   2.980   2.532   1.782  0.3917 -0.2315  0.1835
  349TIP3    H222683   2.901   2.518   1.910 -1.7740  1.5789 -0.8769
  350TIP3   OH222684   1.565   4.470   2.204 -0.4586  0.4018  0.7273
  350TIP3    H122685   1.654   4.447   2.229 -0.6987 -0.5454  0.7237
  350TIP3    H222686   1.518   4.476   2.288 -0.3459  1.1160  0.7442
  351TIP3   OH222687   0.384   1.246   0.059  0.7109  0.3637  0.2196
  351TIP3    H122688   0.359   1.294   0.138  0.7839  0.9174 -0.0896
  351TIP3    H222689   0.338   1.163   0.066  1.1236  0.1938  1.0995
  352TIP3   OH222690   0.349   4.440   7.780 -0.2578 -0.3292 -0.6710
  352TIP3    H122691   0.399   4.507   7.827  0.2937  1.4064 -3.5288
  352TIP3    H222692   0.406   4.363   7.779  0.3912  0.1281  0.0661
  353TIP3   OH222693   5.528   2.866   7.590 -0.4402  0.7321  0.2605
  353TIP3    H122694   5.510   2.872   7.497 -1.5574  1.4774  0.5072
  353TIP3    H222695   5.623   2.871   7.597 -0.3478  0.6704 -0.8275
  354TIP3   OH222696   3.651   1.692   1.138  0.2040  0.1200  0.2309
  354TIP3    H122697   3.689   1.619   1.187 -2.0952 -1.6855 -0.5166
  354TIP3    H222698   3.561   1.665   1.121  0.2217  1.6892 -2.9844
  355TIP3   OH222699   2.281   3.633   0.013  0.1564  0.1878  0.0306
  355TIP3    H122700   2.344   3.601   0.077 -0.0383 -0.1335  0.0603
  355TIP3    H222701   2.332   3.641  -0.068  0.8135  2.1359  0.5828
  356TIP3   OH222702   1.901   5.848   2.081 -0.2430 -0.1723  0.1827
  356TIP3    H122703   1.834   5.878   2.020  1.1455 -0.3039 -1.4944
  356TIP3    H222704   1.932   5.766   2.042 -1.1102 -1.6964  2.4852
  357TIP3   OH222705   6.082   2.886   8.480 -0.1438 -0.0948  0.0942
  357TIP3    H122706   6.148   2.911   8.415 -0.4653 -0.9196 -0.5656
  357TIP3    H222707   6.012   2.846   8.429 -0.6750 -0.2154  0.8998
  358TIP3   OH222708   1.920   0.398   0.157 -0.0645 -0.1688 -0.2899
  358TIP3    H122709   1.953   0.441   0.078  1.3033  1.7095  1.2372
  358TIP3    H222710   1.982   0.326   0.172  0.6435  0.4883 -0.0235
  359TIP3   OH222711   6.397   5.959   1.360 -0.2839 -0.2973  0.3016
  359TIP3    H122712   6.431   5.878   1.322  1.6195  0.7166 -0.2864
  359TIP3    H222713   6.347   5.999   1.289 -0.2914 -0.4171  0.2378
  360TIP3   OH222714   1.316   6.666   7.447 -0.2149  0.1418  0.1881
  360TIP3    H122715   1.246   6.628   7.499 -0.2346  0.2131  0.2145
  360TIP3    H222716   1.278   6.681   7.361  0.2322 -1.3286 -0.2840
  361TIP3   OH222717   5.500   5.828   1.877 -0.2277  0.5351  0.9473
  361TIP3    H122718   5.443   5.834   1.801 -2.7054  1.7134  2.7594
  361TIP3    H222719   5.483   5.908   1.927  0.8972 -0.4154  3.0054
  362TIP3   OH222720   0.596   4.860   7.045 -0.1377  0.1851  0.1379
  362TIP3    H122721   0.643   4.802   6.985  0.3069  0.2774  0.3899
  362TIP3    H222722   0.511   4.874   7.003 -0.4210 -0.9839  0.2807
  363TIP3   OH222723   6.301   2.044   1.513  0.0788  0.0952 -0.4725
  363TIP3    H122724   6.233   2.005   1.568  0.0626 -0.7092 -1.0448
  363TIP3    H222725   6.323   1.975   1.450  1.6875  0.2023 -0.0742
  364TIP3   OH222726   3.232   5.078   0.626  0.2996 -0.0808 -0.2376
  364TIP3    H122727   3.222   5.116   0.713  1.7775 -0.6296  0.2100
  364TIP3    H222728   3.250   5.152   0.568 -0.4547  0.2597 -0.0405
  365TIP3   OH222729   5.929   0.815   2.511 -0.1756  0.5357 -0.3213
  365TIP3    H122730   5.975   0.731   2.506  0.0655  0.6397  0.0633
  365TIP3    H222731   5.988   0.871   2.561 -0.0721  1.1135 -1.0688
  366TIP3   OH222732   2.368   1.290   7.175  0.1790  0.1369  0.5001
  366TIP3    H122733   2.444   1.341   7.145  0.0104 -0.4198 -0.9823
  366TIP3    H222734   2.393   1.199   7.158 -1.0379 -0.0241 -0.6268
  367TIP3   OH222735   4.137   1.542   7.758  0.3897 -0.3124 -0.1152
  367TIP3    H122736   4.069   1.609   7.758 -0.2165 -0.8713 -1.7553
  367TIP3    H222737   4.197   1.570   7.689  1.3663 -0.2903  0.7243
  368TIP3   OH222738   1.690   0.357   2.786  0.2966 -0.1845 -0.3853
  368TIP3    H122739   1.696   0.263   2.804  1.6471 -0.7025 -3.0239
  368TIP3    H222740   1.603   0.382   2.817  1.1816 -1.4248  3.6697
  369TIP3   OH222741   4.973   1.802   2.510 -0.0220 -0.7295  0.5060
  369TIP3    H122742   4.928   1.879   2.474  1.2502 -0.2943 -0.2055
  369TIP3    H222743   5.063   1.811   2.480  0.7403 -1.1931  2.5370
  370TIP3   OH222744   1.209   3.166   7.882  0.2419 -0.5486 -0.4272
  370TIP3    H122745   1.131   3.138   7.931 -0.1893 -1.0614 -1.3763
  370TIP3    H222746   1.191   3.257   7.858  0.5102 -0.2533  0.4575
  371TIP3   OH222747   2.591   2.101   8.100 -0.2346 -0.8121 -0.0144
  371TIP3    H122748   2.567   2.043   8.028  0.3338 -0.2686 -0.6521
  371TIP3    H222749   2.572   2.189   8.068  0.0108 -0.5668  0.5008
  372TIP3   OH222750   2.662   6.026   0.308 -0.0993  1.0094  0.3436
  372TIP3    H122751   2.629   5.936   0.309  0.8430  0.6194 -0.9806
  372TIP3    H222752   2.596   6.076   0.260 -0.1426  0.8162  0.2030
  373TIP3   OH222753   3.941   6.334   1.162 -0.8716  1.2028  0.2565
  373TIP3    H122754   3.869   6.332   1.225  0.7641  0.0960  2.2067
  373TIP3    H222755   4.017   6.300   1.210  0.7319  1.2959 -2.0158
  374TIP3   OH222756   4.234   1.653   1.749  0.7569  0.2452 -0.9082
  374TIP3    H122757   4.287   1.676   1.826 -0.8170 -2.7132  1.2848
  374TIP3    H222758   4.164   1.719   1.748 -1.3566 -1.5756  2.7102
  375TIP3   OH222759   1.580   6.775   0.647 -0.5777  0.3317  0.0933
  375TIP3    H122760   1.653   6.717   0.669 -1.7780 -1.7347 -1.0768
  375TIP3    H222761   1.508   6.716   0.625 -1.5382  2.2429 -2.3910
  376TIP3   OH222762   1.005   2.918   1.948  0.2444  0.1680 -0.2736
  376TIP3    H122763   0.975   2.854   2.013 -1.5446  1.1273 -0.1212
  376TIP3    H222764   1.056   2.981   1.999  0.6005 -0.1988 -0.1615
  377TIP3   OH222765   1.337   3.552   1.426  0.1828  0.6822 -0.0221
  377TIP3    H122766   1.289   3.527   1.346 -0.2041 -1.1457  0.7324
  377TIP3    H222767   1.395   3.477   1.443 -1.5190 -0.1347  2.7625
  378TIP3   OH222768   5.905   0.633   0.557  0.4212  0.5945 -0.2912
  378TIP3    H122769   5.936   0.545   0.580  1.0331  0.8661 -0.0515
  378TIP3    H222770   5.930   0.688   0.631  1.6545  1.3187 -1.2068
  379TIP3   OH222771   2.369   2.100   0.609 -0.1586 -0.1657  0.0352
  379TIP3    H122772   2.378   2.161   0.536 -1.4974  1.0996  0.8799
  379TIP3    H222773   2.300   2.138   0.664 -1.1403 -2.5225  0.5337
  380TIP3   OH222774   1.350   0.592   0.128 -0.3104  0.3041 -0.5685
  380TIP3    H122775   1.329   0.640   0.208  1.0585 -1.4016  0.8992
  380TIP3    H222776   1.285   0.521   0.125  0.5548 -0.5189 -0.1324
  381TIP3   OH222777   0.009   6.940   0.802 -0.2396 -0.1322 -0.0401
  381TIP3    H122778  -0.018   7.006   0.866  0.2651 -0.5433  0.6070
  381TIP3    H222779   0.034   6.991   0.725  0.6704  0.4889  0.6400
  382TIP3   OH222780   4.149   3.652   1.374  0.0866 -0.0924 -0.4302
  382TIP3    H122781   4.175   3.567   1.338  1.1170 -0.1533  0.4199
  382TIP3    H222782   4.230   3.690   1.408 -0.4309  1.0679 -0.4528
  383TIP3   OH222783   5.594   1.842   2.068  0.7492 -0.1401  0.1959
  383TIP3    H122784   5.572   1.916   2.124  0.2543 -0.6498  0.6937
  383TIP3    H222785   5.679   1.812   2.100  0.8741  0.1146  0.0996
  384TIP3   OH222786   2.989   6.490   2.367  0.3751  0.1596 -0.0810
  384TIP3    H122787   3.017   6.400   2.353 -1.7807 -0.4896 -0.6117
  384TIP3    H222788   2.968   6.495   2.460  1.6995  0.5131  0.2181
  385TIP3   OH222789   4.476   0.834   0.340 -0.1071  0.0104  0.3306
  385TIP3    H122790   4.408   0.900   0.326 -0.4230 -0.2274  0.7358
  385TIP3    H222791   4.467   0.810   0.432 -1.1233 -1.8151 -0.1998
  386TIP3   OH222792   1.363   3.024   1.290 -0.4394 -0.3258  0.3925
  386TIP3    H122793   1.365   2.945   1.236  1.6314  1.5012 -2.5386
  386TIP3    H222794   1.431   3.011   1.356  1.0454 -0.4239 -1.0948
  387TIP3   OH222795   0.460   5.492   0.647 -0.1883  0.1154  0.6203
  387TIP3    H122796   0.515   5.564   0.676  0.6657 -0.6826  1.0253
  387TIP3    H222797   0.371   5.518   0.671  0.0492  1.2168  0.3605
  388TIP3   OH222798   6.530   0.875   8.407 -0.2031 -0.0121 -0.4167
  388TIP3    H122799   6.589   0.818   8.356  0.7345  1.0571 -0.5616
  388TIP3    H222800   6.587   0.942   8.443 -1.3510  1.0665 -0.5612
  389TIP3   OH222801   4.784   5.855   8.295  0.3993 -0.9894  0.1585
  389TIP3    H122802   4.734   5.791   8.244 -1.3280  0.3729  0.0478
  389TIP3    H222803   4.723   5.885   8.362  0.6783  1.4170 -0.5374
  390TIP3   OH222804   2.671   0.699   1.079 -0.3323  0.0621  0.1393
  390TIP3    H122805   2.736   0.714   1.148 -0.2929 -0.5098  0.2340
  390TIP3    H222806   2.702   0.750   1.005  0.0800  0.0128  0.2752
  391TIP3   OH222807   5.338   3.599   1.454  0.0411 -0.6253  0.4505
  391TIP3    H122808   5.408   3.535   1.465  1.0022 -0.2647 -2.5741
  391TIP3    H222809   5.374   3.680   1.490 -0.3316 -1.2294  2.2839
  392TIP3   OH222810   4.092   0.415   7.724 -0.2238  0.0169  0.1198
  392TIP3    H122811   4.049   0.479   7.668 -1.0879 -1.7049 -1.2598
  392TIP3    H222812   4.142   0.360   7.664 -0.4643 -1.3344  1.1110
  393TIP3   OH222813   1.641   4.584   3.102  0.5667  0.1678  0.1008
  393TIP3    H122814   1.632   4.518   3.034  0.1498 -0.0284  0.3441
  393TIP3    H222815   1.592   4.659   3.070  1.2313  0.4467 -0.2800
  394TIP3   OH222816   0.293   1.073   1.110 -0.1736  0.1208  0.2273
  394TIP3    H122817   0.346   1.023   1.171  1.2170 -0.4309 -1.3564
  394TIP3    H222818   0.320   1.164   1.123  0.4080 -0.0394  0.1705
  395TIP3   OH222819   2.983   6.189   2.074  0.3157 -0.3041  0.3630
  395TIP3    H122820   3.001   6.263   2.016 -0.3684 -0.1288  0.3689
  395TIP3    H222821   2.899   6.155   2.044 -1.3064  1.2832  2.7101
  396TIP3   OH222822   4.343   3.405   1.533  0.2526  0.4068 -0.1239
  396TIP3    H122823   4.400   3.336   1.567 -0.1660  0.1197  0.0173
  396TIP3    H222824   4.373   3.485   1.576  0.9917  0.3795 -0.5884
  397TIP3   OH222825   1.563   5.598   8.032  0.0970  0.8114 -0.4049
  397TIP3    H122826   1.497   5.666   8.039 -1.5769 -0.3521 -3.1997
  397TIP3    H222827   1.561   5.572   7.940  2.5130 -1.2226 -0.0003
  398TIP3   OH222828   2.960   0.688   2.562  0.2970  0.2534  0.0213
  398TIP3    H122829   2.868   0.695   2.588 -0.3378  1.0471 -2.2281
  398TIP3    H222830   3.008   0.689   2.645 -1.6195  1.3988  1.2061
  399TIP3   OH222831   3.884   6.927   6.726 -0.2590  1.0510 -0.0257
  399TIP3    H122832   3.968   6.956   6.761  0.9202 -0.3729 -1.5049
  399TIP3    H222833   3.901   6.839   6.692 -2.4922  0.5140  0.0910
  400TIP3   OH222834   3.597   0.334   0.918 -0.0402 -0.2358 -0.3221
  400TIP3    H122835   3.582   0.324   1.012  0.0664  0.0699 -0.2701
  400TIP3    H222836   3.690   0.354   0.911 -0.4089  1.7561 -0.3101
  401TIP3   OH222837   6.896   5.588   1.369  0.2436  0.2051 -0.0401
  401TIP3    H122838   6.985   5.559   1.347 -0.8325 -1.4866 -2.7135
  401TIP3    H222839   6.840   5.538   1.310 -2.6342  0.2303  2.4711
  402TIP3   OH222840   0.455   1.321   2.239 -0.3590 -0.3628  0.3496
  402TIP3    H122841   0.359   1.325   2.240 -0.4145 -1.3656  0.1807
  402TIP3    H222842   0.481   1.387   2.175 -0.6843  3.2443  3.5692
  403TIP3   OH222843   1.307   5.805   7.293 -0.4127  0.3709  0.3270
  403TIP3    H122844   1.275   5.808   7.203  0.2160  1.9865  0.1311
  403TIP3    H222845   1.231   5.825   7.347 -0.7296 -0.3418  0.1585
  404TIP3   OH222846   2.428   1.933   3.496 -0.4351  0.3088  0.3034
  404TIP3    H122847   2.363   1.965   3.432 -0.1075  0.9279  0.2707
  404TIP3    H222848   2.468   1.857   3.453  1.8459  2.3774 -1.5591
  405TIP3   OH222849   6.530   0.647   6.413  0.1400 -0.2413  0.1863
  405TIP3    H122850   6.468   0.632   6.484 -0.2361 -0.3749 -0.1720
  405TIP3    H222851   6.582   0.567   6.409 -1.5152 -1.3091 -1.3732
  406TIP3   OH222852   2.543   5.331   0.717 -0.8228 -0.2817 -0.5750
  406TIP3    H122853   2.598   5.286   0.781 -0.4337 -0.5698 -1.1093
  406TIP3    H222854   2.523   5.265   0.651  0.7985  0.6008 -2.0310
  407TIP3   OH222855   2.392   1.997   7.641 -0.1320  0.8631  0.1617
  407TIP3    H122856   2.348   1.914   7.660  0.2608  1.1556  2.8503
  407TIP3    H222857   2.469   1.973   7.591  0.8347 -0.6803  2.2450
  408TIP3   OH222858   4.382   4.514   7.118 -0.2138 -0.5005 -0.9643
  408TIP3    H122859   4.409   4.556   7.199 -0.0234 -3.1020  0.4264
  408TIP3    H222860   4.449   4.538   7.054  0.5555  0.2352  0.0896
  409TIP3   OH222861   6.808   1.005   8.220  0.1207  0.1237 -0.0846
  409TIP3    H122862   6.836   1.076   8.162  1.1079  0.7152  1.0692
  409TIP3    H222863   6.880   0.996   8.283  0.1785 -2.1534 -0.4147
  410TIP3   OH222864   4.474   3.235   1.730 -0.4083  0.5101 -0.0386
  410TIP3    H122865   4.386   3.210   1.758  0.0590  0.4148  1.4062
  410TIP3    H222866   4.501   3.303   1.791  0.7522  0.1150 -0.0775
  411TIP3   OH222867   3.780   6.378   0.160  0.3073 -0.1338  0.3087
  411TIP3    H122868   3.702   6.357   0.213 -1.3875 -1.5037 -2.5123
  411TIP3    H222869   3.849   6.322   0.196 -1.1816 -2.1476  0.1860
  412TIP3   OH222870   2.012   5.865   8.299  0.1644  0.0140 -0.2035
  412TIP3    H122871   1.978   5.928   8.362 -0.3171  0.3453 -0.7801
  412TIP3    H222872   2.075   5.915   8.246 -0.9282  0.2928 -1.2880
  413TIP3   OH222873   3.274   1.035   1.332 -0.7544  0.0543 -0.3489
  413TIP3    H122874   3.250   0.991   1.413  0.4320  1.8293  1.0397
  413TIP3    H222875   3.209   1.104   1.321 -0.9644 -0.2322 -0.9785
  414TIP3   OH222876   4.718   3.049   1.181 -0.0532 -0.0143  0.6823
  414TIP3    H122877   4.734   3.004   1.264 -2.0399  1.5458  2.0103
  414TIP3    H222878   4.705   2.979   1.117  2.1544 -1.2532  1.4978
  415TIP3   OH222879   2.108   0.270   8.349 -0.2655 -0.3597  0.0003
  415TIP3    H122880   2.037   0.331   8.368 -0.2551 -0.3799  0.1035
  415TIP3    H222881   2.124   0.280   8.255  1.0494  1.2124  0.3427
  416TIP3   OH222882   2.730   4.640   2.171 -0.2344  0.0598  0.5715
  416TIP3    H122883   2.825   4.632   2.181 -0.2786 -0.2442  0.7335
  416TIP3    H222884   2.714   4.735   2.168  0.4034  0.1814 -2.4870
  417TIP3   OH222885   1.552   6.187   0.796  0.3581  0.0306  0.6136
  417TIP3    H122886   1.523   6.181   0.887  1.0099 -0.5882  0.7907
  417TIP3    H222887   1.490   6.133   0.747  1.0460 -1.1208  0.9615
  418TIP3   OH222888   6.508   0.069   7.073  0.1697  0.0023 -0.1300
  418TIP3    H122889   6.538   0.123   7.146 -1.1501  1.3866 -0.5693
  418TIP3    H222890   6.578   0.075   7.008  0.3815  0.5552  0.1432
  419TIP3   OH222891   0.283   0.075   7.486  0.2677  0.7058  0.4127
  419TIP3    H122892   0.365   0.073   7.436  0.1349 -0.7494  0.2147
  419TIP3    H222893   0.242  -0.010   7.467 -1.3410  1.4562  0.4159
  420TIP3   OH222894   3.947   0.779   2.630 -0.1205  0.5706  0.1305
  420TIP3    H122895   3.941   0.865   2.589  1.1236 -0.2347 -1.8599
  420TIP3    H222896   3.946   0.717   2.557 -0.4003 -1.0822  1.4794
  421TIP3   OH222897   0.474   6.467   0.548  0.0155  0.0692  0.2859
  421TIP3    H122898   0.555   6.507   0.515 -0.3800  0.0087 -0.8030
  421TIP3    H222899   0.405   6.527   0.519 -0.7886 -2.1495 -2.8944
  422TIP3   OH222900   2.324   2.454   7.585  0.2382 -0.0019  0.1150
  422TIP3    H122901   2.344   2.535   7.632 -1.3413  2.7076 -3.4138
  422TIP3    H222902   2.229   2.446   7.590  0.2689 -0.9898 -0.5459
  423TIP3   OH222903   4.886   6.532   0.611 -0.0310 -0.1116  0.4596
  423TIP3    H122904   4.862   6.580   0.532 -0.1739 -1.7882 -0.5650
  423TIP3    H222905   4.981   6.519   0.603  0.2573  1.1793  1.4425
  424TIP3   OH222906   5.500   5.019   2.151  0.8158 -0.0204 -0.7852
  424TIP3    H122907   5.586   5.016   2.194 -0.1129  1.1219  1.2792
  424TIP3    H222908   5.511   5.082   2.080  2.1738 -1.3829 -1.8867
  425TIP3   OH222909   5.038   4.935   2.103 -0.0329 -0.4409 -0.0867
  425TIP3    H122910   5.088   4.945   2.184 -0.9962 -0.7093  0.5599
  425TIP3    H222911   4.995   4.849   2.112 -2.4497  0.7425  0.4420
  426TIP3   OH222912   4.529   0.551   7.463 -0.8057  0.1566  0.2171
  426TIP3    H122913   4.438   0.579   7.472 -1.2027 -0.6477 -0.9927
  426TIP3    H222914   4.537   0.527   7.370  0.3208 -0.8867  0.5642
  427TIP3   OH222915   1.230   5.353   1.172 -1.0098  0.2406  0.3056
  427TIP3    H122916   1.283   5.359   1.251  0.8162 -1.7342 -0.6887
  427TIP3    H222917   1.166   5.284   1.191 -1.9518  1.2116  0.7661
  428TIP3   OH222918   2.568   0.116   7.088  0.9596 -0.1776  0.3605
  428TIP3    H122919   2.540   0.200   7.051  0.7010 -0.4967 -0.1719
  428TIP3    H222920   2.514   0.051   7.045 -0.7675 -0.4411  2.7033
  429TIP3   OH222921   0.740   0.905   7.752 -0.0915  0.0530 -0.6360
  429TIP3    H122922   0.757   0.930   7.843  0.0300  3.1321 -1.3952
  429TIP3    H222923   0.820   0.928   7.705 -0.7313  0.0170 -1.7800
  430TIP3   OH222924   3.059   2.113   0.994 -0.4224  0.2556  0.3264
  430TIP3    H122925   3.081   2.176   1.062  0.8120  1.7020 -1.3159
  430TIP3    H222926   2.964   2.106   0.998 -0.2999 -0.9601  3.1963
  431TIP3   OH222927   3.464   0.853   3.178  0.2118 -0.2094  0.2405
  431TIP3    H122928   3.536   0.914   3.162  0.4501 -0.0959  1.6127
  431TIP3    H222929   3.392   0.887   3.124  1.0144 -0.0346 -0.7595
  432TIP3   OH222930   6.948   5.661   0.452 -0.3033  0.8266 -0.3367
  432TIP3    H122931   6.914   5.746   0.480 -0.9425  0.8444 -1.1437
  432TIP3    H222932   6.912   5.648   0.365 -2.6484 -1.6020  0.8661
  433TIP3   OH222933   4.746   2.453   1.783 -0.4369  0.3193  0.1225
  433TIP3    H122934   4.659   2.486   1.807 -0.0397  1.9256 -0.5073
  433TIP3    H222935   4.763   2.491   1.697  1.6978  1.7361  1.0824
  434TIP3   OH222936   2.196   5.258   0.475 -0.4274  0.1113 -0.7325
  434TIP3    H122937   2.172   5.336   0.524  2.1271 -0.2922  1.4138
  434TIP3    H222938   2.144   5.263   0.395  0.0863  4.3694 -1.0512
  435TIP3   OH222939   0.137   3.396   8.270  0.4091 -0.4300 -0.4331
  435TIP3    H122940   0.182   3.444   8.200 -2.1897 -0.8262 -2.5490
  435TIP3    H222941   0.111   3.464   8.332  2.5197 -0.0267  0.0996
  436TIP3   OH222942   5.549   0.647   6.400 -0.7128  0.1623  0.3241
  436TIP3    H122943   5.462   0.617   6.425 -1.1824  1.1195 -0.1010
  436TIP3    H222944   5.549   0.740   6.421  0.1918  0.1810  0.2712
  437TIP3   OH222945   1.851   2.655   0.715 -0.0208  0.1901  0.3323
  437TIP3    H122946   1.896   2.571   0.713  1.3591  0.8923  0.3148
  437TIP3    H222947   1.831   2.674   0.623 -0.8621 -0.3765  0.3920
  438TIP3   OH222948   6.492   1.780   8.254 -0.0598  0.4830  0.6436
  438TIP3    H122949   6.480   1.812   8.344 -2.4986  0.0271  0.5325
  438TIP3    H222950   6.579   1.741   8.255  0.4995  1.6235  2.4580
  439TIP3   OH222951   1.235   1.413   7.628 -0.7245  0.1821  0.7174
  439TIP3    H122952   1.298   1.389   7.697  0.1744 -0.3823 -0.2761
  439TIP3    H222953   1.217   1.505   7.645  4.0703  1.9197 -1.6377
  440TIP3   OH222954   5.027   6.307   0.268 -0.1476 -0.0725  0.7779
  440TIP3    H122955   4.935   6.327   0.281 -0.4244 -0.2738 -0.7455
  440TIP3    H222956   5.074   6.383   0.304 -1.0312  1.5272 -1.2569
  441TIP3   OH222957   3.135   0.098   7.507 -0.7164 -0.4113 -0.0621
  441TIP3    H122958   3.043   0.106   7.534 -1.3122 -0.9357 -1.7740
  441TIP3    H222959   3.132   0.109   7.412  1.1261  0.4613 -0.0454
  442TIP3   OH222960   6.812   0.109   1.615  0.0693  0.9635 -0.6268
  442TIP3    H122961   6.865   0.135   1.540  1.4044  0.0897 -0.0061
  442TIP3    H222962   6.858   0.144   1.691 -1.1172  1.5823 -0.1602
  443TIP3   OH222963   3.498   3.656   2.176 -0.0471  0.0732  0.2816
  443TIP3    H122964   3.572   3.710   2.204 -1.3667  1.4109  1.3494
  443TIP3    H222965   3.533   3.603   2.104  1.9368  0.6433  0.7671
  444TIP3   OH222966   1.945   2.178   8.144 -0.2858  0.0035  0.1031
  444TIP3    H122967   2.040   2.166   8.134 -0.3818 -0.3066 -0.4786
  444TIP3    H222968   1.919   2.227   8.066 -0.7396 -0.6760 -0.1811
  445TIP3   OH222969   3.216   0.648   8.422  0.1170 -0.5797  0.5795
  445TIP3    H122970   3.309   0.639   8.401 -0.3301 -1.9615 -1.0305
  445TIP3    H222971   3.192   0.735   8.389  0.4710 -0.9069 -0.5700
  446TIP3   OH222972   2.404   2.814   1.528 -0.2258  0.7776 -0.2675
  446TIP3    H122973   2.458   2.793   1.603 -0.6148  0.4009 -0.0898
  446TIP3    H222974   2.443   2.894   1.491  0.0931  0.8384  0.2012
  447TIP3   OH222975   1.833   2.199   7.845  0.0847  0.0399  0.4008
  447TIP3    H122976   1.759   2.234   7.794  0.5277 -0.5788 -0.7207
  447TIP3    H222977   1.805   2.110   7.868  0.5681 -0.2931 -0.2598
  448TIP3   OH222978   4.862   6.866   7.879 -0.5655  0.4682  0.1810
  448TIP3    H122979   4.776   6.831   7.858 -1.4453  1.5750  1.7487
  448TIP3    H222980   4.862   6.955   7.843 -0.8391  1.1604  1.7815
  449TIP3   OH222981   0.754   1.883   7.687 -0.1922 -0.0070  0.1353
  449TIP3    H122982   0.772   1.886   7.593  0.5861  1.8357  0.2864
  449TIP3    H222983   0.825   1.935   7.726 -0.6482 -0.5181  1.7231
  450TIP3   OH222984   0.055   5.784   8.455 -0.1949  0.1426  0.0267
  450TIP3    H122985   0.019   5.862   8.497 -0.1870  0.1635 -0.0042
  450TIP3    H222986   0.095   5.734   8.526  0.8966  0.7763 -0.1251
  451TIP3   OH222987   5.174   3.953   1.408 -0.8352 -0.4550 -0.2725
  451TIP3    H122988   5.148   4.041   1.382  0.8663  0.5737  1.2204
  451TIP3    H222989   5.217   3.917   1.331  0.5417  0.9660 -0.2277
  452TIP3   OH222990   0.599   4.898   1.329  0.5480 -0.7368 -0.1202
  452TIP3    H122991   0.612   4.840   1.404 -1.0130  0.1168  0.8629
  452TIP3    H222992   0.687   4.912   1.293  1.7081  0.6643  2.9617
  453TIP3   OH222993   6.086   2.020   0.274 -0.4876  0.0303 -0.7009
  453TIP3    H122994   6.137   1.947   0.310  3.6329  2.0783 -1.8012
  453TIP3    H222995   6.024   1.978   0.215 -0.0844 -2.7083  0.6447
  454TIP3   OH222996   4.804   6.341   1.516  0.1581  0.5235  0.0329
  454TIP3    H122997   4.861   6.270   1.547 -0.9678  0.0329  1.0320
  454TIP3    H222998   4.749   6.301   1.449  1.1615  1.0785 -1.1702
  455TIP3   OH222999   2.457   2.928   1.890  0.2424  0.3504 -0.0534
  455TIP3    H123000   2.479   2.995   1.825  0.1433  0.2750 -0.1644
  455TIP3    H223001   2.387   2.968   1.942  1.5566  1.1320  1.1671
  456TIP3   OH223002   0.292   3.736   6.948 -0.2342  0.6751  0.3436
  456TIP3    H123003   0.323   3.822   6.917 -0.5042 -0.0720 -2.2933
  456TIP3    H223004   0.212   3.757   6.996  0.2113  1.9791  0.5767
  457TIP3   OH223005   0.627   5.417   0.443 -0.0567  0.3137  0.1009
  457TIP3    H123006   0.585   5.445   0.524 -0.3645 -1.1207  0.4629
  457TIP3    H223007   0.556   5.381   0.390  0.4513 -0.7119  0.0867
  458TIP3   OH223008   6.020   0.804   0.736  0.2962  0.1683 -0.2058
  458TIP3    H123009   6.108   0.803   0.772  0.1170  0.1573  0.2306
  458TIP3    H223010   6.001   0.896   0.721  0.4800  0.1536 -0.5501
  459TIP3   OH223011   4.995   6.389   7.685 -0.3576 -0.0711 -0.0431
  459TIP3    H123012   5.000   6.314   7.744  0.1024 -0.9138 -1.0889
  459TIP3    H223013   4.989   6.465   7.742  1.7189 -0.7014  1.1542
  460TIP3   OH223014   3.819   5.069   0.493  0.7906  0.1026  0.2089
  460TIP3    H123015   3.762   5.014   0.439  0.7777 -0.0515  0.3800
  460TIP3    H223016   3.907   5.055   0.457  0.7104  0.4091 -0.1123
  461TIP3   OH223017   1.359   2.111   0.190  0.1773  0.3783 -0.4183
  461TIP3    H123018   1.331   2.061   0.266 -0.2227 -0.6519 -1.2284
  461TIP3    H223019   1.332   2.201   0.209  1.3649  0.4276  1.2762
  462TIP3   OH223020   6.653   5.820   1.062  0.5612 -0.0104  0.4663
  462TIP3    H123021   6.609   5.742   1.097  1.4598 -1.1832 -0.9266
  462TIP3    H223022   6.714   5.845   1.131 -1.4745  1.0568  2.0171
  463TIP3   OH223023   2.847   0.313   0.018  0.3214 -0.3961  0.3783
  463TIP3    H123024   2.828   0.225   0.052 -1.2231  0.7740  2.7993
  463TIP3    H223025   2.915   0.347   0.077  2.1242 -0.4815 -1.5339
  464TIP3   OH223026   0.847   2.293   2.953 -0.2278 -0.1553 -0.4498
  464TIP3    H123027   0.918   2.314   2.893  0.9493 -1.0891  0.5587
  464TIP3    H223028   0.857   2.356   3.025  0.3725 -1.0681  0.2917
  465TIP3   OH223029   6.649   2.554   8.483  0.4044 -0.5516 -0.0966
  465TIP3    H123030   6.556   2.542   8.503  0.7020 -2.6624  0.2331
  465TIP3    H223031   6.689   2.469   8.501  2.8255  0.8679  1.9541
  466TIP3   OH223032   4.442   1.685   6.873 -0.0284 -0.0114 -0.2546
  466TIP3    H123033   4.392   1.604   6.876  0.9086 -0.6577 -1.2789
  466TIP3    H223034   4.415   1.733   6.951 -3.3954  0.3936 -1.5219
  467TIP3   OH223035   5.631   3.512   1.673  0.0789  0.5147 -0.0575
  467TIP3    H123036   5.607   3.481   1.760  0.4973  0.5573  0.0754
  467TIP3    H223037   5.630   3.607   1.680  1.3522  0.5233  0.2586
  468TIP3   OH223038   0.604   6.468   7.859  0.7742 -0.4279  0.2952
  468TIP3    H123039   0.633   6.492   7.947 -1.4206 -0.2261  1.0106
  468TIP3    H223040   0.509   6.479   7.861  0.7421  0.4849 -2.3778
  469TIP3   OH223041   2.520   6.335   1.405  0.2239 -0.5471  0.0116
  469TIP3    H123042   2.614   6.319   1.414  0.1565 -0.9234  0.0508
  469TIP3    H223043   2.507   6.352   1.312  0.5194  0.7498  0.1881
  470TIP3   OH223044   2.652   3.883   0.210  0.2749 -0.5589 -0.3029
  470TIP3    H123045   2.613   3.952   0.156 -0.9216 -0.8585  0.1406
  470TIP3    H223046   2.734   3.921   0.243  0.5185 -0.0080 -1.4862
  471TIP3   OH223047   2.522   4.971   7.979 -0.2994 -0.1017  0.2442
  471TIP3    H123048   2.532   4.883   8.015  0.3577 -0.1386 -0.0118
  471TIP3    H223049   2.441   5.004   8.018 -1.4255 -1.4140 -0.8684
  472TIP3   OH223050   0.609   6.790   1.901  0.2163 -0.6940  0.2910
  472TIP3    H123051   0.704   6.800   1.894  0.0416  0.5985 -0.5452
  472TIP3    H223052   0.596   6.699   1.928  1.7468 -0.3333  2.4940
  473TIP3   OH223053   0.346   2.915   0.420  0.4793 -0.2394 -0.1701
  473TIP3    H123054   0.267   2.929   0.368 -0.1936  0.1380  0.9200
  473TIP3    H223055   0.347   2.821   0.438  0.6372 -0.3481 -0.7330
  474TIP3   OH223056   5.714   2.548   2.413 -0.0956  0.2210 -0.0550
  474TIP3    H123057   5.761   2.626   2.442  1.3546  0.1751 -2.1327
  474TIP3    H223058   5.776   2.476   2.425 -1.0382 -0.4893  0.8146
  475TIP3   OH223059   1.561   2.252   2.367 -0.4733  0.1601 -0.6946
  475TIP3    H123060   1.556   2.345   2.388  0.4582 -0.0147  0.4152
  475TIP3    H223061   1.502   2.209   2.429 -1.7542  0.0753 -1.9132
  476TIP3   OH223062   3.264   4.785   0.507 -0.2835 -0.4601  0.5363
  476TIP3    H123063   3.197   4.768   0.440 -0.1078 -0.1590  0.2855
  476TIP3    H223064   3.229   4.858   0.558 -0.1875 -0.3608  0.4602
  477TIP3   OH223065   0.113   2.422   8.479  0.2166 -0.5080 -0.1230
  477TIP3    H123066   0.205   2.431   8.456 -0.0788  1.0921 -0.7928
  477TIP3    H223067   0.098   2.487   8.547 -0.4857 -0.5462 -0.2317
  478TIP3   OH223068   2.749   0.763   0.281  0.2026 -0.2356  0.1465
  478TIP3    H123069   2.706   0.781   0.197 -1.7161 -0.3378  1.0628
  478TIP3    H223070   2.842   0.753   0.259  0.0809  1.9268 -1.6590
  479TIP3   OH223071   0.047   1.121   7.469  0.2685  0.5755  0.1812
  479TIP3    H123072   0.125   1.176   7.461  0.6715 -0.2606 -3.1697
  479TIP3    H223073   0.006   1.125   7.383 -1.2829 -2.0983  0.6814
  480TIP3   OH223074   6.324   6.649   6.812 -0.3499 -0.6323 -0.4724
  480TIP3    H123075   6.245   6.604   6.841 -0.0239 -0.8979  0.0252
  480TIP3    H223076   6.296   6.739   6.794 -0.6838 -0.6291  0.0602
  481TIP3   OH223077   6.491   0.479   0.584 -0.1673  0.1021 -0.1479
  481TIP3    H123078   6.509   0.494   0.491 -0.5240 -1.9930 -0.5994
  481TIP3    H223079   6.447   0.559   0.613 -1.9765 -0.0051 -2.3517
  482TIP3   OH223080   1.334   1.498   1.059  0.7893  0.5754 -0.3386
  482TIP3    H123081   1.276   1.573   1.076  0.1648  0.5859 -2.2726
  482TIP3    H223082   1.413   1.516   1.111  0.3234  2.1557 -0.1292
  483TIP3   OH223083   2.703   3.704   1.956 -0.0181  0.9902  0.3671
  483TIP3    H123084   2.791   3.735   1.975  0.0955  0.8242  0.1200
  483TIP3    H223085   2.691   3.628   2.013  1.1047 -0.8055 -1.6355
  484TIP3   OH223086   2.965   3.494   2.723  0.0687 -0.0480  0.0003
  484TIP3    H123087   2.886   3.478   2.775  0.2587 -1.4048 -0.0854
  484TIP3    H223088   2.935   3.546   2.649 -0.6434 -0.0926  0.2509
  485TIP3   OH223089   1.930   1.230   7.321  0.4817 -0.2938  0.0768
  485TIP3    H123090   1.986   1.154   7.308  0.8603 -1.1632  4.9865
  485TIP3    H223091   1.883   1.212   7.402 -1.5785  3.5268 -0.0264
  486TIP3   OH223092   2.201   0.635   7.269 -0.4792 -0.4257 -0.4531
  486TIP3    H123093   2.291   0.660   7.290 -0.7407  1.5248 -1.4047
  486TIP3    H223094   2.209   0.575   7.195  0.0457  0.2100 -0.9247
  487TIP3   OH223095   5.401   2.043   8.231  0.1440  0.6209  0.2316
  487TIP3    H123096   5.402   2.119   8.173 -1.1792  1.5976  1.4220
  487TIP3    H223097   5.491   2.009   8.228  0.9434  2.6113  0.1631
  488TIP3   OH223098   0.856   0.153   7.676 -0.6885 -1.0285 -0.3987
  488TIP3    H123099   0.862   0.239   7.717  0.6079 -1.5464  0.5784
  488TIP3    H223100   0.879   0.168   7.585 -1.1360 -0.2425 -0.3886
  489TIP3   OH223101   5.345   5.788   7.760  0.1733  0.2337  0.1512
  489TIP3    H123102   5.311   5.877   7.773 -2.9519 -0.7959  0.0008
  489TIP3    H223103   5.399   5.772   7.838 -0.4124  1.7473  0.9247
  490TIP3   OH223104   4.883   1.739   7.618  0.2850 -0.0600 -0.3476
  490TIP3    H123105   4.854   1.741   7.709  1.3580 -2.5920  0.1411
  490TIP3    H223106   4.811   1.698   7.570  0.4594 -0.4643 -0.2728
  491TIP3   OH223107   1.446   1.118   2.065  0.1372 -0.8473 -0.6658
  491TIP3    H123108   1.518   1.064   2.097  0.3325 -0.8649 -1.1362
  491TIP3    H223109   1.408   1.156   2.145  0.3913 -1.1783 -0.3836
  492TIP3   OH223110   2.062   0.732   0.987  0.3527 -0.2666  0.4224
  492TIP3    H123111   2.036   0.641   0.971 -0.0516 -0.1407  0.3661
  492TIP3    H223112   2.027   0.752   1.073 -2.0181  0.7295 -0.6903
  493TIP3   OH223113   4.548   0.417   1.499 -0.0987  0.3073 -0.0611
  493TIP3    H123114   4.542   0.471   1.577 -4.6621  0.0724 -0.0271
  493TIP3    H223115   4.514   0.472   1.428 -0.0287 -0.8597 -1.0385
  494TIP3   OH223116   3.585   0.578   0.477  0.2217 -0.1177  0.3517
  494TIP3    H123117   3.622   0.502   0.431 -1.4738 -1.2475  0.7590
  494TIP3    H223118   3.661   0.632   0.498  1.5383 -1.8677  0.3662
  495TIP3   OH223119   4.878   6.025   8.106  0.2993 -0.4687 -0.1035
  495TIP3    H123120   4.821   5.962   8.150 -2.0005  1.7863  0.3935
  495TIP3    H223121   4.949   6.041   8.168 -1.5359  0.7352  1.8360
  496TIP3   OH223122   2.403   5.888   1.872  0.0480 -0.3869  0.2329
  496TIP3    H123123   2.349   5.838   1.811  0.6209  0.4847 -1.0425
  496TIP3    H223124   2.493   5.869   1.844  0.3941 -1.1707  1.7962
  497TIP3   OH223125   5.896   3.811   1.797  0.9316 -0.2205  0.2735
  497TIP3    H123126   5.958   3.844   1.732  1.4157 -3.3783 -1.0563
  497TIP3    H223127   5.823   3.777   1.744 -0.0492 -0.2320  1.5862
  498TIP3   OH223128   2.374   2.315   0.444  0.1917 -0.2364  0.1097
  498TIP3    H123129   2.309   2.385   0.439  0.3109 -0.1201  0.1834
  498TIP3    H223130   2.456   2.357   0.415  0.1442 -0.4937 -0.4076
  499TIP3   OH223131   3.259   2.240   2.682 -0.1275 -0.4538  0.2243
  499TIP3    H123132   3.278   2.217   2.591 -0.3129  1.0012 -0.2050
  499TIP3    H223133   3.297   2.327   2.693  0.8780 -1.0407  1.8843
  500TIP3   OH223134   6.695   5.014   7.609 -0.3183 -0.0062 -0.0039
  500TIP3    H123135   6.645   5.095   7.606 -0.0417  0.1565 -0.3568
  500TIP3    H223136   6.681   4.980   7.697 -1.2222 -0.0801 -0.1733
  501TIP3   OH223137   5.228   3.761   7.291 -0.6283  0.4734 -0.2858
  501TIP3    H123138   5.323   3.763   7.306 -0.7310 -1.0442  0.8246
  501TIP3    H223139   5.217   3.794   7.202  1.0197 -0.1071 -0.7445
  502TIP3   OH223140   1.722   0.403   8.137  0.7894 -0.0295  0.3039
  502TIP3    H123141   1.689   0.460   8.068  1.9243  0.4944  0.1807
  502TIP3    H223142   1.817   0.416   8.136  1.0577 -1.7467  0.4297
  503TIP3   OH223143   5.135   1.215   1.026 -0.1334  0.1066 -0.1211
  503TIP3    H123144   5.144   1.257   1.111  0.2925  0.1191 -0.1690
  503TIP3    H223145   5.192   1.266   0.968 -1.3541  0.8673 -0.7036
  504TIP3   OH223146   5.212   1.254   7.486  0.2421  0.1292 -0.6624
  504TIP3    H123147   5.141   1.240   7.423 -0.3231 -1.2027  0.2334
  504TIP3    H223148   5.194   1.340   7.523 -1.2476 -0.4131 -0.0479
  505TIP3   OH223149   1.554   2.852   7.865  0.3448 -0.0359 -0.3416
  505TIP3    H123150   1.471   2.875   7.822  0.6083 -0.2437 -0.9635
  505TIP3    H223151   1.594   2.788   7.807  1.1473  0.3842 -0.2616
  506TIP3   OH223152   1.819   4.436   2.321 -0.0678 -0.4248 -0.0782
  506TIP3    H123153   1.853   4.355   2.359 -0.8148 -0.3864  0.7159
  506TIP3    H223154   1.897   4.490   2.305  0.3440 -0.8272  0.5219
  507TIP3   OH223155   2.177   2.208   0.761  0.0902  0.6809  0.0281
  507TIP3    H123156   2.230   2.255   0.825 -0.4629  0.6952  0.4801
  507TIP3    H223157   2.097   2.184   0.808 -1.0122  2.0077 -1.0504
  508TIP3   OH223158   1.703   3.042   0.310  0.1065  0.5953 -0.0282
  508TIP3    H123159   1.787   3.004   0.285 -1.1293 -1.8836 -0.6979
  508TIP3    H223160   1.670   3.083   0.230 -1.4079 -2.6881 -1.2947
  509TIP3   OH223161   0.482   0.415   0.075  0.0755 -0.2903 -0.0804
  509TIP3    H123162   0.430   0.428   0.154 -0.1671  0.1167 -0.3016
  509TIP3    H223163   0.562   0.466   0.090  0.3665 -0.8216  0.2107
  510TIP3   OH223164   3.944   0.797   6.806  0.3672  0.4897 -0.0184
  510TIP3    H123165   3.995   0.729   6.850  0.2099 -0.7943 -1.7292
  510TIP3    H223166   3.853   0.768   6.814  0.0973  1.4711  0.8055
  511TIP3   OH223167   5.559   0.731   1.840 -0.4627  0.0759 -0.1978
  511TIP3    H123168   5.647   0.755   1.866 -0.1459  0.5810 -1.6725
  511TIP3    H223169   5.568   0.643   1.803 -0.4242  0.4490 -1.0916
  512TIP3   OH223170   1.510   4.821   0.312  0.2731  0.3183  0.4598
  512TIP3    H123171   1.592   4.794   0.354  1.1801  2.9394  0.5771
  512TIP3    H223172   1.463   4.739   0.295  0.9503 -1.0333  4.2561
  513TIP3   OH223173   3.792   4.292   7.903  0.3748  0.5521 -0.0301
  513TIP3    H123174   3.799   4.316   7.996  1.0694 -0.7182  0.2674
  513TIP3    H223175   3.857   4.346   7.859  0.3763  0.8168  0.2931
  514TIP3   OH223176   1.162   4.821   0.483 -0.1703 -0.8350  0.6951
  514TIP3    H123177   1.209   4.835   0.565  1.4943  1.1874 -0.5000
  514TIP3    H223178   1.125   4.906   0.462 -2.2093 -1.7816  0.2693
  515TIP3   OH223179   1.555   5.099   0.491 -0.2644  0.3433 -0.0772
  515TIP3    H123180   1.645   5.073   0.471  0.2304  1.1705  0.9463
  515TIP3    H223181   1.503   5.066   0.417  0.7330 -0.9360 -0.2348
  516TIP3   OH223182   4.790   1.710   7.873 -0.7968  0.6967  0.5482
  516TIP3    H123183   4.858   1.683   7.934  0.7772 -0.9241 -1.7496
  516TIP3    H223184   4.725   1.640   7.876 -0.4797  0.3769  0.0380
  517TIP3   OH223185   1.151   2.580   7.575  0.3097  0.2161  0.3572
  517TIP3    H123186   1.142   2.559   7.482  0.7678  1.0574  0.1097
  517TIP3    H223187   1.146   2.495   7.619 -1.6078 -0.0516 -0.2800
  518TIP3   OH223188   0.724   4.715   6.856  0.4232  0.5953 -0.2008
  518TIP3    H123189   0.814   4.735   6.884  0.6666  0.5075 -0.8994
  518TIP3    H223190   0.735   4.663   6.776 -0.2286 -0.7649  0.5653
  519TIP3   OH223191   3.428   5.742   2.479 -0.2568  0.6495  0.5249
  519TIP3    H123192   3.445   5.715   2.569 -0.9069  0.3130  0.5576
  519TIP3    H223193   3.374   5.821   2.487 -2.1711 -0.5952  0.4660
  520TIP3   OH223194   5.263   2.981   8.370  0.1318 -0.4797  0.1637
  520TIP3    H123195   5.339   2.935   8.334 -0.0883  0.0046 -0.9591
  520TIP3    H223196   5.202   2.911   8.394  0.8592 -0.8652  0.9544
  521TIP3   OH223197   3.979   3.562   0.653  0.4560 -0.4547  0.6648
  521TIP3    H123198   3.911   3.567   0.586  0.6702 -0.8038  0.4212
  521TIP3    H223199   3.985   3.652   0.688 -1.8756 -0.9011  2.4608
  522TIP3   OH223200   2.158   5.268   1.055  0.3425  0.0843  0.5470
  522TIP3    H123201   2.181   5.351   1.098 -0.5978  1.2535 -1.0759
  522TIP3    H223202   2.181   5.282   0.963 -1.6633 -0.6778 -0.1329
  523TIP3   OH223203   4.121   6.554   7.937 -0.4958 -0.0767 -0.1726
  523TIP3    H123204   4.196   6.612   7.955  0.1550 -0.8654 -0.2746
  523TIP3    H223205   4.121   6.492   8.010 -0.8399 -0.3022 -0.3643
  524TIP3   OH223206   2.310   2.345   0.956  0.2372 -0.0265 -0.0690
  524TIP3    H123207   2.296   2.400   1.033 -0.6691 -0.4879  0.1083
  524TIP3    H223208   2.377   2.390   0.905 -0.9750  1.6154 -0.2744
  525TIP3   OH223209   1.970   4.569   0.952  0.0230  0.3156 -0.4979
  525TIP3    H123210   1.924   4.489   0.928 -2.0480  1.0333  0.7192
  525TIP3    H223211   1.927   4.638   0.900 -0.5854  1.0544  0.9110
  526TIP3   OH223212   2.154   1.718   7.470  0.0008  0.1439 -0.4003
  526TIP3    H123213   2.139   1.773   7.393 -0.7677 -0.7359 -0.9033
  526TIP3    H223214   2.114   1.767   7.542  0.1265  0.6591 -0.6731
  527TIP3   OH223215   1.390   2.482   0.488  0.2578 -0.0420  0.2700
  527TIP3    H123216   1.458   2.487   0.556  2.0598  0.6385 -1.4587
  527TIP3    H223217   1.439   2.459   0.408 -1.6720 -0.1351 -0.9366
  528TIP3   OH223218   2.772   6.089   1.926 -0.4179  0.6640 -0.1185
  528TIP3    H123219   2.760   6.165   1.868 -0.2845  0.6044 -0.2245
  528TIP3    H223220   2.721   6.020   1.883 -0.4176  0.6529 -0.1004
  529TIP3   OH223221   5.718   1.637   1.905 -0.3878 -0.2267  0.7865
  529TIP3    H123222   5.710   1.570   1.837  0.5338 -0.7387  1.1629
  529TIP3    H223223   5.791   1.691   1.876 -1.8298  1.3296 -0.0871
  530TIP3   OH223224   3.669   1.296   8.396  0.6258  0.2723  0.5081
  530TIP3    H123225   3.706   1.211   8.420  1.4460  0.2092 -0.8552
  530TIP3    H223226   3.604   1.314   8.464  0.4180 -1.4435  0.8171
  531TIP3   OH223227   1.453   1.143   0.347 -0.4443 -0.1739 -0.8818
  531TIP3    H123228   1.407   1.085   0.406  4.8123 -1.3157  2.7993
  531TIP3    H223229   1.459   1.095   0.264 -1.7222 -1.9211  0.0008
  532TIP3   OH223230   2.748   4.387   2.028 -0.2293 -0.7955  0.2640
  532TIP3    H123231   2.837   4.379   2.062 -0.2171 -0.2442  0.3791
  532TIP3    H223232   2.713   4.464   2.073 -1.2166 -1.7687  1.2092
  533TIP3   OH223233   2.547   3.676   1.373  0.2856  0.0056  0.3173
  533TIP3    H123234   2.506   3.759   1.351 -0.8338  0.0726  2.4123
  533TIP3    H223235   2.555   3.630   1.289 -1.6216  1.0898 -0.5210
  534TIP3   OH223236   1.813   0.770   8.240  0.2706  0.4390 -0.7033
  534TIP3    H123237   1.741   0.713   8.213  1.0561 -0.1699 -1.6339
  534TIP3    H223238   1.792   0.795   8.330 -1.3609  0.7375 -1.1371
  535TIP3   OH223239   2.797   0.029   0.214  0.6963  0.5693 -0.4166
  535TIP3    H123240   2.889   0.007   0.232  0.3576 -0.4340  0.1584
  535TIP3    H223241   2.764   0.064   0.297  0.8270  1.9816 -0.9212
  536TIP3   OH223242   3.282   5.589   7.716  0.0236 -1.1085  0.2854
  536TIP3    H123243   3.286   5.610   7.623  0.3717  0.5342  0.6360
  536TIP3    H223244   3.194   5.555   7.730 -0.1628 -0.9936 -0.5702
  537TIP3   OH223245   2.159   0.823   8.420  0.2035 -0.3490  0.0558
  537TIP3    H123246   2.203   0.817   8.335  1.2357  0.6914  0.4882
  537TIP3    H223247   2.212   0.884   8.470 -1.9404  1.2807  0.4896
  538TIP3   OH223248   6.925   6.167   7.381 -0.6757 -0.2689  0.2881
  538TIP3    H123249   6.894   6.244   7.335  0.8001  0.4744  0.4683
  538TIP3    H223250   6.955   6.108   7.312  0.1290  0.2085  0.2188
  539TIP3   OH223251   4.800   0.240   7.483 -0.1065  0.5668  0.4236
  539TIP3    H123252   4.864   0.239   7.554 -1.1132  1.9983  1.4258
  539TIP3    H223253   4.844   0.285   7.412  0.3939  0.4971  0.6826
  540TIP3   OH223254   2.367   3.486   1.994  0.9365 -0.2723 -1.1720
  540TIP3    H123255   2.370   3.400   1.952  0.3166  0.5262 -2.9669
  540TIP3    H223256   2.289   3.483   2.049  0.8230 -0.8081 -1.3594
  541TIP3   OH223257   2.105   5.777   0.609  0.1745  0.2943  0.2427
  541TIP3    H123258   2.146   5.863   0.603 -0.1147  0.5645  1.7411
  541TIP3    H223259   2.012   5.795   0.624 -0.1209 -0.3031 -0.7533
  542TIP3   OH223260   0.149   2.111   2.267 -0.7476 -0.4001  0.1100
  542TIP3    H123261   0.191   2.035   2.307 -1.8960 -0.0863  2.0249
  542TIP3    H223262   0.196   2.186   2.303 -0.3999 -0.1399 -0.8479
  543TIP3   OH223263   2.451   4.697   1.576  0.7556 -0.0363 -0.2663
  543TIP3    H123264   2.387   4.671   1.510  0.7385  0.2290 -0.3519
  543TIP3    H223265   2.524   4.637   1.563  0.4202 -0.5126  0.0024
  544TIP3   OH223266   0.054   0.058   2.836 -0.1819  0.3899  0.6267
  544TIP3    H123267   0.139   0.018   2.822 -0.1810  0.1500  1.2728
  544TIP3    H223268   0.071   0.152   2.839 -0.2896  0.5300 -1.6614
  545TIP3   OH223269   1.792   0.975   6.860 -0.1284 -0.0817  0.1982
  545TIP3    H123270   1.879   1.014   6.850  0.7928 -1.9568  0.4478
  545TIP3    H223271   1.782   0.962   6.954 -0.0707 -1.1648  0.0600
  546TIP3   OH223272   1.116   2.129   2.516  0.1321 -0.2835 -0.5597
  546TIP3    H123273   1.179   2.079   2.569  0.8403  1.5093  0.3987
  546TIP3    H223274   1.115   2.216   2.557 -0.0955  0.8831 -2.8739
  547TIP3   OH223275   6.495   5.251   2.135  0.2377 -0.6893 -0.1186
  547TIP3    H123276   6.533   5.210   2.213 -0.1888  0.0630  0.5058
  547TIP3    H223277   6.548   5.219   2.063 -1.0717 -3.6396  0.0906
  548TIP3   OH223278   5.869   1.629   8.160  0.1170  0.0720  0.1085
  548TIP3    H123279   5.950   1.634   8.109  0.0508  0.1193  0.0066
  548TIP3    H223280   5.801   1.613   8.094  0.3069 -2.2682  0.3895
  549TIP3   OH223281   6.802   3.634   0.798 -0.2732  0.1116  0.7286
  549TIP3    H123282   6.756   3.686   0.863 -2.0308  0.8119 -0.9793
  549TIP3    H223283   6.780   3.543   0.820  0.3034  0.2317  1.8925
  550TIP3   OH223284   0.524   0.467   2.052 -0.4972  0.1837  0.6591
  550TIP3    H123285   0.585   0.527   2.009 -0.0662 -0.9453 -0.3720
  550TIP3    H223286   0.491   0.516   2.127  0.6380  1.3174  0.4566
  551TIP3   OH223287   1.051   3.629   0.831  0.0941 -0.0046 -0.5553
  551TIP3    H123288   1.015   3.634   0.919  2.4907  1.0369  0.4501
  551TIP3    H223289   0.978   3.656   0.774 -2.0033 -2.2521  0.8610
  552TIP3   OH223290   0.313   3.047   7.963  0.0570 -0.5563 -0.0369
  552TIP3    H123291   0.327   2.996   7.884  1.0631 -0.0229 -0.2202
  552TIP3    H223292   0.252   3.116   7.937 -0.5564 -1.0933 -0.0316
  553TIP3   OH223293   5.327   1.773   0.347 -0.1069 -0.0729  0.4424
  553TIP3    H123294   5.233   1.788   0.353 -0.2832 -1.3432  1.4031
  553TIP3    H223295   5.346   1.774   0.253 -0.8589  1.2873  0.2758
  554TIP3   OH223296   2.350   0.272   0.952 -0.1486  0.6682  0.1205
  554TIP3    H123297   2.350   0.352   1.004 -0.2128  1.3713 -0.9290
  554TIP3    H223298   2.375   0.301   0.864  0.8405 -0.6278 -0.0452
  555TIP3   OH223299   4.090   4.998   0.709 -0.0659 -0.3248  0.4407
  555TIP3    H123300   4.102   4.905   0.726  0.5341 -0.3341 -0.0262
  555TIP3    H223301   4.160   5.042   0.757  0.1375 -0.1759  0.0171
  556TIP3   OH223302   3.783   5.223   2.378  0.1653  0.2606  0.4039
  556TIP3    H123303   3.746   5.267   2.301 -0.5044  0.5947  0.9071
  556TIP3    H223304   3.737   5.262   2.452  2.1974  1.4001  1.1574
  557TIP3   OH223305   6.464   2.272   6.781  0.7215  0.0850 -0.9175
  557TIP3    H123306   6.464   2.240   6.691  1.0945  2.4175 -1.8240
  557TIP3    H223307   6.372   2.270   6.808  0.6759 -1.1671 -1.1153
  558TIP3   OH223308   4.211   4.369   8.110 -0.1908  0.1156 -0.6828
  558TIP3    H123309   4.217   4.463   8.095  0.4665  0.2604  0.4009
  558TIP3    H223310   4.119   4.353   8.130 -0.0363  0.7641  0.5877
  559TIP3   OH223311   1.310   0.829   1.432  0.1923 -0.6399  0.4185
  559TIP3    H123312   1.248   0.854   1.364  0.3471 -1.5366 -0.0625
  559TIP3    H223313   1.273   0.865   1.512  2.2736  4.5909 -0.5698
  560TIP3   OH223314   4.419   2.465   2.270 -0.1433 -0.1147  0.0044
  560TIP3    H123315   4.368   2.417   2.205 -0.4400 -1.1217  0.9584
  560TIP3    H223316   4.506   2.475   2.230 -0.0393 -1.5666 -0.1793
  561TIP3   OH223317   5.023   0.457   1.863  0.1555  0.0710 -1.0459
  561TIP3    H123318   5.111   0.493   1.874  0.2002 -0.0770 -0.9085
  561TIP3    H223319   5.029   0.369   1.901  0.1297 -0.1922 -1.6465
  562TIP3   OH223320   1.841   0.908   7.159 -0.9243  0.1797  0.3219
  562TIP3    H123321   1.789   0.885   7.235 -1.5383  1.6632  0.3878
  562TIP3    H223322   1.913   0.961   7.193  0.3423 -1.3844  0.1633
  563TIP3   OH223323   2.543   3.830   0.933 -0.2309 -0.3151 -0.2151
  563TIP3    H123324   2.528   3.912   0.886  0.2451 -0.5324 -0.7678
  563TIP3    H223325   2.473   3.772   0.902  1.0416 -0.9982 -1.9956
  564TIP3   OH223326   3.920   0.341   0.644 -0.1008 -0.1444  0.1979
  564TIP3    H123327   3.991   0.353   0.580 -1.4048  1.2503 -1.0830
  564TIP3    H223328   3.879   0.428   0.651 -0.7864 -0.5664  2.0218
  565TIP3   OH223329   6.072   5.154   0.392 -0.4664 -0.0494 -0.7410
  565TIP3    H123330   6.020   5.235   0.392 -0.5735 -0.1136 -0.2367
  565TIP3    H223331   6.162   5.183   0.402 -0.5970 -0.0361  0.5311
  566TIP3   OH223332   0.509   4.941   0.824 -0.2782 -0.1585  0.1077
  566TIP3    H123333   0.519   4.856   0.780  0.0212 -0.2402  0.3277
  566TIP3    H223334   0.416   4.961   0.816  0.0398  0.6756 -2.1263
  567TIP3   OH223335   0.843   5.048   7.471 -0.5144  0.8054 -0.3036
  567TIP3    H123336   0.907   5.034   7.401 -0.7952 -2.0430 -0.0863
  567TIP3    H223337   0.758   5.027   7.431 -1.1254  2.5140 -0.0042
  568TIP3   OH223338   3.968   6.237   0.315  0.3676 -0.1924  0.3014
  568TIP3    H123339   3.992   6.264   0.404  0.3094  1.5789 -0.1736
  568TIP3    H223340   3.932   6.149   0.325  0.5974 -0.1244  1.9907
  569TIP3   OH223341   3.730   4.521   0.228  0.3134  0.0801  0.3299
  569TIP3    H123342   3.675   4.458   0.274  0.3156  0.8035  1.3499
  569TIP3    H223343   3.703   4.514   0.136  1.6338 -2.7542  0.0574
  570TIP3   OH223344   0.646   3.356   0.319 -0.9592  0.1083 -0.1371
  570TIP3    H123345   0.623   3.367   0.412 -1.4366 -0.3020 -0.2038
  570TIP3    H223346   0.630   3.263   0.302 -2.0709  0.4314 -0.9526
  571TIP3   OH223347   1.453   3.421   0.995 -1.0190  0.6768 -0.1344
  571TIP3    H123348   1.480   3.345   1.046  1.3791  0.1806 -1.9712
  571TIP3    H223349   1.366   3.398   0.962 -1.0849 -0.4719  0.7691
  572TIP3   OH223350   2.525   1.264   2.688  0.4672 -1.0483 -0.2542
  572TIP3    H123351   2.487   1.332   2.743 -0.8579  0.3249 -2.7155
  572TIP3    H223352   2.508   1.183   2.736 -2.4283 -0.1449  0.4825
  573TIP3   OH223353   3.663   4.036   7.997  0.1635 -0.6649 -0.4211
  573TIP3    H123354   3.725   4.109   8.001  0.1481 -0.5629 -1.7242
  573TIP3    H223355   3.717   3.958   8.013  0.7309 -0.6122 -1.9212
  574TIP3   OH223356   3.617   2.858   1.897 -0.0499  0.5713 -0.3942
  574TIP3    H123357   3.690   2.800   1.919  1.1304  1.9978 -0.3940
  574TIP3    H223358   3.599   2.840   1.804 -0.1354 -0.2165 -0.2374
  575TIP3   OH223359   6.317   6.356   1.812 -0.3596 -0.5462 -0.1584
  575TIP3    H123360   6.320   6.451   1.822 -1.5754 -0.6030  1.1477
  575TIP3    H223361   6.356   6.339   1.727  0.2805  1.0864 -0.2214
  576TIP3   OH223362   2.405   0.284   7.843  0.2762 -0.3694  0.1309
  576TIP3    H123363   2.357   0.207   7.812 -0.1119  0.0627 -0.3426
  576TIP3    H223364   2.489   0.280   7.797 -0.3335  0.3200 -1.0687
  577TIP3   OH223365   4.475   4.893   2.009  0.4054 -0.3352  0.3732
  577TIP3    H123366   4.422   4.813   2.017 -0.3251 -0.1760 -2.0547
  577TIP3    H223367   4.422   4.951   1.955  2.0567  0.7642 -0.1243
  578TIP3   OH223368   6.607   4.941   7.347  0.0389  0.0179  0.1162
  578TIP3    H123369   6.666   4.945   7.423 -0.6495 -0.6611  0.7052
  578TIP3    H223370   6.577   5.031   7.335 -1.2113 -0.1323  1.7662
  579TIP3   OH223371   3.368   6.620   8.328  0.2380 -0.0837 -0.2107
  579TIP3    H123372   3.379   6.565   8.405  0.3045  0.1626 -0.0438
  579TIP3    H223373   3.423   6.697   8.345 -0.7851  0.6010  0.1023
  580TIP3   OH223374   2.880   2.895   8.223  0.1101  0.1334 -0.1617
  580TIP3    H123375   2.895   2.970   8.280  0.0040 -0.4638  0.6752
  580TIP3    H223376   2.849   2.826   8.282  0.6079 -0.6993 -0.8480
  581TIP3   OH223377   3.573   4.310   3.224  0.2224 -0.9881  0.0240
  581TIP3    H123378   3.482   4.308   3.253 -0.0953 -0.4171 -0.8749
  581TIP3    H223379   3.570   4.279   3.133  0.4673  1.7694 -1.0298
  582TIP3   OH223380   4.715   2.828   1.018  0.3201 -0.0232  0.9005
  582TIP3    H123381   4.732   2.843   0.925 -2.4356  0.0784  0.3361
  582TIP3    H223382   4.684   2.737   1.023 -0.8068  0.3667  1.4817
  583TIP3   OH223383   6.430   4.401   8.436 -0.1982  0.8487  0.0701
  583TIP3    H123384   6.352   4.356   8.403  1.2721 -1.4848 -0.4073
  583TIP3    H223385   6.398   4.451   8.511 -2.0601 -0.6306  0.3421
  584TIP3   OH223386   1.956   3.092   2.542 -0.4727  0.7886 -0.6892
  584TIP3    H123387   1.892   3.049   2.599 -0.3290  0.9203 -0.4246
  584TIP3    H223388   1.978   3.173   2.588  2.6231 -0.8743  1.1245
  585TIP3   OH223389   4.828   5.510   2.351 -0.1040 -0.6011 -0.1801
  585TIP3    H123390   4.784   5.481   2.431  0.4425  0.6569  0.6125
  585TIP3    H223391   4.909   5.459   2.347 -0.2745 -0.8759 -0.0870
  586TIP3   OH223392   3.066   6.720   8.096 -0.6816  0.0573 -0.2615
  586TIP3    H123393   2.973   6.723   8.119 -0.5731 -2.8443  1.0153
  586TIP3    H223394   3.071   6.655   8.026  0.2933  1.0178 -1.1137
  587TIP3   OH223395   4.845   3.978   7.249 -0.1578 -0.2486  0.1458
  587TIP3    H123396   4.793   3.962   7.170 -0.3825  1.2637 -0.0444
  587TIP3    H223397   4.907   4.046   7.223 -1.3187  1.4879  1.7078
  588TIP3   OH223398   6.083   0.627   7.888 -0.0957 -0.4826 -0.1933
  588TIP3    H123399   5.993   0.598   7.901 -0.1738 -0.1179  0.0795
  588TIP3    H223400   6.104   0.677   7.967 -0.7557  2.2271 -1.6034
  589TIP3   OH223401   2.796   4.560   1.739 -0.2802  1.0820  0.3451
  589TIP3    H123402   2.710   4.591   1.769 -0.9150  0.5527 -0.8308
  589TIP3    H223403   2.780   4.470   1.710 -0.0518  1.8887 -2.6494
  590TIP3   OH223404   4.579   4.127   0.526 -0.2284  0.2366  0.4493
  590TIP3    H123405   4.549   4.205   0.573  0.4923  1.8368 -1.6153
  590TIP3    H223406   4.503   4.098   0.476  0.2646  1.4118 -1.0435
  591TIP3   OH223407   4.325   2.413   0.863  0.5792 -0.2030 -0.7804
  591TIP3    H123408   4.300   2.365   0.784  1.7386  0.1572 -1.3746
  591TIP3    H223409   4.340   2.502   0.833  1.2740 -0.1211 -0.1971
  592TIP3   OH223410   1.124   3.895   7.752 -0.1994  0.0829  0.2377
  592TIP3    H123411   1.158   3.863   7.668 -0.0535 -0.3358  0.4535
  592TIP3    H223412   1.133   3.990   7.747 -0.5455  0.0935 -0.3781
  593TIP3   OH223413   2.837   1.002   7.439 -0.2768 -0.0017 -0.7364
  593TIP3    H123414   2.825   0.957   7.523  2.1742  0.0684 -0.2869
  593TIP3    H223415   2.787   0.949   7.377 -2.0619 -0.1147  0.6835
  594TIP3   OH223416   6.565   2.567   6.745 -0.4562 -0.1151 -0.4164
  594TIP3    H123417   6.562   2.536   6.654  0.0941 -0.4109 -0.3381
  594TIP3    H223418   6.556   2.487   6.798  2.1453 -0.3626 -0.2016
  595TIP3   OH223419   5.031   4.883   7.623  0.1041  0.0469  0.0802
  595TIP3    H123420   5.117   4.857   7.654 -0.5757  1.7584  4.0887
  595TIP3    H223421   4.971   4.820   7.663 -0.6855  0.4143 -0.4864
  596TIP3   OH223422   4.600   0.257   2.569 -0.0945 -0.0813 -0.2324
  596TIP3    H123423   4.567   0.167   2.581  0.4963 -0.3223 -0.3668
  596TIP3    H223424   4.547   0.293   2.498 -0.5813 -0.1952  0.0621
  597TIP3   OH223425   5.823   6.021   1.183  0.1546 -0.3344  0.1712
  597TIP3    H123426   5.838   5.996   1.091 -0.7348 -2.9939  0.6530
  597TIP3    H223427   5.741   6.070   1.181 -0.6780 -1.6711 -0.3465
  598TIP3   OH223428   2.249   3.938   2.936  1.0428 -0.1058  0.1291
  598TIP3    H123429   2.247   3.867   2.999  0.1256  0.9833  1.3868
  598TIP3    H223430   2.322   3.994   2.965  0.9235  0.1473 -0.0526
  599TIP3   OH223431   4.554   2.843   0.265  0.3261 -0.3919  0.8902
  599TIP3    H123432   4.645   2.817   0.279  0.2166 -1.0141  0.4706
  599TIP3    H223433   4.512   2.766   0.228  0.1335  0.5807 -1.0102
  600TIP3   OH223434   1.258   0.353   0.380 -0.3206 -0.6106 -0.3037
  600TIP3    H123435   1.181   0.299   0.397 -0.9206 -0.2190 -1.6822
  600TIP3    H223436   1.277   0.394   0.465 -3.5952  1.8251 -0.5734
  601TIP3   OH223437   2.893   4.841   8.178  0.6325 -0.1842  0.5445
  601TIP3    H123438   2.813   4.843   8.231 -1.0840 -0.8431 -1.7975
  601TIP3    H223439   2.962   4.870   8.236 -0.8427 -2.0656  3.4795
  602TIP3   OH223440   5.746   3.988   8.235  0.3781 -0.3271 -0.6899
  602TIP3    H123441   5.740   4.081   8.211 -0.0697 -0.3018 -0.5016
  602TIP3    H223442   5.836   3.964   8.215  1.3860  0.8893  1.9468
  603TIP3   OH223443   3.475   2.433   7.902  0.5958 -0.1184  0.6384
  603TIP3    H123444   3.487   2.443   7.808  0.0949  1.8204  0.7400
  603TIP3    H223445   3.382   2.414   7.913  0.3071  1.2541  0.7964
  604TIP3   OH223446   4.696   0.413   6.939 -0.7619 -0.7040  0.1785
  604TIP3    H123447   4.692   0.340   6.877  0.1983 -0.7372  0.1468
  604TIP3    H223448   4.644   0.482   6.897 -1.0944 -1.1234 -0.1110
  605TIP3   OH223449   6.614   0.402   1.668 -0.2590 -0.3634  0.0105
  605TIP3    H123450   6.523   0.380   1.649  0.5291 -2.5187 -1.7634
  605TIP3    H223451   6.644   0.332   1.726  0.3951  0.0512  0.1846
  606TIP3   OH223452   5.701   5.908   0.639 -0.1423  0.0842 -0.3372
  606TIP3    H123453   5.711   5.961   0.559 -0.4068  0.9561  0.1897
  606TIP3    H223454   5.618   5.862   0.627 -0.3168  0.4241 -0.4510
  607TIP3   OH223455   5.384   5.225   7.409  0.3009 -0.1153 -0.8782
  607TIP3    H123456   5.462   5.264   7.371 -0.4354  2.3186 -0.0385
  607TIP3    H223457   5.314   5.243   7.347  0.3500 -2.5199 -1.7613
  608TIP3   OH223458   1.228   5.402   1.714  0.7602  0.4779 -0.7418
  608TIP3    H123459   1.278   5.325   1.686  0.8484  0.1863  0.1667
  608TIP3    H223460   1.162   5.414   1.646  0.7955 -0.3624 -0.9396
  609TIP3   OH223461   5.899   4.622   7.776  0.0356 -0.5516 -0.5932
  609TIP3    H123462   5.992   4.615   7.793 -0.1002 -1.5085 -0.1864
  609TIP3    H223463   5.883   4.559   7.705 -0.1998  0.0713 -1.1121
  610TIP3   OH223464   1.513   3.731   2.281  0.2035  0.6151 -0.5541
  610TIP3    H123465   1.468   3.786   2.217 -1.4548  0.3766  0.3476
  610TIP3    H223466   1.501   3.776   2.364  2.2387  0.8631 -0.3450
  611TIP3   OH223467   5.060   6.307   8.503 -0.1677 -0.0597  0.6367
  611TIP3    H123468   5.150   6.331   8.481 -0.2344 -0.4607 -0.0955
  611TIP3    H223469   5.058   6.308   8.598  0.5212  0.2915  0.6563
  612TIP3   OH223470   6.810   5.602   0.057  0.3493 -0.0440 -0.1176
  612TIP3    H123471   6.809   5.684   0.107  1.2386  0.4383 -0.8719
  612TIP3    H223472   6.718   5.581   0.043  0.1079  1.6053 -1.1659
  613TIP3   OH223473   6.606   2.529   0.949  0.3282 -0.1859  0.3637
  613TIP3    H123474   6.697   2.552   0.931  0.9397 -2.8970 -0.3885
  613TIP3    H223475   6.557   2.562   0.874  1.1117 -0.9830 -0.5169
  614TIP3   OH223476   3.849   5.094   0.767 -0.3165 -0.5945 -0.1689
  614TIP3    H123477   3.937   5.057   0.764  1.5976  3.4641 -0.3338
  614TIP3    H223478   3.823   5.100   0.675  1.0051  1.7092 -0.4619
  615TIP3   OH223479   2.273   1.635   3.246 -0.0632 -0.1113  0.5751
  615TIP3    H123480   2.179   1.643   3.264 -0.6225  2.0932 -2.4792
  615TIP3    H223481   2.284   1.545   3.216 -0.9969 -0.6771  1.8614
  616TIP3   OH223482   2.440   2.158   2.658 -0.1175 -0.0251  0.0330
  616TIP3    H123483   2.474   2.169   2.747  1.0475  1.4394 -0.5462
  616TIP3    H223484   2.346   2.170   2.667 -0.0190  0.1101  1.0583
  617TIP3   OH223485   3.623   3.610   1.114 -0.4045 -0.0562 -0.4934
  617TIP3    H123486   3.649   3.687   1.064 -1.7198  0.4851 -0.3895
  617TIP3    H223487   3.705   3.575   1.150  0.3821  0.3945 -1.7906
  618TIP3   OH223488   0.500   6.135   2.870 -0.0474  0.2528 -0.1671
  618TIP3    H123489   0.553   6.206   2.833 -0.0101  1.8319  2.6841
  618TIP3    H223490   0.542   6.055   2.837  1.7362  1.4951 -1.0807
  619TIP3   OH223491   4.144   5.040   7.998  0.5295  0.2582  0.5970
  619TIP3    H123492   4.068   5.009   7.949  0.4951  0.4901  0.5024
  619TIP3    H223493   4.170   4.965   8.051 -0.3890  0.4898  1.4034
  620TIP3   OH223494   4.027   0.868   8.457 -0.2522 -0.2929  0.3836
  620TIP3    H123495   4.008   0.834   8.370 -0.5093  0.1623  0.2601
  620TIP3    H223496   4.121   0.853   8.469 -0.1239  0.0642 -0.1538
  621TIP3   OH223497   2.630   0.063   7.937 -0.1070 -0.2401 -0.4177
  621TIP3    H123498   2.710   0.074   7.988  0.5899 -0.9570 -1.3353
  621TIP3    H223499   2.627   0.138   7.878 -0.5956  0.2602  0.2177
  622TIP3   OH223500   3.940   6.755   7.877 -0.1549  0.1022  0.2522
  622TIP3    H123501   3.993   6.687   7.918 -0.7380 -1.0738 -0.8698
  622TIP3    H223502   3.965   6.754   7.785  0.1908  1.7846  0.2966
  623TIP3   OH223503   5.013   3.485   0.841  0.0043  0.3160 -0.5372
  623TIP3    H123504   4.969   3.569   0.826 -0.5538  0.5028  1.7737
  623TIP3    H223505   4.956   3.420   0.799 -0.1952  0.9528 -1.2892
  624TIP3   OH223506   6.541   0.886   0.455  0.4706 -0.0957  0.0233
  624TIP3    H123507   6.477   0.833   0.409 -0.1102  0.7759 -0.2005
  624TIP3    H223508   6.489   0.943   0.511  1.0563  0.4863 -0.0087
  625TIP3   OH223509   5.621   2.704   2.133 -0.6328 -0.0218 -0.4426
  625TIP3    H123510   5.615   2.641   2.205 -1.9901 -0.0974 -0.5963
  625TIP3    H223511   5.531   2.727   2.114 -0.4475 -1.1974 -3.1690
  626TIP3   OH223512   5.832   3.174   2.631 -0.0459  0.2200  0.1555
  626TIP3    H123513   5.787   3.089   2.631 -0.7083  0.5296  1.8355
  626TIP3    H223514   5.767   3.236   2.598  0.4175  0.0959 -1.0134
  627TIP3   OH223515   0.819   3.113   2.632  0.8067 -0.3589  0.7394
  627TIP3    H123516   0.869   3.035   2.656  1.1726 -0.7187 -1.0597
  627TIP3    H223517   0.729   3.093   2.655  0.7240 -1.7689 -0.6266
  628TIP3   OH223518   2.768   3.256   1.319 -0.1534  0.1431  0.6394
  628TIP3    H123519   2.825   3.314   1.369  0.7045 -0.5970  0.5466
  628TIP3    H223520   2.820   3.231   1.242 -0.7074 -0.3179  0.3972
  629TIP3   OH223521   3.730   5.845   0.667  0.3944 -0.4216  0.0728
  629TIP3    H123522   3.716   5.829   0.760  2.8770 -1.8679  0.2994
  629TIP3    H223523   3.722   5.759   0.626 -1.2939  0.2817 -1.2103
  630TIP3   OH223524   4.278   6.035   0.790 -0.3936  0.1305  0.0650
  630TIP3    H123525   4.272   6.102   0.858  0.3681 -0.4816  0.7608
  630TIP3    H223526   4.372   6.021   0.778 -0.5340 -0.7540 -0.1121
  631TIP3   OH223527   6.776   0.331   7.669  0.3548  0.6316  0.0755
  631TIP3    H123528   6.819   0.272   7.608  1.1415  0.4353  0.8013
  631TIP3    H223529   6.703   0.368   7.619 -0.2018 -0.9899 -0.3772
  632TIP3   OH223530   3.282   3.507   0.042 -0.2418 -0.3418 -0.1753
  632TIP3    H123531   3.298   3.547   0.127  0.3488  0.5471 -0.6804
  632TIP3    H223532   3.294   3.579  -0.020 -2.9838 -0.3522 -0.8727
  633TIP3   OH223533   6.816   6.560   1.078  0.0794 -0.2248  0.9253
  633TIP3    H123534   6.844   6.471   1.052  0.1050 -0.3907  1.5141
  633TIP3    H223535   6.875   6.618   1.029  0.7870 -0.5528  1.3733
  634TIP3   OH223536   6.377   6.636   0.495 -1.1871  0.0451 -0.0014
  634TIP3    H123537   6.370   6.600   0.583 -1.6119  0.7696  0.2732
  634TIP3    H223538   6.287   6.637   0.462 -0.9728 -0.6639 -0.6298
  635TIP3   OH223539   0.296   2.954   7.091 -0.3343  0.3608  0.4224
  635TIP3    H123540   0.317   2.883   7.030 -0.0491  0.0324  0.8907
  635TIP3    H223541   0.359   3.023   7.071  0.9477 -0.4457  1.5221
  636TIP3   OH223542   1.825   4.417   1.430  0.1159  0.7537 -0.4781
  636TIP3    H123543   1.805   4.442   1.340 -0.3207 -0.2202 -0.6711
  636TIP3    H223544   1.811   4.322   1.431  1.0323  0.6210  0.3795
  637TIP3   OH223545   4.108   0.932   0.766 -0.4034 -0.0335 -0.0591
  637TIP3    H123546   4.062   1.015   0.777 -1.7370 -0.9483  1.6336
  637TIP3    H223547   4.096   0.910   0.674 -1.2245  0.9646 -0.2028
  638TIP3   OH223548   3.645   3.089   2.185 -0.1711  0.3902 -0.2903
  638TIP3    H123549   3.559   3.063   2.217 -0.8706  1.3251 -1.3226
  638TIP3    H223550   3.687   3.131   2.260 -1.1152  1.0540 -0.1218
  639TIP3   OH223551   2.217   2.752   0.643 -0.0581  0.0047 -0.0441
  639TIP3    H123552   2.266   2.832   0.628  0.5282 -0.2812  0.2704
  639TIP3    H223553   2.241   2.726   0.732 -1.8034  0.5522  0.6212
  640TIP3   OH223554   1.777   5.187   7.948  0.1319 -0.2353 -0.6624
  640TIP3    H123555   1.683   5.199   7.955  0.2352 -0.4212  2.0517
  640TIP3    H223556   1.809   5.190   8.038  2.6934 -0.4957 -1.4683
  641TIP3   OH223557   0.960   0.851   1.619  0.1955  0.1292  0.1179
  641TIP3    H123558   0.983   0.761   1.596 -0.3543  0.7081 -3.2249
  641TIP3    H223559   1.044   0.895   1.633  0.7334 -0.0037 -2.3366
  642TIP3   OH223560   1.226   3.402   8.272 -0.1963 -0.4721  0.7256
  642TIP3    H123561   1.294   3.409   8.339 -0.7357 -0.3646  1.2681
  642TIP3    H223562   1.264   3.444   8.195  1.5999 -3.1584 -0.0136
  643TIP3   OH223563   6.140   2.755   0.194 -0.8328 -0.6877  0.1216
  643TIP3    H123564   6.119   2.773   0.103  0.8334 -0.2546 -0.2190
  643TIP3    H223565   6.220   2.702   0.191  1.0914  1.8672  1.2748
  644TIP3   OH223566   2.045   0.786   0.665  0.3803  0.7643 -0.1135
  644TIP3    H123567   2.104   0.736   0.721  0.2540  0.7993  0.0496
  644TIP3    H223568   2.101   0.853   0.626  0.7125  0.0550 -0.9038
  645TIP3   OH223569   1.479   0.937   0.148 -0.0732  0.2150 -0.0787
  645TIP3    H123570   1.554   0.977   0.102 -0.5803  0.2691 -0.8895
  645TIP3    H223571   1.518   0.885   0.218  0.7034  0.5474 -0.2573
  646TIP3   OH223572   2.936   3.038   2.140 -0.1272 -0.3008  0.0910
  646TIP3    H123573   2.960   3.121   2.099 -1.1629  0.3404  0.7378
  646TIP3    H223574   2.842   3.046   2.155  0.4259  0.3462  4.3320
  647TIP3   OH223575   6.714   1.832   0.661  0.0884  0.3201  0.1068
  647TIP3    H123576   6.643   1.801   0.605  1.0117 -1.2248 -0.2711
  647TIP3    H223577   6.679   1.825   0.750 -0.3152 -0.1930 -0.0875
  648TIP3   OH223578   0.032   0.163   7.575 -0.5121  0.0989  0.0111
  648TIP3    H123579  -0.025   0.119   7.512 -2.1069  1.4376  0.4189
  648TIP3    H223580   0.121   0.143   7.547 -1.0885 -3.5840  0.3712
  649TIP3   OH223581   5.422   6.445   1.687 -0.2320  0.1186  0.0949
  649TIP3    H123582   5.352   6.509   1.674  1.5706  2.2390  0.2575
  649TIP3    H223583   5.475   6.481   1.758  1.9821 -0.4692 -1.1494
  650TIP3   OH223584   5.205   0.738   0.953  0.1654 -0.0437  0.3618
  650TIP3    H123585   5.116   0.725   0.920 -0.1140 -0.0200  1.0848
  650TIP3    H223586   5.205   0.829   0.985  0.6565  0.1768 -0.2534
  651TIP3   OH223587   5.156   1.080   6.457 -0.3255  0.0484 -1.0070
  651TIP3    H123588   5.157   1.088   6.362 -3.0538  0.0996 -1.1123
  651TIP3    H223589   5.089   1.142   6.486 -0.3141 -0.7299  0.8528
  652TIP3   OH223590   4.797   1.465   8.404  0.5181  0.3374 -0.2072
  652TIP3    H123591   4.781   1.413   8.326  1.6640  1.2747 -1.0973
  652TIP3    H223592   4.748   1.420   8.473 -1.0843 -0.1245 -1.5869
  653TIP3   OH223593   1.772   0.491   7.739  0.1221  0.6488 -0.4016
  653TIP3    H123594   1.686   0.494   7.781  0.4165  2.9160  0.1510
  653TIP3    H223595   1.831   0.464   7.810  0.2887  2.2121  0.0819
  654TIP3   OH223596   3.782   1.348   1.983 -0.0029 -0.0906 -0.3123
  654TIP3    H123597   3.737   1.274   1.943  0.5527 -1.2949  1.1638
  654TIP3    H223598   3.784   1.326   2.076  1.7542  0.9192 -0.0783
  655TIP3   OH223599   0.760   6.020   2.008  0.0179 -0.6058  0.1751
  655TIP3    H123600   0.757   5.936   1.961  1.6564  0.2852 -1.6853
  655TIP3    H223601   0.690   6.014   2.073  0.9081 -3.9029  1.0031
  656TIP3   OH223602   3.912   6.363   7.944  0.1136 -0.4768 -0.0413
  656TIP3    H123603   3.958   6.437   7.906  0.5007 -1.6664 -1.9920
  656TIP3    H223604   3.821   6.374   7.916 -0.1005 -0.0704  0.7707
  657TIP3   OH223605   4.870   0.013   7.300  0.1030 -0.2477  0.2703
  657TIP3    H123606   4.895   0.031   7.390 -0.2484 -0.4240  0.4049
  657TIP3    H223607   4.953   0.002   7.253  0.3058 -2.5620  1.0421
  658TIP3   OH223608   0.768   1.759   7.932  0.0662  0.0343  0.2482
  658TIP3    H123609   0.860   1.732   7.936  0.5140  1.5402  1.1758
  658TIP3    H223610   0.757   1.789   7.842 -0.2605 -2.4346 -0.6019
  659TIP3   OH223611   4.264   3.418   1.278  0.0376  0.5422 -0.1762
  659TIP3    H123612   4.345   3.419   1.226  0.3398 -0.0726  0.2591
  659TIP3    H223613   4.294   3.411   1.369 -0.5014  0.2801 -0.0109
  660TIP3   OH223614   6.418   4.298   0.688  0.1177 -0.4362  0.2382
  660TIP3    H123615   6.497   4.276   0.737 -0.3506 -3.3945 -0.1448
  660TIP3    H223616   6.417   4.234   0.616 -2.4678 -0.3241  0.1056
  661TIP3   OH223617   2.399   4.390   0.574 -1.0067  0.1682  0.6426
  661TIP3    H123618   2.352   4.309   0.594 -1.0671 -0.0016 -0.1515
  661TIP3    H223619   2.429   4.422   0.659 -1.2586 -0.5180  0.9965
  662TIP3   OH223620   2.525   4.158   7.447  0.5022 -0.5233  0.2729
  662TIP3    H123621   2.585   4.218   7.491 -0.0286  0.8441 -0.8086
  662TIP3    H223622   2.582   4.094   7.405  1.2839  1.0562 -1.1930
  663TIP3   OH223623   4.290   6.660   0.643  0.0865  0.0111  0.0464
  663TIP3    H123624   4.327   6.587   0.692 -0.5360  0.0468  0.5985
  663TIP3    H223625   4.318   6.738   0.692 -0.2940  0.0637  0.1873
  664TIP3   OH223626   2.748   4.269   1.757 -0.7218 -0.2794  0.0800
  664TIP3    H123627   2.770   4.176   1.766 -1.5166 -0.4874 -0.0867
  664TIP3    H223628   2.706   4.292   1.839 -0.6497 -0.0978  0.0672
  665TIP3   OH223629   1.771   4.806   0.847 -0.7160  0.3843  0.1549
  665TIP3    H123630   1.736   4.731   0.798 -0.6248  1.2968 -1.3478
  665TIP3    H223631   1.698   4.868   0.851 -0.6079  0.4822  0.8912
  666TIP3   OH223632   5.514   3.280   7.458 -0.0699 -0.1774 -0.2494
  666TIP3    H123633   5.553   3.255   7.374 -0.8211  0.7248 -0.8866
  666TIP3    H223634   5.451   3.211   7.477 -0.3316 -0.0791 -0.7389
  667TIP3   OH223635   4.644   0.296   0.222 -0.3976 -0.2544  0.0925
  667TIP3    H123636   4.604   0.373   0.263  0.1410 -0.4554  1.0211
  667TIP3    H223637   4.578   0.265   0.160 -0.2743  1.4796 -0.9698
  668TIP3   OH223638   2.821   4.691   7.850 -0.0576  0.1174 -0.6261
  668TIP3    H123639   2.836   4.784   7.868 -2.9811  0.7264 -0.8929
  668TIP3    H223640   2.876   4.672   7.774 -0.2211  1.9383 -1.2532
  669TIP3   OH223641   6.416   3.315   1.007  0.2267 -0.6111 -0.0597
  669TIP3    H123642   6.415   3.351   1.096 -1.3183  1.6079 -0.8813
  669TIP3    H223643   6.364   3.377   0.956  0.7985 -2.0011 -2.4650
  670TIP3   OH223644   2.792   2.468   2.676 -0.0910  0.0583 -0.0793
  670TIP3    H123645   2.806   2.443   2.767  0.4041 -3.2606 -0.9267
  670TIP3    H223646   2.718   2.527   2.678 -0.1531 -0.0127  2.4679
  671TIP3   OH223647   4.917   2.559   8.372 -0.2397  0.0900 -0.1085
  671TIP3    H123648   4.954   2.606   8.297  0.6604 -2.1520 -1.1448
  671TIP3    H223649   4.837   2.608   8.394 -0.8547  0.5080 -2.9191
  672TIP3   OH223650   6.013   0.632   7.201  0.0157 -0.3922  0.3039
  672TIP3    H123651   6.053   0.576   7.134  1.2046  0.5001  0.2253
  672TIP3    H223652   5.960   0.573   7.254 -0.5711 -1.2046 -1.1266
  673TIP3   OH223653   0.105   1.226   0.966 -0.4610 -0.5848 -0.0094
  673TIP3    H123654   0.130   1.154   1.024 -0.9802  0.0265  1.0109
  673TIP3    H223655   0.176   1.290   0.977 -2.0386  0.9122  2.4672
  674TIP3   OH223656   5.802   1.727   1.363  0.6023  0.3678 -0.2498
  674TIP3    H123657   5.765   1.673   1.293  2.5247 -0.9566 -0.3352
  674TIP3    H223658   5.758   1.811   1.355 -1.4805 -0.7315 -1.0390
  675TIP3   OH223659   2.786   2.586   1.239  0.1932 -0.8062 -0.3975
  675TIP3    H123660   2.807   2.504   1.284  1.5522 -0.7603 -0.9033
  675TIP3    H223661   2.735   2.559   1.162 -0.3503 -1.0640  0.0460
  676TIP3   OH223662   2.129   1.847   7.228  0.0946 -0.0963  0.3934
  676TIP3    H123663   2.040   1.876   7.207  0.7634  0.9255 -1.2978
  676TIP3    H223664   2.144   1.772   7.171  0.7450  0.5662 -0.3465
  677TIP3   OH223665   0.742   1.518   7.263 -0.6363  0.1777  0.5641
  677TIP3    H123666   0.762   1.450   7.199  3.9658  1.4055  0.3402
  677TIP3    H223667   0.705   1.590   7.211 -0.1324 -0.0924 -0.1802
  678TIP3   OH223668   3.076   3.509   7.241  0.1311  0.3110 -0.1412
  678TIP3    H123669   3.130   3.588   7.235 -0.0920  0.6230  1.5565
  678TIP3    H223670   3.104   3.456   7.167  3.9403 -0.2721  1.4905
  679TIP3   OH223671   5.586   1.383   2.010  0.6589 -0.0022  0.1939
  679TIP3    H123672   5.558   1.314   2.069  0.3445  0.6938  0.8808
  679TIP3    H223673   5.583   1.463   2.063  0.9428  0.5493 -0.5966
  680TIP3   OH223674   1.082   2.203   0.492  0.3127  0.3301  0.1517
  680TIP3    H123675   1.055   2.294   0.499 -0.7547 -0.0165  0.7147
  680TIP3    H223676   1.001   2.152   0.503  0.1607 -0.6277 -3.7825
  681TIP3   OH223677   4.989   0.328   0.080 -1.0736 -0.0976 -0.2631
  681TIP3    H123678   5.066   0.379   0.055 -0.5312 -0.3569  0.8376
  681TIP3    H223679   4.915   0.385   0.058 -0.6297 -0.1679 -2.0754
  682TIP3   OH223680   3.918   1.007   2.509  0.1139 -0.3860 -0.4540
  682TIP3    H123681   3.852   1.010   2.440  0.1017 -2.8149 -0.6265
  682TIP3    H223682   3.971   1.086   2.495 -1.1205  0.2407 -1.9382
  683TIP3   OH223683   6.640   2.514   7.372  0.3164 -0.0187 -0.0703
  683TIP3    H123684   6.690   2.504   7.291 -3.4443  0.0812 -2.6944
  683TIP3    H223685   6.662   2.601   7.404  2.4251 -0.3404 -0.5320
  684TIP3   OH223686   2.316   6.835   0.956  0.2414  0.3398  0.8452
  684TIP3    H123687   2.401   6.864   0.924 -0.0693  0.2460 -0.0807
  684TIP3    H223688   2.335   6.753   1.002  0.9257  1.2827  2.3431
  685TIP3   OH223689   0.220   3.510   1.633 -0.1159 -0.1685  0.0688
  685TIP3    H123690   0.242   3.420   1.612  1.2427  0.3164 -0.7171
  685TIP3    H223691   0.251   3.561   1.558  1.7886  1.2379  1.6928
  686TIP3   OH223692   5.886   1.871   7.832  0.6979 -0.1017 -0.1069
  686TIP3    H123693   5.883   1.934   7.759 -0.8821  0.1514  0.1421
  686TIP3    H223694   5.963   1.896   7.882 -0.9022  2.9985  1.1045
  687TIP3   OH223695   5.168   5.604   8.119 -0.1053 -0.4958 -0.2470
  687TIP3    H123696   5.257   5.595   8.085 -0.4122  0.6650 -1.4353
  687TIP3    H223697   5.144   5.694   8.101 -1.7562 -0.9518 -0.5258
  688TIP3   OH223698   1.618   0.308   8.386  0.1548  0.0939  0.1062
  688TIP3    H123699   1.658   0.350   8.310 -1.3524 -1.6312 -1.7283
  688TIP3    H223700   1.618   0.376   8.453  2.7603  1.2775 -0.9335
  689TIP3   OH223701   5.647   6.636   2.544 -0.2472  0.2831  0.6541
  689TIP3    H123702   5.608   6.719   2.573  0.7743  1.1137 -0.2793
  689TIP3    H223703   5.681   6.597   2.624  1.2074  1.8384  0.8573
  690TIP3   OH223704   4.752   1.359   2.904  0.2288 -0.6407 -0.2784
  690TIP3    H123705   4.723   1.361   2.813 -0.1988 -0.5260 -0.1467
  690TIP3    H223706   4.672   1.341   2.954  0.1483  0.8512  0.1827
  691TIP3   OH223707   6.144   5.453   8.104 -0.6070  0.1514 -0.1383
  691TIP3    H123708   6.189   5.489   8.028  0.2077 -0.6505 -0.0552
  691TIP3    H223709   6.170   5.361   8.106 -3.5316 -0.8186 -1.0529
  692TIP3   OH223710   0.379   4.183   0.188 -0.3618 -0.1740 -0.1423
  692TIP3    H123711   0.297   4.138   0.169  0.6475 -1.5423 -1.5177
  692TIP3    H223712   0.398   4.161   0.279 -0.1760 -2.1358 -0.6197
  693TIP3   OH223713   5.268   3.991   7.516  0.4378 -0.4107 -0.5194
  693TIP3    H123714   5.221   3.911   7.540  0.1351  0.4663  2.1926
  693TIP3    H223715   5.203   4.061   7.527  1.2975  0.4235 -0.6632
  694TIP3   OH223716   0.849   1.461   7.644  0.3472  0.1340  0.5802
  694TIP3    H123717   0.862   1.556   7.647 -0.5964  0.2500  1.8702
  694TIP3    H223718   0.819   1.438   7.732 -0.3879 -1.2278  0.0007
  695TIP3   OH223719   2.169   2.855   1.733 -0.1379 -0.2602  0.4218
  695TIP3    H123720   2.214   2.777   1.765 -2.0174 -1.8208 -0.5184
  695TIP3    H223721   2.159   2.839   1.639  0.6405  1.7873 -0.0619
  696TIP3   OH223722   3.217   5.124   7.640  0.0542  0.4763  0.2779
  696TIP3    H123723   3.138   5.138   7.587 -0.0908  1.8061  0.8102
  696TIP3    H223724   3.269   5.062   7.590 -1.8202 -1.3421  0.4222
  697TIP3   OH223725   6.013   6.892   6.931 -0.2195  0.0094 -0.3304
  697TIP3    H123726   5.988   6.801   6.914 -0.0699 -0.1638  0.3528
  697TIP3    H223727   6.080   6.910   6.866  1.1402 -1.0011  0.7359
  698TIP3   OH223728   1.137   0.806   7.586 -0.1330  0.1124  0.3372
  698TIP3    H123729   1.089   0.866   7.645  2.4892  1.3040  1.4368
  698TIP3    H223730   1.125   0.844   7.499 -2.8151 -0.8135  0.2071
  699TIP3   OH223731   5.412   4.090   7.314  0.4098 -0.3810 -0.4518
  699TIP3    H123732   5.380   4.034   7.243 -0.7545 -1.2805  0.7205
  699TIP3    H223733   5.382   4.046   7.394  1.3580  0.7919  0.5888
  700TIP3   OH223734   0.997   6.159   2.695  0.1326  0.0587  0.2363
  700TIP3    H123735   0.976   6.126   2.608 -1.3296  1.1637  0.1276
  700TIP3    H223736   1.088   6.188   2.689 -0.1350  0.6945 -1.1263
  701TIP3   OH223737   6.909   0.387   7.354  0.5059  0.3379  0.6336
  701TIP3    H123738   6.898   0.458   7.291 -1.1785 -0.8887 -0.5514
  701TIP3    H223739   6.973   0.420   7.417 -0.2296  2.8857  0.1379
  702TIP3   OH223740   2.484   0.303   1.308 -0.0808 -0.3629 -0.3519
  702TIP3    H123741   2.416   0.352   1.262 -1.1346  1.3242  2.7389
  702TIP3    H223742   2.563   0.356   1.299 -0.5841  0.6037  0.7670
  703TIP3   OH223743   2.886   6.869   7.912  0.7276  0.2592  0.6429
  703TIP3    H123744   2.837   6.856   7.831 -0.2033 -0.0465  1.2262
  703TIP3    H223745   2.944   6.942   7.894 -1.6699  2.2965  0.6373
  704TIP3   OH223746   1.173   4.429   0.091  0.3708  0.9645 -0.0537
  704TIP3    H123747   1.147   4.473   0.010 -1.2392  0.1899  0.0057
  704TIP3    H223748   1.115   4.464   0.158 -0.5777 -0.7664  0.1053
  705TIP3   OH223749   6.513   1.144   2.100 -0.5931 -0.1600  0.1461
  705TIP3    H123750   6.604   1.132   2.129 -0.5134 -0.0437 -0.0533
  705TIP3    H223751   6.468   1.065   2.131 -0.6661  0.2819  1.1948
  706TIP3   OH223752   6.644   3.521   1.194  0.6357  0.1414 -0.2437
  706TIP3    H123753   6.602   3.523   1.280  2.2461  0.6683  0.5705
  706TIP3    H223754   6.657   3.428   1.176 -1.4901 -0.0815 -0.8638
  707TIP3   OH223755   1.022   3.063   8.075 -0.0824  0.3930 -0.1792
  707TIP3    H123756   1.068   2.983   8.102  0.4213  0.7815  0.1491
  707TIP3    H223757   1.017   3.116   8.155 -1.3646  0.2459 -0.1449
  708TIP3   OH223758   5.313   4.109   2.597  0.1312 -0.1252 -0.0632
  708TIP3    H123759   5.346   4.034   2.646 -0.9720 -0.7954 -0.3099
  708TIP3    H223760   5.247   4.148   2.653  0.0917  0.1514 -0.2967
  709TIP3   OH223761   5.175   4.199   0.153  0.3028  0.1910 -0.0255
  709TIP3    H123762   5.156   4.196   0.060 -0.3488  0.8113  0.0834
  709TIP3    H223763   5.212   4.286   0.168  1.4754 -0.3112  0.1017
  710TIP3   OH223764   6.688   1.717   0.979 -0.0744  0.0294  0.5192
  710TIP3    H123765   6.672   1.625   1.001 -0.2170 -0.2775 -0.8120
  710TIP3    H223766   6.770   1.716   0.930  1.2236  0.9269  2.5548
  711TIP3   OH223767   3.352   3.004   1.353  0.2411 -0.1043 -0.2020
  711TIP3    H123768   3.308   3.087   1.368 -2.1497 -1.1200 -1.1599
  711TIP3    H223769   3.308   2.943   1.412  1.1564 -0.9459 -0.3598
  712TIP3   OH223770   5.225   4.723   0.744 -0.1553 -0.6423  0.3955
  712TIP3    H123771   5.316   4.746   0.728  0.5381 -2.9702  0.7834
  712TIP3    H223772   5.206   4.759   0.831 -0.0972  1.0616 -0.2476
  713TIP3   OH223773   1.497   0.731   0.714 -0.4166 -0.2376 -0.7454
  713TIP3    H123774   1.590   0.722   0.694 -0.3662 -0.0347 -0.6035
  713TIP3    H223775   1.484   0.825   0.724 -0.8075 -0.1938 -1.5772
  714TIP3   OH223776   1.428   0.117   7.722  0.0218 -0.1455  0.0030
  714TIP3    H123777   1.354   0.073   7.763 -1.0742  2.1417  0.6477
  714TIP3    H223778   1.501   0.104   7.782 -0.6227  0.0244  0.8392
  715TIP3   OH223779   3.561   4.540   7.782 -0.0414 -0.3683  0.0100
  715TIP3    H123780   3.548   4.632   7.762 -1.4411 -0.5440  0.0142
  715TIP3    H223781   3.641   4.516   7.735  0.0495  0.7163 -0.4073
  716TIP3   OH223782   4.750   5.428   7.541  0.1435 -0.5217 -0.0838
  716TIP3    H123783   4.814   5.488   7.580 -0.5745 -1.9867  3.8190
  716TIP3    H223784   4.665   5.466   7.561 -0.2706 -1.8225  0.8326
  717TIP3   OH223785   6.572   0.306   7.241  0.1545 -0.0899  0.6951
  717TIP3    H123786   6.536   0.336   7.158  1.1210 -2.3005 -0.6220
  717TIP3    H223787   6.642   0.368   7.261 -0.5198  0.8409  0.2313
  718TIP3   OH223788   2.715   2.697   0.248  0.0298 -0.1322 -0.6266
  718TIP3    H123789   2.752   2.766   0.302 -1.7023 -0.2713  0.8319
  718TIP3    H223790   2.788   2.638   0.231  0.6090 -0.2403  1.8599
  719TIP3   OH223791   0.246   0.866   8.337  0.1551 -0.1711  0.5362
  719TIP3    H123792   0.323   0.825   8.297 -1.0788 -1.1868 -0.9184
  719TIP3    H223793   0.261   0.960   8.330  0.3333 -0.3190 -1.7356
  720TIP3   OH223794   3.210   3.201   0.048  0.5383  0.4777  0.8103
  720TIP3    H123795   3.221   3.275  -0.011 -0.8544 -0.8074 -1.2243
  720TIP3    H223796   3.159   3.235   0.121 -1.5206  1.2614 -0.8752
  721TIP3   OH223797   0.406   4.853   7.586  0.1519  0.0985  0.2679
  721TIP3    H123798   0.490   4.810   7.569  0.6201  0.6293  1.1632
  721TIP3    H223799   0.340   4.788   7.559  0.8273  0.0494 -1.3624
  722TIP3   OH223800   2.021   6.117   0.671 -0.2987 -0.2595 -0.1927
  722TIP3    H123801   1.935   6.100   0.708  0.2483 -2.0903  0.3369
  722TIP3    H223802   2.021   6.071   0.587  0.6745 -1.6704  0.5351
  723TIP3   OH223803   4.632   3.598   7.184  0.9583 -0.5957  0.2376
  723TIP3    H123804   4.634   3.574   7.092  0.7554  0.7563 -0.1387
  723TIP3    H223805   4.720   3.580   7.216  1.6175  0.7910 -0.7318
  724TIP3   OH223806   5.454   3.822   2.558  0.0149  0.9509 -0.0445
  724TIP3    H123807   5.427   3.867   2.638 -0.1484 -0.7050  0.8852
  724TIP3    H223808   5.456   3.729   2.582  1.9012  0.5679 -1.4172
  725TIP3   OH223809   0.845   4.492   7.992 -0.3649  0.2766  0.0166
  725TIP3    H123810   0.837   4.409   8.039 -3.4877  1.1577  1.3186
  725TIP3    H223811   0.885   4.552   8.055 -0.5851  0.3911  0.0507
  726TIP3   OH223812   2.751   3.984   1.705 -0.1983  0.3301  0.1374
  726TIP3    H123813   2.677   3.945   1.658  0.5007 -2.0186  0.8262
  726TIP3    H223814   2.742   3.952   1.795  0.9036  1.1087  0.5472
  727TIP3   OH223815   0.277   0.160   0.331  0.6209  0.0547 -0.1256
  727TIP3    H123816   0.316   0.247   0.331  1.1049 -0.1433  0.9125
  727TIP3    H223817   0.193   0.172   0.286  1.4525  0.6659 -1.5732
  728TIP3   OH223818   2.228   1.199   0.725  0.1671 -0.2632 -0.1359
  728TIP3    H123819   2.214   1.177   0.817  1.1471  1.7114  0.5310
  728TIP3    H223820   2.295   1.138   0.695 -0.9989 -1.7075  0.0811
  729TIP3   OH223821   3.823   2.229   8.420 -0.1175  0.2165 -0.5083
  729TIP3    H123822   3.842   2.187   8.504  0.5844  2.1992  0.3771
  729TIP3    H223823   3.727   2.225   8.413 -0.1105 -0.9042 -0.1356
  730TIP3   OH223824   5.270   3.696   2.903  0.7656  0.0438  0.3838
  730TIP3    H123825   5.345   3.683   2.845 -0.1365  1.5163 -1.2050
  730TIP3    H223826   5.280   3.786   2.936  0.6444 -0.3764  1.6388
  731TIP3   OH223827   5.763   6.075   7.487 -0.4366 -0.0034  0.3543
  731TIP3    H123828   5.820   6.144   7.521 -0.1749  0.7903 -1.5891
  731TIP3    H223829   5.728   6.110   7.405  1.2328 -2.8227 -1.7698
  732TIP3   OH223830   6.758   6.022   8.513  0.0368  0.1738  0.2867
  732TIP3    H123831   6.814   6.066   8.576  0.1943  0.7988 -0.2739
  732TIP3    H223832   6.767   6.074   8.433  0.4751 -1.0603 -0.4901
  733TIP3   OH223833   6.396   1.364   0.312 -0.4524 -0.1883 -0.5203
  733TIP3    H123834   6.380   1.388   0.220  1.4243  0.5662 -0.6921
  733TIP3    H223835   6.416   1.447   0.355 -0.6448 -0.6249  0.4342
  734TIP3   OH223836   5.866   3.291   7.916 -0.4511 -0.3599  0.2472
  734TIP3    H123837   5.908   3.223   7.865  2.4449  1.1148  0.4575
  734TIP3    H223838   5.795   3.324   7.860  0.6336 -0.8948 -1.4936
  735TIP3   OH223839   6.534   4.016   8.259  0.0908 -0.3148  0.1567
  735TIP3    H123840   6.515   4.020   8.166  0.4099 -0.4786  0.0819
  735TIP3    H223841   6.580   3.932   8.271  0.3924 -0.1173  0.3949
  736TIP3   OH223842   0.628   1.351   0.629 -0.2065 -0.0408 -0.5786
  736TIP3    H123843   0.572   1.360   0.553  1.7713  1.4030 -1.9506
  736TIP3    H223844   0.698   1.292   0.601  0.2728  0.0913  0.2926
  737TIP3   OH223845   2.044   5.326   1.543  0.3822  0.1633 -0.3028
  737TIP3    H123846   2.120   5.288   1.588 -0.7219  0.8984  2.3957
  737TIP3    H223847   2.076   5.408   1.506  1.6476 -1.0766 -2.1575
  738TIP3   OH223848   0.660   0.519   8.364  0.7469 -0.6313 -0.0038
  738TIP3    H123849   0.625   0.578   8.431  0.8194  0.3105 -0.7685
  738TIP3    H223850   0.582   0.487   8.318  0.6260 -2.0659  1.1373
  739TIP3   OH223851   3.065   6.349   8.312  0.0846 -0.0447 -0.0491
  739TIP3    H123852   3.154   6.371   8.337  2.0592 -5.2559 -1.3151
  739TIP3    H223853   3.059   6.370   8.219 -0.7718  1.8756  0.3746
  740TIP3   OH223854   6.742   2.841   1.811 -0.1574  0.5465 -0.0519
  740TIP3    H123855   6.835   2.839   1.790 -0.2850  2.6144 -1.1238
  740TIP3    H223856   6.738   2.881   1.898 -0.0726  2.9728 -1.0715
  741TIP3   OH223857   1.628   4.894   7.586  0.6621 -0.3329 -0.8729
  741TIP3    H123858   1.696   4.837   7.549  0.0032 -0.8657 -1.2965
  741TIP3    H223859   1.586   4.839   7.653  1.0313  0.1968 -0.1999
  742TIP3   OH223860   0.404   4.460   1.421 -0.3192 -1.0748 -0.1248
  742TIP3    H123861   0.477   4.398   1.423  0.4057 -0.2852 -1.3447
  742TIP3    H223862   0.441   4.542   1.454 -0.9141 -0.9060  0.1492
  743TIP3   OH223863   1.013   1.691   1.965  0.1210  0.0792  0.8161
  743TIP3    H123864   1.026   1.774   2.012 -0.7262 -0.0772  1.3698
  743TIP3    H223865   1.007   1.716   1.873 -0.4412  0.6904  1.0050
  744TIP3   OH223866   5.397   6.531   8.113 -0.5396 -0.7733  0.1348
  744TIP3    H123867   5.462   6.514   8.181 -1.9195 -0.8930  1.4677
  744TIP3    H223868   5.404   6.456   8.053  0.4067 -0.8679  0.3480
  745TIP3   OH223869   5.624   0.537   0.739  0.2974 -0.4423  0.1912
  745TIP3    H123870   5.531   0.557   0.753 -0.1775 -0.4943 -2.3749
  745TIP3    H223871   5.671   0.606   0.785 -0.9875 -0.2322  1.2644
  746TIP3   OH223872   6.082   3.437   0.446 -0.4423 -0.6230  0.1303
  746TIP3    H123873   6.026   3.494   0.500  0.1434  0.7218 -0.6423
  746TIP3    H223874   6.165   3.485   0.439 -0.9445 -0.0115 -3.1253
  747TIP3   OH223875   5.592   1.106   7.399 -0.4221 -0.1601  0.5751
  747TIP3    H123876   5.591   1.012   7.418  1.2861 -0.3334 -0.0509
  747TIP3    H223877   5.683   1.132   7.406 -0.4117  0.8516 -1.9463
  748TIP3   OH223878   4.970   2.329   0.946  0.0956  0.3602 -0.2028
  748TIP3    H123879   4.995   2.410   0.900  0.7930 -1.1068 -2.6093
  748TIP3    H223880   4.874   2.331   0.946  0.0867  0.7740 -1.0893
  749TIP3   OH223881   1.992   6.489   8.219  0.1958 -0.3944  0.4905
  749TIP3    H123882   1.923   6.523   8.162 -0.4896 -1.8462  0.3892
  749TIP3    H223883   2.073   6.499   8.169 -0.4437 -2.0740 -0.9764
  750TIP3   OH223884   1.334   0.927   2.952  0.3326  0.5261 -0.1274
  750TIP3    H123885   1.394   0.856   2.974  1.1529  1.0867 -0.5265
  750TIP3    H223886   1.304   0.960   3.037  0.2138 -0.0633  0.0660
  751TIP3   OH223887   2.094   6.290   7.810  0.7276  0.2569 -0.7387
  751TIP3    H123888   2.037   6.362   7.782  0.6969  0.8441  0.7180
  751TIP3    H223889   2.182   6.326   7.806  0.7969  0.0716 -0.8835
  752TIP3   OH223890   4.757   6.883   0.903 -0.3575  0.2411  0.0515
  752TIP3    H123891   4.775   6.931   0.984 -0.0878  0.1936  0.0208
  752TIP3    H223892   4.831   6.823   0.894 -0.0945  0.6429 -0.5326
  753TIP3   OH223893   5.045   3.453   1.142  0.0568  0.3778  0.1175
  753TIP3    H123894   5.015   3.435   1.053 -1.9400 -0.3390  0.8875
  753TIP3    H223895   5.038   3.548   1.150  0.3927  0.4673 -0.5127
  754TIP3   OH223896   4.859   1.064   0.668 -0.2253 -0.4661  0.0553
  754TIP3    H123897   4.921   1.002   0.705  0.7143 -0.2835 -1.1539
  754TIP3    H223898   4.849   1.131   0.735  0.9299 -0.4817  0.2683
  755TIP3   OH223899   6.082   4.550   1.609 -0.1538 -0.5046  0.2514
  755TIP3    H123900   5.996   4.511   1.595 -0.3144  0.0185 -0.2346
  755TIP3    H223901   6.070   4.642   1.588  0.5021 -0.4087  0.2858
  756TIP3   OH223902   2.909   5.494   1.186 -0.4726 -0.1193  0.4684
  756TIP3    H123903   2.960   5.416   1.206  2.3318  1.4516 -0.1110
  756TIP3    H223904   2.905   5.543   1.268  3.0604  1.8890 -0.3376
  757TIP3   OH223905   1.948   3.335   7.678 -0.6443  0.2339  0.1306
  757TIP3    H123906   1.893   3.306   7.750  1.5090 -1.8243  1.0580
  757TIP3    H223907   1.935   3.430   7.675 -0.5018  0.4931  3.5487
  758TIP3   OH223908   3.393   4.984   6.970  0.1416  0.3358 -0.2542
  758TIP3    H123909   3.441   4.938   7.039 -0.3671 -2.5261 -1.7026
  758TIP3    H223910   3.301   4.972   6.992 -0.0501 -1.2635 -1.7695
  759TIP3   OH223911   3.191   2.083   1.476  0.3899  0.1855  0.9397
  759TIP3    H123912   3.251   2.047   1.541 -0.5887 -1.8369  0.7995
  759TIP3    H223913   3.107   2.042   1.495  0.2283 -1.1818 -2.0234
  760TIP3   OH223914   0.215   2.618   7.779  0.6930 -0.0349  0.4297
  760TIP3    H123915   0.226   2.624   7.874 -1.0177  2.3851  0.5764
  760TIP3    H223916   0.131   2.573   7.768  1.7354 -1.9557 -0.0549
  761TIP3   OH223917   1.099   0.479   0.958 -0.8529 -0.6201  0.2872
  761TIP3    H123918   1.121   0.395   0.920 -2.1581 -1.1597  0.6632
  761TIP3    H223919   1.121   0.543   0.891 -0.9503 -1.3616 -0.4633
  762TIP3   OH223920   2.827   6.456   2.680 -0.1717  0.2851 -0.3952
  762TIP3    H123921   2.738   6.424   2.693 -0.1901  1.0672  1.8535
  762TIP3    H223922   2.857   6.412   2.601 -3.9981  3.1558 -3.8477
  763TIP3   OH223923   1.582   5.657   1.978  0.0643 -0.7848 -0.6288
  763TIP3    H123924   1.580   5.752   1.988  1.0391 -0.7353 -0.8554
  763TIP3    H223925   1.500   5.636   1.933 -0.9391 -0.2390  0.8469
  764TIP3   OH223926   4.166   3.456   8.480  0.3984 -0.0993 -0.2852
  764TIP3    H123927   4.116   3.435   8.401  1.6052  1.5497 -1.5776
  764TIP3    H223928   4.115   3.419   8.552 -1.9398  0.3035 -1.6376
  765TIP3   OH223929   3.293   1.228   0.399 -0.2190 -0.0335 -0.5247
  765TIP3    H123930   3.303   1.301   0.338 -0.2015  1.5841  1.2789
  765TIP3    H223931   3.200   1.205   0.394 -0.0877 -0.3722 -1.6053
  766TIP3   OH223932   6.785   4.517   0.398 -0.6445 -0.5536  0.4474
  766TIP3    H123933   6.858   4.467   0.363 -0.3101  0.1088  0.1993
  766TIP3    H223934   6.716   4.451   0.413  0.1748 -1.2664  1.1932
  767TIP3   OH223935   2.627   5.430   1.132  0.2485 -0.2312  0.1671
  767TIP3    H123936   2.692   5.500   1.137 -0.7637  0.9005 -1.5416
  767TIP3    H223937   2.676   5.353   1.102  0.9612  0.3830 -0.2732
  768TIP3   OH223938   3.084   0.919   2.450 -0.2444  0.1897 -0.1406
  768TIP3    H123939   3.030   0.851   2.493 -1.1714 -1.0352 -3.0251
  768TIP3    H223940   3.058   1.000   2.494 -1.1702 -0.9313  1.5357
  769TIP3   OH223941   4.064   2.590   7.002  0.6816  0.3277  0.1237
  769TIP3    H123942   4.011   2.511   7.006  0.5327  0.4809  1.6417
  769TIP3    H223943   4.011   2.657   7.047  1.3130  0.9832 -0.0837
  770TIP3   OH223944   4.190   2.058   0.555  0.0302  0.0966 -0.1854
  770TIP3    H123945   4.231   2.145   0.557  1.1593 -0.4192  0.9545
  770TIP3    H223946   4.134   2.057   0.633 -1.9747  0.6636 -1.5392
  771TIP3   OH223947   0.442   6.917   6.836 -0.2505  0.3245 -0.1215
  771TIP3    H123948   0.480   7.004   6.841  2.3298 -0.7699  1.8490
  771TIP3    H223949   0.385   6.911   6.913 -0.8583  0.4532 -0.5598
  772TIP3   OH223950   2.225   4.912   1.135  0.1406 -0.0743  0.6786
  772TIP3    H123951   2.226   4.887   1.042 -0.9436  1.2627  0.2719
  772TIP3    H223952   2.137   4.890   1.165  0.2001  0.3083  1.1471
  773TIP3   OH223953   6.414   4.603   0.697 -0.4941  0.2340 -0.1193
  773TIP3    H123954   6.399   4.510   0.679  0.3352  0.3059 -1.3254
  773TIP3    H223955   6.477   4.630   0.631  0.2065  1.3803  0.9766
  774TIP3   OH223956   4.033   6.247   2.368  0.2405 -0.6054  0.3064
  774TIP3    H123957   3.944   6.234   2.334  0.0168  2.4682 -0.5847
  774TIP3    H223958   4.032   6.203   2.453 -2.4697  0.1145  0.7369
  775TIP3   OH223959   1.569   6.834   1.366 -0.1764  0.9103  0.3305
  775TIP3    H123960   1.658   6.869   1.373 -0.6974  2.1211  1.2959
  775TIP3    H223961   1.518   6.905   1.328 -0.7280  0.1781 -0.3366
  776TIP3   OH223962   4.525   4.831   2.268  0.5370 -0.5682  0.4036
  776TIP3    H123963   4.608   4.785   2.253  0.2009 -0.8572 -0.6612
  776TIP3    H223964   4.502   4.867   2.183  0.3409  0.8411  1.0316
  777TIP3   OH223965   5.827   2.287   1.408  1.0541 -0.8154  0.0579
  777TIP3    H123966   5.811   2.195   1.390  0.9385 -0.9222  0.6678
  777TIP3    H223967   5.827   2.293   1.504  0.6571 -0.1116  0.0211
  778TIP3   OH223968   5.180   5.652   7.586  0.2281 -0.0460  0.7836
  778TIP3    H123969   5.242   5.624   7.518 -0.4629 -2.3479  1.0072
  778TIP3    H223970   5.235   5.697   7.651  1.1143  0.9275 -0.5901
  779TIP3   OH223971   5.770   4.921   0.186 -0.2558 -0.3990 -0.1063
  779TIP3    H123972   5.856   4.957   0.163 -0.6635 -0.0867 -1.2460
  779TIP3    H223973   5.751   4.957   0.272  0.0065  0.9309 -0.5787
  780TIP3   OH223974   0.976   3.328   1.645  0.1049 -0.9784 -0.2132
  780TIP3    H123975   0.962   3.360   1.556 -0.3447 -0.8226 -0.0893
  780TIP3    H223976   0.896   3.278   1.666 -0.0035 -0.6090  0.2783
  781TIP3   OH223977   6.169   0.214   0.417 -0.1511 -0.1180 -0.2264
  781TIP3    H123978   6.110   0.143   0.391 -0.3330 -0.8640  2.0220
  781TIP3    H223979   6.231   0.172   0.477  3.1962  0.4472 -2.9558
  782TIP3   OH223980   4.960   2.612   0.685 -1.0215 -0.7248  0.0337
  782TIP3    H123981   5.017   2.572   0.620 -1.2297  0.1452 -0.7064
  782TIP3    H223982   5.016   2.626   0.761 -0.5475 -0.9278 -0.2754
  783TIP3   OH223983   5.621   0.303   0.894 -0.0898  0.3153 -0.7123
  783TIP3    H123984   5.636   0.378   0.837  2.1763 -0.7604 -1.6619
  783TIP3    H223985   5.701   0.251   0.886 -1.2914 -1.8339  0.4893
  784TIP3   OH223986   5.208   1.811   1.950  0.5826  0.1230  0.0551
  784TIP3    H123987   5.277   1.750   1.978  0.5371 -0.4044 -0.9303
  784TIP3    H223988   5.127   1.771   1.981  0.5829 -0.1263 -0.2656
  785TIP3   OH223989   2.532   1.135   1.816 -0.1527 -0.3471 -0.3838
  785TIP3    H123990   2.458   1.121   1.756 -0.0927 -2.1180 -0.1018
  785TIP3    H223991   2.499   1.198   1.880 -0.4063  1.1493 -1.9157
  786TIP3   OH223992   0.057   2.918   1.082  0.1683  0.3924  0.1941
  786TIP3    H123993  -0.021   2.973   1.077 -0.4778 -0.5514 -0.6205
  786TIP3    H223994   0.058   2.885   1.172 -1.2597 -0.7873 -0.1763
  787TIP3   OH223995   0.089   4.768   1.629 -0.1615 -0.3739  0.2947
  787TIP3    H123996   0.118   4.695   1.575  2.2355  0.4551  0.3445
  787TIP3    H223997   0.158   4.780   1.694 -0.8025  1.4893  0.7118
  788TIP3   OH223998   6.528   6.059   0.924  0.2749 -0.1226  0.3716
  788TIP3    H123999   6.566   5.985   0.970 -0.8564 -1.0891 -0.2054
  788TIP3    H224000   6.551   6.045   0.833 -0.3955 -0.0705  0.1858
  789TIP3   OH224001   0.802   0.250   1.249 -0.3321  0.4185  0.0965
  789TIP3    H124002   0.736   0.205   1.301 -0.8666  1.1319  0.0509
  789TIP3    H224003   0.758   0.329   1.216  0.3189  0.5385 -0.5345
  790TIP3   OH224004   0.128   1.840   1.734  0.0284 -0.6721  0.2212
  790TIP3    H124005   0.075   1.888   1.797 -0.1871 -0.4935 -0.0936
  790TIP3    H224006   0.205   1.812   1.784  0.3216  0.2913  0.3227
  791TIP3   OH224007   2.691   6.775   7.367  0.1200 -0.6509  0.3641
  791TIP3    H124008   2.690   6.705   7.302 -0.0288  0.1769 -0.5629
  791TIP3    H224009   2.665   6.733   7.449 -0.4123 -1.5812 -0.2661
  792TIP3   OH224010   4.797   4.002   8.436  0.2316  0.2748  0.1406
  792TIP3    H124011   4.737   3.969   8.502 -2.4694  1.9934 -1.2772
  792TIP3    H224012   4.851   4.066   8.482 -2.0567  1.9426  0.6661
  793TIP3   OH224013   6.697   0.703   8.297  0.0853 -0.0259  0.1652
  793TIP3    H124014   6.688   0.723   8.203 -0.2860  1.9777  0.5815
  793TIP3    H224015   6.790   0.685   8.309  0.2134  0.1489 -0.5202
  794TIP3   OH224016   6.511   6.446   7.350 -0.3252 -0.1384  0.1244
  794TIP3    H124017   6.418   6.426   7.351 -0.2246 -1.2680 -2.9795
  794TIP3    H224018   6.525   6.494   7.269  1.6715  0.9542  1.0364
  795TIP3   OH224019   6.273   2.484   0.904  0.0772 -0.3141 -0.1287
  795TIP3    H124020   6.245   2.410   0.958  0.7372 -0.5853 -0.1592
  795TIP3    H224021   6.309   2.444   0.825 -0.4471  0.0703 -0.5739
  796TIP3   OH224022   2.795   0.965   2.626  0.0875  0.1529 -0.2250
  796TIP3    H124023   2.747   1.042   2.596  0.1056 -0.0937 -0.9256
  796TIP3    H224024   2.881   0.998   2.653 -0.7911  0.7417  1.9954
  797TIP3   OH224025   3.832   0.424   8.183 -0.2260  0.4485  0.0875
  797TIP3    H124026   3.754   0.425   8.127 -0.3668 -0.9402  0.2290
  797TIP3    H224027   3.893   0.364   8.140 -0.0938 -0.1606  1.0775
  798TIP3   OH224028   4.192   6.224   0.163 -0.3830 -0.6645 -0.7318
  798TIP3    H124029   4.215   6.136   0.192  0.4873 -0.3635 -0.4738
  798TIP3    H224030   4.102   6.237   0.194  0.3182 -0.5483  1.3991
  799TIP3   OH224031   4.325   2.977   2.481  0.1839 -0.3551 -0.4955
  799TIP3    H124032   4.266   2.906   2.504  1.4716 -1.3991 -0.2788
  799TIP3    H224033   4.310   3.044   2.547 -3.1282  0.9036 -2.3191
  800TIP3   OH224034   4.516   0.770   0.600  0.1208 -0.0311  0.3359
  800TIP3    H124035   4.487   0.848   0.647  0.8716  0.1250  0.5540
  800TIP3    H224036   4.528   0.704   0.668  0.1047 -0.1519  0.2230
  801TIP3   OH224037   5.070   6.611   8.215  0.2259 -0.0266  0.4745
  801TIP3    H124038   5.152   6.629   8.261 -0.0325 -0.2054  1.0150
  801TIP3    H224039   5.012   6.682   8.241 -0.4889 -1.0733  1.8465
  802TIP3   OH224040   2.462   6.943   1.720  0.2038 -0.1197  0.2912
  802TIP3    H124041   2.427   6.856   1.699 -0.9619  0.6861 -1.2396
  802TIP3    H224042   2.449   6.994   1.641  3.4335  0.7174  0.1636
  803TIP3   OH224043   2.114   4.166   1.820  0.0153  0.1895 -0.1921
  803TIP3    H124044   2.116   4.121   1.904 -0.0938  0.4559 -0.0441
  803TIP3    H224045   2.187   4.227   1.823 -0.9519  1.3607  0.3750
  804TIP3   OH224046   3.814   3.991   2.201 -0.4674 -0.5196 -0.0477
  804TIP3    H124047   3.760   3.938   2.260 -0.1527  1.5071  2.2278
  804TIP3    H224048   3.904   3.968   2.226 -0.3330  0.2569  0.2055
  805TIP3   OH224049   5.087   5.021   1.862  0.1278  0.0482  0.0971
  805TIP3    H124050   5.010   4.980   1.822 -2.0113  1.4758  2.4730
  805TIP3    H224051   5.087   4.991   1.952 -1.3361  4.5390  1.8993
  806TIP3   OH224052   5.421   6.572   6.532  0.9419  0.3949  0.2481
  806TIP3    H124053   5.508   6.561   6.493  1.0480  0.2767  0.5125
  806TIP3    H224054   5.370   6.499   6.499  0.4577  1.3447 -1.2066
  807TIP3   OH224055   0.299   1.432   1.020  0.3322 -0.0626  0.3748
  807TIP3    H124056   0.305   1.497   0.949 -3.4323 -0.3228 -0.3869
  807TIP3    H224057   0.323   1.481   1.099  0.0739  1.5579 -0.4985
  808TIP3   OH224058   2.089   4.508   8.404  0.3865  0.1545  0.0456
  808TIP3    H124059   2.067   4.415   8.393 -0.5224  0.2748  0.7738
  808TIP3    H224060   2.170   4.507   8.455  0.3604 -0.2322  0.0857
  809TIP3   OH224061   2.292   6.286   0.537  0.2762 -0.2965  0.3808
  809TIP3    H124062   2.300   6.320   0.626 -2.0506 -2.3951  1.5209
  809TIP3    H224063   2.282   6.364   0.482  1.4225  1.0317  1.9618
  810TIP3   OH224064   4.413   2.442   2.529  0.3403 -0.4691  0.3303
  810TIP3    H124065   4.498   2.437   2.573  0.1180 -1.0604  0.7046
  810TIP3    H224066   4.434   2.464   2.439  0.6734  3.4461  1.2067
  811TIP3   OH224067   1.820   5.803   0.682 -0.2528 -0.3496  0.1912
  811TIP3    H124068   1.768   5.758   0.749  0.5104  0.8147  1.6258
  811TIP3    H224069   1.809   5.896   0.703  2.9152 -0.0523  0.9953
  812TIP3   OH224070   1.262   0.983   0.476  0.6625  1.2970  0.4304
  812TIP3    H124071   1.168   0.999   0.488 -0.1198  0.4067 -3.1027
  812TIP3    H224072   1.304   1.033   0.545 -2.3962  1.8950  2.0393
  813TIP3   OH224073   6.452   0.081   7.716 -0.3767 -0.2730  0.3754
  813TIP3    H124074   6.417   0.167   7.692  0.1055  0.1521  1.1316
  813TIP3    H224075   6.444   0.079   7.812  1.3445 -0.2836  0.5483
  814TIP3   OH224076   1.652   1.874   8.486 -0.1096 -0.2211  0.1916
  814TIP3    H124077   1.650   1.790   8.532 -1.1257  0.7311  1.9717
  814TIP3    H224078   1.600   1.933   8.541  0.6585  1.6086 -0.9631
  815TIP3   OH224079   2.919   3.730   0.775 -0.7911  0.0912  0.4320
  815TIP3    H124080   2.828   3.742   0.747 -0.4994  1.4210  0.0048
  815TIP3    H224081   2.912   3.688   0.861 -1.7627 -1.1244 -0.2071
  816TIP3   OH224082   2.176   6.747   8.007 -0.3346 -0.1084  0.4375
  816TIP3    H124083   2.122   6.669   8.018 -1.1481  0.0877 -1.6171
  816TIP3    H224084   2.134   6.814   8.062 -0.9545 -0.5248  0.4763
  817TIP3   OH224085   3.182   0.884   1.528 -0.2000  0.1536  0.2243
  817TIP3    H124086   3.231   0.814   1.571  1.0689 -0.3258 -1.8189
  817TIP3    H224087   3.108   0.840   1.487  1.0816 -0.2551 -1.8156
  818TIP3   OH224088   6.901   4.706   7.072  0.3519 -0.0337  0.1543
  818TIP3    H124089   6.822   4.758   7.056  0.7169  0.4993  0.0507
  818TIP3    H224090   6.955   4.761   7.128  0.1803 -0.8549  1.1446
  819TIP3   OH224091   4.828   2.863   7.447  0.0113  0.1181 -0.6162
  819TIP3    H124092   4.808   2.886   7.537  0.4374  0.0513 -0.5012
  819TIP3    H224093   4.748   2.883   7.398  0.0081  0.8026 -0.3387
  820TIP3   OH224094   6.792   2.430   7.604 -0.5693 -0.0899 -0.0834
  820TIP3    H124095   6.798   2.524   7.585  0.6353 -0.1460 -0.0914
  820TIP3    H224096   6.782   2.425   7.699  0.4775  0.0407  0.0494
  821TIP3   OH224097   1.642   4.495   2.662  0.4815  0.1713  0.0271
  821TIP3    H124098   1.706   4.444   2.613  1.2629 -0.3796  1.5313
  821TIP3    H224099   1.569   4.435   2.677 -0.3272  0.7235 -1.4743
  822TIP3   OH224100   6.494   1.885   2.034 -0.5747  0.2237  0.3468
  822TIP3    H124101   6.496   1.798   2.074 -1.2255  0.0108 -0.0715
  822TIP3    H224102   6.514   1.870   1.942  0.6998  0.6894  0.5211
  823TIP3   OH224103   0.296   2.701   1.550 -0.6644 -0.2087  1.0230
  823TIP3    H124104   0.241   2.778   1.535 -0.3158  0.1176  1.4206
  823TIP3    H224105   0.292   2.686   1.644  1.7157  1.1819  1.4226
  824TIP3   OH224106   1.783   0.637   7.421 -0.9210  0.0696  0.5226
  824TIP3    H124107   1.779   0.558   7.367 -1.7782 -0.4079  1.2631
  824TIP3    H224108   1.840   0.614   7.494 -1.6220 -0.0685  1.0392
  825TIP3   OH224109   5.139   5.582   1.612 -0.0343 -0.5573  0.2243
  825TIP3    H124110   5.070   5.521   1.638 -2.5824  1.2120 -1.8947
  825TIP3    H224111   5.135   5.652   1.677 -0.9833  0.0336 -0.4492
  826TIP3   OH224112   1.813   1.855   1.779  0.0516  0.5112  0.2449
  826TIP3    H124113   1.844   1.914   1.847 -0.8164 -0.3887  1.4523
  826TIP3    H224114   1.747   1.800   1.822 -0.6409  0.0269 -1.3542
  827TIP3   OH224115   6.588   2.070   1.738 -0.4363  0.1812  0.8368
  827TIP3    H124116   6.579   2.152   1.786  0.3276  1.9213 -1.7686
  827TIP3    H224117   6.517   2.071   1.674 -0.4414 -1.2390  0.7785
  828TIP3   OH224118   0.160   1.359   2.223 -0.3205  0.0322 -0.3478
  828TIP3    H124119   0.163   1.419   2.296 -1.5147 -0.0248 -0.2344
  828TIP3    H224120   0.117   1.407   2.153 -0.3067 -0.3321 -0.6148
  829TIP3   OH224121   4.254   0.849   8.110 -0.3589  0.0892  0.0933
  829TIP3    H124122   4.234   0.817   8.022 -1.6117 -0.9211  0.7097
  829TIP3    H224123   4.306   0.928   8.096  0.0758 -0.4555 -1.5365
  830TIP3   OH224124   6.451   0.196   1.123 -0.2453  0.0360  0.0564
  830TIP3    H124125   6.517   0.146   1.076  0.7413 -0.2357  1.6646
  830TIP3    H224126   6.500   0.244   1.190 -1.3135  2.2169 -0.6453
  831TIP3   OH224127   1.779   0.894   1.931 -0.1327 -0.2243  0.1824
  831TIP3    H124128   1.713   0.958   1.957  0.8365 -0.0045  2.3369
  831TIP3    H224129   1.751   0.812   1.972  0.6480 -0.2294  0.7424
  832TIP3   OH224130   0.316   1.713   7.691  0.5587 -0.2019 -0.4332
  832TIP3    H124131   0.278   1.784   7.744  0.4077 -0.8041  0.2749
  832TIP3    H224132   0.338   1.755   7.608 -0.1674  0.5268 -0.2712
  833TIP3   OH224133   4.822   4.679   7.696  0.0603 -0.1095 -0.5750
  833TIP3    H124134   4.734   4.659   7.663  0.8053 -1.6878 -1.7494
  833TIP3    H224135   4.879   4.614   7.653  1.6340  0.1140  1.0651
  834TIP3   OH224136   4.064   0.716   0.958 -0.1039 -0.1838 -0.5455
  834TIP3    H124137   4.041   0.791   0.903  1.0266 -1.1205 -2.3717
  834TIP3    H224138   3.987   0.660   0.956 -0.3886  0.2010 -0.4342
  835TIP3   OH224139   6.668   0.580   7.272  0.3172 -0.2881  0.5220
  835TIP3    H124140   6.736   0.606   7.210 -0.4114 -0.1422 -0.2396
  835TIP3    H224141   6.587   0.613   7.233 -0.6510 -3.4029 -0.3698
  836TIP3   OH224142   6.862   5.273   7.283  0.5121  0.4292  0.3109
  836TIP3    H124143   6.900   5.342   7.338  0.1636  3.1080 -2.5036
  836TIP3    H224144   6.926   5.261   7.213 -0.9776  0.4907 -1.1340
  837TIP3   OH224145   4.072   6.775   7.003  0.6745  0.3858  0.1870
  837TIP3    H124146   4.085   6.747   7.094 -1.9042 -1.9056 -0.0238
  837TIP3    H224147   4.161   6.779   6.967  1.8360  2.0412  2.9066
  838TIP3   OH224148   6.461   5.199   0.158  0.3241 -0.0648 -0.0002
  838TIP3    H124149   6.502   5.252   0.089 -0.2172  0.8437  0.3570
  838TIP3    H224150   6.368   5.198   0.134  0.2708 -0.5110  0.2248
  839TIP3   OH224151   1.312   3.172   1.555 -0.6389  0.3334 -0.3046
  839TIP3    H124152   1.263   3.193   1.635 -2.8045  0.1375 -1.4900
  839TIP3    H224153   1.249   3.125   1.500  1.4037 -1.4076 -1.3241
  840TIP3   OH224154   2.007   4.665   7.946  0.3269 -0.5150  0.3356
  840TIP3    H124155   1.931   4.723   7.949 -0.5474 -1.6526  1.4059
  840TIP3    H224156   1.990   4.608   7.871  1.1870  0.5691 -0.7174
  841TIP3   OH224157   6.153   2.978   7.024 -0.1634 -0.0222 -0.2478
  841TIP3    H124158   6.240   2.980   6.985 -0.3198  1.4790 -0.5890
  841TIP3    H224159   6.105   3.048   6.979 -1.0772  0.1815  0.9892
  842TIP3   OH224160   2.338   5.450   1.474 -0.0727  0.0008 -0.1489
  842TIP3    H124161   2.404   5.381   1.482  1.1608  1.0799 -0.6419
  842TIP3    H224162   2.337   5.471   1.381 -0.7816  0.3380 -0.0703
  843TIP3   OH224163   1.032   3.767   7.324  0.1193 -0.1373 -0.0675
  843TIP3    H124164   1.104   3.757   7.262  0.7080 -1.2007  0.7304
  843TIP3    H224165   0.975   3.833   7.286  0.7256 -0.3966 -1.4747
  844TIP3   OH224166   5.766   2.538   1.622  0.0055 -0.2756  0.3863
  844TIP3    H124167   5.723   2.558   1.705 -0.5757 -0.7707  0.2064
  844TIP3    H224168   5.762   2.442   1.615  0.1040 -0.2418 -0.1878
  845TIP3   OH224169   6.105   6.443   2.757  0.5577  0.1245 -0.2227
  845TIP3    H124170   6.125   6.530   2.791  1.4944 -0.9027  2.0980
  845TIP3    H224171   6.191   6.407   2.733  0.8334 -1.6450  2.9026
  846TIP3   OH224172   5.363   0.285   0.326 -0.0676  0.8639 -0.4116
  846TIP3    H124173   5.415   0.352   0.370 -0.1688  1.2011 -0.7954
  846TIP3    H224174   5.412   0.265   0.246  0.9054 -0.8534  0.5604
  847TIP3   OH224175   0.952   6.202   2.147  0.0218 -0.3843 -0.4880
  847TIP3    H124176   0.883   6.154   2.102 -0.4680 -1.7067  1.5589
  847TIP3    H224177   0.906   6.258   2.209  0.7542 -1.2448  0.8722
  848TIP3   OH224178   3.109   3.652   0.534  0.5419  0.5985  0.5550
  848TIP3    H124179   3.046   3.595   0.580 -0.0727  0.6264 -0.2218
  848TIP3    H224180   3.186   3.597   0.522 -0.5834 -0.6720 -1.5512
  849TIP3   OH224181   0.555   4.580   7.884  0.2451 -0.7926 -0.3390
  849TIP3    H124182   0.633   4.592   7.830 -0.1259  1.1231 -0.4995
  849TIP3    H224183   0.586   4.528   7.958  2.5370  2.4102  1.2160
  850TIP3   OH224184   5.458   5.603   8.176  0.2875 -0.0605  0.3593
  850TIP3    H124185   5.505   5.656   8.241  0.8980  0.9293 -0.8579
  850TIP3    H224186   5.526   5.560   8.125 -0.1260  0.7403 -0.8931
  851TIP3   OH224187   3.024   0.966   1.118  0.3543 -0.0655  0.4246
  851TIP3    H124188   3.053   0.919   1.040  1.6412 -0.4854  1.1257
  851TIP3    H224189   2.972   0.902   1.167 -0.7697  0.3092 -0.2323
  852TIP3   OH224190   6.700   4.139   0.217 -0.5531  0.4257  0.1021
  852TIP3    H124191   6.648   4.162   0.139  1.5018 -0.7409 -1.7128
  852TIP3    H224192   6.680   4.046   0.231 -0.1277  0.3716  0.3348
  853TIP3   OH224193   1.575   0.095   0.655  0.0742 -0.3101 -0.1523
  853TIP3    H124194   1.616   0.055   0.732  0.2600 -2.1060 -1.1254
  853TIP3    H224195   1.550   0.021   0.600 -1.3633  0.8826 -1.1784
  854TIP3   OH224196   0.822   2.331   0.191 -0.8381 -0.7084  0.0859
  854TIP3    H124197   0.781   2.373   0.267  1.8965  1.0663  0.7507
  854TIP3    H224198   0.777   2.367   0.115  0.5855  2.7485  0.6906
  855TIP3   OH224199   4.722   0.428   0.998  0.9331 -0.1056  0.6117
  855TIP3    H124200   4.640   0.378   1.002 -0.9914  2.7696 -0.2419
  855TIP3    H224201   4.772   0.384   0.929 -1.4517  0.1329 -1.4023
  856TIP3   OH224202   0.169   0.643   0.847 -0.3544  0.0752 -0.1880
  856TIP3    H124203   0.085   0.644   0.802 -0.9877 -2.8520  0.6688
  856TIP3    H224204   0.222   0.579   0.799  0.7450  0.5477  0.3456
  857TIP3   OH224205   4.127   3.797   2.011  0.7897 -0.5457  0.6048
  857TIP3    H124206   4.041   3.825   2.040  0.3775 -1.2793  0.1068
  857TIP3    H224207   4.120   3.702   2.001  1.5162 -0.5555  0.0894
  858TIP3   OH224208   3.459   5.679   0.445 -0.3837 -0.0779 -0.3934
  858TIP3    H124209   3.476   5.723   0.362 -0.5669 -1.5666 -1.2570
  858TIP3    H224210   3.497   5.591   0.434 -1.3214 -0.6506  0.7122
  859TIP3   OH224211   2.193   5.441   2.145 -0.2348  0.3239  0.2841
  859TIP3    H124212   2.150   5.407   2.067  0.9381  0.5765 -0.4928
  859TIP3    H224213   2.264   5.496   2.112  0.3242  0.3897  1.5250
  860TIP3   OH224214   4.542   0.667   7.113 -0.2725  0.6656 -0.1748
  860TIP3    H124215   4.586   0.644   7.031  2.6242 -0.8385  1.6384
  860TIP3    H224216   4.522   0.582   7.154  3.7119  0.9867  3.1867
  861TIP3   OH224217   2.002   4.134   7.559  0.4028 -0.6021  0.0149
  861TIP3    H124218   2.088   4.163   7.529  0.4535  0.7026  1.3033
  861TIP3    H224219   1.943   4.206   7.536  0.0600 -0.5474  1.0268
  862TIP3   OH224220   1.475   0.012   0.371 -0.3269  0.4380 -0.0619
  862TIP3    H124221   1.464   0.099   0.334 -1.1525  0.1671 -0.4626
  862TIP3    H224222   1.388  -0.014   0.400  0.0909  0.1697  1.0259
  863TIP3   OH224223   4.003   1.865   1.381  0.0757  0.4369  0.3449
  863TIP3    H124224   3.918   1.864   1.426  0.1968  0.0436  0.5716
  863TIP3    H224225   4.034   1.775   1.388  0.2738  0.4609 -0.1978
  864TIP3   OH224226   2.999   2.797   0.711 -0.2549 -0.0061 -0.1764
  864TIP3    H124227   2.968   2.798   0.802 -2.2126 -0.4698 -0.7998
  864TIP3    H224228   3.083   2.843   0.714 -0.1842 -0.1825  1.8916
  865TIP3   OH224229   4.063   0.949   7.750 -0.7073  0.0570  0.0565
  865TIP3    H124230   3.976   0.911   7.745 -1.5820  1.9510 -0.0113
  865TIP3    H224231   4.054   1.036   7.710  1.3132  0.1380 -0.3500
  866TIP3   OH224232   2.168   6.764   2.120  0.5016  0.0374 -0.0633
  866TIP3    H124233   2.144   6.679   2.157  2.1411 -1.4273 -2.1013
  866TIP3    H224234   2.253   6.785   2.159  0.4929  0.3365 -0.1963
  867TIP3   OH224235   6.135   5.651   0.352 -0.5665  0.2993 -0.4019
  867TIP3    H124236   6.222   5.655   0.310 -0.9544 -1.4659 -1.5058
  867TIP3    H224237   6.151   5.607   0.436 -0.1175  1.8106  0.3292
  868TIP3   OH224238   5.139   2.959   1.976  0.1711 -0.0788  0.5632
  868TIP3    H124239   5.098   2.875   1.954  0.3323 -1.5859  4.9397
  868TIP3    H224240   5.081   2.996   2.043  2.5934  0.8710  2.2570
  869TIP3   OH224241   4.590   2.811   7.196  0.5895 -0.0108 -0.1243
  869TIP3    H124242   4.622   2.901   7.209  0.6352  0.3880 -2.5234
  869TIP3    H224243   4.665   2.765   7.158  0.6001 -1.1486  1.1887
  870TIP3   OH224244   2.769   1.896   0.519 -0.6373  0.5625 -0.2939
  870TIP3    H124245   2.826   1.912   0.443 -1.1552  0.0745 -0.7955
  870TIP3    H224246   2.824   1.916   0.595  0.2548 -0.0766 -0.7572
  871TIP3   OH224247   1.077   1.821   2.308  0.6633 -0.3239  0.1045
  871TIP3    H124248   1.009   1.889   2.314  0.5375 -0.5140  0.9789
  871TIP3    H224249   1.127   1.844   2.229 -0.0939  0.1159 -0.2599
  872TIP3   OH224250   4.666   4.772   7.967  0.1627  0.2075 -0.3487
  872TIP3    H124251   4.602   4.722   7.916 -1.3254  1.2725  0.4057
  872TIP3    H224252   4.737   4.789   7.905 -0.9394  0.2418 -1.6444
  873TIP3   OH224253   1.170   3.694   2.744  0.5071 -0.2292 -0.0423
  873TIP3    H124254   1.221   3.655   2.815 -0.8157 -0.2868  0.9126
  873TIP3    H224255   1.209   3.780   2.730  0.2175  0.1689  1.4311
  874TIP3   OH224256   2.749   6.722   1.895  0.0553  0.7885  0.4386
  874TIP3    H124257   2.756   6.768   1.979 -0.7872  2.5851 -0.4235
  874TIP3    H224258   2.753   6.629   1.918  0.4922  1.2466  2.3893
  875TIP3   OH224259   2.200   0.385   7.153  0.3146  0.7410  0.0795
  875TIP3    H124260   2.292   0.370   7.173  0.0877  0.9797  1.4196
  875TIP3    H224261   2.175   0.312   7.097  1.6565  1.4176 -1.4497
  876TIP3   OH224262   0.117   4.797   7.901 -0.0141 -0.3741 -0.0121
  876TIP3    H124263   0.109   4.708   7.866  0.2022 -0.0440 -0.9317
  876TIP3    H224264   0.169   4.787   7.980 -0.3818 -1.1243  0.1393
  877TIP3   OH224265   4.095   1.087   1.681  0.1892 -0.9381  0.0914
  877TIP3    H124266   4.109   1.167   1.732  3.6620 -2.7564  2.3731
  877TIP3    H224267   4.145   1.102   1.600  2.3608 -1.3476  1.2837
  878TIP3   OH224268   0.426   0.605   1.162 -0.2960 -0.1250  0.1511
  878TIP3    H124269   0.337   0.571   1.167 -0.6974  0.8993  0.1019
  878TIP3    H224270   0.424   0.668   1.090 -0.3019  2.1021  1.9966
  879TIP3   OH224271   0.400   5.656   7.284  0.6389 -0.3228 -0.2916
  879TIP3    H124272   0.431   5.744   7.262  1.1597 -0.8493 -1.7732
  879TIP3    H224273   0.425   5.644   7.376 -1.3274  1.8513  0.6225
  880TIP3   OH224274   4.729   1.967   6.912 -0.1852 -0.2724  0.5936
  880TIP3    H124275   4.714   1.906   6.984  0.7392 -1.1453  0.0839
  880TIP3    H224276   4.797   2.026   6.944  0.5783 -0.9632  0.2936
  881TIP3   OH224277   6.257   2.942   8.264  0.1345 -0.1526  0.1527
  881TIP3    H124278   6.209   2.941   8.181  2.2903  0.0876 -1.1811
  881TIP3    H224279   6.324   2.874   8.253 -0.0042 -0.6426  2.0301
  882TIP3   OH224280   4.848   5.857   1.957 -0.0513 -0.0255  0.2068
  882TIP3    H124281   4.804   5.935   1.924  0.0493  0.3110  0.8576
  882TIP3    H224282   4.798   5.832   2.034  0.0390 -0.4896  0.1167
  883TIP3   OH224283   3.381   3.878   2.419 -0.3866  0.1608 -0.0024
  883TIP3    H124284   3.314   3.944   2.439 -0.2724  0.8944 -1.8638
  883TIP3    H224285   3.337   3.794   2.435 -0.5836  0.6270  2.2460
  884TIP3   OH224286   2.869   6.283   1.110 -0.2218  0.2946  0.4641
  884TIP3    H124287   2.828   6.359   1.151 -1.5539  0.6230 -1.3470
  884TIP3    H224288   2.942   6.319   1.059 -0.1898  0.2238  0.4591
  885TIP3   OH224289   5.922   3.575   0.629  0.0741  0.1244  0.2596
  885TIP3    H124290   5.935   3.644   0.695 -1.5220  0.6077  0.1055
  885TIP3    H224291   5.848   3.606   0.577  0.8926 -0.5631 -1.3713
  886TIP3   OH224292   0.469   3.939   1.553  0.2370 -0.0120  0.0419
  886TIP3    H124293   0.402   3.872   1.539  1.5939 -1.1895 -1.2299
  886TIP3    H224294   0.501   3.960   1.465 -0.0529  2.2488  0.4225
  887TIP3   OH224295   1.405   0.740   1.163  0.7802 -0.3526  0.0463
  887TIP3    H124296   1.446   0.761   1.247  0.1367 -1.8548  0.7828
  887TIP3    H224297   1.455   0.665   1.131  0.7416 -0.0588 -0.7030
  888TIP3   OH224298   5.629   4.019   6.798  0.1677  0.2997  0.4140
  888TIP3    H124299   5.559   4.017   6.863  1.7944 -1.9213  2.2756
  888TIP3    H224300   5.652   3.927   6.785  1.0316  0.7941 -2.1383
  889TIP3   OH224301   5.660   4.773   2.687  0.4117  0.4970 -0.4367
  889TIP3    H124302   5.689   4.797   2.599 -2.9657 -1.9111 -2.4423
  889TIP3    H224303   5.706   4.692   2.706 -1.1988 -0.7318 -1.5155
  890TIP3   OH224304   3.045   2.618   0.237  0.2076  0.1902 -0.4873
  890TIP3    H124305   3.033   2.603   0.331 -0.0235  0.1569 -0.5220
  890TIP3    H224306   3.107   2.551   0.210 -1.7472 -1.5827 -0.8962
  891TIP3   OH224307   0.124   2.086   1.991  0.6533 -0.3281 -0.1502
  891TIP3    H124308   0.076   2.036   2.057 -2.2697  1.2191 -0.9376
  891TIP3    H224309   0.167   2.156   2.040 -1.1081  0.5377  0.2154
  892TIP3   OH224310   6.376   6.413   1.536 -0.3569 -0.1687 -0.7336
  892TIP3    H124311   6.412   6.502   1.535  1.8235 -0.9175  1.5376
  892TIP3    H224312   6.445   6.360   1.496  0.1798 -1.3384  1.5968
  893TIP3   OH224313   3.756   6.332   1.382  0.2942  0.1573  0.4923
  893TIP3    H124314   3.808   6.276   1.440  0.3115  0.3173  0.6320
  893TIP3    H224315   3.728   6.405   1.438 -0.8496 -0.3908  0.6585
  894TIP3   OH224316   2.929   0.171   2.412 -0.2305  0.0831 -0.6887
  894TIP3    H124317   2.846   0.123   2.412  0.0593 -0.4353 -1.5893
  894TIP3    H224318   2.903   0.262   2.429 -1.0246 -0.0182 -1.2555
  895TIP3   OH224319   4.403   3.160   8.252 -0.6379 -0.0783 -1.0834
  895TIP3    H124320   4.466   3.228   8.273 -0.1220 -1.3650  2.0247
  895TIP3    H224321   4.452   3.097   8.199  0.7755 -0.9840  1.1568
  896TIP3   OH224322   4.385   2.154   2.162  0.0928 -0.0839  0.8567
  896TIP3    H124323   4.302   2.180   2.203  0.0887 -1.7046  1.9738
  896TIP3    H224324   4.451   2.167   2.231  0.3353 -1.3240  0.8838
  897TIP3   OH224325   3.577   3.067   7.675  0.2511  0.3392 -0.3797
  897TIP3    H124326   3.645   3.078   7.609 -1.1815 -0.7586 -2.1017
  897TIP3    H224327   3.495   3.085   7.629 -0.6900  1.6589  1.6414
  898TIP3   OH224328   4.008   2.525   1.249 -0.1713  0.0528  0.2835
  898TIP3    H124329   4.046   2.449   1.292  0.7293  0.2811 -0.0937
  898TIP3    H224330   3.978   2.581   1.321  1.9565  0.7599  0.6780
  899TIP3   OH224331   0.551   3.583   3.120 -0.1607  0.1958 -0.2268
  899TIP3    H124332   0.497   3.513   3.085  0.5838  0.1863 -1.4083
  899TIP3    H224333   0.517   3.663   3.079  1.2729  0.0858 -1.7495
  900TIP3   OH224334   1.169   0.090   7.114  0.2942  0.1526  0.4499
  900TIP3    H124335   1.143   0.170   7.069  1.8634  1.3661  1.6078
  900TIP3    H224336   1.088   0.055   7.150 -0.3708  1.4240  0.2435
  901TIP3   OH224337   1.667   0.731   7.991  0.1146  0.2048  0.2558
  901TIP3    H124338   1.741   0.790   8.003 -0.0468  0.3969  0.3163
  901TIP3    H224339   1.590   0.787   8.003 -0.0384 -0.0342  0.3975
  902TIP3   OH224340   6.171   4.779   2.818  0.1438 -0.0660  0.5981
  902TIP3    H124341   6.266   4.778   2.833  0.4235  1.6472 -0.7232
  902TIP3    H224342   6.141   4.859   2.861 -0.6609 -0.4057  0.6901
  903TIP3   OH224343   1.249   3.809   1.633 -0.7136 -0.5048 -0.8249
  903TIP3    H124344   1.305   3.764   1.570  0.5719 -1.8616  1.1975
  903TIP3    H224345   1.161   3.773   1.616 -0.3854 -0.9032 -1.7619
  904TIP3   OH224346   5.421   6.336   7.924  0.3921  0.1760  0.8628
  904TIP3    H124347   5.377   6.296   7.849  0.5549  0.1081  0.8049
  904TIP3    H224348   5.431   6.264   7.987  1.3954 -0.0619  0.4457
  905TIP3   OH224349   3.498   6.811   2.545  0.5222 -0.3566  0.2645
  905TIP3    H124350   3.431   6.767   2.493 -0.1253  1.6873 -0.7439
  905TIP3    H224351   3.460   6.815   2.633  0.6455 -1.8348  0.4100
  906TIP3   OH224352   5.156   5.864   8.054 -0.1568 -0.2913 -0.1480
  906TIP3    H124353   5.147   5.937   8.114 -0.2632  1.1668 -1.8669
  906TIP3    H224354   5.200   5.900   7.977  0.9096 -2.3181 -0.5824
  907TIP3   OH224355   6.345   4.992   1.445  0.6961 -0.3104 -0.6888
  907TIP3    H124356   6.339   5.004   1.351 -1.0106  0.4176 -0.5365
  907TIP3    H224357   6.311   5.075   1.481  0.3784 -0.9505  0.5401
  908TIP3   OH224358   2.285   4.578   0.412 -0.1825  0.4822 -0.4310
  908TIP3    H124359   2.232   4.610   0.485  0.8588  0.6522  0.2697
  908TIP3    H224360   2.319   4.494   0.443  0.3727  0.6209 -0.6591
  909TIP3   OH224361   6.883   5.849   6.980 -0.0643 -0.1026  0.1237
  909TIP3    H124362   6.790   5.848   7.002 -0.7338 -3.3868 -2.1477
  909TIP3    H224363   6.885   5.879   6.889  1.2740  1.0885  0.5170
  910TIP3   OH224364   6.661   0.112   0.684 -0.4173 -0.6261  0.3859
  910TIP3    H124365   6.612   0.042   0.641 -2.2948  2.6001 -3.2819
  910TIP3    H224366   6.740   0.123   0.631 -0.2769  0.2270  0.7486
  911TIP3   OH224367   2.137   3.519   7.211  0.6606  0.1254 -0.5873
  911TIP3    H124368   2.088   3.437   7.201  1.2501 -0.2012 -0.9046
  911TIP3    H224369   2.182   3.530   7.127  1.2855  0.2965 -0.2409
  912TIP3   OH224370   0.458   1.285   0.417  0.0404  0.3922 -0.3031
  912TIP3    H124371   0.418   1.205   0.384  1.4896 -0.8853  0.8728
  912TIP3    H224372   0.391   1.352   0.404 -2.5812 -1.6080  1.6352
  913TIP3   OH224373   3.249   2.127   8.464  0.2332  0.1881 -0.8438
  913TIP3    H124374   3.225   2.049   8.513  0.5050 -1.1150 -2.7074
  913TIP3    H224375   3.165   2.169   8.443 -0.0675 -0.8712 -1.8195
  914TIP3   OH224376   2.602   3.165   1.805  0.4926 -0.5299  0.2759
  914TIP3    H124377   2.669   3.220   1.845  0.6746 -1.0696  0.7212
  914TIP3    H224378   2.620   3.170   1.711  0.3669  0.3458  0.2890
  915TIP3   OH224379   3.875   2.701   1.431  0.7267  0.4721  0.4593
  915TIP3    H124380   3.886   2.796   1.424  1.4801  0.5460  2.2101
  915TIP3    H224381   3.902   2.680   1.521 -0.7761 -1.2103  0.5689
  916TIP3   OH224382   0.029   0.574   0.219  0.1358 -0.2771 -0.1082
  916TIP3    H124383   0.002   0.662   0.192  1.0045  0.2054  0.5379
  916TIP3    H224384   0.008   0.518   0.145 -1.9345  0.1905  0.0652
  917TIP3   OH224385   6.128   6.825   7.739 -0.3670  0.0454 -0.1037
  917TIP3    H124386   6.046   6.797   7.698  0.3273 -1.7143 -0.3807
  917TIP3    H224387   6.125   6.921   7.735 -1.2367  0.0038 -2.5048
  918TIP3   OH224388   0.952   2.864   2.277 -0.5235 -0.7297  0.1502
  918TIP3    H124389   0.909   2.943   2.310 -0.3152 -0.4625 -0.2107
  918TIP3    H224390   0.978   2.816   2.355 -0.2736 -0.2329  0.3791
  919TIP3   OH224391   5.246   4.650   1.769 -0.5566  0.1215 -0.6581
  919TIP3    H124392   5.248   4.555   1.764 -0.1356  0.1123 -0.3560
  919TIP3    H224393   5.163   4.670   1.811 -1.4865 -0.0315 -2.3445
  920TIP3   OH224394   5.586   3.244   0.682 -0.2054 -0.4396 -0.1845
  920TIP3    H124395   5.539   3.323   0.653  1.3963  0.1434 -1.2934
  920TIP3    H224396   5.590   3.188   0.605 -1.8613 -1.9652  0.7397
  921TIP3   OH224397   2.305   6.113   7.594 -0.4787  0.1341 -0.2151
  921TIP3    H124398   2.294   6.192   7.647  0.3662  1.5441 -2.0759
  921TIP3    H224399   2.397   6.113   7.569 -0.5198 -1.3298 -0.4810
  922TIP3   OH224400   2.463   1.742   0.918  0.7395 -0.5262  0.0439
  922TIP3    H124401   2.466   1.825   0.871 -0.8770 -0.8520 -0.6926
  922TIP3    H224402   2.530   1.688   0.876  1.6734  0.3190  0.4043
  923TIP3   OH224403   5.463   3.905   0.053  0.5119  0.1867 -0.1104
  923TIP3    H124404   5.536   3.965   0.068  1.6432 -1.0686 -0.3743
  923TIP3    H224405   5.434   3.924  -0.036  0.4506  0.7750  0.0366
  924TIP3   OH224406   0.429   5.825   0.617  0.1907  0.4839 -0.0821
  924TIP3    H124407   0.517   5.851   0.643  0.7258 -0.7171 -0.6340
  924TIP3    H224408   0.380   5.821   0.699  1.2699 -1.0705  0.5333
  925TIP3   OH224409   3.866   0.397   0.923 -0.1580  0.0528 -0.2261
  925TIP3    H124410   3.933   0.378   0.989  0.2657  0.1865 -0.6137
  925TIP3    H224411   3.903   0.362   0.841 -0.5212  0.2103 -0.4563
  926TIP3   OH224412   2.905   1.889   8.229 -0.2190  0.0496  0.2364
  926TIP3    H124413   2.854   1.818   8.191 -0.5992  0.5651 -0.2176
  926TIP3    H224414   2.840   1.951   8.261  0.0585  1.7612 -2.2784
  927TIP3   OH224415   4.166   5.212   1.157  0.2966 -0.0402  1.0765
  927TIP3    H124416   4.091   5.176   1.204  0.9699 -1.1851  1.3038
  927TIP3    H224417   4.164   5.306   1.177  0.1777 -0.3903  2.8573
  928TIP3   OH224418   4.288   4.968   1.371  0.2724 -0.1863  0.1600
  928TIP3    H124419   4.366   4.930   1.412  0.1023 -1.7156 -0.8548
  928TIP3    H224420   4.322   5.017   1.296  0.3329  0.0220  0.3222
  929TIP3   OH224421   5.615   1.618   2.473 -0.5019  1.0262  0.3285
  929TIP3    H124422   5.709   1.634   2.467 -0.3871  0.6318  0.9927
  929TIP3    H224423   5.577   1.704   2.493 -0.1232  0.9260  1.5571
  930TIP3   OH224424   0.041   3.674   8.359 -0.2395 -0.2513  0.4314
  930TIP3    H124425   0.114   3.731   8.335 -1.4950  0.7289 -1.3445
  930TIP3    H224426  -0.011   3.727   8.420  0.2439 -0.7506  1.2898
  931TIP3   OH224427   5.573   0.710   8.483 -0.1891 -0.2405  0.8899
  931TIP3    H124428   5.587   0.726   8.389 -0.7354 -1.3367  0.6020
  931TIP3    H224429   5.661   0.695   8.518  0.0138  0.1128  0.5406
  932TIP3   OH224430   1.995   3.721   7.348  0.4402 -0.1373  0.0548
  932TIP3    H124431   2.038   3.637   7.329  1.0418  0.4150 -1.1311
  932TIP3    H224432   2.065   3.777   7.381  0.3437  0.3088 -0.4669
  933TIP3   OH224433   6.173   4.538   2.110 -0.0727 -0.1362  0.5817
  933TIP3    H124434   6.131   4.471   2.164  1.2603 -1.2243  0.3311
  933TIP3    H224435   6.111   4.552   2.038  0.2485 -2.2584 -0.1937
  934TIP3   OH224436   3.907   4.995   1.558  0.4342 -0.2903  0.1263
  934TIP3    H124437   3.914   5.034   1.470 -1.4867 -0.4491 -0.1240
  934TIP3    H224438   3.826   5.030   1.594  0.8648 -0.7425  1.6037
  935TIP3   OH224439   0.395   1.030   0.305 -0.1685 -0.0352  0.4485
  935TIP3    H124440   0.365   1.046   0.215 -2.2441 -2.1155  0.6566
  935TIP3    H224441   0.489   1.012   0.296 -0.1111  0.8652 -1.1256
  936TIP3   OH224442   4.322   0.891   8.441  1.1640  0.7112 -0.2390
  936TIP3    H124443   4.379   0.969   8.448 -0.1652  2.2370 -3.9815
  936TIP3    H224444   4.350   0.848   8.360  0.0772 -1.2498  0.3616
  937TIP3   OH224445   3.192   5.530   2.035  0.4753  0.0661 -0.4567
  937TIP3    H124446   3.177   5.563   2.124  2.4314 -0.0930 -0.0236
  937TIP3    H224447   3.286   5.539   2.022  0.2379 -0.0696 -2.4779
  938TIP3   OH224448   2.724   1.432   2.985 -0.1459  0.2295  0.0205
  938TIP3    H124449   2.798   1.443   2.926 -0.0302 -0.4163  0.0344
  938TIP3    H224450   2.655   1.489   2.949  0.6204  1.4867  0.4816
  939TIP3   OH224451   6.295   6.005   0.196  0.2673  0.4024  0.2121
  939TIP3    H124452   6.284   5.913   0.171  1.8962  0.0200  0.7793
  939TIP3    H224453   6.271   6.054   0.118 -1.8182 -0.4172  0.2702
  940TIP3   OH224454   6.052   6.852   8.027 -0.6507 -0.0909 -0.0796
  940TIP3    H124455   6.053   6.769   8.075 -3.4514 -1.2726 -1.8326
  940TIP3    H224456   6.098   6.834   7.945  0.0567  0.5734  0.1558
  941TIP3   OH224457   5.762   5.055   7.226 -0.5174  0.7177  0.1841
  941TIP3    H124458   5.805   5.016   7.149  2.9601 -0.8301  2.6479
  941TIP3    H224459   5.819   5.127   7.252 -0.9457  0.4459  1.9881
  942TIP3   OH224460   5.627   1.341   7.180  0.5072 -0.2549 -0.0908
  942TIP3    H124461   5.677   1.420   7.200  1.5981 -0.5063 -1.6927
  942TIP3    H224462   5.693   1.274   7.165 -0.4023 -1.3848  0.7856
  943TIP3   OH224463   5.973   4.743   7.421 -0.4088 -0.0931 -0.1235
  943TIP3    H124464   5.956   4.760   7.329 -1.3264 -0.0397  0.0441
  943TIP3    H224465   5.891   4.766   7.465 -0.3617 -1.1730  0.5735
  944TIP3   OH224466   5.761   6.796   0.452  0.0847 -0.2322  0.2466
  944TIP3    H124467   5.703   6.870   0.467  0.6841  0.1262  0.8356
  944TIP3    H224468   5.710   6.737   0.396  0.2793  1.4628 -1.8500
  945TIP3   OH224469   3.826   5.571   8.498  0.1765 -0.1181 -0.4974
  945TIP3    H124470   3.919   5.585   8.485  0.2921 -0.6382 -0.2604
  945TIP3    H224471   3.790   5.659   8.510  0.6845  0.0662 -0.2762
  946TIP3   OH224472   1.699   6.219   7.239  0.0870  0.4319  0.1880
  946TIP3    H124473   1.774   6.276   7.259 -0.7741  1.0229  2.0067
  946TIP3    H224474   1.623   6.275   7.255 -0.7664 -0.1188 -1.7474
  947TIP3   OH224475   0.111   4.102   0.328 -0.0472  0.1782 -0.0332
  947TIP3    H124476   0.122   4.023   0.275  4.1439  0.1236  0.5306
  947TIP3    H224477   0.156   4.081   0.410 -0.9061  2.3668  1.0560
  948TIP3   OH224478   4.486   0.682   1.345  0.3084 -0.1549 -0.0531
  948TIP3    H124479   4.410   0.710   1.397 -0.1043 -2.8609  0.9895
  948TIP3    H224480   4.452   0.673   1.256 -0.6922 -1.4206  0.4169
  949TIP3   OH224481   4.196   0.494   2.493 -0.0091 -0.9848 -0.2555
  949TIP3    H124482   4.143   0.455   2.562 -0.8178 -2.3271 -1.5771
  949TIP3    H224483   4.156   0.579   2.476  1.9430  0.7435  2.8668
  950TIP3   OH224484   1.138   3.440   2.635  0.1619  0.1778 -0.0078
  950TIP3    H124485   1.138   3.518   2.691 -0.0912  0.3318 -0.2226
  950TIP3    H224486   1.048   3.408   2.639  0.0128  0.4819 -0.7346
  951TIP3   OH224487   3.611   2.385   8.139  0.0451  0.2419  0.1920
  951TIP3    H124488   3.586   2.396   8.047  2.1903  0.2414 -0.4491
  951TIP3    H224489   3.547   2.323   8.174 -1.3227  0.8916 -1.0522
  952TIP3   OH224490   6.850   0.837   2.142 -0.0485 -0.2988 -0.5915
  952TIP3    H124491   6.817   0.843   2.232 -0.6256 -1.9252 -0.6754
  952TIP3    H224492   6.775   0.860   2.087  0.0261 -0.2803 -0.6862
  953TIP3   OH224493   0.972   3.691   3.001 -0.2156  0.7222 -0.6723
  953TIP3    H124494   0.902   3.643   3.046  0.2038  0.3362 -0.4309
  953TIP3    H224495   1.045   3.630   2.997  0.1247  1.1374 -0.8955
  954TIP3   OH224496   1.020   5.161   1.135  0.3477 -0.2612 -0.3949
  954TIP3    H124497   1.001   5.208   1.054  1.8033 -0.6312 -0.9876
  954TIP3    H224498   0.973   5.078   1.126  1.8961 -1.0692 -1.7274
  955TIP3   OH224499   5.456   3.785   0.349  0.1767 -0.0263 -0.2269
  955TIP3    H124500   5.403   3.777   0.429 -0.5520 -3.0220 -0.8650
  955TIP3    H224501   5.425   3.866   0.308 -0.0835  1.0980  2.0280
  956TIP3   OH224502   0.478   6.201   0.114  0.0059  0.0608 -0.1153
  956TIP3    H124503   0.474   6.184   0.020  0.6379  1.0246 -0.3299
  956TIP3    H224504   0.397   6.163   0.148 -0.7669  0.6389 -1.2127
  957TIP3   OH224505   0.228   6.455   7.015  0.0868 -0.4521  0.4611
  957TIP3    H124506   0.274   6.372   7.006 -1.5658 -1.1681 -3.3005
  957TIP3    H224507   0.232   6.495   6.928 -1.8183  1.9367  1.3434
  958TIP3   OH224508   4.861   6.076   2.156  0.5908  0.4796 -0.8004
  958TIP3    H124509   4.858   6.145   2.222 -1.9573  2.2289 -2.5051
  958TIP3    H224510   4.895   6.120   2.077  2.4820 -1.2420 -1.0244
  959TIP3   OH224511   6.425   1.393   1.942 -0.3642  0.3009 -0.3474
  959TIP3    H124512   6.335   1.395   1.909 -0.5788  0.2505  0.2247
  959TIP3    H224513   6.423   1.326   2.011 -0.9780  3.2779  2.8013
  960TIP3   OH224514   5.669   3.353   2.109  0.5142  0.8097 -0.2404
  960TIP3    H124515   5.581   3.357   2.072  0.5472  0.3660 -0.3812
  960TIP3    H224516   5.724   3.322   2.036  0.5897 -0.0286  0.1518
  961TIP3   OH224517   3.066   3.871   1.265  0.2744 -0.5448 -0.1005
  961TIP3    H124518   3.077   3.963   1.287 -2.8891  0.3207 -1.5519
  961TIP3    H224519   3.010   3.836   1.334 -2.4145 -0.0461 -1.8580
  962TIP3   OH224520   5.496   6.325   2.487  0.2065 -0.0383 -0.0183
  962TIP3    H124521   5.422   6.288   2.536 -0.6162  1.3271 -0.1869
  962TIP3    H224522   5.572   6.278   2.521 -0.9439 -3.9914 -2.1988
  963TIP3   OH224523   6.254   5.684   1.191 -0.3314 -0.2467  0.3717
  963TIP3    H124524   6.219   5.614   1.136  2.5784 -1.8476  0.3657
  963TIP3    H224525   6.295   5.744   1.128 -0.6232  0.1423  0.5505
  964TIP3   OH224526   0.450   6.720   1.535 -0.0157 -0.1728 -0.1335
  964TIP3    H124527   0.529   6.773   1.526 -0.0537 -0.2568 -1.1799
  964TIP3    H224528   0.455   6.682   1.622 -0.0126  1.5815  0.6796
  965TIP3   OH224529   1.709   5.413   7.133 -0.2411  0.0054 -0.1441
  965TIP3    H124530   1.782   5.435   7.190 -0.8896 -0.6428  0.9891
  965TIP3    H224531   1.640   5.475   7.157 -1.4031 -1.8577  1.6882
  966TIP3   OH224532   0.923   4.968   7.208 -0.1471 -0.8313  0.1942
  966TIP3    H124533   1.002   4.947   7.157  0.1125 -0.6152  0.5008
  966TIP3    H224534   0.883   4.883   7.226  1.2115 -1.1518  1.9282
  967TIP3   OH224535   4.516   6.058   0.412 -0.1224  0.3327  0.1764
  967TIP3    H124536   4.485   6.148   0.411 -0.1322  0.3364  0.5249
  967TIP3    H224537   4.535   6.037   0.320  2.5679  1.6104  0.3431
  968TIP3   OH224538   0.169   6.493   2.178 -0.0540  0.0018 -0.7992
  968TIP3    H124539   0.214   6.551   2.240 -2.8451 -0.3368  1.7537
  968TIP3    H224540   0.200   6.405   2.201 -0.9974 -0.1118  0.1433
  969TIP3   OH224541   2.932   6.592   0.215 -0.7859  0.0028 -0.0541
  969TIP3    H124542   2.939   6.513   0.161  0.4825 -0.2942  0.5280
  969TIP3    H224543   2.946   6.664   0.153 -0.9171 -0.2641 -0.3988
  970TIP3   OH224544   2.102   4.160   7.218  0.3988 -0.4640  0.2038
  970TIP3    H124545   2.059   4.103   7.155  0.6284  0.3535 -0.7138
  970TIP3    H224546   2.053   4.242   7.213  2.4726  0.7737 -1.4619
  971TIP3   OH224547   2.352   0.689   1.046  0.2657 -0.4240 -0.5893
  971TIP3    H124548   2.334   0.613   1.100  1.7432 -0.9801 -0.8461
  971TIP3    H224549   2.447   0.692   1.038  0.2894  1.7764 -0.1242
  972TIP3   OH224550   4.639   5.390   1.869  0.1965  0.0459 -0.0662
  972TIP3    H124551   4.687   5.324   1.919 -0.2050 -0.2952 -0.1281
  972TIP3    H224552   4.700   5.419   1.801 -0.5176 -2.2531 -1.7936
  973TIP3   OH224553   0.567   2.089   2.625 -0.1960 -0.0922 -0.0583
  973TIP3    H124554   0.501   2.154   2.648  2.7318  2.6345  1.3971
  973TIP3    H224555   0.565   2.026   2.697  0.0920  1.0928  1.0198
  974TIP3   OH224556   5.034   2.681   8.166 -0.1752 -0.0599 -0.1524
  974TIP3    H124557   5.014   2.770   8.196  0.4458 -0.2437  0.8613
  974TIP3    H224558   5.117   2.690   8.119  1.5214 -0.4960  2.4969
  975TIP3   OH224559   4.728   6.847   2.056  0.1375  0.6690 -0.1525
  975TIP3    H124560   4.799   6.869   1.996 -0.6637  1.3098 -0.8968
  975TIP3    H224561   4.651   6.890   2.019 -1.0290 -1.4899 -0.3552
  976TIP3   OH224562   2.446   0.362   8.171 -0.0566  0.4142  0.2982
  976TIP3    H124563   2.456   0.270   8.196 -1.5360  0.4923  1.2859
  976TIP3    H224564   2.533   0.400   8.185  0.3682 -0.6500  0.6633
  977TIP3   OH224565   5.365   5.030   1.801 -0.0369  0.1394 -0.4917
  977TIP3    H124566   5.436   5.089   1.830  0.1583  1.6013 -3.5939
  977TIP3    H224567   5.289   5.057   1.853  1.0956 -0.0172  1.3667
  978TIP3   OH224568   3.143   6.673   2.180 -0.3632 -0.4233 -0.2437
  978TIP3    H124569   3.100   6.744   2.132 -0.9070 -0.0271  0.7778
  978TIP3    H224570   3.071   6.630   2.227  0.1326 -0.8614  0.1220
  979TIP3   OH224571   3.318   6.336   7.151  0.3540 -0.0825  0.3462
  979TIP3    H124572   3.413   6.336   7.140  0.2435  2.1055 -1.0531
  979TIP3    H224573   3.290   6.423   7.124 -1.9418 -0.2052  2.0071
  980TIP3   OH224574   0.475   1.591   0.126 -0.1526 -0.1174 -0.0798
  980TIP3    H124575   0.392   1.562   0.164 -0.7323 -0.3255 -1.4374
  980TIP3    H224576   0.484   1.683   0.153  0.1966 -0.6436  1.7356
  981TIP3   OH224577   3.860   3.002   8.086 -0.4552 -0.1605  0.1325
  981TIP3    H124578   3.811   2.922   8.069 -1.0814  0.3485 -0.5220
  981TIP3    H224579   3.917   3.012   8.010 -0.7193  0.2702 -0.0070
  982TIP3   OH224580   6.649   1.421   2.687 -0.2073  0.0375  0.2016
  982TIP3    H124581   6.672   1.352   2.749 -1.0262 -0.7889 -0.3880
  982TIP3    H224582   6.554   1.416   2.679 -0.1214  0.0479 -1.1796
  983TIP3   OH224583   0.418   6.733   0.072  0.8514 -0.7266 -0.0019
  983TIP3    H124584   0.334   6.775   0.056  1.0583 -0.1878  0.2984
  983TIP3    H224585   0.396   6.650   0.114  0.5468  1.1102  3.8903
  984TIP3   OH224586   2.371   5.414   1.880  0.5990  0.0273 -0.1041
  984TIP3    H124587   2.343   5.485   1.822  2.5099  0.0586 -1.0534
  984TIP3    H224588   2.407   5.458   1.956  1.3797  0.0810 -0.4982
  985TIP3   OH224589   5.277   2.931   2.322 -0.2267 -0.1129 -0.2993
  985TIP3    H124590   5.185   2.948   2.302 -1.2416 -0.9616  3.0033
  985TIP3    H224591   5.301   3.000   2.384  1.1103 -0.4178 -0.4476
  986TIP3   OH224592   4.072   1.665   7.205 -0.5188  0.7392  0.2544
  986TIP3    H124593   4.077   1.571   7.223  1.8714  0.8546  0.6334
  986TIP3    H224594   4.007   1.673   7.136 -0.2394 -1.3019 -0.3307
  987TIP3   OH224595   3.047   2.339   1.180 -0.0209 -0.1832 -0.2406
  987TIP3    H124596   3.012   2.376   1.099 -1.2802 -1.9363 -0.5381
  987TIP3    H224597   2.982   2.360   1.247 -0.8690 -1.9439 -0.4549
  988TIP3   OH224598   4.941   1.525   0.153 -0.2758  0.2042  0.0461
  988TIP3    H124599   4.865   1.575   0.183 -1.4678 -2.0996  1.1770
  988TIP3    H224600   4.910   1.434   0.150  2.2685 -0.7401 -0.0878
  989TIP3   OH224601   4.537   3.977   7.760  0.4163  0.2274  0.2075
  989TIP3    H124602   4.473   3.941   7.822  1.0635 -1.7069 -0.1894
  989TIP3    H224603   4.488   3.991   7.679  0.7658 -2.8728 -0.6377
  990TIP3   OH224604   1.311   2.952   7.752  0.2044  0.2903  0.2683
  990TIP3    H124605   1.331   2.982   7.664 -2.2737  0.3103 -0.3638
  990TIP3    H224606   1.296   3.032   7.802  2.7971  0.3344  1.0974
  991TIP3   OH224607   4.063   2.590   8.235  0.6620 -0.6868 -0.8412
  991TIP3    H124608   4.038   2.516   8.179  0.4160 -1.0455 -0.2619
  991TIP3    H224609   4.015   2.576   8.316  0.9955 -0.1521 -0.5485
  992TIP3   OH224610   6.143   1.570   0.929  0.1691 -0.5243  0.7783
  992TIP3    H124611   6.106   1.641   0.878  1.6611 -0.0734  0.2748
  992TIP3    H224612   6.130   1.492   0.875  0.5044 -0.2730  0.3294
  993TIP3   OH224613   3.091   1.457   7.505 -0.3700  0.8892  0.1447
  993TIP3    H124614   3.099   1.452   7.410 -1.1226 -0.2067  0.1237
  993TIP3    H224615   2.997   1.465   7.521 -0.3860 -0.3989  0.8335
  994TIP3   OH224616   4.624   3.482   1.691 -0.3979 -0.1960  0.2695
  994TIP3    H124617   4.636   3.576   1.675 -0.6442 -0.0291  1.0232
  994TIP3    H224618   4.694   3.460   1.752 -1.0101 -0.2579  0.9586
  995TIP3   OH224619   4.290   5.425   0.756 -0.1161 -0.1207 -0.0876
  995TIP3    H124620   4.259   5.500   0.706 -0.0992 -0.2617 -0.3088
  995TIP3    H224621   4.271   5.448   0.847  1.6551  1.0258  0.0513
  996TIP3   OH224622   1.560   2.653   1.943 -0.7141 -0.3276 -0.1606
  996TIP3    H124623   1.618   2.717   1.985 -0.2816 -1.0594  0.3671
  996TIP3    H224624   1.472   2.690   1.953 -0.5948 -0.3674  1.1744
  997TIP3   OH224625   1.509   4.140   2.288 -0.3687  0.2792  0.1987
  997TIP3    H124626   1.520   4.119   2.195  0.1995 -0.9136  0.5153
  997TIP3    H224627   1.458   4.221   2.288 -1.2851 -0.2669 -1.1234
  998TIP3   OH224628   1.056   2.602   8.204 -0.2810  0.4893  0.7798
  998TIP3    H124629   1.148   2.578   8.194 -0.4602  0.4046 -1.2258
  998TIP3    H224630   1.028   2.623   8.115 -2.4134 -0.2223  1.2324
  999TIP3   OH224631   0.706   5.325   2.020 -0.1400 -0.3990 -0.1755
  999TIP3    H124632   0.783   5.378   1.997  0.1827 -0.2085  1.2526
  999TIP3    H224633   0.735   5.272   2.094 -1.3730 -0.3528  0.3585
 1000TIP3   OH224634   4.978   3.796   7.420  0.0528  0.2522  0.2134
 1000TIP3    H124635   5.058   3.773   7.374  0.5395  1.3392  0.4763
 1000TIP3    H224636   4.949   3.878   7.379  0.7140  1.4586  2.0151
 1001TIP3   OH224637   5.181   4.818   2.650  0.0506  0.5167 -0.4391
 1001TIP3    H124638   5.209   4.902   2.614  1.1814 -0.3205 -1.5825
 1001TIP3    H224639   5.094   4.835   2.685 -0.4411  1.7776 -2.1516
 1002TIP3   OH224640   4.392   4.386   1.935  0.5231  0.1934 -0.0590
 1002TIP3    H124641   4.460   4.318   1.931  1.0753  0.6771  0.8142
 1002TIP3    H224642   4.353   4.386   1.847 -0.6054 -2.3518  0.3620
 1003TIP3   OH224643   2.558   1.122   7.446  0.0891  0.4711 -0.2318
 1003TIP3    H124644   2.645   1.121   7.485  0.1489  0.1486 -0.3701
 1003TIP3    H224645   2.509   1.056   7.495  0.3473 -0.4017 -1.1005
 1004TIP3   OH224646   0.654   0.870   1.123  0.1471 -0.1754  0.2559
 1004TIP3    H124647   0.707   0.808   1.172 -1.4054 -1.9773 -0.2370
 1004TIP3    H224648   0.672   0.851   1.031  1.7640  2.0523  0.0355
 1005TIP3   OH224649   5.254   1.290   2.295 -0.1340  0.6813  0.5026
 1005TIP3    H124650   5.318   1.300   2.366  0.2561 -2.8731  0.8221
 1005TIP3    H224651   5.173   1.265   2.340  0.1018 -1.5579 -0.2299
 1006TIP3   OH224652   3.803   2.113   7.387 -0.1548  0.0494  0.1237
 1006TIP3    H124653   3.761   2.136   7.304 -2.0589 -3.2064  0.0283
 1006TIP3    H224654   3.731   2.103   7.449  1.1383  1.1316  1.8943
 1007TIP3   OH224655   0.648   6.842   7.589 -0.4787  0.1499 -0.4679
 1007TIP3    H124656   0.636   6.853   7.683 -0.2548 -0.4198 -0.3711
 1007TIP3    H224657   0.652   6.931   7.555 -2.0556  0.3752 -0.1327
 1008TIP3   OH224658   1.665   1.721   2.493  0.3646 -0.0605 -0.2328
 1008TIP3    H124659   1.605   1.699   2.564  1.0028 -0.8277  0.0847
 1008TIP3    H224660   1.731   1.651   2.494  0.2023 -0.2796 -1.7921
 1009TIP3   OH224661   4.157   4.672   2.340  0.1420 -0.0341  0.4912
 1009TIP3    H124662   4.175   4.579   2.356 -0.5526 -0.1709  0.5327
 1009TIP3    H224663   4.084   4.671   2.277  0.3111  0.4862  0.2846
 1010TIP3   OH224664   0.767   2.896   8.508  0.4019  0.4886 -0.0241
 1010TIP3    H124665   0.819   2.896   8.428 -0.1142  1.2346 -0.3751
 1010TIP3    H224666   0.678   2.915   8.478  0.4390  2.2867  0.8551
 1011TIP3   OH224667   0.873   2.006   2.241 -1.0193 -0.3440 -0.0785
 1011TIP3    H124668   0.935   2.071   2.209 -1.4793  1.3515  2.2257
 1011TIP3    H224669   0.788   2.034   2.207 -1.3264  0.7607  1.4934
 1012TIP3   OH224670   6.046   3.529   0.115 -0.0420 -0.5666  0.8951
 1012TIP3    H124671   6.037   3.563   0.026  0.9297 -0.2108  0.9108
 1012TIP3    H224672   6.032   3.605   0.172 -0.7973 -0.8203  1.0638
 1013TIP3   OH224673   4.123   5.597   8.483 -0.1114 -0.4546 -0.1773
 1013TIP3    H124674   4.150   5.526   8.424 -0.7023  0.5341 -1.6713
 1013TIP3    H224675   4.180   5.670   8.460 -0.6573  0.0850  0.1742
 1014TIP3   OH224676   1.442   5.572   7.332 -0.2072 -0.1854 -1.2087
 1014TIP3    H124677   1.388   5.628   7.387 -0.3165 -1.0938 -0.3563
 1014TIP3    H224678   1.406   5.582   7.244  0.0979  1.4537 -1.1780
 1015TIP3   OH224679   4.482   3.485   8.242  0.9061  0.0540  0.4212
 1015TIP3    H124680   4.403   3.482   8.187  1.2580 -1.0013 -0.0446
 1015TIP3    H224681   4.450   3.516   8.327 -0.4776 -2.6023  0.9880
 1016TIP3   OH224682   1.841   0.682   1.693 -0.0375 -0.7093  0.3740
 1016TIP3    H124683   1.816   0.772   1.672  0.3482 -1.0364 -1.7098
 1016TIP3    H224684   1.758   0.636   1.704 -0.3173 -0.7043 -1.4750
 1017TIP3   OH224685   4.030   2.362   0.078 -0.0938 -0.0409  0.2627
 1017TIP3    H124686   4.076   2.306   0.140 -0.9130  0.0754  0.9950
 1017TIP3    H224687   4.009   2.305   0.004 -1.5073 -0.9030  1.2849
 1018TIP3   OH224688   5.517   6.126   6.896  0.5214  0.3964 -0.3221
 1018TIP3    H124689   5.572   6.199   6.866  0.0354  0.3484 -1.3916
 1018TIP3    H224690   5.561   6.048   6.860  1.9453 -0.0381  2.1504
 1019TIP3   OH224691   5.613   0.345   2.094 -0.3966 -0.4008  0.3139
 1019TIP3    H124692   5.653   0.275   2.043  0.1525  0.7881 -0.9379
 1019TIP3    H224693   5.686   0.390   2.136 -0.8347 -1.4439  2.3788
 1020TIP3   OH224694   6.423   5.344   1.136 -0.5661  0.0172 -0.7081
 1020TIP3    H124695   6.347   5.288   1.152 -1.0504  0.3664 -1.6984
 1020TIP3    H224696   6.449   5.375   1.223 -0.5714 -1.3558 -0.1899
 1021TIP3   OH224697   6.533   6.155   0.294 -0.6233 -0.2960 -0.2634
 1021TIP3    H124698   6.515   6.249   0.297 -1.0936 -0.3996  0.4843
 1021TIP3    H224699   6.462   6.118   0.242 -1.8302 -0.5117  1.4254
 1022TIP3   OH224700   1.921   2.409   0.689  0.7231 -0.1456  0.6073
 1022TIP3    H124701   1.984   2.346   0.654  0.0294 -0.7099  0.3470
 1022TIP3    H224702   1.837   2.363   0.685 -0.0414  1.2702 -0.8732
 1023TIP3   OH224703   2.088   1.614   0.215  0.2393 -0.5640 -0.0468
 1023TIP3    H124704   2.086   1.584   0.305  0.0779  0.4962  0.3164
 1023TIP3    H224705   2.002   1.654   0.200  1.1771  1.7358  0.2342
 1024TIP3   OH224706   4.338   0.820   1.914 -0.4486 -0.6241  0.0890
 1024TIP3    H124707   4.270   0.825   1.981 -0.5496  0.8423 -0.0829
 1024TIP3    H224708   4.332   0.904   1.868  1.2342 -0.6121 -0.1676
 1025TIP3   OH224709   5.700   5.699   0.154  0.1469 -0.2498 -0.1383
 1025TIP3    H124710   5.684   5.645   0.077  0.1456  1.2304 -1.2300
 1025TIP3    H224711   5.792   5.683   0.176  0.0480 -0.9519 -0.2245
 1026TIP3   OH224712   5.109   1.283   0.658 -0.1150  0.3807  0.1245
 1026TIP3    H124713   5.182   1.305   0.716  0.7431  0.9367 -1.1192
 1026TIP3    H224714   5.117   1.345   0.585 -2.1210  0.7592  0.1707
 1027TIP3   OH224715   6.820   2.683   1.002 -0.0906 -0.3117  0.0168
 1027TIP3    H124716   6.898   2.712   0.955 -1.1875 -0.2620 -1.8904
 1027TIP3    H224717   6.792   2.761   1.050 -1.0913  0.9546 -2.3854
 1028TIP3   OH224718   3.705   1.140   8.130  0.3489  0.2738 -0.3127
 1028TIP3    H124719   3.789   1.187   8.126  0.0952  0.7764  0.1654
 1028TIP3    H224720   3.654   1.187   8.195  0.8687 -1.9292  1.8194
 1029TIP3   OH224721   3.616   3.192   7.401  0.1613 -0.5506  0.2242
 1029TIP3    H124722   3.644   3.150   7.320 -0.5677 -0.7566  0.0631
 1029TIP3    H224723   3.530   3.228   7.380  0.3877  0.2393  0.6301
 1030TIP3   OH224724   5.721   0.911   0.615  0.0160  0.6589  0.0591
 1030TIP3    H124725   5.642   0.925   0.563  0.4821  3.6996 -0.0146
 1030TIP3    H224726   5.788   0.888   0.551 -0.6555 -1.5149  0.0757
 1031TIP3   OH224727   3.581   6.769   8.453 -0.1963 -0.5755  0.2614
 1031TIP3    H124728   3.641   6.695   8.447  0.3627 -0.0755 -0.3722
 1031TIP3    H224729   3.619   6.826   8.519  0.3597  0.0427 -0.5887
 1032TIP3   OH224730   0.232   3.534   1.918 -0.7963 -0.4087  0.0031
 1032TIP3    H124731   0.233   3.531   1.822  0.1804  0.2636 -0.0213
 1032TIP3    H224732   0.162   3.474   1.943  1.0791 -3.2136 -1.0371
 1033TIP3   OH224733   2.886   6.261   2.492 -0.2869  0.3688  0.1158
 1033TIP3    H124734   2.947   6.187   2.502 -0.7807  0.0547  0.9228
 1033TIP3    H224735   2.830   6.235   2.419 -0.1812  0.1472  0.1118
 1034TIP3   OH224736   3.000   4.357   2.147 -0.1462  0.4484  0.4517
 1034TIP3    H124737   3.024   4.448   2.131  1.1503 -0.0219 -0.4739
 1034TIP3    H224738   3.022   4.342   2.239 -1.2199  1.2987  0.8673
 1035TIP3   OH224739   4.582   0.221   1.820  0.0957  0.6703 -0.2308
 1035TIP3    H124740   4.662   0.273   1.815 -0.0032  0.7355 -1.2544
 1035TIP3    H224741   4.511   0.283   1.800 -0.1670  0.4903  0.1186
 1036TIP3   OH224742   0.677   3.492   1.803  0.1979 -0.0666 -0.1351
 1036TIP3    H124743   0.617   3.545   1.751 -0.8227 -0.4935  0.5797
 1036TIP3    H224744   0.749   3.551   1.825 -0.1323  0.5567 -0.6959
 1037TIP3   OH224745   2.285   6.939   7.108  0.4175 -0.1733  0.6414
 1037TIP3    H124746   2.265   6.848   7.130 -2.1347  0.5058  1.5031
 1037TIP3    H224747   2.219   6.963   7.043  0.4357  1.3216  1.1303
 1038TIP3   OH224748   4.452   4.922   1.012  0.7171 -0.2644  0.3108
 1038TIP3    H124749   4.467   4.938   1.105 -0.1441  1.9015  0.1132
 1038TIP3    H224750   4.538   4.893   0.979  1.6681  1.2797  1.3091
 1039TIP3   OH224751   5.821   0.153   2.059 -0.1907 -0.1668 -0.1407
 1039TIP3    H124752   5.883   0.138   2.131  0.4018  0.4118 -0.5204
 1039TIP3    H224753   5.805   0.066   2.023  1.3646 -0.2171 -0.8118
 1040TIP3   OH224754   5.353   0.270   0.918  0.1991  0.1436 -0.0719
 1040TIP3    H124755   5.448   0.277   0.904  0.1137 -1.6398 -1.9042
 1040TIP3    H224756   5.319   0.356   0.892  0.8959 -0.5872 -4.0437
 1041TIP3   OH224757   1.299   2.742   0.833  0.0416  0.1470 -0.0762
 1041TIP3    H124758   1.287   2.736   0.927  0.8328 -0.3431  0.0137
 1041TIP3    H224759   1.348   2.823   0.819 -0.9067  0.7182 -0.1718
 1042TIP3   OH224760   4.747   4.025   1.984  0.2761 -0.2142 -0.2013
 1042TIP3    H124761   4.772   4.073   1.905  1.3681 -0.4022  0.0202
 1042TIP3    H224762   4.830   4.000   2.025 -0.2663 -1.2918  0.2928
 1043TIP3   OH224763   1.969   0.725   1.276  0.2008 -0.2375 -0.6380
 1043TIP3    H124764   1.977   0.639   1.317 -1.3014  0.5380  1.4027
 1043TIP3    H224765   1.996   0.787   1.343 -0.4872  0.9994 -1.4585
 1044TIP3   OH224766   0.420   0.430   8.056 -0.2917 -0.8050 -0.2875
 1044TIP3    H124767   0.330   0.455   8.074 -0.7707 -0.9788 -2.2413
 1044TIP3    H224768   0.431   0.444   7.962  1.7187 -0.8012 -0.1018
 1045TIP3   OH224769   1.820   4.439   8.014 -0.5959  0.1307  0.3720
 1045TIP3    H124770   1.907   4.462   8.047 -0.6016  1.8166 -0.6658
 1045TIP3    H224771   1.763   4.507   8.049 -1.0241  0.5222 -1.0063
 1046TIP3   OH224772   2.203   1.154   3.212 -0.3545  0.0680 -0.3726
 1046TIP3    H124773   2.219   1.132   3.121  0.2905  2.2916 -0.8446
 1046TIP3    H224774   2.249   1.086   3.262 -1.2090 -1.5073 -1.6579
 1047TIP3   OH224775   4.326   4.539   0.584 -0.3389  0.2081 -0.3762
 1047TIP3    H124776   4.238   4.575   0.577 -0.1456  0.7496 -0.0960
 1047TIP3    H224777   4.345   4.504   0.497 -1.9374 -2.5760  0.2731
 1048TIP3   OH224778   1.832   3.700   0.681 -0.3309  0.2728 -0.6430
 1048TIP3    H124779   1.781   3.703   0.600 -0.4117  0.3309 -0.5889
 1048TIP3    H224780   1.778   3.651   0.743  0.8432 -2.2114 -1.4239
 1049TIP3   OH224781   6.868   6.057   7.890  0.0521  0.3061  0.4334
 1049TIP3    H124782   6.903   6.113   7.959  1.2882  0.3339 -0.1928
 1049TIP3    H224783   6.872   6.111   7.811 -1.4029  0.2965  0.3240
 1050TIP3   OH224784   5.639   0.158   0.534  0.5404  0.2971 -0.1315
 1050TIP3    H124785   5.645   0.253   0.526  0.7404  0.2253 -0.8711
 1050TIP3    H224786   5.547   0.142   0.555  0.6587  0.6968  0.7343
 1051TIP3   OH224787   2.630   3.520   2.159  0.1403  0.2949  0.4619
 1051TIP3    H124788   2.588   3.463   2.094 -0.3451  1.8163 -0.6220
 1051TIP3    H224789   2.563   3.534   2.225  0.2595 -0.3855  0.7264
 1052TIP3   OH224790   6.758   2.960   2.046 -0.0110  0.2310 -0.3871
 1052TIP3    H124791   6.676   2.943   2.092  0.5883 -2.2276 -0.0826
 1052TIP3    H224792   6.822   2.978   2.116  0.4611 -1.4932 -0.3397
 1053TIP3   OH224793   2.795   3.605   1.497  0.2695  0.6010  0.1771
 1053TIP3    H124794   2.713   3.612   1.450  1.0039 -0.9985 -1.4582
 1053TIP3    H224795   2.782   3.657   1.576 -2.3157  0.3303  0.0116
 1054TIP3   OH224796   0.720   0.955   7.290 -0.1714  0.3964  0.3074
 1054TIP3    H124797   0.769   0.987   7.214  0.0528  1.5317  0.8949
 1054TIP3    H224798   0.638   0.921   7.254 -0.0579  0.8952 -0.4429
 1055TIP3   OH224799   1.024   3.024   7.337  0.0396 -0.0983 -1.0687
 1055TIP3    H124800   0.982   3.036   7.251 -2.6316  2.8291  0.4139
 1055TIP3    H224801   1.090   3.093   7.341 -0.9848  0.8662 -0.2242
 1056TIP3   OH224802   1.542   2.481   0.266 -0.0219 -0.4041 -0.2519
 1056TIP3    H124803   1.473   2.481   0.199 -0.5357  2.6094  0.1460
 1056TIP3    H224804   1.618   2.519   0.222  1.1442 -2.7029 -0.3683
 1057TIP3   OH224805   2.833   1.787   7.487  0.2804 -0.6364  0.2042
 1057TIP3    H124806   2.829   1.692   7.480 -0.1353 -0.6454  0.4950
 1057TIP3    H224807   2.895   1.814   7.419 -1.3631 -0.9282 -1.4773
 1058TIP3   OH224808   3.454   5.257   0.880 -0.5658  0.0201  0.3156
 1058TIP3    H124809   3.377   5.215   0.920 -1.7636  0.4835 -1.3705
 1058TIP3    H224810   3.513   5.186   0.860 -0.9604 -0.4541  0.8022
 1059TIP3   OH224811   5.479   0.695   2.101  0.8462  0.4693 -0.2178
 1059TIP3    H124812   5.437   0.610   2.113  0.7094  0.4845 -0.5725
 1059TIP3    H224813   5.470   0.713   2.007  1.1581  0.7260 -0.2005
 1060TIP3   OH224814   3.066   4.993   7.069 -0.2549  0.0524 -0.4974
 1060TIP3    H124815   3.096   4.916   7.118 -0.8777 -0.4420 -0.8697
 1060TIP3    H224816   3.018   4.956   6.995  0.1305  0.8013 -1.1247
 1061TIP3   OH224817   5.635   5.520   8.453 -0.0402  0.1312  0.4138
 1061TIP3    H124818   5.592   5.447   8.411  0.4757  0.3771 -0.5626
 1061TIP3    H224819   5.729   5.500   8.447  0.0880  0.7053  0.4327
 1062TIP3   OH224820   5.846   3.804   7.650 -0.5028 -0.3371  0.7191
 1062TIP3    H124821   5.782   3.824   7.717 -1.9469 -0.7635 -0.4858
 1062TIP3    H224822   5.813   3.725   7.606 -0.3672  0.6755 -1.3607
 1063TIP3   OH224823   4.549   2.965   0.500  0.3851  0.2425  0.3256
 1063TIP3    H124824   4.643   2.970   0.512  0.5021  0.7487 -0.7295
 1063TIP3    H224825   4.537   2.919   0.417 -0.3229 -0.4859  0.8047
 1064TIP3   OH224826   4.349   1.061   1.812 -0.3247 -0.6219 -0.9988
 1064TIP3    H124827   4.276   1.072   1.750  0.5241 -0.2012 -1.9577
 1064TIP3    H224828   4.342   1.136   1.871  0.5388  0.6156 -2.3950
 1065TIP3   OH224829   1.493   1.017   6.910  0.1040  0.3925  0.1772
 1065TIP3    H124830   1.433   1.028   6.836  1.2353 -1.8089 -1.1802
 1065TIP3    H224831   1.579   1.035   6.873  0.5087  1.3923  1.5502
 1066TIP3   OH224832   1.425   3.796   0.404 -0.4664  0.0595  0.0738
 1066TIP3    H124833   1.478   3.864   0.362 -0.2369  0.7338  1.3997
 1066TIP3    H224834   1.484   3.758   0.470 -1.0341 -0.4709  0.2820
 1067TIP3   OH224835   3.403   3.908   2.056  0.0480 -0.1459  0.0830
 1067TIP3    H124836   3.461   3.839   2.087 -0.2869 -0.5225 -0.1091
 1067TIP3    H224837   3.432   3.986   2.101 -1.6123 -1.0047  2.9217
 1068TIP3   OH224838   3.838   6.879   6.976 -0.0762  0.2904  0.0284
 1068TIP3    H124839   3.926   6.845   6.966 -0.4182 -0.5471 -0.1750
 1068TIP3    H224840   3.812   6.907   6.889 -0.5022 -0.6961 -0.1710
 1069TIP3   OH224841   6.498   6.722   0.970  0.2405 -0.1349 -0.8656
 1069TIP3    H124842   6.506   6.722   1.065  1.4337  0.7667 -0.9392
 1069TIP3    H224843   6.405   6.707   0.953  0.0412 -0.4985  0.4250
 1070TIP3   OH224844   4.344   2.884   7.187  0.0070 -0.0920 -0.4597
 1070TIP3    H124845   4.421   2.828   7.185 -1.8266 -2.7955 -0.5280
 1070TIP3    H224846   4.374   2.964   7.230  2.7481 -1.1182 -0.2505
 1071TIP3   OH224847   1.490   2.010   2.930  0.0520 -0.4353 -0.3139
 1071TIP3    H124848   1.537   1.996   3.012  0.5945 -0.0652 -0.5589
 1071TIP3    H224849   1.510   2.101   2.906  1.5827 -1.1368 -1.9080
 1072TIP3   OH224850   2.622   0.411   0.380 -1.0338  0.1901  0.2436
 1072TIP3    H124851   2.614   0.485   0.320  0.9288  0.3786  0.1625
 1072TIP3    H224852   2.686   0.439   0.445  2.0585 -2.3829 -1.4106
 1073TIP3   OH224853   4.220   6.028   1.649  0.4674  0.4055  0.6223
 1073TIP3    H124854   4.241   6.116   1.620 -0.0778  0.5068  0.5212
 1073TIP3    H224855   4.237   6.029   1.744  1.6834  0.2412  0.4203
 1074TIP3   OH224856   0.723   3.326   1.105 -0.2214 -0.7518 -0.2088
 1074TIP3    H124857   0.731   3.396   1.170 -0.3343 -2.0648  1.2835
 1074TIP3    H224858   0.801   3.334   1.051  0.5405 -0.4134  0.9049
 1075TIP3   OH224859   5.035   4.652   1.966  0.2328 -0.5930 -0.1106
 1075TIP3    H124860   4.959   4.620   2.013 -0.2544  2.3433  1.3031
 1075TIP3    H224861   5.107   4.648   2.029  0.6049 -0.7208 -0.5333
 1076TIP3   OH224862   6.701   0.597   2.099 -0.1715  0.0787 -0.0327
 1076TIP3    H124863   6.710   0.528   2.165  1.0916  1.1222  0.9465
 1076TIP3    H224864   6.774   0.657   2.117 -0.4879  1.0074 -1.6556
 1077TIP3   OH224865   6.072   5.885   1.792 -0.2302 -0.2524  0.9343
 1077TIP3    H124866   6.058   5.850   1.880  0.2747 -3.1996 -0.0606
 1077TIP3    H224867   6.136   5.954   1.804 -3.1681  2.4049  3.3723
 1078TIP3   OH224868   4.782   3.895   7.891 -0.5365 -0.0769 -0.0467
 1078TIP3    H124869   4.689   3.901   7.869 -0.6164  0.3807  0.3850
 1078TIP3    H224870   4.784   3.891   7.987 -0.0504  1.7624  0.0682
 1079TIP3   OH224871   2.930   3.659   2.525 -0.2314 -0.1585  0.3275
 1079TIP3    H124872   2.859   3.670   2.461  0.5720  0.9830 -0.4076
 1079TIP3    H224873   2.960   3.748   2.542  0.4239 -0.5638  1.3311
 1080TIP3   OH224874   5.409   4.495   0.520 -0.7080 -0.1519 -0.2592
 1080TIP3    H124875   5.341   4.428   0.515  0.2628 -1.2074  0.0911
 1080TIP3    H224876   5.474   4.468   0.455  0.6049 -0.6627  1.1847
 1081TIP3   OH224877   4.787   3.982   2.299  0.2623  0.0949  0.0028
 1081TIP3    H124878   4.718   3.949   2.242  1.7107  0.5093 -2.0723
 1081TIP3    H224879   4.748   4.060   2.340 -1.8087 -1.8229  1.9710
 1082TIP3   OH224880   0.020   4.280   1.257 -0.3095 -0.2607 -0.4428
 1082TIP3    H124881   0.044   4.238   1.174 -0.5106  1.4841 -1.4185
 1082TIP3    H224882   0.052   4.220   1.324 -0.7822 -2.0802 -1.7670
 1083TIP3   OH224883   2.616   3.619   0.137  0.2482  0.4158 -0.0371
 1083TIP3    H124884   2.655   3.613   0.050  0.5454  0.9886  0.0506
 1083TIP3    H224885   2.623   3.711   0.160  0.3495  0.2377  0.6757
 1084TIP3   OH224886   4.437   3.974   2.609 -0.2383 -0.4839  0.1105
 1084TIP3    H124887   4.475   4.038   2.550  2.4212 -1.4955  0.5864
 1084TIP3    H224888   4.406   4.025   2.684  1.8136  0.3112  0.4786
 1085TIP3   OH224889   2.653   5.318   0.457  0.5250 -0.4221  0.4725
 1085TIP3    H124890   2.614   5.386   0.512  1.1178  0.4462 -0.1493
 1085TIP3    H224891   2.582   5.256   0.440  0.2835 -0.6254  2.0699
 1086TIP3   OH224892   2.589   0.282   2.211 -0.0178  0.0025  0.1279
 1086TIP3    H124893   2.494   0.281   2.224  0.0610  0.4290  0.8256
 1086TIP3    H224894   2.607   0.368   2.172  0.0735 -0.1132 -0.0865
 1087TIP3   OH224895   3.231   0.636   2.057  0.1102  1.2557  0.0432
 1087TIP3    H124896   3.192   0.601   1.977 -0.2423  1.7051  0.0130
 1087TIP3    H224897   3.313   0.676   2.028  0.9118 -0.2302  0.1999
 1088TIP3   OH224898   5.282   0.983   1.129 -0.0663 -0.2505 -0.0648
 1088TIP3    H124899   5.229   1.062   1.116 -0.5714 -0.5056  0.3689
 1088TIP3    H224900   5.258   0.954   1.217 -0.5134 -1.3576 -0.5432
 1089TIP3   OH224901   5.927   4.325   1.108 -0.5557  0.2795  0.3182
 1089TIP3    H124902   5.857   4.262   1.122  0.0212 -0.7245 -1.1162
 1089TIP3    H224903   5.902   4.401   1.161 -1.8496 -0.6908  1.1561
 1090TIP3   OH224904   6.800   3.417   8.066 -0.3859 -0.6388 -0.5871
 1090TIP3    H124905   6.786   3.411   7.972 -0.5984 -0.4632 -0.5671
 1090TIP3    H224906   6.870   3.354   8.084  0.8349  0.5264 -1.1219
 1091TIP3   OH224907   5.196   2.448   8.366  0.1951 -0.2714  0.0113
 1091TIP3    H124908   5.176   2.384   8.298 -0.1295  0.1850 -0.3353
 1091TIP3    H224909   5.123   2.510   8.361  0.8707  0.5250 -0.1550
 1092TIP3   OH224910   6.739   2.356   0.751 -0.3579  0.0269 -0.0613
 1092TIP3    H124911   6.724   2.282   0.811 -0.1008  0.0764  0.0649
 1092TIP3    H224912   6.652   2.393   0.737 -0.2804  0.8030  1.3031
 1093TIP3   OH224913   6.247   1.356   8.203 -0.0443  0.6057  0.3631
 1093TIP3    H124914   6.298   1.287   8.161  0.0839  0.0853  1.3256
 1093TIP3    H224915   6.161   1.353   8.160  0.2065  0.3638 -0.1231
 1094TIP3   OH224916   0.520   6.743   0.679  0.4302  0.0212 -0.4470
 1094TIP3    H124917   0.559   6.675   0.733 -0.4721  1.6073  2.4333
 1094TIP3    H224918   0.428   6.717   0.671  0.6409 -0.4144 -1.6489
 1095TIP3   OH224919   0.222   2.561   1.250  0.3075  0.3851 -0.0783
 1095TIP3    H124920   0.197   2.612   1.327 -0.2752 -0.9728  0.6757
 1095TIP3    H224921   0.210   2.470   1.277 -0.0204 -0.1228 -1.8279
 1096TIP3   OH224922   5.622   0.444   7.647  0.3449 -0.0038 -0.4433
 1096TIP3    H124923   5.605   0.407   7.561 -0.9060  0.3457 -0.3625
 1096TIP3    H224924   5.586   0.532   7.643  2.5203  0.9584 -0.3534
 1097TIP3   OH224925   4.602   5.164   0.344  0.3167 -0.5420 -0.3826
 1097TIP3    H124926   4.563   5.140   0.259 -0.5898 -0.5566  0.0217
 1097TIP3    H224927   4.529   5.160   0.406  0.9919 -0.6378  0.4255
 1098TIP3   OH224928   0.131   5.384   0.395  0.0739 -0.0881  0.0638
 1098TIP3    H124929   0.088   5.348   0.317 -2.9697  2.4279  0.3671
 1098TIP3    H224930   0.171   5.466   0.364  1.9794 -0.7910  0.5122
 1099TIP3   OH224931   1.430   1.142   2.603 -0.1756  0.3136 -0.4947
 1099TIP3    H124932   1.374   1.193   2.661 -0.7221  0.0840 -0.8135
 1099TIP3    H224933   1.407   1.051   2.622 -0.0405  0.2219 -0.7643
 1100TIP3   OH224934   1.584   2.025   7.594 -0.4476  0.1720  0.5495
 1100TIP3    H124935   1.586   1.979   7.678 -1.1126 -2.5037 -0.7948
 1100TIP3    H224936   1.498   2.005   7.558 -0.3908  1.7434 -0.5525
 1101TIP3   OH224937   0.133   0.541   2.094 -0.0098  0.2260 -0.1875
 1101TIP3    H124938   0.110   0.592   2.172  0.2901  1.5280 -0.9204
 1101TIP3    H224939   0.145   0.606   2.025  1.0389 -0.7875 -1.0107
 1102TIP3   OH224940   5.372   0.048   0.606  0.1927 -0.4397 -0.1659
 1102TIP3    H124941   5.335   0.035   0.519 -1.7784  0.2218  0.5122
 1102TIP3    H224942   5.301   0.024   0.666  0.8185  1.0134  1.2353
 1103TIP3   OH224943   3.787   5.052   7.785  0.0754 -0.2624  0.2141
 1103TIP3    H124944   3.765   4.996   7.710 -0.2238  0.3467 -0.1559
 1103TIP3    H224945   3.840   5.122   7.748 -0.8627  0.5648  0.3946
 1104TIP3   OH224946   5.780   2.021   2.864 -0.5399  0.5407 -0.2975
 1104TIP3    H124947   5.759   1.931   2.842  0.1414 -0.7375  3.5273
 1104TIP3    H224948   5.694   2.064   2.869 -0.9209 -0.0371 -1.4860
 1105TIP3   OH224949   2.050   2.175   1.700  0.5459  0.1873 -0.3561
 1105TIP3    H124950   1.991   2.221   1.760  2.4633  3.7861 -0.9480
 1105TIP3    H224951   2.129   2.230   1.697  2.7335 -2.7484 -1.9728
 1106TIP3   OH224952   1.953   5.088   2.168 -0.3878  0.4795 -0.1962
 1106TIP3    H124953   1.908   5.061   2.248 -1.0686  1.6772 -0.1487
 1106TIP3    H224954   2.024   5.145   2.199  0.2530 -0.2012 -0.3727
 1107TIP3   OH224955   5.495   5.253   0.071  0.3015  0.2811 -0.3434
 1107TIP3    H124956   5.589   5.238   0.061  0.6781  1.8066  0.6150
 1107TIP3    H224957   5.479   5.339   0.030 -0.4524  0.5638  0.4941
 1108TIP3   OH224958   0.195   3.874   7.654 -0.3792 -0.1876 -0.3226
 1108TIP3    H124959   0.177   3.817   7.729 -0.0352  0.3890  0.2116
 1108TIP3    H224960   0.282   3.910   7.672 -0.0876 -0.4163 -1.2449
 1109TIP3   OH224961   3.389   5.296   2.110 -0.7255  0.6784  0.0058
 1109TIP3    H124962   3.449   5.328   2.177 -2.1723  1.6836  0.8775
 1109TIP3    H224963   3.304   5.292   2.154 -1.7431  1.5013 -1.8013
 1110TIP3   OH224964   6.533   6.580   8.287 -0.1614  0.3340 -0.4370
 1110TIP3    H124965   6.532   6.543   8.375 -1.3470 -1.5437 -1.1648
 1110TIP3    H224966   6.576   6.665   8.296  0.3690 -0.1237  1.8062
 1111TIP3   OH224967   0.957   1.394   0.650 -0.0687 -0.4227  0.1327
 1111TIP3    H124968   0.954   1.486   0.624 -1.9653 -0.5605 -0.2845
 1111TIP3    H224969   0.888   1.385   0.716 -0.5786 -1.7453 -0.5397
 1112TIP3   OH224970   6.312   0.231   0.149 -0.1945 -0.1266 -0.3303
 1112TIP3    H124971   6.217   0.219   0.158  0.1638 -2.2606  1.3347
 1112TIP3    H224972   6.334   0.191   0.065 -0.8551  1.3038 -1.2269
 1113TIP3   OH224973   1.206   2.875   0.251  0.2052  0.1259  0.0483
 1113TIP3    H124974   1.212   2.814   0.178 -0.5970 -0.4459  0.4537
 1113TIP3    H224975   1.207   2.820   0.329 -0.7171  0.6064  0.4154
 1114TIP3   OH224976   2.755   0.258   6.884  0.0926  0.0272  0.7789
 1114TIP3    H124977   2.699   0.246   6.961 -1.0479 -0.8024 -0.1383
 1114TIP3    H224978   2.776   0.169   6.857 -2.2731  0.1133 -1.7743
 1115TIP3   OH224979   4.902   0.725   1.975 -0.5660  0.0407 -0.2875
 1115TIP3    H124980   4.877   0.680   2.056 -1.4676 -0.5573 -0.8853
 1115TIP3    H224981   4.945   0.657   1.923  0.2296  0.4858 -0.2288
 1116TIP3   OH224982   5.751   6.414   1.524 -0.0686 -0.9107 -0.3691
 1116TIP3    H124983   5.730   6.363   1.602 -1.6700 -1.5544 -1.1624
 1116TIP3    H224984   5.798   6.490   1.556 -0.1932 -1.4505  1.1573
 1117TIP3   OH224985   0.021   1.699   1.142 -0.0502 -0.4978 -0.0280
 1117TIP3    H124986   0.000   1.661   1.057  0.1212 -1.4173  0.3294
 1117TIP3    H224987   0.112   1.726   1.135 -0.3427  0.4173 -0.4777
 1118TIP3   OH224988   3.069   6.129   0.012  0.2006 -0.6671  0.2630
 1118TIP3    H124989   3.019   6.106  -0.066 -0.4046  0.0971  0.4108
 1118TIP3    H224990   3.147   6.174  -0.021  0.6304 -1.5644  0.0455
 1119TIP3   OH224991   1.554   1.828   7.782 -0.1144  0.1864 -0.3018
 1119TIP3    H124992   1.577   1.782   7.701  0.6603 -0.1356  0.0884
 1119TIP3    H224993   1.462   1.808   7.796 -0.7131  1.5605 -1.9534
 1120TIP3   OH224994   4.470   2.483   1.923 -0.0953 -0.2088 -0.1796
 1120TIP3    H124995   4.540   2.473   1.988 -0.6426  0.0902  0.4650
 1120TIP3    H224996   4.444   2.394   1.903  0.5798 -0.3313 -0.5479
 1121TIP3   OH224997   4.256   6.275   1.575 -0.5116  0.3626 -0.0345
 1121TIP3    H124998   4.275   6.342   1.508  1.1568 -0.1956 -0.1748
 1121TIP3    H224999   4.302   6.306   1.653 -2.2242  0.8688  0.8255
 1122TIP3   OH225000   6.152   4.087   0.300 -0.0396 -0.3358 -0.2729
 1122TIP3    H125001   6.169   4.017   0.363 -3.1525 -0.6483  0.3748
 1122TIP3    H225002   6.105   4.154   0.349  1.1993  1.4065 -1.3383
 1123TIP3   OH225003   1.184   2.710   0.462  0.3825 -0.1039 -0.3899
 1123TIP3    H125004   1.248   2.642   0.437 -0.1417 -0.1386 -1.7512
 1123TIP3    H225005   1.236   2.775   0.509  1.2654 -0.5385 -0.7249
 1124TIP3   OH225006   3.414   2.465   8.446 -0.4923  0.0168 -0.4112
 1124TIP3    H125007   3.329   2.469   8.403 -0.5727 -0.1072 -0.2662
 1124TIP3    H225008   3.466   2.407   8.391 -0.2029  0.8280 -1.0104
 1125TIP3   OH225009   4.975   3.824   1.532  0.1399  0.2289 -0.4058
 1125TIP3    H125010   5.046   3.884   1.506  0.7290 -0.2700  0.0247
 1125TIP3    H225011   5.020   3.747   1.565 -0.5856  0.4687  1.2413
 1126TIP3   OH225012   1.314   4.771   0.967  0.3939 -0.1489 -0.0039
 1126TIP3    H125013   1.323   4.765   1.062  0.7846 -0.8414 -0.0814
 1126TIP3    H225014   1.402   4.755   0.934 -0.3457 -3.6329 -0.6331
 1127TIP3   OH225015   0.641   5.972   0.757  0.0036 -0.1525 -0.1314
 1127TIP3    H125016   0.601   6.058   0.761 -2.0139 -0.9456 -1.6085
 1127TIP3    H225017   0.686   5.971   0.672 -1.2807 -1.0311 -0.8345
 1128TIP3   OH225018   2.520   6.149   0.763 -0.1442 -0.2309  0.0505
 1128TIP3    H125019   2.476   6.191   0.837  2.5463  2.2591  0.4181
 1128TIP3    H225020   2.607   6.127   0.797 -0.0400 -2.3491 -1.4148
 1129TIP3   OH225021   5.396   1.513   0.469 -0.2459  0.5944  0.2429
 1129TIP3    H125022   5.316   1.524   0.417 -1.0435 -1.7482  0.8465
 1129TIP3    H225023   5.466   1.509   0.405 -1.0479 -0.7692 -0.6095
 1130TIP3   OH225024   5.583   4.035   7.568  0.2977  0.2300  0.1230
 1130TIP3    H125025   5.505   3.982   7.551  1.8666 -2.1774 -0.0940
 1130TIP3    H225026   5.624   3.991   7.643  1.0474  1.9421  0.7541
 1131TIP3   OH225027   1.193   4.737   7.787  1.1256 -0.2257 -0.0784
 1131TIP3    H125028   1.178   4.667   7.724  1.1334  0.0559 -0.3934
 1131TIP3    H225029   1.154   4.814   7.747  1.6690  0.0833 -0.0195
 1132TIP3   OH225030   1.758   3.131   1.016  0.5768  1.1179  0.0849
 1132TIP3    H125031   1.682   3.189   1.017 -0.9295 -0.7503  0.1790
 1132TIP3    H225032   1.743   3.074   0.941  1.2861 -0.0365  0.7959
 1133TIP3   OH225033   4.081   2.146   6.631  0.4011  0.2524 -0.1423
 1133TIP3    H125034   3.986   2.151   6.625  0.4436 -0.1436 -1.5826
 1133TIP3    H225035   4.098   2.085   6.703 -0.3683  2.0274  1.6358
 1134TIP3   OH225036   1.593   4.332   0.622 -0.2141  0.6993 -0.2522
 1134TIP3    H125037   1.627   4.422   0.626  1.4175  0.0881  0.5476
 1134TIP3    H225038   1.524   4.330   0.688 -1.2392  1.7121 -1.2390
 1135TIP3   OH225039   1.969   5.019   2.455  0.0043 -0.3901  0.5807
 1135TIP3    H125040   1.932   4.937   2.423 -1.4168 -0.8105  3.0312
 1135TIP3    H225041   1.894   5.078   2.462  0.8640  0.8518 -0.2876
 1136TIP3   OH225042   3.950   4.126   0.384  0.0188  0.3265 -0.2179
 1136TIP3    H125043   3.990   4.050   0.426  0.9229  0.7538 -0.2766
 1136TIP3    H225044   3.900   4.168   0.454  0.7816  0.5257  0.2245
 1137TIP3   OH225045   0.011   5.816   8.178 -0.3240  0.7815 -0.1331
 1137TIP3    H125046   0.076   5.885   8.189  1.5242 -1.1270  2.0017
 1137TIP3    H225047   0.006   5.774   8.264 -0.3593 -2.5456 -1.6135
 1138TIP3   OH225048   5.746   0.423   8.087  0.1485  0.3345  0.0798
 1138TIP3    H125049   5.822   0.365   8.090  0.4093  0.5905 -1.0098
 1138TIP3    H225050   5.733   0.451   8.178  0.6848 -0.5614  0.4422
 1139TIP3   OH225051   4.026   4.842   0.272  0.2935 -0.1864 -0.1031
 1139TIP3    H125052   4.042   4.890   0.191 -0.4027 -0.3136 -0.3259
 1139TIP3    H225053   3.935   4.814   0.265 -0.0012  0.4107  1.0389
 1140TIP3   OH225054   3.161   6.939   0.902  0.1030 -0.1433 -0.2488
 1140TIP3    H125055   3.239   6.995   0.896 -0.7448  1.2306  0.9240
 1140TIP3    H225056   3.162   6.906   0.991  0.4777 -1.8936 -0.8722
 1141TIP3   OH225057   3.450   1.352   0.607 -0.3539 -0.1848  0.5439
 1141TIP3    H125058   3.388   1.337   0.535  2.3371 -0.6300 -1.8961
 1141TIP3    H225059   3.398   1.342   0.686 -2.8618 -3.2081 -1.2381
 1142TIP3   OH225060   3.614   6.075   2.610  0.2255 -0.5262  0.2237
 1142TIP3    H125061   3.609   6.058   2.515 -0.1279 -1.5529  0.4083
 1142TIP3    H225062   3.527   6.107   2.633  0.6515  0.8547  0.0205
 1143TIP3   OH225063   1.359   4.167   7.177 -0.3748 -0.6826  0.0715
 1143TIP3    H125064   1.371   4.162   7.272 -1.4439 -1.0715  0.2003
 1143TIP3    H225065   1.412   4.095   7.143  0.9021  0.1355  0.2664
 1144TIP3   OH225066   0.527   4.136   2.360  0.5415  0.1529  0.1727
 1144TIP3    H125067   0.549   4.101   2.447 -0.2855  1.2011  0.8191
 1144TIP3    H225068   0.567   4.223   2.359  1.5525 -0.2935 -0.9672
 1145TIP3   OH225069   0.173   6.797   7.392 -0.3472  0.3965 -0.0552
 1145TIP3    H125070   0.140   6.732   7.330  0.8582  2.5657 -3.2656
 1145TIP3    H225071   0.269   6.787   7.388 -0.2485  0.4475  1.6744
 1146TIP3   OH225072   6.729   5.351   8.215 -0.3019 -0.9114 -0.6785
 1146TIP3    H125073   6.699   5.334   8.305 -1.0727  2.1457 -0.2522
 1146TIP3    H225074   6.666   5.414   8.180  1.2245 -0.3491 -2.5987
 1147TIP3   OH225075   6.353   0.121   1.385 -0.4358 -0.3757 -0.2264
 1147TIP3    H125076   6.375   0.034   1.351  2.2659  0.7340 -1.6578
 1147TIP3    H225077   6.434   0.172   1.375 -0.9581  1.5186  3.3290
 1148TIP3   OH225078   1.478   1.586   7.636  0.4739 -0.7464  0.1389
 1148TIP3    H125079   1.404   1.624   7.684 -0.9300 -3.3506  0.2020
 1148TIP3    H225080   1.488   1.642   7.560  0.0606  1.0914  1.3660
 1149TIP3   OH225081   4.485   5.321   1.431 -0.4055  0.5379  0.2918
 1149TIP3    H125082   4.482   5.243   1.486  0.5270  0.7633  0.6765
 1149TIP3    H225083   4.486   5.287   1.342 -0.1180  0.1124  0.4545
 1150TIP3   OH225084   1.047   2.823   0.812  0.0823  0.0920  0.7514
 1150TIP3    H125085   1.007   2.783   0.889  0.9588  0.8063  1.5980
 1150TIP3    H225086   1.124   2.768   0.794 -1.4864 -1.6407 -1.2327
 1151TIP3   OH225087   6.922   0.046   0.151 -0.4408  0.1762 -0.5291
 1151TIP3    H125088   6.830   0.020   0.156 -0.5787  0.7030 -0.3101
 1151TIP3    H225089   6.970  -0.037   0.145 -0.5959 -0.4465  3.6640
 1152TIP3   OH225090   6.143   1.378   1.168  1.0673 -0.6763 -1.0938
 1152TIP3    H125091   6.186   1.299   1.135  0.0482 -0.8137 -2.1296
 1152TIP3    H225092   6.179   1.449   1.114 -0.2236 -0.8372 -2.2152
 1153TIP3   OH225093   2.876   1.413   2.740  0.0823 -0.7525 -0.0646
 1153TIP3    H125094   2.893   1.503   2.767  4.4496 -0.9372 -1.3434
 1153TIP3    H225095   2.886   1.414   2.645 -0.3546 -2.5191 -0.1608
 1154TIP3   OH225096   4.981   0.836   7.554  0.1661 -0.6136 -0.3000
 1154TIP3    H125097   5.011   0.860   7.466 -1.2351  0.3580 -0.5504
 1154TIP3    H225098   4.900   0.786   7.539  0.0991 -0.7271  0.4199
 1155TIP3   OH225099   6.480   0.467   7.892  0.1877 -0.6328  0.0003
 1155TIP3    H125100   6.407   0.441   7.948 -0.1909  0.5201  0.0735
 1155TIP3    H225101   6.524   0.385   7.870 -0.4196 -1.2256  0.9309
 1156TIP3   OH225102   6.881   0.415   1.922 -0.1288 -0.3034  0.0470
 1156TIP3    H125103   6.940   0.449   1.988  1.5906  0.8973 -1.9768
 1156TIP3    H225104   6.852   0.492   1.874 -2.1863 -1.0329  0.0269
 1157TIP3   OH225105   2.381   6.947   1.966  0.3000 -0.5966  0.4624
 1157TIP3    H125106   2.422   6.879   2.020 -0.6338 -2.0011 -0.5057
 1157TIP3    H225107   2.421   6.936   1.880  0.8174  0.7347  0.5188
 1158TIP3   OH225108   3.053   2.463   1.596  0.2199  0.3766  0.2210
 1158TIP3    H125109   3.016   2.538   1.549 -0.8094 -1.6793 -2.6246
 1158TIP3    H225110   3.147   2.476   1.593  0.1368  0.9097 -1.5898
 1159TIP3   OH225111   1.582   1.036   0.767 -0.1717  0.7171 -0.0134
 1159TIP3    H125112   1.661   1.030   0.712 -0.2768  0.3019 -0.1192
 1159TIP3    H225113   1.605   0.988   0.847 -0.0387  1.2745  0.2878
 1160TIP3   OH225114   6.493   6.645   1.472 -0.0031  0.3618 -0.1123
 1160TIP3    H125115   6.564   6.612   1.416  1.0911  0.7550  0.9853
 1160TIP3    H225116   6.536   6.666   1.555 -1.1617  1.9396  0.1383
 1161TIP3   OH225117   1.810   1.594   8.515 -0.4560 -0.1818 -0.2947
 1161TIP3    H125118   1.796   1.500   8.503  1.7508 -0.8503  1.6311
 1161TIP3    H225119   1.845   1.624   8.430  0.1552 -1.4113 -0.5015
 1162TIP3   OH225120   4.734   4.989   1.942 -0.2861  0.1191  0.6684
 1162TIP3    H125121   4.741   4.899   1.912 -0.5731  0.9322 -2.1647
 1162TIP3    H225122   4.650   4.992   1.989 -0.5328 -0.9737  0.3271
 1163TIP3   OH225123   0.805   4.984   2.401  0.1365 -0.0072  0.0779
 1163TIP3    H125124   0.883   5.035   2.426 -0.4279  0.5822  0.6577
 1163TIP3    H225125   0.731   5.035   2.434 -0.5223 -0.3808 -0.7800
 1164TIP3   OH225126   6.572   1.478   1.101  0.3008  0.4515 -0.0127
 1164TIP3    H125127   6.540   1.460   1.013 -2.4842 -0.5779  1.1197
 1164TIP3    H225128   6.585   1.392   1.141  0.6589  0.9020  0.8862
 1165TIP3   OH225129   0.708   0.314   0.766  0.4874 -0.2642  0.3056
 1165TIP3    H125130   0.759   0.368   0.825  0.0566 -1.1228  1.5054
 1165TIP3    H225131   0.653   0.261   0.824 -2.3656  1.1462 -0.8901
 1166TIP3   OH225132   5.427   5.559   6.964 -0.2738  0.3709 -0.2004
 1166TIP3    H125133   5.517   5.549   6.997 -0.1433 -0.1957 -0.7167
 1166TIP3    H225134   5.393   5.470   6.957 -1.5605  0.6468  1.7825
 1167TIP3   OH225135   0.844   3.534   3.172 -0.4702 -0.4235  0.1594
 1167TIP3    H125136   0.749   3.543   3.178 -0.6473 -2.0091  0.2580
 1167TIP3    H225137   0.860   3.441   3.186  1.0373 -0.3238 -0.6862
 1168TIP3   OH225138   1.128   3.145   1.246  0.1491 -0.2930 -0.7443
 1168TIP3    H125139   1.200   3.123   1.305 -0.6317 -0.2119  0.2840
 1168TIP3    H225140   1.126   3.074   1.182  0.6635 -0.6885 -0.3319
 1169TIP3   OH225141   0.744   6.137   0.222  0.9139 -0.2054  0.6293
 1169TIP3    H125142   0.782   6.134   0.134  1.6584 -1.3909  0.9772
 1169TIP3    H225143   0.649   6.136   0.206  0.9552  2.4327 -0.2251
 1170TIP3   OH225144   4.305   6.696   7.451 -0.1099  0.2394 -0.6670
 1170TIP3    H125145   4.381   6.753   7.445  0.6092 -0.7609 -1.3600
 1170TIP3    H225146   4.319   6.648   7.533  0.7435 -0.9156 -1.4477
 1171TIP3   OH225147   1.755   4.238   0.319 -0.1875  0.4383 -0.0173
 1171TIP3    H125148   1.835   4.238   0.267 -1.7393  0.2085 -2.6264
 1171TIP3    H225149   1.745   4.327   0.351  1.0393  0.4817  0.2580
 1172TIP3   OH225150   2.575   4.770   7.635 -0.1915 -0.6971  0.4295
 1172TIP3    H125151   2.567   4.751   7.541 -2.0621 -3.1017  0.9739
 1172TIP3    H225152   2.666   4.797   7.646  0.2271 -0.8735 -1.9749
 1173TIP3   OH225153   0.922   4.056   7.187 -0.4422 -0.0272  0.0885
 1173TIP3    H125154   0.884   4.057   7.099 -0.3609 -1.4356  0.0174
 1173TIP3    H225155   0.849   4.034   7.245 -0.1722 -0.6981  0.1847
 1174TIP3   OH225156   5.038   5.868   1.669  0.0861  0.0074  0.0947
 1174TIP3    H125157   4.991   5.804   1.616 -1.9851  1.5486 -0.0332
 1174TIP3    H225158   5.009   5.853   1.759 -0.8355  1.0578 -0.0031
 1175TIP3   OH225159   3.411   4.396   1.346 -0.0489 -0.3546  0.4634
 1175TIP3    H125160   3.463   4.449   1.406  0.6761 -1.9612  1.3212
 1175TIP3    H225161   3.457   4.401   1.263  1.3048 -1.4256  1.1095
 1176TIP3   OH225162   3.595   0.004   0.516  0.2582 -0.0168  0.2366
 1176TIP3    H125163   3.570  -0.086   0.536  1.1787 -0.4512 -0.4574
 1176TIP3    H225164   3.600   0.048   0.601  1.6635 -1.1353  0.7564
 1177TIP3   OH225165   5.420   0.909   0.056  0.3397  0.3482 -0.5320
 1177TIP3    H125166   5.484   0.843   0.028  0.8020  1.2999 -1.8198
 1177TIP3    H225167   5.463   0.954   0.129 -0.5677 -1.6628  1.3474
 1178TIP3   OH225168   6.380   1.420   2.715  0.6198  0.1718 -0.3252
 1178TIP3    H125169   6.356   1.460   2.631  0.5963 -0.9162 -0.8528
 1178TIP3    H225170   6.391   1.494   2.774 -0.8989  0.8896 -0.8893
 1179TIP3   OH225171   1.409   5.129   1.347 -0.0774  0.3117 -0.2632
 1179TIP3    H125172   1.401   5.137   1.252  0.7847  1.2155 -0.2813
 1179TIP3    H225173   1.503   5.116   1.362 -0.4294 -1.9835  0.3567
 1180TIP3   OH225174   6.798   1.089   1.580  0.1637 -0.0138  0.0383
 1180TIP3    H125175   6.849   1.166   1.606 -0.9031  0.4779  0.7402
 1180TIP3    H225176   6.861   1.033   1.534  1.3340  0.5651  0.8825
 1181TIP3   OH225177   3.224   5.011   1.504 -0.1100 -1.0851 -0.4181
 1181TIP3    H125178   3.222   5.106   1.515 -0.5861 -1.0025 -1.1320
 1181TIP3    H225179   3.136   4.982   1.525  0.7322 -1.7493  2.6493
 1182TIP3   OH225180   6.434   4.131   2.778  0.0161 -0.1533 -0.1020
 1182TIP3    H125181   6.378   4.191   2.827 -2.4088 -2.0574 -0.3274
 1182TIP3    H225182   6.377   4.093   2.711  1.5771 -2.1786 -0.4134
 1183TIP3   OH225183   2.033   1.588   1.044  0.7210  0.0155 -0.0740
 1183TIP3    H125184   2.033   1.522   0.975  1.4071  1.0536 -1.0993
 1183TIP3    H225185   1.943   1.622   1.044  0.5794 -0.3597 -0.0970
 1184TIP3   OH225186   6.008   2.960   8.130  0.2588  0.1451 -0.0466
 1184TIP3    H125187   6.004   3.045   8.085 -0.5927 -0.0309 -0.3159
 1184TIP3    H225188   6.036   2.982   8.219  0.5944  0.6442 -0.2692
 1185TIP3   OH225189   1.761   2.636   0.154 -0.4633 -0.1564 -0.2026
 1185TIP3    H125190   1.850   2.603   0.153 -0.8171 -1.1374 -0.8157
 1185TIP3    H225191   1.754   2.688   0.075 -0.2497  0.4660  0.1796
 1186TIP3   OH225192   2.535   0.501   0.068  0.5689  0.1692 -0.1643
 1186TIP3    H125193   2.457   0.447   0.055  1.9533 -1.3489 -3.0802
 1186TIP3    H225194   2.607   0.438   0.069  1.9004  1.6383  1.1707
 1187TIP3   OH225195   1.596   5.180   7.598 -0.2209  0.1302 -0.0571
 1187TIP3    H125196   1.639   5.096   7.582  0.2969 -0.0870  2.1139
 1187TIP3    H225197   1.600   5.225   7.514  2.2243 -0.8087 -0.5345
 1188TIP3   OH225198   2.811   3.786   2.755  0.2124  0.3701 -0.3616
 1188TIP3    H125199   2.831   3.813   2.845 -0.7428  1.1310 -0.3580
 1188TIP3    H225200   2.889   3.810   2.705 -0.0859  1.9606 -0.1154
 1189TIP3   OH225201   4.617   4.900   8.420 -0.4385 -0.1364 -0.1294
 1189TIP3    H125202   4.688   4.879   8.360 -0.4368 -0.6915  0.0562
 1189TIP3    H225203   4.592   4.815   8.457 -1.2980  0.0346 -0.3071
 1190TIP3   OH225204   3.568   6.359   1.839 -0.1628  0.5909  0.2596
 1190TIP3    H125205   3.570   6.391   1.929 -1.5336  0.9005  0.2137
 1190TIP3    H225206   3.477   6.374   1.811  0.5564  1.8060 -1.6315
 1191TIP3   OH225207   6.029   4.576   8.106  0.0993  0.1020 -0.4399
 1191TIP3    H125208   6.042   4.484   8.081 -0.3753 -0.2072  0.3931
 1191TIP3    H225209   6.106   4.598   8.158 -0.2382 -0.1308  0.1688
 1192TIP3   OH225210   4.434   0.148   7.715 -0.4766 -0.0606 -0.8097
 1192TIP3    H125211   4.415   0.123   7.806 -1.1107 -2.0666 -1.4378
 1192TIP3    H225212   4.460   0.240   7.720 -0.2456 -0.1989  1.4313
 1193TIP3   OH225213   3.564   1.189   7.429 -0.1175 -0.4119 -0.4616
 1193TIP3    H125214   3.582   1.117   7.489 -0.9511  0.0555  0.3778
 1193TIP3    H225215   3.484   1.229   7.463 -0.6750 -0.1950 -1.9532
 1194TIP3   OH225216   6.226   5.092   0.836  0.1286  0.0293 -0.4044
 1194TIP3    H125217   6.306   5.040   0.825  0.4001  0.3503  0.0031
 1194TIP3    H225218   6.176   5.078   0.756 -0.4956 -2.0461  0.2859
 1195TIP3   OH225219   6.471   3.463   7.938 -0.1737  0.1506  0.7492
 1195TIP3    H125220   6.561   3.436   7.921  0.3977  2.5860 -0.4512
 1195TIP3    H225221   6.464   3.467   8.033  1.0204  0.0481  0.8492
 1196TIP3   OH225222   1.867   0.017   1.966 -0.6074  0.1512  0.5815
 1196TIP3    H125223   1.797   0.081   1.981  0.1693  2.1609 -3.1255
 1196TIP3    H225224   1.943   0.054   2.011 -0.4058  1.4588 -0.7486
 1197TIP3   OH225225   5.055   5.875   0.370 -0.4790  0.2544  0.1759
 1197TIP3    H125226   4.984   5.918   0.322  0.9152  1.9820 -0.4737
 1197TIP3    H225227   5.111   5.947   0.398  0.9418 -1.0436  0.7953
 1198TIP3   OH225228   1.519   6.690   0.292 -0.1288 -0.4594 -0.3337
 1198TIP3    H125229   1.482   6.734   0.369  0.7965 -0.9971  0.4464
 1198TIP3    H225230   1.449   6.692   0.227 -0.5295  1.0614  0.1004
 1199TIP3   OH225231   4.573   1.503   1.930  0.2081 -0.1844  0.4403
 1199TIP3    H125232   4.630   1.506   2.007  2.2473  1.7878 -1.0092
 1199TIP3    H225233   4.510   1.574   1.944  0.8963  0.5133  0.1423
 1200TIP3   OH225234   1.242   2.883   2.408 -0.5385 -0.0035  0.0475
 1200TIP3    H125235   1.332   2.869   2.380 -0.8692 -2.5158  0.0144
 1200TIP3    H225236   1.249   2.939   2.485  0.9782  0.4814 -0.4223
 1201TIP3   OH225237   6.605   4.561   7.627  0.6618  0.1697 -0.6329
 1201TIP3    H125238   6.639   4.638   7.673  1.4076  0.7938 -2.1508
 1201TIP3    H225239   6.682   4.520   7.588 -0.0077  0.1035 -1.9507
 1202TIP3   OH225240   6.430   3.458   8.199  0.1279  0.4596  0.5748
 1202TIP3    H125241   6.515   3.432   8.234  0.9622 -1.3154 -2.3780
 1202TIP3    H225242   6.367   3.412   8.254  1.0721  1.1002  2.2648
 1203TIP3   OH225243   5.009   3.397   7.921 -0.0965  0.5705 -0.4756
 1203TIP3    H125244   4.951   3.470   7.943 -0.2226 -0.2645  2.4530
 1203TIP3    H225245   5.093   3.439   7.900  0.4291  1.6848  3.0942
 1204TIP3   OH225246   4.682   2.998   8.447  0.2403  0.6624 -0.0144
 1204TIP3    H125247   4.756   3.044   8.406  1.0706  0.3725  1.1099
 1204TIP3    H225248   4.691   3.016   8.540 -1.5400  1.1962  0.0908
 1205TIP3   OH225249   4.945   2.292   8.460 -0.2089  0.8812  0.4184
 1205TIP3    H125250   5.010   2.248   8.406 -0.4528 -0.7399  1.3690
 1205TIP3    H225251   4.937   2.380   8.422  0.2890  0.1178 -1.5802
 1206TIP3   OH225252   3.866   5.988   2.006  0.1395  0.0370 -0.0289
 1206TIP3    H125253   3.829   6.063   1.958 -1.8693 -0.7212  0.2423
 1206TIP3    H225254   3.880   5.921   1.939  0.9175  0.2590 -0.1022
 1207TIP3   OH225255   4.692   6.123   8.409 -0.2486  0.0885  0.3390
 1207TIP3    H125256   4.623   6.147   8.348 -1.7015  1.5971  2.4138
 1207TIP3    H225257   4.744   6.203   8.420  0.7229 -0.5051  0.1816
 1208TIP3   OH225258   6.276   4.260   2.034  0.5867 -0.5869 -0.2348
 1208TIP3    H125259   6.240   4.339   1.992 -0.7569 -0.5974  0.8215
 1208TIP3    H225260   6.335   4.294   2.101  0.2871 -0.4839 -0.0208
 1209TIP3   OH225261   0.196   0.683   0.492 -0.1645 -0.1678 -0.0876
 1209TIP3    H125262   0.148   0.666   0.411  0.1230 -0.1333 -0.2641
 1209TIP3    H225263   0.193   0.600   0.540  0.0147 -0.3050 -0.3138
 1210TIP3   OH225264   3.838   0.800   7.327  0.0201 -0.5801  0.0344
 1210TIP3    H125265   3.888   0.801   7.245  0.1560 -0.4076  0.1191
 1210TIP3    H225266   3.747   0.798   7.298  0.0289  0.7548 -0.1396
 1211TIP3   OH225267   3.141   4.360   1.326 -0.0140 -0.0125  0.1314
 1211TIP3    H125268   3.125   4.398   1.412  1.0575 -0.8187  0.7172
 1211TIP3    H225269   3.236   4.343   1.325 -0.0137  0.0023 -1.2109
 1212TIP3   OH225270   0.921   1.137   1.233 -0.4542  0.4279  0.1188
 1212TIP3    H125271   0.856   1.139   1.163 -0.8164  0.5018  0.4563
 1212TIP3    H225272   1.002   1.167   1.191 -0.6470  0.3860 -0.2896
 1213TIP3   OH225273   4.104   4.902   8.482 -0.0959 -0.4156 -0.1297
 1213TIP3    H125274   4.040   4.834   8.501 -0.1875  0.1579  1.8271
 1213TIP3    H225275   4.059   4.984   8.502  0.7638  0.0890 -0.2046
 1214TIP3   OH225276   3.048   5.834   1.362  0.0086 -0.6723  0.1018
 1214TIP3    H125277   2.986   5.824   1.289  0.7449  3.1985 -1.2714
 1214TIP3    H225278   3.127   5.788   1.332  0.0112  0.1440 -1.2290
 1215TIP3   OH225279   0.533   2.179   6.764  0.1091  0.3418  1.0899
 1215TIP3    H125280   0.556   2.100   6.715 -3.3328  0.4339 -1.0099
 1215TIP3    H225281   0.439   2.169   6.783  0.1798  2.6927  3.2635
 1216TIP3   OH225282   2.132   6.102   2.058 -0.7610 -0.2210  0.7726
 1216TIP3    H125283   2.157   6.157   2.133  0.3540 -0.4661  0.6066
 1216TIP3    H225284   2.044   6.131   2.036  0.0502  2.0630  0.1921
 1217TIP3   OH225285   3.317   0.297   0.225 -0.2218 -0.0537 -0.1347
 1217TIP3    H125286   3.403   0.269   0.257  0.2757  1.1757 -0.3432
 1217TIP3    H225287   3.313   0.390   0.244 -0.9494  0.1862 -1.3546
 1218TIP3   OH225288   6.327   0.645   7.736  0.2710 -0.1179  0.3311
 1218TIP3    H125289   6.375   0.578   7.785 -1.0643 -1.3764  0.0085
 1218TIP3    H225290   6.267   0.682   7.800  0.4718  0.2213  0.3216
 1219TIP3   OH225291   4.482   5.425   0.566 -0.1529  0.5532 -0.3375
 1219TIP3    H125292   4.539   5.348   0.570 -0.6192  0.2208  0.1590
 1219TIP3    H225293   4.435   5.424   0.650  0.2787  1.7331 -0.0506
 1220TIP3   OH225294   5.691   5.523   7.036  0.0264 -0.5217 -0.0457
 1220TIP3    H125295   5.708   5.568   6.953  0.7177  0.0061  0.3680
 1220TIP3    H225296   5.777   5.514   7.076 -0.3888 -0.1077  0.9523
 1221TIP3   OH225297   5.800   4.464   7.204  0.3879  0.4144  0.3608
 1221TIP3    H125298   5.882   4.443   7.248  0.0728 -0.3929  0.5680
 1221TIP3    H225299   5.826   4.495   7.118  0.9967  1.7846  1.0053
 1222TIP3   OH225300   0.234   5.470   7.206 -0.6058 -1.0131  0.2431
 1222TIP3    H125301   0.297   5.537   7.230 -1.1721 -0.2579 -0.3364
 1222TIP3    H225302   0.208   5.431   7.289 -2.2132  1.2621  0.8954
 1223TIP3   OH225303   6.394   1.776   2.399  0.2028 -0.3441  0.4811
 1223TIP3    H125304   6.457   1.743   2.463  1.4375 -0.5626 -0.8119
 1223TIP3    H225305   6.428   1.749   2.314  0.0895  2.2476 -0.4996
 1224TIP3   OH225306   2.402   1.592   2.037 -0.1207  0.1985  0.0849
 1224TIP3    H125307   2.343   1.632   1.973  0.6264  0.8177 -0.2336
 1224TIP3    H225308   2.348   1.582   2.115 -0.6027  0.9313 -0.1364
 1225TIP3   OH225309   6.614   5.728   1.905  0.0823  0.3058 -0.7226
 1225TIP3    H125310   6.582   5.802   1.853  0.1720  0.5100 -0.4851
 1225TIP3    H225311   6.706   5.747   1.919  0.5622 -0.7391 -2.2069
 1226TIP3   OH225312   2.221   2.330   0.169 -0.0287  0.7052 -0.3611
 1226TIP3    H125313   2.300   2.384   0.181  1.5186 -1.1437 -1.5339
 1226TIP3    H225314   2.252   2.240   0.184 -1.5126 -0.2303 -2.4601
 1227TIP3   OH225315   0.242   5.797   0.154 -0.0731  0.2934  0.3455
 1227TIP3    H125316   0.222   5.706   0.130 -1.0248  0.5529  0.1308
 1227TIP3    H225317   0.322   5.790   0.207  0.3662 -0.5752 -0.3933
 1228TIP3   OH225318   5.162   5.637   0.741  0.3109  0.0341 -0.6361
 1228TIP3    H125319   5.118   5.603   0.819 -2.8874  1.2234 -1.7744
 1228TIP3    H225320   5.167   5.732   0.756  1.1490  0.1017 -1.2328
 1229TIP3   OH225321   0.015   0.985   0.244 -0.2449  0.5332  0.1697
 1229TIP3    H125322   0.016   0.942   0.330 -1.9211  0.6561  0.2955
 1229TIP3    H225323  -0.041   0.929   0.190  3.9039 -1.8309 -2.2057
 1230TIP3   OH225324   3.817   3.467   1.788 -0.1481  0.4288 -0.2337
 1230TIP3    H125325   3.821   3.372   1.797  1.6280  0.6114  1.6316
 1230TIP3    H225326   3.904   3.491   1.756  1.3490  1.7237  4.0967
 1231TIP3   OH225327   2.443   2.162   2.350 -0.3006  0.5837  0.2549
 1231TIP3    H125328   2.466   2.070   2.337  3.0046  1.4581 -1.4114
 1231TIP3    H225329   2.472   2.182   2.439  1.3564  0.5080 -0.2224
 1232TIP3   OH225330   3.643   1.224   1.180 -0.1935 -0.6576 -0.1743
 1232TIP3    H125331   3.625   1.272   1.099 -1.6852  0.3784  0.7105
 1232TIP3    H225332   3.662   1.292   1.245 -0.1465 -1.3925  0.6068
 1233TIP3   OH225333   4.405   2.342   1.573 -0.7860  0.1132 -0.1435
 1233TIP3    H125334   4.459   2.263   1.577 -1.8608 -0.6384 -0.1658
 1233TIP3    H225335   4.345   2.334   1.647 -1.3867  0.5502 -0.5759
 1234TIP3   OH225336   5.248   5.060   1.274  0.4268  0.7520  0.2037
 1234TIP3    H125337   5.311   5.114   1.322  0.5130  1.5149 -0.7442
 1234TIP3    H225338   5.284   5.053   1.186 -0.6717  0.9689 -0.2753
 1235TIP3   OH225339   5.694   5.987   0.145  0.2904  0.7206 -0.0290
 1235TIP3    H125340   5.743   5.907   0.164 -0.6393 -0.3663 -1.9430
 1235TIP3    H225341   5.739   6.026   0.071  1.3846  2.6308  1.5581
 1236TIP3   OH225342   5.522   6.873   2.634 -0.0772 -0.3741 -0.4828
 1236TIP3    H125343   5.428   6.883   2.621  0.2181  2.0417 -1.2560
 1236TIP3    H225344   5.561   6.904   2.552  1.4560  2.6757  1.2079
 1237TIP3   OH225345   0.053   2.924   7.740  0.0880 -0.3385 -0.0740
 1237TIP3    H125346   0.094   3.008   7.758 -0.7779  0.3264 -1.0766
 1237TIP3    H225347  -0.041   2.943   7.741 -0.0998 -1.1587 -0.9066
 1238TIP3   OH225348   3.309   5.438   0.146  0.1633  0.5457 -0.5360
 1238TIP3    H125349   3.299   5.531   0.167 -0.0619  0.7375 -1.4640
 1238TIP3    H225350   3.275   5.429   0.057 -1.1480 -0.7019  0.0541
 1239TIP3   OH225351   2.906   4.132   8.246 -0.3383  0.2619  0.3910
 1239TIP3    H125352   2.890   4.039   8.227 -1.0095  0.3416  0.5560
 1239TIP3    H225353   2.984   4.153   8.196 -0.6369 -0.1890 -0.2765
 1240TIP3   OH225354   3.568   6.155   8.526 -0.1391 -0.7106 -0.4135
 1240TIP3    H125355   3.628   6.178   8.455  0.2782 -0.3501  0.0531
 1240TIP3    H225356   3.617   6.171   8.606 -1.4058  1.2610  0.0410
 1241TIP3   OH225357   5.149   4.665   6.704  0.5731 -0.3479  0.2776
 1241TIP3    H125358   5.145   4.583   6.754  0.4988  0.2011  1.2030
 1241TIP3    H225359   5.074   4.715   6.735  1.6542  0.8206  1.0874
 1242TIP3   OH225360   5.022   4.943   1.197 -0.0969 -0.0328  0.0416
 1242TIP3    H125361   5.110   4.973   1.220 -0.3462 -0.1854  1.2137
 1242TIP3    H225362   4.995   4.886   1.269 -0.1934 -2.0126 -1.4664
 1243TIP3   OH225363   6.365   0.112   0.570  0.5952  0.5548  0.1722
 1243TIP3    H125364   6.398   0.183   0.625 -0.6493  0.4192  1.1310
 1243TIP3    H225365   6.444   0.065   0.543  1.4567  2.2537 -0.4698
 1244TIP3   OH225366   1.838   2.181   0.083  0.2005 -0.9496  0.0121
 1244TIP3    H125367   1.885   2.242   0.140  1.4365  0.2542 -2.1763
 1244TIP3    H225368   1.777   2.236   0.034 -0.4584 -1.8713 -0.2208
 1245TIP3   OH225369   4.702   3.620   0.266 -0.3603 -0.1078  0.5891
 1245TIP3    H125370   4.615   3.661   0.269 -0.1513  0.9783 -3.0087
 1245TIP3    H225371   4.696   3.556   0.195  1.7538  0.0713  0.1773
 1246TIP3   OH225372   2.124   3.147   2.807 -0.1802 -0.4565 -0.2162
 1246TIP3    H125373   2.076   3.137   2.889 -1.9403 -1.2807 -1.2963
 1246TIP3    H225374   2.070   3.204   2.753  1.5188  1.0371 -0.4287
 1247TIP3   OH225375   3.335   3.110   7.484 -0.7194  0.0346 -0.4756
 1247TIP3    H125376   3.313   3.029   7.437 -1.1115  0.1573 -0.5057
 1247TIP3    H225377   3.254   3.161   7.483 -0.1493  0.9799 -1.5803
 1248TIP3   OH225378   5.256   3.560   2.589  0.0052  0.3075 -0.0947
 1248TIP3    H125379   5.335   3.557   2.643  0.9287  0.0277 -1.4129
 1248TIP3    H225380   5.218   3.472   2.596  0.8389 -0.1312 -0.9065
 1249TIP3   OH225381   3.293   3.281   1.862  0.5005  0.0881  0.6010
 1249TIP3    H125382   3.249   3.235   1.791 -1.4725  3.0494 -0.3110
 1249TIP3    H225383   3.385   3.255   1.855 -0.5660 -5.0167  1.4583
 1250TIP3   OH225384   3.317   4.889   1.172  0.3425  0.4098  0.4113
 1250TIP3    H125385   3.307   4.825   1.243  2.7606 -1.7690 -1.0467
 1250TIP3    H225386   3.240   4.875   1.116  0.4112 -0.6638  0.5604
 1251TIP3   OH225387   1.953   1.497   0.676  0.4105  0.1583 -0.5143
 1251TIP3    H125388   1.999   1.435   0.732 -1.4101  0.6691  1.6654
 1251TIP3    H225389   1.998   1.580   0.690  0.1900  0.2092 -0.1162
 1252TIP3   OH225390   2.807   5.422   8.149 -0.2744 -0.0808  0.2309
 1252TIP3    H125391   2.899   5.443   8.161 -0.2748  0.3174 -0.4362
 1252TIP3    H225392   2.806   5.357   8.078 -0.6550  1.5788 -1.3414
 1253TIP3   OH225393   3.236   5.514   7.124  0.7085  0.0469 -0.0663
 1253TIP3    H125394   3.289   5.590   7.147  0.5929  0.6918 -1.7491
 1253TIP3    H225395   3.292   5.461   7.067  0.1727 -0.1664 -0.4101
 1254TIP3   OH225396   6.910   1.659   8.043 -0.7600 -0.5991 -0.0755
 1254TIP3    H125397   6.914   1.729   7.977 -1.7499 -0.8522 -0.4041
 1254TIP3    H225398   6.999   1.657   8.080 -0.3813  0.0015 -0.9187
 1255TIP3   OH225399   1.834   1.404   1.612 -0.0339 -0.3119  0.3988
 1255TIP3    H125400   1.869   1.397   1.701 -0.8818 -1.4902  0.6671
 1255TIP3    H225401   1.861   1.491   1.582  0.6606 -0.0807  1.6298
 1256TIP3   OH225402   3.261   6.721   2.423  0.2516 -0.1657  0.3782
 1256TIP3    H125403   3.249   6.720   2.328 -2.2594 -2.0175  0.6089
 1256TIP3    H225404   3.214   6.800   2.452  0.4101  0.0192  0.1278
 1257TIP3   OH225405   3.423   6.047   1.720 -0.0287 -0.1957  0.4333
 1257TIP3    H125406   3.360   6.111   1.753 -0.8571 -0.3042 -0.8565
 1257TIP3    H225407   3.379   6.007   1.645  1.5320 -0.3439 -0.4421
 1258TIP3   OH225408   5.080   4.091   2.310 -0.3482 -0.2580  0.1285
 1258TIP3    H125409   5.128   4.141   2.376 -1.3000 -0.1110  0.7396
 1258TIP3    H225410   4.989   4.119   2.321 -0.6692 -0.9872 -0.5655
 1259TIP3   OH225411   3.796   3.042   7.273  0.1465  0.0433  0.6167
 1259TIP3    H125412   3.870   3.097   7.247 -0.7190  0.4428 -1.1436
 1259TIP3    H225413   3.814   3.019   7.364  1.5287  1.5977  0.7807
 1260TIP3   OH225414   2.092   1.038   0.920 -0.1842 -0.5140  0.1195
 1260TIP3    H125415   2.118   0.947   0.916 -0.0894 -0.4440 -1.8905
 1260TIP3    H225416   1.999   1.035   0.943  0.0740 -1.0284  1.1841
 1261TIP3   OH225417   1.057   5.226   7.561  0.9917 -0.0193 -0.0621
 1261TIP3    H125418   0.993   5.155   7.573  1.0875  0.2751  3.4378
 1261TIP3    H225419   1.139   5.191   7.596  1.0825  1.6747  1.5975
 1262TIP3   OH225420   6.714   2.978   1.077 -0.2982  0.9078 -0.3432
 1262TIP3    H125421   6.622   2.986   1.104 -0.2033  3.0665 -0.4278
 1262TIP3    H225422   6.712   2.986   0.982 -0.1075 -0.1916 -0.4431
 1263TIP3   OH225423   1.719   2.067   2.221  0.0199  0.0284  0.1587
 1263TIP3    H125424   1.734   2.024   2.305  0.9442  2.1963  1.1853
 1263TIP3    H225425   1.676   2.149   2.243  0.7703  0.9004 -1.4464
 1264TIP3   OH225426   5.063   6.882   2.073  0.1625 -0.2930  0.0386
 1264TIP3    H125427   5.113   6.860   2.151  2.2463 -0.4682 -1.2764
 1264TIP3    H225428   5.103   6.962   2.040 -0.3527 -0.4941 -1.1300
 1265TIP3   OH225429   5.715   5.454   1.665 -0.0921  0.3640  0.5223
 1265TIP3    H125430   5.727   5.368   1.705 -0.1650  0.3099  0.4285
 1265TIP3    H225431   5.621   5.464   1.657 -0.0558 -0.1508 -0.7566
 1266TIP3   OH225432   4.150   0.973   7.279 -0.4534 -0.6861 -0.0831
 1266TIP3    H125433   4.072   0.964   7.224 -0.8644  0.8178  0.1922
 1266TIP3    H225434   4.222   0.947   7.222 -1.1015 -1.4968 -0.5442
 1267TIP3   OH225435   5.867   6.336   1.293  0.4224  0.2406 -0.1241
 1267TIP3    H125436   5.941   6.392   1.316  0.0738  1.0020 -0.8047
 1267TIP3    H225437   5.797   6.362   1.354  0.8817 -0.9076  0.9315
 1268TIP3   OH225438   6.715   2.643   2.504 -0.4403 -0.2786  0.0625
 1268TIP3    H125439   6.780   2.576   2.524 -1.1222 -0.1936  3.0696
 1268TIP3    H225440   6.751   2.690   2.430  0.5053 -3.3404 -1.5960
 1269TIP3   OH225441   0.032   2.043   7.654  0.2485  0.0262 -0.2097
 1269TIP3    H125442   0.067   2.128   7.629  2.2158 -0.9730 -1.1263
 1269TIP3    H225443   0.101   2.003   7.707 -0.9166 -0.7506  0.7812
 1270TIP3   OH225444   2.653   2.625   8.289 -0.0360 -0.0427 -0.6512
 1270TIP3    H125445   2.740   2.597   8.260  0.5848  1.1461  0.0304
 1270TIP3    H225446   2.611   2.658   8.209 -0.3238 -1.6854 -1.2173
 1271TIP3   OH225447   3.670   5.144   0.084  0.7458 -0.0345 -0.2151
 1271TIP3    H125448   3.729   5.196   0.138 -1.1993  2.1777 -0.1072
 1271TIP3    H225449   3.679   5.181  -0.004  2.2680 -2.2050 -1.0792
 1272TIP3   OH225450   1.202   6.722   1.423  0.4789  0.1481  0.3775
 1272TIP3    H125451   1.142   6.652   1.452  1.0959 -0.6186 -0.1395
 1272TIP3    H225452   1.246   6.684   1.347  2.3314  0.3206  1.3219
 1273TIP3   OH225453   6.840   2.749   8.355 -0.6688  0.1228 -0.1528
 1273TIP3    H125454   6.793   2.693   8.417 -0.4899 -2.0090 -1.8251
 1273TIP3    H225455   6.774   2.773   8.290 -0.1711 -0.1575 -0.7591
 1274TIP3   OH225456   5.072   5.567   0.987  0.3443  0.7902  0.4142
 1274TIP3    H125457   4.995   5.531   1.031 -0.2091 -1.2179 -1.9726
 1274TIP3    H225458   5.130   5.593   1.059 -1.5445  0.1891  2.2911
 1275TIP3   OH225459   6.445   5.186   7.532  0.5680  0.2513 -1.0568
 1275TIP3    H125460   6.398   5.139   7.464  1.7263  0.6160 -2.1572
 1275TIP3    H225461   6.494   5.254   7.485  1.4785  0.4551  0.1165
 1276TIP3   OH225462   4.439   0.410   2.386 -0.5833 -0.0948 -0.5779
 1276TIP3    H125463   4.431   0.450   2.300 -0.1938 -1.9274 -1.5164
 1276TIP3    H225464   4.385   0.465   2.443 -1.0042  1.0417 -2.0050
 1277TIP3   OH225465   1.575   5.523   7.758 -0.1977 -0.4183  0.5908
 1277TIP3    H125466   1.551   5.616   7.761 -1.2528 -0.6426 -0.1682
 1277TIP3    H225467   1.652   5.521   7.701 -0.1977 -0.0107  0.5702
 1278TIP3   OH225468   2.120   4.493   2.374 -0.0989 -0.1357 -0.0078
 1278TIP3    H125469   2.183   4.533   2.435 -1.4171  0.4157  1.0359
 1278TIP3    H225470   2.083   4.420   2.423 -2.7257  1.5748  0.7742
 1279TIP3   OH225471   6.522   3.141   1.353 -0.1933  0.0404 -0.2505
 1279TIP3    H125472   6.573   3.097   1.420 -0.5360  1.0209  0.6721
 1279TIP3    H225473   6.463   3.074   1.319  0.2637 -0.5584  0.1350
 1280TIP3   OH225474   2.499   2.414   8.389  0.2504  0.0456  0.0171
 1280TIP3    H125475   2.540   2.333   8.356 -0.3682 -0.1228 -0.3633
 1280TIP3    H225476   2.545   2.484   8.344  0.1514 -0.1409 -0.3844
 1281TIP3   OH225477   5.594   2.728   1.432 -0.3425  0.1556 -0.0572
 1281TIP3    H125478   5.584   2.640   1.397 -1.2839  0.1635  0.1631
 1281TIP3    H225479   5.688   2.736   1.450 -0.0411 -0.3021 -1.3410
 1282TIP3   OH225480   4.492   5.666   2.371  0.0311  0.2310  0.3797
 1282TIP3    H125481   4.482   5.633   2.461 -1.3538 -0.0544  0.1476
 1282TIP3    H225482   4.419   5.727   2.360  0.4957  0.6606 -0.3924
 1283TIP3   OH225483   2.883   0.449   7.086 -0.2830 -0.0228  0.3430
 1283TIP3    H125484   2.974   0.427   7.068 -0.7443 -2.4793  0.6980
 1283TIP3    H225485   2.840   0.444   7.001 -0.1456  0.9979  0.1985
 1284TIP3   OH225486   2.601   3.056   2.508  0.0475  0.4356  0.4117
 1284TIP3    H125487   2.651   3.024   2.433  1.4264  1.4960  0.8509
 1284TIP3    H225488   2.640   3.013   2.584  0.8120  1.8146  0.8314
 1285TIP3   OH225489   3.812   0.007   1.489 -0.6195  0.4052  0.1660
 1285TIP3    H125490   3.891   0.053   1.461 -0.3578  1.2672  2.1334
 1285TIP3    H225491   3.750   0.077   1.512 -0.6392 -0.1619  2.0775
 1286TIP3   OH225492   5.355   0.600   0.787 -0.2531 -0.0973  0.0663
 1286TIP3    H125493   5.282   0.552   0.748 -1.2036  1.9312 -0.8145
 1286TIP3    H225494   5.313   0.661   0.848  0.7564  0.7418 -0.0568
 1287TIP3   OH225495   2.804   0.206   2.807 -0.4370  0.8830 -0.0068
 1287TIP3    H125496   2.775   0.121   2.774 -0.6273  1.1547 -0.5683
 1287TIP3    H225497   2.769   0.211   2.896  2.0616 -0.8619  1.1683
 1288TIP3   OH225498   1.241   6.182   0.012  0.1200 -0.4272 -0.2474
 1288TIP3    H125499   1.299   6.210  -0.059 -0.7568 -0.1646 -0.8845
 1288TIP3    H225500   1.164   6.239   0.003 -2.0896 -3.4063 -2.0377
 1289TIP3   OH225501   3.975   4.237   8.189  0.4610 -0.6309 -0.1860
 1289TIP3    H125502   3.981   4.141   8.180  1.1775 -0.7665  1.5225
 1289TIP3    H225503   3.958   4.251   8.282  0.6293  0.9337 -0.3793
 1290TIP3   OH225504   5.923   1.498   0.509 -0.1035 -0.4052 -0.0558
 1290TIP3    H125505   5.940   1.592   0.516  0.2978 -0.2918 -2.0079
 1290TIP3    H225506   5.838   1.493   0.464  0.4148 -0.9617 -0.9868
 1291TIP3   OH225507   5.977   2.974   7.455 -0.0012  0.2419 -0.1665
 1291TIP3    H125508   6.028   3.001   7.531 -0.1847  0.5905 -0.1684
 1291TIP3    H225509   5.988   2.879   7.452 -1.0224  0.0591  1.0472
 1292TIP3   OH225510   2.142   5.876   1.023 -0.2252  0.0344 -0.3585
 1292TIP3    H125511   2.171   5.923   0.945  0.2482  1.2737  0.5332
 1292TIP3    H225512   2.171   5.931   1.096 -1.8977 -0.3773  0.6552
 1293TIP3   OH225513   5.119   0.028   1.344  0.3434 -0.7501 -0.3561
 1293TIP3    H125514   5.196   0.053   1.292 -0.2963 -0.8583 -1.3914
 1293TIP3    H225515   5.075  -0.038   1.291 -0.5739 -0.5454  0.1279
 1294TIP3   OH225516   1.029   4.296   1.059  0.2345 -0.1032 -0.0752
 1294TIP3    H125517   1.067   4.235   0.995 -1.1558 -1.3627  0.2501
 1294TIP3    H225518   1.101   4.315   1.120  0.6332 -1.6675 -0.0170
 1295TIP3   OH225519   6.384   5.867   7.212 -0.0438 -0.1511  0.5324
 1295TIP3    H125520   6.297   5.878   7.174 -0.4627 -0.1891  1.4416
 1295TIP3    H225521   6.407   5.954   7.245  0.0129 -0.2659  0.7998
 1296TIP3   OH225522   2.103   6.278   6.952  0.0446  0.5883  0.2601
 1296TIP3    H125523   2.054   6.197   6.932  2.0114 -0.5918 -0.0170
 1296TIP3    H225524   2.035   6.344   6.964 -1.6188 -0.9478 -0.1980
 1297TIP3   OH225525   5.252   1.559   7.845 -0.4652  0.6121 -0.4273
 1297TIP3    H125526   5.294   1.475   7.828  0.0442  0.9628 -0.9079
 1297TIP3    H225527   5.267   1.575   7.938 -1.6326 -0.4101 -0.0406
 1298TIP3   OH225528   1.581   5.794   7.785 -0.2914 -0.0741 -0.1173
 1298TIP3    H125529   1.517   5.820   7.851  1.0885  0.0642  1.2278
 1298TIP3    H225530   1.655   5.852   7.799 -0.4019  0.7773 -2.6310
 1299TIP3   OH225531   4.477   6.114   1.136  0.4224  1.0558  0.2062
 1299TIP3    H125532   4.409   6.101   1.070 -0.3265  0.1185  1.1162
 1299TIP3    H225533   4.484   6.209   1.145  1.2436  1.2439 -1.8805
 1300TIP3   OH225534   0.728   2.807   0.662 -0.0647  0.2644  0.0488
 1300TIP3    H125535   0.751   2.865   0.733 -1.1553  0.1055  0.5483
 1300TIP3    H225536   0.811   2.790   0.617  0.4653  1.1680  0.6601
 1301TIP3   OH225537   4.993   2.278   2.226  1.1890  0.0995 -0.1304
 1301TIP3    H125538   5.008   2.189   2.258  1.6921  0.5128  0.8243
 1301TIP3    H225539   4.931   2.267   2.154 -0.4559 -0.8090  1.3366
 1302TIP3   OH225540   1.519   3.341   1.470  0.7834  0.3091 -0.0055
 1302TIP3    H125541   1.447   3.279   1.483  1.6505 -0.8672 -0.6316
 1302TIP3    H225542   1.598   3.293   1.496  1.5634  0.8673 -1.1993
 1303TIP3   OH225543   6.276   1.213   1.609  0.0526  0.3050 -0.0906
 1303TIP3    H125544   6.280   1.262   1.691 -0.3287  1.8017 -0.9324
 1303TIP3    H225545   6.206   1.149   1.623  0.6805 -0.1582  1.0922
 1304TIP3   OH225546   0.981   4.712   0.294 -0.2307 -0.0780 -0.0947
 1304TIP3    H125547   0.962   4.791   0.243  0.7627  1.1132  1.2820
 1304TIP3    H225548   1.031   4.744   0.370  1.5408 -2.2010 -0.2582
 1305TIP3   OH225549   1.996   6.217   8.077 -0.6123 -0.1102 -0.3844
 1305TIP3    H125550   2.011   6.252   7.989  0.0225  0.3220 -0.1096
 1305TIP3    H225551   2.008   6.292   8.135 -0.7021 -0.4680  0.0991
 1306TIP3   OH225552   1.946   1.024   8.419 -0.0050  0.0066  0.6470
 1306TIP3    H125553   1.978   1.098   8.368  0.7310 -0.4891  0.3720
 1306TIP3    H225554   2.015   0.959   8.412 -0.3325 -0.4436  1.4663
 1307TIP3   OH225555   2.495   2.290   7.916  0.2319  0.7304 -0.1295
 1307TIP3    H125556   2.429   2.223   7.899  0.6382  0.6130 -1.3159
 1307TIP3    H225557   2.456   2.371   7.883 -0.1957  1.0769  1.1615
 1308TIP3   OH225558   4.221   3.377   7.338 -0.4924 -0.2643  0.1520
 1308TIP3    H125559   4.251   3.467   7.346 -3.2343  1.0055 -2.1778
 1308TIP3    H225560   4.275   3.340   7.268 -1.3656  0.6330 -1.0457
 1309TIP3   OH225561   4.143   0.148   0.838 -0.3324 -0.0855  0.6193
 1309TIP3    H125562   4.216   0.197   0.800 -0.6532 -0.7867 -1.0187
 1309TIP3    H225563   4.164   0.056   0.820 -1.9862 -0.2614 -0.6850
 1310TIP3   OH225564   3.333   0.298   8.003 -0.1848 -0.0399 -0.0180
 1310TIP3    H125565   3.301   0.242   8.073  0.8710 -1.3650 -0.5496
 1310TIP3    H225566   3.279   0.276   7.927  1.0060 -1.2549 -0.5436
 1311TIP3   OH225567   6.197   0.315   0.830  0.2709  0.1977  0.2802
 1311TIP3    H125568   6.249   0.386   0.869 -1.5188  2.1687 -0.6812
 1311TIP3    H225569   6.173   0.259   0.903  0.7499  1.2547  1.2774
 1312TIP3   OH225570   3.901   1.302   7.437 -0.1531 -0.0968 -0.0997
 1312TIP3    H125571   3.983   1.312   7.390  0.3458  0.2245  0.8044
 1312TIP3    H225572   3.848   1.377   7.410  0.1103  0.0574 -0.1834
 1313TIP3   OH225573   0.531   6.208   0.746 -0.3184 -0.1882 -0.4982
 1313TIP3    H125574   0.442   6.244   0.752 -1.0955 -1.6192 -2.2570
 1313TIP3    H225575   0.588   6.285   0.748 -1.7410  0.9475 -1.4627
 1314TIP3   OH225576   4.428   6.304   0.064 -0.2428 -0.4503  0.8103
 1314TIP3    H125577   4.341   6.266   0.078  0.4871 -2.6365 -0.1478
 1314TIP3    H225578   4.468   6.248  -0.003  1.9626  0.4199  1.3261
 1315TIP3   OH225579   2.784   6.375   8.344  0.2214 -0.2326  0.0122
 1315TIP3    H125580   2.776   6.454   8.396  0.0420 -1.1032  1.3546
 1315TIP3    H225581   2.878   6.361   8.336  0.2495 -0.1367  0.1764
 1316TIP3   OH225582   2.761   5.210   1.756  0.2101 -0.1334  0.0989
 1316TIP3    H125583   2.778   5.275   1.824  0.1586  0.0800 -0.0890
 1316TIP3    H225584   2.728   5.133   1.803 -3.1441  1.1412  0.1110
 1317TIP3   OH225585   4.555   4.160   0.064 -0.9882 -0.1846 -0.5860
 1317TIP3    H125586   4.623   4.228   0.058 -0.5899 -0.5216  0.0334
 1317TIP3    H225587   4.603   4.080   0.084 -1.5622 -0.4395 -0.2077
 1318TIP3   OH225588   6.689   4.890   0.164  0.5395  0.2942 -0.7331
 1318TIP3    H125589   6.773   4.914   0.203  0.6118 -1.4958  0.3570
 1318TIP3    H225590   6.707   4.807   0.118 -0.6131 -0.1042 -0.4993
 1319TIP3   OH225591   3.187   3.060   8.202  0.3172 -0.5319 -0.3158
 1319TIP3    H125592   3.173   2.987   8.261  0.0650  0.0510  0.3663
 1319TIP3    H225593   3.262   3.034   8.148  1.0819 -0.7605  0.8032
 1320TIP3   OH225594   4.933   3.148   8.059  0.3090 -0.1075 -0.2514
 1320TIP3    H125595   4.929   3.240   8.032  2.3451  0.0351 -0.2197
 1320TIP3    H225596   4.985   3.105   7.991 -2.9879 -1.9360 -1.8378
 1321TIP3   OH225597   3.507   3.384   1.216 -0.1555 -0.2794  0.2516
 1321TIP3    H125598   3.548   3.463   1.181  0.4100 -0.6231  0.1347
 1321TIP3    H225599   3.542   3.376   1.305 -0.5516 -0.1533  0.4189
 1322TIP3   OH225600   3.701   0.976   2.747 -0.2695 -0.6517 -0.5411
 1322TIP3    H125601   3.765   0.965   2.677  0.3946 -1.4659  0.1763
 1322TIP3    H225602   3.751   1.007   2.822 -1.3061  2.4879 -0.9798
 1323TIP3   OH225603   0.473   6.937   0.355 -0.4269 -0.1759  0.0636
 1323TIP3    H125604   0.492   6.904   0.443 -1.6496  0.2253  0.4957
 1323TIP3    H225605   0.393   6.988   0.365 -0.5149 -0.0150 -1.2638
 1324TIP3   OH225606   4.546   2.108   1.683 -0.5613  0.1568 -0.0049
 1324TIP3    H125607   4.629   2.143   1.716 -0.7517  1.9997 -1.3231
 1324TIP3    H225608   4.570   2.025   1.642  0.9923  1.4312 -1.8481
 1325TIP3   OH225609   3.115   3.216   1.304 -0.3776  0.2370  0.4426
 1325TIP3    H125610   3.075   3.180   1.226 -0.4701  0.3160  0.4536
 1325TIP3    H225611   3.055   3.285   1.333 -1.5789 -1.3284  1.9289
 1326TIP3   OH225612   0.538   4.976   6.588 -0.1693  0.3716 -0.1085
 1326TIP3    H125613   0.520   5.027   6.667  1.8517 -0.5420  1.0218
 1326TIP3    H225614   0.531   4.885   6.616  4.4533 -0.1138  0.2280
 1327TIP3   OH225615   6.336   2.912   2.497 -0.1354  0.1699  0.0899
 1327TIP3    H125616   6.374   2.835   2.539 -0.8943 -0.8591 -1.0177
 1327TIP3    H225617   6.391   2.926   2.419 -1.5399 -0.9199 -1.1560
 1328TIP3   OH225618   3.022   6.609   3.115  0.3027  0.4944 -0.0306
 1328TIP3    H125619   3.083   6.535   3.105  0.1662  0.2979  0.5584
 1328TIP3    H225620   2.938   6.574   3.086 -0.3966 -0.5027  2.8362
 1329TIP3   OH225621   2.035   1.446   0.426 -0.4380  0.4076 -0.1428
 1329TIP3    H125622   2.126   1.472   0.442 -0.3241  0.6812 -1.1549
 1329TIP3    H225623   1.989   1.469   0.507  0.1002  1.7262 -0.1818
 1330TIP3   OH225624   5.598   1.852   6.270  0.1888  0.0247 -0.3580
 1330TIP3    H125625   5.572   1.925   6.325 -1.8953 -0.2943 -0.8194
 1330TIP3    H225626   5.680   1.821   6.308  0.2322  1.5262  0.8598
 1331TIP3   OH225627   0.310   2.200   2.571  0.0039 -0.4550  0.0801
 1331TIP3    H125628   0.282   2.173   2.659  1.1261 -0.4117  0.4654
 1331TIP3    H225629   0.277   2.290   2.563  2.0924  0.5343  1.5321
 1332TIP3   OH225630   1.200   5.293   8.267  0.5011 -0.2084 -0.0606
 1332TIP3    H125631   1.177   5.204   8.239  1.2625 -0.6861  0.7538
 1332TIP3    H225632   1.120   5.327   8.307  0.4384 -0.8760  0.4167
 1333TIP3   OH225633   3.106   0.464   0.063 -0.9457  0.2842 -0.4020
 1333TIP3    H125634   3.071   0.520   0.132  0.5901  1.2470 -0.3605
 1333TIP3    H225635   3.163   0.521   0.011  2.1231 -1.5162  0.7108
 1334TIP3   OH225636   6.700   5.945   8.119 -0.4981 -0.5351 -0.3928
 1334TIP3    H125637   6.743   6.005   8.059 -0.6000 -0.3427 -0.2767
 1334TIP3    H225638   6.771   5.892   8.156 -0.4328 -0.6320 -0.6579
 1335TIP3   OH225639   5.857   6.322   2.232 -0.3539  0.3375 -0.3723
 1335TIP3    H125640   5.920   6.288   2.168  0.1115  0.3173  0.0895
 1335TIP3    H225641   5.774   6.323   2.185  0.0460  0.6733 -1.0975
 1336TIP3   OH225642   2.319   0.769   1.481 -0.2957  0.5871  0.4569
 1336TIP3    H125643   2.371   0.703   1.435  0.2924  1.6475 -0.4659
 1336TIP3    H225644   2.367   0.784   1.563  1.6957  2.5127 -0.9510
 1337TIP3   OH225645   3.599   2.951   0.991 -0.0905  0.7115 -0.1634
 1337TIP3    H125646   3.545   3.022   1.028 -1.6465 -0.3548 -0.2598
 1337TIP3    H225647   3.580   2.876   1.048  0.0727 -0.0990 -1.1565
 1338TIP3   OH225648   5.937   4.902   8.235 -0.9572 -0.4455  0.1709
 1338TIP3    H125649   5.880   4.979   8.234 -0.0330  0.2488 -0.5351
 1338TIP3    H225650   5.884   4.834   8.277 -1.7473  0.5944  0.9233
 1339TIP3   OH225651   3.569   4.137   2.137 -0.1424  0.7457 -0.4839
 1339TIP3    H125652   3.586   4.206   2.072  0.7490 -1.1592 -2.3785
 1339TIP3    H225653   3.655   4.100   2.155 -0.7037 -0.4460 -0.1809
 1340TIP3   OH225654   4.303   1.170   0.159 -0.1787 -0.3029 -0.3192
 1340TIP3    H125655   4.227   1.114   0.169 -0.3919 -0.0120 -0.3077
 1340TIP3    H225656   4.275   1.240   0.100 -0.1445  0.2041  0.2486
 1341TIP3   OH225657   6.584   5.175   7.213  0.2537 -0.7259 -0.5480
 1341TIP3    H125658   6.676   5.199   7.203  0.3150 -1.0345 -0.7314
 1341TIP3    H225659   6.544   5.249   7.259  1.4837 -2.2638  3.5195
 1342TIP3   OH225660   6.789   0.846   7.055 -0.3159 -0.2432 -0.2515
 1342TIP3    H125661   6.815   0.756   7.078 -1.7854 -0.6875 -0.2311
 1342TIP3    H225662   6.831   0.901   7.121 -1.9690 -1.2219  1.7119
 1343TIP3   OH225663   6.680   0.155   6.843 -0.1310  0.1586 -0.2340
 1343TIP3    H125664   6.610   0.110   6.797 -0.9317  0.1561  0.9364
 1343TIP3    H225665   6.761   0.120   6.804 -0.7620 -0.5222 -0.9703
 1344TIP3   OH225666   0.298   0.280   1.368  0.0121  0.1126 -0.0682
 1344TIP3    H125667   0.247   0.360   1.353  0.5886  0.4829 -0.0813
 1344TIP3    H225668   0.244   0.229   1.428 -0.1038  0.7689  0.4032
 1345TIP3   OH225669   5.596   0.311   7.383  0.5109  0.2008 -0.2570
 1345TIP3    H125670   5.508   0.273   7.387 -0.2286  1.8734  0.4699
 1345TIP3    H225671   5.649   0.244   7.341 -1.3771 -0.3747 -1.8876
 1346TIP3   OH225672   6.270   1.618   0.589 -0.0289  0.0068  0.1023
 1346TIP3    H125673   6.227   1.665   0.517 -0.3609 -0.1080  0.2196
 1346TIP3    H225674   6.202   1.559   0.623 -0.5861  1.5968  1.9130
 1347TIP3   OH225675   3.190   3.790   2.199 -0.0962 -0.0082 -0.4892
 1347TIP3    H125676   3.241   3.802   2.278 -0.0142  0.0599 -0.5523
 1347TIP3    H225677   3.248   3.818   2.128  0.7405 -2.3612 -0.8274
 1348TIP3   OH225678   5.395   3.427   7.071  0.0089  0.2265  0.0289
 1348TIP3    H125679   5.442   3.357   7.025 -1.7028 -2.3585  1.9370
 1348TIP3    H225680   5.464   3.475   7.117  1.0878 -1.5869  0.4059
 1349TIP3   OH225681   1.191   1.701   1.713  0.1000 -0.0853  0.0691
 1349TIP3    H125682   1.102   1.737   1.710  0.5582  1.0413 -2.6660
 1349TIP3    H225683   1.245   1.770   1.751 -0.2620 -1.2796  3.1138
 1350TIP3   OH225684   3.935   3.320   7.923 -0.7586 -0.0979 -0.2947
 1350TIP3    H125685   3.988   3.322   7.842 -0.6785 -0.9775 -0.2689
 1350TIP3    H225686   3.875   3.247   7.911 -0.3010 -0.6545  0.7236
 1351TIP3   OH225687   5.456   3.980   7.000 -0.3238 -0.1814 -0.2111
 1351TIP3    H125688   5.371   4.016   7.024 -0.5886 -0.7984 -0.2061
 1351TIP3    H225689   5.466   3.903   7.055 -0.3764 -0.8857 -1.1718
 1352TIP3   OH225690   6.291   2.236   0.249  0.1210 -0.2722  0.4975
 1352TIP3    H125691   6.223   2.177   0.283 -1.0795 -1.0782 -2.9442
 1352TIP3    H225692   6.243   2.308   0.209  1.3444 -0.2000 -0.8913
 1353TIP3   OH225693   5.656   2.860   0.066  0.1857  0.0125  0.5570
 1353TIP3    H125694   5.633   2.781   0.016  0.6507 -0.0639  0.4619
 1353TIP3    H225695   5.750   2.870   0.054 -0.0813  1.4279 -0.6614
 1354TIP3   OH225696   2.173   1.934   2.533  0.7746  0.6302 -0.6012
 1354TIP3    H125697   2.169   1.995   2.607  1.7690 -0.3723  0.3052
 1354TIP3    H225698   2.237   1.869   2.559  0.2137 -0.4521 -1.8370
 1355TIP3   OH225699   5.352   2.248   1.815 -0.1499 -0.2294  0.3050
 1355TIP3    H125700   5.368   2.162   1.853  1.7666 -0.4685 -0.8872
 1355TIP3    H225701   5.334   2.230   1.722 -0.3866  0.6224  0.1757
 1356TIP3   OH225702   6.288   2.319   1.544 -0.5309 -0.1554  0.5832
 1356TIP3    H125703   6.294   2.224   1.552  0.7876 -0.0912  0.5846
 1356TIP3    H225704   6.243   2.334   1.461 -1.3729 -0.7723  0.9181
 1357TIP3   OH225705   2.704   2.471   1.868  0.2129  0.6923 -0.2510
 1357TIP3    H125706   2.658   2.512   1.941 -1.5931 -0.1767 -0.8280
 1357TIP3    H225707   2.639   2.412   1.829  1.9328 -0.8796 -0.9228
 1358TIP3   OH225708   5.295   1.561   8.122 -0.1015  0.6694  0.8001
 1358TIP3    H125709   5.217   1.538   8.172 -1.0774 -1.6929 -1.5454
 1358TIP3    H225710   5.356   1.488   8.138 -0.0191  0.4179 -0.5032
 1359TIP3   OH225711   4.199   2.952   7.516 -0.0747 -0.0438  0.0574
 1359TIP3    H125712   4.178   3.044   7.498 -2.0722 -0.4641  0.0735
 1359TIP3    H225713   4.168   2.905   7.439 -4.5195 -1.3305  2.3157
 1360TIP3   OH225714   4.866   3.868   8.176 -0.5430  0.2093 -0.1701
 1360TIP3    H125715   4.842   3.824   8.258 -0.8599 -0.6219 -0.6953
 1360TIP3    H225716   4.894   3.956   8.203  2.6046 -1.0675  1.2189
 1361TIP3   OH225717   0.486   1.977   1.051 -0.6169  0.1383 -0.5442
 1361TIP3    H125718   0.562   1.972   0.993  0.2305  2.1027  0.3062
 1361TIP3    H225719   0.420   2.025   1.000 -0.2079  1.0339 -0.2480
 1362TIP3   OH225720   1.453   2.805   8.471 -0.2607  0.1442  0.4460
 1362TIP3    H125721   1.365   2.769   8.462  0.0070 -0.1968 -1.0994
 1362TIP3    H225722   1.441   2.900   8.465 -0.6410  0.1754  1.5157
 1363TIP3   OH225723   2.740   1.434   0.411  0.2038  0.5451  0.9304
 1363TIP3    H125724   2.721   1.499   0.478 -2.1989 -0.2005  1.0697
 1363TIP3    H225725   2.813   1.471   0.361  0.1818  2.4073  2.1957
 1364TIP3   OH225726   3.080   1.750   8.376 -0.4988 -0.0616  0.3711
 1364TIP3    H125727   3.163   1.770   8.333  0.1169  1.4277  2.1587
 1364TIP3    H225728   3.014   1.780   8.313  0.2099 -1.9604 -1.4083
 1365TIP3   OH225729   3.777   2.669   0.577 -0.7778 -0.3277  0.1677
 1365TIP3    H125730   3.742   2.685   0.664 -0.0967 -0.8322  0.5445
 1365TIP3    H225731   3.863   2.712   0.577  0.4679 -2.6531  0.7239
 1366TIP3   OH225732   3.957   5.617   2.365 -0.0884  0.1065 -0.1580
 1366TIP3    H125733   3.885   5.679   2.363  0.3320  0.5905 -1.2776
 1366TIP3    H225734   3.971   5.599   2.458 -0.6291  1.1946  0.1508
 1367TIP3   OH225735   1.630   3.628   1.589  0.4858  0.2236  0.2326
 1367TIP3    H125736   1.660   3.614   1.499  1.6320 -0.1296  0.6566
 1367TIP3    H225737   1.609   3.540   1.620  1.9301  0.0943  0.9232
 1368TIP3   OH225738   4.322   2.475   7.717 -0.0837 -0.2855  0.1302
 1368TIP3    H125739   4.373   2.394   7.718 -1.1143 -1.1515 -3.0560
 1368TIP3    H225740   4.293   2.487   7.807 -0.0951 -3.6310  0.7003
 1369TIP3   OH225741   5.053   4.583   7.366 -0.1627  0.0331 -0.3606
 1369TIP3    H125742   5.109   4.659   7.352 -1.3037  0.8917 -0.4654
 1369TIP3    H225743   5.049   4.540   7.281 -1.4723  1.2788 -0.9792
 1370TIP3   OH225744   0.721   6.379   7.470  0.1561 -0.0791  0.1160
 1370TIP3    H125745   0.768   6.369   7.553 -0.0675 -0.2386  0.2267
 1370TIP3    H225746   0.770   6.325   7.408  1.1907  1.2213 -0.2251
 1371TIP3   OH225747   5.036   0.318   1.284  0.0327  0.2337 -0.3127
 1371TIP3    H125748   5.033   0.236   1.333 -1.7081  0.4663  0.0013
 1371TIP3    H225749   5.125   0.351   1.298  0.3350 -0.9280  0.6339
 1372TIP3   OH225750   1.870   4.419   3.078  0.7265 -0.5398  0.6675
 1372TIP3    H125751   1.825   4.491   3.122 -1.2437 -2.0683  1.2945
 1372TIP3    H225752   1.886   4.355   3.147  0.1654 -1.7573 -0.2973
 1373TIP3   OH225753   3.117   0.832   8.247  0.0667  0.3751  0.1087
 1373TIP3    H125754   3.178   0.835   8.172  0.2585 -3.0011 -0.0342
 1373TIP3    H225755   3.091   0.923   8.260  2.6927  1.5531 -1.8550
 1374TIP3   OH225756   0.138   6.809   7.849 -0.2134  0.3710 -0.0293
 1374TIP3    H125757   0.103   6.731   7.807 -1.3255 -0.5967  2.4996
 1374TIP3    H225758   0.231   6.790   7.862 -0.5976 -0.8215  1.1098
 1375TIP3   OH225759   4.753   6.297   1.852  0.1364  0.3733 -0.1850
 1375TIP3    H125760   4.734   6.277   1.760  1.0610  3.2357 -1.1189
 1375TIP3    H225761   4.833   6.247   1.870 -0.1036 -0.3006 -0.8843
 1376TIP3   OH225762   6.418   4.995   1.855  0.4629 -0.4847  0.2349
 1376TIP3    H125763   6.480   5.057   1.893  2.2315 -2.1484  0.2283
 1376TIP3    H225764   6.472   4.936   1.803 -1.4800 -0.3851 -2.0476
 1377TIP3   OH225765   5.983   4.364   0.343 -0.1148  0.0313  0.0591
 1377TIP3    H125766   5.928   4.286   0.342 -0.1236 -0.1777  3.6775
 1377TIP3    H225767   5.921   4.437   0.338 -0.5458 -0.2184  1.3808
 1378TIP3   OH225768   5.085   0.335   2.209  0.4608  0.0352 -0.9343
 1378TIP3    H125769   5.109   0.286   2.130  0.3045  1.1050 -1.6656
 1378TIP3    H225770   5.048   0.417   2.176 -0.4705  0.1115  0.2466
 1379TIP3   OH225771   1.884   1.845   7.443 -0.1222  0.2813  0.0826
 1379TIP3    H125772   1.825   1.770   7.452  1.4270 -0.8130  1.8348
 1379TIP3    H225773   1.875   1.871   7.351 -1.8727 -1.0490 -0.1765
 1380TIP3   OH225774   6.896   6.716   0.101 -0.0347  0.7905  0.3469
 1380TIP3    H125775   6.917   6.627   0.074 -3.9459  0.5096 -2.6772
 1380TIP3    H225776   6.829   6.706   0.168  0.1675  1.4500  0.6552
 1381TIP3   OH225777   6.099   0.409   7.726 -0.2486 -0.3793 -0.0757
 1381TIP3    H125778   6.119   0.477   7.791 -0.5598  0.2887 -0.6628
 1381TIP3    H225779   6.004   0.402   7.729 -0.3633  0.4285 -1.2046
 1382TIP3   OH225780   0.922   0.601   2.404  0.6050  0.5130  0.2170
 1382TIP3    H125781   0.884   0.688   2.387 -0.3971  0.2534  1.0506
 1382TIP3    H225782   0.863   0.561   2.468  1.4623 -0.5065  0.3959
 1383TIP3   OH225783   0.589   4.507   1.965 -0.6889  0.4383  0.0984
 1383TIP3    H125784   0.522   4.504   2.032 -0.7621 -0.8062  0.0060
 1383TIP3    H225785   0.561   4.442   1.900  0.2470  0.3812 -0.2722
 1384TIP3   OH225786   4.213   3.986   0.674 -0.1800 -0.4320 -0.4810
 1384TIP3    H125787   4.258   3.901   0.675 -0.9196 -0.8531 -1.2740
 1384TIP3    H225788   4.136   3.971   0.619 -1.5347  0.1400  1.1750
 1385TIP3   OH225789   4.741   4.469   2.314 -0.1465  0.2342 -0.2292
 1385TIP3    H125790   4.747   4.403   2.246  1.8982  1.1471 -1.0377
 1385TIP3    H225791   4.667   4.442   2.368  0.7110 -2.7938 -0.3971
 1386TIP3   OH225792   2.553   6.548   1.824 -0.0211 -0.0663 -0.1873
 1386TIP3    H125793   2.596   6.634   1.818  0.3787 -0.1577  1.1180
 1386TIP3    H225794   2.460   6.568   1.814  0.0999  0.4814 -0.2776
 1387TIP3   OH225795   0.118   3.478   7.151 -0.1052  0.0838  0.1174
 1387TIP3    H125796   0.190   3.416   7.134  0.8679  1.3936 -0.6887
 1387TIP3    H225797   0.063   3.473   7.073 -0.1069  0.1323  0.1154
 1388TIP3   OH225798   1.835   5.380   1.128  0.1534 -0.1749  0.0059
 1388TIP3    H125799   1.772   5.397   1.058  1.3833 -0.0278 -1.0858
 1388TIP3    H225800   1.789   5.407   1.208 -1.8553 -1.8163 -0.5179
 1389TIP3   OH225801   3.233   3.639   2.471 -0.1228 -0.1613 -0.0372
 1389TIP3    H125802   3.244   3.567   2.532 -0.5587 -0.3773 -0.2060
 1389TIP3    H225803   3.139   3.638   2.449 -0.3025  0.9560  0.5688
 1390TIP3   OH225804   3.697   4.434   2.632 -0.1789 -0.6653  0.0332
 1390TIP3    H125805   3.754   4.358   2.625  0.5062 -0.0351 -1.9977
 1390TIP3    H225806   3.622   4.412   2.576  0.1300  0.1988 -0.7474
 1391TIP3   OH225807   6.340   0.850   1.051 -0.0324 -0.3439 -0.1747
 1391TIP3    H125808   6.430   0.867   1.079 -0.8250  1.6759  1.3976
 1391TIP3    H225809   6.343   0.763   1.010  2.7269 -0.0283 -0.7696
 1392TIP3   OH225810   5.892   1.229   1.808  0.1637 -0.1116 -0.7824
 1392TIP3    H125811   5.958   1.185   1.755  1.1028 -0.3407  0.5146
 1392TIP3    H225812   5.834   1.158   1.837 -0.5830  0.0659 -1.7763
 1393TIP3   OH225813   6.899   6.177   8.299 -0.3273 -0.5005  0.0021
 1393TIP3    H125814   6.846   6.210   8.227 -0.9965 -1.2203  0.1426
 1393TIP3    H225815   6.968   6.125   8.257 -0.4320 -0.5243 -0.1408
 1394TIP3   OH225816   2.427   2.184   7.441  0.5102  0.5029 -0.4785
 1394TIP3    H125817   2.420   2.120   7.511 -0.0962  0.3968 -0.6282
 1394TIP3    H225818   2.399   2.267   7.480  1.2872  0.6823 -0.2866
 1395TIP3   OH225819   3.037   1.175   0.360 -0.1215  0.2698  0.1689
 1395TIP3    H125820   3.005   1.151   0.273 -1.3662 -1.5126  1.0513
 1395TIP3    H225821   2.957   1.195   0.410  0.2389 -1.8990  1.7644
 1396TIP3   OH225822   1.988   4.140   2.204  0.0402 -0.2952  0.1377
 1396TIP3    H125823   1.915   4.077   2.203  1.6872 -2.3724  1.7643
 1396TIP3    H225824   1.976   4.189   2.285 -1.6162  2.1558 -1.4341
 1397TIP3   OH225825   0.060   5.823   1.619  0.0671 -0.2917  0.1187
 1397TIP3    H125826   0.087   5.870   1.540 -0.7346  1.8036  1.0142
 1397TIP3    H225827   0.138   5.775   1.647  2.1318  3.2338  1.0237
 1398TIP3   OH225828   0.872   1.343   0.921 -0.4061  0.5761  0.0509
 1398TIP3    H125829   0.948   1.319   0.973 -0.2582  2.1852  0.6363
 1398TIP3    H225830   0.798   1.306   0.968  0.0477 -2.1584 -1.2276
 1399TIP3   OH225831   1.960   2.535   7.793  0.9073 -0.4981 -0.1923
 1399TIP3    H125832   1.871   2.515   7.821  0.8801  0.0829  0.1555
 1399TIP3    H225833   1.950   2.575   7.707  0.7481  0.4416  0.2510
 1400TIP3   OH225834   6.618   1.635   2.461 -0.0596 -0.2418  1.1747
 1400TIP3    H125835   6.713   1.637   2.454 -0.1844  0.0016 -1.1441
 1400TIP3    H225836   6.593   1.548   2.432 -0.6696  0.7676 -1.6375
 1401TIP3   OH225837   4.042   3.047   2.370  0.2545 -0.8451 -0.7465
 1401TIP3    H125838   3.954   3.073   2.397  0.9828  3.1635 -1.5329
 1401TIP3    H225839   4.100   3.084   2.437  1.5449  1.6608 -3.0433
 1402TIP3   OH225840   1.507   0.148   7.440  0.0731  0.1047 -0.4301
 1402TIP3    H125841   1.411   0.146   7.448 -0.1028  2.5997 -1.1623
 1402TIP3    H225842   1.538   0.124   7.527 -1.2864  1.4946  0.4997
 1403TIP3   OH225843   2.625   1.382   7.078 -0.4904 -0.4103 -0.0505
 1403TIP3    H125844   2.700   1.325   7.097  0.7592  1.4547  0.9223
 1403TIP3    H225845   2.647   1.422   6.994 -0.0355  0.6305  0.5445
 1404TIP3   OH225846   6.446   4.909   0.317  0.2995 -0.2740 -0.9739
 1404TIP3    H125847   6.401   4.979   0.269 -0.2046 -0.2051 -0.4174
 1404TIP3    H225848   6.523   4.889   0.264 -0.1600 -0.0944 -1.7317
 1405TIP3   OH225849   2.147   2.954   0.098 -0.0928 -0.2690 -0.2538
 1405TIP3    H125850   2.164   2.879   0.156 -0.4607 -0.1841 -0.0323
 1405TIP3    H225851   2.080   2.922   0.038 -0.2878 -0.1015 -0.1258
 1406TIP3   OH225852   5.406   3.938   8.296 -0.0817  0.1053  0.6406
 1406TIP3    H125853   5.432   3.900   8.211 -1.5993  0.1504  0.1312
 1406TIP3    H225854   5.456   4.019   8.302 -0.2543  0.3008 -0.4051
 1407TIP3   OH225855   0.776   2.173   1.141 -0.3035  0.0947  0.1129
 1407TIP3    H125856   0.695   2.225   1.148 -0.0532  0.8516 -1.9442
 1407TIP3    H225857   0.745   2.083   1.136 -0.8648  0.1712  1.6349
 1408TIP3   OH225858   1.984   4.778   8.420 -0.0550  0.0127  0.1674
 1408TIP3    H125859   2.045   4.712   8.388 -0.8280 -0.1221 -1.1312
 1408TIP3    H225860   2.024   4.861   8.396  0.8484  0.0520  1.6735
 1409TIP3   OH225861   6.873   2.333   2.179  0.4239 -0.0350  0.3773
 1409TIP3    H125862   6.787   2.307   2.145  0.4649 -1.2333  1.1261
 1409TIP3    H225863   6.929   2.258   2.161  0.9381  0.1361  1.2444
 1410TIP3   OH225864   5.455   3.620   0.022  0.1590  0.0405  0.1493
 1410TIP3    H125865   5.375   3.662   0.054  0.8313  1.8043 -0.3600
 1410TIP3    H225866   5.523   3.686   0.035  1.1380 -0.6234 -1.3970
 1411TIP3   OH225867   3.140   3.386   2.297 -0.6119 -0.1651 -0.0865
 1411TIP3    H125868   3.153   3.313   2.358  0.1482  0.8343  0.9993
 1411TIP3    H225869   3.047   3.382   2.274 -0.8003 -0.8739  0.7441
 1412TIP3   OH225870   4.850   0.092   2.776 -0.2829 -0.0087  0.0924
 1412TIP3    H125871   4.786   0.032   2.739  0.6079 -0.7650 -0.2527
 1412TIP3    H225872   4.919   0.036   2.810  0.5754  0.8150 -0.2327
 1413TIP3   OH225873   6.905   3.405   1.014  0.3173 -0.1278 -0.7312
 1413TIP3    H125874   6.874   3.362   1.093 -0.3019  0.3867 -0.6832
 1413TIP3    H225875   6.829   3.404   0.955  0.3499  0.7117 -0.7951
 1414TIP3   OH225876   5.722   0.620   7.343 -0.2218 -0.3765  0.3959
 1414TIP3    H125877   5.750   0.537   7.382 -0.3621 -0.2952  0.6636
 1414TIP3    H225878   5.701   0.676   7.417  2.5602  0.8765  0.3717
 1415TIP3   OH225879   3.004   3.750   7.363  0.5086 -0.2427 -0.2657
 1415TIP3    H125880   2.931   3.753   7.425 -0.1527  1.3140 -1.0622
 1415TIP3    H225881   3.006   3.659   7.332 -2.4453  0.1168 -1.7694
 1416TIP3   OH225882   3.265   0.711   0.733 -0.3377  0.1619  0.1317
 1416TIP3    H125883   3.339   0.652   0.742 -0.4069 -0.2689 -1.7400
 1416TIP3    H225884   3.289   0.771   0.663 -1.3085  0.7385  0.2606
 1417TIP3   OH225885   1.882   5.022   7.391  0.4678  0.3115  0.2772
 1417TIP3    H125886   1.802   5.048   7.436  0.4468  3.3496 -1.2351
 1417TIP3    H225887   1.916   5.104   7.354  2.3499 -1.4072 -2.1344
 1418TIP3   OH225888   4.078   3.870   0.474  0.2251  0.3044  0.3299
 1418TIP3    H125889   4.013   3.800   0.466  0.0484  0.5059 -0.0593
 1418TIP3    H225890   4.156   3.826   0.507  0.1592 -0.1035 -0.0394
 1419TIP3   OH225891   0.109   3.524   0.739 -0.0774 -0.1738  0.4180
 1419TIP3    H125892   0.023   3.566   0.741  0.1746  0.3701  2.0990
 1419TIP3    H225893   0.090   3.430   0.735 -0.6627 -0.0262 -2.3118
 1420TIP3   OH225894   0.301   1.615   1.853  0.4958  0.0144 -0.2750
 1420TIP3    H125895   0.269   1.661   1.931 -4.9035 -1.4034 -1.2315
 1420TIP3    H225896   0.317   1.526   1.883 -0.0410 -0.1445 -0.4448
 1421TIP3   OH225897   4.774   0.262   0.526  0.0837  0.1003 -0.0306
 1421TIP3    H125898   4.782   0.354   0.551 -0.8627  0.0831  0.3639
 1421TIP3    H225899   4.680   0.246   0.522  0.2349 -0.7368 -0.5487
 1422TIP3   OH225900   0.498   6.128   2.300 -0.1764 -0.0981  0.5949
 1422TIP3    H125901   0.526   6.038   2.317  3.0704  0.5899 -0.4747
 1422TIP3    H225902   0.518   6.175   2.381 -1.4457 -0.2130  0.9923
 1423TIP3   OH225903   2.302   6.679   6.391 -0.4999 -0.2819  0.1168
 1423TIP3    H125904   2.242   6.614   6.355  2.0117 -1.7367 -1.7587
 1423TIP3    H225905   2.345   6.635   6.464 -0.4222  0.0811  0.2933
 1424TIP3   OH225906   1.630   1.570   0.392 -0.3339 -0.8137  0.4267
 1424TIP3    H125907   1.657   1.625   0.466 -1.2076 -0.1448  0.2616
 1424TIP3    H225908   1.538   1.593   0.377  0.1289 -0.0439 -1.6204
 1425TIP3   OH225909   5.227   4.355   1.917 -0.3490 -0.5622  0.0430
 1425TIP3    H125910   5.164   4.389   1.980  0.8769  1.7787  0.0805
 1425TIP3    H225911   5.292   4.309   1.970  1.9884  3.3820  0.9476
 1426TIP3   OH225912   5.408   4.967   7.515  0.1100 -0.1417  0.2351
 1426TIP3    H125913   5.379   5.058   7.510 -0.7464 -0.3366  1.3475
 1426TIP3    H225914   5.435   4.946   7.426  0.2174  1.1605 -0.0620
 1427TIP3   OH225915   3.049   4.318   1.075  0.7822  0.0196 -0.0193
 1427TIP3    H125916   3.054   4.228   1.044 -0.7146  0.1352 -0.7118
 1427TIP3    H225917   3.076   4.315   1.166  0.6176 -1.1489 -0.0026
 1428TIP3   OH225918   2.707   4.134   2.927  0.4775  0.0431  0.2283
 1428TIP3    H125919   2.731   4.092   2.844 -0.5077  0.1612 -0.1330
 1428TIP3    H225920   2.756   4.216   2.928 -0.6079  0.7460 -0.9573
 1429TIP3   OH225921   3.450   4.269   8.209 -0.0047 -0.1233 -0.1521
 1429TIP3    H125922   3.436   4.224   8.126  0.2256 -0.3294 -0.0843
 1429TIP3    H225923   3.502   4.346   8.187 -0.9631  0.4811 -0.3621
 1430TIP3   OH225924   2.465   0.680   0.487  0.0125  0.1314 -0.1802
 1430TIP3    H125925   2.515   0.762   0.495  0.1322  0.0619 -0.2200
 1430TIP3    H225926   2.401   0.685   0.558  1.2349 -0.5908  1.0165
 1431TIP3   OH225927   6.208   2.280   7.086 -0.1546  0.0624 -0.0822
 1431TIP3    H125928   6.195   2.262   6.993  0.0665  1.5112 -0.4321
 1431TIP3    H225929   6.127   2.323   7.115 -0.4938 -0.9896  0.5836
 1432TIP3   OH225930   3.813   6.799   1.922 -0.0163  0.4422  0.4141
 1432TIP3    H125931   3.900   6.761   1.928  0.1315 -0.2279 -3.6327
 1432TIP3    H225932   3.825   6.880   1.873 -1.5461  0.9984  0.9012
 1433TIP3   OH225933   6.600   0.220   1.366 -0.2035 -0.1754 -0.6223
 1433TIP3    H125934   6.677   0.276   1.362  0.6386 -1.1197  1.0949
 1433TIP3    H225935   6.635   0.131   1.372 -1.3884 -0.6094  0.3724
 1434TIP3   OH225936   3.930   1.654   1.169 -0.1964  0.4898 -0.2368
 1434TIP3    H125937   4.013   1.689   1.138  0.6161 -2.1721 -1.3296
 1434TIP3    H225938   3.864   1.702   1.121  0.6790  2.4748  0.4585
 1435TIP3   OH225939   4.012   2.784   0.501  0.3218 -0.1875 -0.0435
 1435TIP3    H125940   4.103   2.762   0.515 -0.4033 -1.4193  3.9108
 1435TIP3    H225941   4.009   2.880   0.509  1.1152 -0.2460  1.1435
 1436TIP3   OH225942   3.368   1.687   2.141 -0.1398 -0.4329  0.1806
 1436TIP3    H125943   3.458   1.668   2.116  0.0831 -1.0789  1.3919
 1436TIP3    H225944   3.361   1.782   2.138  1.0416 -0.2816  1.5432
 1437TIP3   OH225945   5.185   5.644   0.476 -0.8256 -0.0324 -0.5703
 1437TIP3    H125946   5.190   5.736   0.449  1.2039  0.2210  0.4379
 1437TIP3    H225947   5.155   5.647   0.567 -3.1395 -0.5832 -1.2451
 1438TIP3   OH225948   2.777   3.737   1.017 -0.5038 -0.0289 -0.1941
 1438TIP3    H125949   2.683   3.752   1.011 -0.5959  0.1606  1.3574
 1438TIP3    H225950   2.815   3.825   1.025 -0.5615 -0.1953  3.0963
 1439TIP3   OH225951   4.960   3.296   0.295  0.4777  0.5997 -0.9649
 1439TIP3    H125952   4.883   3.331   0.338 -0.5518  0.4316 -2.6075
 1439TIP3    H225953   5.023   3.368   0.296 -1.2587  2.2779 -3.4643
 1440TIP3   OH225954   3.223   1.452   8.303  0.2815 -0.3572 -0.2891
 1440TIP3    H125955   3.314   1.422   8.306  0.6212  0.7046  0.3445
 1440TIP3    H225956   3.228   1.543   8.275 -0.6870 -0.6523 -1.4788
 1441TIP3   OH225957   2.999   6.478   1.428 -0.1469  0.1272 -0.3320
 1441TIP3    H125958   3.033   6.525   1.352  0.9731 -1.0777 -0.6338
 1441TIP3    H225959   3.073   6.423   1.457 -1.1995 -0.9976  0.3331
 1442TIP3   OH225960   3.354   5.527   7.986 -0.2659  0.0258  0.3820
 1442TIP3    H125961   3.378   5.543   7.894  0.1904  0.5902  0.5985
 1442TIP3    H225962   3.318   5.610   8.016  0.6265  0.1816  1.0442
 1443TIP3   OH225963   5.653   0.165   1.749 -0.3352 -0.2684 -0.0876
 1443TIP3    H125964   5.733   0.114   1.739 -1.5886 -2.0367 -1.9792
 1443TIP3    H225965   5.593   0.106   1.795 -0.4594  1.1943  1.7270
 1444TIP3   OH225966   5.740   2.908   0.365  0.1438 -0.2967 -0.2876
 1444TIP3    H125967   5.786   2.825   0.384 -1.3990 -1.9094 -2.8823
 1444TIP3    H225968   5.797   2.952   0.301  1.6411  1.4417  2.0907
 1445TIP3   OH225969   6.838   3.086   8.235  0.1892  0.3140 -0.2463
 1445TIP3    H125970   6.795   3.017   8.184  1.9495 -0.4085 -0.8043
 1445TIP3    H225971   6.911   3.043   8.278  2.1921  2.0310 -1.6795
 1446TIP3   OH225972   1.691   4.585   1.251 -0.0188 -0.9318  0.0982
 1446TIP3    H125973   1.661   4.561   1.338 -0.0248  0.2446  0.4440
 1446TIP3    H225974   1.774   4.630   1.266  0.4083 -1.4847 -0.5839
 1447TIP3   OH225975   2.912   5.473   0.400  0.1297  0.5151 -0.2046
 1447TIP3    H125976   2.817   5.457   0.396 -0.0381  1.0528  1.0756
 1447TIP3    H225977   2.920   5.556   0.448  1.2829 -0.1063  0.7306
 1448TIP3   OH225978   5.327   1.744   1.668  0.1931  0.4894 -0.6054
 1448TIP3    H125979   5.357   1.752   1.759  0.5350  0.1308 -0.6843
 1448TIP3    H225980   5.238   1.778   1.669  0.2943  0.7536 -0.1908
 1449TIP3   OH225981   5.525   1.269   7.655 -0.4331 -0.2887 -0.0082
 1449TIP3    H125982   5.588   1.201   7.677  0.8376  0.2827 -1.6669
 1449TIP3    H225983   5.578   1.349   7.651 -1.5638  0.4756  0.0896
 1450TIP3   OH225984   3.215   2.444   2.023 -0.4410 -0.2157  0.1045
 1450TIP3    H125985   3.135   2.484   1.989 -0.3801 -0.0773  0.1230
 1450TIP3    H225986   3.268   2.518   2.053 -1.5229 -0.4314  2.8285
 1451TIP3   OH225987   6.376   0.286   1.629 -0.6807  0.6454  0.5751
 1451TIP3    H125988   6.334   0.240   1.556 -2.6368  1.4208  1.1261
 1451TIP3    H225989   6.303   0.307   1.688  0.3775  2.9035  1.1857
 1452TIP3   OH225990   5.422   4.571   0.999 -0.1397 -0.1562  0.5541
 1452TIP3    H125991   5.461   4.648   1.040 -1.1664  0.2564  0.8010
 1452TIP3    H225992   5.342   4.555   1.049 -1.6531  0.5867 -1.4632
 1453TIP3   OH225993   6.138   0.321   1.756 -0.1901 -0.8108 -0.3910
 1453TIP3    H125994   6.043   0.310   1.764 -0.1027 -1.4433 -0.1402
 1453TIP3    H225995   6.175   0.245   1.801  0.4552  0.2136  0.8895
 1454TIP3   OH225996   5.034   5.790   7.242  0.1636 -0.3912 -0.3580
 1454TIP3    H125997   5.025   5.713   7.297  0.7972  0.4608  0.9750
 1454TIP3    H225998   5.127   5.794   7.220 -0.1829 -1.1597 -2.2083
 1455TIP3   OH225999   5.134   1.246   1.737  0.0410  0.0019 -0.1410
 1455TIP3    H126000   5.176   1.254   1.652 -1.1504 -1.9372 -0.9693
 1455TIP3    H226001   5.137   1.334   1.774  2.0607  0.5436 -1.4427
 1456TIP3   OH226002   2.856   3.373   2.266  0.3489  0.2094  0.0710
 1456TIP3    H126003   2.786   3.310   2.248 -0.8959  0.7973  2.4489
 1456TIP3    H226004   2.813   3.459   2.258  0.3605  0.5615  2.7030
 1457TIP3   OH226005   6.049   5.251   0.991  1.1012 -0.1869  0.3848
 1457TIP3    H126006   6.088   5.339   0.989 -0.1768  0.4443 -2.5004
 1457TIP3    H226007   6.109   5.197   0.941  0.4203 -0.1760 -0.4848
 1458TIP3   OH226008   0.918   6.520   6.784 -0.4743  0.5853 -0.2575
 1458TIP3    H126009   0.890   6.544   6.695 -1.6607  0.6738  0.1254
 1458TIP3    H226010   1.013   6.512   6.777 -0.7011 -1.9660 -2.1885
 1459TIP3   OH226011   5.426   6.675   0.478 -0.3120  0.4083 -0.4670
 1459TIP3    H126012   5.450   6.747   0.419  0.9765  1.5101  1.2745
 1459TIP3    H226013   5.338   6.698   0.508 -0.9884 -0.1723 -1.8956
 1460TIP3   OH226014   6.262   4.432   1.801  0.6646  0.7164 -0.0363
 1460TIP3    H126015   6.311   4.514   1.808  0.5008  0.6936  1.8495
 1460TIP3    H226016   6.172   4.459   1.779  0.9431  0.9196 -0.9651
 1461TIP3   OH226017   2.554   1.941   0.739 -0.2151 -0.2171  0.1282
 1461TIP3    H126018   2.481   1.994   0.706  0.5034  1.5179  1.2188
 1461TIP3    H226019   2.610   1.927   0.663  0.1887  1.6483  0.0422
 1462TIP3   OH226020   5.572   2.303   1.542 -0.5903 -0.5564 -0.2015
 1462TIP3    H126021   5.530   2.318   1.627 -1.9217 -0.3362 -0.8623
 1462TIP3    H226022   5.533   2.221   1.511  0.8752 -1.3544 -0.0427
 1463TIP3   OH226023   2.134   3.014   1.250  0.0899 -0.4697  0.2907
 1463TIP3    H126024   2.227   3.034   1.249  0.3572 -1.6252 -0.1176
 1463TIP3    H226025   2.095   3.079   1.191  0.5141  0.4969  1.0545
 1464TIP3   OH226026   6.628   0.102   0.058  0.2353 -0.5417 -0.1884
 1464TIP3    H126027   6.550   0.156   0.046 -0.8886 -2.2539 -0.9517
 1464TIP3    H226028   6.675   0.109  -0.025 -1.1936 -2.6134 -1.2531
 1465TIP3   OH226029   2.671   0.704   2.563 -0.6284 -0.1359 -0.0004
 1465TIP3    H126030   2.692   0.797   2.576  0.5996 -0.2725 -0.9310
 1465TIP3    H226031   2.576   0.703   2.552 -0.4683  1.3072 -2.1755
 1466TIP3   OH226032   0.597   3.918   2.758  0.4484  0.0830 -0.4697
 1466TIP3    H126033   0.636   3.897   2.843 -0.3051 -0.6826 -0.2885
 1466TIP3    H226034   0.547   3.998   2.773  0.6082  0.1469 -0.2803
 1467TIP3   OH226035   3.156   1.882   7.731  0.2860  0.1847 -0.0059
 1467TIP3    H126036   3.204   1.837   7.800  0.1134 -4.0172 -2.3370
 1467TIP3    H226037   3.070   1.901   7.769  1.1297  0.6031  1.7566
 1468TIP3   OH226038   3.779   2.751   0.297 -0.5087  0.5954 -0.6187
 1468TIP3    H126039   3.849   2.809   0.326  0.4237 -1.1554  0.8348
 1468TIP3    H226040   3.761   2.695   0.373 -1.8582 -0.5523 -1.7220
 1469TIP3   OH226041   3.298   0.324   2.047  0.4856 -0.1068 -0.3327
 1469TIP3    H126042   3.353   0.250   2.071  0.2537 -0.1510  0.0592
 1469TIP3    H226043   3.217   0.283   2.014  0.6388 -0.0401 -0.8034
 1470TIP3   OH226044   2.497   3.765   0.419 -0.6662  0.8300  0.2384
 1470TIP3    H126045   2.568   3.804   0.367  1.1638 -1.7667  0.5849
 1470TIP3    H226046   2.426   3.829   0.415  1.0164  2.7263 -1.7007
 1471TIP3   OH226047   2.870   0.940   1.579 -0.2886 -0.7364 -0.1609
 1471TIP3    H126048   2.928   1.015   1.590 -1.2003  0.3788 -2.3071
 1471TIP3    H226049   2.805   0.949   1.648  0.2860 -0.2247  0.3246
 1472TIP3   OH226050   5.681   6.249   0.842  0.5023  0.3887 -0.4656
 1472TIP3    H126051   5.746   6.235   0.774 -1.6540 -0.6988 -2.4706
 1472TIP3    H226052   5.640   6.164   0.855 -0.9100  1.1303  0.2465
 1473TIP3   OH226053   5.678   2.950   2.653 -0.0815  0.3579  0.2657
 1473TIP3    H126054   5.726   2.867   2.645 -0.5689 -0.1447  2.0018
 1473TIP3    H226055   5.617   2.935   2.726 -0.4998  2.0988  0.3135
 1474TIP3   OH226056   4.396   5.791   1.627  0.3763  0.1358  0.5349
 1474TIP3    H126057   4.467   5.757   1.572  0.3126 -0.6155  0.9040
 1474TIP3    H226058   4.385   5.882   1.598  1.1996  0.1382  0.1821
 1475TIP3   OH226059   6.066   6.194   2.075  0.3417  0.4939  0.2191
 1475TIP3    H126060   6.094   6.204   1.984 -0.7603 -0.2626 -0.2151
 1475TIP3    H226061   6.103   6.110   2.102  0.0435  0.3679  0.2336
 1476TIP3   OH226062   4.385   6.646   2.343 -0.2420 -0.3438  0.2889
 1476TIP3    H126063   4.310   6.627   2.398 -2.0029  2.1354 -1.0866
 1476TIP3    H226064   4.432   6.716   2.389  0.0053 -0.3882  0.1073
 1477TIP3   OH226065   5.443   3.292   8.121 -0.5902  0.1676  0.1558
 1477TIP3    H126066   5.405   3.275   8.207  3.8780  0.4536  2.4977
 1477TIP3    H226067   5.486   3.210   8.097 -0.8416  0.4371 -1.2968
 1478TIP3   OH226068   0.656   2.634   6.561  0.1035  0.4304 -0.6351
 1478TIP3    H126069   0.702   2.717   6.572  2.3399 -0.9408  1.3135
 1478TIP3    H226070   0.574   2.645   6.608  0.4837  1.4721 -0.1845
 1479TIP3   OH226071   4.621   0.176   1.222  0.4683 -0.2118 -0.2175
 1479TIP3    H126072   4.592   0.187   1.313 -1.7038 -1.5014 -0.6791
 1479TIP3    H226073   4.716   0.185   1.226  0.3610  0.6192  2.0413
 1480TIP3   OH226074   4.698   3.619   2.280  0.1898  0.6398  0.1244
 1480TIP3    H126075   4.784   3.663   2.282  0.5037  0.0068  0.7068
 1480TIP3    H226076   4.636   3.689   2.260  0.6154  1.4817  1.6054
 1481TIP3   OH226077   5.551   5.036   6.710  0.1041 -0.1178 -0.3201
 1481TIP3    H126078   5.488   4.965   6.697  0.3113 -0.3265 -0.1825
 1481TIP3    H226079   5.522   5.079   6.791  0.8225 -0.9384  0.3797
 1482TIP3   OH226080   4.414   4.293   0.962  0.5672  0.3033 -0.0947
 1482TIP3    H126081   4.477   4.354   0.999  0.3684 -0.7125  2.0801
 1482TIP3    H226082   4.338   4.299   1.020  0.5141 -1.9051  0.1304
 1483TIP3   OH226083   3.322   0.631   1.054 -0.5875  0.3136  0.0648
 1483TIP3    H126084   3.378   0.687   1.107 -2.1319  1.1435  0.8998
 1483TIP3    H226085   3.343   0.655   0.964  0.3728  0.6199  0.3601
 1484TIP3   OH226086   6.044   6.661   1.830  0.3182  0.3231 -0.3627
 1484TIP3    H126087   6.009   6.586   1.878 -1.4588  2.2726  1.6057
 1484TIP3    H226088   6.139   6.647   1.830 -0.0124 -2.3040 -0.8188
 1485TIP3   OH226089   4.584   1.571   1.082 -0.0647 -0.1684 -0.0934
 1485TIP3    H126090   4.569   1.636   1.014 -0.7280  0.6962  0.8523
 1485TIP3    H226091   4.677   1.578   1.103  0.1273 -0.3909 -0.8355
 1486TIP3   OH226092   3.061   1.443   7.226  0.0433  0.4871  0.1893
 1486TIP3    H126093   3.108   1.386   7.165  0.0065  1.4726 -0.7825
 1486TIP3    H226094   3.069   1.530   7.188 -1.0709  0.9296  0.9424
 1487TIP3   OH226095   5.578   0.344   1.162  0.2820  0.8240  0.7422
 1487TIP3    H126096   5.581   0.308   1.073  0.1673 -2.2276  1.8567
 1487TIP3    H226097   5.608   0.434   1.152  2.2117  0.0272 -2.1320
 1488TIP3   OH226098   5.909   3.276   7.437 -0.5848 -0.0281 -0.3750
 1488TIP3    H126099   5.950   3.273   7.350 -1.6779 -1.7315 -0.8906
 1488TIP3    H226100   5.972   3.232   7.494 -0.4000  0.0136 -0.5438
 1489TIP3   OH226101   5.245   3.507   7.860  0.1683 -0.4306  0.4171
 1489TIP3    H126102   5.319   3.510   7.921 -0.6858 -1.1748  1.5121
 1489TIP3    H226103   5.272   3.443   7.794  0.5274 -0.6623  0.7805
 1490TIP3   OH226104   6.562   6.166   1.441 -0.6564  0.1503  0.2308
 1490TIP3    H126105   6.508   6.088   1.458 -0.6464  0.3214  1.1407
 1490TIP3    H226106   6.569   6.171   1.346 -1.2578 -0.5529  0.1413
 1491TIP3   OH226107   0.939   3.896   7.942 -0.5476  0.2393 -0.3796
 1491TIP3    H126108   1.003   3.866   8.006 -0.4057 -0.4843 -0.8445
 1491TIP3    H226109   0.988   3.899   7.859 -1.5726 -2.3452 -1.1660
 1492TIP3   OH226110   3.619   5.297   0.554  0.6496  0.6056 -0.2447
 1492TIP3    H126111   3.616   5.320   0.461 -2.5190 -0.5217 -0.5199
 1492TIP3    H226112   3.631   5.202   0.556 -1.1777  0.3482  0.3816
 1493TIP3   OH226113   3.712   5.357   0.972  0.3912  0.3348 -0.3081
 1493TIP3    H126114   3.622   5.325   0.969  0.4843 -0.8111  3.8187
 1493TIP3    H226115   3.760   5.299   0.913 -1.3978  0.5751 -2.1081
 1494TIP3   OH226116   0.422   0.868   2.083  0.0797 -0.7687 -0.3878
 1494TIP3    H126117   0.331   0.840   2.067 -0.4821  0.0201  1.2067
 1494TIP3    H226118   0.418   0.913   2.167  1.8977 -0.3616 -0.4943
 1495TIP3   OH226119   1.115   4.168   0.063  0.1803 -0.4746 -0.9026
 1495TIP3    H126120   1.133   4.260   0.082  0.0964 -0.3867 -1.2352
 1495TIP3    H226121   1.024   4.168   0.031 -0.7304 -1.0156  1.4929
 1496TIP3   OH226122   3.315   0.312   0.843 -0.4757  0.6774  0.2380
 1496TIP3    H126123   3.381   0.266   0.893 -0.6602  1.6261  1.4075
 1496TIP3    H226124   3.327   0.282   0.753  1.6565  0.9735  0.3827
 1497TIP3   OH226125   2.024   6.609   3.027 -0.2332  0.1247 -0.1612
 1497TIP3    H126126   2.043   6.697   2.997 -0.2017  0.0185 -0.4537
 1497TIP3    H226127   1.930   6.610   3.047 -0.5361 -0.1507 -1.4678
 1498TIP3   OH226128   5.691   0.127   8.394 -0.0904 -0.4890 -0.1846
 1498TIP3    H126129   5.596   0.119   8.387 -0.1223  0.6898 -1.3500
 1498TIP3    H226130   5.722   0.037   8.398 -1.1684 -0.9308 -1.1816
 1499TIP3   OH226131   4.217   0.288   7.532  0.3495 -0.4060  0.0471
 1499TIP3    H126132   4.217   0.307   7.438  0.2371 -2.6956 -0.4896
 1499TIP3    H226133   4.308   0.269   7.552  0.6274  1.5467  0.7839
 1500TIP3   OH226134   4.709   5.022   1.659 -0.1956 -0.1771 -0.0392
 1500TIP3    H126135   4.748   5.009   1.745  1.4411  1.4655 -0.4719
 1500TIP3    H226136   4.773   5.075   1.611 -1.8812  0.5085 -1.6605
 1501TIP3   OH226137   3.493   2.108   7.178 -0.2904 -0.2303  0.0626
 1501TIP3    H126138   3.450   2.192   7.165  1.1817  0.2387 -2.5113
 1501TIP3    H226139   3.585   2.129   7.195  0.2009 -1.2712 -1.1171
 1502TIP3   OH226140   3.031   5.633   8.211  0.0705  0.2416  0.3143
 1502TIP3    H126141   2.993   5.707   8.258  0.3299 -0.2418  1.2952
 1502TIP3    H226142   3.083   5.674   8.141 -0.9598  0.9412 -0.0712
 1503TIP3   OH226143   5.309   0.040   7.855  0.0947 -0.2855  0.3561
 1503TIP3    H126144   5.242   0.057   7.921 -2.0046 -3.3996 -0.7274
 1503TIP3    H226145   5.347  -0.044   7.881  1.9471  0.2578 -0.4114
 1504TIP3   OH226146   4.715   3.681   8.381 -0.2737 -0.9805  0.1195
 1504TIP3    H126147   4.665   3.737   8.439 -1.5690 -0.4309 -1.4458
 1504TIP3    H226148   4.715   3.595   8.423 -1.6988 -0.7503  0.6213
 1505TIP3   OH226149   1.710   0.187   0.414  1.0239  0.0189  0.3617
 1505TIP3    H126150   1.676   0.098   0.410 -0.2139  0.5191 -1.1580
 1505TIP3    H226151   1.741   0.197   0.504  1.8622 -2.1643  0.3716
 1506TIP3   OH226152   2.398   6.513   2.154 -0.6218 -0.3877 -0.1386
 1506TIP3    H126153   2.341   6.515   2.078 -1.2647 -0.1017  0.3427
 1506TIP3    H226154   2.375   6.431   2.199  1.6448 -2.0003 -1.6443
 1507TIP3   OH226155   2.787   0.518   0.586 -0.1005  0.0957 -0.7262
 1507TIP3    H126156   2.757   0.560   0.666 -1.3943 -2.8363  0.4578
 1507TIP3    H226157   2.875   0.552   0.572 -0.3237  1.6035  1.2062
 1508TIP3   OH226158   3.564   6.415   0.658  0.0655 -0.2395  0.8493
 1508TIP3    H126159   3.613   6.355   0.601  0.3029  2.3479 -1.8765
 1508TIP3    H226160   3.632   6.470   0.698 -0.3038  0.0568  1.0702
 1509TIP3   OH226161   3.506   2.852   1.617 -0.5720  0.0919 -0.4084
 1509TIP3    H126162   3.564   2.928   1.617  0.9912 -1.0395  0.6476
 1509TIP3    H226163   3.542   2.795   1.549  0.7320 -1.3919  1.4069
 1510TIP3   OH226164   0.984   6.873   2.447  0.4443  0.3877  0.2215
 1510TIP3    H126165   0.982   6.968   2.436  0.9745  0.3081 -0.6671
 1510TIP3    H226166   1.068   6.856   2.491 -0.5507  0.4827  2.2921
 1511TIP3   OH226167   0.390   5.366   6.977 -0.2117 -0.2758  0.0249
 1511TIP3    H126168   0.397   5.434   7.043  1.8281 -0.4826  0.0696
 1511TIP3    H226169   0.425   5.406   6.897 -1.3255 -0.4866 -0.5953
 1512TIP3   OH226170   5.258   4.685   0.365  0.3722 -0.2037 -0.0197
 1512TIP3    H126171   5.333   4.740   0.388  0.4989 -0.2392 -0.3373
 1512TIP3    H226172   5.215   4.667   0.448 -1.6217  3.1276 -0.1581
 1513TIP3   OH226173   4.469   2.348   2.899  0.4150 -0.3677  0.3099
 1513TIP3    H126174   4.555   2.381   2.926  0.5901 -0.7892  0.2696
 1513TIP3    H226175   4.479   2.253   2.898  0.2522 -0.3871 -0.7074
 1514TIP3   OH226176   5.838   4.146   0.361  0.1771 -0.0942  0.7303
 1514TIP3    H126177   5.803   4.066   0.321 -2.0799  0.6179  1.2017
 1514TIP3    H226178   5.871   4.118   0.446 -0.9596 -0.4735  1.0567
 1515TIP3   OH226179   2.269   4.107   0.758 -0.6865 -0.8597 -0.9252
 1515TIP3    H126180   2.360   4.081   0.768 -0.1920  0.1706 -2.4888
 1515TIP3    H226181   2.225   4.068   0.834  1.2564 -0.3480  0.5503
 1516TIP3   OH226182   5.742   1.615   7.231 -0.6432  0.0399 -0.2805
 1516TIP3    H126183   5.713   1.686   7.173 -1.8892 -0.3057 -0.0955
 1516TIP3    H226184   5.758   1.657   7.315  0.0661  0.3446 -0.5584
 1517TIP3   OH226185   2.837   6.510   2.107 -0.1467  0.1617 -0.6980
 1517TIP3    H126186   2.787   6.430   2.094  0.0672  0.0743 -0.9727
 1517TIP3    H226187   2.841   6.521   2.202  2.4768 -1.8117 -0.4970
 1518TIP3   OH226188   0.894   6.201   7.389 -0.4454 -0.3298 -0.4915
 1518TIP3    H126189   0.907   6.153   7.307 -1.4964 -0.5757 -0.5265
 1518TIP3    H226190   0.962   6.166   7.447  0.9672  0.5649 -1.5365
 1519TIP3   OH226191   3.296   3.948   0.805  0.1562 -0.5396 -0.0074
 1519TIP3    H126192   3.256   3.991   0.881  2.3281 -0.0027  0.9057
 1519TIP3    H226193   3.305   3.857   0.831  2.4588 -0.0424  1.1405
 1520TIP3   OH226194   2.452   0.418   0.728 -0.3257 -0.3032 -0.3669
 1520TIP3    H126195   2.532   0.423   0.780 -0.0470  0.8334 -0.8779
 1520TIP3    H226196   2.479   0.376   0.647 -0.5063 -1.0024 -0.0666
 1521TIP3   OH226197   3.057   2.270   0.483  0.1914  0.4404 -0.4420
 1521TIP3    H126198   3.091   2.217   0.411 -0.1769  0.4258 -0.6053
 1521TIP3    H226199   3.030   2.206   0.549  3.1559  0.4567  0.9690
 1522TIP3   OH226200   1.842   5.222   0.668  0.1021  0.8135  0.0041
 1522TIP3    H126201   1.891   5.205   0.748 -0.6716 -0.0953  0.3125
 1522TIP3    H226202   1.773   5.283   0.695 -1.4944 -1.1323  0.5915
 1523TIP3   OH226203   3.495   2.082   0.127  0.0687 -0.2986 -0.1893
 1523TIP3    H126204   3.529   2.003   0.084 -0.7769 -0.7873  0.0187
 1523TIP3    H226205   3.487   2.146   0.057  0.9824 -0.3091 -0.3211
 1524TIP3   OH226206   1.354   6.200   2.369 -0.2990 -0.5367  0.1743
 1524TIP3    H126207   1.298   6.163   2.301 -0.5528 -0.1828  0.1917
 1524TIP3    H226208   1.435   6.149   2.363 -0.2169 -0.3253 -0.5710
 1525TIP3   OH226209   4.957   2.252   0.655 -0.8000  0.2781 -0.4464
 1525TIP3    H126210   5.041   2.219   0.687 -0.3241  1.5066 -0.4185
 1525TIP3    H226211   4.974   2.342   0.628 -1.8521  0.1780 -1.5106
 1526TIP3   OH226212   6.910   2.534   1.800 -0.1172  0.2402 -0.1379
 1526TIP3    H126213   6.967   2.610   1.789 -2.6493  2.1915 -0.8280
 1526TIP3    H226214   6.948   2.466   1.744  2.4983  0.7367  0.8913
 1527TIP3   OH226215   2.270   3.471   1.118 -0.2799  0.2678  0.3459
 1527TIP3    H126216   2.201   3.525   1.155 -0.0666  0.8111 -0.0295
 1527TIP3    H226217   2.236   3.441   1.034 -0.1570  0.3369  0.2701
 1528TIP3   OH226218   6.580   5.836   0.072 -0.0222 -0.0455 -1.0476
 1528TIP3    H126219   6.556   5.766   0.013  1.3516  0.3813 -2.1618
 1528TIP3    H226220   6.635   5.894   0.020  1.9166 -0.0656  0.8474
 1529TIP3   OH226221   3.817   3.612   2.055 -0.3890  0.0364  0.1355
 1529TIP3    H126222   3.805   3.562   2.135 -2.1385  0.4755  0.1818
 1529TIP3    H226223   3.817   3.546   1.985 -1.5274 -0.1418  0.2909
 1530TIP3   OH226224   1.935   4.716   1.330 -0.3626 -0.0892 -0.1332
 1530TIP3    H126225   1.894   4.797   1.299  0.6582  1.4766  2.2978
 1530TIP3    H226226   2.004   4.745   1.389  2.5786 -2.6738 -1.9763
 1531TIP3   OH226227   4.668   2.439   0.767 -0.3477 -0.5073  0.1281
 1531TIP3    H126228   4.668   2.344   0.754  1.1884 -0.5886  0.4405
 1531TIP3    H226229   4.761   2.463   0.762 -0.8295  1.2526 -1.8206
 1532TIP3   OH226230   3.501   0.714   2.007  0.1244  0.1689 -0.2327
 1532TIP3    H126231   3.524   0.626   1.976 -1.3147 -1.8859  3.7639
 1532TIP3    H226232   3.581   0.746   2.049  0.1404 -0.1146 -0.0405
 1533TIP3   OH226233   2.993   2.944   8.509  0.1342  0.2019 -0.1191
 1533TIP3    H126234   2.964   3.032   8.484 -0.5481  0.1156  0.3314
 1533TIP3    H226235   3.033   2.956   8.596 -1.7481 -0.2182  0.8546
 1534TIP3   OH226236   5.882   5.685   0.743 -0.1806 -0.1101  0.1975
 1534TIP3    H126237   5.856   5.696   0.835 -0.3473 -0.5848  0.2071
 1534TIP3    H226238   5.816   5.733   0.694 -0.2626 -0.1134  0.3045
 1535TIP3   OH226239   1.030   3.678   1.172  0.0923 -0.0413 -0.4206
 1535TIP3    H126240   1.101   3.676   1.108 -0.8140 -0.8429 -1.4104
 1535TIP3    H226241   1.029   3.769   1.203  1.5613 -0.0221 -0.3480
 1536TIP3   OH226242   2.812   5.821   8.286  0.6098  0.3133 -0.2663
 1536TIP3    H126243   2.768   5.802   8.368  0.3148 -1.3571 -0.7784
 1536TIP3    H226244   2.841   5.912   8.295 -1.1809  0.8304  0.8670
 1537TIP3   OH226245   3.262   5.301   1.486  0.3247  0.1801  0.1026
 1537TIP3    H126246   3.357   5.303   1.497  0.2969 -1.3148  0.8619
 1537TIP3    H226247   3.228   5.350   1.561  0.4333 -2.5164  2.0613
 1538TIP3   OH226248   6.675   6.618   1.668 -0.2687 -0.7414  0.3287
 1538TIP3    H126249   6.677   6.523   1.657 -0.3909 -0.9661  1.9878
 1538TIP3    H226250   6.758   6.647   1.630  0.4654 -1.6950  1.1351
 1539TIP3   OH226251   5.727   6.885   2.830 -0.4357  0.2243  0.4211
 1539TIP3    H126252   5.746   6.956   2.891 -0.7169 -0.2895  1.1286
 1539TIP3    H226253   5.645   6.911   2.787 -0.5241  0.3385  0.6578
 1540TIP3   OH226254   2.461   1.736   0.362 -0.7303 -0.2121  0.4040
 1540TIP3    H126255   2.440   1.823   0.397 -0.1692  0.1188 -0.0707
 1540TIP3    H226256   2.537   1.708   0.413 -2.0641 -1.2964  1.9357
 1541TIP3   OH226257   1.501   6.468   0.814 -0.4052 -0.0741 -0.4950
 1541TIP3    H126258   1.505   6.374   0.799  1.0122 -0.0744 -0.2966
 1541TIP3    H226259   1.547   6.506   0.739  0.4187  0.3500  0.2068
 1542TIP3   OH226260   0.705   3.217   1.648 -0.1858  0.0719  0.5370
 1542TIP3    H126261   0.654   3.288   1.686 -1.4808 -0.3798 -0.2801
 1542TIP3    H226262   0.717   3.154   1.720  1.8120  1.4688  1.5478
 1543TIP3   OH226263   4.017   2.267   0.352 -0.4021  0.5889  0.3050
 1543TIP3    H126264   3.991   2.356   0.377 -2.3117 -0.1508  1.1617
 1543TIP3    H226265   3.945   2.212   0.381  1.0827 -1.3652  0.5180
 1544TIP3   OH226266   6.425   6.120   7.849  0.3305 -0.0902 -0.0639
 1544TIP3    H126267   6.502   6.168   7.821 -0.5394  0.7771 -1.0128
 1544TIP3    H226268   6.432   6.118   7.945 -0.4581  3.5260  0.2305
 1545TIP3   OH226269   0.559   2.271   7.522 -0.7443  1.3337 -0.2863
 1545TIP3    H126270   0.607   2.202   7.476 -0.2185  0.7534  1.0958
 1545TIP3    H226271   0.614   2.349   7.512  0.0222  0.9011  0.4467
 1546TIP3   OH226272   5.712   5.841   2.849  0.3612  0.3703  0.5262
 1546TIP3    H126273   5.684   5.749   2.849  1.9521 -0.1683 -0.3997
 1546TIP3    H226274   5.644   5.887   2.799  0.7166 -0.7562 -1.0737
 1547TIP3   OH226275   4.652   5.710   8.104  0.3320  0.1830 -0.2361
 1547TIP3    H126276   4.597   5.633   8.121 -1.2072  0.7776 -2.2353
 1547TIP3    H226277   4.672   5.706   8.011  1.5225  1.4095 -0.0711
 1548TIP3   OH226278   6.376   1.098   7.214  0.1569  0.1034  1.1674
 1548TIP3    H126279   6.292   1.078   7.254 -0.9980  1.8816 -0.2112
 1548TIP3    H226280   6.359   1.175   7.160  2.2289 -0.5924 -0.6365
 1549TIP3   OH226281   2.783   6.817   7.657 -0.0650 -0.7968  0.0852
 1549TIP3    H126282   2.849   6.763   7.613  0.6284 -0.3828  0.5933
 1549TIP3    H226283   2.708   6.759   7.668  1.0204 -2.0112  1.5458
 1550TIP3   OH226284   5.256   5.089   2.576  0.2028  0.1048  0.0549
 1550TIP3    H126285   5.346   5.056   2.581 -0.4646 -1.7900  0.4773
 1550TIP3    H226286   5.245   5.115   2.484  0.7382 -1.0408 -0.3471
 1551TIP3   OH226287   5.435   4.878   7.016  0.2074  0.4054 -0.0755
 1551TIP3    H126288   5.344   4.851   7.003  0.2242 -0.6157  1.5999
 1551TIP3    H226289   5.430   4.966   7.052 -0.0756  0.6355 -0.6661
 1552TIP3   OH226290   1.357   1.154   0.668 -0.2534  0.1043 -0.3902
 1552TIP3    H126291   1.338   1.229   0.724 -0.6274 -0.0916 -0.2488
 1552TIP3    H226292   1.439   1.120   0.701 -0.8232 -0.4411  0.5101
 1553TIP3   OH226293   1.420   2.423   1.761  0.1769 -0.1848 -0.4451
 1553TIP3    H126294   1.446   2.472   1.839 -2.3471 -0.4808  0.6921
 1553TIP3    H226295   1.469   2.464   1.690  0.9257  1.5550  0.9801
 1554TIP3   OH226296   5.911   2.422   1.904 -0.3174  0.1855 -0.8713
 1554TIP3    H126297   5.976   2.492   1.900 -0.1301  0.1494  0.8483
 1554TIP3    H226298   5.827   2.468   1.902 -0.2231  0.3504 -1.1523
 1555TIP3   OH226299   5.151   0.894   2.128 -0.0029  0.1902 -0.2677
 1555TIP3    H126300   5.102   0.850   2.197 -1.5561  0.6000 -1.0607
 1555TIP3    H226301   5.198   0.823   2.084 -0.0517 -0.2511  0.3716
 1556TIP3   OH226302   4.317   6.612   1.006 -0.7279  0.1401 -0.3793
 1556TIP3    H126303   4.241   6.655   1.045 -0.4688  0.1989  0.0646
 1556TIP3    H226304   4.282   6.530   0.971 -0.9713  0.1088 -0.0676
 1557TIP3   OH226305   2.481   2.860   7.897 -0.1068  0.8544  0.0266
 1557TIP3    H126306   2.546   2.819   7.955 -0.3773 -1.3582 -1.1466
 1557TIP3    H226307   2.434   2.921   7.954  0.3421 -0.4437  1.8809
 1558TIP3   OH226308   0.674   4.639   2.192  0.5857  0.6774  0.0185
 1558TIP3    H126309   0.769   4.640   2.206  1.0756 -0.5741 -2.5835
 1558TIP3    H226310   0.662   4.588   2.112 -2.6479 -3.1487  2.5605
 1559TIP3   OH226311   5.201   5.606   2.174  0.2850 -0.0472 -0.7538
 1559TIP3    H126312   5.195   5.600   2.269 -1.6781 -2.9116 -0.9293
 1559TIP3    H226313   5.295   5.600   2.156  0.6086 -1.0593  0.9868
 1560TIP3   OH226314   5.652   2.146   6.384  0.0285 -0.8619  0.5007
 1560TIP3    H126315   5.733   2.142   6.333  0.7758  0.5748  1.5032
 1560TIP3    H226316   5.669   2.213   6.451 -1.6129 -1.2947  1.4032
 1561TIP3   OH226317   0.369   1.663   0.856  0.1377  0.5958  0.2912
 1561TIP3    H126318   0.460   1.694   0.853  0.2522  0.5592  2.0525
 1561TIP3    H226319   0.320   1.728   0.806  1.0161  1.1101  0.0752
 1562TIP3   OH226320   5.589   4.643   2.992 -0.3045 -0.0634  0.1727
 1562TIP3    H126321   5.581   4.737   2.980  1.1107 -0.0445 -0.8015
 1562TIP3    H226322   5.680   4.630   3.017 -0.1541 -1.2857 -0.9377
 1563TIP3   OH226323   0.591   2.949   8.168  0.1119  0.1791  0.2128
 1563TIP3    H126324   0.538   2.893   8.111 -0.8545  1.2565  0.0085
 1563TIP3    H226325   0.541   2.955   8.249 -0.2921  1.4772 -0.0980
 1564TIP3   OH226326   3.918   1.641   6.993  0.1782  0.2456 -0.6525
 1564TIP3    H126327   3.842   1.655   6.936  0.0083  0.3773 -0.3923
 1564TIP3    H226328   3.932   1.546   6.991 -1.0216  0.0117  0.6021
 1565TIP3   OH226329   2.311   2.002   0.909  0.1259 -0.4236  0.1028
 1565TIP3    H126330   2.230   2.049   0.887  1.5608  1.2176 -2.1903
 1565TIP3    H226331   2.282   1.926   0.959 -2.7373  0.5790  0.1546
 1566TIP3   OH226332   0.238   1.319   1.515 -0.3895 -0.5875  0.3832
 1566TIP3    H126333   0.247   1.413   1.531 -1.2152 -0.7227  1.7325
 1566TIP3    H226334   0.319   1.281   1.548 -0.0472 -0.3655 -0.1788
 1567TIP3   OH226335   3.755   4.743   8.148 -0.3984  0.0309 -0.1775
 1567TIP3    H126336   3.729   4.807   8.081 -0.4628 -0.4367 -0.6063
 1567TIP3    H226337   3.675   4.727   8.198  0.0425  1.6792  1.1370
 1568TIP3   OH226338   5.495   6.093   8.097 -0.2948 -0.4775  1.2041
 1568TIP3    H126339   5.580   6.139   8.100 -0.7834  0.4771  0.8369
 1568TIP3    H226340   5.443   6.135   8.165 -0.7214 -0.5580  0.9279
 1569TIP3   OH226341   4.298   4.181   2.304  0.1344 -0.4418  0.5153
 1569TIP3    H126342   4.217   4.183   2.255  1.1600  1.3283 -1.2727
 1569TIP3    H226343   4.298   4.263   2.354  0.9732 -0.2379  0.2009
 1570TIP3   OH226344   4.424   3.818   2.989 -0.0126 -0.6247 -0.1584
 1570TIP3    H126345   4.475   3.859   3.059 -0.4264  0.0423 -0.2407
 1570TIP3    H226346   4.487   3.762   2.943  0.3469 -0.7701  0.5090
 1571TIP3   OH226347   2.822   4.348   8.443  0.0191 -0.1038 -0.6025
 1571TIP3    H126348   2.805   4.263   8.403 -0.7545 -1.4539  2.2762
 1571TIP3    H226349   2.915   4.344   8.468 -0.5797 -1.3029  1.7971
 1572TIP3   OH226350   5.282   4.212   8.079 -0.5063  0.3597  0.4853
 1572TIP3    H126351   5.268   4.118   8.084  0.9804  0.1283  0.4799
 1572TIP3    H226352   5.196   4.248   8.055 -1.1755 -0.9454  0.8677
 1573TIP3   OH226353   1.364   4.431   6.948 -0.2184 -0.4107  0.4133
 1573TIP3    H126354   1.288   4.376   6.933  0.1467 -0.7688 -0.1718
 1573TIP3    H226355   1.435   4.370   6.969 -0.5234  0.0107  3.0092
 1574TIP3   OH226356   2.132   0.114   1.736 -0.7233  0.3062  0.9371
 1574TIP3    H126357   2.066   0.179   1.760 -0.3978  1.3418 -0.8163
 1574TIP3    H226358   2.216   0.157   1.755 -0.5140  0.3209  0.0337
 1575TIP3   OH226359   4.357   4.985   1.792  0.1111 -0.2678  0.0867
 1575TIP3    H126360   4.263   4.981   1.773 -0.3089 -1.2799  2.1450
 1575TIP3    H226361   4.395   4.915   1.739 -0.2082  0.4208 -1.0825
 1576TIP3   OH226362   2.496   0.398   2.489  0.7157  0.0362  0.0270
 1576TIP3    H126363   2.475   0.491   2.479  0.1948 -0.0962 -0.1645
 1576TIP3    H226364   2.535   0.373   2.405 -1.7909 -0.5890 -1.0484
 1577TIP3   OH226365   3.907   4.337   2.007  0.6182 -0.1166 -0.1075
 1577TIP3    H126366   3.938   4.284   2.081 -0.1024  0.9875  1.0297
 1577TIP3    H226367   3.977   4.400   1.993  0.4103  0.1810  0.1739
 1578TIP3   OH226368   4.602   0.151   2.247 -0.6769 -0.1141 -0.6212
 1578TIP3    H126369   4.554   0.109   2.176 -2.1049  1.1407 -0.4448
 1578TIP3    H226370   4.540   0.213   2.285  1.4229  2.5212 -1.1790
 1579TIP3   OH226371   3.957   1.995   7.625 -0.3093 -0.1761  0.3365
 1579TIP3    H126372   3.964   1.941   7.546 -0.1130 -1.4241  1.1685
 1579TIP3    H226373   3.945   2.084   7.592  1.7756 -0.3425 -1.1488
 1580TIP3   OH226374   2.785   3.369   8.499  0.3546  0.5707 -0.1797
 1580TIP3    H126375   2.789   3.300   8.566  1.8611 -1.8681 -2.5672
 1580TIP3    H226376   2.699   3.359   8.460  0.6337 -0.1187 -0.6344
 1581TIP3   OH226377   4.490   4.017   0.906  0.0815  0.4361 -0.0663
 1581TIP3    H126378   4.412   4.069   0.926  0.8682  1.5113  0.2652
 1581TIP3    H226379   4.563   4.071   0.934  1.0055 -0.1467 -1.2808
 1582TIP3   OH226380   0.171   5.905   1.396  0.3309 -0.3821  0.7041
 1582TIP3    H126381   0.103   5.887   1.331  2.1546  0.0840 -1.4871
 1582TIP3    H226382   0.210   5.988   1.367  1.4375 -0.3351  2.2327
 1583TIP3   OH226383   3.378   4.487   2.816  0.6417 -0.1575  0.0158
 1583TIP3    H126384   3.374   4.458   2.725  0.6614  0.0753 -0.0599
 1583TIP3    H226385   3.291   4.467   2.851  0.2985  0.6628 -0.3364
 1584TIP3   OH226386   1.197   6.495   7.826 -0.2041  0.0043 -0.6745
 1584TIP3    H126387   1.141   6.495   7.749  0.3983  1.0820 -1.1338
 1584TIP3    H226388   1.225   6.586   7.836  0.5543 -0.3010  0.2146
 1585TIP3   OH226389   6.098   2.757   2.444  0.7991 -0.7034 -0.6375
 1585TIP3    H126390   6.139   2.674   2.421  0.5589 -0.4816 -1.9306
 1585TIP3    H226391   6.172   2.816   2.460  0.9702 -1.1665  0.3747
 1586TIP3   OH226392   4.487   0.281   0.611  0.1005  0.0913 -0.1554
 1586TIP3    H126393   4.431   0.330   0.551  1.5791  2.2812  0.1256
 1586TIP3    H226394   4.473   0.323   0.696  0.7514 -0.5939  0.3044
 1587TIP3   OH226395   5.899   5.792   6.614  0.1339 -1.2791  0.0610
 1587TIP3    H126396   5.909   5.849   6.537  0.5471 -1.5822 -0.1120
 1587TIP3    H226397   5.977   5.738   6.614 -1.0101 -3.0045 -0.7215
 1588TIP3   OH226398   1.607   3.835   0.064  0.7939  0.1265  0.1562
 1588TIP3    H126399   1.587   3.883   0.144  2.9441  0.9144  0.2725
 1588TIP3    H226400   1.533   3.854   0.006  0.0080  0.8765  1.3747
 1589TIP3   OH226401   4.000   0.396   2.702  0.0179 -0.4594 -0.1987
 1589TIP3    H126402   3.911   0.376   2.672  0.5868 -2.2417 -0.8309
 1589TIP3    H226403   4.049   0.316   2.686  2.0683  0.8861 -1.0488
 1590TIP3   OH226404   3.422   1.597   1.353  0.0408  0.1808  0.0388
 1590TIP3    H126405   3.419   1.656   1.429 -0.4500  0.1845  0.0162
 1590TIP3    H226406   3.331   1.587   1.327 -0.1444 -2.2374  1.3308
 1591TIP3   OH226407   3.801   0.997   1.087  0.6060  0.0986 -0.4162
 1591TIP3    H126408   3.801   0.979   0.993  1.0026  1.3614 -0.6824
 1591TIP3    H226409   3.739   1.069   1.098 -0.3584 -0.8431  0.4784
 1592TIP3   OH226410   6.940   4.598   7.331  0.1526 -0.6197  0.5251
 1592TIP3    H126411   6.908   4.620   7.243  0.0289 -0.0185  0.7149
 1592TIP3    H226412   6.950   4.683   7.374 -0.0242 -0.9262  1.1751
 1593TIP3   OH226413   6.730   3.442   2.494 -0.1470  0.0716 -0.3311
 1593TIP3    H126414   6.726   3.515   2.556  1.8971 -1.6859  2.1089
 1593TIP3    H226415   6.800   3.466   2.433  1.8249 -0.4770  1.5717
 1594TIP3   OH226416   2.342   6.497   0.842  0.1351 -0.4385 -0.1618
 1594TIP3    H126417   2.366   6.559   0.773 -1.4898  0.8771  0.3965
 1594TIP3    H226418   2.413   6.501   0.905  1.4098 -1.2940 -1.4718
 1595TIP3   OH226419   3.400   1.558   8.038 -0.0820 -0.3976 -0.8966
 1595TIP3    H126420   3.424   1.515   7.956 -1.8789 -1.0274 -1.1312
 1595TIP3    H226421   3.304   1.564   8.035 -0.2735 -1.1967  1.5265
 1596TIP3   OH226422   0.811   2.176   0.553  0.1630 -0.4113 -0.3578
 1596TIP3    H126423   0.773   2.248   0.502 -0.9368 -1.3547 -0.9130
 1596TIP3    H226424   0.822   2.212   0.641  0.0203  0.5539 -0.7247
 1597TIP3   OH226425   0.513   5.472   7.525  0.0828  0.4412 -0.1026
 1597TIP3    H126426   0.588   5.517   7.564  0.9584 -2.9470  2.5349
 1597TIP3    H226427   0.551   5.398   7.478 -1.4788  0.5185 -1.5667
 1598TIP3   OH226428   1.053   3.370   0.630 -0.3835 -0.3203  0.2484
 1598TIP3    H126429   1.087   3.458   0.646  1.1723 -1.1160  1.5174
 1598TIP3    H226430   1.028   3.371   0.537  3.0243  0.3842 -0.7980
 1599TIP3   OH226431   4.976   2.125   1.562  0.0396 -0.0161 -0.9044
 1599TIP3    H126432   4.969   2.035   1.595  0.4357 -0.5161 -2.1029
 1599TIP3    H226433   5.068   2.134   1.537  0.6677  1.6565  1.6654
 1600TIP3   OH226434   1.614   6.254   8.200 -0.2749  0.4668 -0.1820
 1600TIP3    H126435   1.686   6.220   8.253  0.1517  0.6982 -0.5993
 1600TIP3    H226436   1.631   6.220   8.112 -0.4479  0.8552 -0.3688
 1601TIP3   OH226437   1.238   4.474   1.897  0.3887  0.0365 -0.5651
 1601TIP3    H126438   1.315   4.503   1.847  0.7460  1.2341  0.6339
 1601TIP3    H226439   1.178   4.548   1.893  0.1594 -0.0993  0.2521
 1602TIP3   OH226440   5.365   1.989   0.531 -0.3677  0.8798 -0.1790
 1602TIP3    H126441   5.445   1.954   0.569 -0.9632 -0.4792 -0.1539
 1602TIP3    H226442   5.333   1.920   0.473 -0.6072  2.0785 -1.5412
 1603TIP3   OH226443   0.578   1.101   7.450 -0.2470  0.7533 -0.4365
 1603TIP3    H126444   0.549   1.027   7.503  0.0501  3.3426  3.8658
 1603TIP3    H226445   0.636   1.063   7.385 -0.8116 -2.8330  0.9233
 1604TIP3   OH226446   3.823   3.312   7.566 -0.1101  0.3119  0.4697
 1604TIP3    H126447   3.793   3.399   7.594  2.3678  1.3583  0.1508
 1604TIP3    H226448   3.747   3.272   7.524 -1.2937  2.3903  0.5333
 1605TIP3   OH226449   2.032   3.042   0.725  0.1868  0.5566 -0.1853
 1605TIP3    H126450   2.103   3.070   0.666 -0.3474  0.2318 -0.9996
 1605TIP3    H226451   1.957   3.031   0.667 -0.0914 -0.7582  0.4140
 1606TIP3   OH226452   5.221   4.181   1.054 -0.2622 -0.1358 -0.5998
 1606TIP3    H126453   5.244   4.094   1.024 -0.0373  0.1288 -1.1989
 1606TIP3    H226454   5.279   4.240   1.006 -0.8409  0.3930 -0.6713
 1607TIP3   OH226455   1.764   2.399   2.052 -0.3060 -0.1818  0.1842
 1607TIP3    H126456   1.687   2.448   2.024  0.7491  0.7071 -1.3203
 1607TIP3    H226457   1.784   2.433   2.139 -0.1004  1.4626 -0.4780
 1608TIP3   OH226458   5.595   1.894   0.624  0.1919 -0.1592 -0.5158
 1608TIP3    H126459   5.677   1.939   0.646  0.3352 -1.0503  0.9231
 1608TIP3    H226460   5.621   1.823   0.566  0.1773  0.6253 -1.5080
 1609TIP3   OH226461   2.444   5.147   0.470  0.4446  0.2238 -0.1861
 1609TIP3    H126462   2.430   5.058   0.439 -1.5677  0.5121 -0.1934
 1609TIP3    H226463   2.356   5.183   0.483  1.2044  1.7424  1.1825
 1610TIP3   OH226464   2.628   2.915   7.644  0.0351 -0.2063  0.1690
 1610TIP3    H126465   2.573   2.993   7.653  0.4961  0.0125  1.2806
 1610TIP3    H226466   2.693   2.924   7.713 -0.6272 -2.2016  1.1261
 1611TIP3   OH226467   6.253   1.878   1.034  0.5909 -0.5093 -0.3674
 1611TIP3    H126468   6.186   1.940   1.006  0.2597 -0.7866 -0.1884
 1611TIP3    H226469   6.267   1.823   0.958  0.8831 -0.2211 -0.5258
 1612TIP3   OH226470   0.626   0.685   7.918  0.2275 -0.3499  0.1203
 1612TIP3    H126471   0.700   0.742   7.896  1.2361 -1.8072 -0.4037
 1612TIP3    H226472   0.664   0.598   7.923 -1.4394 -1.1085  0.0565
 1613TIP3   OH226473   3.722   0.756   0.752 -0.2758  0.1316  0.4575
 1613TIP3    H126474   3.635   0.779   0.785 -0.3240  0.0861  0.3611
 1613TIP3    H226475   3.769   0.840   0.749 -0.2194  0.1127  0.7961
 1614TIP3   OH226476   0.901   1.437   1.975  0.4098 -0.4546  0.5241
 1614TIP3    H126477   0.959   1.513   1.971 -1.0960  0.7826  1.1805
 1614TIP3    H226478   0.887   1.422   2.068 -1.8230  0.5427  0.4279
 1615TIP3   OH226479   0.594   1.156   2.961 -0.0910  0.0626 -0.1568
 1615TIP3    H126480   0.680   1.178   2.997  0.6139 -0.9253 -1.1541
 1615TIP3    H226481   0.580   1.220   2.892 -1.3502  1.8280  1.6382
 1616TIP3   OH226482   0.507   5.964   0.387 -0.4239  0.2157  0.6216
 1616TIP3    H126483   0.452   6.042   0.383 -1.0027 -0.1878  0.5105
 1616TIP3    H226484   0.473   5.915   0.462 -1.6738 -1.0929 -0.7379
 1617TIP3   OH226485   2.651   4.732   0.298 -0.1816  0.5427 -0.5112
 1617TIP3    H126486   2.634   4.789   0.373  2.5144  0.2791  0.3732
 1617TIP3    H226487   2.654   4.644   0.335  1.7183  0.4621 -0.7997
 1618TIP3   OH226488   0.763   1.133   0.108  0.3582  0.8770  0.3401
 1618TIP3    H126489   0.827   1.125   0.179  1.3320 -0.9945 -0.6822
 1618TIP3    H226490   0.768   1.225   0.082  1.2181  1.2037  1.5591
 1619TIP3   OH226491   1.965   2.315   0.310 -0.1490  0.1067 -0.1305
 1619TIP3    H126492   1.988   2.406   0.296  1.4929 -0.3029 -0.3042
 1619TIP3    H226493   2.040   2.278   0.356 -1.0875 -0.9993  0.5676
 1620TIP3   OH226494   1.465   0.156   1.790 -0.3283 -0.0145  0.0403
 1620TIP3    H126495   1.513   0.185   1.712 -0.3190 -0.2217 -0.0319
 1620TIP3    H226496   1.380   0.127   1.756 -0.7451  0.9178  0.2357
 1621TIP3   OH226497   3.901   4.725   7.493  0.0097  0.7826  0.2066
 1621TIP3    H126498   3.965   4.758   7.428 -0.2221 -1.0675 -1.0290
 1621TIP3    H226499   3.817   4.757   7.461  0.0509  1.1189  0.4326
 1622TIP3   OH226500   3.034   1.112   8.426 -0.3601  0.2514  0.1558
 1622TIP3    H126501   3.104   1.127   8.490 -0.5227 -0.1298  0.4204
 1622TIP3    H226502   3.075   1.132   8.342 -0.3691  1.5442  0.4258
 1623TIP3   OH226503   6.325   6.356   0.186 -0.2187 -0.3612 -0.2377
 1623TIP3    H126504   6.232   6.336   0.174 -0.0008 -1.5070 -0.1222
 1623TIP3    H226505   6.329   6.406   0.267 -0.8737  0.8926 -0.9514
 1624TIP3   OH226506   2.166   3.114   7.116  0.4904 -0.2243  1.0167
 1624TIP3    H126507   2.110   3.100   7.193 -1.0538  0.1203 -0.0026
 1624TIP3    H226508   2.107   3.147   7.049  2.2070  1.7095  0.3456
 1625TIP3   OH226509   0.467   6.664   8.268 -0.6836  0.1045  0.1965
 1625TIP3    H126510   0.397   6.728   8.279  0.8112  1.7147  0.7114
 1625TIP3    H226511   0.474   6.621   8.353 -0.3603  0.6832  0.4666
 1626TIP3   OH226512   5.939   4.147   1.809  0.1557 -0.3222 -0.4313
 1626TIP3    H126513   6.006   4.165   1.743  0.7046  0.8146  0.3926
 1626TIP3    H226514   5.968   4.067   1.852  0.5959 -0.2549 -0.5910
 1627TIP3   OH226515   5.750   2.862   7.935  1.0574  0.3150  0.4196
 1627TIP3    H126516   5.747   2.915   7.855  0.5586  0.0900  0.2846
 1627TIP3    H226517   5.665   2.818   7.937  1.8879 -1.3583 -0.0542
 1628TIP3   OH226518   5.828   2.616   1.157 -0.4324  0.0378 -0.1814
 1628TIP3    H126519   5.820   2.608   1.252 -0.1390  0.2101 -0.1409
 1628TIP3    H226520   5.768   2.550   1.122 -0.4039 -0.1533  0.1271
 1629TIP3   OH226521   6.117   2.806   7.680  0.4989  0.3012  0.2686
 1629TIP3    H126522   6.180   2.795   7.608 -0.2808 -0.1207 -0.3639
 1629TIP3    H226523   6.130   2.897   7.709 -0.8126  1.3301 -2.0454
 1630TIP3   OH226524   4.658   5.761   7.156  0.2544  0.1249  0.1408
 1630TIP3    H126525   4.729   5.745   7.093 -1.7663 -0.5788 -2.1276
 1630TIP3    H226526   4.689   5.835   7.209  1.8191  1.2289 -2.1507
 1631TIP3   OH226527   4.773   1.996   7.820  0.2798  0.7057  0.0626
 1631TIP3    H126528   4.701   2.023   7.876  0.6039 -0.2582  0.9714
 1631TIP3    H226529   4.798   1.910   7.853 -0.2556 -0.4349 -2.2446
 1632TIP3   OH226530   2.262   5.721   1.389  0.1125  0.3327  1.0087
 1632TIP3    H126531   2.197   5.652   1.404  1.2087 -0.7076  1.1717
 1632TIP3    H226532   2.237   5.791   1.448 -2.1205  0.8875 -0.4744
 1633TIP3   OH226533   3.839   6.563   7.324 -0.3333  0.1490  0.0464
 1633TIP3    H126534   3.751   6.577   7.288 -0.1533 -0.9652 -0.8657
 1633TIP3    H226535   3.830   6.487   7.381 -0.0793  0.4103  0.4407
 1634TIP3   OH226536   2.720   0.141   2.019 -0.4104  0.4845  0.3243
 1634TIP3    H126537   2.718   0.050   2.048  0.7888  0.6153  0.8806
 1634TIP3    H226538   2.687   0.191   2.093  2.1290  0.7675  1.3865
 1635TIP3   OH226539   2.484   0.391   7.269  0.0186 -0.0940 -0.2023
 1635TIP3    H126540   2.579   0.383   7.278 -0.0174 -1.0876 -0.6360
 1635TIP3    H226541   2.472   0.466   7.211  0.5366  0.0341 -0.1538
 1636TIP3   OH226542   5.991   2.180   8.524  0.1611 -0.2328 -0.5193
 1636TIP3    H126543   6.001   2.095   8.482  2.6495 -0.1901 -0.1482
 1636TIP3    H226544   6.046   2.239   8.472 -1.1495  1.0737 -0.4900
 1637TIP3   OH226545   5.829   5.712   1.022 -0.3379 -0.6597 -0.1844
 1637TIP3    H126546   5.817   5.803   0.997 -1.3398 -0.8134 -0.2793
 1637TIP3    H226547   5.759   5.693   1.083  0.6997 -0.9739  0.9494
 1638TIP3   OH226548   5.991   1.990   3.059 -0.1505  0.7682 -0.3703
 1638TIP3    H126549   6.060   2.057   3.061 -0.2617  0.9635 -2.0986
 1638TIP3    H226550   5.916   2.034   3.019 -0.5545 -0.0933 -0.5715
 1639TIP3   OH226551   1.545   0.416   6.437  0.3849  0.0765  0.6722
 1639TIP3    H126552   1.462   0.406   6.483  0.8562  1.2483  1.8602
 1639TIP3    H226553   1.540   0.355   6.364 -0.4550 -1.7957  2.2008
 1640TIP3   OH226554   1.087   3.351   7.722 -0.2194 -0.0398 -0.0230
 1640TIP3    H126555   1.038   3.420   7.766 -1.3215  1.2449 -2.9630
 1640TIP3    H226556   1.026   3.277   7.718 -1.8289  1.2880 -2.9658
 1641TIP3   OH226557   6.117   3.063   1.245 -0.6677 -0.3701  0.2245
 1641TIP3    H126558   6.163   2.979   1.255 -1.3677 -0.6124  1.7316
 1641TIP3    H226559   6.155   3.120   1.312  1.2251  1.2441 -2.0705
 1642TIP3   OH226560   5.155   3.504   0.291  0.7505  0.1538 -0.3391
 1642TIP3    H126561   5.176   3.435   0.228 -1.2467 -1.1613  0.3632
 1642TIP3    H226562   5.189   3.584   0.250  0.3266 -0.7662 -2.6838
 1643TIP3   OH226563   6.056   4.946   0.555  0.1501 -0.0790 -0.0575
 1643TIP3    H126564   6.143   4.908   0.570  0.2688 -0.5728 -1.8025
 1643TIP3    H226565   6.071   5.016   0.491 -0.8923 -1.0492 -1.4210
 1644TIP3   OH226566   5.198   4.043   7.111 -0.2703  0.4040  0.3324
 1644TIP3    H126567   5.141   4.119   7.105 -1.7711 -0.7973 -1.6947
 1644TIP3    H226568   5.143   3.969   7.084  1.4422 -1.2582  1.1262
 1645TIP3   OH226569   0.717   4.160   2.041 -0.2629  0.0971  0.0098
 1645TIP3    H126570   0.729   4.132   2.132  1.4599  1.0919  0.1387
 1645TIP3    H226571   0.626   4.138   2.021 -0.9946  0.7230  2.2979
 1646TIP3   OH226572   0.332   5.789   2.496  0.4646  0.3119  0.5176
 1646TIP3    H126573   0.345   5.821   2.586  0.7444  0.6829  0.3508
 1646TIP3    H226574   0.296   5.865   2.449 -0.7240 -0.2033  0.5686
 1647TIP3   OH226575   1.171   0.227   2.618 -0.1279  0.3791  0.1400
 1647TIP3    H126576   1.219   0.304   2.650  1.3395 -0.5474  0.2411
 1647TIP3    H226577   1.102   0.213   2.684 -0.1078  1.3046  0.3698
 1648TIP3   OH226578   2.583   0.011   2.742  0.3726  0.1661 -0.0200
 1648TIP3    H126579   2.529  -0.067   2.732  0.5794  0.0877 -0.5139
 1648TIP3    H226580   2.633  -0.006   2.822  1.1351 -0.6377 -0.6519
 1649TIP3   OH226581   3.400   2.475   2.636  0.1111  0.1695  0.1895
 1649TIP3    H126582   3.399   2.570   2.627  0.2885  0.3061  1.3874
 1649TIP3    H226583   3.470   2.458   2.700 -1.0257 -0.6145  1.2726
 1650TIP3   OH226584   5.452   3.662   0.891 -0.5557 -0.0922  0.3969
 1650TIP3    H126585   5.439   3.611   0.971  2.3013 -0.0625  0.9711
 1650TIP3    H226586   5.532   3.711   0.907 -0.0296  0.0994 -2.4177
 1651TIP3   OH226587   3.659   5.206   1.223 -0.6563  0.4294 -0.4152
 1651TIP3    H126588   3.697   5.160   1.148  0.3186 -0.8172  0.7928
 1651TIP3    H226589   3.570   5.171   1.230 -0.3272 -0.3959 -0.2500
 1652TIP3   OH226590   1.841   6.454   0.605 -0.5937  0.1713 -0.0786
 1652TIP3    H126591   1.875   6.434   0.517  0.6643  1.6357  0.0390
 1652TIP3    H226592   1.746   6.444   0.597 -0.3908 -1.2434 -1.1773
 1653TIP3   OH226593   5.204   3.759   1.715 -0.6899 -0.7776 -0.1575
 1653TIP3    H126594   5.283   3.753   1.661 -0.7042 -1.2575 -0.1261
 1653TIP3    H226595   5.188   3.670   1.745 -0.7153 -0.5243  0.6006
 1654TIP3   OH226596   0.268   2.109   1.730  0.1722 -0.2383  0.1384
 1654TIP3    H126597   0.238   2.113   1.821  0.3097  0.5949  0.1571
 1654TIP3    H226598   0.360   2.136   1.735  1.3944 -3.9304  0.2588
 1655TIP3   OH226599   4.119   1.180   1.006 -0.2301  0.2958  0.2172
 1655TIP3    H126600   4.195   1.228   1.040  1.4842 -2.6641  0.9373
 1655TIP3    H226601   4.045   1.213   1.056  0.9637  1.6924  1.1229
 1656TIP3   OH226602   2.349   2.720   8.275 -0.0669 -0.3839  0.8563
 1656TIP3    H126603   2.432   2.760   8.301  1.3246 -2.7424  0.2890
 1656TIP3    H226604   2.316   2.678   8.354 -1.6312  1.8486  1.5030
 1657TIP3   OH226605   4.575   5.553   6.947 -0.1301  0.3889  0.0765
 1657TIP3    H126606   4.509   5.622   6.948  0.2859  0.7998 -0.0557
 1657TIP3    H226607   4.657   5.599   6.965  0.1101 -0.1255  0.3187
 1658TIP3   OH226608   0.681   5.649   7.630  0.1201  0.0213  0.2284
 1658TIP3    H126609   0.694   5.678   7.720 -1.1123 -0.8827  0.7264
 1658TIP3    H226610   0.688   5.729   7.577  0.7507  0.5695  1.1177
 1659TIP3   OH226611   3.597   1.716   7.666  0.6576  0.2471 -0.2190
 1659TIP3    H126612   3.607   1.811   7.664 -0.3043  0.3416 -0.9296
 1659TIP3    H226613   3.548   1.695   7.587 -1.4087 -0.5436  1.1755
 1660TIP3   OH226614   3.637   1.978   0.907 -0.2498  0.2729  0.4575
 1660TIP3    H126615   3.604   2.023   0.829  1.7164  0.4339 -0.3524
 1660TIP3    H226616   3.563   1.926   0.938 -1.1371  0.3222 -1.4434
 1661TIP3   OH226617   0.729   6.695   0.157 -0.2251  0.1009 -0.6439
 1661TIP3    H126618   0.704   6.681   0.249  2.5203  1.7946  0.4906
 1661TIP3    H226619   0.763   6.610   0.129  1.0167  0.1091  0.7080
 1662TIP3   OH226620   6.326   3.163   7.177  0.2630  0.1463 -0.0973
 1662TIP3    H126621   6.242   3.117   7.184 -1.0366  2.2479 -0.7642
 1662TIP3    H226622   6.328   3.195   7.087  1.7616  0.2104 -0.0634
 1663TIP3   OH226623   1.314   6.080   8.035 -0.3136  0.4412 -0.0294
 1663TIP3    H126624   1.353   6.097   7.949  0.7707 -0.7286  0.2153
 1663TIP3    H226625   1.287   6.166   8.066  0.2761  1.0160 -1.0617
 1664TIP3   OH226626   5.215   0.799   6.862 -0.4252  0.0701 -0.0556
 1664TIP3    H126627   5.220   0.873   6.801  1.5705  0.5374  0.6001
 1664TIP3    H226628   5.181   0.837   6.943 -3.4762 -0.6297 -0.8725
 1665TIP3   OH226629   5.297   3.472   7.421  0.4560  0.7096  0.1539
 1665TIP3    H126630   5.381   3.431   7.397  0.0244  1.5752 -3.4894
 1665TIP3    H226631   5.308   3.564   7.397 -1.2922  0.9965  0.3231
 1666TIP3   OH226632   5.731   6.416   1.056  0.0893 -0.0128  0.7292
 1666TIP3    H126633   5.781   6.380   1.130  0.3599 -0.9407  0.1062
 1666TIP3    H226634   5.728   6.345   0.992 -1.3900  0.2793  0.4349
 1667TIP3   OH226635   4.310   6.270   0.967  0.4530 -0.1464 -0.2877
 1667TIP3    H126636   4.277   6.335   0.905 -1.0475  0.0702  0.6881
 1667TIP3    H226637   4.242   6.264   1.034  1.4562 -1.3004  0.6749
 1668TIP3   OH226638   5.692   5.003   0.447 -0.2422  0.1952  0.3848
 1668TIP3    H126639   5.744   5.066   0.498 -0.8050  0.1461  1.0434
 1668TIP3    H226640   5.697   4.922   0.497  0.2113 -0.2046 -0.2941
 1669TIP3   OH226641   4.157   6.644   0.130 -0.1897 -0.8302 -0.2579
 1669TIP3    H126642   4.155   6.649   0.226 -0.3713 -1.4695 -0.2259
 1669TIP3    H226643   4.071   6.677   0.103  0.3349  0.6056 -0.2737
 1670TIP3   OH226644   4.798   1.952   7.433  0.0797  0.2797  0.8507
 1670TIP3    H126645   4.789   1.880   7.370  2.7764 -0.0674  0.7395
 1670TIP3    H226646   4.841   1.912   7.509  1.2233  1.6780  0.9580
 1671TIP3   OH226647   6.629   4.607   0.190  0.1867  0.0281  0.2479
 1671TIP3    H126648   6.680   4.585   0.112 -1.5383 -2.1993 -0.3651
 1671TIP3    H226649   6.684   4.578   0.264  0.0165 -2.0532 -0.3765
 1672TIP3   OH226650   1.376   1.199   7.925 -0.2932  0.0644  0.1810
 1672TIP3    H126651   1.318   1.127   7.902 -0.0606 -0.4117  1.0770
 1672TIP3    H226652   1.398   1.185   8.017  0.1112  1.0290  0.2439
 1673TIP3   OH226653   3.880   3.844   7.501 -0.3397 -0.5460 -0.1040
 1673TIP3    H126654   3.873   3.927   7.547  1.0120 -1.5830  2.1520
 1673TIP3    H226655   3.797   3.800   7.518  0.1713 -0.9545  1.5828
 1674TIP3   OH226656   4.876   0.787   1.687  0.4454 -0.4449  0.0190
 1674TIP3    H126657   4.837   0.787   1.775  0.7658 -2.2203  0.1839
 1674TIP3    H226658   4.873   0.879   1.661 -1.2401 -0.1107  1.1743
 1675TIP3   OH226659   3.560   5.366   2.302  0.2343 -0.2272 -0.3347
 1675TIP3    H126660   3.568   5.461   2.296 -1.6132  0.0439  0.8949
 1675TIP3    H226661   3.561   5.347   2.396  0.7355 -1.4669 -0.5568
 1676TIP3   OH226662   3.127   2.838   2.104  0.4043 -0.7200 -0.0595
 1676TIP3    H126663   3.064   2.909   2.116  2.5520  1.3674 -0.1915
 1676TIP3    H226664   3.133   2.827   2.009  1.4705  0.3785 -0.1538
 1677TIP3   OH226665   0.507   1.502   7.695  0.1092 -0.1938 -0.3608
 1677TIP3    H126666   0.454   1.581   7.687  0.2129  0.0133  0.8915
 1677TIP3    H226667   0.530   1.480   7.605 -0.4208  0.8558 -0.7708
 1678TIP3   OH226668   5.304   2.963   0.533 -0.3203  0.0748 -0.3736
 1678TIP3    H126669   5.229   2.949   0.476 -0.7055  0.7200 -0.0386
 1678TIP3    H226670   5.379   2.934   0.482 -0.6998  0.2998 -1.0667
 1679TIP3   OH226671   6.296   5.455   1.641  0.7522 -0.3886  0.0961
 1679TIP3    H126672   6.335   5.541   1.624 -0.6938  0.2967  0.1014
 1679TIP3    H226673   6.371   5.395   1.646  1.7830  0.8581  0.0702
 1680TIP3   OH226674   4.145   3.512   2.084 -0.5960  0.1067  0.0227
 1680TIP3    H126675   4.211   3.456   2.043 -0.8877  0.8534 -1.5429
 1680TIP3    H226676   4.087   3.452   2.130 -0.0715 -0.7421 -0.3970
 1681TIP3   OH226677   4.699   3.363   8.116 -0.3788  0.0951 -0.0792
 1681TIP3    H126678   4.765   3.432   8.118 -0.9793  0.7542 -1.4273
 1681TIP3    H226679   4.626   3.398   8.167 -0.3749  0.1179 -0.0899
 1682TIP3   OH226680   4.557   6.093   7.200 -0.6517  0.5785 -0.1451
 1682TIP3    H126681   4.596   6.180   7.196 -0.5041  0.5248  0.0854
 1682TIP3    H226682   4.558   6.071   7.294 -1.0307  0.4850 -0.1605
 1683TIP3   OH226683   5.468   3.528   8.006 -0.0165  0.6756 -0.7322
 1683TIP3    H126684   5.474   3.439   8.042 -2.1592  1.2937  1.4522
 1683TIP3    H226685   5.545   3.536   7.950  0.6929 -2.2589 -0.3717
 1684TIP3   OH226686   0.279   3.733   1.484 -0.6372 -0.2930  0.3093
 1684TIP3    H126687   0.269   3.750   1.390  0.4913 -1.6465 -0.1022
 1684TIP3    H226688   0.192   3.749   1.521 -1.6655 -1.7570 -1.3199
 1685TIP3   OH226689   1.719   4.071   0.628  0.2192  0.5662  0.3546
 1685TIP3    H126690   1.761   4.063   0.542 -1.0078  1.9231 -0.4097
 1685TIP3    H226691   1.659   4.145   0.619 -1.0620 -0.2191  1.9247
 1686TIP3   OH226692   6.107   3.171   7.994 -0.5681 -0.9248  0.0356
 1686TIP3    H126693   6.113   3.150   7.901  2.1805  1.7021 -0.5557
 1686TIP3    H226694   6.033   3.231   8.000 -0.6316 -0.9406 -0.5036
 1687TIP3   OH226695   0.569   3.641   8.439 -0.4535 -0.5524 -0.2827
 1687TIP3    H126696   0.592   3.658   8.348 -0.5025  2.1733  0.1448
 1687TIP3    H226697   0.473   3.634   8.439 -0.5556  0.6598 -0.3058
 1688TIP3   OH226698   0.048   5.249   0.168 -0.0932 -0.2941  0.1443
 1688TIP3    H126699  -0.048   5.250   0.165 -0.1213  2.3703 -1.7140
 1688TIP3    H226700   0.074   5.236   0.077  1.2728  0.4202  0.4073
 1689TIP3   OH226701   6.113   2.265   1.333 -0.0736 -0.4106  0.2824
 1689TIP3    H126702   6.036   2.300   1.379 -0.1120  0.0111 -0.0885
 1689TIP3    H226703   6.084   2.181   1.297 -1.5398  1.2327 -2.8354
 1690TIP3   OH226704   3.625   4.278   0.295  0.0652 -0.0241  0.5638
 1690TIP3    H126705   3.699   4.261   0.353 -1.1406 -0.1899  2.1199
 1690TIP3    H226706   3.613   4.197   0.246  2.3258  0.7417 -1.4720
 1691TIP3   OH226707   6.724   3.806   1.282  0.2750 -0.2865 -0.0956
 1691TIP3    H126708   6.700   3.714   1.274 -0.5347 -0.0189 -0.8670
 1691TIP3    H226709   6.649   3.854   1.246  1.6556  0.5946 -1.9713
 1692TIP3   OH226710   2.095   6.198   0.279 -0.0282 -0.0610 -0.2518
 1692TIP3    H126711   2.090   6.121   0.337 -0.5938 -1.2009 -1.7613
 1692TIP3    H226712   2.039   6.263   0.322  1.8055  0.1821  1.9540
 1693TIP3   OH226713   5.530   3.293   1.507 -0.5015  0.4203 -0.1794
 1693TIP3    H126714   5.604   3.239   1.480  0.1762  1.1057  0.2878
 1693TIP3    H226715   5.568   3.360   1.564 -1.6974 -0.1819  1.3944
 1694TIP3   OH226716   3.791   1.831   1.562  0.4059 -0.0721 -0.2989
 1694TIP3    H126717   3.732   1.861   1.493  0.0926 -2.5042 -1.2192
 1694TIP3    H226718   3.736   1.823   1.640  0.0796 -0.0737 -0.5305
 1695TIP3   OH226719   3.542   2.687   8.514  0.3469 -0.2448 -0.3299
 1695TIP3    H126720   3.476   2.716   8.576  0.7515  1.0202 -0.4798
 1695TIP3    H226721   3.521   2.594   8.499 -0.3780 -0.2939  0.8795
 1696TIP3   OH226722   6.252   2.287   0.525 -0.4441 -0.1327 -0.4649
 1696TIP3    H126723   6.236   2.382   0.526  1.0405  0.1441  0.4401
 1696TIP3    H226724   6.307   2.273   0.448 -1.8318 -0.5010 -1.4165
 1697TIP3   OH226725   1.864   3.153   7.873  0.0601 -0.1166  0.0887
 1697TIP3    H126726   1.783   3.195   7.903 -0.9083 -1.0331 -1.1258
 1697TIP3    H226727   1.908   3.126   7.954 -0.8266  0.4381  0.7848
 1698TIP3   OH226728   4.670   4.703   1.968  0.4706  0.1320  1.0384
 1698TIP3    H126729   4.578   4.706   1.995  0.5178 -0.4675  1.2784
 1698TIP3    H226730   4.681   4.616   1.929  1.3329 -0.4200  2.4600
 1699TIP3   OH226731   0.912   0.291   1.622  0.4870 -0.0227 -0.1095
 1699TIP3    H126732   0.958   0.314   1.542 -0.4018 -0.6595 -0.8261
 1699TIP3    H226733   0.925   0.366   1.680  1.8385  0.0890 -0.5272
 1700TIP3   OH226734   0.982   3.277   8.273 -0.2588  0.3367 -0.4103
 1700TIP3    H126735   0.969   3.229   8.354 -3.0691  3.8553  1.5129
 1700TIP3    H226736   1.053   3.338   8.292 -0.1165  0.3757 -1.0262
 1701TIP3   OH226737   0.218   1.011   0.776  0.6473 -0.1663  0.5119
 1701TIP3    H126738   0.287   0.967   0.826  1.4455 -0.3726 -0.7448
 1701TIP3    H226739   0.256   1.096   0.753  0.1968  0.0163  0.4284
 1702TIP3   OH226740   5.584   4.607   1.363 -0.0788  0.7374  0.1351
 1702TIP3    H126741   5.636   4.684   1.341 -2.0746  1.4870 -2.4783
 1702TIP3    H226742   5.502   4.642   1.399 -0.5045 -0.1985  0.1229
 1703TIP3   OH226743   0.408   0.738   0.922  0.3040  0.3133 -0.0684
 1703TIP3    H126744   0.313   0.726   0.920  0.0298  2.0572  0.8258
 1703TIP3    H226745   0.441   0.681   0.853 -1.4661  0.2609 -0.9111
 1704TIP3   OH226746   2.462   2.819   1.176 -0.5239  0.3799  0.0530
 1704TIP3    H126747   2.508   2.894   1.213  0.3048  0.0444 -0.2604
 1704TIP3    H226748   2.415   2.780   1.250 -0.5600  0.9197  0.3143
 1705TIP3   OH226749   5.386   5.108   6.491 -0.3912 -0.0614 -0.3145
 1705TIP3    H126750   5.364   5.021   6.459 -3.2746  0.0644  1.0655
 1705TIP3    H226751   5.443   5.092   6.566  1.4551 -0.5553 -1.7343
 1706TIP3   OH226752   0.102   6.028   6.575  0.6798 -0.0002 -0.3392
 1706TIP3    H126753   0.113   6.006   6.667 -1.2189  2.5064  0.6144
 1706TIP3    H226754   0.017   5.988   6.551  0.4781  0.5606 -0.5687
 1707TIP3   OH226755   5.818   4.609   6.964 -0.0114  0.3985  0.0844
 1707TIP3    H126756   5.870   4.558   6.902 -0.5078 -3.0683  2.2477
 1707TIP3    H226757   5.743   4.640   6.913  0.4617 -0.8406 -1.4377
 1708TIP3   OH226758   6.684   6.853   1.887  0.0627 -0.0918  0.2402
 1708TIP3    H126759   6.648   6.808   1.810  0.9871  1.1864 -1.0057
 1708TIP3    H226760   6.777   6.830   1.887  0.2570  0.6638  0.4235
 1709TIP3   OH226761   5.107   2.849   0.056 -0.4329  0.1087 -0.2966
 1709TIP3    H126762   5.146   2.762   0.068  0.9110  0.8794  1.3888
 1709TIP3    H226763   5.027   2.847   0.109 -1.7231 -0.8468 -2.2024
 1710TIP3   OH226764   3.080   6.856   2.770  0.3006  0.1167 -0.3022
 1710TIP3    H126765   3.070   6.903   2.687  0.6682 -0.0465 -0.4424
 1710TIP3    H226766   3.153   6.900   2.814 -0.5899  0.9024  0.4289
 1711TIP3   OH226767   4.106   2.216   7.827 -0.5228  0.1064 -0.0401
 1711TIP3    H126768   4.142   2.128   7.829 -1.3610 -0.2319  1.1705
 1711TIP3    H226769   4.158   2.265   7.890 -0.5298  0.2884 -0.1751
 1712TIP3   OH226770   1.573   3.063   1.459  0.7376  0.0146  0.4797
 1712TIP3    H126771   1.645   3.016   1.502 -0.9396 -3.6768 -0.3454
 1712TIP3    H226772   1.501   3.058   1.521  0.2174  0.5626 -0.0727
 1713TIP3   OH226773   4.905   5.036   0.490  0.5401  0.1423 -0.4528
 1713TIP3    H126774   4.976   5.004   0.436  0.0107  0.6306 -1.4552
 1713TIP3    H226775   4.873   5.114   0.445 -0.6148 -0.0584 -0.0149
 1714TIP3   OH226776   1.865   6.899   1.495 -0.2985  0.0234 -0.6589
 1714TIP3    H126777   1.874   6.981   1.447  1.8054 -0.8917 -2.0245
 1714TIP3    H226778   1.890   6.920   1.585 -2.0194  1.3057 -0.4440
 1715TIP3   OH226779   5.997   3.470   7.682  0.7838 -0.0599  0.2098
 1715TIP3    H126780   6.025   3.386   7.717 -0.0593 -0.2252  0.5173
 1715TIP3    H226781   5.953   3.448   7.600  1.9653  0.2444 -0.5357
 1716TIP3   OH226782   4.154   3.405   0.485 -0.1418 -0.0592  0.4932
 1716TIP3    H126783   4.119   3.485   0.522 -0.0922 -0.8891  2.4523
 1716TIP3    H226784   4.248   3.407   0.506  0.2371  0.1912 -1.0622
 1717TIP3   OH226785   0.066   1.252   1.721  0.4668  0.3630  0.1792
 1717TIP3    H126786   0.129   1.246   1.649  0.3181  1.2472 -0.0365
 1717TIP3    H226787   0.021   1.336   1.706  0.6411  0.6976  1.4646
 1718TIP3   OH226788   3.649   1.973   8.265 -0.0205 -0.1358  0.8970
 1718TIP3    H126789   3.712   1.930   8.323  0.6325 -1.2739 -0.5905
 1718TIP3    H226790   3.667   1.937   8.179 -2.2159  0.0800  0.2847
 1719TIP3   OH226791   6.696   1.580   7.901 -0.5569 -0.1912  0.0775
 1719TIP3    H126792   6.647   1.516   7.953 -2.2369  0.4316 -0.6794
 1719TIP3    H226793   6.765   1.610   7.960 -2.5216  0.6613  2.0699
 1720TIP3   OH226794   5.986   3.978   3.043 -0.0043 -0.3016  0.3122
 1720TIP3    H126795   5.919   3.974   3.111 -0.6769  2.0483 -0.1217
 1720TIP3    H226796   5.937   3.997   2.963  1.1394  1.8346  0.0451
 1721TIP3   OH226797   1.492   4.574   8.015  0.3857 -0.5276 -0.2033
 1721TIP3    H126798   1.546   4.628   8.073 -1.0811 -0.5344  1.2389
 1721TIP3    H226799   1.497   4.486   8.053 -1.1887 -0.3873  0.4288
 1722TIP3   OH226800   0.471   4.629   2.638 -0.0877 -0.0146  0.3704
 1722TIP3    H126801   0.554   4.645   2.592  0.3974 -0.8482  0.9439
 1722TIP3    H226802   0.435   4.717   2.652  0.4980  0.3373 -0.2334
 1723TIP3   OH226803   2.898   0.008   0.882  0.3030  0.3802  0.1705
 1723TIP3    H126804   2.993  -0.000   0.869  0.1005 -0.7363 -0.7712
 1723TIP3    H226805   2.888   0.089   0.932  1.8948 -0.5148  2.0977
 1724TIP3   OH226806   6.328   1.209   2.388  0.2193 -0.4797 -0.7688
 1724TIP3    H126807   6.320   1.303   2.371  1.9996 -0.1005  0.1961
 1724TIP3    H226808   6.419   1.188   2.363 -0.1929 -1.9821 -1.1016
 1725TIP3   OH226809   2.699   6.597   6.713 -0.1146 -0.2466  0.1213
 1725TIP3    H126810   2.742   6.540   6.777  3.0283  2.0053  0.2173
 1725TIP3    H226811   2.765   6.612   6.646 -2.1316  0.3538 -1.8377
 1726TIP3   OH226812   2.628   0.751   0.004  0.3091  0.5253  0.1326
 1726TIP3    H126813   2.606   0.737  -0.088 -0.5613  0.2825  0.3743
 1726TIP3    H226814   2.604   0.669   0.047  0.9034  0.5625  0.5517
 1727TIP3   OH226815   1.081   3.500   2.211  0.1017 -0.0666  0.3722
 1727TIP3    H126816   1.171   3.480   2.186  0.0088 -0.8429  0.6485
 1727TIP3    H226817   1.089   3.566   2.280  0.5097 -1.0338  1.2754
 1728TIP3   OH226818   1.688   1.261   0.177 -0.1785  0.6745  0.4855
 1728TIP3    H126819   1.709   1.271   0.270  2.1840 -2.4502  0.4545
 1728TIP3    H226820   1.755   1.311   0.132 -0.6779  1.3033  0.4282
 1729TIP3   OH226821   2.531   2.591   2.342 -0.5289 -0.4634  0.1636
 1729TIP3    H126822   2.501   2.644   2.416 -1.4729  1.2352 -1.3347
 1729TIP3    H226823   2.548   2.504   2.379 -3.5626 -0.4422  1.8737
 1730TIP3   OH226824   4.919   3.170   8.340  0.7369 -0.0611  0.6011
 1730TIP3    H126825   4.933   3.246   8.397 -0.4374 -0.3759  1.3499
 1730TIP3    H226826   4.920   3.206   8.251  2.1437  0.5078  0.8169
 1731TIP3   OH226827   2.265   4.282   1.146  0.8481 -0.0412  0.0021
 1731TIP3    H126828   2.225   4.252   1.228 -0.8238  0.1048 -0.7162
 1731TIP3    H226829   2.349   4.236   1.142  0.5976 -0.6611  1.4087
 1732TIP3   OH226830   6.396   5.232   8.295  0.4756  0.3835  0.0039
 1732TIP3    H126831   6.425   5.320   8.272 -1.4456  1.0268 -0.1836
 1732TIP3    H226832   6.475   5.186   8.321  1.5717  2.0672 -0.2121
 1733TIP3   OH226833   6.226   2.234   2.805  0.5335  0.0237  0.1458
 1733TIP3    H126834   6.142   2.264   2.770  0.8861  0.9860  0.0723
 1733TIP3    H226835   6.253   2.164   2.746 -0.2204 -0.3100  0.1859
 1734TIP3   OH226836   1.778   5.480   0.583 -0.0312  0.2688 -0.1558
 1734TIP3    H126837   1.804   5.548   0.522  1.5303  1.8099  2.0571
 1734TIP3    H226838   1.835   5.406   0.563 -0.4759  0.2365 -1.3862
 1735TIP3   OH226839   6.779   0.121   8.356 -0.1288 -0.4646  0.0017
 1735TIP3    H126840   6.740   0.132   8.269 -0.9320  2.4735  0.6102
 1735TIP3    H226841   6.850   0.185   8.359 -1.3106  0.8979  2.0445
 1736TIP3   OH226842   4.917   4.064   1.680 -0.4326  0.1986 -0.0094
 1736TIP3    H126843   4.932   4.027   1.593  0.5170  0.9259 -0.1739
 1736TIP3    H226844   4.959   4.003   1.740 -0.7881 -0.1277 -0.0939
 1737TIP3   OH226845   4.642   5.780   1.503 -0.4675  0.5223 -0.5040
 1737TIP3    H126846   4.621   5.732   1.423 -0.7431 -1.7463  0.8581
 1737TIP3    H226847   4.730   5.750   1.527  0.0992  2.0639 -0.5516
 1738TIP3   OH226848   2.099   2.050   2.243 -0.3726 -0.3615 -0.2311
 1738TIP3    H126849   2.078   1.973   2.295  0.8686 -1.9149 -1.8978
 1738TIP3    H226850   2.194   2.059   2.248 -0.4287  0.6507 -0.6150
 1739TIP3   OH226851   0.512   3.148   7.073  0.3872  0.2574  0.2071
 1739TIP3    H126852   0.577   3.128   7.006  1.1133  1.7541  0.4067
 1739TIP3    H226853   0.458   3.217   7.034 -0.5191 -0.3472  0.3818
 1740TIP3   OH226854   5.534   6.938   1.137 -0.6767  0.0534 -0.4103
 1740TIP3    H126855   5.557   6.855   1.095 -1.2667 -0.8516  0.9559
 1740TIP3    H226856   5.446   6.957   1.104 -0.9677 -0.4309  0.0679
 1741TIP3   OH226857   1.949   0.958   1.716 -0.1009 -0.3797 -0.3905
 1741TIP3    H126858   2.026   1.009   1.740 -0.1919 -0.4977  0.1565
 1741TIP3    H226859   1.905   0.940   1.799 -0.9670  0.0851 -0.7328
 1742TIP3   OH226860   6.534   2.205   1.386  0.1356 -0.2107  0.2886
 1742TIP3    H126861   6.450   2.199   1.431 -0.5862  1.9795 -0.6221
 1742TIP3    H226862   6.599   2.200   1.455 -0.6267 -3.0146  0.9211
 1743TIP3   OH226863   4.457   6.483   0.747  0.1204  0.3891 -0.1508
 1743TIP3    H126864   4.488   6.427   0.820  0.5530 -0.0909 -0.6907
 1743TIP3    H226865   4.527   6.547   0.736  0.1616  0.3192 -0.2940
 1744TIP3   OH226866   4.070   3.940   2.270  0.1857 -0.0877  0.4944
 1744TIP3    H126867   4.166   3.941   2.270  0.1835  0.5424  1.0473
 1744TIP3    H226868   4.047   3.867   2.327  0.3288 -0.3195  0.2611
 1745TIP3   OH226869   3.397   0.314   8.415  0.9264 -0.3283 -0.1230
 1745TIP3    H126870   3.391   0.304   8.510  0.5435  0.1894 -0.0910
 1745TIP3    H226871   3.306   0.312   8.385  0.9821  0.5477 -0.3696
 1746TIP3   OH226872   6.415   4.391   2.224 -0.1553  0.0294 -0.0181
 1746TIP3    H126873   6.459   4.418   2.304  1.3017  2.2456 -1.4454
 1746TIP3    H226874   6.338   4.448   2.217 -1.2334 -1.2935  0.5830
 1747TIP3   OH226875   2.262   0.055   7.901 -0.5524  0.6686  0.3602
 1747TIP3    H126876   2.239  -0.038   7.908  2.0943 -0.0677  0.3718
 1747TIP3    H226877   2.208   0.087   7.828 -2.5652 -0.4541  1.2538
 1748TIP3   OH226878   2.918   2.130   7.790  0.5509 -0.3386  0.0224
 1748TIP3    H126879   3.007   2.143   7.758  0.3859  1.0434  0.0604
 1748TIP3    H226880   2.928   2.109   7.883  0.7855  1.6850  0.4925
 1749TIP3   OH226881   1.798   3.341   1.647 -0.0357 -0.5264 -0.6069
 1749TIP3    H126882   1.716   3.331   1.695 -0.6670 -0.4104 -1.6307
 1749TIP3    H226883   1.836   3.253   1.645 -0.3282 -0.6553 -0.4789
 1750TIP3   OH226884   6.166   1.428   7.817  0.3465 -0.1846 -0.3305
 1750TIP3    H126885   6.185   1.343   7.856  2.1336 -0.5310 -1.7808
 1750TIP3    H226886   6.217   1.491   7.869  1.3987 -0.4254 -1.0402
 1751TIP3   OH226887   5.142   6.316   1.696  0.4147  0.0100  0.0920
 1751TIP3    H126888   5.122   6.367   1.774 -0.0443  0.4150 -0.2837
 1751TIP3    H226889   5.097   6.361   1.625 -1.2928 -1.7248 -0.0320
 1752TIP3   OH226890   6.161   0.431   1.235  0.1869  0.0870  0.0042
 1752TIP3    H126891   6.154   0.365   1.305 -1.0395 -0.7893 -0.8963
 1752TIP3    H226892   6.255   0.442   1.223  0.4947  1.2910  2.6804
 1753TIP3   OH226893   1.112   5.885   0.494  0.1220 -0.1823  0.0011
 1753TIP3    H126894   1.112   5.794   0.464  1.6126  0.0843 -0.9289
 1753TIP3    H226895   1.150   5.934   0.421  0.9772  0.9391  1.1469
 1754TIP3   OH226896   4.286   6.148   7.437 -0.1945 -0.1150  0.2048
 1754TIP3    H126897   4.238   6.229   7.455  1.7721  1.3436 -0.6660
 1754TIP3    H226898   4.236   6.105   7.368 -1.4215  0.2142  0.8682
 1755TIP3   OH226899   4.614   6.733   7.500 -0.0245  0.3053 -0.6028
 1755TIP3    H126900   4.694   6.682   7.492 -0.2105  0.1473 -1.5522
 1755TIP3    H226901   4.636   6.803   7.562  0.5758 -0.2372 -0.1952
 1756TIP3   OH226902   2.911   6.046   7.703  0.0863  0.0015 -0.0641
 1756TIP3    H126903   2.866   6.059   7.620  2.1677  0.6056 -1.1899
 1756TIP3    H226904   3.000   6.021   7.678  0.2948 -1.6130  2.0274
 1757TIP3   OH226905   4.966   5.675   7.899  0.1181  0.5204 -0.6625
 1757TIP3    H126906   4.960   5.755   7.952  0.0234 -0.1929  0.4500
 1757TIP3    H226907   4.908   5.613   7.944  0.7144 -0.3760 -1.1110
 1758TIP3   OH226908   2.292   1.839   7.925 -0.1978 -0.5681  0.1674
 1758TIP3    H126909   2.285   1.778   7.998 -1.0077 -0.4872  0.1639
 1758TIP3    H226910   2.382   1.872   7.930  0.3303 -1.9151  0.0338
 1759TIP3   OH226911   5.683   1.431   8.004  0.4326  0.2420  0.2792
 1759TIP3    H126912   5.734   1.354   7.979 -1.7435 -1.1719 -0.0821
 1759TIP3    H226913   5.694   1.492   7.931  2.3581  0.4499  0.6740
 1760TIP3   OH226914   0.127   1.992   1.517 -0.1181 -0.0391  0.9710
 1760TIP3    H126915   0.130   1.931   1.590  0.2917  0.9045  1.7641
 1760TIP3    H226916   0.175   2.069   1.547  1.4398 -0.2187 -0.8756
 1761TIP3   OH226917   1.050   5.860   2.238  0.2828  0.0792 -0.1274
 1761TIP3    H126918   0.997   5.827   2.311 -0.1888 -0.1719 -0.5716
 1761TIP3    H226919   1.048   5.789   2.173  1.1902  0.0604 -0.1431
 1762TIP3   OH226920   0.470   4.317   1.795 -0.0247  0.1014  0.0657
 1762TIP3    H126921   0.544   4.276   1.750  1.4759  2.6359  0.0159
 1762TIP3    H226922   0.405   4.331   1.725  1.3955  2.0171 -0.9759
 1763TIP3   OH226923   1.539   4.903   7.106 -0.4876  0.2222 -0.2099
 1763TIP3    H126924   1.502   4.830   7.058 -1.8806  0.7440  0.0256
 1763TIP3    H226925   1.466   4.962   7.121  0.3262  1.0340  0.7774
 1764TIP3   OH226926   2.100   6.823   0.719 -0.1651  0.2162  0.8797
 1764TIP3    H126927   2.005   6.816   0.709 -0.1111  0.2785  0.2773
 1764TIP3    H226928   2.122   6.764   0.791 -1.0305  2.4599  3.1329
 1765TIP3   OH226929   6.037   3.096   2.444  0.0358  0.2411 -0.8804
 1765TIP3    H126930   5.986   3.030   2.398  0.7550  0.4686 -2.0516
 1765TIP3    H226931   5.973   3.147   2.492 -0.7780  0.1388 -1.8249
 1766TIP3   OH226932   0.515   3.133   0.737  0.2157 -0.3731  0.1429
 1766TIP3    H126933   0.445   3.193   0.765  1.6664  2.2045 -1.3269
 1766TIP3    H226934   0.489   3.107   0.648  0.8729  0.2808 -0.2564
 1767TIP3   OH226935   2.426   6.951   0.426  0.0431 -0.3073 -0.3144
 1767TIP3    H126936   2.516   6.981   0.432  0.6138 -2.0578  0.3934
 1767TIP3    H226937   2.388   7.003   0.354  1.8097 -0.0854 -1.1257
 1768TIP3   OH226938   3.884   2.798   7.127  0.2430  0.1885 -0.8572
 1768TIP3    H126939   3.894   2.835   7.039 -0.0486 -0.0129 -0.9772
 1768TIP3    H226940   3.861   2.874   7.181  0.7737  0.3726 -0.8843
 1769TIP3   OH226941   1.909   4.201   0.796 -0.4973  0.2083  0.1252
 1769TIP3    H126942   1.860   4.159   0.725 -0.2459  1.6663 -0.9585
 1769TIP3    H226943   1.921   4.291   0.767  0.4821  0.5897  1.5949
 1770TIP3   OH226944   6.579   6.165   7.326  0.0378 -0.4074  0.2172
 1770TIP3    H126945   6.571   6.255   7.359 -0.7056  0.0059 -1.0111
 1770TIP3    H226946   6.502   6.154   7.269 -1.5451 -2.8509  2.5878
 1771TIP3   OH226947   4.648   2.315   7.273  0.0136 -0.3279 -0.3886
 1771TIP3    H126948   4.715   2.248   7.282  1.5265  1.2943  1.3997
 1771TIP3    H226949   4.697   2.396   7.261 -1.7178  0.6230 -1.3205
 1772TIP3   OH226950   3.463   6.792   7.448 -0.2467 -0.1752 -0.0699
 1772TIP3    H126951   3.557   6.814   7.448  0.0080 -1.1739 -0.4971
 1772TIP3    H226952   3.425   6.847   7.515  0.8697 -0.5911  0.9409
 1773TIP3   OH226953   6.789   3.226   2.716 -0.2969 -0.3767 -0.2019
 1773TIP3    H126954   6.798   3.289   2.787  2.7025 -0.4852 -0.3519
 1773TIP3    H226955   6.818   3.143   2.753 -1.3604 -1.0636 -0.8339
 1774TIP3   OH226956   2.242   0.468   1.169 -0.1962  0.4401 -0.0790
 1774TIP3    H126957   2.150   0.468   1.145  0.3910 -1.2718 -2.8581
 1774TIP3    H226958   2.243   0.458   1.264 -2.8434  0.9565  0.0686
 1775TIP3   OH226959   0.300   5.656   0.396  0.8052  0.2072  0.7341
 1775TIP3    H126960   0.217   5.704   0.399  0.2706 -0.7268  1.2591
 1775TIP3    H226961   0.332   5.657   0.486 -0.4274 -2.4525  1.2739
 1776TIP3   OH226962   1.179   1.139   7.562  0.2227  0.1328  0.3406
 1776TIP3    H126963   1.199   1.224   7.600 -2.3784  0.1758  1.8447
 1776TIP3    H226964   1.148   1.158   7.474 -0.3010  0.7550  0.6563
 1777TIP3   OH226965   0.097   6.254   2.990 -1.3092 -0.2560 -0.5842
 1777TIP3    H126966   0.167   6.283   3.047 -2.4267  0.5429  0.4383
 1777TIP3    H226967   0.139   6.196   2.926  0.1424 -0.3125  0.3979
 1778TIP3   OH226968   5.118   6.465   0.785  0.2230 -0.2253  0.2953
 1778TIP3    H126969   5.118   6.373   0.811  1.1919 -0.5605 -0.8079
 1778TIP3    H226970   5.208   6.495   0.798  0.3971 -0.0066 -1.1875
 1779TIP3   OH226971   1.423   4.334   0.419 -0.1834  0.1539  0.0842
 1779TIP3    H126972   1.385   4.417   0.448  0.4698  0.5396 -0.1151
 1779TIP3    H226973   1.500   4.323   0.475 -1.6574 -1.6485  1.8835
 1780TIP3   OH226974   3.635   1.054   0.173 -0.4577  0.0965  0.0010
 1780TIP3    H126975   3.670   1.079   0.088  0.8557  0.5156  0.6237
 1780TIP3    H226976   3.589   1.132   0.204 -1.6012 -0.3103 -0.6370
 1781TIP3   OH226977   3.968   5.812   0.517 -0.2763 -0.0156  0.3907
 1781TIP3    H126978   4.041   5.873   0.527 -1.8412  2.2360 -1.0118
 1781TIP3    H226979   3.925   5.812   0.602  1.5388 -1.7622  1.3955
 1782TIP3   OH226980   6.694   4.120   7.453 -0.3684 -0.2595  0.0034
 1782TIP3    H126981   6.669   4.033   7.422 -0.1633 -0.1449 -0.4837
 1782TIP3    H226982   6.790   4.116   7.460 -0.2853  0.2055 -0.8531
 1783TIP3   OH226983   5.617   6.008   1.613 -0.3897  0.1923 -0.4583
 1783TIP3    H126984   5.547   6.040   1.671 -0.3104 -0.6408  0.1090
 1783TIP3    H226985   5.697   6.018   1.665 -0.3264 -0.6222 -0.3886
 1784TIP3   OH226986   1.730   0.137   7.269 -0.2112 -0.6471 -0.3816
 1784TIP3    H126987   1.777   0.056   7.287 -0.0529 -0.3659  0.5412
 1784TIP3    H226988   1.648   0.128   7.318  0.1301  0.0548  0.3269
 1785TIP3   OH226989   2.384   6.847   1.358  0.5108  0.8367  0.1198
 1785TIP3    H126990   2.394   6.930   1.405  1.0725  0.5062  0.5986
 1785TIP3    H226991   2.307   6.860   1.303  1.0236  1.9510 -0.3813
 1786TIP3   OH226992   4.945   6.691   0.914  0.1329  0.3982  0.0795
 1786TIP3    H126993   4.959   6.632   0.840 -1.7489  1.5644 -1.2939
 1786TIP3    H226994   4.943   6.633   0.991 -2.2161 -1.4976 -1.2428
 1787TIP3   OH226995   3.458   6.114   7.557 -0.5851 -0.1587 -0.5078
 1787TIP3    H126996   3.540   6.118   7.507 -1.1200  0.1119 -1.3909
 1787TIP3    H226997   3.393   6.150   7.498 -1.4166 -0.7243  0.0487
 1788TIP3   OH226998   2.033   0.922   1.459  0.3519 -0.2247  0.4980
 1788TIP3    H126999   2.128   0.929   1.447  0.4904  0.3339  1.7467
 1788TIP3    H227000   2.016   0.966   1.542 -0.8848 -1.1427  0.7663
 1789TIP3   OH227001   5.920   6.150   0.676 -0.4456  0.8445  0.0537
 1789TIP3    H127002   5.867   6.141   0.597 -0.9003  0.0685  0.4375
 1789TIP3    H227003   6.011   6.145   0.644 -0.5966  1.4819 -0.5185
 1790TIP3   OH227004   1.359   6.205   6.973 -0.0252  0.1807  0.3555
 1790TIP3    H127005   1.436   6.149   6.981 -0.4209 -0.4514 -0.1616
 1790TIP3    H227006   1.390   6.280   6.921  0.7460  0.9337  1.8477
 1791TIP3   OH227007   4.830   5.056   7.984  0.2585 -0.6125  0.1350
 1791TIP3    H127008   4.917   5.095   7.991 -0.1143  0.7365 -1.9108
 1791TIP3    H227009   4.793   5.063   8.072  1.0907  1.6101  0.3659
 1792TIP3   OH227010   1.009   5.144   2.511 -0.0188  0.1557  0.2552
 1792TIP3    H127011   1.018   5.220   2.568 -1.0703 -0.4016  1.2068
 1792TIP3    H227012   1.024   5.069   2.568 -2.1149 -0.4558  0.0982
 1793TIP3   OH227013   5.824   2.343   0.892 -0.4327 -0.0672  0.0379
 1793TIP3    H127014   5.747   2.363   0.945  0.7936  1.7860  1.2512
 1793TIP3    H227015   5.871   2.277   0.944 -0.5168 -0.1875 -0.0374
 1794TIP3   OH227016   2.500   2.503   0.814 -0.0633 -0.0865  0.1763
 1794TIP3    H127017   2.567   2.493   0.746  2.0993 -1.2146  2.2992
 1794TIP3    H227018   2.529   2.578   0.866 -0.2584 -0.7591  1.2879
 1795TIP3   OH227019   0.107   6.574   7.267  0.3907  0.5232  0.1760
 1795TIP3    H127020   0.046   6.501   7.274  0.8849  0.0936  0.0142
 1795TIP3    H227021   0.168   6.549   7.197  0.1095  1.4190 -0.4157
 1796TIP3   OH227022   6.104   0.929   1.298  0.2915  0.0371 -0.0622
 1796TIP3    H127023   6.082   0.938   1.205 -0.6544 -1.5011 -0.0315
 1796TIP3    H227024   6.043   0.863   1.331  0.9735  0.1447  1.5312
 1797TIP3   OH227025   4.638   1.079   6.500  0.1124  0.4287 -0.1561
 1797TIP3    H127026   4.585   1.158   6.509  1.5361  1.3430  0.6399
 1797TIP3    H227027   4.622   1.030   6.581  0.8506  0.9554  0.3189
 1798TIP3   OH227028   5.521   4.969   2.560  0.6951 -0.0492 -0.0690
 1798TIP3    H127029   5.579   4.942   2.489 -0.0194  0.0791 -0.7092
 1798TIP3    H227030   5.555   4.923   2.637  1.5912 -0.0399 -0.4426
 1799TIP3   OH227031   4.354   4.042   1.933  0.3129  0.1774  0.0309
 1799TIP3    H127032   4.316   3.957   1.956 -0.2650  1.1333  3.0645
 1799TIP3    H227033   4.283   4.089   1.890 -0.6587  0.4109  1.7828
 1800TIP3   OH227034   1.228   6.528   1.194 -0.1062 -0.1871  0.3203
 1800TIP3    H127035   1.138   6.514   1.162 -0.3232  2.2793 -0.3595
 1800TIP3    H227036   1.224   6.507   1.287 -1.5669  0.4335  0.4268
 1801TIP3   OH227037   1.056   1.294   0.240  0.3475  0.3150  0.2410
 1801TIP3    H127038   1.075   1.298   0.334  0.9846 -2.7830  0.3666
 1801TIP3    H227039   1.017   1.207   0.227  2.4902 -0.3940 -2.6516
 1802TIP3   OH227040   0.584   1.566   8.080  0.1961 -0.0021  0.0280
 1802TIP3    H127041   0.516   1.623   8.046  0.3253  0.7643  1.0045
 1802TIP3    H227042   0.663   1.620   8.082  0.2123 -0.0384  1.4127
 1803TIP3   OH227043   5.094   4.625   1.247  0.3889  0.1463 -0.0432
 1803TIP3    H127044   5.003   4.610   1.274  0.1218  0.8065 -0.5412
 1803TIP3    H227045   5.144   4.623   1.329  0.0032 -0.7127  0.1852
 1804TIP3   OH227046   2.529   2.319   1.712  0.4059 -0.2051 -0.2056
 1804TIP3    H127047   2.513   2.246   1.771 -0.4524 -0.5557 -0.8545
 1804TIP3    H227048   2.546   2.279   1.627  1.2129  0.3086 -0.3007
 1805TIP3   OH227049   5.624   0.249   0.184  0.4979  0.4421  0.1106
 1805TIP3    H127050   5.657   0.240   0.095 -0.5966 -0.0504 -0.2596
 1805TIP3    H227051   5.702   0.266   0.237  0.9979  2.4928 -1.1578
 1806TIP3   OH227052   3.951   0.427   1.433 -0.2088  0.6290 -0.5894
 1806TIP3    H127053   3.861   0.452   1.454  0.5254  1.3555  2.1339
 1806TIP3    H227054   3.984   0.498   1.377 -0.7037  1.4388  0.1303
 1807TIP3   OH227055   3.569   2.668   1.411  0.3559  0.7588 -0.0566
 1807TIP3    H127056   3.507   2.604   1.376 -1.6927  2.4806  0.2100
 1807TIP3    H227057   3.652   2.621   1.414 -0.9673 -1.8003 -0.0953
 1808TIP3   OH227058   4.268   2.907   0.483  0.3345  0.1973 -0.0663
 1808TIP3    H127059   4.275   2.812   0.492  1.6221  0.4183  1.6449
 1808TIP3    H227060   4.358   2.937   0.472 -0.1558  1.1422 -2.2015
 1809TIP3   OH227061   5.834   3.211   1.903  0.2602  0.0046 -0.4135
 1809TIP3    H127062   5.900   3.262   1.857  1.0586  0.0408  0.7457
 1809TIP3    H227063   5.883   3.143   1.949 -0.1587  1.4363  2.3859
 1810TIP3   OH227064   3.713   5.257   8.370  0.0089 -0.7076  0.6167
 1810TIP3    H127065   3.794   5.241   8.322  1.3684  2.8371  1.3779
 1810TIP3    H227066   3.684   5.343   8.339 -1.4664 -0.2804  2.9369
 1811TIP3   OH227067   4.430   0.417   0.830 -0.0268 -0.6783  0.0649
 1811TIP3    H127068   4.397   0.369   0.906  0.4710 -0.4114  0.4618
 1811TIP3    H227069   4.361   0.480   0.810 -0.5864 -1.3906 -0.3193
 1812TIP3   OH227070   3.914   3.085   2.080  0.3282  0.5050 -0.1014
 1812TIP3    H127071   3.976   3.023   2.117  0.6365  1.3669  0.9042
 1812TIP3    H227072   3.828   3.054   2.109  0.3606 -0.1654 -0.7048
 1813TIP3   OH227073   6.663   2.042   7.805  0.1693  0.0470 -0.0198
 1813TIP3    H127074   6.721   2.003   7.869  0.4041  2.7155  1.5488
 1813TIP3    H227075   6.719   2.060   7.729  0.8574  0.4983  0.5882
 1814TIP3   OH227076   3.281   0.169   2.652 -0.6145 -0.0139 -0.4533
 1814TIP3    H127077   3.211   0.218   2.695 -0.0965  0.1642  0.2202
 1814TIP3    H227078   3.301   0.098   2.714 -2.1059 -1.7805 -1.8942
 1815TIP3   OH227079   3.549   5.441   7.704 -0.0432 -0.3074 -0.6022
 1815TIP3    H127080   3.562   5.350   7.730 -2.1237 -0.1338  1.3631
 1815TIP3    H227081   3.454   5.451   7.699  0.1298  1.7504 -0.8434
 1816TIP3   OH227082   1.042   1.224   2.114  0.3430  0.3998 -0.4022
 1816TIP3    H127083   1.069   1.308   2.150 -0.9024  1.0422 -0.9079
 1816TIP3    H227084   0.946   1.225   2.118  0.2386 -0.3458 -1.8047
 1817TIP3   OH227085   1.034   4.461   1.452  0.6625 -0.5954 -0.3744
 1817TIP3    H127086   1.100   4.413   1.502 -0.5744 -3.1530 -1.0017
 1817TIP3    H227087   0.961   4.470   1.513  0.2577 -1.0566 -0.7847
 1818TIP3   OH227088   2.540   2.191   1.471  0.0879 -0.2812  0.0810
 1818TIP3    H127089   2.478   2.238   1.414  1.8187  0.4219 -1.3101
 1818TIP3    H227090   2.558   2.110   1.424 -0.9831 -1.2558  1.2839
 1819TIP3   OH227091   0.783   4.663   0.916 -0.6671  0.1407  0.2884
 1819TIP3    H127092   0.705   4.617   0.944 -0.0361 -1.6894 -0.8015
 1819TIP3    H227093   0.758   4.756   0.916 -3.0228 -0.4292 -0.6341
 1820TIP3   OH227094   1.434   4.707   6.956 -0.0682  0.6709  0.4063
 1820TIP3    H127095   1.364   4.731   6.895  0.4064 -1.1422 -0.9409
 1820TIP3    H227096   1.430   4.612   6.960  2.6130  0.4623 -0.1133
 1821TIP3   OH227097   0.727   1.693   1.870 -0.7003 -0.0001 -0.0953
 1821TIP3    H127098   0.714   1.615   1.816 -0.9965  0.0526 -0.1014
 1821TIP3    H227099   0.764   1.660   1.952 -2.3482 -0.3519  0.5467
 1822TIP3   OH227100   2.456   3.195   7.650  0.4399 -0.4719 -0.5528
 1822TIP3    H127101   2.443   3.265   7.585 -1.7782 -0.8127 -0.5711
 1822TIP3    H227102   2.370   3.184   7.690  1.1613 -2.0293  0.6812
 1823TIP3   OH227103   3.589   1.536   8.252 -0.4531  0.1467  0.2382
 1823TIP3    H127104   3.573   1.467   8.316 -2.6090  1.2617  1.0063
 1823TIP3    H227105   3.544   1.507   8.173  0.6469 -0.3837 -0.2074
 1824TIP3   OH227106   3.586   1.533   2.356  0.3607 -0.3802 -0.0954
 1824TIP3    H127107   3.594   1.627   2.370 -2.0390 -0.2518  0.9310
 1824TIP3    H227108   3.492   1.517   2.352  0.6935 -2.7679  0.0075
 1825TIP3   OH227109   4.937   1.499   6.383  0.6131  0.3156  0.1009
 1825TIP3    H127110   5.017   1.506   6.435  2.0305  1.1849 -2.0769
 1825TIP3    H227111   4.895   1.419   6.415  2.1933 -0.0330  1.4757
 1826TIP3   OH227112   6.111   3.410   0.757  0.4034  0.0266 -0.3710
 1826TIP3    H127113   6.034   3.368   0.795  0.9386 -2.0878 -1.4635
 1826TIP3    H227114   6.076   3.468   0.690 -0.3143  0.4734  0.3784
 1827TIP3   OH227115   2.721   2.842   1.886 -0.0621  0.4244 -0.5273
 1827TIP3    H127116   2.767   2.869   1.966 -0.2814 -1.2511  0.2157
 1827TIP3    H227117   2.630   2.863   1.903 -0.2864 -1.0211  0.2021
 1828TIP3   OH227118   0.733   1.304   1.776  0.5548 -0.0139  0.6783
 1828TIP3    H127119   0.789   1.330   1.849  0.2240  0.2271  0.8499
 1828TIP3    H227120   0.739   1.209   1.774  0.7796 -0.0045  0.8481
 1829TIP3   OH227121   5.075   5.324   1.758  0.4964  0.1268  0.1740
 1829TIP3    H127122   5.081   5.230   1.776 -2.9893 -0.3993 -0.6452
 1829TIP3    H227123   5.069   5.365   1.844  1.6277 -0.4121  0.5290
 1830TIP3   OH227124   1.411   5.764   1.508 -0.0622  0.3234 -0.1167
 1830TIP3    H127125   1.500   5.744   1.538 -0.1261 -0.6790 -0.5519
 1830TIP3    H227126   1.380   5.831   1.568 -0.0780 -1.3852  1.9088
 1831TIP3   OH227127   6.272   3.159   2.621 -0.3453 -0.4119  0.2737
 1831TIP3    H127128   6.345   3.097   2.629 -0.3961 -0.7966 -1.8765
 1831TIP3    H227129   6.196   3.104   2.602 -0.6972  0.1920 -0.0827
 1832TIP3   OH227130   1.492   2.350   0.998 -0.1199 -0.6634 -0.1144
 1832TIP3    H127131   1.540   2.418   1.045 -0.6470 -0.4060  0.0520
 1832TIP3    H227132   1.402   2.381   0.994 -0.5512 -1.7470  0.7367
 1833TIP3   OH227133   2.245   3.009   2.054 -0.0235  0.0753  0.1735
 1833TIP3    H127134   2.213   3.008   2.144  0.7297 -1.0681  0.4437
 1833TIP3    H227135   2.263   3.102   2.036  1.2265  0.1553  1.7032
 1834TIP3   OH227136   3.037   5.512   7.852  0.2149  0.0384 -0.2517
 1834TIP3    H127137   3.027   5.423   7.817  0.4850 -0.5351  1.0831
 1834TIP3    H227138   2.965   5.561   7.812 -1.1357 -1.2544  0.4848
 1835TIP3   OH227139   1.924   1.751   1.314  0.9090  0.3246 -0.2218
 1835TIP3    H127140   1.919   1.816   1.244 -0.6900 -0.4625 -0.8992
 1835TIP3    H227141   1.932   1.667   1.268  1.7955 -0.0695  0.6084
 1836TIP3   OH227142   2.982   5.769   0.514 -0.3536  0.4045  0.1025
 1836TIP3    H127143   3.059   5.820   0.488 -0.3498 -0.4069 -1.5735
 1836TIP3    H227144   3.006   5.729   0.598  0.4259  1.4356  0.3883
 1837TIP3   OH227145   0.216   4.758   2.104  0.0922  0.1625 -0.0132
 1837TIP3    H127146   0.293   4.800   2.142 -0.5553  2.1781 -0.7978
 1837TIP3    H227147   0.242   4.666   2.091  1.8466  0.4705  1.0205
 1838TIP3   OH227148   4.859   0.263   0.843 -0.1510 -0.1869  0.2351
 1838TIP3    H127149   4.932   0.244   0.784  0.1789 -0.8498  0.8462
 1838TIP3    H227150   4.864   0.195   0.911 -0.9201  0.1699  0.6618
 1839TIP3   OH227151   2.907   3.531   1.175  0.5968  0.2063 -0.2611
 1839TIP3    H127152   2.899   3.556   1.267 -1.2213 -0.4936 -0.1917
 1839TIP3    H227153   2.863   3.600   1.127  0.4404 -0.0637 -0.5102
 1840TIP3   OH227154   2.450   5.612   0.778  0.5690 -0.9378 -0.5476
 1840TIP3    H127155   2.465   5.518   0.781  1.2450 -0.8397  2.3615
 1840TIP3    H227156   2.368   5.625   0.827  0.5021 -0.0203 -0.8833
 1841TIP3   OH227157   6.612   1.950   0.233  0.2285 -0.3612 -0.0272
 1841TIP3    H127158   6.593   2.036   0.195 -2.3256 -0.3708  0.9755
 1841TIP3    H227159   6.582   1.887   0.167 -2.7973 -0.3779  1.2034
 1842TIP3   OH227160   1.073   3.166   0.183 -0.4372 -0.0233 -0.4184
 1842TIP3    H127161   1.031   3.121   0.256 -1.4420 -3.2077 -2.7294
 1842TIP3    H227162   1.005   3.172   0.116 -0.0906  4.4335 -0.6204
 1843TIP3   OH227163   6.046   1.881   1.737  0.5431 -0.2750  0.8149
 1843TIP3    H127164   6.098   1.823   1.792  0.1131 -1.8730 -0.4113
 1843TIP3    H227165   5.981   1.824   1.696 -0.0162  1.1023 -0.3047
 1844TIP3   OH227166   3.059   1.729   3.044 -0.1743 -0.0857 -0.3802
 1844TIP3    H127167   3.046   1.810   3.093 -0.8397 -0.8099  0.6963
 1844TIP3    H227168   3.121   1.751   2.976 -1.6164  1.7587 -1.1810
 1845TIP3   OH227169   1.487   5.246   2.190 -0.0729 -0.3688 -0.2459
 1845TIP3    H127170   1.482   5.317   2.253  0.0521 -0.6108  0.0350
 1845TIP3    H227171   1.403   5.250   2.143 -1.1381 -1.5983  1.4520
 1846TIP3   OH227172   6.772   1.653   2.030 -0.1049 -0.4669  0.0528
 1846TIP3    H127173   6.850   1.605   2.003  0.8942  0.7702  0.6395
 1846TIP3    H227174   6.788   1.677   2.121 -1.0085  0.1273  0.0730
 1847TIP3   OH227175   0.054   4.369   2.176  0.4339  0.0944  0.6913
 1847TIP3    H127176  -0.027   4.420   2.177 -1.8047 -3.2098  2.3878
 1847TIP3    H227177   0.081   4.369   2.084 -1.6378  1.0325  0.0242
 1848TIP3   OH227178   2.877   0.421   3.243 -0.0731 -0.1634 -0.3028
 1848TIP3    H127179   2.792   0.424   3.199 -0.4366 -0.6914  0.3336
 1848TIP3    H227180   2.857   0.389   3.331  0.9178 -1.2639 -0.4579
 1849TIP3   OH227181   4.025   4.391   1.641  0.2380 -0.3999  1.1732
 1849TIP3    H127182   4.072   4.474   1.649  0.0424 -0.2781  1.0803
 1849TIP3    H227183   4.089   4.324   1.663  0.7505 -0.3029  0.0207
 1850TIP3   OH227184   0.468   3.018   1.732  0.3795  0.2293 -0.3737
 1850TIP3    H127185   0.510   2.940   1.770  3.0054  2.2524  1.2722
 1850TIP3    H227186   0.407   3.047   1.800  0.5459  0.4518 -0.3186
 1851TIP3   OH227187   5.085   3.052   0.360  0.5077 -0.1746  0.2995
 1851TIP3    H127188   5.155   3.045   0.296  0.4495  0.6619  0.1374
 1851TIP3    H227189   5.061   3.145   0.360 -1.5386 -0.6495 -0.6733
 1852TIP3   OH227190   5.060   1.799   0.272 -0.4182  0.1550 -0.6697
 1852TIP3    H127191   5.034   1.863   0.339 -0.8784 -0.9117  0.2070
 1852TIP3    H227192   4.977   1.764   0.239 -0.1786  0.2865 -1.4348
 1853TIP3   OH227193   2.224   5.338   2.497 -0.2520 -0.3021 -0.2443
 1853TIP3    H127194   2.194   5.395   2.427  3.1192  1.1891 -0.6762
 1853TIP3    H227195   2.289   5.281   2.456  0.0464 -1.0602  1.1967
 1854TIP3   OH227196   3.235   2.910   1.580  0.1070  0.0996  0.1936
 1854TIP3    H127197   3.205   2.957   1.657  1.0615  0.2735  0.4680
 1854TIP3    H227198   3.322   2.879   1.602  0.0740 -0.5577 -0.5178
 1855TIP3   OH227199   1.564   2.310   7.020  0.6208 -0.5666  0.1224
 1855TIP3    H127200   1.482   2.261   7.015  1.6439 -2.5410  1.1370
 1855TIP3    H227201   1.622   2.253   7.071  2.3130  1.2012  0.2811
 1856TIP3   OH227202   6.720   4.739   1.342  0.1451  0.7877  0.3433
 1856TIP3    H127203   6.667   4.786   1.277 -0.4040  0.9805  0.9208
 1856TIP3    H227204   6.795   4.797   1.357  0.8361  0.2458 -0.9061
 1857TIP3   OH227205   0.447   0.960   1.286  0.0712  0.0630  0.2156
 1857TIP3    H127206   0.520   0.921   1.237  0.3418  0.4360  0.3235
 1857TIP3    H227207   0.470   1.052   1.296 -0.2679  0.1193  0.5203
 1858TIP3   OH227208   2.183   5.104   2.655 -0.3671 -0.4164  0.0402
 1858TIP3    H127209   2.205   5.184   2.608 -0.4209 -0.9325 -0.8952
 1858TIP3    H227210   2.133   5.052   2.592  0.5211 -1.6052  0.2602
 1859TIP3   OH227211   0.996   4.100   1.586  0.2739  0.3838 -0.3319
 1859TIP3    H127212   0.962   4.098   1.496 -0.1297  1.9249 -0.2289
 1859TIP3    H227213   1.057   4.174   1.587 -0.3158  0.8736  0.8758
 1860TIP3   OH227214   1.253   3.672   7.141 -0.1690  0.1414 -0.1253
 1860TIP3    H127215   1.266   3.650   7.049  0.3838  1.0349 -0.2691
 1860TIP3    H227216   1.231   3.588   7.182 -1.0180 -0.1716 -1.1675
 1861TIP3   OH227217   3.044   2.700   1.232  0.8175  0.8781  0.3272
 1861TIP3    H127218   3.053   2.714   1.327  1.2533 -1.0818  0.6333
 1861TIP3    H227219   2.958   2.660   1.222  0.6076  1.4428 -0.1769
 1862TIP3   OH227220   0.940   0.528   0.266  0.1251  0.4666  0.5499
 1862TIP3    H127221   0.919   0.558   0.178  2.4140 -0.9409 -0.5620
 1862TIP3    H227222   0.863   0.478   0.294 -0.1237 -0.1606 -1.1788
 1863TIP3   OH227223   6.497   1.549   1.631 -0.6854 -0.1674 -0.1966
 1863TIP3    H127224   6.543   1.479   1.585  1.2402 -0.2641  1.6881
 1863TIP3    H227225   6.411   1.512   1.653  0.8254 -2.6305  2.0964
 1864TIP3   OH227226   3.209   0.357   1.114 -0.4523 -0.2895 -0.1979
 1864TIP3    H127227   3.250   0.359   1.028 -0.1556 -0.1815 -0.0570
 1864TIP3    H227228   3.193   0.448   1.136 -0.0601 -0.2863  0.0792
 1865TIP3   OH227229   5.878   0.799   1.395 -0.0514  0.0902 -0.7553
 1865TIP3    H127230   5.876   0.769   1.485 -1.5031  1.6250 -0.2349
 1865TIP3    H227231   5.793   0.839   1.380  1.6261  3.8833 -1.3380
 1866TIP3   OH227232   1.243   4.909   0.731  0.1493 -0.4899 -0.0037
 1866TIP3    H127233   1.245   5.000   0.760 -0.6035 -0.5211  0.1704
 1866TIP3    H227234   1.260   4.859   0.811 -1.7858 -0.5708  0.4053
 1867TIP3   OH227235   0.914   2.797   7.465  0.0742 -0.1882 -0.2143
 1867TIP3    H127236   0.956   2.734   7.407 -1.0023  0.4820 -1.7832
 1867TIP3    H227237   0.918   2.881   7.418 -1.2084  0.2891  0.4661
 1868TIP3   OH227238   1.932   0.496   8.349  0.1317 -0.0185 -0.1411
 1868TIP3    H127239   1.973   0.540   8.275  1.4875 -0.0042  0.5789
 1868TIP3    H227240   1.949   0.554   8.423  0.0920 -0.7448  0.4450
 1869TIP3   OH227241   0.299   6.590   6.779 -0.0668  0.1614  0.5012
 1869TIP3    H127242   0.273   6.550   6.696 -1.0146  0.4811  0.6297
 1869TIP3    H227243   0.358   6.661   6.754  2.2933 -1.7402  0.3173
 1870TIP3   OH227244   6.374   2.576   1.169  0.4700 -1.2116 -0.3555
 1870TIP3    H127245   6.376   2.579   1.074 -0.0819  2.2439 -0.3885
 1870TIP3    H227246   6.289   2.538   1.191  0.8081 -2.5020 -1.1728
 1871TIP3   OH227247   5.397   0.005   2.149 -0.2304 -0.5204 -0.5246
 1871TIP3    H127248   5.325  -0.035   2.198 -1.0094  1.1248 -0.2523
 1871TIP3    H227249   5.355   0.066   2.089  0.9114  0.1617 -0.6687
 1872TIP3   OH227250   3.589   2.385   1.901 -0.0683 -0.5090 -0.4264
 1872TIP3    H127251   3.671   2.399   1.949  0.5782 -0.9858 -1.3355
 1872TIP3    H227252   3.529   2.451   1.936 -0.0305 -1.5910  1.8476
 1873TIP3   OH227253   3.821   5.667   1.434 -0.2276 -0.3549  0.0410
 1873TIP3    H127254   3.900   5.700   1.392  0.9389 -1.6064  1.1243
 1873TIP3    H227255   3.805   5.582   1.393 -0.8136 -0.2511  0.0502
 1874TIP3   OH227256   6.624   0.399   6.944  0.3033 -0.0415 -0.6310
 1874TIP3    H127257   6.650   0.311   6.917  1.3735  0.5939 -1.7701
 1874TIP3    H227258   6.640   0.453   6.867  0.5894  1.3220  0.3555
 1875TIP3   OH227259   5.478   2.748   1.087  0.0634 -0.4732 -0.1795
 1875TIP3    H127260   5.415   2.815   1.113 -0.2309 -0.1023 -1.7655
 1875TIP3    H227261   5.440   2.666   1.120 -0.1523 -0.0151  0.7527
 1876TIP3   OH227262   3.996   4.787   0.903 -0.1508 -0.0576 -0.2089
 1876TIP3    H127263   3.913   4.794   0.950 -1.4408  1.7477 -2.5704
 1876TIP3    H227264   4.048   4.861   0.935 -0.1535 -0.1326 -0.0294
 1877TIP3   OH227265   3.614   2.065   7.585 -0.4505 -0.4848  0.0809
 1877TIP3    H127266   3.644   2.105   7.667 -0.9457 -0.5012  0.2706
 1877TIP3    H227267   3.524   2.095   7.575 -0.0790  0.3412 -0.9892
 1878TIP3   OH227268   5.361   0.449   2.103 -0.0720 -0.5362 -0.2869
 1878TIP3    H127269   5.294   0.388   2.072  0.7227 -1.9632  0.6959
 1878TIP3    H227270   5.444   0.412   2.072  0.4596 -0.1590  0.6299
 1879TIP3   OH227271   5.454   1.016   1.966  0.4834 -0.4143  0.1881
 1879TIP3    H127272   5.464   0.959   2.042 -2.3368 -2.3492 -0.7645
 1879TIP3    H227273   5.398   1.087   1.996  2.3562  0.9032  0.8076
 1880TIP3   OH227274   5.162   0.077   0.419 -0.3119  0.1136  0.3488
 1880TIP3    H127275   5.100   0.148   0.407  0.0377  0.9477  2.9348
 1880TIP3    H227276   5.242   0.107   0.376 -1.1217 -0.1969 -1.4383
 1881TIP3   OH227277   0.900   0.990   7.510 -0.3124  0.1367  0.5659
 1881TIP3    H127278   0.911   1.083   7.489  1.4480 -0.1560  0.0691
 1881TIP3    H227279   0.840   0.957   7.443 -0.1604  0.7108  0.1380
 1882TIP3   OH227280   4.646   0.660   1.591 -0.2926  0.0070  0.4567
 1882TIP3    H127281   4.611   0.712   1.518 -0.4898 -0.6955  0.0413
 1882TIP3    H227282   4.738   0.683   1.596 -0.1170 -0.4758 -0.4851
 1883TIP3   OH227283   3.952   1.345   1.261  0.5742  0.6521  0.1133
 1883TIP3    H127284   3.866   1.366   1.223 -0.1066 -1.3994  0.3941
 1883TIP3    H227285   3.996   1.430   1.268 -2.0796  2.0549  1.5836
 1884TIP3   OH227286   0.856   6.705   0.881 -0.0344  0.4557  0.5062
 1884TIP3    H127287   0.890   6.788   0.913  0.6600  0.1371  0.6192
 1884TIP3    H227288   0.782   6.685   0.940  0.4883  0.4594  1.1736
 1885TIP3   OH227289   6.108   0.885   7.244 -0.1216  0.5068  0.0499
 1885TIP3    H127290   6.121   0.905   7.151 -0.4045  0.4946  0.0075
 1885TIP3    H227291   6.128   0.792   7.251 -0.3658  0.4455 -0.0508
 1886TIP3   OH227292   6.303   4.822   0.538  0.1324  0.4772 -0.7472
 1886TIP3    H127293   6.318   4.731   0.563 -1.2563 -0.0708 -1.7454
 1886TIP3    H227294   6.360   4.837   0.462 -1.0813 -0.2298 -1.8408
 1887TIP3   OH227295   0.531   5.159   0.035 -0.1497  0.2435 -0.1466
 1887TIP3    H127296   0.583   5.086   0.001  0.8500  0.1416  1.4397
 1887TIP3    H227297   0.441   5.137   0.012  0.2559 -0.8457 -0.8150
 1888TIP3   OH227298   3.248   2.849   1.097 -0.0733  0.4474 -0.5061
 1888TIP3    H127299   3.284   2.919   1.151 -0.8053 -0.9077  1.9179
 1888TIP3    H227300   3.177   2.813   1.151  0.2628 -2.1032 -1.6645
 1889TIP3   OH227301   1.801   1.573   8.020  0.1746  0.0293  0.3585
 1889TIP3    H127302   1.764   1.516   7.953  0.7634  0.7029 -0.5679
 1889TIP3    H227303   1.743   1.649   8.023  0.3183  0.1409  0.3892
 1890TIP3   OH227304   6.547   3.877   0.567  0.7312  0.1197  0.5443
 1890TIP3    H127305   6.514   3.802   0.615 -0.1478 -0.0004 -0.2097
 1890TIP3    H227306   6.629   3.847   0.528  0.5748 -0.3249  0.5548
 1891TIP3   OH227307   2.771   6.002   0.841 -0.0255  0.1329  0.0582
 1891TIP3    H127308   2.737   6.017   0.929 -0.5082 -2.1874  0.3199
 1891TIP3    H227309   2.703   5.950   0.798  0.7556  0.1993 -1.2919
 1892TIP3   OH227310   5.649   2.810   0.890  0.5621 -0.2010 -0.0038
 1892TIP3    H127311   5.712   2.738   0.889  0.8879  0.0106  1.8357
 1892TIP3    H227312   5.603   2.801   0.973  0.4442  1.5493  0.1667
 1893TIP3   OH227313   2.748   2.242   0.810  0.5455  0.2017  0.5587
 1893TIP3    H127314   2.701   2.184   0.872 -0.8819  1.1604  0.4252
 1893TIP3    H227315   2.681   2.268   0.747  1.4352  1.1408 -0.0168
 1894TIP3   OH227316   4.484   6.375   1.252 -0.1590  0.0106 -0.4290
 1894TIP3    H127317   4.548   6.441   1.226 -1.5623  1.1622 -1.1132
 1894TIP3    H227318   4.423   6.422   1.309  0.5386 -1.4838  1.6655
 1895TIP3   OH227319   3.101   4.845   1.020 -0.2326 -0.5910  0.3587
 1895TIP3    H127320   3.023   4.878   1.065  0.2237 -1.2601  1.7017
 1895TIP3    H227321   3.094   4.750   1.025  0.6887 -0.6634  0.5585
 1896TIP3   OH227322   1.794   2.990   0.564 -0.0815  0.8358 -0.2122
 1896TIP3    H127323   1.748   3.022   0.486  0.2427 -0.5859 -1.0395
 1896TIP3    H227324   1.800   2.895   0.550 -0.4929  0.4715  1.8144
 1897TIP3   OH227325   3.803   4.604   1.297 -0.0038 -0.1377  0.2081
 1897TIP3    H127326   3.880   4.655   1.274 -0.4783 -0.2726 -1.8323
 1897TIP3    H227327   3.743   4.668   1.337  1.0560 -0.0053  1.6479
 1898TIP3   OH227328   5.516   6.809   8.309 -0.6052 -0.0012 -0.3117
 1898TIP3    H127329   5.435   6.859   8.295 -1.9759 -0.5649  4.1472
 1898TIP3    H227330   5.488   6.730   8.354  2.3074 -1.1351 -0.2891
 1899TIP3   OH227331   6.748   0.857   7.451 -0.6922 -0.2442  0.4499
 1899TIP3    H127332   6.652   0.859   7.457 -0.6395 -0.0963  1.3536
 1899TIP3    H227333   6.772   0.949   7.438 -0.7843 -0.5115 -2.1601
 1900TIP3   OH227334   2.199   1.516   1.275  0.3413 -0.5904  0.2040
 1900TIP3    H127335   2.236   1.429   1.264  0.3163 -0.5390 -0.3209
 1900TIP3    H227336   2.166   1.539   1.188  1.9171  0.6519 -0.1106
 1901TIP3   OH227337   6.157   4.229   0.033  0.2338  0.2215 -0.0804
 1901TIP3    H127338   6.197   4.174  -0.034  1.3592  0.6955  0.1767
 1901TIP3    H227339   6.150   4.173   0.110  2.6763  0.7793  0.6163
 1902TIP3   OH227340   3.539   4.104   1.165 -0.1724 -0.2489  0.4784
 1902TIP3    H127341   3.605   4.083   1.232  0.3483  1.3267  0.4947
 1902TIP3    H227342   3.455   4.089   1.209  0.0644 -3.1800  0.1808
 1903TIP3   OH227343   4.768   4.782   8.237 -0.2766  0.0151  0.0317
 1903TIP3    H127344   4.708   4.776   8.163 -1.3760  0.1216  0.8902
 1903TIP3    H227345   4.811   4.697   8.240 -0.9187 -0.3262 -0.1670
 1904TIP3   OH227346   3.928   6.798   8.445  0.2300 -0.8883 -0.3324
 1904TIP3    H127347   3.867   6.859   8.405  2.0539  0.9308 -0.4976
 1904TIP3    H227348   4.002   6.793   8.383  0.8613 -1.9803  0.4623
 1905TIP3   OH227349   5.971   4.925   2.127 -0.4930 -0.4323  0.0985
 1905TIP3    H127350   6.016   5.004   2.096 -1.0492 -0.2844 -0.3587
 1905TIP3    H227351   5.972   4.933   2.222 -0.2095 -0.0635  0.0688
 1906TIP3   OH227352   4.629   4.371   8.214  0.1047 -0.1799  0.3065
 1906TIP3    H127353   4.601   4.383   8.123 -1.4200  1.1980  0.8969
 1906TIP3    H227354   4.612   4.278   8.231  2.3878 -0.9878 -1.3829
 1907TIP3   OH227355   0.245   6.315   8.171 -0.5154 -0.0567  0.0029
 1907TIP3    H127356   0.240   6.384   8.238 -0.0103 -1.6341  1.7330
 1907TIP3    H227357   0.254   6.363   8.089  0.9805  1.9563  1.2387
 1908TIP3   OH227358   2.749   0.370   7.303 -0.5179 -0.3280 -0.2473
 1908TIP3    H127359   2.764   0.445   7.360  0.3094 -0.6891  0.0337
 1908TIP3    H227360   2.811   0.381   7.231 -1.5308  0.1011 -1.0600
 1909TIP3   OH227361   6.374   2.171   8.127  0.1448 -0.0970 -0.4612
 1909TIP3    H127362   6.468   2.166   8.143 -0.1939  2.1174  3.1385
 1909TIP3    H227363   6.368   2.200   8.036  2.9288  0.0774 -0.6980
 1910TIP3   OH227364   2.916   4.972   2.492 -0.6449 -0.1380  0.1162
 1910TIP3    H127365   2.949   5.020   2.569 -0.5917  0.9973 -0.5936
 1910TIP3    H227366   2.841   4.923   2.525 -0.6250  0.3385  0.8912
 1911TIP3   OH227367   5.633   5.303   7.807  0.3500 -0.7478 -0.5860
 1911TIP3    H127368   5.572   5.371   7.838  0.1950 -0.4844 -1.4484
 1911TIP3    H227369   5.716   5.349   7.795  0.1851 -0.6509 -1.4000
 1912TIP3   OH227370   6.563   4.189   8.508  0.0780  0.0879 -0.5889
 1912TIP3    H127371   6.517   4.273   8.499  0.9446  0.5669 -0.6818
 1912TIP3    H227372   6.507   4.126   8.463 -1.7326  0.1600  1.3736
 1913TIP3   OH227373   1.137   6.916   0.738  0.0954  0.2641  0.8891
 1913TIP3    H127374   1.111   6.988   0.680  0.6037 -0.2877 -0.0354
 1913TIP3    H227375   1.151   6.842   0.680  0.5453 -0.3230  1.7283
 1914TIP3   OH227376   5.627   0.808   1.232 -0.5915 -0.2446  0.1220
 1914TIP3    H127377   5.628   0.733   1.172 -1.7800 -0.4814  0.3765
 1914TIP3    H227378   5.574   0.779   1.306 -0.5338  0.6276  0.5196
 1915TIP3   OH227379   4.610   2.045   7.159 -0.0437  0.1329 -0.0307
 1915TIP3    H127380   4.681   1.982   7.156 -0.2322 -0.0668 -2.0006
 1915TIP3    H227381   4.548   2.010   7.223 -0.8899 -2.5746 -2.1581
 1916TIP3   OH227382   4.143   0.641   7.265 -0.5307 -0.4940 -0.4651
 1916TIP3    H127383   4.094   0.676   7.339 -3.9033 -0.8664 -2.3030
 1916TIP3    H227384   4.165   0.552   7.291  0.4335  0.1090  0.9138
 1917TIP3   OH227385   3.545   2.425   7.617 -0.3459  0.1620 -0.7148
 1917TIP3    H127386   3.479   2.409   7.549  1.7093 -0.8459 -2.6263
 1917TIP3    H227387   3.615   2.472   7.571  0.8004  0.1211  0.9170
 1918TIP3   OH227388   5.780   3.706   3.020  0.0882  0.2427 -0.7143
 1918TIP3    H127389   5.739   3.792   3.022 -1.2877 -0.3153 -2.1984
 1918TIP3    H227390   5.747   3.666   2.939  0.5559 -1.7320  0.0166
 1919TIP3   OH227391   6.655   0.553   0.001 -0.6226 -0.6232  0.0062
 1919TIP3    H127392   6.568   0.542   0.039 -1.0656  0.4571 -0.6489
 1919TIP3    H227393   6.639   0.597  -0.082  0.5003 -1.0706 -0.4661
 1920TIP3   OH227394   3.440   4.433   2.510  0.3455 -0.7675  0.0529
 1920TIP3    H127395   3.369   4.487   2.475  1.6661  0.4382 -0.8785
 1920TIP3    H227396   3.416   4.343   2.488 -0.9297 -0.3988 -0.1390
 1921TIP3   OH227397   6.240   5.173   0.027 -0.0747 -0.2126 -0.2611
 1921TIP3    H127398   6.267   5.183  -0.065 -1.4981 -0.4137 -0.7261
 1921TIP3    H227399   6.149   5.146   0.022 -0.7579  1.6136  1.2608
 1922TIP3   OH227400   5.400   2.410   6.666 -0.6200  0.6180  0.0803
 1922TIP3    H127401   5.481   2.461   6.662 -0.6425  0.7724  1.3664
 1922TIP3    H227402   5.344   2.458   6.727 -0.6337 -0.9533  1.3694
 1923TIP3   OH227403   6.783   2.761   6.730 -0.1062  0.3531  0.5559
 1923TIP3    H127404   6.744   2.830   6.676  1.2016  1.7447  1.2967
 1923TIP3    H227405   6.723   2.687   6.723 -2.7600  2.2873  1.4677
 1924TIP3   OH227406   5.841   6.749   2.160  0.3107  0.5554  0.6796
 1924TIP3    H127407   5.863   6.690   2.232  1.3005 -0.1177 -0.1532
 1924TIP3    H227408   5.923   6.795   2.140  0.1149  0.5448 -0.1880
 1925TIP3   OH227409   6.463   5.931   2.091  0.4863 -0.0591 -0.1749
 1925TIP3    H127410   6.373   5.953   2.116  0.3649  0.9302 -1.4110
 1925TIP3    H227411   6.458   5.840   2.062 -0.2917  0.2281 -0.9853
 1926TIP3   OH227412   4.781   2.232   1.208 -0.5803  0.2720  0.0425
 1926TIP3    H127413   4.759   2.205   1.118  0.1854 -0.4140  0.0471
 1926TIP3    H227414   4.718   2.186   1.263 -1.1175  0.7742 -0.1447
 1927TIP3   OH227415   3.332   4.399   7.839 -0.0176 -0.1865 -0.3446
 1927TIP3    H127416   3.410   4.455   7.842  0.1210 -0.3985  1.3512
 1927TIP3    H227417   3.365   4.313   7.815 -0.0176  0.1197 -1.4860
 1928TIP3   OH227418   4.745   1.211   7.069 -0.0998  0.1330 -0.4862
 1928TIP3    H127419   4.729   1.137   7.012 -0.8608 -0.3098  0.2650
 1928TIP3    H227420   4.660   1.256   7.073 -0.7109 -1.0378  1.9102
 1929TIP3   OH227421   4.605   0.654   0.909 -0.5203  0.8612  0.2776
 1929TIP3    H127422   4.649   0.581   0.953 -1.4720  0.4012  0.5017
 1929TIP3    H227423   4.516   0.621   0.891 -0.7982  1.7806 -0.0988
 1930TIP3   OH227424   0.013   3.245   2.466  0.1977  0.9844 -0.1404
 1930TIP3    H127425   0.064   3.325   2.480 -0.0629  1.1920 -0.3803
 1930TIP3    H227426   0.076   3.185   2.425 -0.0511  1.6329 -1.5217
 1931TIP3   OH227427   2.893   2.373   0.282 -0.4713 -0.0255 -0.8610
 1931TIP3    H127428   2.963   2.383   0.347 -0.0254 -2.0722 -0.9528
 1931TIP3    H227429   2.938   2.359   0.199 -1.0379  1.4828 -1.4578
 1932TIP3   OH227430   3.123   2.178   0.242 -0.1462  0.3801  0.2035
 1932TIP3    H127431   3.205   2.223   0.219 -0.2233  0.3132 -0.2078
 1932TIP3    H227432   3.084   2.155   0.158  0.8873 -2.2837  0.3285
 1933TIP3   OH227433   1.940   0.927   0.179  0.1311  0.3118 -0.2912
 1933TIP3    H127434   1.917   0.970   0.097 -0.4942  1.7050  0.5732
 1933TIP3    H227435   2.012   0.980   0.214 -0.2057  0.2698  0.4782
 1934TIP3   OH227436   4.940   5.474   8.184 -0.1276  0.1508  0.0029
 1934TIP3    H127437   5.006   5.530   8.143  0.6857  0.5737  1.7874
 1934TIP3    H227438   4.989   5.397   8.213 -1.0033 -0.9310 -1.2771
 1935TIP3   OH227439   0.234   6.029   8.474 -0.0659 -0.2157 -0.0083
 1935TIP3    H127440   0.254   6.122   8.479  1.3615 -0.5204  0.4637
 1935TIP3    H227441   0.241   6.007   8.381  1.2057 -0.1599  0.0564
 1936TIP3   OH227442   1.165   0.173   1.776  0.3907  0.4642 -0.2730
 1936TIP3    H127443   1.135   0.215   1.857 -1.7597  0.6743 -1.0963
 1936TIP3    H227444   1.084   0.141   1.736  1.4891 -0.2125 -2.0158
 1937TIP3   OH227445   2.343   2.318   2.169 -0.2582  0.8012  0.0767
 1937TIP3    H127446   2.376   2.252   2.231 -1.1744 -1.5942 -1.8292
 1937TIP3    H227447   2.422   2.353   2.128  0.2108 -1.4569 -1.0953
 1938TIP3   OH227448   5.559   6.857   0.803 -0.2408  0.6628  0.3757
 1938TIP3    H127449   5.533   6.936   0.756 -0.3204  0.5646  0.2515
 1938TIP3    H227450   5.481   6.833   0.854 -0.7949 -0.2478 -0.8379
 1939TIP3   OH227451   1.930   6.410   0.336  0.3943  0.0766  0.2609
 1939TIP3    H127452   1.977   6.482   0.292  0.6330 -0.5752 -0.5748
 1939TIP3    H227453   1.855   6.392   0.280 -3.3734  3.7465  3.4736
 1940TIP3   OH227454   0.054   0.014   1.915  0.0484 -0.1824 -0.1440
 1940TIP3    H127455   0.052   0.023   2.010  1.7152 -0.1132 -0.0745
 1940TIP3    H227456   0.034   0.102   1.881  0.0371 -0.0711  0.1518
 1941TIP3   OH227457   5.359   3.231   0.409  0.4051  0.2229 -0.1700
 1941TIP3    H127458   5.425   3.162   0.404 -0.6315 -0.8263 -0.0398
 1941TIP3    H227459   5.362   3.273   0.323 -0.5204 -1.5520 -1.1362
 1942TIP3   OH227460   2.425   5.231   0.152  0.0439  0.3868 -0.5719
 1942TIP3    H127461   2.514   5.209   0.182 -0.2142  0.2552  0.1100
 1942TIP3    H227462   2.433   5.320   0.117  0.3609  0.5306 -0.1405
 1943TIP3   OH227463   1.361   6.276   8.311  0.1798  0.0578 -0.1564
 1943TIP3    H127464   1.312   6.317   8.240  0.4280  0.0974 -0.3072
 1943TIP3    H227465   1.445   6.252   8.271  0.7955  1.1662  0.4119
 1944TIP3   OH227466   2.077   3.737   8.443 -0.1336 -0.0217 -0.0816
 1944TIP3    H127467   2.158   3.708   8.487 -1.0690 -2.1988  0.3644
 1944TIP3    H227468   2.048   3.660   8.394 -2.1104  0.6013  0.0314
 1945TIP3   OH227469   3.374   0.542   0.289 -0.1706 -0.5455  0.1304
 1945TIP3    H127470   3.397   0.610   0.226 -2.7459 -0.0722 -0.4008
 1945TIP3    H227471   3.446   0.542   0.352  0.4006  1.9224 -0.4419
 1946TIP3   OH227472   3.973   3.596   0.362 -0.2703 -0.1944  0.6309
 1946TIP3    H127473   3.956   3.649   0.285 -0.6487 -0.2012  0.7111
 1946TIP3    H227474   4.061   3.561   0.347  0.7320  1.8280  1.3580
 1947TIP3   OH227475   4.609   1.813   0.521 -0.1108 -1.0344  0.0879
 1947TIP3    H127476   4.517   1.825   0.546  0.1241 -1.9316  1.4218
 1947TIP3    H227477   4.617   1.720   0.501 -0.2944 -0.4344 -3.6032
 1948TIP3   OH227478   1.530   5.280   7.861 -0.4516 -0.0072  0.3632
 1948TIP3    H127479   1.524   5.375   7.859 -2.3974 -0.0946 -0.1963
 1948TIP3    H227480   1.570   5.256   7.778  2.0399  0.3595  1.3698
 1949TIP3   OH227481   3.983   2.369   2.420 -0.2661 -0.3281 -0.3948
 1949TIP3    H127482   3.897   2.404   2.446 -0.3298 -0.0131 -1.0237
 1949TIP3    H227483   4.043   2.442   2.432  0.1316 -0.8729  1.1456
 1950TIP3   OH227484   4.255   5.713   0.870  0.1953 -0.2353  0.7194
 1950TIP3    H127485   4.274   5.743   0.782  0.4231  0.3757  0.9717
 1950TIP3    H227486   4.178   5.763   0.896 -0.5603 -1.2267  0.4576
 1951TIP3   OH227487   5.681   6.668   1.334 -0.2635  0.1649  0.2259
 1951TIP3    H127488   5.658   6.576   1.337 -1.7807  0.4931 -0.4187
 1951TIP3    H227489   5.645   6.699   1.250  2.7702  0.6967 -1.0290
 1952TIP3   OH227490   1.027   0.867   7.102 -0.2016 -0.7666 -0.4507
 1952TIP3    H127491   1.033   0.945   7.046 -1.3002  0.1246  0.6083
 1952TIP3    H227492   1.080   0.888   7.179 -0.7174 -0.9432 -0.0404
 1953TIP3   OH227493   1.141   5.488   7.490 -0.1769  0.1038 -0.3130
 1953TIP3    H127494   1.086   5.542   7.547 -1.3080  1.1139 -2.2605
 1953TIP3    H227495   1.137   5.401   7.529 -0.8507  0.7584  1.1659
 1954TIP3   OH227496   5.039   5.518   2.983  0.2514 -0.1864 -0.3927
 1954TIP3    H127497   5.001   5.445   3.032  1.9347 -1.0001 -0.2264
 1954TIP3    H227498   4.966   5.577   2.968 -1.0642 -1.6772 -0.1219
 1955TIP3   OH227499   5.961   0.454   7.428 -0.1319 -0.7225  0.1524
 1955TIP3    H127500   6.007   0.529   7.466 -0.7931 -1.5008  2.6931
 1955TIP3    H227501   6.021   0.420   7.362  1.3525  0.4578  0.8213
 1956TIP3   OH227502   3.792   1.979   7.847  0.1494  0.2709 -0.1449
 1956TIP3    H127503   3.842   1.922   7.788  0.7278  0.3662  0.2450
 1956TIP3    H227504   3.804   2.067   7.813 -0.3469  0.2200 -0.4648
 1957TIP3   OH227505   6.747   1.014   8.524  0.2361 -0.1239  0.6547
 1957TIP3    H127506   6.695   1.072   8.579 -1.6221 -1.2470  0.1992
 1957TIP3    H227507   6.820   1.068   8.494  0.2499  1.0656  2.6257
 1958TIP3   OH227508   5.297   5.538   7.348  0.1912  0.0622  0.2043
 1958TIP3    H127509   5.272   5.465   7.291  0.2764  0.3867 -0.2527
 1958TIP3    H227510   5.274   5.616   7.298 -1.7020  0.3734  1.4911
 1959TIP3   OH227511   5.044   0.466   7.584 -0.0286  0.0528 -0.2964
 1959TIP3    H127512   5.074   0.557   7.577  0.9554 -0.2270  0.1315
 1959TIP3    H227513   5.124   0.415   7.598 -0.5904 -0.8579 -0.3055
 1960TIP3   OH227514   2.995   1.378   0.575  0.0216  0.1087 -0.4459
 1960TIP3    H127515   3.022   1.458   0.620  2.4611 -0.5420 -0.5788
 1960TIP3    H227516   3.000   1.401   0.482  4.0804 -0.9310 -0.6953
 1961TIP3   OH227517   3.753   6.940   2.551 -0.0365  0.5502 -0.4040
 1961TIP3    H127518   3.680   6.880   2.561 -0.1581  0.2836 -2.4717
 1961TIP3    H227519   3.764   6.979   2.638 -1.1313 -1.0812  0.5257
 1962TIP3   OH227520   0.773   1.629   7.002  0.3800 -0.2365  0.1875
 1962TIP3    H127521   0.771   1.534   7.017  0.6881 -0.1530  0.7694
 1962TIP3    H227522   0.680   1.654   7.001  0.3120 -0.3810  1.1654
 1963TIP3   OH227523   2.498   1.569   2.898  0.7751  0.0693 -0.6209
 1963TIP3    H127524   2.461   1.654   2.920  0.7167  0.1346 -0.9636
 1963TIP3    H227525   2.436   1.505   2.934  1.5171  0.1498  0.8474
 1964TIP3   OH227526   0.352   4.316   1.157  0.6045 -0.6145 -0.4874
 1964TIP3    H127527   0.266   4.276   1.143 -0.5111  0.4411  2.7048
 1964TIP3    H227528   0.335   4.391   1.213  3.5215  0.2179 -0.5803
 1965TIP3   OH227529   5.729   4.716   0.536  0.1584 -0.4140 -0.1685
 1965TIP3    H127530   5.636   4.708   0.557 -0.1777  1.0957 -0.9332
 1965TIP3    H227531   5.765   4.765   0.610  0.3512 -0.9904  0.1226
 1966TIP3   OH227532   4.068   3.007   0.748  0.4331 -0.1024  0.7399
 1966TIP3    H127533   4.151   2.961   0.759  1.0868  0.9439  0.3882
 1966TIP3    H227534   4.023   2.997   0.832  0.5697 -1.3134  0.6843
 1967TIP3   OH227535   0.735   4.678   1.785  0.3144 -0.6214 -0.4023
 1967TIP3    H127536   0.691   4.626   1.853 -1.7441 -1.2402 -2.1101
 1967TIP3    H227537   0.787   4.615   1.736  0.6466 -0.4278 -0.3023
 1968TIP3   OH227538   0.223   2.141   1.170  0.0127  0.2154 -0.0840
 1968TIP3    H127539   0.263   2.145   1.083 -0.2651  0.4345 -0.2028
 1968TIP3    H227540   0.130   2.150   1.154  0.0440  1.4535  0.3280
 1969TIP3   OH227541   6.468   6.940   7.470  0.2838 -0.4846 -0.1614
 1969TIP3    H127542   6.540   6.877   7.474  1.0052  0.3490  0.3596
 1969TIP3    H227543   6.460   6.973   7.559 -1.0587 -0.8896 -0.1080
 1970TIP3   OH227544   3.872   0.338   7.040  0.0882  0.5341 -0.3838
 1970TIP3    H127545   3.789   0.293   7.026  0.2580 -0.1527  0.6825
 1970TIP3    H227546   3.938   0.277   7.005  0.4950 -1.0786  2.7886
 1971TIP3   OH227547   2.552   4.058   0.780  0.1041 -0.1991  0.0758
 1971TIP3    H127548   2.578   4.016   0.699 -0.4848  0.4558 -0.4616
 1971TIP3    H227549   2.603   4.139   0.784 -0.5378  0.2276 -0.1148
 1972TIP3   OH227550   3.747   2.789   7.744  0.1569 -0.2984  0.0998
 1972TIP3    H127551   3.674   2.754   7.693  1.3531 -0.5121 -1.5353
 1972TIP3    H227552   3.721   2.878   7.765 -0.1406  0.0004 -1.4323
 1973TIP3   OH227553   4.436   3.357   0.319  0.1032 -0.1427 -0.0611
 1973TIP3    H127554   4.412   3.323   0.405 -0.3421  0.1186 -0.0795
 1973TIP3    H227555   4.442   3.452   0.331 -1.3806  0.0520 -0.6407
 1974TIP3   OH227556   6.467   2.315   7.383  0.3917  0.4783 -0.6713
 1974TIP3    H127557   6.519   2.396   7.374  0.8843  0.0073 -2.7313
 1974TIP3    H227558   6.529   2.245   7.364 -0.6390 -0.2060 -1.6259
 1975TIP3   OH227559   0.708   5.962   2.591  0.5949  0.3294 -0.1937
 1975TIP3    H127560   0.771   6.002   2.531  1.9685 -0.5703  0.5961
 1975TIP3    H227561   0.623   5.981   2.552  1.3602  1.2129 -1.5291
 1976TIP3   OH227562   6.677   6.077   2.113 -0.2510 -0.5186  0.2281
 1976TIP3    H127563   6.671   6.133   2.191 -1.2421  2.1833 -1.6476
 1976TIP3    H227564   6.616   6.006   2.131 -0.3088 -0.0659  2.0096
 1977TIP3   OH227565   5.174   1.143   6.935 -0.0298  0.4327  0.2576
 1977TIP3    H127566   5.162   1.085   6.860 -1.6020  1.0552 -0.0123
 1977TIP3    H227567   5.165   1.087   7.012  1.8618 -0.2607  0.0262
 1978TIP3   OH227568   5.467   3.474   0.566  0.5615 -0.3964  0.0291
 1978TIP3    H127569   5.395   3.419   0.535 -0.4531  1.1424 -0.4472
 1978TIP3    H227570   5.507   3.509   0.487  1.9605 -1.3321  0.2838
 1979TIP3   OH227571   4.472   5.575   8.223  0.1029  0.2764 -0.2704
 1979TIP3    H127572   4.546   5.558   8.281 -0.9271 -0.1185  0.9748
 1979TIP3    H227573   4.441   5.488   8.197 -1.4469  0.3081  1.2586
 1980TIP3   OH227574   3.613   0.079   8.063 -0.3936 -0.4149 -0.0976
 1980TIP3    H127575   3.608   0.162   8.016  0.5818 -0.0063  0.5032
 1980TIP3    H227576   3.576   0.099   8.149  1.3941 -0.1304  0.6472
 1981TIP3   OH227577   6.737   2.745   7.864 -0.4225  0.0185 -0.2572
 1981TIP3    H127578   6.766   2.815   7.805 -0.5257 -0.7111 -1.1887
 1981TIP3    H227579   6.647   2.727   7.837 -1.1537  0.9612  1.3719
 1982TIP3   OH227580   6.222   5.350   2.078  0.1759  0.8804 -0.3544
 1982TIP3    H127581   6.306   5.305   2.078  0.3565  1.0947  1.8208
 1982TIP3    H227582   6.244   5.442   2.062  0.2211  0.7891 -0.8425
 1983TIP3   OH227583   5.307   6.057   7.094  0.1385 -0.3336 -0.4038
 1983TIP3    H127584   5.327   5.963   7.092  0.8172 -0.1925 -0.4531
 1983TIP3    H227585   5.363   6.095   7.026  0.2702  0.1846 -0.0063
 1984TIP3   OH227586   2.523   5.429   7.467 -0.4348 -0.2846  0.4041
 1984TIP3    H127587   2.477   5.366   7.411 -0.2473  1.4371 -1.8364
 1984TIP3    H227588   2.473   5.510   7.456 -0.4880  0.1031  2.9563
 1985TIP3   OH227589   2.514   1.550   2.364  0.0686  0.7927  0.3727
 1985TIP3    H127590   2.544   1.549   2.455  0.0128  1.2420  0.3971
 1985TIP3    H227591   2.424   1.517   2.368  0.9345 -1.8357  0.1431
 1986TIP3   OH227592   4.180   6.184   1.274  0.0888 -0.7655 -0.1192
 1986TIP3    H127593   4.203   6.097   1.241 -0.6897 -2.1166  2.6325
 1986TIP3    H227594   4.252   6.207   1.332 -0.9159 -0.7866  1.1766
 1987TIP3   OH227595   5.186   1.813   7.586  0.6621  0.2107 -0.3030
 1987TIP3    H127596   5.091   1.805   7.592  0.8099 -1.9310 -0.2022
 1987TIP3    H227597   5.204   1.813   7.492  0.6093 -0.0677 -0.3130
 1988TIP3   OH227598   3.842   3.781   3.002  0.5198  0.2720  0.1829
 1988TIP3    H127599   3.785   3.705   3.013 -0.2439  0.8233  0.1244
 1988TIP3    H227600   3.906   3.773   3.072  0.5394 -0.5005  0.0899
 1989TIP3   OH227601   3.771   4.257   1.108 -0.1787 -0.9057 -0.2071
 1989TIP3    H127602   3.676   4.267   1.113  0.0081  0.6660  3.5977
 1989TIP3    H227603   3.790   4.182   1.164  0.9087 -0.6291 -0.1850
 1990TIP3   OH227604   2.281   5.617   1.708 -0.1087 -0.8798 -0.1143
 1990TIP3    H127605   2.188   5.633   1.692  0.0871  0.0864 -0.3337
 1990TIP3    H227606   2.311   5.568   1.631  0.1044  0.9640 -1.2682
 1991TIP3   OH227607   3.920   6.488   7.670 -0.1343 -0.0854  0.0467
 1991TIP3    H127608   3.825   6.480   7.664 -0.1232  0.8834 -2.5562
 1991TIP3    H227609   3.940   6.576   7.638  1.6487 -0.2443  0.5863
 1992TIP3   OH227610   0.393   6.218   0.422 -0.4786  0.9692 -0.2496
 1992TIP3    H127611   0.395   6.283   0.492 -0.9078  0.2862  0.4184
 1992TIP3    H227612   0.300   6.200   0.408 -0.4744 -2.9929  2.9882
 1993TIP3   OH227613   0.711   4.705   1.476 -0.5478  0.1172  0.0166
 1993TIP3    H127614   0.694   4.728   1.568  0.5413 -2.2185  0.9042
 1993TIP3    H227615   0.805   4.713   1.466 -0.4178 -1.3719 -0.3064
 1994TIP3   OH227616   6.252   6.740   7.333  0.1846  0.4621  0.1013
 1994TIP3    H127617   6.317   6.798   7.373 -0.6436  0.6037  1.2984
 1994TIP3    H227618   6.251   6.765   7.240 -0.3179  2.5555  0.6187
 1995TIP3   OH227619   1.769   0.743   0.603  0.5459  0.4174  0.3370
 1995TIP3    H127620   1.780   0.837   0.593  0.1164  0.5843  1.3131
 1995TIP3    H227621   1.857   0.709   0.617  0.8686  0.4810 -1.3425
 1996TIP3   OH227622   1.125   2.059   1.743 -0.4276  0.2275 -0.7233
 1996TIP3    H127623   1.180   2.131   1.714 -1.0422  0.6860 -0.7590
 1996TIP3    H227624   1.068   2.040   1.668 -0.7067  0.1371 -0.4917
 1997TIP3   OH227625   5.597   2.400   1.030  0.1199 -0.0241  0.1523
 1997TIP3    H127626   5.586   2.408   1.125 -0.9836  1.8739 -0.0958
 1997TIP3    H227627   5.510   2.381   0.997  0.8020 -2.6205 -0.3833
 1998TIP3   OH227628   0.332   4.433   0.521 -0.1029  0.4851  0.0432
 1998TIP3    H127629   0.323   4.391   0.607 -2.3652  3.1096  1.2581
 1998TIP3    H227630   0.279   4.380   0.462  1.2890 -1.2196  0.2391
 1999TIP3   OH227631   2.458   3.295   0.874  0.5107  0.5956 -0.6200
 1999TIP3    H127632   2.501   3.380   0.876  2.5595 -0.3156 -2.3602
 1999TIP3    H227633   2.403   3.298   0.796  0.5102  0.3601 -0.6291
 2000TIP3   OH227634   1.772   1.955   8.155 -0.1589 -0.1666  0.1531
 2000TIP3    H127635   1.827   2.032   8.172 -0.5680  0.0744  0.4033
 2000TIP3    H227636   1.764   1.913   8.241  1.6823 -1.5913 -0.3196
 2001TIP3   OH227637   5.543   2.773   0.663 -0.6354 -0.3702  0.1258
 2001TIP3    H127638   5.599   2.798   0.736 -1.3680 -0.1089  0.6138
 2001TIP3    H227639   5.454   2.779   0.698 -0.9556 -1.0883 -0.5388
 2002TIP3   OH227640   4.939   1.220   1.462 -0.4780 -0.3022 -0.2877
 2002TIP3    H127641   4.943   1.314   1.444 -0.4960 -0.4494 -1.1340
 2002TIP3    H227642   5.030   1.191   1.462 -0.1823  0.2618  3.3271
 2003TIP3   OH227643   2.994   6.369   1.871 -0.6151  0.3078 -0.2680
 2003TIP3    H127644   2.943   6.382   1.792  0.1749  0.5549 -0.7534
 2003TIP3    H227645   2.977   6.447   1.924  1.0190  1.5434 -1.4395
 2004TIP3   OH227646   0.928   6.335   7.656  0.2334 -0.1952 -0.7874
 2004TIP3    H127647   0.984   6.261   7.633 -0.0056 -0.4370 -0.5971
 2004TIP3    H227648   0.866   6.300   7.720  0.1150  0.1684 -0.6976
 2005TIP3   OH227649   4.177   5.509   1.090  0.6356 -0.2398  0.1646
 2005TIP3    H127650   4.152   5.535   1.179  1.3849 -1.5863  0.8097
 2005TIP3    H227651   4.101   5.531   1.037 -0.5404 -0.9792  1.4551
 2006TIP3   OH227652   0.572   0.183   1.429  0.2024 -0.4335  0.2848
 2006TIP3    H127653   0.479   0.205   1.427  0.1835 -0.5723 -0.8537
 2006TIP3    H227654   0.599   0.202   1.519 -0.8825 -0.2333  0.5819
 2007TIP3   OH227655   3.318   2.073   0.868  0.0886  0.1354 -0.1990
 2007TIP3    H127656   3.223   2.084   0.867  0.1941  1.1410 -0.8084
 2007TIP3    H227657   3.343   2.074   0.776  0.7447  0.4044 -0.0231
 2008TIP3   OH227658   4.489   1.671   0.025 -0.0008 -0.3405  0.4453
 2008TIP3    H127659   4.443   1.621   0.093  2.2512 -0.4641  1.9521
 2008TIP3    H227660   4.574   1.629   0.018  0.4287  0.7239 -1.3025
 2009TIP3   OH227661   2.804   6.544   2.950 -0.3401  0.4792  0.6896
 2009TIP3    H127662   2.807   6.514   2.859  1.1997  1.3504  0.4206
 2009TIP3    H227663   2.750   6.623   2.947  0.2517  0.8774  0.4077
 2010TIP3   OH227664   0.465   6.000   7.693 -0.9519  0.3645 -0.2820
 2010TIP3    H127665   0.508   6.071   7.646 -0.9132  1.3001  1.0985
 2010TIP3    H227666   0.389   5.978   7.639 -1.0451  1.5572 -0.6705
 2011TIP3   OH227667   2.952   4.620   0.131 -0.3005  0.1331 -0.3870
 2011TIP3    H127668   2.931   4.555   0.197  0.8070  0.3115  0.1762
 2011TIP3    H227669   2.868   4.645   0.093 -1.0957  0.8476  1.7230
 2012TIP3   OH227670   3.240   5.782   7.962  0.1877 -0.1737 -0.1831
 2012TIP3    H127671   3.262   5.774   7.869  1.0930  2.0087 -0.2248
 2012TIP3    H227672   3.188   5.862   7.966  1.4079  0.5799  1.3659
 2013TIP3   OH227673   2.555   4.842   0.965 -0.2285 -0.0450  0.3406
 2013TIP3    H127674   2.539   4.829   1.058 -0.8212  1.6365  0.5107
 2013TIP3    H227675   2.613   4.770   0.940  0.0231 -0.4605  2.0196
 2014TIP3   OH227676   4.252   2.433   0.312 -0.3888 -0.3876 -0.1708
 2014TIP3    H127677   4.177   2.378   0.333 -0.0267 -0.8218 -0.0176
 2014TIP3    H227678   4.314   2.375   0.267  1.2272 -0.8580  2.4719
 2015TIP3   OH227679   0.349   4.872   1.720  0.0238 -0.0407 -0.0884
 2015TIP3    H127680   0.415   4.840   1.782 -1.7241 -0.4530  1.6446
 2015TIP3    H227681   0.386   4.953   1.685  1.7112 -0.5884  0.3060
 2016TIP3   OH227682   0.475   2.987   7.473  0.4582  0.7568 -0.1299
 2016TIP3    H127683   0.471   3.063   7.416 -2.2222  0.5806 -0.3085
 2016TIP3    H227684   0.523   3.017   7.550  3.4565  1.2177 -2.0298
 2017TIP3   OH227685   4.172   3.880   0.121  0.7679  0.3866  0.4440
 2017TIP3    H127686   4.226   3.813   0.162 -0.2172 -0.1106  0.9760
 2017TIP3    H227687   4.220   3.905   0.042  1.0905 -1.0528  0.1533
 2018TIP3   OH227688   2.690   5.184   8.385 -0.5240  0.4426 -0.8758
 2018TIP3    H127689   2.755   5.192   8.315 -0.3098 -0.2364 -0.7699
 2018TIP3    H227690   2.738   5.206   8.465 -0.3768 -0.2026 -0.7806
 2019TIP3   OH227691   0.271   6.647   0.459  0.2232  0.1206  0.2787
 2019TIP3    H127692   0.254   6.701   0.537 -0.0688 -0.2388  0.4662
 2019TIP3    H227693   0.220   6.688   0.390  0.3094  0.3130  0.3273
 2020TIP3   OH227694   1.961   1.733   2.605 -0.4442 -0.5205  0.1076
 2020TIP3    H127695   1.976   1.667   2.537  1.7959 -0.2945  0.3187
 2020TIP3    H227696   2.009   1.810   2.575 -2.6267  0.9327  0.0933
 2021TIP3   OH227697   1.360   6.661   0.538 -0.3123  0.5110 -0.1696
 2021TIP3    H127698   1.326   6.747   0.513  0.6810  0.3586 -2.3165
 2021TIP3    H227699   1.296   6.599   0.504  0.9327  0.3117 -2.3777
 2022TIP3   OH227700   1.907   3.967   1.789 -0.3070  0.3149  0.2741
 2022TIP3    H127701   1.945   4.055   1.797 -0.9091  0.5913  0.1179
 2022TIP3    H227702   1.979   3.913   1.755  0.3605  0.5246  1.2972
 2023TIP3   OH227703   6.760   2.979   0.787  0.0731 -0.2884 -0.1684
 2023TIP3    H127704   6.717   3.064   0.776 -0.4704 -0.5209  0.1201
 2023TIP3    H227705   6.851   2.995   0.764  0.5547  0.9593  2.3535
 2024TIP3   OH227706   1.169   1.294   0.512 -0.5862 -0.2828  0.3815
 2024TIP3    H127707   1.104   1.339   0.566  0.0940 -0.9181  1.7758
 2024TIP3    H227708   1.226   1.249   0.574 -0.0593 -1.4587 -0.8794
 2025TIP3   OH227709   1.526   5.281   0.138 -0.5163 -0.9390  0.4888
 2025TIP3    H127710   1.500   5.354   0.194  0.1152 -0.4490  0.1604
 2025TIP3    H227711   1.476   5.207   0.170 -0.7778 -0.4767  1.1691
 2026TIP3   OH227712   2.002   5.252   7.297 -0.0771  1.0643 -0.2849
 2026TIP3    H127713   1.933   5.315   7.276  0.0409  1.0515 -0.7103
 2026TIP3    H227714   2.082   5.291   7.263  0.3111  1.5815  1.1564
 2027TIP3   OH227715   0.995   4.820   8.024 -0.1662  0.2907 -0.1333
 2027TIP3    H127716   0.904   4.790   8.023  0.1182 -0.7211 -2.3405
 2027TIP3    H227717   1.044   4.749   8.065  0.1491 -1.3539 -3.0399
 2028TIP3   OH227718   5.635   6.136   7.261  0.3152 -0.2629  0.2006
 2028TIP3    H127719   5.699   6.141   7.190  1.0646  0.7965  0.9180
 2028TIP3    H227720   5.579   6.213   7.248  1.1519  0.5726  1.3812
 2029TIP3   OH227721   2.237   6.529   1.549 -0.0340 -0.1747 -0.2571
 2029TIP3    H127722   2.172   6.469   1.586 -1.0144  0.7547 -0.4088
 2029TIP3    H227723   2.252   6.496   1.460  0.8913 -1.2949  0.2891
 2030TIP3   OH227724   4.171   6.138   2.167 -0.2789  0.6346 -0.1812
 2030TIP3    H127725   4.148   6.199   2.238 -0.0665 -1.0144  1.3894
 2030TIP3    H227726   4.109   6.066   2.176  0.6328 -0.2604 -0.7923
 2031TIP3   OH227727   1.225   3.924   2.405 -0.0082 -0.1834 -0.8267
 2031TIP3    H127728   1.212   4.012   2.370  1.0744  0.7633  1.0246
 2031TIP3    H227729   1.236   3.936   2.499 -0.3773 -2.3719 -0.4376
 2032TIP3   OH227730   4.024   0.611   7.017 -0.7742 -0.0064 -0.3662
 2032TIP3    H127731   4.070   0.608   7.101  0.3700  1.8300 -0.8560
 2032TIP3    H227732   3.982   0.526   7.009  1.2329 -1.2033  0.8771
 2033TIP3   OH227733   2.309   3.095   1.665  0.1261 -0.1356  0.0881
 2033TIP3    H127734   2.288   3.150   1.740 -3.2739  0.7914 -1.3323
 2033TIP3    H227735   2.292   3.006   1.695  2.9996 -0.3070  1.5710
 2034TIP3   OH227736   5.124   4.949   0.319 -0.1235 -0.0052 -0.1059
 2034TIP3    H127737   5.163   4.864   0.340  0.7139  0.4680  0.3201
 2034TIP3    H227738   5.199   5.009   0.312 -0.5426  0.3768 -2.0763
 2035TIP3   OH227739   1.935   4.509   7.697 -0.1079 -0.1281 -0.4237
 2035TIP3    H127740   1.947   4.460   7.616 -2.5748 -0.0826 -0.8921
 2035TIP3    H227741   1.847   4.486   7.727 -0.9446  3.0330 -0.0171
 2036TIP3   OH227742   6.772   4.700   8.041  0.8004 -0.3594 -0.2051
 2036TIP3    H127743   6.833   4.638   8.083  0.1600 -1.0683 -0.3017
 2036TIP3    H227744   6.829   4.769   8.007  1.3611  0.1393  1.6434
 2037TIP3   OH227745   5.744   0.858   2.158 -0.0200  0.4616  0.4494
 2037TIP3    H127746   5.672   0.832   2.214 -0.4413  0.9415  0.1395
 2037TIP3    H227747   5.819   0.809   2.191  0.1383  1.9809  2.5243
 2038TIP3   OH227748   6.783   1.124   1.884 -0.1236 -0.6365 -0.4570
 2038TIP3    H127749   6.762   1.217   1.872  0.5953 -0.3367  0.5253
 2038TIP3    H227750   6.846   1.105   1.815 -0.0280 -0.3123 -0.4622
 2039TIP3   OH227751   4.944   0.648   1.327  0.2579  0.1263  0.2861
 2039TIP3    H127752   4.971   0.600   1.406  2.1204  0.8352  0.1154
 2039TIP3    H227753   4.976   0.595   1.254 -0.1834  0.2172  0.0197
 2040TIP3   OH227754   4.425   3.504   0.641  0.2383 -0.5563  0.2407
 2040TIP3    H127755   4.450   3.440   0.707  1.4383 -1.6792 -1.2202
 2040TIP3    H227756   4.502   3.560   0.631 -0.1660  0.0143  0.2464
 2041TIP3   OH227757   5.071   5.505   8.447  0.6207 -0.4904 -0.1493
 2041TIP3    H127758   5.025   5.571   8.396  1.9000  1.1043  0.6275
 2041TIP3    H227759   5.059   5.533   8.538  0.8090 -1.5954  0.2275
 2042TIP3   OH227760   5.244   0.394   0.612 -0.3395 -0.0204  0.7657
 2042TIP3    H127761   5.256   0.300   0.604  1.8266  0.0105  2.7063
 2042TIP3    H227762   5.253   0.428   0.523  0.4595 -1.4986  0.2576
 2043TIP3   OH227763   6.581   6.191   1.165  0.3102  1.2163  0.1478
 2043TIP3    H127764   6.571   6.160   1.075 -0.0110  1.3552  0.1333
 2043TIP3    H227765   6.536   6.276   1.166 -0.0043  1.0468  0.5308
 2044TIP3   OH227766   3.266   1.878   7.996 -0.2106  0.0329  0.1586
 2044TIP3    H127767   3.354   1.900   7.964 -0.3067  0.8341  0.4059
 2044TIP3    H227768   3.282   1.821   8.071  0.0146 -1.7710 -1.2065
 2045TIP3   OH227769   1.662   2.252   0.376 -0.5151 -0.1948  0.0106
 2045TIP3    H127770   1.614   2.333   0.361  0.5795  0.4057 -0.3762
 2045TIP3    H227771   1.754   2.277   0.367 -0.1901 -1.6631 -1.0982
 2046TIP3   OH227772   6.007   3.869   8.062 -0.0019  0.0420 -0.0172
 2046TIP3    H127773   5.967   3.790   8.026 -0.8755  0.8491 -0.9151
 2046TIP3    H227774   6.035   3.919   7.985 -0.7708  1.2443  0.4348
 2047TIP3   OH227775   5.999   0.724   2.221 -0.0878 -0.5298 -0.0313
 2047TIP3    H127776   6.035   0.788   2.283 -1.4889 -1.8950  2.3266
 2047TIP3    H227777   6.004   0.640   2.267 -2.7830 -1.3424 -1.0587
 2048TIP3   OH227778   0.361   2.012   8.061  0.4867  0.1014 -0.0316
 2048TIP3    H127779   0.361   2.103   8.034  0.3896  0.0847 -0.0856
 2048TIP3    H227780   0.349   2.015   8.156 -0.5974  0.1053 -0.1610
 2049TIP3   OH227781   4.164   2.398   1.439 -0.0654 -0.2528 -0.0474
 2049TIP3    H127782   4.141   2.428   1.527  0.3501  0.7127 -0.2501
 2049TIP3    H227783   4.258   2.413   1.433 -0.2248  0.4863 -0.9359
 2050TIP3   OH227784   0.957   3.833   1.583  0.6084 -0.1879  0.2047
 2050TIP3    H127785   0.963   3.924   1.611  2.0846  0.1341 -1.0033
 2050TIP3    H227786   0.895   3.834   1.510 -1.9032 -0.7466  2.1896
 2051TIP3   OH227787   4.964   0.557   6.851 -0.5041 -0.0462 -0.1183
 2051TIP3    H127788   4.895   0.510   6.898 -0.1818 -0.1013  0.3042
 2051TIP3    H227789   4.917   0.620   6.796 -0.9826 -1.2784 -1.1785
 2052TIP3   OH227790   6.493   5.484   8.236 -0.2987 -0.7605 -0.4348
 2052TIP3    H127791   6.516   5.534   8.315  1.8796  0.2498 -1.6305
 2052TIP3    H227792   6.403   5.509   8.217 -0.9580 -1.2045  1.8205
 2053TIP3   OH227793   1.216   0.385   0.018  0.2224 -0.0809 -0.0478
 2053TIP3    H127794   1.255   0.378  -0.069  0.6900  2.0200 -0.0762
 2053TIP3    H227795   1.143   0.323   0.017  1.0937 -1.1379 -1.4158
 2054TIP3   OH227796   5.586   6.171   1.171 -0.0930  0.6532  0.3280
 2054TIP3    H127797   5.580   6.258   1.211  0.3258  0.3101  1.1630
 2054TIP3    H227798   5.536   6.115   1.230  0.0726  0.2322  0.0681
 2055TIP3   OH227799   0.907   3.644   2.548 -0.0551 -0.1176 -0.3122
 2055TIP3    H127800   0.889   3.550   2.547  0.8987 -0.3082 -1.5053
 2055TIP3    H227801   0.836   3.682   2.497 -1.0475 -0.0503  1.0760
 2056TIP3   OH227802   6.689   0.842   2.401 -0.0477 -0.3113 -0.2548
 2056TIP3    H127803   6.647   0.790   2.470  1.3808 -0.7648  0.3035
 2056TIP3    H227804   6.757   0.891   2.447 -0.3313  0.8355 -1.0505
 2057TIP3   OH227805   0.823   3.513   1.294 -0.3956  0.2232  0.1085
 2057TIP3    H127806   0.749   3.566   1.324 -0.1408  0.0752  1.0526
 2057TIP3    H227807   0.889   3.576   1.268 -1.2271  0.3720 -1.8174
 2058TIP3   OH227808   4.978   5.965   1.337  0.0120 -0.5080 -0.3787
 2058TIP3    H127809   5.018   5.940   1.254  0.2249 -1.0136 -0.1260
 2058TIP3    H227810   4.963   5.882   1.382 -1.8397 -0.3999 -0.6945
 2059TIP3   OH227811   3.867   2.974   6.891 -0.3287 -0.1579 -1.0369
 2059TIP3    H127812   3.870   2.969   6.795 -1.2473 -2.5961 -0.9945
 2059TIP3    H227813   3.833   3.062   6.909 -0.3878  0.2617 -2.9418
 2060TIP3   OH227814   5.791   0.036   2.546 -0.0789 -0.0647  0.4079
 2060TIP3    H127815   5.824  -0.051   2.570 -1.5008 -0.6507  0.3043
 2060TIP3    H227816   5.745   0.022   2.463 -0.1667  0.8276  0.2985
 2061TIP3   OH227817   4.720   3.577   0.902  0.4075  0.2606 -1.1081
 2061TIP3    H127818   4.635   3.601   0.865  0.0749 -0.1991 -0.6602
 2061TIP3    H227819   4.758   3.660   0.931 -0.3648  0.3571 -0.3253
 2062TIP3   OH227820   1.885   6.081   8.430 -0.4003 -0.0564  0.3758
 2062TIP3    H127821   1.806   6.050   8.474 -0.1804 -0.2109  0.6627
 2062TIP3    H227822   1.876   6.176   8.430 -0.7233 -0.0853  0.1515
 2063TIP3   OH227823   0.286   0.774   1.444 -0.4616  0.2473  0.2997
 2063TIP3    H127824   0.324   0.830   1.377  1.2232  0.3733  1.3109
 2063TIP3    H227825   0.361   0.727   1.482 -1.3595  0.1299  2.0361
 2064TIP3   OH227826   4.763   1.957   8.308  0.4191  0.4513  0.3978
 2064TIP3    H127827   4.852   1.955   8.272  0.2892 -0.3251  0.0955
 2064TIP3    H227828   4.772   2.002   8.391  1.2109 -0.1119  0.6330
 2065TIP3   OH227829   1.126   2.466   1.188  0.1645  0.4016  0.6471
 2065TIP3    H127830   1.200   2.473   1.249 -0.0403  0.7755  0.8561
 2065TIP3    H227831   1.166   2.473   1.101  0.3010  1.3001  0.7720
 2066TIP3   OH227832   6.295   0.787   0.013  0.2145 -0.2743 -0.2625
 2066TIP3    H127833   6.354   0.825  -0.052  0.4542  1.6777  1.0054
 2066TIP3    H227834   6.216   0.763  -0.036  0.0170  2.0088 -1.1849
 2067TIP3   OH227835   3.180   0.528   1.333  0.0979  0.1291 -0.1557
 2067TIP3    H127836   3.091   0.560   1.350 -0.3097 -0.1257 -1.6607
 2067TIP3    H227837   3.229   0.605   1.304 -0.0950 -0.0352 -0.9414
 2068TIP3   OH227838   0.017   2.925   0.001  0.1839  0.1015  0.7176
 2068TIP3    H127839  -0.005   2.873  -0.076  1.8544  1.5256 -0.7961
 2068TIP3    H227840  -0.055   2.987   0.011  0.1116  0.1096  0.1285
 2069TIP3   OH227841   1.566   5.390   6.790 -0.0832 -0.5585  0.1881
 2069TIP3    H127842   1.621   5.454   6.836 -0.9807 -0.9407  1.8630
 2069TIP3    H227843   1.487   5.438   6.766  0.7229 -0.1248 -1.8431
 2070TIP3   OH227844   0.685   2.887   7.280 -0.0599  0.1018  0.2034
 2070TIP3    H127845   0.718   2.855   7.364 -0.1663 -1.2531 -0.2475
 2070TIP3    H227846   0.594   2.911   7.297 -0.1729 -0.4628  0.4010
 2071TIP3   OH227847   4.169   0.220   2.315  1.1871  0.4159  0.2464
 2071TIP3    H127848   4.195   0.205   2.406  1.4472 -0.1157  0.0844
 2071TIP3    H227849   4.167   0.316   2.307 -1.0753  0.5432  1.4553
 2072TIP3   OH227850   0.774   0.478   2.613 -0.5467  0.5361 -0.1370
 2072TIP3    H127851   0.797   0.424   2.689  0.5411  2.2059  0.8111
 2072TIP3    H227852   0.681   0.496   2.624 -0.5809  0.1040  0.3704
 2073TIP3   OH227853   1.424   6.167   2.043  0.0835  0.2903  0.4525
 2073TIP3    H127854   1.488   6.176   2.114 -0.9327  0.8888  1.3368
 2073TIP3    H227855   1.347   6.129   2.086 -0.7883  1.3099 -0.1672
 2074TIP3   OH227856   0.446   2.471   1.514 -0.2877  0.0302  0.5859
 2074TIP3    H127857   0.406   2.426   1.440  0.4334  2.0318 -1.1335
 2074TIP3    H227858   0.387   2.545   1.531  0.9023  1.1265  0.1743
 2075TIP3   OH227859   3.578   2.371   1.514  0.0615 -0.1948 -0.0595
 2075TIP3    H127860   3.561   2.318   1.592  0.1374  1.0267  0.8156
 2075TIP3    H227861   3.632   2.314   1.458  0.9793 -0.7003  1.2711
 2076TIP3   OH227862   5.568   6.492   2.297  0.5032 -0.6777 -0.7503
 2076TIP3    H127863   5.637   6.539   2.345  1.8215 -1.4928 -1.8012
 2076TIP3    H227864   5.531   6.432   2.362 -1.0507  1.5149  0.5584
 2077TIP3   OH227865   5.707   2.618   0.524  0.1477  0.3563  0.0438
 2077TIP3    H127866   5.794   2.622   0.564 -0.1042  0.0873  0.6271
 2077TIP3    H227867   5.655   2.680   0.575 -0.6145 -1.1964  1.2415
 2078TIP3   OH227868   2.635   1.521   1.872 -0.2792 -0.1446 -0.3099
 2078TIP3    H127869   2.616   1.444   1.926  1.4351 -1.8836 -2.0372
 2078TIP3    H227870   2.561   1.528   1.813 -0.0808 -1.0257 -0.6879
 2079TIP3   OH227871   5.019   1.998   8.243 -0.3055  0.0856  0.5778
 2079TIP3    H127872   5.083   1.927   8.235  1.1732  1.3403  0.8968
 2079TIP3    H227873   5.058   2.058   8.306 -0.3173  2.4502 -1.5361
 2080TIP3   OH227874   4.116   3.677   7.663  0.3100 -0.7989 -0.4940
 2080TIP3    H127875   4.147   3.764   7.690 -1.8000  1.0092 -3.2948
 2080TIP3    H227876   4.040   3.661   7.718 -0.2100 -0.0995 -0.9860
 2081TIP3   OH227877   4.310   4.634   0.846 -0.7171  0.2631  0.3676
 2081TIP3    H127878   4.338   4.584   0.769  2.4722  0.9518  0.9270
 2081TIP3    H227879   4.267   4.711   0.810 -1.3059 -0.5097 -0.6333
 2082TIP3   OH227880   5.973   2.400   7.163  0.1154 -0.0350 -0.1665
 2082TIP3    H127881   6.005   2.490   7.164 -0.4299  0.1613 -0.0750
 2082TIP3    H227882   5.880   2.407   7.184  0.1603 -0.6603  0.2706
 2083TIP3   OH227883   4.461   5.759   0.280 -0.4118 -0.0649 -0.9446
 2083TIP3    H127884   4.492   5.804   0.202 -1.4774  0.9914 -0.7884
 2083TIP3    H227885   4.391   5.701   0.249  1.0549 -1.7958 -1.1696
 2084TIP3   OH227886   0.174   1.628   7.364 -0.5976 -0.5047 -0.1142
 2084TIP3    H127887   0.129   1.692   7.309  1.1013  0.8486  0.0029
 2084TIP3    H227888   0.222   1.680   7.429 -0.5724 -1.9699  1.1197
 2085TIP3   OH227889   0.740   3.887   7.712  0.1984 -0.0059  0.0344
 2085TIP3    H127890   0.735   3.860   7.803 -0.3994 -1.5612 -0.4169
 2085TIP3    H227891   0.802   3.826   7.672  0.8070  0.9443 -0.5142
 2086TIP3   OH227892   4.053   6.794   7.627  0.5125 -0.0267 -0.4103
 2086TIP3    H127893   4.148   6.806   7.626  0.3585  2.4346  2.2061
 2086TIP3    H227894   4.023   6.836   7.546  1.5958 -0.1782 -0.9008
 2087TIP3   OH227895   2.687   3.354   8.074 -0.8265 -0.0590 -0.0405
 2087TIP3    H127896   2.757   3.339   8.137 -0.3366  0.5047 -0.4413
 2087TIP3    H227897   2.716   3.310   7.994 -0.8293  0.3569 -0.2723
 2088TIP3   OH227898   2.112   3.313   0.791 -0.1837  0.3794  0.1063
 2088TIP3    H127899   2.175   3.320   0.720  0.7553 -0.9009  0.7734
 2088TIP3    H227900   2.110   3.220   0.813  0.5376  0.8760  2.5896
 2089TIP3   OH227901   3.703   1.299   2.273 -0.5690 -0.0705 -0.2585
 2089TIP3    H127902   3.642   1.236   2.312 -2.3155  1.6790  0.0300
 2089TIP3    H227903   3.676   1.383   2.310  0.0063  1.1822 -2.5454
 2090TIP3   OH227904   1.110   5.157   7.298  0.4217  0.1804 -0.0418
 2090TIP3    H127905   1.117   5.204   7.381  0.6904  0.4481 -0.2147
 2090TIP3    H227906   1.017   5.160   7.276 -0.2905 -2.7920  1.9204
 2091TIP3   OH227907   0.541   2.608   1.929 -0.6429 -0.0828  0.0691
 2091TIP3    H127908   0.587   2.552   1.992 -1.7208  0.5404  1.4661
 2091TIP3    H227909   0.609   2.636   1.868  0.0249 -2.4713 -0.3615
 2092TIP3   OH227910   2.997   0.220   3.047 -0.4809 -0.6439  0.0201
 2092TIP3    H127911   3.012   0.261   3.132 -2.4204 -0.6222  0.3949
 2092TIP3    H227912   2.908   0.186   3.052 -0.4913 -1.0122 -1.8596
 2093TIP3   OH227913   5.639   1.904   1.777  0.7575  0.3674 -0.4174
 2093TIP3    H127914   5.701   1.876   1.710  0.2259  0.7763 -1.0865
 2093TIP3    H227915   5.647   1.837   1.846  1.0473 -0.2483 -1.0390
 2094TIP3   OH227916   3.151   0.438   7.296  0.4810  0.1030 -0.0761
 2094TIP3    H127917   3.241   0.431   7.327  0.1802 -0.3883  0.7092
 2094TIP3    H227918   3.153   0.404   7.207  1.0662  0.0517 -0.0416
 2095TIP3   OH227919   4.260   0.574   7.522  0.8479  0.3472  0.9268
 2095TIP3    H127920   4.188   0.513   7.508  0.2399  1.2988 -0.2251
 2095TIP3    H227921   4.219   0.660   7.525  1.9123  0.8989  0.3708
 2096TIP3   OH227922   6.928   0.442   7.938  0.4999  0.0352  0.3254
 2096TIP3    H127923   6.848   0.479   7.975  0.9134  1.0943  0.2287
 2096TIP3    H227924   6.994   0.510   7.954  0.8616  0.2162 -1.6888
 2097TIP3   OH227925   0.855   0.484   1.876  0.1521 -0.2673 -0.0126
 2097TIP3    H127926   0.804   0.565   1.881  1.6051  0.8074 -1.5923
 2097TIP3    H227927   0.792   0.415   1.899 -0.9974  1.3058  1.8856
 2098TIP3   OH227928   1.099   5.352   2.649 -0.4891  0.0361  0.0911
 2098TIP3    H127929   1.195   5.354   2.655 -0.4133  0.0487 -0.9792
 2098TIP3    H227930   1.070   5.415   2.715  0.3296  1.9330 -1.2613
 2099TIP3   OH227931   3.077   6.708   1.672 -0.1487 -0.3082  0.1783
 2099TIP3    H127932   3.087   6.725   1.766  1.3385 -0.9497  0.1619
 2099TIP3    H227933   3.134   6.633   1.655 -0.1695 -0.0223 -1.2920
 2100TIP3   OH227934   3.088   3.023   0.253  0.6130  0.0054  0.3688
 2100TIP3    H127935   3.081   3.081   0.329 -0.6653 -0.5040  0.6604
 2100TIP3    H227936   3.126   2.942   0.288 -1.3012 -0.7513  0.7923
 2101TIP3   OH227937   0.261   6.812   2.050 -0.0481 -0.4248 -0.4767
 2101TIP3    H127938   0.219   6.891   2.085 -0.3784 -0.4247 -0.8651
 2101TIP3    H227939   0.327   6.789   2.115  0.9659  0.9277 -1.0076
 2102TIP3   OH227940   5.535   3.102   0.066  0.1126  0.6183 -0.0386
 2102TIP3    H127941   5.450   3.087   0.105 -1.0301  0.3398 -2.4385
 2102TIP3    H227942   5.585   3.022   0.084 -0.3519  0.5149  0.8162
 2103TIP3   OH227943   1.570   0.354   0.660  0.4067  0.5410 -0.3077
 2103TIP3    H127944   1.562   0.259   0.652  0.3675  0.4557  0.6273
 2103TIP3    H227945   1.657   0.368   0.697 -0.9134  0.5868  3.2484
 2104TIP3   OH227946   5.943   1.610   1.121 -0.1242  0.1463 -0.1593
 2104TIP3    H127947   6.028   1.593   1.080 -0.3647 -2.2004  0.1577
 2104TIP3    H227948   5.888   1.645   1.051  0.3420 -0.8957 -1.0690
 2105TIP3   OH227949   3.124   5.471   0.983 -0.1963  0.2184 -0.5681
 2105TIP3    H127950   3.210   5.508   0.963 -0.6219  0.6882 -1.5964
 2105TIP3    H227951   3.125   5.459   1.078  0.6304  1.1699 -0.4377
 2106TIP3   OH227952   1.227   4.246   1.489 -0.2679  0.0899 -0.1526
 2106TIP3    H127953   1.278   4.239   1.408  0.2573  1.2025  0.0512
 2106TIP3    H227954   1.285   4.212   1.557 -1.3695 -2.5468 -0.4316
 2107TIP3   OH227955   1.586   1.361   0.864  0.1207 -0.1805  0.2734
 2107TIP3    H127956   1.597   1.313   0.782  1.4797  0.4025  0.0892
 2107TIP3    H227957   1.568   1.293   0.929  1.2625 -0.8810 -0.1172
 2108TIP3   OH227958   0.893   1.783   2.868 -0.0720 -0.5135  0.0371
 2108TIP3    H127959   0.879   1.739   2.952 -0.7782 -1.3535 -0.4990
 2108TIP3    H227960   0.849   1.868   2.878 -0.9850 -0.9863  0.2114
 2109TIP3   OH227961   1.859   4.265   6.995  0.5149 -0.5922 -0.8474
 2109TIP3    H127962   1.893   4.326   7.061  0.4263 -0.8211 -0.5896
 2109TIP3    H227963   1.882   4.306   6.911  0.9501 -0.4788 -0.6788
 2110TIP3   OH227964   6.570   6.845   0.547 -0.0982 -0.0181  0.5900
 2110TIP3    H127965   6.606   6.795   0.620 -0.6079  0.5242  1.2238
 2110TIP3    H227966   6.489   6.801   0.524 -0.0267 -0.0854  0.4654
 2111TIP3   OH227967   3.038   0.635   0.284 -0.8258  0.4257 -0.2526
 2111TIP3    H127968   3.124   0.675   0.276  0.1651 -1.5261 -0.0777
 2111TIP3    H227969   3.011   0.653   0.374 -0.1783  0.2926 -0.0249
 2112TIP3   OH227970   3.684   5.263   8.001 -0.6229 -0.4614 -0.4691
 2112TIP3    H127971   3.761   5.316   7.981 -0.8419  0.2843  0.5398
 2112TIP3    H227972   3.642   5.247   7.917  0.1945 -0.1773 -0.9336
 2113TIP3   OH227973   6.639   4.619   6.546  0.4441  0.2159 -0.0159
 2113TIP3    H127974   6.713   4.596   6.491 -0.5849  0.2559 -1.4773
 2113TIP3    H227975   6.588   4.681   6.493 -2.0361 -1.8272 -0.2434
 2114TIP3   OH227976   4.269   2.132   7.478  0.4415 -0.1422  0.1024
 2114TIP3    H127977   4.266   2.145   7.572 -2.2848 -3.9227  0.8157
 2114TIP3    H227978   4.354   2.092   7.461  0.8244  0.2744  1.0150
 2115TIP3   OH227979   5.910   6.361   0.389  0.5958  0.2721  0.4620
 2115TIP3    H127980   5.996   6.319   0.390  0.6528  0.3885  0.5652
 2115TIP3    H227981   5.873   6.341   0.475  0.5376  0.2585  0.4338
 2116TIP3   OH227982   2.263   1.577   0.807  0.1352  0.0521  0.1008
 2116TIP3    H127983   2.251   1.508   0.873 -1.7600  1.1454  1.0223
 2116TIP3    H227984   2.311   1.646   0.853  0.6311 -0.0121 -0.3167
 2117TIP3   OH227985   2.015   1.963   1.169 -0.4140  0.4688  0.0986
 2117TIP3    H127986   2.063   2.042   1.193 -0.3193 -0.3422  3.0231
 2117TIP3    H227987   2.081   1.903   1.134 -0.0682  0.8582  0.0867
 2118TIP3   OH227988   3.838   3.198   1.841 -0.7317 -0.2796 -0.8828
 2118TIP3    H127989   3.848   3.107   1.814 -0.7472 -0.1987 -1.1747
 2118TIP3    H227990   3.884   3.204   1.924 -3.4958 -1.3284  0.8384
 2119TIP3   OH227991   5.728   1.250   0.108  0.2983 -0.4901  0.2650
 2119TIP3    H127992   5.644   1.286   0.079  1.0344  1.3569  0.2749
 2119TIP3    H227993   5.704   1.182   0.171 -1.2142 -1.6098 -1.4051
 2120TIP3   OH227994   6.529   1.338   0.864  0.5115 -0.3347  0.2519
 2120TIP3    H127995   6.623   1.319   0.871  0.5610 -0.1391  0.1411
 2120TIP3    H227996   6.524   1.405   0.796  0.3758  0.2874  0.8614
 2121TIP3   OH227997   0.400   0.782   8.073  0.3568  0.3154  0.1290
 2121TIP3    H127998   0.489   0.765   8.041  0.4478 -0.6713  0.8610
 2121TIP3    H227999   0.398   0.876   8.090  0.6090  0.7294 -1.8031
 2122TIP3   OH228000   3.043   2.797   8.020  0.2315 -0.5520  0.1131
 2122TIP3    H128001   3.117   2.787   8.081  1.0845 -0.6255 -0.8956
 2122TIP3    H228002   2.991   2.868   8.057  0.5188 -0.8570  1.1348
 2123TIP3   OH228003   1.560   5.857   0.499  0.5400  0.1986 -0.4400
 2123TIP3    H128004   1.576   5.871   0.593  3.2893 -1.8687 -0.4842
 2123TIP3    H228005   1.625   5.912   0.455  1.7120 -1.5563 -0.9740
 2124TIP3   OH228006   0.777   5.369   1.591  0.2053 -0.6273 -1.1190
 2124TIP3    H128007   0.798   5.374   1.498 -0.7572 -0.0927 -1.3180
 2124TIP3    H228008   0.824   5.444   1.630  0.5043 -0.7782 -1.1820
 2125TIP3   OH228009   6.901   0.506   8.440  0.1818 -0.2455 -0.0984
 2125TIP3    H128010   6.938   0.584   8.398  0.5793 -0.3957 -0.0369
 2125TIP3    H228011   6.826   0.538   8.490  2.0178  0.6014  2.3179
 2126TIP3   OH228012   2.565   0.576   2.252 -0.3058  0.3817  0.2052
 2126TIP3    H128013   2.651   0.584   2.291 -0.3533  0.6586  0.2506
 2126TIP3    H228014   2.509   0.633   2.304 -0.6464 -0.2648  0.5619
 2127TIP3   OH228015   2.578   0.622   1.764 -0.0390  0.2883  0.7242
 2127TIP3    H128016   2.590   0.541   1.715  0.2247 -0.3333  1.7791
 2127TIP3    H228017   2.580   0.595   1.856  0.4757  1.5456  1.1080
 2128TIP3   OH228018   6.723   6.841   0.305  0.5759 -0.2750  0.2381
 2128TIP3    H128019   6.741   6.781   0.377 -1.1754 -1.4457 -0.2424
 2128TIP3    H228020   6.656   6.900   0.338  0.6712 -0.0170 -0.0238
 2129TIP3   OH228021   3.111   4.250   0.397  0.0994 -0.1184  0.2332
 2129TIP3    H128022   3.142   4.182   0.457  1.0780  0.6347  0.6066
 2129TIP3    H228023   3.178   4.255   0.329 -0.1041  0.2788  0.0593
 2130TIP3   OH228024   1.698   3.619   0.428 -0.3602  0.1714  0.3350
 2130TIP3    H128025   1.736   3.608   0.340 -0.8786  1.5999 -0.0901
 2130TIP3    H228026   1.717   3.537   0.472 -0.1802 -0.6374 -1.1626
 2131TIP3   OH228027   6.740   5.509   7.725 -0.2815 -0.3325  0.3097
 2131TIP3    H128028   6.826   5.479   7.695 -0.1303  1.5664 -1.3717
 2131TIP3    H228029   6.702   5.552   7.648 -0.6293  3.2874  2.2796
 2132TIP3   OH228030   6.171   4.261   7.545  0.4094 -0.1406 -0.1046
 2132TIP3    H128031   6.087   4.282   7.503 -1.1843 -0.6802  2.5434
 2132TIP3    H228032   6.216   4.204   7.483 -1.3931 -0.2186 -1.4152
 2133TIP3   OH228033   4.413   3.665   1.981  0.3080  0.5702 -0.1080
 2133TIP3    H128034   4.363   3.736   2.022  1.5046  1.6864 -0.5189
 2133TIP3    H228035   4.496   3.705   1.957  1.2128 -1.1099  0.0834
 2134TIP3   OH228036   1.693   4.916   1.266 -0.0766  0.0659 -0.7793
 2134TIP3    H128037   1.709   5.006   1.296 -0.6488 -0.0397 -0.1449
 2134TIP3    H228038   1.720   4.917   1.174 -1.5771  1.3403 -1.2539
 2135TIP3   OH228039   0.561   6.496   8.455 -0.4684 -0.1898  0.5491
 2135TIP3    H128040   0.609   6.551   8.518  0.7435 -0.1911 -0.3394
 2135TIP3    H228041   0.527   6.424   8.508  0.5698 -0.2183  1.2183
 2136TIP3   OH228042   1.262   4.026   0.525  0.6308 -0.3018 -0.0410
 2136TIP3    H128043   1.347   4.023   0.482 -0.1274  1.3060 -1.7950
 2136TIP3    H228044   1.273   3.974   0.605  2.6948 -1.6683 -1.1509
 2137TIP3   OH228045   2.590   6.111   8.478  0.2758  0.1600  0.4845
 2137TIP3    H128046   2.535   6.187   8.455  1.2614  0.9910  0.7946
 2137TIP3    H228047   2.529   6.038   8.483 -0.5501  0.6928 -0.9806
 2138TIP3   OH228048   0.816   2.112   7.859  0.1786 -0.4711  0.3666
 2138TIP3    H128049   0.886   2.162   7.901  0.8256 -0.6687 -0.4481
 2138TIP3    H228050   0.820   2.136   7.767 -0.7760 -0.5555  0.2841
 2139TIP3   OH228051   4.057   4.871   7.699 -0.6204  0.3567 -0.3095
 2139TIP3    H128052   4.061   4.820   7.780 -1.2344  0.7610 -0.0237
 2139TIP3    H228053   3.994   4.824   7.644 -2.0666  1.4147  0.3946
 2140TIP3   OH228054   3.072   5.800   7.353  0.6735  0.1816 -0.0079
 2140TIP3    H128055   3.080   5.776   7.261  0.4058  1.9189 -0.5190
 2140TIP3    H228056   3.036   5.888   7.352  0.0740  0.0005  1.7885
 2141TIP3   OH228057   2.942   4.623   1.961  0.1605 -0.1780 -0.0579
 2141TIP3    H128058   2.934   4.717   1.950  0.4642 -0.1280  0.1406
 2141TIP3    H228059   2.875   4.586   1.903 -0.1239  0.1656  0.0477
 2142TIP3   OH228060   3.570   5.631   1.010  0.5403 -0.1624 -0.4659
 2142TIP3    H128061   3.614   5.623   1.095 -1.3168  0.6584  0.6225
 2142TIP3    H228062   3.589   5.720   0.981 -0.6446  0.3131  0.1739
 2143TIP3   OH228063   6.195   3.080   2.206 -0.2961  0.9911 -0.1135
 2143TIP3    H128064   6.168   3.090   2.298  1.4342  2.7840  0.2590
 2143TIP3    H228065   6.280   3.037   2.211 -1.1604 -0.9335 -1.0483
 2144TIP3   OH228066   1.804   0.037   8.082 -0.8357  0.6741 -0.4356
 2144TIP3    H128067   1.834   0.100   8.148 -0.2493  0.3321 -0.3674
 2144TIP3    H228068   1.781  -0.041   8.133 -0.3050  0.3811 -0.6384
 2145TIP3   OH228069   1.812   5.505   7.611 -0.6924 -0.2422 -0.4039
 2145TIP3    H128070   1.874   5.542   7.674 -2.1051  0.5574  0.5949
 2145TIP3    H228071   1.830   5.411   7.612  1.1703  0.0748 -0.9440
 2146TIP3   OH228072   3.738   4.023   2.900  0.1790  0.3420  0.2448
 2146TIP3    H128073   3.684   3.966   2.845  0.4674  0.3838 -0.0828
 2146TIP3    H228074   3.796   3.963   2.947 -0.6069  0.2399  1.1131
 2147TIP3   OH228075   0.196   5.704   6.557  0.0192 -0.5861 -0.0982
 2147TIP3    H128076   0.250   5.781   6.577 -0.1490 -0.4963  0.0040
 2147TIP3    H228077   0.174   5.714   6.464  0.5688 -0.8641 -0.2646
 2148TIP3   OH228078   0.302   0.237   7.781 -0.1536  0.2311  0.3788
 2148TIP3    H128079   0.360   0.263   7.710  0.8764 -0.0183  1.0903
 2148TIP3    H228080   0.361   0.226   7.857 -0.9866 -0.9680  0.8944
 2149TIP3   OH228081   6.367   1.090   7.758 -0.0520  0.1753 -0.5928
 2149TIP3    H128082   6.361   1.011   7.704  0.6557  0.3470 -0.9382
 2149TIP3    H228083   6.321   1.157   7.708  0.2996  0.2472 -0.8265
 2150TIP3   OH228084   6.539   0.052   1.615 -0.3780 -0.1120  0.0851
 2150TIP3    H128085   6.506   0.142   1.607 -0.9175 -0.2301  0.9524
 2150TIP3    H228086   6.632   0.059   1.592 -0.3241  0.7337  0.5287
 2151TIP3   OH228087   2.055   0.119   0.083 -0.8156 -0.3312  0.1918
 2151TIP3    H128088   2.107   0.039   0.086  2.3316  1.5507  0.3906
 2151TIP3    H228089   2.072   0.155  -0.004 -0.9367  0.8327  0.6301
 2152TIP3   OH228090   1.945   0.430   1.380  0.0884  0.1075  0.0902
 2152TIP3    H128091   2.001   0.483   1.436 -0.4175  3.1710 -2.0758
 2152TIP3    H228092   1.857   0.443   1.413  0.0542 -0.0996  0.0823
 2153TIP3   OH228093   0.502   1.115   6.837 -0.1357  0.0273 -0.1576
 2153TIP3    H128094   0.540   1.098   6.750  2.7390 -0.4898  1.0892
 2153TIP3    H228095   0.467   1.030   6.864 -0.1276 -0.0608 -0.4137
 2154TIP3   OH228096   3.321   4.354   2.121 -0.3080  0.1873  0.4531
 2154TIP3    H128097   3.306   4.323   2.210  0.6490 -0.6428  0.3465
 2154TIP3    H228098   3.354   4.277   2.075  0.2373  0.8855 -0.3401
 2155TIP3   OH228099   2.242   6.662   7.192 -1.1030 -0.3054  0.5537
 2155TIP3    H128100   2.170   6.653   7.254 -0.7169  0.3770  1.1172
 2155TIP3    H228101   2.310   6.603   7.226 -0.7209  0.4050  1.0478
 2156TIP3   OH228102   3.273   6.894   0.047 -0.7724 -0.1704 -0.1420
 2156TIP3    H128103   3.252   6.820   0.105 -0.5253  0.2473  0.4853
 2156TIP3    H228104   3.207   6.890  -0.021 -0.7048 -1.0347 -0.1664
 2157TIP3   OH228105   0.286   0.381   0.701  0.5475 -0.0157 -0.2296
 2157TIP3    H128106   0.323   0.307   0.749  0.7268 -0.1769 -0.6149
 2157TIP3    H228107   0.226   0.341   0.637  1.6032  0.0791 -1.3077
 2158TIP3   OH228108   5.278   3.007   0.167 -0.1117  0.1016  0.8916
 2158TIP3    H128109   5.211   2.984   0.103  0.9924  1.9049 -1.0513
 2158TIP3    H228110   5.344   2.938   0.158  0.5490  0.8808 -0.8037
 2159TIP3   OH228111   6.234   3.464   1.626  0.1373  0.5154 -0.4187
 2159TIP3    H128112   6.280   3.406   1.688 -0.4560 -0.9241 -1.2675
 2159TIP3    H228113   6.282   3.546   1.630  0.0999  0.5030  1.9901
 2160TIP3   OH228114   2.634   6.512   7.513  0.0595  0.0430 -0.0939
 2160TIP3    H128115   2.625   6.510   7.608  0.1503  1.9285 -0.0096
 2160TIP3    H228116   2.708   6.454   7.494  0.9165  0.7197  1.1129
 2161TIP3   OH228117   2.595   0.968   8.264 -0.0158  0.2932  0.3657
 2161TIP3    H128118   2.636   0.885   8.288 -1.1865 -0.4042  0.0594
 2161TIP3    H228119   2.665   1.032   8.267  0.6224 -0.4456  2.0272
 2162TIP3   OH228120   5.659   5.043   1.688 -0.2987 -0.1339 -0.1232
 2162TIP3    H128121   5.576   4.994   1.682 -0.3079 -0.1253 -0.0624
 2162TIP3    H228122   5.656   5.085   1.774 -0.1602 -0.2622 -0.0544
 2163TIP3   OH228123   1.356   0.168   6.628 -0.2682  0.1622  0.2388
 2163TIP3    H128124   1.298   0.198   6.558 -1.0057  1.4766  1.3546
 2163TIP3    H228125   1.326   0.216   6.706  3.0435  1.8156  0.6665
 2164TIP3   OH228126   6.477   1.826   0.005  0.6010  0.1421  0.5854
 2164TIP3    H128127   6.559   1.778   0.011 -0.5924 -2.1921 -0.6700
 2164TIP3    H228128   6.420   1.785   0.070 -0.8438 -1.1131 -1.3574
 2165TIP3   OH228129   3.527   0.366   1.206  0.0912 -0.5013 -0.4968
 2165TIP3    H128130   3.511   0.455   1.174  0.0004 -0.7345 -1.1141
 2165TIP3    H228131   3.440   0.334   1.233  0.3900  0.2589  1.5099
 2166TIP3   OH228132   1.200   4.407   1.224  0.2574 -0.3322  0.1698
 2166TIP3    H128133   1.293   4.431   1.233 -0.3363  2.3381 -0.0321
 2166TIP3    H228134   1.159   4.441   1.303 -0.9723  1.1516 -1.0481
 2167TIP3   OH228135   1.755   0.331   2.049 -0.2626  0.2785  0.1520
 2167TIP3    H128136   1.690   0.262   2.060 -1.0960  0.7813 -1.3880
 2167TIP3    H228137   1.703   0.412   2.042  0.4513  0.6014 -1.8902
 2168TIP3   OH228138   5.908   0.151   0.544  0.1556 -0.0907 -0.3062
 2168TIP3    H128139   5.900   0.187   0.633  0.4266  0.7048 -0.5902
 2168TIP3    H228140   5.818   0.128   0.520  0.1047 -0.4914  0.2436
 2169TIP3   OH228141   5.908   5.185   7.850  0.0126  0.0414  0.0999
 2169TIP3    H128142   5.973   5.128   7.891 -0.3880 -0.0622  0.6002
 2169TIP3    H228143   5.826   5.137   7.858 -0.1271  0.1723 -0.5322
 2170TIP3   OH228144   6.889   3.199   1.705 -0.0819 -0.5898 -0.0302
 2170TIP3    H128145   6.956   3.130   1.704  0.6568  0.1139 -1.0680
 2170TIP3    H228146   6.879   3.224   1.613 -1.4002 -0.3090  0.1685
 2171TIP3   OH228147   4.856   6.885   0.126  0.8171 -0.3812  0.0190
 2171TIP3    H128148   4.804   6.853   0.053  1.5967  0.1765 -0.7958
 2171TIP3    H228149   4.792   6.926   0.184  0.0123 -1.9702  0.3234
 2172TIP3   OH228150   5.754   3.749   1.562  0.4899  0.6507  0.0906
 2172TIP3    H128151   5.828   3.689   1.570 -0.9269 -1.3092 -0.8085
 2172TIP3    H228152   5.730   3.745   1.469 -1.2817  0.5513  0.5218
 2173TIP3   OH228153   2.707   1.179   1.359 -0.2452 -0.4195 -0.1736
 2173TIP3    H128154   2.678   1.088   1.359  0.2080 -0.5772  0.6824
 2173TIP3    H228155   2.798   1.175   1.327 -0.1646 -0.2862  0.0390
 2174TIP3   OH228156   3.997   4.392   1.209 -0.3580  0.3385  0.4318
 2174TIP3    H128157   3.912   4.431   1.190 -0.6491  0.0655  1.1159
 2174TIP3    H228158   4.059   4.438   1.153 -1.0817 -0.0501 -0.7133
 2175TIP3   OH228159   4.082   2.181   1.024 -0.2358 -0.2297 -0.7343
 2175TIP3    H128160   3.997   2.138   1.023  0.2918 -1.3696  0.4351
 2175TIP3    H228161   4.066   2.267   1.063 -0.7742 -0.6476 -0.0114
 2176TIP3   OH228162   5.229   4.844   8.248  1.0711  0.0513  0.0293
 2176TIP3    H128163   5.274   4.819   8.328 -0.5858 -2.6996  0.2118
 2176TIP3    H228164   5.290   4.820   8.178  1.0680 -0.9800  0.3642
 2177TIP3   OH228165   4.779   2.018   0.308  0.3725  0.5887  0.4495
 2177TIP3    H128166   4.837   1.995   0.381  2.5462 -0.5154 -1.4894
 2177TIP3    H228167   4.826   2.086   0.260 -0.4990  0.5249 -0.5272
 2178TIP3   OH228168   4.840   5.442   0.594  0.2621  0.2660  0.0243
 2178TIP3    H128169   4.832   5.537   0.601  2.1225  0.4353  0.3908
 2178TIP3    H228170   4.824   5.424   0.501  1.7542  1.1901 -0.4511
 2179TIP3   OH228171   1.388   6.396   1.896 -0.5839  0.5918  0.0010
 2179TIP3    H128172   1.303   6.366   1.866  0.0985 -0.8290 -0.5997
 2179TIP3    H228173   1.427   6.320   1.939  0.2643  1.3100  0.5538
 2180TIP3   OH228174   6.231   2.259   1.087  0.0951  0.8184 -0.1534
 2180TIP3    H128175   6.214   2.263   1.181  1.6122 -0.5344  0.2269
 2180TIP3    H228176   6.164   2.201   1.052 -1.2488  2.3064 -0.1585
 2181TIP3   OH228177   6.704   3.586   0.107  0.4331  0.0479  0.5961
 2181TIP3    H128178   6.704   3.662   0.049 -0.4569 -0.0295  0.4747
 2181TIP3    H228179   6.772   3.604   0.171  1.0751  0.3754 -0.1646
 2182TIP3   OH228180   6.451   6.064   8.160  0.3024 -0.3135  0.4100
 2182TIP3    H128181   6.518   5.997   8.171  0.0554 -0.5337  0.6007
 2182TIP3    H228182   6.483   6.139   8.209  0.8951 -0.0591 -0.3597
 2183TIP3   OH228183   2.079   6.182   1.066  0.0019 -0.2192  0.4932
 2183TIP3    H128184   2.053   6.264   1.109 -1.3576 -0.5036  0.2633
 2183TIP3    H228185   2.001   6.156   1.016  1.0541 -0.6462 -1.0007
 2184TIP3   OH228186   3.685   1.498   7.392 -0.0784  0.1625  0.3732
 2184TIP3    H128187   3.602   1.529   7.429 -1.0695  0.5455 -1.9892
 2184TIP3    H228188   3.705   1.560   7.322  0.3111 -1.8753 -1.4339
 2185TIP3   OH228189   1.636   6.783   6.134  0.4012  0.1320  0.1779
 2185TIP3    H128190   1.700   6.840   6.175  0.3573 -0.0406  0.4904
 2185TIP3    H228191   1.667   6.694   6.152 -0.0211  0.0434  0.4978
 2186TIP3   OH228192   3.373   2.795   0.186 -0.2113  0.0817 -0.0909
 2186TIP3    H128193   3.316   2.815   0.260  0.2859  0.2627  0.2504
 2186TIP3    H228194   3.400   2.880   0.152  0.2436 -0.0007  0.0571
 2187TIP3   OH228195   2.840   5.061   2.759 -0.6995 -0.4677 -0.2324
 2187TIP3    H128196   2.749   5.073   2.734 -0.7794  0.5174  0.5000
 2187TIP3    H228197   2.859   5.132   2.820  0.9736  0.2132 -1.4563
 2188TIP3   OH228198   4.265   4.919   8.267 -0.2042 -0.3541  0.1987
 2188TIP3    H128199   4.254   4.825   8.249  1.4690 -1.0171  2.1886
 2188TIP3    H228200   4.223   4.932   8.352 -0.2019  0.6382  0.0530
 2189TIP3   OH228201   1.050   5.517   0.450  0.5175 -0.3605 -0.5345
 2189TIP3    H128202   1.047   5.576   0.375  0.3980 -0.4130 -0.5727
 2189TIP3    H228203   1.070   5.431   0.412 -2.6045 -1.0410 -0.9379
 2190TIP3   OH228204   6.944   4.878   1.406  0.4385  0.0697 -0.4864
 2190TIP3    H128205   6.902   4.959   1.436  0.9539  0.7002 -1.4472
 2190TIP3    H228206   6.987   4.843   1.485  1.0584  1.2601 -0.2802
 2191TIP3   OH228207   4.742   1.420   2.379  0.2506 -0.7691 -0.7355
 2191TIP3    H128208   4.713   1.500   2.422  1.5586 -0.1373 -0.9713
 2191TIP3    H228209   4.749   1.355   2.450  1.1404 -0.0993 -0.1929
 2192TIP3   OH228210   1.120   6.344   1.794  0.1571  0.3962  0.0217
 2192TIP3    H128211   1.088   6.433   1.810 -0.8913  0.0168  0.1141
 2192TIP3    H228212   1.041   6.290   1.789  0.7756 -0.5394 -0.0218
 2193TIP3   OH228213   0.427   0.513   7.808  0.1080 -0.1733  0.0882
 2193TIP3    H128214   0.465   0.589   7.853  0.9416 -0.1747 -0.5750
 2193TIP3    H228215   0.448   0.528   7.715 -3.1513  0.7786 -0.6214
 2194TIP3   OH228216   6.811   6.285   0.935  0.4261  0.2914  0.1588
 2194TIP3    H128217   6.726   6.241   0.934  1.0021 -0.9091  1.3978
 2194TIP3    H228218   6.825   6.312   0.845 -0.7262 -0.5488 -0.2956
 2195TIP3   OH228219   1.994   0.326   1.897 -0.0473  0.5391  0.5134
 2195TIP3    H128220   1.994   0.415   1.861  0.9918 -0.8005 -3.2415
 2195TIP3    H228221   1.913   0.321   1.948  0.1688  3.7630  1.3872
 2196TIP3   OH228222   0.498   0.275   2.816  0.5190  0.0650  0.3892
 2196TIP3    H128223   0.476   0.222   2.740  1.9777 -0.0455  0.0202
 2196TIP3    H228224   0.482   0.366   2.788 -2.0752 -0.1039  1.0542
 2197TIP3   OH228225   6.033   4.409   7.332 -0.1818  0.2185 -0.5840
 2197TIP3    H128226   6.087   4.486   7.317 -1.2229  0.4881 -3.8204
 2197TIP3    H228227   6.074   4.340   7.279 -0.6057 -0.7857  0.3526
 2198TIP3   OH228228   5.960   1.089   0.682 -0.0984  0.3493 -0.2720
 2198TIP3    H128229   6.000   1.173   0.706  0.5531 -0.8475  3.4709
 2198TIP3    H228230   5.887   1.080   0.742 -0.0563 -1.8423 -0.5009
 2199TIP3   OH228231   5.187   0.574   8.311  0.0458  0.0264  0.3193
 2199TIP3    H128232   5.263   0.516   8.321  0.7207  0.3817 -2.1053
 2199TIP3    H228233   5.201   0.643   8.375  0.6173 -1.0568  1.4143
 2200TIP3   OH228234   3.181   3.497   1.081  0.3098 -0.4111 -0.0891
 2200TIP3    H128235   3.232   3.471   1.157  2.4542  1.2731 -0.8647
 2200TIP3    H228236   3.090   3.493   1.111  0.7772 -3.5194  1.3492
 2201TIP3   OH228237   2.942   4.402   0.731 -0.3234 -0.3666  0.0134
 2201TIP3    H128238   3.025   4.355   0.742  0.8557  1.7173  0.6447
 2201TIP3    H228239   2.966   4.482   0.684 -1.8325  0.6669  0.9197
 2202TIP3   OH228240   4.095   5.927   7.502  0.3625 -0.1233 -0.3191
 2202TIP3    H128241   4.164   5.951   7.563  1.5456 -1.0260 -1.2638
 2202TIP3    H228242   4.042   6.006   7.493  1.7206  0.8295 -0.1741
 2203TIP3   OH228243   1.580   6.058   6.933  0.5337 -0.2658 -0.7052
 2203TIP3    H128244   1.672   6.061   6.957  1.1248  1.1881 -2.8118
 2203TIP3    H228245   1.562   5.965   6.916  1.5626 -0.5797 -0.1254
 2204TIP3   OH228246   6.891   3.547   1.403  0.7037 -0.7682 -0.0335
 2204TIP3    H128247   6.847   3.560   1.487  0.4363 -4.4054  0.5469
 2204TIP3    H228248   6.959   3.614   1.401  1.0345 -0.8347  3.3131
 2205TIP3   OH228249   3.849   3.015   7.551  0.4813 -0.5887 -0.3223
 2205TIP3    H128250   3.907   3.085   7.583  3.4773 -1.9779 -2.2152
 2205TIP3    H228251   3.855   2.947   7.618 -2.2549  0.7176  1.4080
 2206TIP3   OH228252   4.394   1.126   7.667  0.2727  0.2329  0.0084
 2206TIP3    H128253   4.377   1.035   7.641  0.5452  0.8473 -2.6796
 2206TIP3    H228254   4.314   1.155   7.710 -0.0146 -1.0970  0.4242
 2207TIP3   OH228255   4.000   1.581   8.392 -0.8217  0.4600  0.3862
 2207TIP3    H128256   4.092   1.584   8.415 -0.4460  1.1528 -1.0656
 2207TIP3    H228257   3.999   1.593   8.297 -2.3909  0.2515  0.3514
 2208TIP3   OH228258   2.042   1.076   6.887 -0.2158 -0.0756  0.8785
 2208TIP3    H128259   2.054   1.171   6.887 -2.3299  0.2698 -0.7545
 2208TIP3    H228260   2.089   1.046   6.809 -1.5778 -0.0038  0.0021
 2209TIP3   OH228261   4.413   1.349   2.435 -0.2825 -0.3226  0.2327
 2209TIP3    H128262   4.378   1.268   2.398  3.0807 -1.6490 -0.3876
 2209TIP3    H228263   4.341   1.412   2.428 -2.0200 -2.3882 -2.1592
 2210TIP3   OH228264   1.674   4.070   7.192 -0.4838  0.3479  0.1463
 2210TIP3    H128265   1.726   4.006   7.242 -1.3517  0.0413  0.6925
 2210TIP3    H228266   1.703   4.155   7.225  0.7884  0.2702 -0.6928
 2211TIP3   OH228267   0.133   6.674   2.642  0.5502  0.3577 -0.1575
 2211TIP3    H128268   0.186   6.752   2.655  0.1982  0.3059  1.7973
 2211TIP3    H228269   0.077   6.669   2.719  1.2137 -2.3143  0.2583
 2212TIP3   OH228270   6.651   6.239   7.771 -0.1851 -0.4887  0.1001
 2212TIP3    H128271   6.618   6.308   7.714 -0.3648 -0.8149 -0.1992
 2212TIP3    H228272   6.721   6.198   7.721  0.4125 -0.0604  0.5707
 2213TIP3   OH228273   3.435   3.407   2.431 -0.4474  0.1579  0.0253
 2213TIP3    H128274   3.521   3.372   2.456 -1.1022 -0.7966  1.0290
 2213TIP3    H228275   3.379   3.329   2.422 -1.3321  0.7950 -0.0942
 2214TIP3   OH228276   6.689   4.946   2.636 -0.2406  0.0156 -0.5149
 2214TIP3    H128277   6.782   4.963   2.617  0.3271 -1.5266  0.6154
 2214TIP3    H228278   6.652   5.033   2.652  1.0908  0.6449 -0.6368
 2215TIP3   OH228279   2.152   2.534   2.251  0.6832  0.7289  0.2277
 2215TIP3    H128280   2.129   2.579   2.170 -0.0526  1.5418  0.8805
 2215TIP3    H228281   2.185   2.449   2.222 -1.4505  0.2066 -0.8501
 2216TIP3   OH228282   5.617   6.681   0.077 -0.0252 -0.0288  0.3872
 2216TIP3    H128283   5.533   6.637   0.062  0.1566 -0.4306  0.5117
 2216TIP3    H228284   5.652   6.639   0.156  0.1152  0.4076  0.5600
 2217TIP3   OH228285   3.722   6.259   8.327  0.0671  0.0800  0.1833
 2217TIP3    H128286   3.808   6.221   8.342 -0.1957  0.3718  2.9002
 2217TIP3    H228287   3.710   6.255   8.232  2.3838 -1.4055 -0.1182
 2218TIP3   OH228288   0.343   2.372   2.850  0.3675 -0.0905 -0.0441
 2218TIP3    H128289   0.286   2.424   2.793  0.4815  1.7008  1.3822
 2218TIP3    H228290   0.296   2.289   2.862 -1.1296  0.6843 -0.2734
 2219TIP3   OH228291   5.897   2.090   7.056 -0.0224  0.4742 -0.0665
 2219TIP3    H128292   5.915   2.177   7.092  0.6338  0.9085 -1.3509
 2219TIP3    H228293   5.895   2.104   6.961  1.0612 -1.0722 -0.3510
 2220TIP3   OH228294   2.883   3.848   8.228 -0.0190 -0.0406 -0.4561
 2220TIP3    H128295   2.945   3.801   8.284 -1.6681 -2.6242 -0.6841
 2220TIP3    H228296   2.902   3.818   8.140  0.0095  1.0912 -0.8594
 2221TIP3   OH228297   0.695   1.990   8.084 -0.4763  0.3218 -0.9684
 2221TIP3    H128298   0.725   2.055   8.020  0.5617  0.1745 -0.6513
 2221TIP3    H228299   0.672   1.913   8.030 -2.4019  1.1512 -1.4114
 2222TIP3   OH228300   5.005   2.046   3.093 -0.2297 -0.5408 -0.1816
 2222TIP3    H128301   4.910   2.033   3.093 -0.0524 -1.9567 -1.0856
 2222TIP3    H228302   5.041   1.964   3.062  1.3421 -0.1899  0.6048
 2223TIP3   OH228303   0.461   2.882   8.429  0.0647  1.0548 -0.2545
 2223TIP3    H128304   0.417   2.937   8.494 -0.4391  1.1678 -0.6822
 2223TIP3    H228305   0.391   2.854   8.371  0.1955 -0.6085  0.3419
 2224TIP3   OH228306   4.201   1.065   1.419  0.4918 -0.0441  0.0400
 2224TIP3    H128307   4.113   1.058   1.384  0.2573 -1.3608  0.8204
 2224TIP3    H228308   4.258   1.032   1.349  0.4470  1.2982 -0.6643
 2225TIP3   OH228309   5.297   6.709   1.258 -0.1145  0.1394 -0.1217
 2225TIP3    H128310   5.211   6.744   1.279  1.3302  3.1530  1.4690
 2225TIP3    H228311   5.358   6.768   1.303  2.8142 -1.4552 -1.7131
 2226TIP3   OH228312   3.122   0.333   7.020  0.1835  0.2531  0.0227
 2226TIP3    H128313   3.166   0.253   7.049 -1.7169 -1.0369 -0.4692
 2226TIP3    H228314   3.149   0.344   6.929  0.3204  0.0804  0.0421
 2227TIP3   OH228315   1.484   6.381   0.033  0.1976 -0.2896 -0.3615
 2227TIP3    H128316   1.452   6.320  -0.034 -0.9434  0.3013 -0.3863
 2227TIP3    H228317   1.405   6.425   0.065  1.0023  1.4173 -0.5971
 2228TIP3   OH228318   1.979   2.663   2.056  0.7330  0.1524 -0.3876
 2228TIP3    H128319   1.954   2.639   2.145 -2.2734 -1.5796 -1.5511
 2228TIP3    H228320   1.924   2.738   2.035  0.5337 -0.1970 -1.1495
 2229TIP3   OH228321   5.203   3.786   7.834 -0.3096 -0.4495  0.2507
 2229TIP3    H128322   5.185   3.692   7.837  1.8167 -0.9484 -0.5597
 2229TIP3    H228323   5.281   3.793   7.779  1.2625  1.5223  2.5182
 2230TIP3   OH228324   5.591   6.590   0.651 -0.0567  0.3793 -1.0530
 2230TIP3    H128325   5.546   6.600   0.567 -0.8790  1.6011 -0.4859
 2230TIP3    H228326   5.614   6.680   0.677 -0.3550  0.0850  0.3115
 2231TIP3   OH228327   4.756   0.442   1.811  0.2530  0.5505 -0.4013
 2231TIP3    H128328   4.768   0.477   1.723 -1.3340  0.2912 -0.7403
 2231TIP3    H228329   4.845   0.439   1.847  0.6751  3.4188 -0.9092
 2232TIP3   OH228330   1.990   4.062   1.296  0.1891  0.0567  0.3473
 2232TIP3    H128331   2.055   3.999   1.263 -1.4742 -1.3366 -0.4509
 2232TIP3    H228332   1.955   4.104   1.218  0.8345  1.5534  0.8438
 2233TIP3   OH228333   5.865   5.268   7.504 -0.6423  0.3673  0.6101
 2233TIP3    H128334   5.869   5.265   7.408 -0.4652  0.5099  0.6110
 2233TIP3    H228335   5.784   5.223   7.526  0.3236 -1.5295  0.5012
 2234TIP3   OH228336   3.071   0.348   2.742  0.6985  0.8543 -0.1502
 2234TIP3    H128337   3.083   0.432   2.787  0.2785  0.2437  1.1530
 2234TIP3    H228338   2.999   0.306   2.789  0.9699 -0.2712 -0.7188
 2235TIP3   OH228339   3.570   5.990   2.332 -0.0069  0.1941 -0.5725
 2235TIP3    H128340   3.513   6.048   2.282 -0.7334  0.0315  0.0314
 2235TIP3    H228341   3.511   5.921   2.363  0.7377 -0.5732 -0.8342
 2236TIP3   OH228342   1.450   0.151   8.073  0.5524  0.0593 -0.0465
 2236TIP3    H128343   1.379   0.122   8.016  0.8452 -0.0674 -0.3472
 2236TIP3    H228344   1.529   0.114   8.034  0.7814  0.1765  0.3040
 2237TIP3   OH228345   5.195   2.597   7.915 -0.3150 -0.0578 -0.1321
 2237TIP3    H128346   5.217   2.504   7.906 -0.9418 -0.2885  0.6585
 2237TIP3    H228347   5.102   2.602   7.892 -0.3912  0.3058  0.2549
 2238TIP3   OH228348   6.104   3.557   7.032  0.4299 -0.2648  0.2102
 2238TIP3    H128349   6.146   3.574   7.116 -0.1561  1.8261  0.1488
 2238TIP3    H228350   6.153   3.612   6.970 -1.8494  1.6970  0.0234
 2239TIP3   OH228351   2.619   3.961   8.033  0.5322  0.1257 -0.3607
 2239TIP3    H128352   2.675   3.890   8.003  1.6796 -0.0086  1.8736
 2239TIP3    H228353   2.535   3.920   8.051  0.7076 -0.3343 -0.5839
 2240TIP3   OH228354   6.333   1.442   1.361  0.4169  0.6360 -0.5058
 2240TIP3    H128355   6.261   1.408   1.308 -0.2513  2.0820 -0.5696
 2240TIP3    H228356   6.371   1.512   1.307 -0.5737  2.4766  1.0609
 2241TIP3   OH228357   3.459   0.084   2.132 -0.6016 -0.1957 -0.1744
 2241TIP3    H128358   3.474  -0.008   2.111  3.6090  0.4606 -1.0973
 2241TIP3    H228359   3.473   0.089   2.227  1.5208 -0.2944 -0.4279
 2242TIP3   OH228360   0.447   5.721   2.128  0.5273  0.0859 -0.1727
 2242TIP3    H128361   0.364   5.693   2.090 -0.8884  1.0943  1.9564
 2242TIP3    H228362   0.466   5.806   2.087  0.3465  0.0053 -0.4214
 2243TIP3   OH228363   5.732   4.127   1.102  0.0698 -0.4859 -0.0320
 2243TIP3    H128364   5.662   4.131   1.038  0.8924  0.8912 -0.8974
 2243TIP3    H228365   5.790   4.057   1.071  0.3797  0.0656 -0.7355
 2244TIP3   OH228366   1.258   0.027   2.150  0.1346 -0.5008 -0.0803
 2244TIP3    H128367   1.244   0.120   2.132 -2.0580 -1.2484 -2.9424
 2244TIP3    H228368   1.340   0.025   2.198  0.3252  2.8872  0.0355
 2245TIP3   OH228369   0.840   6.682   2.021 -0.2240 -0.1480 -0.0215
 2245TIP3    H128370   0.838   6.738   2.099 -0.1639  0.4976 -0.4711
 2245TIP3    H228371   0.795   6.602   2.047  1.3536 -0.6899  1.2451
 2246TIP3   OH228372   1.588   4.759   1.478 -0.0083  0.2087  0.1201
 2246TIP3    H128373   1.629   4.811   1.546 -1.3218  0.1863  0.9681
 2246TIP3    H228374   1.606   4.806   1.397 -0.3463  1.4699  0.7531
 2247TIP3   OH228375   0.151   0.064   2.461  0.1640  0.0718 -0.3450
 2247TIP3    H128376   0.105   0.146   2.476 -0.8115 -0.4989 -0.1294
 2247TIP3    H228377   0.174   0.032   2.548 -2.0731 -1.3145 -0.1785
 2248TIP3   OH228378   3.400   4.097   7.963 -0.0410  0.6407  0.1327
 2248TIP3    H128379   3.354   4.034   7.908 -1.4754  1.1143  0.7620
 2248TIP3    H228380   3.489   4.061   7.971 -1.0859 -1.8976  1.4028
 2249TIP3   OH228381   0.228   2.504   8.072 -0.3659  0.2301 -0.2927
 2249TIP3    H128382   0.299   2.527   8.132 -0.1565  0.9012 -0.7815
 2249TIP3    H228383   0.164   2.458   8.126  0.8968 -1.3196 -0.0366
 2250TIP3   OH228384   5.225   2.237   3.059 -0.3742  0.2104 -0.3258
 2250TIP3    H128385   5.236   2.148   3.025  1.8037 -0.3417  1.5815
 2250TIP3    H228386   5.163   2.227   3.132 -0.5314  0.3631 -0.4366
 2251TIP3   OH228387   2.944   1.214   1.831 -0.0453  0.0807 -0.1090
 2251TIP3    H128388   2.898   1.274   1.772  0.4537  0.9504  0.3761
 2251TIP3    H228389   2.966   1.266   1.908  0.4307 -0.7107  0.3113
 2252TIP3   OH228390   1.557   0.164   1.539 -0.3138 -0.0461 -0.0900
 2252TIP3    H128391   1.516   0.155   1.453 -1.5890 -2.0069  0.6564
 2252TIP3    H228392   1.638   0.114   1.532 -0.6050 -0.5267 -0.0433
 2253TIP3   OH228393   4.648   0.575   7.720 -0.3722 -0.0785  0.0844
 2253TIP3    H128394   4.634   0.553   7.628  1.9287  1.0129 -0.6101
 2253TIP3    H228395   4.635   0.670   7.725  0.6029  0.0472  0.6159
 2254TIP3   OH228396   1.790   1.054   1.323  0.0133 -0.8385  0.1990
 2254TIP3    H128397   1.745   0.979   1.283  2.3723 -1.4825 -1.5143
 2254TIP3    H228398   1.856   1.013   1.380 -1.1684  0.0548  2.2991
 2255TIP3   OH228399   4.618   5.794   1.217 -0.4223 -0.3670  0.3729
 2255TIP3    H128400   4.549   5.728   1.206 -1.0136 -0.0808  2.0503
 2255TIP3    H228401   4.676   5.781   1.142 -1.1260 -2.0609  0.0799
 2256TIP3   OH228402   3.511   0.819   0.200  0.9368  0.0599 -0.2520
 2256TIP3    H128403   3.421   0.835   0.228  1.1505 -0.6326  0.8689
 2256TIP3    H228404   3.556   0.902   0.214  0.4989  0.3980 -0.7826
 2257TIP3   OH228405   1.028   6.672   0.234 -0.2706 -0.1536 -0.3216
 2257TIP3    H128406   0.965   6.626   0.179 -2.0293  2.7676 -0.9546
 2257TIP3    H228407   1.039   6.616   0.311 -1.5003 -2.0276 -1.4353
 2258TIP3   OH228408   0.233   6.159   1.288 -0.0313  0.4145 -0.3137
 2258TIP3    H128409   0.169   6.175   1.219 -0.1989 -0.1010 -0.2759
 2258TIP3    H228410   0.313   6.135   1.241  0.3100  1.6182 -0.3847
 2259TIP3   OH228411   5.551   6.241   2.886  0.2718  0.5282 -0.0494
 2259TIP3    H128412   5.523   6.263   2.975  0.1203  0.9128 -0.1885
 2259TIP3    H228413   5.471   6.216   2.840  0.6143 -1.7165  0.4820
 2260TIP3   OH228414   0.870   1.822   1.121  0.5178  0.4160 -0.1152
 2260TIP3    H128415   0.831   1.860   1.042  1.0652  1.1480 -0.0483
 2260TIP3    H228416   0.795   1.803   1.177  0.1650  0.5200 -0.5419
 2261TIP3   OH228417   0.289   6.006   7.931  0.1981  0.3054  0.0199
 2261TIP3    H128418   0.274   5.944   7.860 -0.2517 -0.9782  1.1938
 2261TIP3    H228419   0.376   6.043   7.913  1.7901 -2.7512  0.7274
 2262TIP3   OH228420   0.462   6.760   7.380  0.0357 -0.2831 -0.2479
 2262TIP3    H128421   0.542   6.811   7.394 -0.0924 -0.2743  0.4831
 2262TIP3    H228422   0.481   6.674   7.417 -0.0976 -0.4525 -0.5756
 2263TIP3   OH228423   5.130   3.064   7.863  0.2171  0.5612 -0.0891
 2263TIP3    H128424   5.159   3.154   7.847  0.4970  0.2450 -1.5631
 2263TIP3    H228425   5.210   3.012   7.860  0.3921  0.4562  3.0315
 2264TIP3   OH228426   6.529   3.510   2.162 -0.0934  0.4328  0.3458
 2264TIP3    H128427   6.587   3.439   2.192  1.8514  1.9509  0.3560
 2264TIP3    H228428   6.529   3.573   2.235 -0.7657  1.0337 -0.1649
 2265TIP3   OH228429   2.515   3.943   2.543  0.9758  0.3025 -0.2324
 2265TIP3    H128430   2.515   3.852   2.572  0.9524 -0.8382 -3.3931
 2265TIP3    H228431   2.422   3.964   2.531  0.9860 -0.9531 -3.7881
 2266TIP3   OH228432   1.884   2.055   1.965  0.0329 -0.2040  0.7657
 2266TIP3    H128433   1.846   2.090   2.046  0.3553  0.4682  0.6376
 2266TIP3    H228434   1.859   2.119   1.898  1.3707  0.2547  0.6795
 2267TIP3   OH228435   5.962   5.124   8.517 -0.7312 -0.1029  0.8946
 2267TIP3    H128436   5.888   5.081   8.474 -0.6504  0.9825 -0.3959
 2267TIP3    H228437   5.928   5.151   8.603 -2.2592  1.5004 -0.1582
 2268TIP3   OH228438   1.402   2.800   8.098  0.0102 -0.2634  0.3300
 2268TIP3    H128439   1.454   2.741   8.153  0.7874 -0.1032 -0.2207
 2268TIP3    H228440   1.462   2.828   8.029 -0.8087 -0.0591 -0.3159
 2269TIP3   OH228441   0.966   4.807   1.502  0.2630 -0.3899  0.1820
 2269TIP3    H128442   0.946   4.855   1.582  0.6234 -1.5062  0.9575
 2269TIP3    H228443   1.061   4.814   1.492  0.0174  1.9854 -1.6387
 2270TIP3   OH228444   3.942   0.081   0.371  0.5435 -0.4254  0.6803
 2270TIP3    H128445   4.025   0.123   0.395 -0.0736  0.1441  1.8901
 2270TIP3    H228446   3.875   0.132   0.417 -0.3591 -1.8235  0.9648
 2271TIP3   OH228447   1.395   2.061   8.211 -0.0656  0.3019 -0.4385
 2271TIP3    H128448   1.399   2.144   8.164  0.2667 -0.2451 -1.4204
 2271TIP3    H228449   1.424   2.082   8.300 -1.3704  1.4937 -0.2581
 2272TIP3   OH228450   2.106   0.390   7.419 -0.6761  0.8247 -0.1313
 2272TIP3    H128451   2.090   0.470   7.470 -0.3808  1.9684 -1.7652
 2272TIP3    H228452   2.107   0.419   7.328  0.2829 -0.9156 -0.7239
 2273TIP3   OH228453   4.325   1.736   1.247 -0.3859  0.1826 -0.3462
 2273TIP3    H128454   4.274   1.806   1.205  0.4201  1.1913  0.2842
 2273TIP3    H228455   4.381   1.702   1.177  0.1228  1.0589 -0.3818
 2274TIP3   OH228456   5.804   5.221   0.204  0.2478  0.0104  0.6420
 2274TIP3    H128457   5.722   5.190   0.242  0.9603 -0.5332  1.7788
 2274TIP3    H228458   5.833   5.291   0.262  0.3665  0.5217 -0.0182
 2275TIP3   OH228459   2.261   5.984   0.793 -0.9091 -0.2026 -0.3599
 2275TIP3    H128460   2.262   5.973   0.698 -1.9124  0.1271 -0.4238
 2275TIP3    H228461   2.290   6.074   0.808 -1.7906  0.1026 -0.4314
 2276TIP3   OH228462   4.021   2.358   2.883 -0.1616  0.6640  0.5178
 2276TIP3    H128463   3.979   2.444   2.888 -2.4587 -0.3533  0.2267
 2276TIP3    H228464   3.984   2.309   2.956 -0.5540 -0.7258 -0.5742
 2277TIP3   OH228465   0.111   2.604   7.015 -0.3661  0.4309 -0.6713
 2277TIP3    H128466   0.122   2.542   6.943  0.8444  0.5973 -0.6547
 2277TIP3    H228467   0.200   2.620   7.046 -0.9513 -1.2525  2.2474
 2278TIP3   OH228468   2.291   0.229   2.240 -0.2389 -0.6512  0.2224
 2278TIP3    H128469   2.244   0.171   2.180  0.4183  0.1038 -1.0586
 2278TIP3    H228470   2.222   0.271   2.292 -1.1722  1.1410 -2.2415
 2279TIP3   OH228471   5.321   4.005   0.534 -0.1898 -0.2419  0.4148
 2279TIP3    H128472   5.352   4.096   0.540  1.7986 -0.9059  1.2633
 2279TIP3    H228473   5.315   3.988   0.440  0.0755  0.5751  0.2415
 2280TIP3   OH228474   1.419   3.801   7.302  0.5531 -1.0593  0.1298
 2280TIP3    H128475   1.357   3.750   7.250  1.9564 -2.0473 -0.6354
 2280TIP3    H228476   1.499   3.801   7.250  0.8268  1.3727  0.4228
 2281TIP3   OH228477   5.114   1.492   7.614 -0.4440 -0.2485  0.1623
 2281TIP3    H128478   5.174   1.527   7.680  0.8306 -1.0787 -0.5090
 2281TIP3    H228479   5.093   1.567   7.559 -0.5551  0.1934  0.8000
 2282TIP3   OH228480   2.339   4.912   8.365 -0.2118  0.0886  0.1613
 2282TIP3    H128481   2.318   4.968   8.441  0.2483  2.8806 -1.6158
 2282TIP3    H228482   2.272   4.932   8.301 -0.4392 -2.0421 -0.3362
 2283TIP3   OH228483   3.824   5.853   1.014  0.1141 -0.1018 -0.2338
 2283TIP3    H128484   3.754   5.917   1.000 -0.9299 -1.2233 -0.3291
 2283TIP3    H228485   3.884   5.867   0.941 -1.1969 -0.6067 -1.4681
 2284TIP3   OH228486   5.140   1.602   0.973 -0.3568 -0.5276  0.3199
 2284TIP3    H128487   5.108   1.669   0.912 -0.7241 -2.9420 -2.3147
 2284TIP3    H228488   5.062   1.567   1.014 -0.3996 -1.0413 -0.1939
 2285TIP3   OH228489   2.961   4.987   2.222 -0.1859  0.3141  0.1460
 2285TIP3    H128490   2.954   4.998   2.316  2.2627 -0.6268  0.5215
 2285TIP3    H228491   2.919   5.065   2.185 -0.0941  1.3149  2.0502
 2286TIP3   OH228492   1.748   3.984   2.278 -0.3181 -0.5522 -0.1486
 2286TIP3    H128493   1.677   4.043   2.303  0.4940  0.4684 -0.1972
 2286TIP3    H228494   1.723   3.951   2.192 -0.1455  0.7742 -0.7280
 2287TIP3   OH228495   3.415   4.856   7.225 -0.2591 -0.0369  0.0128
 2287TIP3    H128496   3.458   4.822   7.303 -0.4217  1.3784  0.7458
 2287TIP3    H228497   3.340   4.798   7.212  0.4601 -1.0314  0.1583
 2288TIP3   OH228498   1.405   1.480   2.315  0.0843  0.3279  0.1578
 2288TIP3    H128499   1.419   1.482   2.410  0.5103  1.3704  0.0938
 2288TIP3    H228500   1.394   1.388   2.293  0.1393  0.0683  1.2006
 2289TIP3   OH228501   4.783   6.607   1.346  0.1780 -0.3507  0.3393
 2289TIP3    H128502   4.788   6.523   1.393  0.7087 -1.3192 -1.3598
 2289TIP3    H228503   4.841   6.665   1.395 -0.4103 -0.8779  1.7093
 2290TIP3   OH228504   0.038   4.166   2.346  0.5555  0.1389  0.2157
 2290TIP3    H128505   0.009   4.230   2.280  1.1432 -0.8697 -1.0657
 2290TIP3    H228506   0.124   4.197   2.373  0.5076  0.3063  0.1789
 2291TIP3   OH228507   5.225   0.498   0.071  0.5462  0.1913 -0.6449
 2291TIP3    H128508   5.320   0.492   0.063  0.4744 -0.3676 -1.1185
 2291TIP3    H228509   5.203   0.583   0.033  0.7116 -0.3407 -1.9931
 2292TIP3   OH228510   4.452   5.852   1.884 -0.0432 -0.0593  0.0137
 2292TIP3    H128511   4.447   5.764   1.921  0.2740  0.0820  0.3996
 2292TIP3    H228512   4.450   5.839   1.790  1.9665 -0.6183  0.0064
 2293TIP3   OH228513   3.296   1.672   0.303 -0.7175  0.1909  0.2546
 2293TIP3    H128514   3.243   1.718   0.369 -0.1043 -0.1167  0.9689
 2293TIP3    H228515   3.386   1.683   0.333 -0.3241  0.9974 -1.1335
 2294TIP3   OH228516   3.742   3.276   0.618 -0.3301  0.2351 -0.6512
 2294TIP3    H128517   3.677   3.345   0.633  1.0517  1.4060  0.2899
 2294TIP3    H228518   3.785   3.301   0.536  1.3651  1.5649  0.5659
 2295TIP3   OH228519   0.717   0.889   6.900  0.0786  0.5159 -0.0247
 2295TIP3    H128520   0.751   0.969   6.941  0.0196  0.7377 -0.3983
 2295TIP3    H228521   0.795   0.836   6.884  0.4572  1.5958 -2.1096
 2296TIP3   OH228522   6.405   4.930   8.074 -0.4837  0.3600 -0.4131
 2296TIP3    H128523   6.479   4.903   8.129 -1.6184  0.2719  1.1424
 2296TIP3    H228524   6.333   4.943   8.136 -1.7459  0.5614 -1.8703
 2297TIP3   OH228525   5.846   0.882   7.807  0.4377 -0.6993  0.7814
 2297TIP3    H128526   5.764   0.922   7.779  0.8901 -0.5393 -0.3572
 2297TIP3    H228527   5.821   0.827   7.881 -1.1514 -2.6179 -1.0699
 2298TIP3   OH228528   3.235   6.128   1.956 -0.0830 -0.2051 -0.4583
 2298TIP3    H128529   3.246   6.033   1.950 -2.2758 -0.4841 -0.8138
 2298TIP3    H228530   3.143   6.140   1.979  0.3542  1.8337  0.4282
 2299TIP3   OH228531   4.610   4.415   0.255  0.2681  0.2314  0.2995
 2299TIP3    H128532   4.516   4.416   0.275  0.3664 -0.1902  0.8059
 2299TIP3    H228533   4.614   4.417   0.159 -0.3695 -3.4715  0.0515
 2300TIP3   OH228534   6.149   3.855   2.841 -0.2497 -0.2395 -0.0387
 2300TIP3    H128535   6.076   3.862   2.902  0.7631 -0.6383  1.2695
 2300TIP3    H228536   6.225   3.838   2.897  1.1350  1.7507 -1.1981
 2301TIP3   OH228537   5.165   4.282   8.425  0.6299  0.5667 -0.2737
 2301TIP3    H128538   5.243   4.243   8.386  0.1791  0.7556 -1.4179
 2301TIP3    H228539   5.153   4.364   8.378 -0.1860  0.5968 -0.0398
 2302TIP3   OH228540   1.056   0.785   0.282  0.4346 -0.4590  0.3952
 2302TIP3    H128541   1.132   0.744   0.323  0.9106 -0.2824 -0.2984
 2302TIP3    H228542   0.992   0.713   0.273  0.9486 -0.8732 -0.0471
 2303TIP3   OH228543   5.644   3.889   7.851 -0.6110 -0.1101 -0.0971
 2303TIP3    H128544   5.578   3.883   7.921 -1.0014  1.5622 -0.2866
 2303TIP3    H228545   5.678   3.978   7.858  1.3263 -0.7824 -0.3143
 2304TIP3   OH228546   0.589   3.329   1.377 -1.1725 -0.1854 -0.2552
 2304TIP3    H128547   0.580   3.410   1.427  0.9273 -0.2325  0.2759
 2304TIP3    H228548   0.571   3.355   1.286 -2.0731  0.5256  0.1130
 2305TIP3   OH228549   3.349   6.089   0.962  0.3535  0.2066  0.1512
 2305TIP3    H128550   3.266   6.047   0.983 -0.2021  1.1160 -0.1605
 2305TIP3    H228551   3.330   6.141   0.883  0.6148  2.1388  1.2976
 2306TIP3   OH228552   3.648   2.730   6.767 -0.2987  0.1636  0.0659
 2306TIP3    H128553   3.743   2.743   6.769 -0.2550 -0.2216  0.7411
 2306TIP3    H228554   3.636   2.642   6.733 -0.4837  0.7378 -1.4501
 2307TIP3   OH228555   1.379   4.727   1.240 -0.3507  0.2193 -0.1863
 2307TIP3    H128556   1.450   4.765   1.291  2.8605 -2.0298 -2.6050
 2307TIP3    H228557   1.354   4.648   1.290  1.5685 -1.0231 -1.0703
 2308TIP3   OH228558   1.452   2.412   2.114 -0.1808  0.0501  0.1707
 2308TIP3    H128559   1.473   2.321   2.136 -1.3794 -0.0394  1.0456
 2308TIP3    H228560   1.373   2.406   2.060 -0.0108  0.5566 -0.1429
 2309TIP3   OH228561   6.698   4.221   8.180 -0.1176  0.1123  0.0534
 2309TIP3    H128562   6.635   4.246   8.112  0.5780 -0.6077 -0.8876
 2309TIP3    H228563   6.662   4.142   8.219  0.1719 -0.2917 -0.4752
 2310TIP3   OH228564   2.733   3.446   0.341 -0.3381 -0.5882  0.0094
 2310TIP3    H128565   2.643   3.414   0.339 -0.2492 -0.8959 -2.2837
 2310TIP3    H228566   2.726   3.539   0.322 -0.1415 -0.9016 -1.8131
 2311TIP3   OH228567   3.385   3.613   2.817  0.5225 -0.3565 -0.6272
 2311TIP3    H128568   3.353   3.556   2.747 -0.2384  0.7997 -1.2425
 2311TIP3    H228569   3.479   3.593   2.823  0.1876 -2.0463 -0.4512
 2312TIP3   OH228570   2.108   5.019   0.663 -0.2937 -0.4165  0.0005
 2312TIP3    H128571   2.148   5.080   0.601 -0.3821 -2.4976 -2.2640
 2312TIP3    H228572   2.097   5.070   0.743 -1.6320  2.9484 -2.0903
 2313TIP3   OH228573   3.461   5.900   8.257  0.4320 -0.2647  0.6449
 2313TIP3    H128574   3.390   5.841   8.282  0.0145 -0.9564 -1.9537
 2313TIP3    H228575   3.418   5.978   8.223  0.9186 -0.3276 -0.1287
 2314TIP3   OH228576   2.431   3.721   1.883  0.0306  0.1241 -0.7738
 2314TIP3    H128577   2.525   3.708   1.896  0.4245  3.1044  0.0692
 2314TIP3    H228578   2.392   3.635   1.899  2.3800 -0.6038  1.6531
 2315TIP3   OH228579   3.613   3.547   7.958  0.1090  0.0688  0.7839
 2315TIP3    H128580   3.588   3.591   7.876 -0.7162 -0.2334  0.8662
 2315TIP3    H228581   3.538   3.492   7.980 -0.3914  1.3578  2.5929
 2316TIP3   OH228582   1.226   0.897   1.675 -0.0409 -0.1506 -0.8026
 2316TIP3    H128583   1.273   0.862   1.750  0.3144  1.6032 -0.1667
 2316TIP3    H228584   1.259   0.986   1.664 -1.0552  0.1005 -2.2056
 2317TIP3   OH228585   2.854   0.494   6.773 -0.0476 -0.7873 -0.6154
 2317TIP3    H128586   2.777   0.550   6.780  0.7159  0.1035  3.2114
 2317TIP3    H228587   2.818   0.405   6.765 -1.5366 -0.3932  1.0314
 2318TIP3   OH228588   2.172   1.374   2.836  0.6685  0.0193  0.3148
 2318TIP3    H128589   2.094   1.328   2.867  2.1248 -0.6606  3.2564
 2318TIP3    H228590   2.219   1.309   2.785 -0.6055  0.4490 -1.5360
 2319TIP3   OH228591   4.115   1.130   7.993  0.7454 -0.3016  0.2646
 2319TIP3    H128592   4.047   1.145   8.057 -1.5211  1.5125 -2.3225
 2319TIP3    H228593   4.091   1.048   7.951  1.3831 -0.7395  0.7472
 2320TIP3   OH228594   6.254   5.620   2.008 -0.6720 -0.0820 -0.5732
 2320TIP3    H128595   6.166   5.657   2.002 -0.9526 -0.3389  1.2662
 2320TIP3    H228596   6.301   5.657   1.933 -1.9055  1.2938 -0.7207
 2321TIP3   OH228597   4.686   0.914   2.652 -0.4272  0.0520 -0.0215
 2321TIP3    H128598   4.610   0.857   2.659 -0.0618 -0.7959 -2.2559
 2321TIP3    H228599   4.761   0.855   2.652  0.2801  0.8590  1.9095
 2322TIP3   OH228600   4.966   6.697   7.473  0.2990  0.5532  0.1319
 2322TIP3    H128601   4.969   6.792   7.478  0.7398  0.6203 -0.9732
 2322TIP3    H228602   5.055   6.669   7.495  0.9896  0.6060 -2.2745
 2323TIP3   OH228603   1.218   0.988   8.008 -0.1229  0.3007  0.5770
 2323TIP3    H128604   1.155   1.014   8.075 -0.7799  2.8187 -0.9101
 2323TIP3    H228605   1.166   0.946   7.940  0.1428  0.2054  0.4319
 2324TIP3   OH228606   6.180   4.190   1.246 -0.5357 -0.2641  0.2487
 2324TIP3    H128607   6.101   4.243   1.231 -0.2932 -0.6466 -3.2326
 2324TIP3    H228608   6.252   4.253   1.241 -0.4220 -0.4616 -1.0020
 2325TIP3   OH228609   6.453   0.731   1.662  0.1912  0.1071  0.4859
 2325TIP3    H128610   6.474   0.824   1.674 -0.5021  0.4115 -0.5059
 2325TIP3    H228611   6.507   0.686   1.727  0.9388  1.1590  0.6314
 2326TIP3   OH228612   6.738   1.681   8.256 -0.4035  0.5773 -0.5393
 2326TIP3    H128613   6.710   1.594   8.286  2.2958  0.5497  2.4715
 2326TIP3    H228614   6.800   1.664   8.185 -1.9483  0.2830 -1.8811
 2327TIP3   OH228615   5.120   1.287   7.838 -0.3208 -0.0890  0.5685
 2327TIP3    H128616   5.090   1.350   7.774 -2.2561  0.3085  1.7890
 2327TIP3    H228617   5.077   1.205   7.814 -1.0945  0.0731  1.3591
 2328TIP3   OH228618   4.918   0.947   8.451 -0.0665 -0.2076 -0.3448
 2328TIP3    H128619   4.996   0.941   8.396  0.4347  1.9135  0.0237
 2328TIP3    H228620   4.950   0.932   8.539 -0.1387  0.2096 -0.2433
 2329TIP3   OH228621   1.910   0.165   1.306 -0.1428 -0.0745  0.1038
 2329TIP3    H128622   1.826   0.180   1.263 -0.8255  0.9374  1.7060
 2329TIP3    H228623   1.942   0.252   1.329  0.6520 -0.5264  0.7948
 2330TIP3   OH228624   0.561   4.296   0.721  0.6434 -0.8617  0.2470
 2330TIP3    H128625   0.602   4.209   0.719  1.4376 -0.4902 -0.0396
 2330TIP3    H228626   0.603   4.344   0.650  0.0178 -0.3158  0.2333
 2331TIP3   OH228627   0.905   1.553   1.222  0.2082  0.4457  0.2671
 2331TIP3    H128628   0.824   1.553   1.172  0.4564 -2.3541 -0.2512
 2331TIP3    H228629   0.957   1.625   1.184 -0.9433  0.5362 -1.1969
 2332TIP3   OH228630   5.471   6.854   1.404 -0.3531  0.9250  0.8487
 2332TIP3    H128631   5.528   6.803   1.462 -1.2833  0.2057  1.1716
 2332TIP3    H228632   5.522   6.867   1.324 -0.0822 -0.5338  0.7589
 2333TIP3   OH228633   5.132   2.435   1.596 -0.4902  0.1317 -0.3581
 2333TIP3    H128634   5.071   2.402   1.530 -1.1136  0.0107  0.2641
 2333TIP3    H228635   5.091   2.516   1.628  0.4133  0.8585 -0.9901
 2334TIP3   OH228636   1.029   5.784   1.595 -0.9774  0.2048  0.6054
 2334TIP3    H128637   1.040   5.879   1.600  4.5199 -0.1127  0.4264
 2334TIP3    H228638   1.061   5.761   1.508  2.2632 -1.9289  2.1448
 2335TIP3   OH228639   6.448   2.394   2.714  0.4491 -0.5881  0.4090
 2335TIP3    H128640   6.518   2.377   2.778  1.0611 -0.8489 -0.3259
 2335TIP3    H228641   6.377   2.337   2.742  0.5551 -0.4014  1.1007
 2336TIP3   OH228642   5.934   1.142   0.346 -0.5768 -0.7522 -0.2888
 2336TIP3    H128643   5.921   1.066   0.403  1.0678 -0.8526  0.0130
 2336TIP3    H228644   5.893   1.214   0.393 -0.4061 -1.0874  0.3993
 2337TIP3   OH228645   2.837   6.854   1.278  0.3065  0.4000 -0.5095
 2337TIP3    H128646   2.910   6.846   1.340  0.1604  0.0947 -0.3748
 2337TIP3    H228647   2.782   6.923   1.314 -0.2525 -0.3921  0.1894
 2338TIP3   OH228648   4.980   1.996   0.481 -0.9716  0.0468  0.0237
 2338TIP3    H128649   5.043   2.057   0.519 -2.5281  1.2507  0.8087
 2338TIP3    H228650   4.953   1.940   0.554 -0.5793 -0.6976 -0.3854
 2339TIP3   OH228651   3.517   0.456   1.921 -1.3338 -0.0677 -0.7458
 2339TIP3    H128652   3.438   0.416   1.958 -1.0663 -0.5636 -0.7022
 2339TIP3    H228653   3.589   0.407   1.960 -0.9988  0.4800 -0.6734
 2340TIP3   OH228654   4.253   1.547   8.470 -0.0178  0.2135 -0.0630
 2340TIP3    H128655   4.338   1.590   8.478 -0.0114  0.3724 -0.8749
 2340TIP3    H228656   4.274   1.455   8.452 -0.0036  0.3489 -0.7733
 2341TIP3   OH228657   5.779   4.097   7.907 -0.8765 -0.1811 -0.0177
 2341TIP3    H128658   5.803   4.097   8.000  2.4965 -4.5614 -0.5195
 2341TIP3    H228659   5.830   4.168   7.869  0.9840 -0.8840  1.0119
 2342TIP3   OH228660   2.587   2.373   2.489 -0.0393 -0.0798  0.3866
 2342TIP3    H128661   2.659   2.401   2.545  0.8204 -0.8530 -0.2836
 2342TIP3    H228662   2.522   2.338   2.549  0.1948  0.5148  0.9975
 2343TIP3   OH228663   3.092   5.215   6.923 -0.5460  0.0863 -0.2347
 2343TIP3    H128664   3.169   5.206   6.867  2.5503  2.3648  3.2197
 2343TIP3    H228665   3.105   5.150   6.992 -1.4756  0.8508  0.6900
 2344TIP3   OH228666   5.157   1.444   1.210 -0.0296 -0.6819  0.5899
 2344TIP3    H128667   5.226   1.434   1.276  0.3288 -1.3844  0.1212
 2344TIP3    H228668   5.202   1.481   1.134 -0.2122 -0.9280  0.3616
 2345TIP3   OH228669   4.838   2.769   0.174  0.5761  0.4559  0.5375
 2345TIP3    H128670   4.880   2.683   0.164 -0.4575 -0.0527  0.4365
 2345TIP3    H228671   4.784   2.779   0.095 -0.0813  0.7546  1.0147
 2346TIP3   OH228672   1.939   5.997   0.453 -0.0846  0.0681  0.3326
 2346TIP3    H128673   1.936   5.901   0.444  0.2359  0.2632 -2.7650
 2346TIP3    H228674   1.852   6.025   0.425  0.3574  0.7480 -0.3841
 2347TIP3   OH228675   6.632   4.791   0.546  0.2117 -0.1153  0.2335
 2347TIP3    H128676   6.695   4.760   0.480  0.1284  1.0248 -0.4126
 2347TIP3    H228677   6.597   4.872   0.509 -0.1862  0.3021  1.4801
 2348TIP3   OH228678   3.337   3.828   7.853 -0.6583  0.3092 -0.1564
 2348TIP3    H128679   3.411   3.788   7.807 -0.7741  2.5221 -2.4914
 2348TIP3    H228680   3.261   3.807   7.799 -1.0125  1.9087 -0.3193
 2349TIP3   OH228681   2.255   3.789   2.118 -0.4078  0.7421 -0.2585
 2349TIP3    H128682   2.300   3.865   2.155  0.5168  0.0606  0.0609
 2349TIP3    H228683   2.319   3.751   2.057 -0.4966 -0.3016  0.2703
 2350TIP3   OH228684   4.761   6.647   8.469  0.2788  0.8047 -0.5498
 2350TIP3    H128685   4.697   6.711   8.500 -0.4882  0.3214 -1.0867
 2350TIP3    H228686   4.800   6.687   8.392 -0.5451  0.4398 -1.1668
 2351TIP3   OH228687   3.582   1.389   0.956 -0.4977  0.3717  0.3481
 2351TIP3    H128688   3.649   1.452   0.929 -0.0336  0.3088  1.2857
 2351TIP3    H228689   3.500   1.437   0.948 -0.4606  0.1494 -1.7264
 2352TIP3   OH228690   1.435   6.904   7.141  0.1203  0.0557 -0.3733
 2352TIP3    H128691   1.379   6.835   7.176  0.0609  0.5675  0.5912
 2352TIP3    H228692   1.380   6.982   7.143  0.7876  0.5289  0.4284
 2353TIP3   OH228693   6.397   3.271   2.107 -0.0698 -0.0246 -0.4896
 2353TIP3    H128694   6.408   3.353   2.156  1.1128 -1.5313  1.9397
 2353TIP3    H228695   6.316   3.233   2.140 -0.4465 -0.0196 -1.3726
 2354TIP3   OH228696   0.434   3.936   6.791 -0.8416  0.4173  0.2047
 2354TIP3    H128697   0.521   3.947   6.754 -0.8342 -0.8801 -0.1900
 2354TIP3    H228698   0.422   4.014   6.845  0.5345  0.6351  0.2398
 2355TIP3   OH228699   1.628   0.815   0.989 -0.0874  0.1762  0.1870
 2355TIP3    H128700   1.580   0.737   0.959  1.6199 -0.6309 -0.6003
 2355TIP3    H228701   1.663   0.789   1.074  0.8959 -0.1438 -0.2935
 2356TIP3   OH228702   2.585   3.197   8.353 -0.1618  0.0426 -0.1038
 2356TIP3    H128703   2.576   3.131   8.285 -0.2482 -1.6424  1.4534
 2356TIP3    H228704   2.574   3.148   8.435  0.5941  1.8514  1.1441
 2357TIP3   OH228705   3.108   4.486   1.559  0.0911 -0.0291 -0.7172
 2357TIP3    H128706   3.049   4.546   1.604 -0.9099 -1.5688  0.1076
 2357TIP3    H228707   3.189   4.490   1.610 -0.0158  0.4916 -0.5811
 2358TIP3   OH228708   3.497   0.832   0.916 -0.0365 -0.5434 -0.2976
 2358TIP3    H128709   3.428   0.894   0.894  0.2265 -0.3263 -0.5282
 2358TIP3    H228710   3.506   0.839   1.011  0.5563  0.3887 -0.4070
 2359TIP3   OH228711   0.106   5.874   7.214 -0.5608  0.6381 -0.3432
 2359TIP3    H128712   0.133   5.961   7.186  2.8392 -0.8275 -2.2022
 2359TIP3    H228713   0.025   5.856   7.165 -0.8070  2.3538 -0.6163
 2360TIP3   OH228714   2.435   3.238   2.223  0.5747  0.4896  0.4539
 2360TIP3    H128715   2.350   3.279   2.205  0.7662  0.1936 -1.3470
 2360TIP3    H228716   2.414   3.148   2.247  0.3908 -0.3741 -2.5076
 2361TIP3   OH228717   1.583   0.135   2.041 -0.1149 -0.0114 -0.2413
 2361TIP3    H128718   1.522   0.082   2.092 -3.4092  3.3431 -0.2575
 2361TIP3    H228719   1.548   0.133   1.952  1.3729 -0.0265 -0.8585
 2362TIP3   OH228720   6.649   6.901   6.576 -0.2565  0.2678  0.5986
 2362TIP3    H128721   6.626   6.963   6.506  0.8156 -0.6021 -0.5698
 2362TIP3    H228722   6.586   6.920   6.646 -0.5479  2.0435 -0.0766
 2363TIP3   OH228723   6.792   5.389   1.201  0.1516  0.2253 -0.0664
 2363TIP3    H128724   6.778   5.430   1.116 -3.0340  0.9790  0.6743
 2363TIP3    H228725   6.793   5.295   1.183  0.5253  0.4018 -1.0122
 2364TIP3   OH228726   3.440   6.714   0.263  0.3685  0.1835  0.1704
 2364TIP3    H128727   3.433   6.679   0.174  0.2793  1.1851 -0.2360
 2364TIP3    H228728   3.353   6.748   0.282 -0.0033 -1.2684  1.2044
 2365TIP3   OH228729   1.230   1.842   8.149  0.3124  0.0492  0.1519
 2365TIP3    H128730   1.226   1.793   8.232  0.5786  2.0309  1.4146
 2365TIP3    H228731   1.285   1.917   8.169 -2.3787  2.4433 -0.7957
 2366TIP3   OH228732   4.114   5.629   7.655 -0.6860 -0.1973  0.2384
 2366TIP3    H128733   4.142   5.719   7.643 -1.0443 -0.0268  0.6957
 2366TIP3    H228734   4.064   5.609   7.575  1.4600 -0.8067 -1.0484
 2367TIP3   OH228735   3.350   3.269   7.903  0.6362 -0.2170 -0.2074
 2367TIP3    H128736   3.271   3.220   7.882 -0.1856  0.5759  0.9056
 2367TIP3    H228737   3.413   3.203   7.931 -0.7706 -0.6425  2.2388
 2368TIP3   OH228738   5.800   0.883   7.410 -0.6943 -0.0625 -0.2316
 2368TIP3    H128739   5.847   0.967   7.410  0.0939 -0.4616 -1.7434
 2368TIP3    H228740   5.849   0.827   7.470  0.7509 -0.4263 -1.6787
 2369TIP3   OH228741   3.420   1.723   1.613  0.2002 -0.2736 -0.2314
 2369TIP3    H128742   3.362   1.670   1.669  0.9978  1.0957  2.0005
 2369TIP3    H228743   3.500   1.732   1.664  1.1899  0.5981 -1.8791
 2370TIP3   OH228744   4.083   1.566   0.517  0.2780  0.2848  0.5065
 2370TIP3    H128745   4.100   1.566   0.611  1.4216  1.9986  0.3456
 2370TIP3    H228746   4.123   1.647   0.485 -0.0381 -0.2790 -1.4704
 2371TIP3   OH228747   2.846   6.464   1.647  0.2162  0.1375  0.3111
 2371TIP3    H128748   2.899   6.453   1.567  0.4798  0.9572  0.3525
 2371TIP3    H228749   2.761   6.492   1.615  0.1544 -0.0696  0.2939
 2372TIP3   OH228750   6.888   3.957   2.765  0.0847  0.3265  0.1657
 2372TIP3    H128751   6.872   4.032   2.822  0.0411  2.5255 -2.5546
 2372TIP3    H228752   6.980   3.935   2.781 -0.2782  0.0061  1.9963
 2373TIP3   OH228753   2.556   0.619   1.439  0.2948  0.1867  0.6513
 2373TIP3    H128754   2.603   0.571   1.371 -1.0773 -0.1272 -0.0991
 2373TIP3    H228755   2.552   0.558   1.512  0.8118  0.1237  0.6357
 2374TIP3   OH228756   0.141   3.733   0.559 -0.0636  0.0133 -0.7170
 2374TIP3    H128757   0.148   3.654   0.613  1.1266  0.0131 -0.8639
 2374TIP3    H228758   0.125   3.803   0.623  1.0313 -0.0346 -0.3653
 2375TIP3   OH228759   3.960   6.516   6.929  0.6469  0.0227  0.3829
 2375TIP3    H128760   4.007   6.597   6.947 -0.1941  0.4511  0.6791
 2375TIP3    H228761   3.871   6.544   6.906  0.4177 -0.7962  0.2451
 2376TIP3   OH228762   2.607   3.062   7.121  0.0188  0.3050  0.1771
 2376TIP3    H128763   2.651   3.122   7.061  0.9336 -1.2787 -0.7970
 2376TIP3    H228764   2.553   3.119   7.176  0.3815  1.9537 -1.0895
 2377TIP3   OH228765   2.592   2.033   0.370  0.4554 -0.0002 -0.5673
 2377TIP3    H128766   2.575   2.126   0.385 -0.6006 -0.3996  0.9266
 2377TIP3    H228767   2.682   2.020   0.401  0.8302  0.6162 -1.3478
 2378TIP3   OH228768   1.000   4.696   0.778  0.4404 -0.1257 -0.3234
 2378TIP3    H128769   0.928   4.642   0.811  0.5182 -1.6324 -2.4694
 2378TIP3    H228770   0.957   4.774   0.742  0.0728 -0.1438  0.0647
 2379TIP3   OH228771   5.524   5.628   2.064 -0.0298 -0.1577 -0.3221
 2379TIP3    H128772   5.550   5.693   1.999  0.4094 -1.3630 -1.4016
 2379TIP3    H228773   5.598   5.623   2.124  0.2297 -0.1708 -0.6419
 2380TIP3   OH228774   1.352   4.328   7.734 -0.1160  0.2739  0.7612
 2380TIP3    H128775   1.306   4.274   7.671  1.3889 -0.5966  0.3596
 2380TIP3    H228776   1.287   4.393   7.762 -1.5809 -0.9321  0.2975
 2381TIP3   OH228777   5.480   3.817   1.583 -0.1007 -0.1934  0.5899
 2381TIP3    H128778   5.507   3.848   1.496 -1.0721  2.2714  1.0656
 2381TIP3    H228779   5.562   3.808   1.631  0.3059  1.5988  0.3279
 2382TIP3   OH228780   0.386   1.780   7.432  0.0638  0.1323  0.1975
 2382TIP3    H128781   0.468   1.780   7.383  0.5214 -1.4969  0.9128
 2382TIP3    H228782   0.352   1.869   7.421  2.5941  1.2893  1.0026
 2383TIP3   OH228783   1.385   3.059   7.489 -0.4088 -0.4893 -0.7872
 2383TIP3    H128784   1.384   3.115   7.412  2.7044  0.4217 -0.3010
 2383TIP3    H228785   1.458   2.999   7.474  0.4996 -0.0721  1.5466
 2384TIP3   OH228786   0.395   1.084   8.002 -0.4069 -0.3955  0.2542
 2384TIP3    H128787   0.422   1.167   7.961 -0.4755 -0.6262 -0.2755
 2384TIP3    H228788   0.440   1.082   8.086  0.6969 -0.4608 -0.3207
 2385TIP3   OH228789   3.558   4.547   1.546 -0.2560  0.1418  0.1800
 2385TIP3    H128790   3.603   4.525   1.628 -1.9574 -2.2761  0.5706
 2385TIP3    H228791   3.509   4.626   1.566  0.2640  0.2406  1.1326
 2386TIP3   OH228792   6.508   2.734   7.696 -0.3164 -0.2153 -0.4091
 2386TIP3    H128793   6.428   2.691   7.668 -0.2823 -0.7067  0.2252
 2386TIP3    H228794   6.519   2.807   7.635  0.0174 -1.5306 -1.9938
 2387TIP3   OH228795   6.872   1.115   7.213 -0.1774  0.0181 -0.8718
 2387TIP3    H128796   6.934   1.049   7.182 -0.1342  1.1959 -3.5866
 2387TIP3    H228797   6.885   1.190   7.155 -3.0945  0.8710 -0.6035
 2388TIP3   OH228798   0.772   0.833   8.279 -0.3066  0.2487 -0.2199
 2388TIP3    H128799   0.841   0.864   8.337 -0.2053  1.7113 -1.0735
 2388TIP3    H228800   0.807   0.751   8.243 -0.3931 -0.7124  1.7513
 2389TIP3   OH228801   1.038   1.597   0.259 -0.3304  0.3127  0.2844
 2389TIP3    H128802   1.052   1.669   0.197 -2.9434 -0.5718 -1.5480
 2389TIP3    H228803   1.078   1.521   0.217 -2.1733 -0.3051 -0.4644
 2390TIP3   OH228804   0.057   3.013   0.690  0.3383 -0.2729  0.1284
 2390TIP3    H128805   0.131   2.973   0.735  0.3471  0.0013  0.3594
 2390TIP3    H228806   0.083   3.104   0.675  0.1456 -0.2378 -0.0035
 2391TIP3   OH228807   2.446   4.729   1.222 -0.0144  0.1875 -0.9698
 2391TIP3    H128808   2.378   4.796   1.227 -0.3705 -0.2362 -0.0013
 2391TIP3    H228809   2.422   4.665   1.289  0.6474 -0.6119 -1.4747
 2392TIP3   OH228810   0.048   2.329   0.853 -0.2144 -0.3788  0.1189
 2392TIP3    H128811   0.092   2.255   0.810 -1.5353 -0.7731 -0.6094
 2392TIP3    H228812  -0.037   2.335   0.810 -0.7849  0.5286  1.3050
 2393TIP3   OH228813   3.492   3.336   8.236  0.0563  0.0196  0.1427
 2393TIP3    H128814   3.529   3.249   8.218  0.1986  0.5167 -2.3451
 2393TIP3    H228815   3.398   3.322   8.239 -0.0196 -0.0774 -1.6126
 2394TIP3   OH228816   5.462   6.367   0.442  0.3971  0.7165 -0.5402
 2394TIP3    H128817   5.438   6.388   0.532  0.2106 -1.3511 -0.0623
 2394TIP3    H228818   5.491   6.276   0.445 -0.7806  0.1805 -2.7422
 2395TIP3   OH228819   0.143   5.092   6.869  0.7921 -0.1151 -0.4180
 2395TIP3    H128820   0.157   4.997   6.864  0.5406 -0.1458 -0.5631
 2395TIP3    H228821   0.132   5.119   6.778 -1.9351 -0.3789 -0.2705
 2396TIP3   OH228822   0.021   3.321   2.142 -0.0095  0.3513 -0.6527
 2396TIP3    H128823  -0.003   3.392   2.201  1.7769  0.6439 -0.2113
 2396TIP3    H228824  -0.010   3.350   2.056 -3.4601 -0.4910  0.1877
 2397TIP3   OH228825   0.313   6.600   2.432  0.4719 -0.4833  0.3696
 2397TIP3    H128826   0.241   6.626   2.489  0.0925  0.0751 -0.3508
 2397TIP3    H228827   0.371   6.675   2.431  0.8134 -0.7419  0.5406
 2398TIP3   OH228828   2.772   1.799   0.074  0.1713  0.1215 -0.2771
 2398TIP3    H128829   2.725   1.716   0.083 -1.5513  1.0822  0.1230
 2398TIP3    H228830   2.842   1.780   0.012  1.2359 -2.1882  1.4518
 2399TIP3   OH228831   5.263   6.271   7.662  0.1422  0.1485  0.5811
 2399TIP3    H128832   5.292   6.288   7.573  0.6061 -0.8472  0.5224
 2399TIP3    H228833   5.195   6.336   7.679  0.1923  0.4698 -0.4285
 2400TIP3   OH228834   4.110   6.811   8.253 -0.2163  0.0837  0.1758
 2400TIP3    H128835   4.151   6.734   8.214  0.7714  0.7875 -0.2413
 2400TIP3    H228836   4.053   6.845   8.184 -1.1070 -0.5921  0.5663
 2401TIP3   OH228837   5.342   6.915   0.012 -0.2779 -0.0407  1.3358
 2401TIP3    H128838   5.389   6.987  -0.031 -0.1122 -1.4999 -1.1378
 2401TIP3    H228839   5.251   6.943   0.012 -0.4803 -0.4223 -1.1846
 2402TIP3   OH228840   2.326   3.158   8.523 -0.0230  0.6018 -0.1850
 2402TIP3    H128841   2.411   3.141   8.565  1.0447 -1.3427 -2.8352
 2402TIP3    H228842   2.271   3.084   8.550 -0.8848  1.7024  1.2814
 2403TIP3   OH228843   5.991   5.199   1.251 -0.2032  0.0226 -0.1478
 2403TIP3    H128844   6.017   5.231   1.165  2.4447 -0.0961  0.5189
 2403TIP3    H228845   5.975   5.105   1.238  0.5733 -0.0746 -0.4557
 2404TIP3   OH228846   4.365   6.369   0.533  1.1957 -0.0540  0.1622
 2404TIP3    H128847   4.407   6.398   0.614 -0.2111  2.3642  0.1219
 2404TIP3    H228848   4.279   6.337   0.561  1.2261 -0.5071 -0.2471
 2405TIP3   OH228849   5.520   2.156   6.650 -0.1778 -0.6118  0.9739
 2405TIP3    H128850   5.463   2.232   6.658 -0.5064 -0.7072 -0.2774
 2405TIP3    H228851   5.533   2.146   6.556  1.2975 -1.0455  1.2015
 2406TIP3   OH228852   4.938   6.800   1.465 -0.0927 -0.2041 -0.1113
 2406TIP3    H128853   4.895   6.860   1.526 -1.0861 -0.3628 -0.6328
 2406TIP3    H228854   5.014   6.849   1.434  0.4665 -0.1485  1.2777
 2407TIP3   OH228855   2.498   2.652   1.732  0.0481 -0.2745 -0.3917
 2407TIP3    H128856   2.557   2.627   1.804  1.2513  1.2326 -0.7984
 2407TIP3    H228857   2.464   2.570   1.699  0.1810 -1.0634  1.3047
 2408TIP3   OH228858   3.651   2.355   0.206 -0.3090 -0.2477 -0.1934
 2408TIP3    H128859   3.641   2.438   0.251 -1.5416 -0.2431 -0.4377
 2408TIP3    H228860   3.692   2.377   0.123 -0.9547  0.1676 -0.4061
 2409TIP3   OH228861   4.051   4.869   1.766  0.3860  0.1887  0.7251
 2409TIP3    H128862   3.990   4.885   1.839  0.5603 -1.4706  1.2780
 2409TIP3    H228863   4.018   4.925   1.695 -0.5623  0.8615  1.6566
 2410TIP3   OH228864   2.202   4.302   0.312  0.0818  0.0633  0.6677
 2410TIP3    H128865   2.127   4.277   0.258  0.3273  0.9990 -0.1233
 2410TIP3    H228866   2.184   4.262   0.397  1.1243 -4.0869 -0.8281
 2411TIP3   OH228867   0.762   4.347   0.126  0.9647  0.5963  0.1726
 2411TIP3    H128868   0.817   4.367   0.050 -0.4943  1.3519 -0.7487
 2411TIP3    H228869   0.745   4.432   0.166  1.0871  0.2841  0.8982
 2412TIP3   OH228870   5.682   4.840   7.719 -0.5066 -0.1402  0.2645
 2412TIP3    H128871   5.645   4.878   7.640 -2.4936  0.7762  1.5501
 2412TIP3    H228872   5.738   4.769   7.688  0.2282  1.3224 -2.0187
 2413TIP3   OH228873   5.354   4.043   1.654  0.1735 -0.1603  0.2160
 2413TIP3    H128874   5.274   4.037   1.603 -0.2248 -1.2485  0.9319
 2413TIP3    H228875   5.400   3.962   1.636  1.0566  0.3844 -0.0631
 2414TIP3   OH228876   1.566   6.354   1.410 -0.2250  0.6525  0.1418
 2414TIP3    H128877   1.647   6.375   1.457 -0.1283  1.8640 -0.5076
 2414TIP3    H228878   1.498   6.361   1.477  0.1185  0.3911  0.5289
 2415TIP3   OH228879   0.448   0.815   6.635 -0.1967  0.4073  0.6644
 2415TIP3    H128880   0.438   0.830   6.729  1.3608  0.4324  0.8470
 2415TIP3    H228881   0.529   0.765   6.627 -0.5360  0.0389 -0.6398
 2416TIP3   OH228882   5.936   2.705   6.877 -0.2388 -0.4381  0.7732
 2416TIP3    H128883   5.912   2.619   6.842 -4.6129  1.0111 -0.4700
 2416TIP3    H228884   5.995   2.742   6.811 -1.5153 -1.0397 -0.7883
 2417TIP3   OH228885   5.864   0.928   1.139 -0.0461  0.5269 -0.1149
 2417TIP3    H128886   5.775   0.902   1.160 -0.4671  1.4687 -0.6600
 2417TIP3    H228887   5.913   0.846   1.133 -0.6285  0.0575  1.2400
 2418TIP3   OH228888   1.538   1.296   8.456  0.1017 -0.3355 -0.7344
 2418TIP3    H128889   1.606   1.328   8.396  0.0573 -0.7551 -1.0068
 2418TIP3    H228890   1.585   1.276   8.537  0.4563 -1.4778 -1.2104
 2419TIP3   OH228891   4.283   3.972   2.829  0.1067 -0.0080 -0.6745
 2419TIP3    H128892   4.252   4.056   2.862 -0.0863 -0.0068 -0.8581
 2419TIP3    H228893   4.336   3.936   2.901 -1.0619 -0.4280 -0.0025
 2420TIP3   OH228894   6.111   2.276   2.171 -0.1256 -0.1913 -0.0241
 2420TIP3    H128895   6.096   2.267   2.265  2.7749  0.5323  0.5923
 2420TIP3    H228896   6.206   2.273   2.161 -0.3576 -0.8124 -3.0253
 2421TIP3   OH228897   3.897   0.597   0.598 -0.1311 -0.0247  0.1107
 2421TIP3    H128898   3.838   0.649   0.653  0.4420  1.0135 -0.2311
 2421TIP3    H228899   3.915   0.653   0.523  0.8988 -0.5232 -0.0244
 2422TIP3   OH228900   1.380   1.389   7.349  0.4976 -0.3177  0.3382
 2422TIP3    H128901   1.471   1.369   7.328  1.1569  0.4701  2.2274
 2422TIP3    H228902   1.386   1.456   7.418 -1.5242  2.1148 -1.6658
 2423TIP3   OH228903   0.765   1.331   8.130  0.7150 -0.1661  0.0141
 2423TIP3    H128904   0.699   1.399   8.117  0.6027 -0.3382 -0.3239
 2423TIP3    H228905   0.747   1.297   8.218  0.4770 -0.0799 -0.0004
 2424TIP3   OH228906   2.176   4.728   0.642  0.9112  0.1398  0.2983
 2424TIP3    H128907   2.206   4.730   0.733  1.0839  0.2399  0.2408
 2424TIP3    H228908   2.165   4.820   0.618  1.8696  0.1696 -0.1043
 2425TIP3   OH228909   1.918   1.214   0.385  0.3743  0.2085 -0.4128
 2425TIP3    H128910   1.887   1.263   0.461 -0.6450 -0.3276 -0.4566
 2425TIP3    H228911   1.971   1.276   0.336  1.3481  0.4582  0.9108
 2426TIP3   OH228912   4.468   3.027   0.929  0.0635  0.2281 -0.2348
 2426TIP3    H128913   4.471   2.944   0.975  0.6158  0.0334 -0.6017
 2426TIP3    H228914   4.481   3.004   0.837 -1.7137  0.5381 -0.5931
 2427TIP3   OH228915   3.805   1.403   7.919  0.7725  0.4601 -0.1219
 2427TIP3    H128916   3.868   1.414   7.991  0.8069  0.4417 -0.1494
 2427TIP3    H228917   3.846   1.446   7.844 -0.2440  2.4656  0.4135
 2428TIP3   OH228918   0.964   5.931   7.819 -0.4353  0.0882  0.1934
 2428TIP3    H128919   0.877   5.892   7.816 -0.0185 -0.8151 -0.8327
 2428TIP3    H228920   1.024   5.856   7.821  0.3511  0.6724 -0.5996
 2429TIP3   OH228921   4.081   5.041   0.434 -0.4524 -0.0376  0.5722
 2429TIP3    H128922   4.055   4.964   0.384 -1.3270 -0.1050  1.1078
 2429TIP3    H228923   4.097   5.008   0.523 -0.6697  0.3614  0.7660
 2430TIP3   OH228924   1.416   0.105   8.456  0.0192 -0.0177 -0.1186
 2430TIP3    H128925   1.397   0.107   8.362 -0.3693 -0.6303 -0.0621
 2430TIP3    H228926   1.491   0.163   8.467 -1.4389  2.0381 -0.4405
 2431TIP3   OH228927   0.027   3.481   0.043 -0.2025  0.1247  0.5812
 2431TIP3    H128928   0.015   3.574   0.023  1.1452  0.3296  0.6709
 2431TIP3    H228929  -0.051   3.439   0.007 -1.0590  1.3367  0.9464
 2432TIP3   OH228930   5.980   5.548   2.370 -0.0764  0.1375  0.4659
 2432TIP3    H128931   6.053   5.490   2.350  0.5221  0.7869  0.7113
 2432TIP3    H228932   6.008   5.634   2.337 -2.2055 -0.2397 -2.7661
 2433TIP3   OH228933   1.664   2.402   1.590  0.0270 -0.1378  0.1517
 2433TIP3    H128934   1.624   2.489   1.589 -1.0267 -0.6047 -1.1042
 2433TIP3    H228935   1.717   2.399   1.510  0.2433 -0.5760  0.3076
 2434TIP3   OH228936   5.116   2.727   1.397  0.7230  0.2889  0.8461
 2434TIP3    H128937   5.113   2.709   1.491  4.4531  1.8684  1.4111
 2434TIP3    H228938   5.179   2.798   1.387 -0.6579  1.2541 -2.7763
 2435TIP3   OH228939   4.327   5.765   8.373 -0.2378  0.8933  0.1814
 2435TIP3    H128940   4.384   5.699   8.333  0.6448  0.6700  1.7224
 2435TIP3    H228941   4.261   5.784   8.306  1.8393  1.4465 -1.8404
 2436TIP3   OH228942   1.952   3.984   0.055  0.3782  0.3727  0.0817
 2436TIP3    H128943   1.982   3.899   0.023  1.3526  1.3006 -1.5973
 2436TIP3    H228944   1.874   4.004   0.003  1.1752  1.2715 -0.8193
 2437TIP3   OH228945   5.869   2.956   1.290  0.1727  0.6820 -1.0900
 2437TIP3    H128946   5.955   2.984   1.257  0.7392  1.1888  0.6953
 2437TIP3    H228947   5.869   2.861   1.280  1.8313  0.4230  0.7301
 2438TIP3   OH228948   0.371   3.203   0.496 -0.1258 -0.0664 -0.3071
 2438TIP3    H128949   0.392   3.128   0.440 -0.3354 -1.3132  1.2104
 2438TIP3    H228950   0.346   3.273   0.435 -1.0279 -1.5678 -1.7391
 2439TIP3   OH228951   2.287   2.553   1.159 -0.0106 -0.3755  0.6179
 2439TIP3    H128952   2.228   2.628   1.150  0.2895  0.0993  2.2999
 2439TIP3    H228953   2.374   2.589   1.145  0.2435 -0.1187  2.6662
 2440TIP3   OH228954   3.063   1.473   3.155  0.2171  0.2341 -0.0625
 2440TIP3    H128955   3.025   1.551   3.114 -0.0128 -0.0821 -0.4542
 2440TIP3    H228956   3.134   1.507   3.210 -1.1366  0.9322  1.3392
 2441TIP3   OH228957   3.910   1.934   8.104  0.4787  0.2511  0.1127
 2441TIP3    H128958   3.879   1.964   8.019  1.9098  0.9837 -0.1849
 2441TIP3    H228959   3.850   1.864   8.128  0.1615 -0.1121 -1.5878
 2442TIP3   OH228960   3.259   3.766   1.852 -0.0433  0.6551 -0.0446
 2442TIP3    H128961   3.346   3.733   1.828 -0.2630  1.3309 -1.9429
 2442TIP3    H228962   3.276   3.839   1.911  0.7334  1.0892 -0.7777
 2443TIP3   OH228963   1.100   6.189   0.808 -0.2988  0.4128 -0.3384
 2443TIP3    H128964   1.023   6.240   0.830  0.1323  1.6939 -1.6873
 2443TIP3    H228965   1.173   6.239   0.843  0.1289  0.7885 -1.6938
 2444TIP3   OH228966   6.623   0.392   8.230  0.0684 -0.6075  0.1801
 2444TIP3    H128967   6.614   0.307   8.188  0.3072 -0.1336 -0.8583
 2444TIP3    H228968   6.715   0.415   8.219 -0.3632  0.5926 -1.1621
 2445TIP3   OH228969   4.655   5.598   0.413 -0.4664 -0.4138  0.1573
 2445TIP3    H128970   4.606   5.652   0.350  0.9688  1.8260  0.8500
 2445TIP3    H228971   4.588   5.563   0.472 -1.7629 -1.9644 -2.0772
 2446TIP3   OH228972   1.190   6.079   2.161  0.6422 -0.6123  0.7257
 2446TIP3    H128973   1.164   5.988   2.171 -0.7051 -0.3012  0.1757
 2446TIP3    H228974   1.108   6.128   2.163  1.2562  0.4800 -0.1886
 2447TIP3   OH228975   0.604   4.230   7.815 -0.0382  0.3783 -0.5091
 2447TIP3    H128976   0.642   4.180   7.742 -3.3890  0.2216 -2.3547
 2447TIP3    H228977   0.623   4.321   7.793 -0.9843  0.3319 -1.6464
 2448TIP3   OH228978   6.104   4.406   2.369  0.2582  0.0001 -0.6831
 2448TIP3    H128979   6.045   4.330   2.367  0.9251 -0.5318 -0.6472
 2448TIP3    H228980   6.133   4.412   2.460 -2.3687  2.3610  0.1070
 2449TIP3   OH228981   1.849   1.730   2.868 -0.4268  0.1290 -0.1195
 2449TIP3    H128982   1.772   1.679   2.893  0.3154  0.0325  2.2555
 2449TIP3    H228983   1.837   1.749   2.776 -3.5747  0.6224  0.3042
 2450TIP3   OH228984   2.130   6.920   1.289  0.2894 -1.0879 -0.0190
 2450TIP3    H128985   2.058   6.977   1.314  0.2195 -1.7798  1.4550
 2450TIP3    H228986   2.159   6.953   1.204 -0.3011  0.5937  0.4059
 2451TIP3   OH228987   6.183   0.808   1.701 -0.6064  0.0252  0.1392
 2451TIP3    H128988   6.160   0.745   1.769 -0.6251  1.0927  1.1449
 2451TIP3    H228989   6.267   0.776   1.666 -0.7903 -0.7378  0.3760
 2452TIP3   OH228990   3.351   4.200   2.384 -0.1626  0.6524  0.2035
 2452TIP3    H128991   3.266   4.162   2.405 -1.1235  0.7211 -3.0123
 2452TIP3    H228992   3.406   4.125   2.359  0.4006  0.7205  1.1759
 2453TIP3   OH228993   6.732   5.672   2.732  0.7585  0.5727 -0.1392
 2453TIP3    H128994   6.715   5.592   2.682 -0.3671  0.3780  0.5270
 2453TIP3    H228995   6.654   5.684   2.786  0.6942  2.3694 -0.5384
 2454TIP3   OH228996   5.112   1.534   1.745  0.1886 -0.3504 -0.0899
 2454TIP3    H128997   5.070   1.618   1.727  0.6731 -0.0646  0.1002
 2454TIP3    H228998   5.189   1.532   1.688 -1.4867 -2.0385 -2.4505
 2455TIP3   OH228999   6.105   4.767   6.912  0.5798  0.1190 -0.7572
 2455TIP3    H129000   6.047   4.834   6.877  2.4893  1.5273 -1.3926
 2455TIP3    H229001   6.191   4.789   6.877  1.6810 -1.3565  0.8509
 2456TIP3   OH229002   1.820   5.565   2.105 -0.0110  0.2652  0.8602
 2456TIP3    H129003   1.752   5.618   2.062  1.3760  1.8866  0.5455
 2456TIP3    H229004   1.793   5.475   2.090  0.0204  0.7161 -2.9676
 2457TIP3   OH229005   3.335   1.467   2.268 -0.0752  0.1733 -0.5787
 2457TIP3    H129006   3.338   1.532   2.198  0.5193 -1.3520 -2.0479
 2457TIP3    H229007   3.322   1.383   2.223 -1.3278 -0.7026  1.2682
 2458TIP3   OH229008   3.294   3.941   1.440 -0.0467  0.5907 -0.0090
 2458TIP3    H129009   3.257   3.906   1.521 -0.7437  0.4855 -0.3680
 2458TIP3    H229010   3.282   3.872   1.375 -0.6427  1.1525 -0.5119
 2459TIP3   OH229011   5.942   5.727   1.999 -0.2831  0.1068 -0.2258
 2459TIP3    H129012   5.899   5.645   1.972  2.1152 -1.3427  0.0780
 2459TIP3    H229013   5.926   5.733   2.093  1.4854 -1.3415  0.2194
 2460TIP3   OH229014   2.605   3.131   0.517 -0.5342 -0.2746 -0.0446
 2460TIP3    H129015   2.558   3.084   0.586 -0.3097 -0.4812 -0.0321
 2460TIP3    H229016   2.537   3.155   0.454 -0.6195 -0.7965 -0.1534
 2461TIP3   OH229017   0.249   5.348   1.260  0.1646  0.0192 -0.1759
 2461TIP3    H129018   0.186   5.304   1.317  0.5401 -1.1204 -0.6117
 2461TIP3    H229019   0.242   5.441   1.283 -0.9980 -0.2009  0.4319
 2462TIP3   OH229020   0.510   3.014   1.464 -0.3951 -0.0124  0.5203
 2462TIP3    H129021   0.487   3.044   1.552 -2.0909 -0.8031  0.3744
 2462TIP3    H229022   0.429   2.981   1.427  0.5833 -1.0508 -0.8217
 2463TIP3   OH229023   6.778   4.910   0.769  0.2425 -0.2698  0.6567
 2463TIP3    H129024   6.776   4.875   0.858 -1.0015  0.1707  0.8217
 2463TIP3    H229025   6.726   4.848   0.718  0.1750 -0.0237  0.4274
 2464TIP3   OH229026   5.699   0.657   2.393 -0.4717  0.1723  0.4210
 2464TIP3    H129027   5.755   0.718   2.441 -2.1458  1.6059  0.6317
 2464TIP3    H229028   5.612   0.695   2.398 -0.9712 -0.3128 -2.6126
 2465TIP3   OH229029   0.952   6.265   6.596  0.2333 -0.5354 -0.2739
 2465TIP3    H129030   0.998   6.329   6.542  0.6060 -0.7338 -0.1988
 2465TIP3    H229031   0.860   6.288   6.589  0.2881 -0.4968 -0.9161
 2466TIP3   OH229032   6.609   4.090   1.801  0.1237 -0.4573 -0.4995
 2466TIP3    H129033   6.543   4.075   1.868  1.2595 -1.9759  0.3546
 2466TIP3    H229034   6.650   4.173   1.824 -2.1436  1.0736 -1.6705
 2467TIP3   OH229035   6.056   6.247   7.230  0.2549 -0.5462  0.2503
 2467TIP3    H129036   5.971   6.258   7.188 -0.5674 -1.7950  1.4825
 2467TIP3    H229037   6.098   6.332   7.223 -1.5283  0.3949  0.4977
 2468TIP3   OH229038   2.504   3.622   2.366  0.6177 -0.0520 -0.6108
 2468TIP3    H129039   2.512   3.704   2.317  1.9996  0.4190  0.3438
 2468TIP3    H229040   2.543   3.641   2.451  0.0012 -1.4090  0.0009
 2469TIP3   OH229041   6.570   6.524   6.871  0.2473 -0.0455  0.2528
 2469TIP3    H129042   6.623   6.602   6.854 -0.9280  1.1445  1.7731
 2469TIP3    H229043   6.480   6.552   6.857 -0.3271 -0.6127  2.4045
 2470TIP3   OH229044   4.310   5.446   1.869 -0.3467 -0.5658 -0.4008
 2470TIP3    H129045   4.250   5.443   1.943  0.0901 -0.6901 -0.0452
 2470TIP3    H229046   4.384   5.499   1.901  0.4709 -1.7384 -0.2639
 2471TIP3   OH229047   4.247   0.727   0.143 -0.3264 -0.7374 -0.3661
 2471TIP3    H129048   4.289   0.642   0.148 -0.6860 -0.9049 -0.1512
 2471TIP3    H229049   4.280   0.765   0.061 -0.3603 -1.1862 -0.5905
 2472TIP3   OH229050   6.869   4.995   1.143  0.0290 -0.2460 -0.0781
 2472TIP3    H129051   6.852   5.006   1.237 -0.8924 -3.1461  0.2092
 2472TIP3    H229052   6.793   4.946   1.111  1.2504 -1.0396 -1.8945
 2473TIP3   OH229053   1.998   5.544   8.414  0.2399  0.1953  0.7652
 2473TIP3    H129054   2.037   5.589   8.340  0.2085 -1.0398 -0.0260
 2473TIP3    H229055   2.066   5.545   8.482  1.7071 -1.9153 -0.5782
 2474TIP3   OH229056   3.624   2.480   0.468  0.1347  0.1110  0.6122
 2474TIP3    H129057   3.687   2.536   0.514  1.4252 -0.5371 -0.2746
 2474TIP3    H229058   3.596   2.416   0.534  0.7198  0.1761  0.9328
 2475TIP3   OH229059   4.238   0.423   1.541  1.2556  0.4500 -0.1211
 2475TIP3    H129060   4.277   0.511   1.540 -0.8898  1.4709 -1.4582
 2475TIP3    H229061   4.144   0.439   1.538  0.7627 -1.9240  0.6522
 2476TIP3   OH229062   3.144   5.189   7.268 -0.4771  0.5421 -0.9223
 2476TIP3    H129063   3.099   5.260   7.224 -3.1061  0.7127  1.6884
 2476TIP3    H229064   3.117   5.110   7.221 -0.5637  0.9637 -1.5804
 2477TIP3   OH229065   4.523   4.154   1.353 -0.2105 -0.1911  0.3575
 2477TIP3    H129066   4.564   4.183   1.272 -0.6292 -1.9811 -0.5421
 2477TIP3    H229067   4.446   4.210   1.361 -0.3615 -0.2215 -0.6912
 2478TIP3   OH229068   0.607   2.770   2.471  0.3085 -0.2340  0.0691
 2478TIP3    H129069   0.558   2.852   2.463 -1.3588 -1.1220  0.6264
 2478TIP3    H229070   0.615   2.756   2.566  0.7551 -0.6026 -0.0210
 2479TIP3   OH229071   6.432   2.515   7.961  0.3027 -0.6904  0.0492
 2479TIP3    H129072   6.353   2.568   7.954  0.2884 -0.4853  1.4432
 2479TIP3    H229073   6.449   2.484   7.872 -0.5962  0.3409 -0.4996
 2480TIP3   OH229074   6.343   2.705   2.110  0.5130 -1.0930  0.5607
 2480TIP3    H129075   6.329   2.671   2.199  0.0800  1.0834  1.3876
 2480TIP3    H229076   6.401   2.781   2.122  0.6061 -0.8705 -1.0468
 2481TIP3   OH229077   6.925   3.054   2.242 -0.6647  0.0327  0.2199
 2481TIP3    H129078   6.948   3.146   2.232 -1.9233  0.3575  0.1176
 2481TIP3    H229079   6.982   3.022   2.312  1.7786  0.1220 -1.5802
 2482TIP3   OH229080   2.586   1.388   7.504 -0.1877  0.1943  0.0720
 2482TIP3    H129081   2.525   1.445   7.456 -0.6750  0.2184  0.7115
 2482TIP3    H229082   2.550   1.300   7.492 -0.2142  0.1813  0.2539
 2483TIP3   OH229083   4.909   1.857   0.931 -0.9128  0.0510 -0.0618
 2483TIP3    H129084   4.901   1.863   1.026  0.2845 -1.4084  0.1663
 2483TIP3    H229085   4.982   1.914   0.908 -0.2980 -0.6647  0.0805
 2484TIP3   OH229086   6.799   3.638   7.526  0.5655 -0.0490  0.1205
 2484TIP3    H129087   6.766   3.600   7.445  0.6451 -0.3750  0.2406
 2484TIP3    H229088   6.890   3.608   7.532  0.5975  0.0742  0.2678
 2485TIP3   OH229089   2.836   5.239   2.179 -0.0586  0.0524 -0.2475
 2485TIP3    H129090   2.812   5.305   2.244 -1.8810 -1.3629  0.6134
 2485TIP3    H229091   2.843   5.287   2.097 -0.2982  1.4647  0.5297
 2486TIP3   OH229092   2.920   0.938   0.674 -0.0296  0.3927 -0.0404
 2486TIP3    H129093   2.991   1.000   0.686 -0.0527  0.4426 -0.1619
 2486TIP3    H229094   2.870   0.943   0.755  0.3621  0.0272  0.2250
 2487TIP3   OH229095   6.480   4.247   7.352  0.4838 -1.4968 -0.0645
 2487TIP3    H129096   6.425   4.305   7.404 -0.2877 -1.7309 -0.6169
 2487TIP3    H229097   6.552   4.223   7.412  1.1999  0.5399 -0.0287
 2488TIP3   OH229098   1.350   0.323   8.271 -0.1965  0.3948  0.2527
 2488TIP3    H129099   1.428   0.322   8.326 -0.4374  0.4141  0.6006
 2488TIP3    H229100   1.372   0.266   8.197 -0.0756 -0.1079  0.6652
 2489TIP3   OH229101   1.242   2.671   7.798  0.6000  0.1549  0.1369
 2489TIP3    H129102   1.204   2.654   7.711  1.8090 -0.6200 -0.2633
 2489TIP3    H229103   1.276   2.760   7.792 -0.3004  0.5103  0.1903
 2490TIP3   OH229104   0.715   2.407   0.428 -0.0792  0.7244 -0.6730
 2490TIP3    H129105   0.795   2.430   0.476 -1.5138  0.1124  2.2680
 2490TIP3    H229106   0.666   2.488   0.422 -0.9156  0.3955  1.0973
 2491TIP3   OH229107   3.981   5.579   0.339  0.1624  0.3113  0.5683
 2491TIP3    H129108   3.966   5.665   0.377 -1.4013  0.2571  0.1116
 2491TIP3    H229109   3.977   5.519   0.414  0.6330  0.5568  0.7958
 2492TIP3   OH229110   4.447   2.600   0.205  0.0179  0.1040 -0.0237
 2492TIP3    H129111   4.495   2.532   0.253  2.5066  2.5501  1.2123
 2492TIP3    H229112   4.364   2.609   0.252  1.6151  1.1275  2.8146
 2493TIP3   OH229113   2.175   0.493   3.085 -0.2511 -0.3877  0.1977
 2493TIP3    H129114   2.206   0.438   3.158 -0.6636  0.7037  1.2239
 2493TIP3    H229115   2.220   0.576   3.097 -0.1147 -0.2822 -0.9785
 2494TIP3   OH229116   5.610   2.471   1.318 -0.2544  0.1012 -0.3714
 2494TIP3    H129117   5.538   2.453   1.378  0.3632  1.1118  0.7181
 2494TIP3    H229118   5.683   2.419   1.350 -0.0290  0.3491 -0.4770
 2495TIP3   OH229119   0.564   1.831   7.217 -0.5149 -0.0123 -0.5303
 2495TIP3    H129120   0.549   1.925   7.224  2.1710  0.5645 -1.5247
 2495TIP3    H229121   0.559   1.812   7.123  0.0869 -0.6532 -0.4422
 2496TIP3   OH229122   2.712   4.998   7.157 -0.2967 -0.0552 -0.5062
 2496TIP3    H129123   2.739   5.006   7.066  2.2655 -0.0509  0.1632
 2496TIP3    H229124   2.712   5.088   7.190 -1.8796  0.0202 -0.6169
 2497TIP3   OH229125   5.758   2.484   0.256 -0.3051  0.3437 -0.0434
 2497TIP3    H129126   5.848   2.496   0.284 -0.7865  0.8072  1.4074
 2497TIP3    H229127   5.705   2.512   0.331 -1.6468 -0.6762 -0.5564
 2498TIP3   OH229128   1.023   5.368   7.972 -0.7938 -0.1893 -0.0729
 2498TIP3    H129129   1.024   5.455   8.013 -1.2733  0.3064 -1.0910
 2498TIP3    H229130   1.111   5.333   7.990 -0.0300  1.1586 -0.9952
 2499TIP3   OH229131   4.448   3.511   2.376  0.3005 -0.2493 -0.5560
 2499TIP3    H129132   4.543   3.519   2.379  0.1990  0.9731 -0.0731
 2499TIP3    H229133   4.416   3.584   2.428 -0.9703  1.0682 -3.0212
 2500TIP3   OH229134   0.198   3.924   0.146 -0.1373 -0.5079  0.3768
 2500TIP3    H129135   0.122   3.903   0.091  1.0103 -0.2914 -1.3427
 2500TIP3    H229136   0.274   3.908   0.090  1.0124  2.6204  0.8756
 2501TIP3   OH229137   5.390   5.419   1.921 -0.2243 -0.0129 -0.0866
 2501TIP3    H129138   5.456   5.349   1.928  0.0477 -0.0198 -2.0575
 2501TIP3    H229139   5.436   5.498   1.949  0.7459  0.0108 -1.6028
 2502TIP3   OH229140   3.930   6.217   2.871 -0.3665 -0.7115 -0.2718
 2502TIP3    H129141   3.908   6.192   2.961  0.0347 -0.3016 -0.0554
 2502TIP3    H229142   3.888   6.302   2.859 -0.2725 -0.6859 -0.4128
 2503TIP3   OH229143   5.450   2.240   2.601 -0.5610  0.5157  0.2786
 2503TIP3    H129144   5.398   2.300   2.654  1.4961 -0.3187  3.5881
 2503TIP3    H229145   5.438   2.155   2.644  1.0638 -0.2829 -0.7608
 2504TIP3   OH229146   5.453   3.900   0.743 -0.0566 -0.3137  0.5500
 2504TIP3    H129147   5.418   3.839   0.809  0.2477 -0.0143  0.9976
 2504TIP3    H229148   5.405   3.879   0.663 -1.8623  0.6237  1.3166
 2505TIP3   OH229149   2.858   5.425   1.974 -0.3457  0.3560 -0.0689
 2505TIP3    H129150   2.840   5.510   1.934 -0.2952  0.3483 -0.1090
 2505TIP3    H229151   2.951   5.430   1.998 -0.7263  0.9099  1.3856
 2506TIP3   OH229152   0.231   4.014   2.625 -0.0801 -0.1205 -0.1483
 2506TIP3    H129153   0.205   3.924   2.646 -0.0410 -0.1024 -0.0231
 2506TIP3    H229154   0.197   4.028   2.537 -0.1216 -0.2447 -0.1529
 2507TIP3   OH229155   0.203   4.393   6.843 -0.0781  0.3706  0.0872
 2507TIP3    H129156   0.237   4.478   6.870  0.4698  0.1381  0.1338
 2507TIP3    H229157   0.110   4.397   6.865  0.2528  0.3501  1.6311
 2508TIP3   OH229158   5.676   2.965   2.010  0.0481  0.3396  0.5676
 2508TIP3    H129159   5.755   2.912   2.020  1.0278  2.0012  2.2115
 2508TIP3    H229160   5.610   2.918   2.062  0.5595  0.0573  0.9798
 2509TIP3   OH229161   6.575   2.240   0.122  0.1359  0.2358 -0.0536
 2509TIP3    H129162   6.496   2.285   0.093 -0.3170 -0.4805  0.0700
 2509TIP3    H229163   6.646   2.282   0.072 -0.4293  0.2025 -0.9034
 2510TIP3   OH229164   6.386   2.103   7.870 -0.1845  0.0631  0.5281
 2510TIP3    H129165   6.475   2.109   7.837  0.0052 -1.8302  0.6272
 2510TIP3    H229166   6.335   2.157   7.810  1.2775  3.0315  1.7289
 2511TIP3   OH229167   1.276   6.324   0.992  0.4976 -0.1808 -0.4621
 2511TIP3    H129168   1.237   6.387   1.052  0.4986  0.4595 -1.1115
 2511TIP3    H229169   1.305   6.251   1.047 -1.7162 -0.7527  0.0699
 2512TIP3   OH229170   2.787   4.346   3.160 -1.2951 -0.1310 -0.3603
 2512TIP3    H129171   2.776   4.418   3.222  1.1209  0.8710 -1.0061
 2512TIP3    H229172   2.787   4.387   3.074  0.8695 -0.7234 -0.7138
 2513TIP3   OH229173   2.409   2.480   3.165  0.1421 -0.3139  0.0943
 2513TIP3    H129174   2.429   2.388   3.149 -1.1084 -0.6045  0.1057
 2513TIP3    H229175   2.465   2.504   3.239  0.9178 -0.8869 -0.2910
 2514TIP3   OH229176   4.712   5.559   3.169  0.1627  0.0774  0.6042
 2514TIP3    H129177   4.727   5.595   3.082 -0.4537  2.2485  1.3240
 2514TIP3    H229178   4.773   5.485   3.175  1.9164  1.3033 -0.8254
 2515TIP3   OH229179   0.875   5.195   0.012  0.0712  0.1335 -0.3591
 2515TIP3    H129180   0.935   5.143  -0.041  0.6063 -0.1199  0.4753
 2515TIP3    H229181   0.848   5.267  -0.045 -0.0788 -0.6278 -1.2711
 2516TIP3   OH229182   0.777   4.567   7.701  0.5233 -0.2807  0.9328
 2516TIP3    H129183   0.830   4.501   7.656  0.0720 -0.0422  0.0179
 2516TIP3    H229184   0.813   4.570   7.789  3.5147  1.3659 -0.1669
 2517TIP3   OH229185   2.606   3.154   7.878  0.3421  0.0244  0.2334
 2517TIP3    H129186   2.537   3.179   7.939 -1.9332 -3.0932 -0.7800
 2517TIP3    H229187   2.596   3.214   7.804 -0.5521  0.3290  0.5956
 2518TIP3   OH229188   2.657   6.637   2.352  0.3711  0.0012 -0.0038
 2518TIP3    H129189   2.585   6.677   2.400 -0.0223 -0.8664  0.1497
 2518TIP3    H229190   2.615   6.589   2.281  0.6949 -1.4094  0.7212
 2519TIP3   OH229191   3.440   5.232   7.822  0.1691 -0.1435  0.1659
 2519TIP3    H129192   3.385   5.197   7.752  0.4733  1.9985 -1.2064
 2519TIP3    H229193   3.398   5.202   7.903 -1.3967 -0.8963 -0.8878
 2520TIP3   OH229194   4.371   2.296   7.296 -0.4219  0.4417  0.1874
 2520TIP3    H129195   4.366   2.209   7.336  1.6138  0.8966  1.5960
 2520TIP3    H229196   4.464   2.312   7.284 -0.8599  1.1987 -3.0372
 2521TIP3   OH229197   5.596   5.650   0.709  0.3863  0.0315 -0.0117
 2521TIP3    H129198   5.522   5.607   0.666  0.8020 -2.5376  1.5842
 2521TIP3    H229199   5.559   5.681   0.792  0.9426 -0.7923  0.5570
 2522TIP3   OH229200   6.275   0.972   0.606  0.3161  0.5993  0.1854
 2522TIP3    H129201   6.256   1.021   0.686 -0.1497 -0.0516  0.4807
 2522TIP3    H229202   6.214   1.007   0.541 -0.0080  0.4164  0.3920
 2523TIP3   OH229203   3.053   3.417   0.203  0.0317  0.3097  0.5230
 2523TIP3    H129204   2.980   3.478   0.211 -1.9118 -1.6903 -0.9258
 2523TIP3    H229205   3.098   3.443   0.123  0.2154  0.7977  0.7767
 2524TIP3   OH229206   3.306   1.003   2.987 -0.1935  0.1327 -0.3351
 2524TIP3    H129207   3.232   0.963   2.943 -1.5173  1.6779  0.3909
 2524TIP3    H229208   3.267   1.056   3.057  1.5864  1.0116  0.0551
 2525TIP3   OH229209   4.087   2.595   7.572 -0.0874  0.7269 -0.0747
 2525TIP3    H129210   4.124   2.627   7.490 -0.9567  0.0285 -0.7667
 2525TIP3    H229211   4.162   2.566   7.623  0.3777 -0.6326 -1.4378
 2526TIP3   OH229212   0.564   5.423   2.874 -0.2173  0.3586 -0.7486
 2526TIP3    H129213   0.607   5.337   2.876 -0.2491  0.3441 -0.6911
 2526TIP3    H229214   0.632   5.484   2.905 -0.3349  0.2944 -0.3575
 2527TIP3   OH229215   0.867   5.814   0.228 -0.0735  0.0098  0.0428
 2527TIP3    H129216   0.789   5.847   0.184  0.4866 -0.2065 -1.1301
 2527TIP3    H229217   0.847   5.722   0.246  0.0356 -0.1257 -0.5326
 2528TIP3   OH229218   2.617   3.848   7.667 -0.5313 -1.1037 -0.1903
 2528TIP3    H129219   2.660   3.821   7.748 -1.1188 -0.7826  0.2351
 2528TIP3    H229220   2.637   3.778   7.605  2.0830 -0.1261 -0.5444
 2529TIP3   OH229221   5.395   3.997   1.948  0.1968 -0.2056  0.6320
 2529TIP3    H129222   5.340   3.989   1.870 -0.4343  1.1665  0.9046
 2529TIP3    H229223   5.476   3.952   1.925  0.2175  0.6152 -1.0209
 2530TIP3   OH229224   1.298   1.597   1.998  0.4769 -0.0004  0.6182
 2530TIP3    H129225   1.343   1.655   2.059  1.3269  1.5741 -1.4146
 2530TIP3    H229226   1.232   1.652   1.957  0.5833 -0.7516 -0.6056
 2531TIP3   OH229227   4.603   3.972   3.124  0.6779 -0.3125  0.3692
 2531TIP3    H129228   4.680   3.980   3.180  0.5370 -0.8814  0.6482
 2531TIP3    H229229   4.593   4.058   3.084  0.6927  0.1436  1.3364
 2532TIP3   OH229230   1.262   6.826   7.717  0.0141 -0.4433  1.1472
 2532TIP3    H129231   1.316   6.831   7.638 -0.9311 -2.0336  0.3411
 2532TIP3    H229232   1.172   6.837   7.685 -0.3417 -0.5507  2.0826
 2533TIP3   OH229233   2.525   1.408   1.322  0.4191  0.1548  0.0023
 2533TIP3    H129234   2.596   1.345   1.337  2.2511  1.9617 -0.5036
 2533TIP3    H229235   2.455   1.381   1.382  1.1701 -2.2238 -0.1020
 2534TIP3   OH229236   5.910   3.018   7.188 -0.1314  0.7157 -0.9212
 2534TIP3    H129237   5.955   2.948   7.140  0.5831  0.5491 -0.0358
 2534TIP3    H229238   5.937   3.006   7.279 -0.4069  1.8309 -0.6751
 2535TIP3   OH229239   1.125   6.859   8.376  0.0371  0.1127  0.4986
 2535TIP3    H129240   1.076   6.858   8.458 -0.2980  2.3277  0.3788
 2535TIP3    H229241   1.217   6.855   8.403 -0.0721  0.8469  0.9886
 2536TIP3   OH229242   0.144   6.585   1.436  0.5972 -0.4313 -0.7658
 2536TIP3    H129243   0.133   6.679   1.427  0.5622 -0.5061 -1.5232
 2536TIP3    H229244   0.194   6.558   1.359 -1.0895 -1.3166 -1.6015
 2537TIP3   OH229245   6.113   3.264   1.795 -0.2495 -0.1239  0.1622
 2537TIP3    H129246   6.166   3.285   1.871  0.5879 -0.3198 -0.3546
 2537TIP3    H229247   6.086   3.349   1.760  0.0787 -0.0063  0.1880
 2538TIP3   OH229248   3.726   2.270   7.751  0.0285  0.7133 -0.2343
 2538TIP3    H129249   3.662   2.323   7.702 -1.5792  0.6684  1.6990
 2538TIP3    H229250   3.757   2.328   7.820 -1.3633 -0.6234  1.5955
 2539TIP3   OH229251   1.310   3.531   1.738 -0.1040  0.4588  0.2688
 2539TIP3    H129252   1.285   3.531   1.646  0.7655  1.6097  0.0106
 2539TIP3    H229253   1.251   3.468   1.779 -1.1597  0.6569 -0.8985
 2540TIP3   OH229254   1.395   5.823   7.995 -0.2030 -0.0125 -0.2665
 2540TIP3    H129255   1.313   5.786   7.963  0.6288 -1.2688 -1.0683
 2540TIP3    H229256   1.369   5.889   8.058 -1.8727  0.7025 -1.6267
 2541TIP3   OH229257   0.779   3.118   2.352  0.4455 -0.2366 -0.6041
 2541TIP3    H129258   0.791   3.136   2.445 -0.2033 -4.0522  0.3791
 2541TIP3    H229259   0.857   3.155   2.310  0.8988  1.2979  1.4483
 2542TIP3   OH229260   6.639   4.771   7.788 -0.4486 -0.4292 -0.2380
 2542TIP3    H129261   6.560   4.825   7.793 -0.0796  0.0927  0.1266
 2542TIP3    H229262   6.663   4.757   7.879 -0.0893 -0.5377 -0.3501
 2543TIP3   OH229263   4.588   4.093   8.264 -0.6854 -0.4232  0.2958
 2543TIP3    H129264   4.665   4.070   8.316 -1.9012  1.2074  3.0915
 2543TIP3    H229265   4.530   4.017   8.271 -0.8089 -0.2509  1.3779
 2544TIP3   OH229266   2.692   3.981   7.376 -0.1413 -0.2548 -0.4975
 2544TIP3    H129267   2.766   4.032   7.410 -1.6582  0.6828  1.5527
 2544TIP3    H229268   2.731   3.898   7.349  1.7682  0.4623 -0.1024
 2545TIP3   OH229269   2.513   4.670   2.847 -0.2771  0.2740 -0.3466
 2545TIP3    H129270   2.460   4.709   2.777  0.0053  0.4323 -0.4707
 2545TIP3    H229271   2.466   4.590   2.870 -0.8843  0.7087 -0.0581
 2546TIP3   OH229272   0.277   1.810   1.110 -0.1048 -0.8106  0.0223
 2546TIP3    H129273   0.224   1.855   1.045 -0.3355 -0.2754  0.5756
 2546TIP3    H229274   0.353   1.866   1.123 -0.5508 -0.4139  0.9500
 2547TIP3   OH229275   2.738   6.630   8.418 -0.1337 -0.7571  0.4117
 2547TIP3    H129276   2.686   6.680   8.356 -0.1595 -0.9242  0.2980
 2547TIP3    H229277   2.771   6.695   8.480  0.2095 -0.5357 -0.0007
 2548TIP3   OH229278   4.223   6.613   2.567  0.4987 -0.0187 -0.1172
 2548TIP3    H129279   4.291   6.646   2.625 -0.3936 -0.1601  1.0570
 2548TIP3    H229280   4.147   6.600   2.625 -0.2442 -0.7076 -1.2143
 2549TIP3   OH229281   0.927   1.781   1.701  0.0551 -0.1740  0.1758
 2549TIP3    H129282   0.925   1.846   1.631  1.1837  0.1529  0.4230
 2549TIP3    H229283   0.845   1.793   1.747 -0.9149 -0.6867 -1.3365
 2550TIP3   OH229284   6.688   3.514   8.313  0.3552  0.4309 -0.0038
 2550TIP3    H129285   6.693   3.434   8.366  0.4937 -0.9442 -1.9990
 2550TIP3    H229286   6.737   3.493   8.234 -0.9368  1.9398 -1.2662
 2551TIP3   OH229287   5.329   4.735   8.494  0.0505  0.2107  0.1799
 2551TIP3    H129288   5.332   4.733   8.589 -0.0364 -2.1026  0.1938
 2551TIP3    H229289   5.406   4.686   8.466 -0.0707  0.6284 -0.9293
 2552TIP3   OH229290   4.461   0.013   1.607 -0.3621 -0.3664 -0.1155
 2552TIP3    H129291   4.490   0.104   1.610  0.6431 -0.6879  0.5040
 2552TIP3    H229292   4.528  -0.035   1.655  0.0450 -1.6909 -1.9126
 2553TIP3   OH229293   0.238   4.463   8.387 -0.6683  0.0868 -0.2917
 2553TIP3    H129294   0.245   4.415   8.304 -0.7679 -0.0893 -0.1968
 2553TIP3    H229295   0.317   4.440   8.435 -1.2608 -0.8827  0.2363
 2554TIP3   OH229296   3.044   6.884   2.473  0.0172  0.0143 -0.0180
 2554TIP3    H129297   3.003   6.965   2.444  1.4941  0.1493 -1.9254
 2554TIP3    H229298   2.972   6.831   2.507 -1.3265  1.2194 -0.8862
 2555TIP3   OH229299   6.076   6.480   0.744 -0.3089  0.4660 -0.5767
 2555TIP3    H129300   6.060   6.550   0.681  0.6674 -0.9709 -2.5375
 2555TIP3    H229301   5.997   6.425   0.740  0.1459 -0.1564 -1.3276
 2556TIP3   OH229302   3.849   2.374   7.962  0.2916 -0.0740  0.0493
 2556TIP3    H129303   3.796   2.340   8.033  0.0055 -1.1108 -0.6400
 2556TIP3    H229304   3.934   2.331   7.972  0.5311  0.4380  0.2633
 2557TIP3   OH229305   2.087   1.015   2.521  0.2972  0.1907 -0.2849
 2557TIP3    H129306   2.004   1.056   2.546  0.0115 -0.2732 -0.4578
 2557TIP3    H229307   2.139   1.087   2.485 -0.4205  0.3094 -1.1376
 2558TIP3   OH229308   6.333   2.667   1.629 -0.3438 -0.0584  0.1320
 2558TIP3    H129309   6.252   2.618   1.639  0.6458 -1.8263 -0.0320
 2558TIP3    H229310   6.329   2.734   1.697 -1.3665 -0.9493  0.9989
 2559TIP3   OH229311   5.357   5.320   7.943 -0.1767  0.3414  0.1617
 2559TIP3    H129312   5.279   5.348   7.895  0.1692  0.8366 -0.1230
 2559TIP3    H229313   5.417   5.291   7.874 -0.2268 -0.3573  0.3999
 2560TIP3   OH229314   0.290   4.165   6.974 -0.2216  0.7401 -0.3183
 2560TIP3    H129315   0.242   4.229   6.921 -0.4215  0.6148 -0.2905
 2560TIP3    H229316   0.330   4.218   7.043 -0.6705  0.7965 -0.0928
 2561TIP3   OH229317   0.443   5.851   6.599 -0.6014  0.7168 -0.4936
 2561TIP3    H129318   0.532   5.818   6.594 -1.2028 -1.2578  0.6933
 2561TIP3    H229319   0.444   5.914   6.672 -0.2071  0.5660 -0.3698
 2562TIP3   OH229320   0.917   2.826   0.452 -0.6599 -0.3086  0.4283
 2562TIP3    H129321   0.995   2.770   0.455  1.1512  2.0893  3.3761
 2562TIP3    H229322   0.913   2.857   0.362  0.7311 -1.8657 -0.2193
 2563TIP3   OH229323   1.272   5.452   0.774  0.0578 -0.3216 -0.0534
 2563TIP3    H129324   1.293   5.394   0.701  0.9905 -1.3367  0.9826
 2563TIP3    H229325   1.179   5.469   0.766  0.5063  1.4620 -2.8071
 2564TIP3   OH229326   3.804   4.704   2.299  0.2640 -0.4612  0.1749
 2564TIP3    H129327   3.836   4.766   2.232  0.0584  0.5358  0.9670
 2564TIP3    H229328   3.710   4.723   2.305  0.6359  1.1960  2.4077
 2565TIP3   OH229329   4.215   1.257   7.371 -0.5206 -0.3116 -0.3104
 2565TIP3    H129330   4.185   1.171   7.341 -1.0446 -0.5447  0.8273
 2565TIP3    H229331   4.238   1.303   7.290 -0.2478 -1.5029 -0.9411
 2566TIP3   OH229332   1.750   6.052   1.405 -0.1720 -0.2259  0.1904
 2566TIP3    H129333   1.714   5.982   1.351 -0.7212  0.1121  0.1095
 2566TIP3    H229334   1.845   6.044   1.395 -0.2112 -1.1427  0.4192
 2567TIP3   OH229335   6.843   3.977   1.814  0.8376 -0.1276 -0.0187
 2567TIP3    H129336   6.763   4.028   1.808  1.4411  0.8212 -0.1306
 2567TIP3    H229337   6.818   3.899   1.863  0.1082  0.7130  0.9941
 2568TIP3   OH229338   3.152   3.074   7.862 -0.2221  0.6360 -0.4168
 2568TIP3    H129339   3.221   3.012   7.841 -1.6032 -1.3848  0.6724
 2568TIP3    H229340   3.116   3.099   7.777  0.9181  0.6513 -0.9144
 2569TIP3   OH229341   2.613   4.867   0.549 -0.1639 -0.0443  0.3939
 2569TIP3    H129342   2.610   4.961   0.569 -0.2389 -0.0485  0.4052
 2569TIP3    H229343   2.523   4.846   0.523  0.0183  0.0404 -0.3068
 2570TIP3   OH229344   1.614   1.982   0.230 -0.0849  0.0348  0.6572
 2570TIP3    H129345   1.602   2.075   0.251  1.4684  0.8245 -1.5599
 2570TIP3    H229346   1.526   1.945   0.235 -0.6902  1.5042  1.9503
 2571TIP3   OH229347   2.301   6.866   8.348  0.4255 -0.1599  0.4735
 2571TIP3    H129348   2.244   6.832   8.418  0.2184 -0.2671  0.2560
 2571TIP3    H229349   2.258   6.946   8.319 -0.4720 -1.0277 -0.7437
 2572TIP3   OH229350   3.859   6.913   1.111  0.3190  0.2608  0.4789
 2572TIP3    H129351   3.885   6.876   1.195  2.1179  0.7513  0.1905
 2572TIP3    H229352   3.812   6.993   1.133  0.1753  0.0257  1.0273
 2573TIP3   OH229353   0.854   4.907   1.270  0.6053 -0.0500 -0.5319
 2573TIP3    H129354   0.914   4.898   1.196  1.8509 -2.0008  0.6305
 2573TIP3    H229355   0.864   4.825   1.319 -0.5064  0.9958  1.5577
 2574TIP3   OH229356   2.828   1.502   7.446  0.0519 -0.2915 -0.3299
 2574TIP3    H129357   2.754   1.443   7.462  0.1787 -0.1569  0.8389
 2574TIP3    H229358   2.871   1.467   7.368 -0.4938 -1.1223 -0.2658
 2575TIP3   OH229359   4.383   5.611   1.360 -0.5854 -0.2571 -0.0681
 2575TIP3    H129360   4.439   5.533   1.355  0.5937  0.4481  1.5297
 2575TIP3    H229361   4.296   5.578   1.338  0.0162 -1.8801 -0.1808
 2576TIP3   OH229362   1.748   6.086   1.094  0.1063  0.1705 -0.2666
 2576TIP3    H129363   1.672   6.106   1.149  0.6555 -1.2630  1.0755
 2576TIP3    H229364   1.808   6.158   1.109  1.5515 -1.5875  3.5379
 2577TIP3   OH229365   5.909   6.452   1.946  0.0744 -0.1762 -0.2959
 2577TIP3    H129366   5.818   6.477   1.960 -0.4523 -2.5399  1.0534
 2577TIP3    H229367   5.906   6.384   1.879  1.0840  0.9296 -1.5228
 2578TIP3   OH229368   0.174   6.288   0.099 -1.0327  0.3499  0.4375
 2578TIP3    H129369   0.232   6.362   0.077 -0.5162  0.6762  2.6515
 2578TIP3    H229370   0.096   6.302   0.045 -0.4198  1.7999 -0.1294
 2579TIP3   OH229371   0.311   4.821   0.410  0.3476  0.3904 -0.0531
 2579TIP3    H129372   0.261   4.874   0.348 -4.0692  2.6350  4.6412
 2579TIP3    H229373   0.382   4.877   0.439 -0.7093  1.4553  0.5499
 2580TIP3   OH229374   2.497   5.683   1.273  0.1985 -0.1434  0.1531
 2580TIP3    H129375   2.546   5.686   1.356  1.1919 -0.2652 -0.4157
 2580TIP3    H229376   2.405   5.685   1.300  0.5075  0.2391  1.2446
 2581TIP3   OH229377   1.169   1.338   1.385 -0.3590  0.4515 -0.0501
 2581TIP3    H129378   1.152   1.259   1.436  2.2488 -0.8205 -0.9554
 2581TIP3    H229379   1.187   1.306   1.296  2.4103  1.8199 -0.0929
 2582TIP3   OH229380   4.738   2.416   6.726 -0.0655 -0.3772 -0.2884
 2582TIP3    H129381   4.785   2.465   6.659  0.6395 -0.5353  0.0841
 2582TIP3    H229382   4.747   2.325   6.701  0.6634 -0.4782  0.3001
 2583TIP3   OH229383   1.867   5.484   7.349 -0.2582  0.2082  0.2510
 2583TIP3    H129384   1.835   5.472   7.439  0.4536 -2.4252  0.2201
 2583TIP3    H229385   1.911   5.569   7.351 -1.1345  0.6735  2.1169
 2584TIP3   OH229386   2.514   5.477   2.120  0.1918 -0.2301 -0.0824
 2584TIP3    H129387   2.511   5.497   2.214 -2.1067 -1.7166  0.2207
 2584TIP3    H229388   2.598   5.431   2.109  0.9018  0.7167  1.0283
 2585TIP3   OH229389   3.421   0.985   3.485 -0.4962 -0.2730 -0.6088
 2585TIP3    H129390   3.490   1.013   3.545 -0.2696  1.2577 -1.5376
 2585TIP3    H229391   3.447   0.897   3.458  0.7105 -0.0002 -0.3919
 2586TIP3   OH229392   1.515   4.638   1.967 -0.5524  0.2547 -0.2673
 2586TIP3    H129393   1.583   4.699   1.996  0.8022 -0.0700 -2.4976
 2586TIP3    H229394   1.532   4.559   2.018  1.2207 -0.0319 -1.2118
 2587TIP3   OH229395   0.920   0.274   7.178 -0.0845  0.5894 -0.1993
 2587TIP3    H129396   0.974   0.301   7.103  0.8936 -0.7951 -0.0502
 2587TIP3    H229397   0.830   0.292   7.151  0.3852  2.1019 -0.8318
 2588TIP3   OH229398   1.412   2.279   2.616  0.6239 -0.0460  0.6867
 2588TIP3    H129399   1.347   2.339   2.654 -0.6491 -0.2907 -1.0115
 2588TIP3    H229400   1.379   2.192   2.638 -1.4011 -0.2969 -2.6970
 2589TIP3   OH229401   3.769   4.196   0.808  0.4232  0.4996  0.1734
 2589TIP3    H129402   3.758   4.237   0.893  2.0845 -0.5895  0.9610
 2589TIP3    H229403   3.855   4.155   0.812 -0.4179 -1.5816 -1.1700
 2590TIP3   OH229404   3.273   6.305   7.448 -0.0315 -0.2245 -0.1964
 2590TIP3    H129405   3.291   6.317   7.355  0.6081  0.1693 -0.0362
 2590TIP3    H229406   3.319   6.378   7.490  0.5170 -0.9513  0.5065
 2591TIP3   OH229407   0.688   5.827   1.427  0.4279 -0.0922  0.4119
 2591TIP3    H129408   0.693   5.736   1.455 -0.4336 -0.3483 -0.2258
 2591TIP3    H229409   0.662   5.875   1.506  0.3253 -0.4774  0.6145
 2592TIP3   OH229410   6.279   6.846   7.098  0.2506 -0.3617  0.2868
 2592TIP3    H129411   6.345   6.916   7.101 -0.2257  0.0767  0.8350
 2592TIP3    H229412   6.230   6.863   7.018 -1.1162  1.1341  1.3681
 2593TIP3   OH229413   2.224   1.785   1.080 -0.2076 -0.0630 -0.2411
 2593TIP3    H129414   2.304   1.750   1.041  0.6721  0.1268  1.3122
 2593TIP3    H229415   2.157   1.719   1.060  0.6351 -0.8822 -0.4299
 2594TIP3   OH229416   3.721   6.438   1.021  0.0490 -0.4394  0.7428
 2594TIP3    H129417   3.779   6.403   1.089  0.3452 -1.2624  0.0777
 2594TIP3    H229418   3.690   6.361   0.974  0.9477  0.1739 -0.9489
 2595TIP3   OH229419   5.398   1.537   7.432 -0.4471  0.7736  0.5056
 2595TIP3    H129420   5.415   1.627   7.406 -0.1169  0.6096  0.1500
 2595TIP3    H229421   5.303   1.532   7.442 -0.4998  1.0505  0.1255
 2596TIP3   OH229422   1.627   3.475   1.827 -0.1400  0.1833  0.0192
 2596TIP3    H129423   1.575   3.555   1.832 -2.1477 -1.0973  1.3222
 2596TIP3    H229424   1.715   3.501   1.855 -0.5314  2.0505 -0.3637
 2597TIP3   OH229425   6.635   5.467   0.310 -0.3842 -0.0908 -0.4914
 2597TIP3    H129426   6.595   5.479   0.224  0.3040  0.1161 -0.7843
 2597TIP3    H229427   6.688   5.388   0.302 -3.1441 -2.2937  0.7993
 2598TIP3   OH229428   3.763   0.699   0.165  0.2394  0.9007  0.1500
 2598TIP3    H129429   3.752   0.703   0.070  0.9367  1.6160  0.0858
 2598TIP3    H229430   3.677   0.722   0.201 -0.4364 -0.8210 -0.2910
 2599TIP3   OH229431   5.250   2.050   0.142 -0.1228 -0.3325  0.1522
 2599TIP3    H129432   5.296   2.110   0.201 -1.4080  0.6923  0.1467
 2599TIP3    H229433   5.162   2.042   0.179 -0.4889 -0.8692 -0.8037
 2600TIP3   OH229434   6.726   6.522   0.214  0.5035  0.0055 -0.1185
 2600TIP3    H129435   6.651   6.520   0.274 -0.2218  0.5615 -0.9868
 2600TIP3    H229436   6.802   6.532   0.272 -0.0490 -0.8620  0.7933
 2601TIP3   OH229437   1.947   0.761   2.321 -0.3045  0.1665  0.0068
 2601TIP3    H129438   1.924   0.683   2.272  0.1394  0.9344 -1.4773
 2601TIP3    H229439   2.034   0.742   2.357 -0.1375  0.0151 -0.4676
 2602TIP3   OH229440   5.818   6.011   1.908 -0.2140 -0.2598  0.1319
 2602TIP3    H129441   5.830   5.917   1.895 -0.3978 -0.6240  2.1586
 2602TIP3    H229442   5.879   6.032   1.979 -0.6721  1.0034  0.1700
 2603TIP3   OH229443   3.190   1.143   3.543 -0.1698  0.8530  0.4975
 2603TIP3    H129444   3.105   1.100   3.539 -1.0810  2.6752 -1.4322
 2603TIP3    H229445   3.253   1.074   3.519 -1.0757 -0.4257  1.6233
 2604TIP3   OH229446   3.059   0.126   1.196 -0.0882 -0.7458 -0.3646
 2604TIP3    H129447   2.986   0.153   1.140 -0.1100  0.5682  0.2645
 2604TIP3    H229448   3.132   0.182   1.170 -0.1107 -0.0697  0.9249
 2605TIP3   OH229449   5.368   4.478   8.131  0.6611 -0.4094  0.4062
 2605TIP3    H129450   5.372   4.488   8.036  0.0785 -0.7112  0.3428
 2605TIP3    H229451   5.375   4.383   8.145  0.5007 -0.3857  0.6490
 2606TIP3   OH229452   3.838   2.069   1.057 -0.2927  0.0521 -0.4274
 2606TIP3    H129453   3.774   2.051   0.988 -1.7010 -0.7021  1.0148
 2606TIP3    H229454   3.799   2.032   1.136  2.2472 -1.0551  0.4133
 2607TIP3   OH229455   1.150   6.514   0.435  0.2695 -0.6151  0.3300
 2607TIP3    H129456   1.128   6.432   0.479  0.9230 -0.0531  1.7543
 2607TIP3    H229457   1.121   6.583   0.494  2.8828  0.1541  0.8512
 2608TIP3   OH229458   0.308   1.487   0.629 -0.1167  0.2393  0.0279
 2608TIP3    H129459   0.349   1.560   0.676 -0.7272  1.2009 -0.8905
 2608TIP3    H229460   0.214   1.501   0.641 -0.4512  2.0075 -3.5235
 2609TIP3   OH229461   1.972   1.859   8.490 -0.6395 -0.2379  0.4022
 2609TIP3    H129462   2.044   1.911   8.455  0.1440 -0.9557  0.9067
 2609TIP3    H229463   1.942   1.806   8.416 -1.9713  1.4478 -0.3345
 2610TIP3   OH229464   0.039   4.091   8.290  0.3865  0.0288 -0.1482
 2610TIP3    H129465  -0.029   4.118   8.351  0.2085  1.1446 -0.8047
 2610TIP3    H229466  -0.008   4.046   8.220  0.2542  1.0588 -0.7499
 2611TIP3   OH229467   0.840   2.503   8.326  0.3695  0.1052 -0.0829
 2611TIP3    H129468   0.789   2.526   8.248 -1.3739 -2.9002 -0.0215
 2611TIP3    H229469   0.931   2.506   8.297 -0.1329  0.8426 -1.6939
 2612TIP3   OH229470   3.720   4.723   0.617 -0.4771 -0.1433  0.0737
 2612TIP3    H129471   3.800   4.677   0.641 -1.4570 -1.9644 -0.0024
 2612TIP3    H229472   3.679   4.747   0.700  0.5581  1.6608  0.1260
 2613TIP3   OH229473   6.873   3.835   0.009 -0.1411 -0.3210 -0.0951
 2613TIP3    H129474   6.814   3.836   0.085 -1.0360  0.5913 -0.7679
 2613TIP3    H229475   6.866   3.924  -0.027 -0.4535 -0.9990 -1.7766
 2614TIP3   OH229476   3.962   0.113   2.151 -0.6156 -0.0050 -0.5295
 2614TIP3    H129477   4.044   0.149   2.187 -0.7374  1.4649 -1.6099
 2614TIP3    H229478   3.986   0.027   2.118 -0.0854 -0.6193  1.3402
 2615TIP3   OH229479   5.790   3.908   0.161 -0.4421  0.6854  0.5501
 2615TIP3    H129480   5.864   3.903   0.101 -0.8431 -0.4841  0.1366
 2615TIP3    H229481   5.732   3.973   0.121 -0.9687 -0.4779 -0.6561
 2616TIP3   OH229482   5.818   0.567   7.855  0.1996  0.1052 -0.1605
 2616TIP3    H129483   5.781   0.548   7.941  0.5239 -0.9023 -0.2193
 2616TIP3    H229484   5.772   0.506   7.796  2.2569 -1.5776 -0.1495
 2617TIP3   OH229485   2.754   3.015   0.958 -0.1223 -0.2951  0.3055
 2617TIP3    H129486   2.707   3.040   1.038 -0.2652 -0.2547  0.2081
 2617TIP3    H229487   2.693   2.959   0.910  0.7469 -2.1726  1.2688
 2618TIP3   OH229488   2.150   2.159   2.683  0.3334  0.7039  0.0531
 2618TIP3    H129489   2.075   2.177   2.627 -0.2213 -1.1295  0.1549
 2618TIP3    H229490   2.120   2.179   2.772  1.3555  4.0588 -0.2180
 2619TIP3   OH229491   3.643   1.684   2.079  0.2015  0.5873 -0.1094
 2619TIP3    H129492   3.734   1.712   2.063  0.3300  0.3443  0.1969
 2619TIP3    H229493   3.638   1.597   2.040  0.7118 -0.3143  1.7059
 2620TIP3   OH229494   1.035   0.995   7.774  0.3345 -0.6004 -0.5561
 2620TIP3    H129495   1.066   1.058   7.709  0.8249 -0.0682  0.1653
 2620TIP3    H229496   0.989   1.049   7.839  2.9280 -0.5584  1.4053
 2621TIP3   OH229497   1.110   3.847   2.170  0.7686  0.2513 -0.3170
 2621TIP3    H129498   1.139   3.848   2.261  1.5661  1.0809 -0.5675
 2621TIP3    H229499   1.190   3.861   2.119  0.5192 -1.3019 -1.2122
 2622TIP3   OH229500   0.974   0.206   2.384  0.4106  0.0206  0.2833
 2622TIP3    H129501   1.029   0.218   2.461 -0.8864 -0.4233  1.3156
 2622TIP3    H229502   1.009   0.267   2.319  1.4973  0.4347  1.2361
 2623TIP3   OH229503   6.938   1.654   0.865 -0.3275 -0.5214  0.8872
 2623TIP3    H129504   7.007   1.687   0.807  0.1931 -0.0044  1.7658
 2623TIP3    H229505   6.931   1.561   0.845 -0.9249 -0.1447 -0.7532
 2624TIP3   OH229506   0.165   3.162   0.969 -0.2059  0.0584  0.3518
 2624TIP3    H129507   0.198   3.215   0.896 -0.1520  1.9749  1.6965
 2624TIP3    H229508   0.188   3.072   0.945 -2.0138  0.3066 -2.9661
 2625TIP3   OH229509   0.436   3.915   7.144 -0.4454  0.3658  0.4884
 2625TIP3    H129510   0.346   3.945   7.159 -0.5356  1.5604 -1.9624
 2625TIP3    H229511   0.490   3.991   7.166 -0.3678  1.0205 -1.7838
 2626TIP3   OH229512   6.335   6.688   7.606  0.0226 -0.7350  0.1400
 2626TIP3    H129513   6.316   6.682   7.513 -0.1818  2.9985 -0.1955
 2626TIP3    H229514   6.286   6.765   7.636  0.2988 -1.6521  3.2866
 2627TIP3   OH229515   5.831   3.221   8.479 -0.3614  0.6692 -0.0624
 2627TIP3    H129516   5.775   3.279   8.428 -0.4988  0.6366  0.0508
 2627TIP3    H229517   5.771   3.171   8.533 -0.2184  0.6655  0.0941
 2628TIP3   OH229518   6.131   0.966   6.960 -0.2381  0.3197 -0.2924
 2628TIP3    H129519   6.079   1.046   6.965 -1.0560 -0.2801  3.0887
 2628TIP3    H229520   6.079   0.908   6.904 -1.4435  0.9734  0.1123
 2629TIP3   OH229521   0.619   3.926   1.791  0.2971 -0.0989 -0.8745
 2629TIP3    H129522   0.589   3.964   1.874 -0.5859 -0.2715 -1.1009
 2629TIP3    H229523   0.538   3.907   1.744  0.7916  0.6386 -2.0669
 2630TIP3   OH229524   3.504   2.705   7.669 -0.5061 -0.2946  0.3253
 2630TIP3    H129525   3.503   2.612   7.690  1.1757 -0.7260 -1.1875
 2630TIP3    H229526   3.439   2.715   7.599  1.7328 -1.1350 -2.0561
 2631TIP3   OH229527   1.724   5.791   1.315 -0.6037 -1.1032  0.5688
 2631TIP3    H129528   1.719   5.695   1.317  2.1006 -1.3288  0.1043
 2631TIP3    H229529   1.812   5.810   1.285 -0.6779  1.5575  1.7300
 2632TIP3   OH229530   5.886   4.546   1.279 -0.2128  0.0975 -0.1537
 2632TIP3    H129531   5.853   4.633   1.302 -0.5965  0.2178 -1.0916
 2632TIP3    H229532   5.840   4.487   1.339 -0.5764  0.4614 -0.0647
 2633TIP3   OH229533   4.691   5.305   0.074  0.1915 -0.5785 -0.2557
 2633TIP3    H129534   4.631   5.232   0.092  1.4974 -1.3876  1.0979
 2633TIP3    H229535   4.729   5.326   0.160  1.2690  0.4271 -0.9467
 2634TIP3   OH229536   1.712   1.621   7.439 -0.1409  0.1394  0.2247
 2634TIP3    H129537   1.734   1.582   7.524 -0.5436  0.4208  0.4603
 2634TIP3    H229538   1.762   1.569   7.376  0.1446 -0.0881  0.6283
 2635TIP3   OH229539   5.291   2.474   0.114 -0.3468  0.0746 -0.2905
 2635TIP3    H129540   5.375   2.427   0.119 -0.9499 -1.1001 -0.7007
 2635TIP3    H229541   5.272   2.479   0.020  0.6346  2.9596 -0.4360
 2636TIP3   OH229542   5.940   2.588   2.246  0.1155  0.0778 -0.1051
 2636TIP3    H129543   5.853   2.555   2.266 -0.2587  1.9037  1.5425
 2636TIP3    H229544   5.994   2.559   2.320  0.4815  0.4886 -0.2091
 2637TIP3   OH229545   0.504   2.282   1.710  0.4255  0.2180 -0.3861
 2637TIP3    H129546   0.544   2.208   1.664 -1.8550 -0.1484 -1.9144
 2637TIP3    H229547   0.498   2.350   1.644  0.0700  0.8401  0.2822
 2638TIP3   OH229548   0.441   0.061   0.636 -0.5321  0.2949  0.4632
 2638TIP3    H129549   0.468  -0.026   0.665  1.8276  0.9556  0.4299
 2638TIP3    H229550   0.385   0.094   0.707  0.4594 -0.3492  1.5783
 2639TIP3   OH229551   0.652   4.338   1.368  0.0316 -0.0785 -0.2533
 2639TIP3    H129552   0.705   4.342   1.288 -0.1036  0.4552 -0.3180
 2639TIP3    H229553   0.711   4.366   1.438  0.5907 -1.9399  0.0753
 2640TIP3   OH229554   6.415   5.575   6.504 -0.0913  0.2061 -0.4542
 2640TIP3    H129555   6.476   5.501   6.507 -0.7759 -0.3793 -0.7569
 2640TIP3    H229556   6.424   5.610   6.415  2.0533  2.0793  0.3942
 2641TIP3   OH229557   5.204   3.326   0.103 -0.2873 -0.4498  0.0021
 2641TIP3    H129558   5.219   3.231   0.100 -0.4729 -0.4734 -0.1672
 2641TIP3    H229559   5.292   3.363   0.105 -0.0883 -0.5324 -2.7349
 2642TIP3   OH229560   4.017   2.942   1.211  0.5041  0.2286  0.2985
 2642TIP3    H129561   4.110   2.962   1.201  0.0211  3.0406  0.6434
 2642TIP3    H229562   3.989   2.916   1.123  1.5196 -0.3746  0.1296
 2643TIP3   OH229563   6.640   1.485   7.231 -0.1200 -0.1055  0.2674
 2643TIP3    H129564   6.714   1.438   7.269 -0.1975 -0.6160 -0.2005
 2643TIP3    H229565   6.661   1.490   7.138  0.2148  1.3984  0.4015
 2644TIP3   OH229566   6.618   6.527   7.978 -0.0094  0.2056 -0.4416
 2644TIP3    H129567   6.573   6.543   8.061  1.9543  0.7889  0.5804
 2644TIP3    H229568   6.548   6.507   7.916 -1.5280 -0.4418  1.3891
 2645TIP3   OH229569   5.121   3.903   8.389  0.0944 -0.2363 -0.1074
 2645TIP3    H129570   5.078   3.962   8.327  0.5108 -0.0456 -0.2194
 2645TIP3    H229571   5.214   3.913   8.371  0.2294 -0.0825  0.6344
 2646TIP3   OH229572   4.882   5.581   7.315 -0.2061 -0.5561  0.6924
 2646TIP3    H129573   4.869   5.624   7.230  1.8010  0.1725  0.6879
 2646TIP3    H229574   4.842   5.495   7.305  0.2222 -0.5936 -1.1132
 2647TIP3   OH229575   3.120   6.813   1.140 -0.1640 -0.2007  0.3817
 2647TIP3    H129576   3.073   6.894   1.160 -0.3908 -0.2868  0.2060
 2647TIP3    H229577   3.133   6.770   1.225 -1.6336 -0.8456  0.3090
 2648TIP3   OH229578   4.355   2.126   1.281  0.2818  0.6657  0.3529
 2648TIP3    H129579   4.303   2.128   1.361 -0.5750  0.4448 -0.1806
 2648TIP3    H229580   4.317   2.054   1.230  2.8194 -1.3030  1.0717
 2649TIP3   OH229581   3.897   3.577   7.817 -0.2233  0.4173  0.7793
 2649TIP3    H129582   3.914   3.500   7.870  1.6248 -0.5823 -1.1428
 2649TIP3    H229583   3.833   3.548   7.751  1.1686  0.1960 -0.5231
 2650TIP3   OH229584   0.078   2.274   6.831  0.3317  0.0713  0.0079
 2650TIP3    H129585   0.160   2.324   6.836  1.8646 -2.3801  1.6266
 2650TIP3    H229586   0.072   2.249   6.739  2.3592 -1.0555  0.1116
 2651TIP3   OH229587   0.677   0.715   1.946 -0.1224  0.6192  0.2402
 2651TIP3    H129588   0.642   0.775   1.880 -0.3836  1.3300  1.0048
 2651TIP3    H229589   0.626   0.733   2.025  0.4002  0.0157  0.7334
 2652TIP3   OH229590   4.003   3.446   3.210 -0.6416  0.5283  0.8508
 2652TIP3    H129591   4.084   3.405   3.241 -1.2796  0.1033  1.9725
 2652TIP3    H229592   4.032   3.532   3.178  0.9357 -1.1273 -2.7391
 2653TIP3   OH229593   0.019   0.219   0.988  0.1870  0.1918  0.2840
 2653TIP3    H129594  -0.025   0.298   1.020  1.3124  0.9530  0.0174
 2653TIP3    H229595   0.058   0.180   1.066 -1.2660 -0.7254  0.5939
 2654TIP3   OH229596   0.603   3.724   1.327 -0.5637  0.5522  0.4122
 2654TIP3    H129597   0.543   3.778   1.277  0.8142  2.0667  0.3079
 2654TIP3    H229598   0.683   3.777   1.334  0.8731 -1.4741  0.2893
 2655TIP3   OH229599   5.742   3.574   0.134 -0.1407  0.2086  0.9525
 2655TIP3    H129600   5.834   3.562   0.159  0.6714 -0.3891 -1.9428
 2655TIP3    H229601   5.738   3.663   0.099 -0.4775  0.0083  0.4660
 2656TIP3   OH229602   3.136   3.766   7.691 -0.1028  0.0907 -0.2159
 2656TIP3    H129603   3.115   3.857   7.668  1.1918  0.2534 -0.7907
 2656TIP3    H229604   3.052   3.720   7.684 -0.6207  1.0797 -0.7023
 2657TIP3   OH229605   6.341   6.544   0.749  0.0463  0.1819  0.4486
 2657TIP3    H129606   6.388   6.471   0.790 -0.7936 -0.3313  0.5305
 2657TIP3    H229607   6.248   6.520   0.757 -0.2180  1.0261  0.0286
 2658TIP3   OH229608   5.065   3.551   1.422  0.1156  0.1109 -0.7749
 2658TIP3    H129609   5.158   3.571   1.435  0.0094  0.0918  0.0707
 2658TIP3    H229610   5.064   3.461   1.392  0.4573  0.5979 -2.3468
 2659TIP3   OH229611   5.549   2.097   2.155 -0.9049 -0.7130  0.0077
 2659TIP3    H129612   5.542   2.169   2.218  0.5271 -0.2900 -0.2799
 2659TIP3    H229613   5.468   2.102   2.104 -0.8929  0.6092  0.0843
 2660TIP3   OH229614   0.730   6.259   2.724  0.2288 -0.0475  1.0818
 2660TIP3    H129615   0.808   6.203   2.722  1.8423  2.1031 -0.2800
 2660TIP3    H229616   0.747   6.326   2.658 -3.0170  0.2789  0.4008
 2661TIP3   OH229617   6.112   3.290   6.949  0.3645 -0.0767 -0.4095
 2661TIP3    H129618   6.114   3.385   6.963  1.2252 -0.2072  0.5192
 2661TIP3    H229619   6.194   3.271   6.904 -0.0850 -0.3181 -1.1464
 2662TIP3   OH229620   5.409   6.068   0.192 -0.3390  1.1103  0.6302
 2662TIP3    H129621   5.497   6.088   0.222 -0.6085  0.5782  1.8355
 2662TIP3    H229622   5.354   6.079   0.269 -1.0906 -0.1476  0.3030
 2663TIP3   OH229623   3.314   0.952   7.808 -0.1678  0.2194  0.6187
 2663TIP3    H129624   3.395   0.940   7.758 -0.5452  0.0589  0.0501
 2663TIP3    H229625   3.337   0.922   7.896  0.2979 -0.1469  0.3789
 2664TIP3   OH229626   6.303   3.481   0.015 -0.1246  0.8047 -0.3089
 2664TIP3    H129627   6.270   3.414  -0.045  1.5794 -0.2251 -0.1932
 2664TIP3    H229628   6.225   3.520   0.054 -1.1951 -0.7461 -0.8080
 2665TIP3   OH229629   2.278   4.380   1.740  0.3206  0.5632 -0.3068
 2665TIP3    H129630   2.207   4.406   1.682 -0.1056 -2.8897 -1.6050
 2665TIP3    H229631   2.358   4.400   1.692  0.1594  1.7352 -0.1172
 2666TIP3   OH229632   3.558   1.880   7.965 -0.2357  0.5406  0.1829
 2666TIP3    H129633   3.594   1.802   8.008 -1.6740  0.2433  0.9528
 2666TIP3    H229634   3.633   1.924   7.926  0.7554 -0.6563  0.6813
 2667TIP3   OH229635   0.511   3.659   0.246 -0.1682 -0.1919  0.3009
 2667TIP3    H129636   0.422   3.665   0.282 -0.8120  0.3213 -1.2460
 2667TIP3    H229637   0.540   3.751   0.240  0.4156 -0.3478  0.6589
 2668TIP3   OH229638   1.690   6.355   2.832 -0.3281 -0.0895 -0.0961
 2668TIP3    H129639   1.781   6.370   2.806 -0.5127  0.1171 -0.6453
 2668TIP3    H229640   1.677   6.411   2.909  0.5626 -1.5843  1.1808
 2669TIP3   OH229641   2.399   1.569   7.426 -0.6168  0.1298 -0.2249
 2669TIP3    H129642   2.446   1.633   7.480 -0.8645  0.9597 -0.9841
 2669TIP3    H229643   2.306   1.588   7.442 -0.6909 -0.0726 -0.4196
 2670TIP3   OH229644   5.470   1.028   7.090  0.1261 -0.4511 -0.0821
 2670TIP3    H129645   5.465   1.118   7.122  2.1186 -0.3163 -0.0251
 2670TIP3    H229646   5.396   0.983   7.132  0.3715  0.6401  1.6117
 2671TIP3   OH229647   4.525   5.065   0.079  0.5354  0.2812  0.3521
 2671TIP3    H129648   4.463   5.005   0.121  1.3936  0.1638  1.4938
 2671TIP3    H229649   4.559   5.016   0.005 -2.9777  1.4124 -2.3012
 2672TIP3   OH229650   3.887   2.711   1.975  0.4067 -0.1508 -0.6415
 2672TIP3    H129651   3.933   2.776   2.027 -2.9454  2.3005 -0.4000
 2672TIP3    H229652   3.921   2.722   1.887 -0.9432  3.0094 -0.8850
 2673TIP3   OH229653   6.072   6.221   0.149  0.2308  0.2315  0.1846
 2673TIP3    H129654   6.045   6.139   0.109  0.4645  0.0286  0.4372
 2673TIP3    H229655   5.990   6.264   0.175  0.1439 -0.7318  1.6401
 2674TIP3   OH229656   6.486   4.621   1.821  0.1030  0.7253 -0.3522
 2674TIP3    H129657   6.434   4.667   1.755 -1.8616 -0.9685 -0.0972
 2674TIP3    H229658   6.534   4.555   1.772  1.1486  1.5191 -0.4346
 2675TIP3   OH229659   1.014   0.843   0.964  0.2988 -1.3822  0.1243
 2675TIP3    H129660   0.928   0.854   0.922 -1.0154 -1.5563  2.5567
 2675TIP3    H229661   1.060   0.926   0.947 -1.6017  0.0095  1.3139
 2676TIP3   OH229662   1.249   5.887   7.641 -0.2680 -0.3125 -0.4638
 2676TIP3    H129663   1.199   5.829   7.583 -0.6265 -0.9906  0.5044
 2676TIP3    H229664   1.233   5.853   7.729  2.3086 -0.8959 -0.1278
 2677TIP3   OH229665   2.129   0.798   7.458  0.2280 -0.0563 -0.1900
 2677TIP3    H129666   2.142   0.762   7.371 -0.3442  1.1242 -0.7763
 2677TIP3    H229667   2.078   0.731   7.505  0.3758 -0.6076 -0.8073
 2678TIP3   OH229668   6.219   4.366   6.676  0.4986 -0.1819  0.6969
 2678TIP3    H129669   6.261   4.451   6.688 -1.1850  1.0053 -1.1340
 2678TIP3    H229670   6.266   4.326   6.603 -1.0765  0.9322 -1.0207
 2679TIP3   OH229671   4.118   5.398   2.091 -0.2069 -0.0522 -0.1661
 2679TIP3    H129672   4.163   5.470   2.136  1.1196 -1.5049  0.9687
 2679TIP3    H229673   4.026   5.410   2.112  0.0265  1.1539  0.2420
 2680TIP3   OH229674   4.717   6.828   1.187 -0.4210 -0.9418  0.2114
 2680TIP3    H129675   4.723   6.771   1.264  0.0318 -0.1930  0.7442
 2680TIP3    H229676   4.643   6.885   1.205 -0.6215 -1.0903 -0.1380
 2681TIP3   OH229677   5.700   1.471   7.587 -0.5808  0.2328 -0.2943
 2681TIP3    H129678   5.784   1.490   7.545 -0.9678  0.9914 -0.7251
 2681TIP3    H229679   5.685   1.544   7.647 -0.7271 -0.1310  0.1286
 2682TIP3   OH229680   5.419   0.568   0.369  0.4244 -0.3175  0.2023
 2682TIP3    H129681   5.342   0.581   0.314 -0.4783 -1.1484  1.2196
 2682TIP3    H229682   5.414   0.637   0.435  0.6089 -0.3018  0.2002
 2683TIP3   OH229683   0.308   2.644   1.817  0.2944 -0.1405 -0.3492
 2683TIP3    H129684   0.395   2.647   1.857 -1.3021  0.9207  3.4648
 2683TIP3    H229685   0.281   2.552   1.826  0.5717 -0.2437 -0.5388
 2684TIP3   OH229686   5.963   2.725   8.023  0.6002  0.4580  0.1598
 2684TIP3    H129687   5.886   2.740   7.968  2.0233  2.3788 -1.4777
 2684TIP3    H229688   5.978   2.809   8.067  2.7806  0.7665 -1.0152
 2685TIP3   OH229689   3.977   0.536   7.492  0.4440  0.9488 -0.4352
 2685TIP3    H129690   3.958   0.468   7.427 -1.2560  0.1813  0.8039
 2685TIP3    H229691   3.893   0.576   7.512  1.0720  1.8519  0.5682
 2686TIP3   OH229692   6.498   0.586   6.740 -0.5094 -0.0014 -0.3840
 2686TIP3    H129693   6.439   0.661   6.747  0.7498  0.9196  0.7793
 2686TIP3    H229694   6.585   0.624   6.730  0.3605 -1.2593  1.7499
 2687TIP3   OH229695   5.193   2.309   7.906 -0.0733 -0.4348  0.0403
 2687TIP3    H129696   5.139   2.264   7.972 -0.3071 -0.4484 -0.1588
 2687TIP3    H229697   5.146   2.297   7.824 -0.0022 -0.0550 -0.0611
 2688TIP3   OH229698   2.309   0.664   0.768  0.5149 -0.4737  0.0626
 2688TIP3    H129699   2.292   0.680   0.861  1.8088 -1.5491  0.5110
 2688TIP3    H229700   2.341   0.574   0.764  1.7883 -0.0002 -1.2416
 2689TIP3   OH229701   3.102   1.542   7.767 -0.7101  0.7055  0.0076
 2689TIP3    H129702   3.123   1.487   7.692 -0.5474 -0.3068  0.7795
 2689TIP3    H229703   3.045   1.611   7.731 -1.9298 -0.6514 -0.7671
 2690TIP3   OH229704   5.079   0.061   8.009 -0.4059 -0.2570 -0.5036
 2690TIP3    H129705   5.073   0.156   8.021 -1.0784 -0.0181 -2.3751
 2690TIP3    H229706   4.997   0.038   7.965 -1.1158 -2.0278  1.5547
 2691TIP3   OH229707   2.523   1.730   3.308 -0.2640 -0.1187  0.3199
 2691TIP3    H129708   2.586   1.661   3.288 -0.2758  0.1627 -0.7383
 2691TIP3    H229709   2.438   1.691   3.287 -0.5302 -0.6746  2.2198
 2692TIP3   OH229710   0.373   6.774   0.957 -0.2391 -0.1389 -0.0964
 2692TIP3    H129711   0.305   6.783   1.024 -1.5091  0.1833 -1.3797
 2692TIP3    H229712   0.379   6.679   0.943 -1.4294 -0.1307 -0.9040
 2693TIP3   OH229713   5.456   0.924   6.432 -0.1769 -0.4098  0.5744
 2693TIP3    H129714   5.473   0.987   6.502 -1.7734 -0.6173  1.1866
 2693TIP3    H229715   5.435   0.979   6.356  0.0966 -0.1968  0.6492
 2694TIP3   OH229716   3.027   1.164   0.749 -0.4971 -0.0657  0.4866
 2694TIP3    H129717   3.050   1.214   0.827  1.3956 -0.7978  0.4502
 2694TIP3    H229718   3.027   1.229   0.678  0.2288  0.1743  0.7035
 2695TIP3   OH229719   3.619   4.240   8.438  0.9820  0.1514  0.2568
 2695TIP3    H129720   3.687   4.180   8.408  1.6387  1.0013 -0.0199
 2695TIP3    H229721   3.548   4.229   8.374  0.2165 -1.7989  1.3670
 2696TIP3   OH229722   0.551   2.669   7.824  0.1547 -0.6120  0.2722
 2696TIP3    H129723   0.594   2.708   7.748 -1.5790  1.2615  0.1768
 2696TIP3    H229724   0.605   2.593   7.845  1.1414 -0.7448 -2.3297
 2697TIP3   OH229725   2.820   2.414   8.460 -0.2425 -0.1107  0.2162
 2697TIP3    H129726   2.843   2.401   8.368 -1.6521  1.1810 -0.3560
 2697TIP3    H229727   2.848   2.504   8.478 -0.4697 -0.1775  0.9020
 2698TIP3   OH229728   1.972   0.428   7.924 -0.2856  0.3074 -0.4601
 2698TIP3    H129729   1.960   0.501   7.985  0.8769  0.3167 -0.2243
 2698TIP3    H229730   2.049   0.382   7.957 -0.2979 -0.3269 -1.2973
 2699TIP3   OH229731   2.297   4.447   0.042 -0.4746  0.3452  0.3362
 2699TIP3    H129732   2.285   4.391   0.118  0.5511 -1.5145 -0.8158
 2699TIP3    H229733   2.384   4.426   0.009 -0.5430  1.7411 -0.8737
 2700TIP3   OH229734   1.524   2.491   7.856  0.7340 -0.7202  0.4503
 2700TIP3    H129735   1.460   2.558   7.834  1.1907  0.5183  2.6554
 2700TIP3    H229736   1.562   2.466   7.772 -2.3470 -1.2829 -0.9128
 2701TIP3   OH229737   1.830   4.210   8.179  0.3752 -0.3038  0.5520
 2701TIP3    H129738   1.823   4.151   8.104  0.4332  0.6119 -0.2007
 2701TIP3    H229739   1.835   4.298   8.140  0.4646  0.1898  1.6282
 2702TIP3   OH229740   5.748   1.978   6.650  0.2998  0.3723  0.2625
 2702TIP3    H129741   5.827   2.018   6.686  0.1214  2.4788 -1.4955
 2702TIP3    H229742   5.679   2.042   6.666 -0.3981 -0.0274 -1.0255
 2703TIP3   OH229743   0.849   6.119   2.946 -0.1309 -0.3874  0.4431
 2703TIP3    H129744   0.939   6.116   2.977 -0.1718  0.5772  0.6967
 2703TIP3    H229745   0.840   6.205   2.906 -0.2395 -1.3714 -1.8436
 2704TIP3   OH229746   4.489   0.998   8.153 -0.6872 -0.0218  0.5768
 2704TIP3    H129747   4.507   1.053   8.077 -2.2947  0.5822  0.6049
 2704TIP3    H229748   4.535   0.916   8.134  0.3937  0.7406 -0.2202
 2705TIP3   OH229749   0.479   5.882   7.196 -0.0104  0.0846  0.0438
 2705TIP3    H129750   0.434   5.919   7.272  2.3662 -0.3301  1.7625
 2705TIP3    H229751   0.551   5.943   7.179  0.4874 -0.7250 -0.8281
 2706TIP3   OH229752   6.833   6.093   1.276  0.1789  0.1636  0.7212
 2706TIP3    H129753   6.765   6.130   1.221  0.0525 -1.8042 -0.5322
 2706TIP3    H229754   6.807   6.115   1.365 -3.2551 -2.1341  0.4717
 2707TIP3   OH229755   2.450   0.484   2.016  0.1556 -0.0269 -0.0796
 2707TIP3    H129756   2.357   0.506   2.025  0.6454  3.2553 -1.6087
 2707TIP3    H229757   2.491   0.521   2.095  0.4055  0.2536 -0.3412
 2708TIP3   OH229758   0.681   1.542   1.640  0.2201  0.4017 -0.2403
 2708TIP3    H129759   0.680   1.456   1.682  0.0326  0.4408 -0.1640
 2708TIP3    H229760   0.767   1.549   1.600  0.9440  0.9392  1.3271
 2709TIP3   OH229761   6.597   3.828   7.384  0.0698  0.0745  0.4379
 2709TIP3    H129762   6.540   3.808   7.310  0.2433 -1.6311  0.7163
 2709TIP3    H229763   6.679   3.857   7.344  0.8954 -2.7877 -0.2036
 2710TIP3   OH229764   2.000   6.126   7.218  0.1133 -0.4671 -0.4444
 2710TIP3    H129765   2.084   6.091   7.187  0.7721 -0.1501  0.9219
 2710TIP3    H229766   2.021   6.214   7.248 -1.0188  0.1682 -1.4418
 2711TIP3   OH229767   1.011   5.052   0.395 -0.3327  0.0168 -1.4660
 2711TIP3    H129768   1.053   5.132   0.362  0.2458  0.2079 -0.3297
 2711TIP3    H229769   0.922   5.079   0.419 -0.2930  0.2142 -1.5413
 2712TIP3   OH229770   5.924   2.713   0.616  0.4844 -0.4161 -0.4527
 2712TIP3    H129771   5.990   2.778   0.591  1.6680 -1.5301 -0.3444
 2712TIP3    H229772   5.947   2.689   0.706  0.1087 -1.0240 -0.5119
 2713TIP3   OH229773   0.180   5.863   2.063  0.1010 -0.4184  0.4120
 2713TIP3    H129774   0.121   5.898   1.996  1.7134  0.8680 -0.4445
 2713TIP3    H229775   0.161   5.915   2.141 -1.3297 -1.4740  0.8082
 2714TIP3   OH229776   0.514   5.517   6.786  0.0267 -0.1121  0.4291
 2714TIP3    H129777   0.575   5.544   6.717 -0.3498 -0.9636 -0.2604
 2714TIP3    H229778   0.504   5.595   6.841 -0.0397  0.7371 -0.7510
 2715TIP3   OH229779   1.740   2.984   1.267  0.6447 -0.2769  0.6178
 2715TIP3    H129780   1.741   3.037   1.187  0.6661 -2.2543 -0.7837
 2715TIP3    H229781   1.657   3.005   1.309 -1.0392 -1.6378 -1.7720
 2716TIP3   OH229782   4.807   2.550   1.519  0.7751 -0.1300 -0.0428
 2716TIP3    H129783   4.869   2.615   1.552  1.4806  0.6870 -2.6705
 2716TIP3    H229784   4.859   2.497   1.458 -0.9762  0.4208 -2.1398
 2717TIP3   OH229785   4.074   2.748   1.027  0.3469 -0.2265 -0.8418
 2717TIP3    H129786   4.001   2.710   0.979 -0.7575  0.4667  0.2435
 2717TIP3    H229787   4.084   2.691   1.104 -2.4587  2.4396  1.7430
 2718TIP3   OH229788   2.744   3.714   7.903  0.1649 -0.2714 -0.3478
 2718TIP3    H129789   2.749   3.661   7.823  1.2556  0.6122 -0.8842
 2718TIP3    H229790   2.823   3.691   7.952  0.4599  0.5794 -0.4174
 2719TIP3   OH229791   4.807   2.391   6.998  0.2389  0.7037  0.1899
 2719TIP3    H129792   4.888   2.340   6.994  0.8266  1.4673  1.5728
 2719TIP3    H229793   4.794   2.422   6.908  0.7208 -0.5605 -0.3366
 2720TIP3   OH229794   2.326   3.256   1.314 -0.0860 -0.3243 -0.5310
 2720TIP3    H129795   2.249   3.224   1.361  0.7697 -0.8730  0.5499
 2720TIP3    H229796   2.306   3.347   1.294 -1.1216 -0.5355 -0.5297
 2721TIP3   OH229797   3.734   5.132   1.721  0.0807  0.2631  0.4168
 2721TIP3    H129798   3.657   5.162   1.769 -0.7196 -0.1526 -0.5762
 2721TIP3    H229799   3.764   5.210   1.674  0.5552  0.5413  1.1674
 2722TIP3   OH229800   5.068   5.264   0.129  0.5301  0.2930 -0.4933
 2722TIP3    H129801   5.086   5.326   0.201 -2.8303  1.0867 -0.1280
 2722TIP3    H229802   5.078   5.316   0.050 -0.5729  0.8857 -0.2718
 2723TIP3   OH229803   6.811   4.264   1.568  0.0410 -0.5354 -0.1294
 2723TIP3    H129804   6.743   4.314   1.524  0.8457  0.9016  0.2051
 2723TIP3    H229805   6.779   4.174   1.567 -2.4695  0.2485  1.1483
 2724TIP3   OH229806   6.843   2.495   1.221  0.5601 -0.4293  0.7413
 2724TIP3    H129807   6.901   2.562   1.183 -0.9685 -0.3769 -1.6925
 2724TIP3    H229808   6.879   2.412   1.189  0.2717 -0.5003  0.5958
 2725TIP3   OH229809   3.005   5.041   7.444  0.3616 -0.1061  0.5927
 2725TIP3    H129810   3.088   5.072   7.407  0.9511 -0.7718  1.3268
 2725TIP3    H229811   2.942   5.108   7.419  1.2858  0.8512  0.7270
 2726TIP3   OH229812   5.363   6.056   0.678  0.1909  0.1340 -0.5028
 2726TIP3    H129813   5.374   6.149   0.697  0.5086  0.2804 -1.3524
 2726TIP3    H229814   5.395   6.012   0.756  1.7490  0.7028 -0.7941
 2727TIP3   OH229815   5.233   6.874   1.794  0.1918 -0.0915 -0.1285
 2727TIP3    H129816   5.210   6.965   1.812 -0.9417 -0.3437 -0.2288
 2727TIP3    H229817   5.286   6.847   1.869 -0.1903  0.3942  0.3252
 2728TIP3   OH229818   4.684   5.580   7.867  0.1675  0.1582  0.7557
 2728TIP3    H129819   4.655   5.615   7.783 -0.3881  1.3242  1.4118
 2728TIP3    H229820   4.661   5.487   7.863 -0.7060  0.3900 -0.0257
 2729TIP3   OH229821   0.959   3.370   0.373 -0.0614 -0.1318 -0.2601
 2729TIP3    H129822   0.866   3.372   0.348  0.3039 -0.6166 -1.7425
 2729TIP3    H229823   0.977   3.279   0.392 -0.1690  0.1402  1.2525
 2730TIP3   OH229824   0.096   5.125   6.613  0.0281  0.0480 -0.2035
 2730TIP3    H129825   0.057   5.071   6.544 -0.4698  0.8099 -0.5489
 2730TIP3    H229826   0.143   5.194   6.565 -0.5893  0.7733  0.1966
 2731TIP3   OH229827   0.520   3.124   7.723  0.1380  0.8894 -0.8382
 2731TIP3    H129828   0.578   3.074   7.780 -0.0006  2.1878  0.5159
 2731TIP3    H229829   0.436   3.079   7.728  0.9858 -1.0616 -2.8915
 2732TIP3   OH229830   0.725   4.623   0.209 -0.8707  0.0741  0.6782
 2732TIP3    H129831   0.808   4.645   0.251  0.6212 -3.6345  0.1057
 2732TIP3    H229832   0.658   4.651   0.271  0.8663  1.5633  1.9894
 2733TIP3   OH229833   4.568   5.763   3.311 -0.1345  0.1806  0.0322
 2733TIP3    H129834   4.576   5.684   3.257 -1.2637  0.3325 -0.3851
 2733TIP3    H229835   4.657   5.779   3.343  0.2076 -0.9718 -0.2752
 2734TIP3   OH229836   0.489   1.467   8.371  0.3276 -0.7985  0.4887
 2734TIP3    H129837   0.462   1.553   8.336 -1.8394 -2.6815 -3.0685
 2734TIP3    H229838   0.473   1.474   8.465 -1.1993  2.2271  0.1559
 2735TIP3   OH229839   0.234   3.876   8.366  0.4540 -0.1930  0.2320
 2735TIP3    H129840   0.216   3.970   8.365  1.4494  0.0437 -2.3710
 2735TIP3    H229841   0.247   3.853   8.274  1.8423 -2.5663  0.9363
 2736TIP3   OH229842   0.035   3.416   0.426  0.5345  0.2825  0.4460
 2736TIP3    H129843  -0.039   3.375   0.381  0.6939  0.1459  0.3087
 2736TIP3    H229844  -0.002   3.447   0.509  0.8080 -1.8060  1.4028
 2737TIP3   OH229845   5.554   1.041   0.242 -0.2762 -0.2504  0.6615
 2737TIP3    H129846   5.582   0.953   0.267 -1.7564 -0.9275  0.0820
 2737TIP3    H229847   5.515   1.077   0.322 -0.7466 -0.6017  0.5990
 2738TIP3   OH229848   1.262   0.469   2.735  0.2520 -0.2783 -0.0953
 2738TIP3    H129849   1.176   0.510   2.746  0.6302  0.1675  1.2956
 2738TIP3    H229850   1.320   0.540   2.709  0.8250  0.0516  1.9472
 2739TIP3   OH229851   6.587   1.186   0.152  0.2005 -0.0721 -0.1885
 2739TIP3    H129852   6.621   1.209   0.238  0.5788  0.2110 -0.4063
 2739TIP3    H229853   6.495   1.211   0.154  0.4727  1.0051 -0.2362
 2740TIP3   OH229854   6.485   4.033   7.982  0.2527  0.0428 -0.2239
 2740TIP3    H129855   6.439   3.956   8.015  2.2381 -1.5389 -0.9534
 2740TIP3    H229856   6.424   4.072   7.919 -1.2479 -0.2213  0.9863
 2741TIP3   OH229857   3.736   0.638   1.250 -0.4032  0.1159 -0.3410
 2741TIP3    H129858   3.739   0.666   1.158  0.4744 -2.2366 -1.0791
 2741TIP3    H229859   3.827   0.640   1.278 -0.7139  1.3092  0.6979
 2742TIP3   OH229860   1.868   0.042   0.950  0.0567  0.5595 -0.3061
 2742TIP3    H129861   1.942   0.090   0.988  1.4237 -1.0163 -0.9066
 2742TIP3    H229862   1.855  -0.032   1.009 -1.9786  1.5228  0.5583
 2743TIP3   OH229863   0.326   0.693   1.807  0.0671 -0.2753  0.0139
 2743TIP3    H129864   0.231   0.693   1.794  0.2142 -0.5412 -1.1824
 2743TIP3    H229865   0.357   0.614   1.762  0.7947 -0.5606  0.9712
 2744TIP3   OH229866   1.857   6.699   7.952  0.2343 -0.1696 -0.2706
 2744TIP3    H129867   1.804   6.774   7.925  1.9017  0.9051 -0.6358
 2744TIP3    H229868   1.794   6.640   7.993 -1.0195  1.7432  0.7076
 2745TIP3   OH229869   2.929   3.644   0.203  1.1271  0.1621 -0.1366
 2745TIP3    H129870   2.940   3.686   0.288  0.1094  1.3922 -0.5869
 2745TIP3    H229871   2.835   3.630   0.195  1.2493 -0.2901 -0.9022
 2746TIP3   OH229872   4.249   2.048   1.527  0.3392  0.3177 -0.2903
 2746TIP3    H129873   4.333   2.071   1.568  0.3384  0.4585 -0.3669
 2746TIP3    H229874   4.247   1.952   1.530 -0.4882  0.3506  1.7077
 2747TIP3   OH229875   5.527   3.506   7.601  0.0552  0.0617  0.1385
 2747TIP3    H129876   5.533   3.560   7.522  0.0828 -0.3673 -0.1551
 2747TIP3    H229877   5.505   3.418   7.569  1.4947 -0.4504  0.5016
 2748TIP3   OH229878   2.810   1.504   1.445 -0.9117  0.1486  0.3517
 2748TIP3    H129879   2.821   1.475   1.354  0.2481  1.5589 -0.0051
 2748TIP3    H229880   2.739   1.568   1.441 -1.2315 -0.1928  0.5431
 2749TIP3   OH229881   4.470   3.806   8.225  0.4265 -0.1036  0.0221
 2749TIP3    H129882   4.547   3.754   8.249  0.2783  0.3916  1.6928
 2749TIP3    H229883   4.458   3.789   8.132  0.9426 -2.3166  0.3034
 2750TIP3   OH229884   0.943   1.167   8.367 -0.1060 -0.7546  0.6552
 2750TIP3    H129885   0.864   1.220   8.376 -0.1454 -0.6396 -0.2740
 2750TIP3    H229886   1.005   1.206   8.429  0.8643  2.2786 -2.0063
 2751TIP3   OH229887   1.345   5.615   1.835  0.8330 -0.0664 -0.8916
 2751TIP3    H129888   1.273   5.570   1.791  0.8800  1.6505 -2.8916
 2751TIP3    H229889   1.302   5.665   1.904  0.4496 -1.0136 -0.4323
 2752TIP3   OH229890   5.698   4.066   2.199 -0.1724  0.2482  0.0742
 2752TIP3    H129891   5.679   4.110   2.117 -0.1203  0.6556  0.2803
 2752TIP3    H229892   5.616   4.020   2.220 -0.5433  0.9972  0.3265
 2753TIP3   OH229893   6.916   1.969   8.125 -0.3404 -0.0122  0.2417
 2753TIP3    H129894   6.854   1.905   8.089  0.4815 -0.3069 -0.7040
 2753TIP3    H229895   6.925   2.035   8.056  1.4994 -0.7514 -0.2941
 2754TIP3   OH229896   4.728   2.542   7.932 -0.2398 -0.3924  0.4465
 2754TIP3    H129897   4.742   2.633   7.959  1.2986  0.0049 -1.4167
 2754TIP3    H229898   4.696   2.549   7.842  0.4069 -1.7011  0.0929
 2755TIP3   OH229899   2.689   3.677   8.425  0.8015 -0.0877 -0.1329
 2755TIP3    H129900   2.671   3.643   8.337 -0.8182 -0.6301  0.3737
 2755TIP3    H229901   2.645   3.762   8.428 -0.2503 -0.6401  0.5546
 2756TIP3   OH229902   3.443   6.407   1.199  0.0225 -0.0721 -0.0043
 2756TIP3    H129903   3.513   6.414   1.133  0.0582 -1.2665 -0.1110
 2756TIP3    H229904   3.486   6.366   1.275 -0.7091 -1.5106 -0.3321
 2757TIP3   OH229905   1.853   3.817   8.260  0.0436  0.0423 -0.3582
 2757TIP3    H129906   1.818   3.882   8.320  1.0855  0.7718 -0.5175
 2757TIP3    H229907   1.914   3.865   8.205  0.0235 -0.8589 -1.1960
 2758TIP3   OH229908   2.271   5.989   0.509 -0.2895  0.8583 -0.6588
 2758TIP3    H129909   2.361   5.964   0.489  1.2667  1.8861  3.8831
 2758TIP3    H229910   2.272   6.085   0.510 -0.8445  0.8881  1.2495
 2759TIP3   OH229911   2.255   4.154   7.857  0.1333  0.1185  0.4813
 2759TIP3    H129912   2.285   4.231   7.809  1.5196 -0.8145 -0.2199
 2759TIP3    H229913   2.284   4.080   7.804 -2.8816 -0.9071  0.1122
 2760TIP3   OH229914   4.544   1.277   7.486 -0.1345 -0.3998  0.0496
 2760TIP3    H129915   4.513   1.217   7.554 -0.3529  0.8996  1.1501
 2760TIP3    H229916   4.486   1.353   7.493  0.3249  0.0754 -1.0911
 2761TIP3   OH229917   1.227   6.902   1.003 -0.2497 -0.4684 -0.1682
 2761TIP3    H129918   1.262   6.813   1.001 -1.3185 -0.9026 -0.3457
 2761TIP3    H229919   1.207   6.922   0.911 -0.2950 -0.1619 -0.0925
 2762TIP3   OH229920   0.529   4.597   1.178 -0.2904  0.5451  0.0578
 2762TIP3    H129921   0.555   4.512   1.213 -1.7622  0.0584  0.0351
 2762TIP3    H229922   0.588   4.660   1.220  0.7559 -0.4738  0.1337
 2763TIP3   OH229923   4.252   4.477   8.467  0.0006  0.5704 -0.1460
 2763TIP3    H129924   4.161   4.482   8.438 -0.2722  0.5791  0.6950
 2763TIP3    H229925   4.259   4.392   8.509  0.2257  0.8041  0.2967
 2764TIP3   OH229926   3.185   5.958   8.318  0.4141 -0.0752 -0.6738
 2764TIP3    H129927   3.096   5.990   8.307  0.1180 -0.6452  0.0021
 2764TIP3    H229928   3.241   6.033   8.295 -0.2061  2.1264  3.9172
 2765TIP3   OH229929   1.115   0.425   2.285 -0.5383 -0.3198  0.2059
 2765TIP3    H129930   1.183   0.492   2.281 -1.0710  0.2278  0.1759
 2765TIP3    H229931   1.042   0.468   2.329 -1.0574 -0.7386 -0.2364
 2766TIP3   OH229932   6.387   2.499   0.019 -0.2146  0.7279 -0.1912
 2766TIP3    H129933   6.351   2.469  -0.064  0.8355  0.0615 -0.4214
 2766TIP3    H229934   6.310   2.516   0.074 -0.9188 -2.2091 -0.1067
 2767TIP3   OH229935   2.548   4.602   1.833  0.7174  0.8699 -0.5361
 2767TIP3    H129936   2.500   4.649   1.765 -0.1451  1.0529  0.1820
 2767TIP3    H229937   2.511   4.634   1.915 -0.0586 -1.1958 -0.0220
 2768TIP3   OH229938   3.207   0.922   0.262 -0.8259  0.0049 -0.3954
 2768TIP3    H129939   3.211   0.985   0.191  1.2825  0.2956 -0.1087
 2768TIP3    H229940   3.168   0.970   0.335 -0.7346  0.4818 -0.6542
 2769TIP3   OH229941   2.580   2.044   1.246 -0.6796  0.5213  0.0447
 2769TIP3    H129942   2.541   2.069   1.163 -1.3348  0.3526  0.2982
 2769TIP3    H229943   2.545   1.956   1.263  2.2897 -1.0859 -1.3183
 2770TIP3   OH229944   1.195   2.969   8.264 -0.1964  0.0261  0.2803
 2770TIP3    H129945   1.230   3.013   8.342 -0.0576 -0.5181  0.5335
 2770TIP3    H229946   1.273   2.937   8.218 -0.2181  1.1848 -0.6037
 2771TIP3   OH229947   4.628   4.205   2.366  0.1496 -0.1464 -0.2874
 2771TIP3    H129948   4.573   4.269   2.411 -0.4102 -0.6315 -0.2704
 2771TIP3    H229949   4.582   4.188   2.284 -0.0011 -0.9447 -0.0440
 2772TIP3   OH229950   3.402   6.851   2.794  0.8814 -0.8385 -0.2772
 2772TIP3    H129951   3.346   6.797   2.850 -4.7185  1.6825 -2.5999
 2772TIP3    H229952   3.451   6.907   2.855 -1.1258 -1.5391  2.1328
 2773TIP3   OH229953   3.235   5.585   2.313 -0.1250  0.2103 -0.5392
 2773TIP3    H129954   3.200   5.563   2.399 -1.3059 -1.7333 -1.4473
 2773TIP3    H229955   3.303   5.650   2.331 -1.1603  0.7730  1.7178
 2774TIP3   OH229956   3.377   2.011   1.664  0.5736 -0.5744 -0.3392
 2774TIP3    H129957   3.454   2.064   1.686  0.3477 -1.1486  2.1634
 2774TIP3    H229958   3.404   1.921   1.681 -0.3353 -0.8749 -0.4368
 2775TIP3   OH229959   2.556   4.643   8.020 -0.2256 -0.2641  0.5547
 2775TIP3    H129960   2.597   4.651   8.106 -1.0238  0.4896  0.8932
 2775TIP3    H229961   2.628   4.642   7.958  0.5057 -3.1080  1.3195
 2776TIP3   OH229962   1.534   0.905   2.403  0.0310 -0.5179  0.2945
 2776TIP3    H129963   1.526   0.992   2.442  0.8197  0.1484 -0.9810
 2776TIP3    H229964   1.567   0.850   2.474  0.3779  0.4114  0.8709
 2777TIP3   OH229965   5.400   4.748   8.062 -0.5202 -0.4249  0.2024
 2777TIP3    H129966   5.490   4.745   8.029  0.5585 -0.9702  2.9228
 2777TIP3    H229967   5.383   4.660   8.095 -0.7251  0.5102  2.8313
 2778TIP3   OH229968   5.806   4.404   7.959 -0.1782 -0.7163 -0.2555
 2778TIP3    H129969   5.799   4.498   7.974 -0.9293 -0.5132 -1.7151
 2778TIP3    H229970   5.722   4.380   7.919 -0.6303 -2.3030  1.5003
 2779TIP3   OH229971   3.898   0.402   2.221  0.5438  0.0139  0.4007
 2779TIP3    H129972   3.963   0.416   2.152  0.7782 -1.6387  0.2349
 2779TIP3    H229973   3.913   0.312   2.250 -1.5669 -0.3684  0.4648
 2780TIP3   OH229974   4.760   4.685   0.076  0.6545  0.5080  0.0937
 2780TIP3    H129975   4.821   4.620   0.042  0.5667  0.7306 -0.5138
 2780TIP3    H229976   4.673   4.646   0.062  0.6656 -0.5293  2.4493
 2781TIP3   OH229977   6.208   1.566   7.558  0.6608 -0.2550  0.2127
 2781TIP3    H129978   6.242   1.535   7.474 -0.7738  0.2735 -0.6146
 2781TIP3    H229979   6.224   1.494   7.619 -1.9732 -2.5063 -1.4919
 2782TIP3   OH229980   5.340   5.891   1.205 -0.0695 -0.4922 -0.1752
 2782TIP3    H129981   5.321   5.971   1.156 -0.3255 -0.6609 -0.3544
 2782TIP3    H229982   5.397   5.919   1.276  0.4576 -0.2750 -0.6813
 2783TIP3   OH229983   5.467   4.201   8.358 -0.1066 -0.2208 -0.5158
 2783TIP3    H129984   5.526   4.216   8.284  0.5023  1.0493  0.1918
 2783TIP3    H229985   5.458   4.288   8.398 -1.7465 -0.5627 -0.0780
 2784TIP3   OH229986   4.685   4.942   1.216  0.2907  0.1816  0.4697
 2784TIP3    H129987   4.745   5.000   1.168  0.4823  0.7880  1.4263
 2784TIP3    H229988   4.708   4.855   1.186  0.9286  0.4928  0.0187
 2785TIP3   OH229989   2.010   3.317   0.476 -0.1491  0.2115  0.4697
 2785TIP3    H129990   2.044   3.407   0.480  0.5327  0.0390 -0.8627
 2785TIP3    H229991   1.916   3.327   0.491 -0.4883  1.4690 -1.9968
 2786TIP3   OH229992   6.898   6.467   8.492  0.1590  0.3393  0.2770
 2786TIP3    H129993   6.855   6.431   8.414  0.0747 -0.5722  0.7273
 2786TIP3    H229994   6.828   6.479   8.555 -0.0671  2.7661 -0.3412
 2787TIP3   OH229995   2.253   0.883   1.221  0.0773 -0.0939 -0.8196
 2787TIP3    H129996   2.244   0.833   1.139 -0.6101  0.2292 -0.9513
 2787TIP3    H229997   2.271   0.817   1.287 -1.8205 -0.6678 -0.8200
 2788TIP3   OH229998   3.640   0.551   2.287  0.3619 -0.6370 -0.5829
 2788TIP3    H129999   3.721   0.503   2.269  1.2234  0.5488 -0.0449
 2788TIP3    H230000   3.628   0.608   2.211 -1.1524 -2.2997 -1.6397
 2789TIP3   OH230001   1.694   3.273   7.408 -0.2610  0.4760  0.6865
 2789TIP3    H130002   1.657   3.200   7.457 -0.1837  0.7541  1.1624
 2789TIP3    H230003   1.780   3.288   7.447 -0.0916  0.5324  0.2967
 2790TIP3   OH230004   6.699   0.519   0.941 -0.1910  0.3435  0.8620
 2790TIP3    H130005   6.637   0.448   0.926  1.9324 -1.4495 -0.0433
 2790TIP3    H230006   6.654   0.597   0.909 -2.0607 -0.8051  0.5267
 2791TIP3   OH230007   3.170   6.755   0.267  0.3305 -0.1108 -0.4613
 2791TIP3    H130008   3.131   6.706   0.339 -0.0109 -1.7697 -1.7142
 2791TIP3    H230009   3.119   6.836   0.262  0.2481 -0.0508  1.0219
 2792TIP3   OH230010   6.635   4.474   0.937 -0.5272 -0.1839  0.4189
 2792TIP3    H130011   6.568   4.541   0.922 -0.8161 -0.7963 -1.3007
 2792TIP3    H230012   6.645   4.470   1.032 -1.9917  0.8334  0.6449
 2793TIP3   OH230013   4.566   4.946   1.461  0.6983 -0.4333  0.6772
 2793TIP3    H130014   4.603   4.967   1.375  0.7082  0.3412  0.8623
 2793TIP3    H230015   4.615   5.001   1.522  0.3908 -0.6544  1.1287
 2794TIP3   OH230016   1.353   6.845   1.650 -0.1248  0.3945 -0.3173
 2794TIP3    H130017   1.328   6.780   1.585 -1.6277  0.4614  0.1467
 2794TIP3    H230018   1.444   6.823   1.673 -0.4647 -1.2932 -0.4607
 2795TIP3   OH230019   0.786   3.526   0.863  0.4499  0.7399  0.8914
 2795TIP3    H130020   0.868   3.476   0.866 -0.6500 -1.2788 -0.3171
 2795TIP3    H230021   0.746   3.501   0.780 -1.0782  2.2392  1.1239
 2796TIP3   OH230022   2.230   5.975   1.475  0.4027 -0.1960  0.1819
 2796TIP3    H130023   2.196   6.023   1.399 -0.4624  0.5033  0.9914
 2796TIP3    H230024   2.323   5.994   1.475  0.4121 -0.1640 -0.6737
 2797TIP3   OH230025   6.496   2.456   0.650 -0.1496 -0.2947  0.2902
 2797TIP3    H130026   6.499   2.413   0.565  0.8071 -0.0394  0.1842
 2797TIP3    H230027   6.487   2.549   0.629 -2.4681 -0.4126  0.5170
 2798TIP3   OH230028   3.887   4.443   2.404  0.3891  0.3373 -0.3847
 2798TIP3    H130029   3.881   4.534   2.374  2.8013 -0.4398 -3.6825
 2798TIP3    H230030   3.806   4.402   2.375 -0.6402  1.3068  0.9819
 2799TIP3   OH230031   5.561   0.717   7.626  0.1606 -0.4290 -0.3619
 2799TIP3    H130032   5.508   0.757   7.557 -2.6101 -1.8718  0.7971
 2799TIP3    H230033   5.593   0.792   7.677 -2.1176  0.5224 -0.1925
 2800TIP3   OH230034   4.569   6.815   0.047  0.4548  0.1628  0.1304
 2800TIP3    H130035   4.560   6.876   0.121 -0.5509  1.4268 -0.9910
 2800TIP3    H230036   4.517   6.739   0.072  0.4742  0.3949  0.9101
 2801TIP3   OH230037   4.651   4.386   7.941 -0.4376 -0.2536 -0.5966
 2801TIP3    H130038   4.588   4.407   7.872 -0.2661  1.5541 -0.2491
 2801TIP3    H230039   4.736   4.386   7.898 -0.2609  1.5180 -0.3074
 2802TIP3   OH230040   1.990   6.048   7.687 -0.0817 -0.2699  0.7163
 2802TIP3    H130041   2.019   6.074   7.774 -0.2794 -0.4387  0.8350
 2802TIP3    H230042   1.981   6.131   7.638  2.8119 -0.3299 -0.0607
 2803TIP3   OH230043   0.163   3.988   7.167  0.2585  0.3643  0.1571
 2803TIP3    H130044   0.102   4.049   7.210 -0.9585 -0.5862 -0.1646
 2803TIP3    H230045   0.178   4.025   7.081  2.0697  1.8595  1.0611
 2804TIP3   OH230046   1.798   2.378   1.351  0.6097  0.1070  0.1492
 2804TIP3    H130047   1.885   2.372   1.390  1.5216  1.2809 -1.5509
 2804TIP3    H230048   1.815   2.389   1.257 -1.3807  0.4611 -0.2118
 2805TIP3   OH230049   5.797   5.150   0.944  0.1003 -0.3635  0.3494
 2805TIP3    H130050   5.883   5.182   0.971 -0.6886  1.4838  0.8734
 2805TIP3    H230051   5.755   5.226   0.904 -1.4590 -1.0825  0.5454
 2806TIP3   OH230052   6.190   0.634   0.477 -0.3182  0.3254  0.5397
 2806TIP3    H130053   6.138   0.569   0.524  0.7712 -0.9488  0.0626
 2806TIP3    H230054   6.223   0.693   0.545  1.3734 -1.5830  1.4740
 2807TIP3   OH230055   3.312   1.736   8.239  0.4711  0.2205 -0.0987
 2807TIP3    H130056   3.382   1.697   8.187  1.9196  2.8626 -0.3353
 2807TIP3    H230057   3.343   1.728   8.329 -0.2577 -1.0125  0.0625
 2808TIP3   OH230058   0.781   5.355   8.225  0.4454  0.0967  0.9168
 2808TIP3    H130059   0.841   5.410   8.276  0.9458  1.2814 -0.8806
 2808TIP3    H230060   0.703   5.410   8.212  1.0966  0.6054 -1.2193
 2809TIP3   OH230061   5.093   5.078   8.139 -0.2610 -1.1596 -0.4941
 2809TIP3    H130062   5.154   5.043   8.074 -1.9140 -1.5228 -1.9181
 2809TIP3    H230063   5.132   5.161   8.166 -0.6178  0.2129 -3.7615
 2810TIP3   OH230064   2.702   0.040   2.462  0.5557 -0.2365 -0.0508
 2810TIP3    H130065   2.643   0.007   2.530  0.5329  1.1171  0.5981
 2810TIP3    H230066   2.646   0.045   2.384 -0.0450  0.4870  0.4151
 2811TIP3   OH230067   2.989   4.680   2.290  0.6729 -0.5867 -0.4461
 2811TIP3    H130068   2.959   4.771   2.279  0.9391 -0.5096 -0.5319
 2811TIP3    H230069   2.960   4.657   2.379  0.1775 -0.5823 -0.6024
 2812TIP3   OH230070   2.695   3.982   8.414 -0.5732  0.5462 -0.0085
 2812TIP3    H130071   2.762   3.956   8.351 -0.8699 -0.3384  0.0309
 2812TIP3    H230072   2.736   3.972   8.499 -0.9663 -0.6834  0.0519
 2813TIP3   OH230073   1.779   6.747   2.128  0.0327  0.5580 -0.9656
 2813TIP3    H130074   1.803   6.802   2.202 -0.5391  1.4625 -1.4344
 2813TIP3    H230075   1.790   6.803   2.051 -0.5441  0.0216 -1.4578
 2814TIP3   OH230076   1.766   3.785   7.949  0.3259  0.1827  0.7125
 2814TIP3    H130077   1.790   3.784   7.856 -0.8054  0.0635  0.4068
 2814TIP3    H230078   1.820   3.854   7.987  0.7965  0.2361 -0.0420
 2815TIP3   OH230079   5.826   5.976   0.906  0.1279  0.2096  0.0649
 2815TIP3    H130080   5.892   6.017   0.849 -0.9156 -0.7274 -1.8886
 2815TIP3    H230081   5.754   5.953   0.848  0.0739 -3.1993  1.2566
 2816TIP3   OH230082   5.236   2.798   6.945 -0.4520 -0.3256 -0.3309
 2816TIP3    H130083   5.265   2.889   6.946  0.3292 -0.5358 -1.8098
 2816TIP3    H230084   5.252   2.766   7.034 -2.1311  1.3717  0.6674
 2817TIP3   OH230085   2.793   6.808   2.866 -0.5373  0.1423 -0.3253
 2817TIP3    H130086   2.828   6.835   2.951 -0.1180 -1.3748  0.0241
 2817TIP3    H230087   2.869   6.810   2.808 -0.5796  0.0618 -0.3832
 2818TIP3   OH230088   4.936   0.222   7.758 -0.2011 -0.6631 -0.2402
 2818TIP3    H130089   4.864   0.271   7.797  0.9070  1.5432 -0.7498
 2818TIP3    H230090   4.995   0.290   7.724  2.2673 -2.3197  0.4218
 2819TIP3   OH230091   6.200   4.773   7.633 -0.6191 -0.4406  0.7791
 2819TIP3    H130092   6.156   4.708   7.579 -0.1701 -0.4998  0.4811
 2819TIP3    H230093   6.241   4.723   7.703  1.2239 -0.7206 -0.4172
 2820TIP3   OH230094   0.745   5.995   0.509  0.0864 -0.7130 -0.5731
 2820TIP3    H130095   0.813   5.946   0.462  2.0763  2.2208 -1.0518
 2820TIP3    H230096   0.673   6.003   0.446  1.4050  0.3892 -2.0171
 2821TIP3   OH230097   0.697   5.029   8.363 -0.1112 -0.0246  0.0547
 2821TIP3    H130098   0.690   5.069   8.277  0.5679  3.0121  1.2839
 2821TIP3    H230099   0.789   5.008   8.373 -0.4542 -2.0131 -0.5579
 2822TIP3   OH230100   6.142   0.434   0.269 -0.0492  0.6229 -0.1664
 2822TIP3    H130101   6.143   0.508   0.330  1.1607  0.4552  0.0580
 2822TIP3    H230102   6.155   0.357   0.324 -1.1773  0.2366 -0.4142
 2823TIP3   OH230103   5.979   1.108   6.562  0.2888  0.1364  0.2058
 2823TIP3    H130104   5.917   1.103   6.489  2.0015 -0.8513 -1.2757
 2823TIP3    H230105   5.986   1.017   6.593  0.5856  0.3210  0.6840
 2824TIP3   OH230106   6.756   6.301   8.051 -0.1973 -0.1489  0.3161
 2824TIP3    H130107   6.741   6.395   8.040 -0.5918 -0.2368  0.1059
 2824TIP3    H230108   6.720   6.261   7.972  0.4822 -0.4319  0.1414
 2825TIP3   OH230109   3.958   1.215   0.737 -0.1947 -0.5260  0.2267
 2825TIP3    H130110   3.970   1.307   0.762 -2.5804  0.7248 -2.6575
 2825TIP3    H230111   4.016   1.203   0.662 -0.8573 -0.9693 -0.2206
 2826TIP3   OH230112   3.367   6.690   3.032 -0.1718 -0.4814  0.7017
 2826TIP3    H130113   3.393   6.609   3.076  0.8025 -1.1775 -1.0407
 2826TIP3    H230114   3.272   6.696   3.048  0.2620 -0.1238  3.6597
 2827TIP3   OH230115   5.908   2.668   1.443 -0.1238 -0.6259 -0.4571
 2827TIP3    H130116   5.956   2.743   1.478 -1.4764 -0.0635  0.2698
 2827TIP3    H230117   5.875   2.622   1.520 -0.3278 -1.2814 -0.9250
 2828TIP3   OH230118   6.088   1.539   0.262 -0.7589 -0.1608  0.7266
 2828TIP3    H130119   6.037   1.506   0.188 -0.8468  0.3384  0.5557
 2828TIP3    H230120   6.106   1.462   0.316 -0.0473 -0.6636 -0.1988
 2829TIP3   OH230121   2.055   0.808   6.503 -0.5680 -0.0447 -0.6384
 2829TIP3    H130122   2.034   0.889   6.548 -0.8655 -0.4667 -0.0056
 2829TIP3    H230123   2.147   0.817   6.478 -0.6055  0.4861 -0.5836
 2830TIP3   OH230124   6.838   4.479   7.565 -0.3085 -0.0652 -0.4689
 2830TIP3    H130125   6.895   4.541   7.610  0.8494 -1.8868  0.6847
 2830TIP3    H230126   6.865   4.484   7.473  1.8113 -0.9271  0.0665
 2831TIP3   OH230127   4.037   4.123   0.817  0.4086  0.3448 -0.1988
 2831TIP3    H130128   4.113   4.099   0.766 -0.9276 -1.5249 -1.4267
 2831TIP3    H230129   4.042   4.068   0.896 -0.0649 -0.3944 -0.6703
 2832TIP3   OH230130   4.756   4.089   1.007  0.5125  0.5699 -0.3369
 2832TIP3    H130131   4.820   4.130   0.948  0.0075  1.0263 -0.5745
 2832TIP3    H230132   4.765   3.995   0.991  1.9049  0.5471  0.4379
 2833TIP3   OH230133   6.244   5.192   7.744 -0.1468 -0.1815 -0.0582
 2833TIP3    H130134   6.304   5.163   7.675  0.4292  1.5409 -0.3219
 2833TIP3    H230135   6.301   5.217   7.817 -0.6750 -0.5066  0.4799
 2834TIP3   OH230136   6.377   0.944   2.800  0.1472 -0.2614 -0.1064
 2834TIP3    H130137   6.309   0.877   2.810 -1.7028  1.7532  1.5975
 2834TIP3    H230138   6.333   1.017   2.758  1.3032  1.0347  0.8482
 2835TIP3   OH230139   5.012   3.965   7.737 -0.6047 -0.5421 -0.3080
 2835TIP3    H130140   5.056   3.881   7.751 -0.3130 -0.4895 -0.8866
 2835TIP3    H230141   4.927   3.955   7.780 -0.6582 -1.2051 -0.5605
 2836TIP3   OH230142   6.807   2.494   7.167 -0.6824  0.7948 -0.0600
 2836TIP3    H130143   6.883   2.526   7.119 -0.8794 -0.0351 -0.9381
 2836TIP3    H230144   6.746   2.464   7.100 -0.5573 -1.3236  0.7134
 2837TIP3   OH230145   2.290   3.752   0.830 -0.0703 -0.2855 -0.4514
 2837TIP3    H130146   2.246   3.811   0.890  1.3210 -0.3526  0.7121
 2837TIP3    H230147   2.266   3.782   0.743 -0.8792  0.8024  0.1322
 2838TIP3   OH230148   4.810   3.519   1.292 -0.3437  0.0532  0.0054
 2838TIP3    H130149   4.894   3.505   1.247  0.2162  2.6391  0.1079
 2838TIP3    H230150   4.833   3.531   1.384 -0.0787  5.1821 -0.4553
 2839TIP3   OH230151   6.911   5.154   0.920  0.1935 -0.2481 -0.1664
 2839TIP3    H130152   6.891   5.115   1.005 -0.0381  1.0291  0.3979
 2839TIP3    H230153   6.862   5.101   0.857 -0.5157 -0.5503  0.6150
 2840TIP3   OH230154   1.489   3.890   8.053 -0.8217  0.2794  0.9775
 2840TIP3    H130155   1.475   3.984   8.037 -2.2578  0.4794  3.0466
 2840TIP3    H230156   1.576   3.873   8.017  1.0256  3.2342  3.4962
 2841TIP3   OH230157   3.389   2.373   2.256  0.0354  0.6400 -0.4435
 2841TIP3    H130158   3.425   2.462   2.256  1.2904  0.1636  0.0872
 2841TIP3    H230159   3.363   2.358   2.166  2.9575  0.3880 -1.3672
 2842TIP3   OH230160   6.396   3.078   7.679 -0.7335  0.4429 -0.1898
 2842TIP3    H130161   6.414   3.092   7.772  0.2385 -2.8447  0.2631
 2842TIP3    H230162   6.301   3.092   7.671 -0.8985  0.4846  1.3722
 2843TIP3   OH230163   6.167   6.855   8.357 -0.8884 -0.2933 -0.3259
 2843TIP3    H130164   6.124   6.816   8.280 -0.1814 -1.7695 -0.0179
 2843TIP3    H230165   6.172   6.783   8.420  1.1963  0.0463 -0.0262
 2844TIP3   OH230166   1.868   6.233   2.021 -0.1061  0.2871 -1.0232
 2844TIP3    H130167   1.875   6.325   2.047  0.4612 -0.0544  0.0843
 2844TIP3    H230168   1.789   6.201   2.064 -0.1553  0.1869 -1.1858
 2845TIP3   OH230169   2.176   1.941   2.954  0.1663  0.3513  0.0075
 2845TIP3    H130170   2.083   1.955   2.973  0.1041  0.7103 -0.5458
 2845TIP3    H230171   2.179   1.853   2.916 -0.1736  0.9440 -1.4427
 2846TIP3   OH230172   1.713   1.038   0.034  0.6238  0.4466  0.4997
 2846TIP3    H130173   1.709   1.123   0.076  1.4526  0.4554  0.5721
 2846TIP3    H230174   1.784   1.045  -0.030 -0.9548  0.6152 -1.3454
 2847TIP3   OH230175   0.006   2.472   0.479 -0.4999  0.9075 -0.2448
 2847TIP3    H130176  -0.034   2.389   0.456 -1.2680  0.9906  0.7261
 2847TIP3    H230177   0.095   2.467   0.443 -0.3709 -0.5312  0.2270
 2848TIP3   OH230178   6.105   6.497   1.418  0.4099 -0.1988  0.2762
 2848TIP3    H130179   6.083   6.590   1.425  0.7672 -0.0141 -0.7930
 2848TIP3    H230180   6.193   6.491   1.455 -0.5611 -0.5877  2.7008
 2849TIP3   OH230181   1.196   1.037   0.094  0.3834 -0.3730  0.2253
 2849TIP3    H130182   1.278   0.991   0.113 -0.3674 -3.0776 -2.4409
 2849TIP3    H230183   1.129   0.987   0.140 -0.4613 -2.3170 -2.8323
 2850TIP3   OH230184   1.000   1.074   0.597 -0.3318  0.0954 -0.3597
 2850TIP3    H130185   1.007   1.168   0.579  1.2745 -0.0613 -0.7648
 2850TIP3    H230186   0.909   1.061   0.624 -0.5741  1.7718 -0.2465
 2851TIP3   OH230187   4.303   2.450   7.049  0.0044 -0.1513 -0.0328
 2851TIP3    H130188   4.280   2.542   7.039  0.5509 -0.2087 -2.1098
 2851TIP3    H230189   4.227   2.402   7.016 -0.2331 -0.4890  0.9414
 2852TIP3   OH230190   5.960   4.334   2.013  0.5838  0.0033 -0.3308
 2852TIP3    H130191   5.919   4.404   1.963 -1.8560  0.0268  1.5271
 2852TIP3    H230192   5.944   4.255   1.962 -2.1686 -0.0280  0.4589
 2853TIP3   OH230193   2.634   6.300   2.094  0.4910 -0.2575 -0.0610
 2853TIP3    H130194   2.650   6.225   2.037  1.0091 -0.7146  0.6551
 2853TIP3    H230195   2.570   6.353   2.048  1.7430 -0.0078 -1.6008
 2854TIP3   OH230196   5.778   1.760   7.467 -0.3020  0.5217 -0.4762
 2854TIP3    H130197   5.846   1.805   7.417 -0.1180 -0.3543 -1.0485
 2854TIP3    H230198   5.820   1.735   7.549  0.4960 -1.1276 -1.3294
 2855TIP3   OH230199   0.715   6.756   8.119 -0.2635 -0.6793 -0.5637
 2855TIP3    H130200   0.642   6.701   8.146 -0.3556 -0.1123  0.3942
 2855TIP3    H230201   0.773   6.698   8.070 -2.1427 -0.7794 -2.8568
 2856TIP3   OH230202   6.681   4.245   0.809 -0.0334 -0.8288  0.3205
 2856TIP3    H130203   6.682   4.322   0.866  0.5050 -0.9374  0.4708
 2856TIP3    H230204   6.691   4.171   0.869 -0.5184 -1.0157  0.1757
 2857TIP3   OH230205   0.636   3.744   7.388  0.4824 -0.3855  0.3356
 2857TIP3    H130206   0.541   3.748   7.374  0.2823  3.1485  1.8296
 2857TIP3    H230207   0.648   3.674   7.452 -1.0006 -1.3196 -0.3522
 2858TIP3   OH230208   1.153   4.157   2.292 -0.1413  0.8724 -0.1411
 2858TIP3    H130209   1.197   4.167   2.208 -1.1137  1.1720 -0.6265
 2858TIP3    H230210   1.146   4.246   2.326 -2.5789  1.1623 -1.2361
 2859TIP3   OH230211   1.390   6.262   0.487 -0.0706  0.1067  0.2264
 2859TIP3    H130212   1.392   6.212   0.568  1.4016  0.3117  0.3362
 2859TIP3    H230213   1.337   6.209   0.427  1.5843 -1.6970  0.2763
 2860TIP3   OH230214   0.460   5.236   8.030  0.2034 -0.5027  0.0036
 2860TIP3    H130215   0.555   5.232   8.035  0.3123 -0.9412 -1.8142
 2860TIP3    H230216   0.441   5.254   7.939 -1.4923 -4.4277 -0.6519
 2861TIP3   OH230217   5.218   0.936   8.273  0.1392 -0.7644  0.1063
 2861TIP3    H130218   5.179   0.936   8.186  0.3048 -0.4043  0.0293
 2861TIP3    H230219   5.293   0.995   8.266 -0.4516  0.0888  0.7543
 2862TIP3   OH230220   5.818   2.029   0.700 -0.2624  0.0252  0.1352
 2862TIP3    H130221   5.875   2.053   0.773  1.2445 -3.0914  0.1871
 2862TIP3    H230222   5.847   2.084   0.628 -0.3433  1.6937  1.3141
 2863TIP3   OH230223   5.831   0.783   8.058 -0.1823  0.1957  0.3028
 2863TIP3    H130224   5.842   0.870   8.095  0.9915  0.5251 -0.7476
 2863TIP3    H230225   5.865   0.724   8.125  1.7851  0.7724 -0.1202
 2864TIP3   OH230226   5.538   1.743   8.091 -0.2247  0.5236 -0.6121
 2864TIP3    H130227   5.570   1.656   8.066 -2.0806 -0.7654  1.1410
 2864TIP3    H230228   5.504   1.781   8.010  1.4484  0.0577 -1.5848
 2865TIP3   OH230229   2.934   5.167   0.033  0.1374 -0.3107  0.4901
 2865TIP3    H130230   3.001   5.122  -0.018  1.9129 -0.3044  2.6374
 2865TIP3    H230231   2.907   5.104   0.099 -0.5114  0.3586  0.8855
 2866TIP3   OH230232   3.715   5.500   0.719 -0.2203 -0.3808 -0.9425
 2866TIP3    H130233   3.688   5.530   0.806 -1.0283  2.4814 -2.0750
 2866TIP3    H230234   3.647   5.437   0.693 -0.8554 -0.0487 -0.1421
 2867TIP3   OH230235   6.619   3.686   1.005 -0.3987 -0.3614 -0.4218
 2867TIP3    H130236   6.625   3.633   1.085  1.0744  0.8407  0.3321
 2867TIP3    H230237   6.568   3.763   1.031  1.3046  0.7349 -0.1766
 2868TIP3   OH230238   0.574   6.573   2.143 -0.2856 -0.1769  0.0817
 2868TIP3    H130239   0.620   6.563   2.226 -0.0575 -2.0430 -0.2150
 2868TIP3    H230240   0.518   6.495   2.138 -1.8035  0.9070 -0.6082
 2869TIP3   OH230241   2.512   4.162   1.125 -0.4868  0.1047  0.4146
 2869TIP3    H130242   2.583   4.199   1.073 -0.0970 -0.6141  0.4202
 2869TIP3    H230243   2.522   4.203   1.211 -0.5324  0.5539  0.2114
 2870TIP3   OH230244   5.858   0.373   1.783 -0.0282  0.5210  0.5566
 2870TIP3    H130245   5.852   0.415   1.697 -0.3370 -1.5362 -0.5128
 2870TIP3    H230246   5.786   0.309   1.783  0.3416  0.0657  2.1060
 2871TIP3   OH230247   0.685   3.853   8.010 -0.2803 -0.6328 -0.0151
 2871TIP3    H130248   0.614   3.908   8.042  0.0053 -1.0078  1.2874
 2871TIP3    H230249   0.760   3.913   8.001 -0.0536 -0.7264  1.1135
 2872TIP3   OH230250   3.657   6.499   7.723 -0.0479 -0.0361  0.5724
 2872TIP3    H130251   3.602   6.424   7.746  1.5051 -1.3282  0.1945
 2872TIP3    H230252   3.653   6.555   7.800 -1.9070 -0.0623  0.5420
 2873TIP3   OH230253   4.161   6.872   1.400 -0.1400  0.0552 -0.0292
 2873TIP3    H130254   4.100   6.946   1.403 -1.5122 -1.0811  1.5726
 2873TIP3    H230255   4.205   6.874   1.485 -0.7932 -1.4373  0.3676
 2874TIP3   OH230256   1.506   6.154   1.241  0.1691  0.1287  0.5552
 2874TIP3    H130257   1.456   6.093   1.296 -0.3310  0.5889  0.6256
 2874TIP3    H230258   1.541   6.218   1.302  0.2035  0.2394  0.4192
 2875TIP3   OH230259   1.363   1.153   1.647 -0.1482 -0.0468 -0.4882
 2875TIP3    H130260   1.451   1.180   1.674 -0.1084  0.2136 -0.8608
 2875TIP3    H230261   1.313   1.150   1.728  0.0779  0.2937 -0.3303
 2876TIP3   OH230262   1.239   2.782   2.141 -0.0673 -0.2101  0.1959
 2876TIP3    H130263   1.294   2.858   2.121 -1.3448  0.9342  0.8555
 2876TIP3    H230264   1.225   2.787   2.235 -0.7623 -0.8505  0.1351
 2877TIP3   OH230265   5.443   2.279   2.348 -0.2629 -0.2685 -0.1924
 2877TIP3    H130266   5.348   2.285   2.356 -0.3355 -1.4512  0.0466
 2877TIP3    H230267   5.473   2.257   2.437  0.1568 -0.6398 -0.4215
 2878TIP3   OH230268   3.780   1.602   0.500 -0.4096  0.0086 -0.4179
 2878TIP3    H130269   3.837   1.671   0.469  0.2873 -0.0927  0.5815
 2878TIP3    H230270   3.839   1.532   0.528 -1.0361 -0.3225  0.1302
 2879TIP3   OH230271   3.025   5.526   0.062  0.3258  0.1691  0.1998
 2879TIP3    H130272   3.089   5.512  -0.008 -0.3391  0.1390 -0.4210
 2879TIP3    H230273   3.037   5.617   0.088  0.7713  0.0968  0.2439
 2880TIP3   OH230274   0.532   5.831   8.044  0.2415 -0.6734 -0.0778
 2880TIP3    H130275   0.490   5.750   8.014  0.9579 -1.6629  1.4736
 2880TIP3    H230276   0.458   5.887   8.070 -0.3620 -0.0503 -2.8485
 2881TIP3   OH230277   0.740   5.852   7.425 -0.6171  0.3842  0.0683
 2881TIP3    H130278   0.700   5.935   7.400 -2.0069 -0.6368 -1.3693
 2881TIP3    H230279   0.790   5.825   7.347  1.0921  0.5567  1.0518
 2882TIP3   OH230280   0.910   1.670   7.436 -0.0451 -0.2852  0.3480
 2882TIP3    H130281   0.882   1.761   7.431 -0.3386 -0.3834  0.2249
 2882TIP3    H230282   0.836   1.620   7.403  0.3433 -0.5314 -0.1579
 2883TIP3   OH230283   4.866   0.727   1.015 -0.6165 -0.1154 -0.0592
 2883TIP3    H130284   4.820   0.802   1.054  0.0691  0.3140 -0.0565
 2883TIP3    H230285   4.797   0.667   0.989 -1.1174 -0.3215  1.6263
 2884TIP3   OH230286   5.059   1.597   2.048  0.2513  0.2554 -0.0804
 2884TIP3    H130287   5.110   1.531   2.000 -1.3933 -0.1109 -1.4423
 2884TIP3    H230288   5.090   1.590   2.138 -1.0783 -3.8009  0.2976
 2885TIP3   OH230289   3.197   2.196   7.806 -0.0772  0.1028  0.1021
 2885TIP3    H130290   3.222   2.286   7.790  0.3439 -0.1009 -0.3960
 2885TIP3    H230291   3.224   2.148   7.728 -3.0039  0.0280 -1.0139
 2886TIP3   OH230292   4.583   3.136   0.193  0.0953 -0.0560 -0.4971
 2886TIP3    H130293   4.545   3.215   0.234  0.8592  0.2622 -0.3820
 2886TIP3    H230294   4.665   3.122   0.241  0.1436 -0.7082 -0.7692
 2887TIP3   OH230295   2.455   0.970   2.361  0.1425  0.0801 -0.3961
 2887TIP3    H130296   2.460   0.875   2.369 -1.7143  0.1165  2.5544
 2887TIP3    H230297   2.376   0.986   2.309 -0.6208 -0.0284  0.6944
 2888TIP3   OH230298   2.320   3.523   7.635 -0.2608  0.5254  0.1217
 2888TIP3    H130299   2.254   3.584   7.669 -0.4256 -0.1022  0.9547
 2888TIP3    H230300   2.356   3.481   7.713 -1.3642 -1.6903 -0.4744
 2889TIP3   OH230301   3.815   1.145   1.761  0.2723  0.2056  0.0605
 2889TIP3    H130302   3.899   1.118   1.725 -0.0145  1.0105 -1.2649
 2889TIP3    H230303   3.776   1.200   1.693  0.1464  2.6788  1.9658
 2890TIP3   OH230304   0.193   5.222   2.350  0.0117 -0.4704  0.0175
 2890TIP3    H130305   0.118   5.254   2.399 -0.3866 -0.8483 -0.3331
 2890TIP3    H230306   0.236   5.160   2.408  0.3524  0.1286  0.4133
 2891TIP3   OH230307   1.572   6.435   2.181  0.0643  0.3232  0.2550
 2891TIP3    H130308   1.560   6.340   2.181 -0.5183  0.3610  1.7829
 2891TIP3    H230309   1.665   6.447   2.162  0.2452 -0.5830  0.4877
 2892TIP3   OH230310   1.446   4.308   1.090  0.1676 -0.4840 -0.1875
 2892TIP3    H130311   1.404   4.234   1.134  1.3165 -0.7844  0.4425
 2892TIP3    H230312   1.534   4.277   1.069  0.7090  0.7292  0.1955
 2893TIP3   OH230313   3.691   6.117   1.777 -0.2671 -0.4079 -0.3303
 2893TIP3    H130314   3.677   6.204   1.814  1.0849 -0.2823 -0.0745
 2893TIP3    H230315   3.604   6.088   1.749 -0.9529  0.4283  0.8893
 2894TIP3   OH230316   5.427   2.503   0.544 -0.1057  0.3432 -0.0278
 2894TIP3    H130317   5.502   2.562   0.539 -0.4757  0.7254 -1.5517
 2894TIP3    H230318   5.444   2.448   0.620  0.2619  2.3923  1.4471
 2895TIP3   OH230319   0.512   1.959   7.777  0.3370 -0.3998  0.2583
 2895TIP3    H130320   0.584   1.912   7.735 -0.5956  0.6629 -2.7577
 2895TIP3    H230321   0.543   2.049   7.784  0.4865 -0.5519  2.0387
 2896TIP3   OH230322   5.521   1.202   2.211  0.1455  0.8914 -0.0817
 2896TIP3    H130323   5.527   1.124   2.266 -0.0026 -1.2629 -2.8961
 2896TIP3    H230324   5.451   1.254   2.251 -1.1926 -1.4086  0.7575
 2897TIP3   OH230325   2.430   6.717   1.602 -0.0781  0.3309  0.1138
 2897TIP3    H130326   2.354   6.658   1.604 -1.0955  1.5889  2.0475
 2897TIP3    H230327   2.422   6.764   1.519 -1.1239  0.0756  0.0550
 2898TIP3   OH230328   5.244   5.274   1.537 -0.5369  0.1552 -0.4874
 2898TIP3    H130329   5.201   5.308   1.615 -1.3366  1.2583 -1.3704
 2898TIP3    H230330   5.182   5.291   1.466  0.7252  0.3877 -1.5742
 2899TIP3   OH230331   2.954   4.077   3.020  0.3401 -0.0284 -0.6757
 2899TIP3    H130332   2.910   3.993   3.035  0.9428 -0.1316  0.7043
 2899TIP3    H230333   2.888   4.143   3.040  0.6961 -0.1815  1.2059
 2900TIP3   OH230334   0.772   1.109   0.751 -0.0365  0.0200 -0.2750
 2900TIP3    H130335   0.698   1.061   0.788  0.7520 -0.6082  0.5231
 2900TIP3    H230336   0.791   1.177   0.815 -0.9154  1.2087 -1.2327
 2901TIP3   OH230337   5.288   3.418   0.832  0.2439 -0.2199  0.0893
 2901TIP3    H130338   5.197   3.441   0.848 -0.0569  0.3483 -2.0972
 2901TIP3    H230339   5.338   3.494   0.862 -0.1794  0.3137 -0.5337
 2902TIP3   OH230340   2.717   6.280   7.718 -0.1782  0.0578  0.6649
 2902TIP3    H130341   2.699   6.362   7.764  0.7826  0.6404  0.0428
 2902TIP3    H230342   2.631   6.249   7.689 -0.3849  1.9565 -0.9296
 2903TIP3   OH230343   2.319   4.038   2.217  0.5194  0.0772  0.1846
 2903TIP3    H130344   2.290   4.010   2.304  1.1264 -1.5939 -0.1180
 2903TIP3    H230345   2.237   4.052   2.169  0.1612 -0.9391  0.4567
 2904TIP3   OH230346   4.660   6.824   1.714  0.1754 -0.3456 -0.6422
 2904TIP3    H130347   4.709   6.891   1.761 -0.3567 -0.9191  0.7749
 2904TIP3    H230348   4.715   6.745   1.721 -0.6603 -0.8509  0.4803
 2905TIP3   OH230349   2.095   4.556   1.179  0.6047  0.0512 -0.4039
 2905TIP3    H130350   2.040   4.614   1.233  0.9792 -0.4930  0.5982
 2905TIP3    H230351   2.054   4.557   1.093 -0.2883  0.5898  0.0140
 2906TIP3   OH230352   4.996   4.474   1.485  0.0507 -0.1594  0.3259
 2906TIP3    H130353   5.089   4.496   1.496 -0.1188  0.4751  0.5466
 2906TIP3    H230354   4.972   4.433   1.568 -0.5315  2.1309  1.3538
 2907TIP3   OH230355   2.168   1.651   2.830  0.8283  0.6834  0.1529
 2907TIP3    H130356   2.078   1.665   2.859  1.0104  1.1765  0.4902
 2907TIP3    H230357   2.186   1.559   2.852  0.0770  0.2769 -0.8376
 2908TIP3   OH230358   4.811   3.446   1.890 -0.1498  0.4059  0.1545
 2908TIP3    H130359   4.847   3.358   1.891 -0.9225  0.0619 -0.9274
 2908TIP3    H230360   4.848   3.488   1.968  2.4654  0.0631 -0.8167
 2909TIP3   OH230361   6.747   1.119   7.714 -0.3362 -0.5107 -0.0206
 2909TIP3    H130362   6.753   1.198   7.768  1.7723 -0.8501  0.3127
 2909TIP3    H230363   6.777   1.146   7.627 -2.4977 -0.2743 -0.7473
 2910TIP3   OH230364   1.541   6.117   1.622 -0.0513  0.2661  0.4729
 2910TIP3    H130365   1.491   6.042   1.653 -0.9056  0.6332  0.0207
 2910TIP3    H230366   1.569   6.093   1.534  0.2217  0.2189  0.5738
 2911TIP3   OH230367   0.440   5.588   0.182  0.6602  0.0433  0.3330
 2911TIP3    H130368   0.389   5.591   0.262  1.4908  1.6621  0.8524
 2911TIP3    H230369   0.418   5.504   0.142  0.2858 -0.8489  2.2898
 2912TIP3   OH230370   5.952   5.693   7.686 -0.0327  0.3890  0.1357
 2912TIP3    H130371   5.894   5.689   7.761 -0.5462  2.0900 -0.1245
 2912TIP3    H230372   6.029   5.742   7.717  0.4367 -0.2323 -0.0303
 2913TIP3   OH230373   4.903   5.284   0.827  0.6380 -0.1119  0.3587
 2913TIP3    H130374   4.963   5.333   0.884  1.8688 -1.3856  0.2289
 2913TIP3    H230375   4.882   5.345   0.757  1.4937  0.5026  0.6100
 2914TIP3   OH230376   4.513   4.598   7.811  0.5269 -0.3777 -0.0462
 2914TIP3    H130377   4.485   4.507   7.825  2.4037 -0.9463  0.2770
 2914TIP3    H230378   4.528   4.604   7.717  0.0168 -0.2672 -0.1250
 2915TIP3   OH230379   4.086   3.880   1.734 -0.6537  0.0417 -0.1352
 2915TIP3    H130380   4.145   3.817   1.692  0.2919  1.1851 -0.6001
 2915TIP3    H230381   4.091   3.860   1.827 -1.5109 -1.4902 -0.3857
 2916TIP3   OH230382   0.552   0.680   1.418 -0.0684  0.0586 -0.2746
 2916TIP3    H130383   0.533   0.659   1.327 -0.5217  0.2408 -0.2261
 2916TIP3    H230384   0.635   0.726   1.416 -0.0810  0.0658 -0.5987
 2917TIP3   OH230385   2.189   4.555   7.506 -0.2925 -0.2832  0.0326
 2917TIP3    H130386   2.166   4.604   7.585 -1.2042  0.8480 -0.8814
 2917TIP3    H230387   2.116   4.494   7.494 -1.3289  1.1064 -1.1237
 2918TIP3   OH230388   0.822   0.740   1.284 -0.3669 -0.9497  0.5436
 2918TIP3    H130389   0.908   0.704   1.265  0.4992  1.6872 -0.9695
 2918TIP3    H230390   0.839   0.814   1.343 -1.6324 -0.5877  0.4884
 2919TIP3   OH230391   1.506   5.580   0.494 -0.1132  0.0830  0.3547
 2919TIP3    H130392   1.592   5.573   0.533 -1.0454  0.6074  2.6619
 2919TIP3    H230393   1.491   5.675   0.485 -0.4750 -0.0015  0.0213
 2920TIP3   OH230394   5.461   6.893   0.291 -0.2632 -0.8784 -0.2285
 2920TIP3    H130395   5.423   6.850   0.215  2.9243 -1.9956 -1.3285
 2920TIP3    H230396   5.478   6.983   0.263 -2.0992 -0.2812  0.3638
 2921TIP3   OH230397   4.086   4.250   8.505  0.7620 -0.0179  0.7661
 2921TIP3    H130398   4.160   4.255   8.565  1.2072 -0.6086  0.2794
 2921TIP3    H230399   4.028   4.185   8.544  1.1515 -0.5590  0.4690
 2922TIP3   OH230400   6.435   4.115   0.481 -0.1417 -0.2238  0.7760
 2922TIP3    H130401   6.464   4.027   0.505 -0.9153  0.0444  2.9356
 2922TIP3    H230402   6.362   4.101   0.422 -0.3156 -1.0580  1.1654
 2923TIP3   OH230403   4.345   4.784   7.967 -0.9878  0.2165 -0.1467
 2923TIP3    H130404   4.393   4.711   7.928 -3.7919 -0.9307 -1.6752
 2923TIP3    H230405   4.412   4.832   8.016  1.8226 -0.9300 -2.5532
 2924TIP3   OH230406   0.227   5.317   8.143 -0.2993 -0.1741 -0.3530
 2924TIP3    H130407   0.218   5.410   8.164 -0.9371 -0.3352  0.0913
 2924TIP3    H230408   0.316   5.309   8.109 -0.1760  0.5655 -0.2141
 2925TIP3   OH230409   0.261   4.312   1.616 -0.0956 -0.3595 -0.1393
 2925TIP3    H130410   0.270   4.361   1.534 -0.5104 -0.3373 -0.1712
 2925TIP3    H230411   0.182   4.346   1.657  1.3918  1.4126  1.4857
 2926TIP3   OH230412   1.328   3.895   0.752  0.3439 -0.0653  0.0394
 2926TIP3    H130413   1.390   3.959   0.789 -0.3191 -0.0122  1.0996
 2926TIP3    H230414   1.370   3.811   0.767  0.3867  0.0036  0.3198
 2927TIP3   OH230415   4.463   5.116   8.297  0.7457 -0.3504  0.0300
 2927TIP3    H130416   4.397   5.047   8.285  2.2186 -1.5366 -1.9983
 2927TIP3    H230417   4.538   5.069   8.334  1.4921  0.3306 -0.6081
 2928TIP3   OH230418   5.860   6.840   1.455 -0.5028  0.1680  0.7673
 2928TIP3    H130419   5.907   6.855   1.373  0.8879 -0.5854  1.3799
 2928TIP3    H230420   5.818   6.755   1.443 -0.9859  0.4401  0.5342
 2929TIP3   OH230421   1.215   0.347   7.697 -0.2213 -0.0966  0.3482
 2929TIP3    H130422   1.211   0.327   7.790 -0.4071  1.3187  0.6598
 2929TIP3    H230423   1.166   0.429   7.688 -1.6053 -1.0275 -1.2336
 2930TIP3   OH230424   2.362   1.327   1.561  0.1520  0.3365 -0.4745
 2930TIP3    H130425   2.274   1.366   1.560  0.1783  0.5008 -3.0054
 2930TIP3    H230426   2.348   1.237   1.530  0.7478  0.0034  0.2155
 2931TIP3   OH230427   3.221   5.205   8.299  0.3354  0.1223 -0.0403
 2931TIP3    H130428   3.173   5.251   8.230  0.0553 -0.1628 -0.0400
 2931TIP3    H230429   3.252   5.275   8.357  0.1949  0.3336 -0.2161
 2932TIP3   OH230430   5.955   6.718   2.407 -0.1080  0.4266  0.2145
 2932TIP3    H130431   5.945   6.739   2.500  1.1971  0.2580  0.4152
 2932TIP3    H230432   6.046   6.737   2.388 -0.3751  0.5053 -1.0583
 2933TIP3   OH230433   4.941   5.563   2.653  0.5468  0.4591 -0.2377
 2933TIP3    H130434   4.877   5.497   2.626  1.9335 -0.2310 -2.0039
 2933TIP3    H230435   4.897   5.611   2.724 -2.6438  1.1364 -2.4338
 2934TIP3   OH230436   6.896   3.908   7.532 -0.3764  0.3736 -0.1298
 2934TIP3    H130437   6.971   3.865   7.574 -0.3271  1.5923  1.0870
 2934TIP3    H230438   6.836   3.836   7.512  0.6302 -0.4963 -0.1049
 2935TIP3   OH230439   6.264   6.477   8.272 -0.0614  0.2462  0.2551
 2935TIP3    H130440   6.295   6.544   8.212 -1.1347 -1.4233 -2.3568
 2935TIP3    H230441   6.195   6.520   8.322  0.6523  1.6101  0.1250
 2936TIP3   OH230442   2.551   6.270   0.414 -0.0015 -0.1839 -0.4745
 2936TIP3    H130443   2.524   6.205   0.479  1.2829 -0.2897 -0.0226
 2936TIP3    H230444   2.476   6.330   0.408  0.3652  0.6997  2.2448
 2937TIP3   OH230445   2.900   6.048   1.479  0.1064  0.0899 -0.3639
 2937TIP3    H130446   2.815   6.015   1.449  0.2098  0.0529 -0.6232
 2937TIP3    H230447   2.962   5.980   1.452  0.1551 -0.1373  0.2954
 2938TIP3   OH230448   4.269   2.676   0.837 -0.4835  0.3407 -0.0807
 2938TIP3    H130449   4.218   2.724   0.902  0.0493  0.4277  0.2772
 2938TIP3    H230450   4.324   2.742   0.794 -0.9578  0.3127 -0.7466
 2939TIP3   OH230451   6.503   2.456   6.478  0.1729  0.2655  0.0166
 2939TIP3    H130452   6.456   2.378   6.449 -0.1837  1.0844 -1.7479
 2939TIP3    H230453   6.586   2.452   6.431 -0.0473  1.1795 -0.4606
 2940TIP3   OH230454   2.133   4.212   8.091  0.0738 -0.4811  0.2051
 2940TIP3    H130455   2.174   4.207   8.005  2.1444  1.4021  0.9938
 2940TIP3    H230456   2.116   4.306   8.104  0.5375 -0.6304  2.1534
 2941TIP3   OH230457   3.985   0.699   0.318  0.9829 -0.3094 -0.0676
 2941TIP3    H130458   4.042   0.644   0.265  2.9533  2.2023 -0.7259
 2941TIP3    H230459   3.914   0.725   0.259  0.7816 -1.0254 -0.1472
 2942TIP3   OH230460   6.905   4.300   7.998  0.3482 -0.0038 -0.0439
 2942TIP3    H130461   6.854   4.299   7.918 -1.0130  0.7945  0.7791
 2942TIP3    H230462   6.854   4.248   8.060  1.9582 -1.6210  0.0185
 2943TIP3   OH230463   3.774   6.198   2.266  0.2109 -0.8664  0.6127
 2943TIP3    H130464   3.798   6.209   2.174  0.6210 -1.7738  0.5957
 2943TIP3    H230465   3.732   6.112   2.269  1.7210 -1.6133  1.5563
 2944TIP3   OH230466   5.031   1.218   2.445 -0.3843  0.8435  0.2657
 2944TIP3    H130467   5.064   1.144   2.496 -0.4119 -1.4414 -2.7772
 2944TIP3    H230468   4.935   1.210   2.450 -0.4365 -0.8887 -1.9277
 2945TIP3   OH230469   5.827   2.160   8.213 -0.3638  0.5972  0.6971
 2945TIP3    H130470   5.759   2.094   8.202 -0.3630  0.7483 -0.2525
 2945TIP3    H230471   5.901   2.112   8.251 -1.4217  0.6927  3.0554
 2946TIP3   OH230472   2.382   0.090   0.079  0.4066  0.3676 -0.3155
 2946TIP3    H130473   2.367   0.153   0.150  0.7207  0.3544 -0.2366
 2946TIP3    H230474   2.322   0.018   0.098  1.1169 -0.0477  0.4443
 2947TIP3   OH230475   3.788   6.949   7.252  0.5569  0.3464 -0.1765
 2947TIP3    H130476   3.793   6.910   7.165 -1.0411 -0.2821 -0.0263
 2947TIP3    H230477   3.756   7.038   7.237 -0.1020  0.1068 -0.2123
 2948TIP3   OH230478   6.049   0.460   6.975  0.4135 -0.2258 -0.3723
 2948TIP3    H130479   6.035   0.371   6.944 -0.3168  0.3346 -1.7781
 2948TIP3    H230480   5.966   0.505   6.958  1.0655  0.9486 -0.6035
 2949TIP3   OH230481   6.404   4.580   0.383  0.2222  0.2517  0.0586
 2949TIP3    H130482   6.455   4.629   0.318 -0.2679 -0.0383 -0.5455
 2949TIP3    H230483   6.422   4.488   0.364  1.0251  0.1703  1.1053
 2950TIP3   OH230484   2.016   5.137   1.310 -0.1977 -0.2546  0.3714
 2950TIP3    H130485   2.028   5.205   1.376 -2.1302 -0.6088  1.1397
 2950TIP3    H230486   2.011   5.184   1.227 -0.4988  0.4468  0.7805
 2951TIP3   OH230487   5.207   6.031   7.808  0.9452  0.5784 -0.7372
 2951TIP3    H130488   5.121   6.003   7.776 -0.2246  1.8055  1.1067
 2951TIP3    H230489   5.224   6.113   7.762 -0.6679  2.2647  1.4250
 2952TIP3   OH230490   3.462   2.632   2.336 -0.0997  0.3158  0.4063
 2952TIP3    H130491   3.468   2.710   2.282 -2.7186 -0.3934 -1.0870
 2952TIP3    H230492   3.434   2.663   2.421 -0.6985  1.0540 -0.0519
 2953TIP3   OH230493   1.603   4.281   7.016 -0.2170  0.2834  0.5715
 2953TIP3    H130494   1.695   4.276   6.989  0.0164  0.6739  1.2712
 2953TIP3    H230495   1.589   4.201   7.067 -0.5593 -0.2816 -0.3960
 2954TIP3   OH230496   4.301   3.302   7.779  0.7580  0.1125 -0.0937
 2954TIP3    H130497   4.338   3.233   7.835  0.3150  0.4863  0.6874
 2954TIP3    H230498   4.263   3.255   7.705 -0.0928 -0.5527  0.7420
 2955TIP3   OH230499   1.221   3.849   7.492 -0.3812  0.0508  0.3128
 2955TIP3    H130500   1.147   3.831   7.433 -0.0662 -1.8443  0.4330
 2955TIP3    H230501   1.298   3.836   7.437 -0.0829 -1.7436  1.0970
 2956TIP3   OH230502   6.550   1.183   1.209  0.7640  0.5217 -0.2712
 2956TIP3    H130503   6.555   1.095   1.246  1.6504  0.9168  0.5993
 2956TIP3    H230504   6.621   1.185   1.144 -0.0486  0.2059 -1.1895
 2957TIP3   OH230505   6.188   6.497   7.201  0.0511 -0.3368 -0.3989
 2957TIP3    H130506   6.155   6.537   7.121  1.2029  0.4681 -0.5064
 2957TIP3    H230507   6.181   6.566   7.267 -1.0081 -1.0308  0.2587
 2958TIP3   OH230508   3.288   4.076   3.100  0.3490 -0.2860 -0.1915
 2958TIP3    H130509   3.319   4.151   3.150 -0.2412 -0.3721  0.3139
 2958TIP3    H230510   3.324   4.000   3.145 -0.4292 -0.3791  0.3070
 2959TIP3   OH230511   1.346   4.887   2.766 -0.5012  0.4684 -0.0394
 2959TIP3    H130512   1.421   4.930   2.724 -0.7048 -0.0189 -0.9259
 2959TIP3    H230513   1.386   4.817   2.818 -0.3454 -0.1966 -1.0042
 2960TIP3   OH230514   4.053   2.930   8.296  1.1748  0.5737  0.6406
 2960TIP3    H130515   4.116   2.859   8.285  0.5009  0.1591 -0.7841
 2960TIP3    H230516   4.014   2.941   8.210 -0.5080  0.9952  1.4103
 2961TIP3   OH230517   1.948   1.223   2.875  0.2035 -0.2113  0.0638
 2961TIP3    H130518   1.933   1.151   2.936  0.5032 -0.7640 -0.5094
 2961TIP3    H230519   1.894   1.202   2.800 -0.6667  0.8021  0.3902
 2962TIP3   OH230520   4.631   4.048   7.422  0.0027  0.4919  0.2263
 2962TIP3    H130521   4.558   4.004   7.380  0.7368 -0.8468  0.2840
 2962TIP3    H230522   4.708   4.016   7.375  0.5527  1.9371  0.1115
 2963TIP3   OH230523   5.527   2.189   2.885  0.6316 -0.3195 -0.0290
 2963TIP3    H130524   5.472   2.166   2.960  0.0884  0.2671 -0.2325
 2963TIP3    H230525   5.494   2.275   2.858 -0.0297 -1.0769 -1.7371
 2964TIP3   OH230526   3.896   6.661   0.233 -0.2605 -0.6362 -0.1668
 2964TIP3    H130527   3.864   6.607   0.305  1.2005 -1.1149  0.1654
 2964TIP3    H230528   3.883   6.608   0.155  0.7687 -1.3227  0.1080
 2965TIP3   OH230529   1.970   6.930   2.311 -0.4305  0.6705  0.3252
 2965TIP3    H130530   1.906   6.998   2.289 -0.6496  1.2951  2.6482
 2965TIP3    H230531   2.050   6.956   2.266 -0.5200  2.4939  1.1556
 2966TIP3   OH230532   2.473   6.611   7.998 -0.4240 -0.2531 -0.3104
 2966TIP3    H130533   2.421   6.678   7.953 -0.1983 -0.3162 -0.6597
 2966TIP3    H230534   2.531   6.661   8.056 -0.3534 -0.1538 -0.4670
 2967TIP3   OH230535   1.582   0.393   6.760  0.5980 -0.2964  0.1716
 2967TIP3    H130536   1.489   0.372   6.773  1.1091 -2.3235  1.0707
 2967TIP3    H230537   1.607   0.442   6.839  0.2636  0.4358 -0.1690
 2968TIP3   OH230538   3.421   5.127   1.276  0.0081 -0.8511  0.2724
 2968TIP3    H130539   3.364   5.153   1.349  0.6346 -2.0656  1.2463
 2968TIP3    H230540   3.378   5.049   1.239 -0.4097 -0.1257 -0.8060
 2969TIP3   OH230541   0.606   2.107   0.049  0.4063  0.7373  0.4033
 2969TIP3    H130542   0.681   2.167   0.044 -0.3375  1.6253 -0.7739
 2969TIP3    H230543   0.601   2.068  -0.038 -0.9037  1.2215  0.2368
 2970TIP3   OH230544   0.515   4.652   0.733 -0.1978 -0.3614  0.1146
 2970TIP3    H130545   0.466   4.653   0.815 -1.0291  1.7741 -0.3693
 2970TIP3    H230546   0.469   4.588   0.678  0.6007 -2.1109  1.3869
 2971TIP3   OH230547   2.114   3.777   1.610 -0.2984  0.1016 -0.5245
 2971TIP3    H130548   2.150   3.841   1.548 -1.4168 -0.9986 -2.4012
 2971TIP3    H230549   2.027   3.757   1.576 -0.0558 -2.3023  0.1033
 2972TIP3   OH230550   0.637   1.386   2.509  0.1432  0.7870 -0.0224
 2972TIP3    H130551   0.731   1.385   2.493  0.2275  0.7127  0.4565
 2972TIP3    H230552   0.597   1.372   2.423  0.5897 -0.8850  0.0051
 2973TIP3   OH230553   1.376   0.587   2.193 -0.0668 -0.6686 -0.5442
 2973TIP3    H130554   1.450   0.618   2.140  2.2940 -1.2006  2.1901
 2973TIP3    H230555   1.416   0.529   2.258 -2.9687 -1.1764  0.9337
 2974TIP3   OH230556   5.501   0.476   0.082  0.0019 -0.2361 -0.6759
 2974TIP3    H130557   5.567   0.526   0.035  0.4908  0.3572  0.5875
 2974TIP3    H230558   5.552   0.425   0.146 -0.6463 -0.9349 -0.7101
 2975TIP3   OH230559   6.861   3.952   8.096  0.0211  0.7239  0.3562
 2975TIP3    H130560   6.789   3.895   8.123  0.6423 -0.1987  0.1198
 2975TIP3    H230561   6.833   3.988   8.012  0.6769 -1.2940 -0.7989
 2976TIP3   OH230562   5.020   0.494   7.277  0.4339  0.1216 -0.1992
 2976TIP3    H130563   5.059   0.407   7.264  0.8829  0.6689 -3.2339
 2976TIP3    H230564   5.085   0.542   7.327  1.3711 -0.5611 -0.7149
 2977TIP3   OH230565   4.502   4.637   8.509 -0.4614  0.2387  0.2800
 2977TIP3    H130566   4.444   4.581   8.457  0.6192 -0.8759  0.2071
 2977TIP3    H230567   4.443   4.697   8.555 -1.7227 -1.2415  0.6822
 2978TIP3   OH230568   5.064   3.853   0.609 -0.5471  0.0649 -0.0033
 2978TIP3    H130569   5.158   3.843   0.618 -0.3830  1.5978  0.2309
 2978TIP3    H230570   5.053   3.923   0.545 -1.5566 -0.9176 -0.9522
 2979TIP3   OH230571   0.515   4.081   8.033  0.6195  0.0170  0.1725
 2979TIP3    H130572   0.546   4.142   7.966  0.8361 -1.8675 -1.5562
 2979TIP3    H230573   0.423   4.065   8.011  0.4112  0.1440  0.9408
 2980TIP3   OH230574   4.024   1.414   1.623 -0.1624 -0.1648 -0.0982
 2980TIP3    H130575   4.079   1.478   1.578 -0.3256 -0.4293 -0.6794
 2980TIP3    H230576   3.971   1.375   1.554  0.0465 -1.0439  0.2236
 2981TIP3   OH230577   2.366   4.346   7.681  0.5110 -1.0152  0.4653
 2981TIP3    H130578   2.354   4.440   7.668 -0.4368 -1.1733  0.0961
 2981TIP3    H230579   2.309   4.305   7.616  0.2772 -1.8354  1.1562
 2982TIP3   OH230580   0.601   5.887   2.329 -0.0540  0.0252 -0.5581
 2982TIP3    H130581   0.540   5.832   2.280  0.4610 -0.1238 -1.0470
 2982TIP3    H230582   0.685   5.842   2.321 -0.2144 -0.8152  1.7117
 2983TIP3   OH230583   4.447   6.486   2.741  0.1167  0.8722  0.3483
 2983TIP3    H130584   4.458   6.574   2.705  0.3617  1.2889  1.4286
 2983TIP3    H230585   4.353   6.467   2.729 -0.1099  1.6253  0.8926
 2984TIP3   OH230586   3.390   0.536   2.367 -0.4630 -0.0979  0.0520
 2984TIP3    H130587   3.383   0.577   2.453 -0.4103  2.5409 -1.1004
 2984TIP3    H230588   3.481   0.551   2.341 -0.6304 -0.3677 -0.7101
 2985TIP3   OH230589   0.387   1.752   7.977 -0.5419  0.7342 -0.5811
 2985TIP3    H130590   0.372   1.826   8.036  2.8150  0.6333  0.6259
 2985TIP3    H230591   0.420   1.792   7.897 -0.2665  0.6393 -0.5168
 2986TIP3   OH230592   1.776   3.282   2.234 -0.1104  0.0929  0.3850
 2986TIP3    H130593   1.762   3.376   2.220  0.6591  0.2750  0.7862
 2986TIP3    H230594   1.855   3.277   2.287  1.5673 -0.8580 -2.0121
 2987TIP3   OH230595   4.847   1.408   1.780 -0.3929  0.3982  0.1614
 2987TIP3    H130596   4.925   1.403   1.725 -0.9486 -1.2466 -0.5487
 2987TIP3    H230597   4.875   1.457   1.857  1.4968 -0.6137  0.1880
 2988TIP3   OH230598   5.146   2.457   0.533  0.3859 -0.8037 -0.0523
 2988TIP3    H130599   5.117   2.475   0.443 -0.2752  0.1292  0.3284
 2988TIP3    H230600   5.241   2.447   0.526  0.2385 -1.6925 -0.9906
 2989TIP3   OH230601   5.821   6.888   8.517  0.4635 -0.1570 -0.4151
 2989TIP3    H130602   5.753   6.842   8.565 -0.5515 -0.5095 -2.1174
 2989TIP3    H230603   5.896   6.887   8.576 -1.7535  2.9258  2.8799
 2990TIP3   OH230604   0.055   0.895   1.511  0.2497 -0.0636 -0.1537
 2990TIP3    H130605   0.080   0.955   1.441  0.4162  1.5066  1.1852
 2990TIP3    H230606   0.129   0.835   1.518  1.7897  1.8343  0.8416
 2991TIP3   OH230607   4.089   1.869   8.324 -0.3793 -0.1039  0.3370
 2991TIP3    H130608   4.097   1.899   8.234 -0.2216 -1.8493 -0.2636
 2991TIP3    H230609   4.179   1.852   8.352 -0.5520 -1.8910 -0.0520
 2992TIP3   OH230610   6.190   1.733   7.287 -0.3481 -0.3619  0.3730
 2992TIP3    H130611   6.167   1.724   7.380 -0.7169  0.2859  0.3489
 2992TIP3    H230612   6.163   1.651   7.247 -1.3534 -0.1636  0.6119
 2993TIP3   OH230613   3.020   4.632   7.391  0.9751  0.1133 -0.0837
 2993TIP3    H130614   2.963   4.558   7.369  1.0396  0.3043 -0.9202
 2993TIP3    H230615   3.087   4.595   7.448 -0.3509  0.0089  1.4889
 2994TIP3   OH230616   0.117   5.048   8.107 -0.0057  0.2180 -0.2915
 2994TIP3    H130617   0.028   5.057   8.141  1.5204 -0.0012  4.3419
 2994TIP3    H230618   0.148   5.138   8.097 -0.4776  0.2840 -1.3089
 2995TIP3   OH230619   0.078   0.791   7.390 -0.4238 -0.2631  0.2586
 2995TIP3    H130620   0.103   0.781   7.482  0.0562  1.8286  0.4133
 2995TIP3    H230621  -0.015   0.812   7.393 -0.3684 -0.0191  0.2845
 2996TIP3   OH230622   2.614   6.651   0.365 -0.2616 -0.3070 -0.5319
 2996TIP3    H130623   2.608   6.703   0.285 -0.5406 -0.7363 -0.8007
 2996TIP3    H230624   2.697   6.603   0.356 -0.3498 -0.4455 -0.6278
 2997TIP3   OH230625   0.548   6.149   7.972 -0.5604 -0.1036  0.3766
 2997TIP3    H130626   0.559   6.231   8.020 -0.6621  0.8851 -1.2139
 2997TIP3    H230627   0.636   6.112   7.968  0.7480  2.7441 -3.5971
 2998TIP3   OH230628   2.965   0.664   1.574 -0.1558 -0.5869 -0.3303
 2998TIP3    H130629   2.967   0.671   1.478 -0.1806  0.3536 -0.2721
 2998TIP3    H230630   2.939   0.751   1.604 -0.9682 -1.1006  0.5070
 2999TIP3   OH230631   5.109   6.449   2.007  0.2115  0.1993  0.4500
 2999TIP3    H130632   5.181   6.459   2.070  0.9159 -0.1544 -0.2753
 2999TIP3    H230633   5.089   6.538   1.978  1.8390  0.1872 -0.9306
 3000TIP3   OH230634   6.907   6.203   7.649 -0.1218 -0.2516  0.1957
 3000TIP3    H130635   6.981   6.262   7.660  0.3189 -0.9721  1.3300
 3000TIP3    H230636   6.911   6.177   7.556 -0.3969  1.5416 -0.3389
 3001TIP3   OH230637   0.919   4.421   8.451 -0.0066  0.4125  0.3328
 3001TIP3    H130638   0.952   4.510   8.442  2.6131 -0.4750  0.1098
 3001TIP3    H230639   0.908   4.389   8.362  1.0455 -0.1038  0.3684
 3002TIP3   OH230640   4.625   3.706   0.611  0.1239 -0.9671  0.0242
 3002TIP3    H130641   4.685   3.781   0.607  0.7751 -1.4145  0.9685
 3002TIP3    H230642   4.590   3.699   0.522  2.1805 -1.2395 -0.8300
 3003TIP3   OH230643   6.790   1.287   0.892 -0.7967  0.1045  0.4868
 3003TIP3    H130644   6.808   1.267   0.801 -3.6361 -0.5542 -0.0120
 3003TIP3    H230645   6.872   1.268   0.938  0.1750 -1.1890 -1.6717
 3004TIP3   OH230646   0.508   3.054   6.745 -0.0781  0.3802 -0.4802
 3004TIP3    H130647   0.561   3.115   6.694 -0.9790  0.4878 -1.2978
 3004TIP3    H230648   0.430   3.103   6.769 -0.6998 -0.3586 -0.9284
 3005TIP3   OH230649   5.304   1.005   7.302  0.0228  0.3023 -0.3167
 3005TIP3    H130650   5.238   0.958   7.252  0.3443 -0.8281  0.2724
 3005TIP3    H230651   5.264   1.020   7.388  0.0678  0.7643 -0.3715
 3006TIP3   OH230652   4.045   5.910   1.453 -0.0432 -0.1286 -0.4774
 3006TIP3    H130653   4.034   5.823   1.491 -0.3304 -0.2337 -0.8030
 3006TIP3    H230654   4.113   5.951   1.508 -0.9081 -0.0396  0.5612
 3007TIP3   OH230655   4.215   2.270   8.238 -0.7608  0.1730  0.9322
 3007TIP3    H130656   4.129   2.229   8.237 -0.1477 -1.1822  0.2652
 3007TIP3    H230657   4.271   2.207   8.284  0.7934 -1.0867 -2.3423
 3008TIP3   OH230658   0.024   4.418   0.038 -0.0483  0.4433 -0.1690
 3008TIP3    H130659  -0.057   4.415  -0.013  0.8609 -0.7113 -1.6106
 3008TIP3    H230660   0.076   4.487  -0.004  0.0294  0.6704  0.2909
 3009TIP3   OH230661   2.036   5.708   1.855 -0.4033 -0.5221  0.0696
 3009TIP3    H130662   2.123   5.713   1.896 -1.1272  0.8395  1.5472
 3009TIP3    H230663   1.992   5.636   1.900 -1.2490  1.0656  1.8942
 3010TIP3   OH230664   6.838   0.092   2.635 -0.0621 -0.5384 -0.4481
 3010TIP3    H130665   6.891   0.062   2.709  0.7602 -2.2098 -1.6346
 3010TIP3    H230666   6.755   0.046   2.644  0.3486 -1.4196 -0.9884
 3011TIP3   OH230667   2.190   5.496   7.762 -0.5969 -0.7654  0.3015
 3011TIP3    H130668   2.183   5.520   7.669  0.6293 -1.1856  0.0762
 3011TIP3    H230669   2.121   5.545   7.805 -0.4905  0.2890 -0.6790
 3012TIP3   OH230670   4.575   2.294   8.358 -0.3417  0.0384 -0.1069
 3012TIP3    H130671   4.638   2.283   8.428 -0.4282  1.0459  0.1469
 3012TIP3    H230672   4.515   2.221   8.367  0.7836 -0.9480 -0.3648
 3013TIP3   OH230673   1.437   0.322   0.200  0.0067 -0.0937  0.1552
 3013TIP3    H130674   1.384   0.312   0.121 -0.6532  0.3128  0.5351
 3013TIP3    H230675   1.375   0.352   0.266  0.8253  0.9230  0.4759
 3014TIP3   OH230676   3.652   1.812   2.321  0.5137 -0.3947  0.3279
 3014TIP3    H130677   3.632   1.787   2.231 -1.6038  1.2985  0.2292
 3014TIP3    H230678   3.720   1.879   2.314  0.4713 -0.3879 -0.0050
 3015TIP3   OH230679   3.284   1.572   3.283 -0.5446  0.0298  0.2152
 3015TIP3    H130680   3.304   1.508   3.352 -1.6303  0.1527  0.6630
 3015TIP3    H230681   3.317   1.655   3.317  0.6949 -0.2286 -0.2844
 3016TIP3   OH230682   4.124   6.664   0.404 -0.9070  0.1313 -0.1719
 3016TIP3    H130683   4.176   6.667   0.484 -0.4830  0.2059 -0.4417
 3016TIP3    H230684   4.033   6.664   0.433 -0.8077  2.0557  0.2811
 3017TIP3   OH230685   1.253   0.329   1.571 -0.2418  0.1295  0.3852
 3017TIP3    H130686   1.239   0.281   1.652  1.7335 -0.3303  0.5002
 3017TIP3    H230687   1.244   0.263   1.502 -0.5605  0.2325  0.3286
 3018TIP3   OH230688   0.989   3.992   1.962  1.1487  0.2258 -0.3228
 3018TIP3    H130689   0.906   4.017   2.002  0.6332 -0.3926 -0.9823
 3018TIP3    H230690   1.029   3.932   2.026  0.8893  0.1896 -0.1933
 3019TIP3   OH230691   2.634   6.236   8.109  0.4002  0.7084  0.2878
 3019TIP3    H130692   2.626   6.278   8.194  1.5265  0.5354  0.5012
 3019TIP3    H230693   2.668   6.306   8.052  2.0695  0.1980  0.5925
 3020TIP3   OH230694   6.800   5.563   0.948 -0.3937 -0.2394  0.2361
 3020TIP3    H130695   6.710   5.569   0.980 -0.8196  1.3860 -1.1112
 3020TIP3    H230696   6.792   5.525   0.861  0.4805 -2.0431  0.8840
 3021TIP3   OH230697   2.534   6.186   7.483  0.2651  0.3598 -0.7444
 3021TIP3    H130698   2.538   6.215   7.392  0.8516 -0.0863 -0.8616
 3021TIP3    H230699   2.611   6.131   7.495 -0.8398 -1.2081 -0.5541
 3022TIP3   OH230700   2.965   1.176   1.274  0.0556 -0.2640 -0.5978
 3022TIP3    H130701   2.992   1.167   1.366  0.5801 -0.7478 -0.7915
 3022TIP3    H230702   2.981   1.090   1.236  0.1218  0.0176 -1.2158
 3023TIP3   OH230703   5.710   5.428   1.108  0.3979  0.1269  0.1660
 3023TIP3    H130704   5.690   5.413   1.015 -0.1998 -0.8470  0.4401
 3023TIP3    H230705   5.705   5.523   1.118 -1.0682  0.1424 -0.4615
 3024TIP3   OH230706   1.816   2.437   8.481  0.0906 -0.0681 -0.1151
 3024TIP3    H130707   1.906   2.437   8.448  0.3842 -2.1697  0.5252
 3024TIP3    H230708   1.798   2.529   8.501  2.3763  0.3223  0.4536
 3025TIP3   OH230709   1.995   3.549   8.287  0.5257  0.0195  0.2660
 3025TIP3    H130710   2.059   3.532   8.218  2.8216  1.3754  1.8938
 3025TIP3    H230711   1.952   3.630   8.259  0.3884 -0.2340 -0.2713
 3026TIP3   OH230712   1.233   4.910   1.450 -0.1650  0.7418 -0.2164
 3026TIP3    H130713   1.216   4.838   1.389 -1.8061  1.2988 -0.4678
 3026TIP3    H230714   1.283   4.973   1.398  2.7257 -0.8151  0.4554
 3027TIP3   OH230715   6.251   1.265   0.520 -0.1629  0.1635 -0.4454
 3027TIP3    H130716   6.313   1.197   0.547 -0.0162 -0.4369 -2.1323
 3027TIP3    H230717   6.288   1.298   0.438 -1.6076  0.4400 -0.9999
 3028TIP3   OH230718   2.350   2.978   0.577  0.3116  0.0682 -0.2576
 3028TIP3    H130719   2.294   2.990   0.500 -0.2166  1.2575  0.2839
 3028TIP3    H230720   2.416   2.915   0.549 -0.6261 -0.5108 -1.2735
 3029TIP3   OH230721   3.689   2.617   8.234 -0.4654 -0.3445  0.7255
 3029TIP3    H130722   3.726   2.587   8.316  1.4134 -0.3987 -0.0875
 3029TIP3    H230723   3.669   2.537   8.185  1.9567 -0.3730 -0.3329
 3030TIP3   OH230724   4.974   3.998   0.350  0.0739  0.1477  0.0173
 3030TIP3    H130725   4.903   4.061   0.337 -1.3338 -1.2824  0.4152
 3030TIP3    H230726   4.965   3.937   0.276  1.3248  0.3357 -0.3007
 3031TIP3   OH230727   0.846   5.915   1.219  0.1684  0.2042 -0.3926
 3031TIP3    H130728   0.925   5.894   1.269 -0.6004 -1.0503  0.3378
 3031TIP3    H230729   0.775   5.872   1.266 -0.8348  0.4864 -1.5827
 3032TIP3   OH230730   4.382   6.824   0.840  0.3374 -0.4759  0.2965
 3032TIP3    H130731   4.357   6.756   0.903 -2.2987  1.1714  1.1748
 3032TIP3    H230732   4.437   6.884   0.891 -1.0534  0.3828  0.8149
 3033TIP3   OH230733   0.764   5.540   0.245  0.0537 -0.5454 -0.4133
 3033TIP3    H130734   0.690   5.547   0.185 -0.3941  0.4942  0.2498
 3033TIP3    H230735   0.727   5.503   0.325 -0.2032  1.8196  0.6349
 3034TIP3   OH230736   5.935   1.418   0.049  0.5038 -0.0873  0.0170
 3034TIP3    H130737   5.937   1.421  -0.046  0.6906 -1.3289 -0.0456
 3034TIP3    H230738   5.861   1.361   0.070  0.2307  0.4802  0.6315
 3035TIP3   OH230739   3.968   2.093   1.654 -0.2268 -0.4309 -0.0307
 3035TIP3    H130740   3.986   2.185   1.635 -1.6963  0.1402  1.1288
 3035TIP3    H230741   3.932   2.058   1.572 -1.5478  0.5919  0.0696
 3036TIP3   OH230742   4.280   2.635   0.485 -0.5938  0.1323 -0.2995
 3036TIP3    H130743   4.244   2.566   0.429 -0.8944 -0.1921  0.2840
 3036TIP3    H230744   4.343   2.589   0.541  1.2222  0.7679 -1.6815
 3037TIP3   OH230745   0.783   3.036   1.829 -0.4296  0.1471 -0.1320
 3037TIP3    H130746   0.870   3.011   1.860 -0.6023 -1.9092 -1.1295
 3037TIP3    H230747   0.723   2.978   1.877 -0.8602 -1.5005 -2.4720
 3038TIP3   OH230748   2.909   4.842   0.526  0.0254 -0.2311 -0.4363
 3038TIP3    H130749   2.821   4.821   0.557  0.0428 -1.0669 -0.9251
 3038TIP3    H230750   2.921   4.935   0.549 -0.6838 -0.3101  0.3101
 3039TIP3   OH230751   1.757   3.372   0.517  0.0455 -0.1559 -0.5050
 3039TIP3    H130752   1.790   3.338   0.600  1.0309 -1.5796 -1.4158
 3039TIP3    H230753   1.684   3.314   0.495 -0.7266  0.7147 -0.2570
 3040TIP3   OH230754   5.633   2.082   7.485  0.0450 -0.6044  0.1336
 3040TIP3    H130755   5.628   2.131   7.403 -3.9048  0.3478  0.7117
 3040TIP3    H230756   5.596   1.996   7.464  1.3317 -1.2566  0.4370
 3041TIP3   OH230757   6.877   1.465   0.026  0.1550 -0.1427  0.3006
 3041TIP3    H130758   6.854   1.489   0.116  0.1477  1.3433 -0.0655
 3041TIP3    H230759   6.942   1.531  -0.000  3.0393 -2.6902  0.4362
 3042TIP3   OH230760   5.311   2.717   1.703  0.5201 -0.4547 -0.2404
 3042TIP3    H130761   5.379   2.750   1.761 -0.5540  1.0001  0.2508
 3042TIP3    H230762   5.310   2.779   1.630  0.2600 -0.9306 -0.6459
 3043TIP3   OH230763   6.534   4.134   1.244  0.0159  0.5251 -0.0803
 3043TIP3    H130764   6.513   4.153   1.335 -2.5716 -0.5239 -0.3927
 3043TIP3    H230765   6.498   4.208   1.195 -0.2499  0.1807 -0.4051
 3044TIP3   OH230766   5.393   1.399   6.677  0.2849 -0.2236 -0.2539
 3044TIP3    H130767   5.374   1.442   6.760 -2.2478  1.0873 -1.4093
 3044TIP3    H230768   5.436   1.317   6.702  0.4357  0.5319  2.2733
 3045TIP3   OH230769   3.337   1.369   3.457  0.2331  0.2330  0.6141
 3045TIP3    H130770   3.267   1.309   3.481 -0.6643  0.1736 -1.9022
 3045TIP3    H230771   3.390   1.320   3.394  0.8251  1.2947  0.2578
 3046TIP3   OH230772   4.148   0.812   6.584  0.6022 -0.1948  0.2798
 3046TIP3    H130773   4.136   0.717   6.573  2.2299 -0.5469  1.2039
 3046TIP3    H230774   4.233   0.829   6.544 -0.8910  1.4242 -2.4540
 3047TIP3   OH230775   0.098   1.149   1.352  0.4017 -0.2963 -0.2777
 3047TIP3    H130776   0.151   1.216   1.396  0.1899 -0.6884  0.5815
 3047TIP3    H230777   0.047   1.198   1.287  0.4610  0.3360  0.1404
 3048TIP3   OH230778   0.021   1.101   2.514 -0.5393 -0.2655 -0.2876
 3048TIP3    H130779  -0.041   1.159   2.471  0.1409  1.4921  1.0090
 3048TIP3    H230780   0.084   1.078   2.445 -1.0346  0.2129 -0.9128
 3049TIP3   OH230781   5.907   0.661   1.644 -0.2957  0.0880 -0.3160
 3049TIP3    H130782   5.999   0.634   1.640 -0.5291 -0.6928 -0.6478
 3049TIP3    H230783   5.887   0.664   1.738 -0.0794 -0.2790 -0.2548
 3050TIP3   OH230784   6.103   0.454   8.447 -0.2837 -0.4889  0.6196
 3050TIP3    H130785   6.040   0.383   8.440  0.2080 -1.1266  2.2219
 3050TIP3    H230786   6.188   0.411   8.437 -0.0276  0.1134  0.1103
 3051TIP3   OH230787   6.601   1.256   2.371 -0.0037  0.0165  0.6118
 3051TIP3    H130788   6.645   1.233   2.289  0.4970 -1.0925  1.1739
 3051TIP3    H230789   6.671   1.285   2.428 -0.1980 -0.2752  1.0054
 3052TIP3   OH230790   4.692   4.354   7.321 -0.3051 -0.6076  0.0882
 3052TIP3    H130791   4.704   4.315   7.235  0.1479 -1.4883  0.5272
 3052TIP3    H230792   4.610   4.403   7.315 -0.0204 -0.2342 -0.9818
 3053TIP3   OH230793   5.704   1.088   8.401  0.3095  0.1624  0.3561
 3053TIP3    H130794   5.611   1.110   8.396  0.3958  0.4771  0.0737
 3053TIP3    H230795   5.740   1.149   8.465  0.4001  0.3211  0.1550
 3054TIP3   OH230796   4.380   1.922   2.516  0.4323 -0.3204 -0.5017
 3054TIP3    H130797   4.413   1.890   2.600  0.5486 -0.4000 -0.5767
 3054TIP3    H230798   4.448   1.981   2.484  0.3770 -0.2717 -0.5290
 3055TIP3   OH230799   4.146   6.394   7.460 -0.1825  0.0210 -0.1444
 3055TIP3    H130800   4.052   6.412   7.471 -0.2723 -0.9733  0.9498
 3055TIP3    H230801   4.187   6.438   7.534  0.2513  0.6051 -0.7229
 3056TIP3   OH230802   2.256   4.735   0.176  0.0179  0.7161  0.1999
 3056TIP3    H130803   2.300   4.697   0.100  2.2098  3.4022 -0.0380
 3056TIP3    H230804   2.236   4.660   0.232  0.3079 -1.1239 -2.0160
 3057TIP3   OH230805   1.102   4.348   2.958  0.2396  0.3779 -0.0443
 3057TIP3    H130806   1.161   4.325   3.030 -0.8495  0.2064  0.8229
 3057TIP3    H230807   1.099   4.270   2.903  0.6881  0.3307 -0.0059
 3058TIP3   OH230808   2.219   3.282   1.875  0.0413 -0.2698  0.5342
 3058TIP3    H130809   2.213   3.361   1.821  1.4332  0.2239  1.0436
 3058TIP3    H230810   2.135   3.277   1.919 -0.5567  0.1781 -0.5087
 3059TIP3   OH230811   3.845   2.523   8.445  0.1799  0.4573  0.3607
 3059TIP3    H130812   3.866   2.438   8.406  0.6333  0.7514 -0.0402
 3059TIP3    H230813   3.911   2.535   8.512 -0.0182  0.3967  0.5686
 3060TIP3   OH230814   0.639   1.222   1.508 -0.2057  0.1745  0.5934
 3060TIP3    H130815   0.697   1.279   1.558 -1.9106  1.4874  1.1268
 3060TIP3    H230816   0.614   1.274   1.432  0.7246 -1.0636 -0.6389
 3061TIP3   OH230817   1.301   5.487   6.731 -0.8891 -0.0428  0.2806
 3061TIP3    H130818   1.307   5.475   6.826 -1.6712 -0.5576  0.2756
 3061TIP3    H230819   1.308   5.398   6.696 -1.5702  0.0416 -0.0810
 3062TIP3   OH230820   3.223   1.435   1.668 -0.5170  0.6746 -0.1645
 3062TIP3    H130821   3.134   1.436   1.702 -0.2639  0.1067  0.5267
 3062TIP3    H230822   3.278   1.429   1.746  0.0706 -0.9704 -0.6828
 3063TIP3   OH230823   3.559   1.932   6.966  0.0906 -0.3133  0.2450
 3063TIP3    H130824   3.510   1.990   7.025 -0.7400  0.0207 -0.7437
 3063TIP3    H230825   3.640   1.912   7.014 -0.8713 -0.6640  1.8157
 3064TIP3   OH230826   3.877   3.072   0.276 -0.0897  0.0625  0.0134
 3064TIP3    H130827   3.950   3.078   0.338 -0.4995 -3.0943  0.9679
 3064TIP3    H230828   3.914   3.024   0.202 -0.6994  0.2142 -0.3907
 3065TIP3   OH230829   0.723   6.361   1.881 -0.2974 -0.2765  0.2700
 3065TIP3    H130830   0.663   6.324   1.945 -0.8572 -0.6182 -0.4394
 3065TIP3    H230831   0.680   6.441   1.851 -0.4507 -0.5767 -0.3160
 3066TIP3   OH230832   2.799   4.160   0.659  0.2259  0.0640  0.4364
 3066TIP3    H130833   2.840   4.232   0.707  0.7206  0.9335 -1.2063
 3066TIP3    H230834   2.871   4.099   0.642  0.6461  0.9802 -1.3375
 3067TIP3   OH230835   4.351   4.490   0.325  0.5126  0.0194 -0.4959
 3067TIP3    H130836   4.351   4.548   0.249 -0.4027  3.4642  1.8797
 3067TIP3    H230837   4.273   4.436   0.314  0.5884  0.1891 -2.1163
 3068TIP3   OH230838   3.647   6.736   1.446  0.7607  0.1790 -0.1613
 3068TIP3    H130839   3.714   6.795   1.480  1.5235 -1.8096  2.0741
 3068TIP3    H230840   3.691   6.687   1.376  0.5920  1.1348 -0.9549
 3069TIP3   OH230841   0.677   2.420   8.521  0.0927 -0.0792  0.0276
 3069TIP3    H130842   0.584   2.433   8.503  0.2369  0.9448 -0.0317
 3069TIP3    H230843   0.721   2.447   8.440  0.4093 -1.4369 -0.2856
 3070TIP3   OH230844   5.955   5.995   0.024  0.2888 -0.2636 -0.5930
 3070TIP3    H130845   5.932   6.024  -0.064  1.3340 -0.6662 -1.0086
 3070TIP3    H230846   6.025   5.931   0.011  0.2615 -0.5314  0.5124
 3071TIP3   OH230847   4.252   2.568   1.701  0.0853  0.4152 -0.4399
 3071TIP3    H130848   4.272   2.577   1.794 -1.0337 -0.3876 -0.0977
 3071TIP3    H230849   4.329   2.602   1.656  0.9173  0.1858  0.7817
 3072TIP3   OH230850   0.244   6.291   0.765  0.0412 -0.2244 -0.0300
 3072TIP3    H130851   0.200   6.208   0.744  0.2227 -0.1728 -0.6213
 3072TIP3    H230852   0.184   6.358   0.732 -0.3349 -0.1011  0.8819
 3073TIP3   OH230853   3.289   2.762   7.508 -0.4284  0.2501 -0.3330
 3073TIP3    H130854   3.225   2.690   7.505 -0.4034  0.2266 -0.3016
 3073TIP3    H230855   3.246   2.834   7.464 -1.3502  0.9325  1.5663
 3074TIP3   OH230856   2.917   3.991   2.347 -0.0617  0.1953 -0.2652
 3074TIP3    H130857   2.860   3.921   2.379  0.0292  0.4864  0.5753
 3074TIP3    H230858   2.997   3.981   2.398  0.3891  0.2096 -0.9564
 3075TIP3   OH230859   0.522   0.528   0.739 -0.6868 -0.4453 -0.0676
 3075TIP3    H130860   0.589   0.464   0.716 -0.8821 -0.0958 -1.7260
 3075TIP3    H230861   0.439   0.482   0.727 -0.7911 -0.3093  0.1251
 3076TIP3   OH230862   6.121   5.273   2.340  0.3694  0.0617  0.2760
 3076TIP3    H130863   6.029   5.274   2.312  1.0508 -2.2017 -2.4775
 3076TIP3    H230864   6.171   5.270   2.259  2.9293  0.7095  1.7057
 3077TIP3   OH230865   2.917   6.858   8.505  0.4166  0.8043  0.0094
 3077TIP3    H130866   2.887   6.939   8.463  0.7913  0.4240 -1.0231
 3077TIP3    H230867   3.004   6.844   8.469  1.5661  1.4493  2.3285
 3078TIP3   OH230868   3.776   2.576   7.539 -0.0061 -0.3647 -0.1329
 3078TIP3    H130869   3.862   2.536   7.524 -0.0078 -0.5156  0.2704
 3078TIP3    H230870   3.796   2.666   7.566  0.0396 -0.5482  0.4474
 3079TIP3   OH230871   2.437   3.890   1.192 -0.4624 -0.3448  0.5888
 3079TIP3    H130872   2.463   3.974   1.154 -3.2027  0.8795  1.2006
 3079TIP3    H230873   2.466   3.825   1.127  0.8307  1.1233 -0.3798
 3080TIP3   OH230874   2.595   5.180   2.675  0.7856 -0.2890  0.1023
 3080TIP3    H130875   2.530   5.200   2.742  2.4665  0.2852  1.6606
 3080TIP3    H230876   2.583   5.247   2.608 -0.3040 -0.2950  0.2823
 3081TIP3   OH230877   1.513   1.137   1.400 -0.4856  0.6308  0.2209
 3081TIP3    H130878   1.591   1.099   1.439 -0.5555  0.7324  0.4574
 3081TIP3    H230879   1.450   1.142   1.472 -0.4288  1.3303  0.2223
 3082TIP3   OH230880   0.293   1.108   2.915 -0.1216 -0.0755  0.4766
 3082TIP3    H130881   0.253   1.059   2.987 -2.9691  1.9582  0.4486
 3082TIP3    H230882   0.359   1.163   2.957 -1.4379  0.7568  1.5297
 3083TIP3   OH230883   0.470   0.159   1.153 -0.1764  0.1358  0.3282
 3083TIP3    H130884   0.557   0.161   1.193  0.2113  1.0982 -0.5165
 3083TIP3    H230885   0.417   0.215   1.209  0.4966  1.9108 -0.7493
 3084TIP3   OH230886   4.717   4.522   0.612 -0.1221 -0.0683 -0.0781
 3084TIP3    H130887   4.695   4.572   0.534  0.1727 -2.9363 -2.1644
 3084TIP3    H230888   4.652   4.451   0.615  0.3948 -0.5243  1.7895
 3085TIP3   OH230889   0.464   5.725   6.951  0.2956 -0.3751 -0.0235
 3085TIP3    H130890   0.443   5.806   6.905 -0.0108 -0.0524  0.6741
 3085TIP3    H230891   0.459   5.748   7.043 -0.7351 -1.4176  0.2025
 3086TIP3   OH230892   0.298   5.829   0.867  0.1658 -0.6646  0.2285
 3086TIP3    H130893   0.248   5.765   0.816  0.1210 -0.5102  0.0808
 3086TIP3    H230894   0.232   5.886   0.906  0.2300 -0.3945 -0.0535
 3087TIP3   OH230895   5.703   1.433   2.749 -0.7515  0.0640 -0.0599
 3087TIP3    H130896   5.768   1.425   2.679 -0.2451 -0.9714  0.5073
 3087TIP3    H230897   5.752   1.467   2.824 -1.2820  1.1247 -0.1729
 3088TIP3   OH230898   2.786   3.243   7.024 -0.2723  0.0122 -0.0425
 3088TIP3    H130899   2.815   3.329   7.053 -0.5015  0.2162 -0.4220
 3088TIP3    H230900   2.850   3.217   6.958  0.5837 -0.7028  1.0352
 3089TIP3   OH230901   4.953   1.060   7.783  0.4576  0.0066  0.2234
 3089TIP3    H130902   4.879   1.120   7.779  0.3597 -0.0222  1.2307
 3089TIP3    H230903   4.949   1.009   7.702 -0.1196  0.5838 -0.1138
 3090TIP3   OH230904   0.264   5.350   7.450  0.2331  0.2563  0.4210
 3090TIP3    H130905   0.271   5.255   7.462  0.5938  0.0345 -1.2644
 3090TIP3    H230906   0.352   5.383   7.466  0.8611 -0.1127 -1.9650
 3091TIP3   OH230907   5.980   3.629   7.904  0.2123 -0.5979 -0.0579
 3091TIP3    H130908   6.049   3.591   7.958  0.3176 -1.9543 -1.0908
 3091TIP3    H230909   5.998   3.596   7.815  0.3030  1.8746 -1.0362
 3092TIP3   OH230910   4.595   3.274   0.785 -0.6095  0.4892  0.4799
 3092TIP3    H130911   4.591   3.266   0.880  0.0984 -0.5381  0.4354
 3092TIP3    H230912   4.688   3.284   0.766 -0.7510  0.7486 -0.1097
 3093TIP3   OH230913   5.025   6.621   7.869 -0.2340 -0.1536 -0.2155
 3093TIP3    H130914   5.032   6.591   7.959  1.0821 -0.1416 -0.2843
 3093TIP3    H230915   5.012   6.716   7.876 -2.6015 -0.4472 -0.0283
 3094TIP3   OH230916   4.278   0.289   8.132  0.4448  0.3465  0.5752
 3094TIP3    H130917   4.184   0.277   8.127  0.4393  0.6716 -0.4632
 3094TIP3    H230918   4.295   0.366   8.078  1.4451 -0.5601 -0.4614
 3095TIP3   OH230919   6.082   6.930   0.674  0.1443 -0.3208  0.4682
 3095TIP3    H130920   6.077   6.998   0.607  2.8426  1.3897  1.8408
 3095TIP3    H230921   6.005   6.946   0.730 -0.7355 -0.1802 -0.7406
 3096TIP3   OH230922   1.286   0.545   8.106 -0.4145  0.8981  0.1146
 3096TIP3    H130923   1.302   0.579   8.194  1.3846  0.7916 -0.1396
 3096TIP3    H230924   1.323   0.457   8.107  1.5814  1.6401 -1.3065
 3097TIP3   OH230925   1.872   3.880   1.480 -0.1116  0.2511 -0.3357
 3097TIP3    H130926   1.922   3.952   1.442  0.0960 -0.0953 -0.7224
 3097TIP3    H230927   1.795   3.873   1.424  0.4417 -0.5907 -1.0073
 3098TIP3   OH230928   6.645   2.144   8.157  0.0976  0.0239  0.0252
 3098TIP3    H130929   6.736   2.160   8.132  0.4639  0.5048  1.5827
 3098TIP3    H230930   6.651   2.098   8.241 -1.0878 -1.3518 -0.5966
 3099TIP3   OH230931   1.794   6.518   1.737  0.2283 -0.3024  0.2892
 3099TIP3    H130932   1.707   6.539   1.773  0.3707 -1.1930  1.1909
 3099TIP3    H230933   1.826   6.601   1.702 -1.2215 -0.0752 -0.5875
 3100TIP3   OH230934   4.119   5.813   8.218 -0.2667  0.4887  0.2745
 3100TIP3    H130935   4.105   5.720   8.200  0.1224  0.3681  0.5883
 3100TIP3    H230936   4.032   5.847   8.241 -0.1806 -0.1009  1.5387
 3101TIP3   OH230937   1.210   0.112   7.915 -0.0627  0.2193 -0.6673
 3101TIP3    H130938   1.147   0.146   7.978  0.8828 -2.5194  1.9901
 3101TIP3    H230939   1.168   0.035   7.877  2.1774 -3.2127  2.9861
 3102TIP3   OH230940   0.180   6.123   7.120 -0.0970  0.0964  0.0002
 3102TIP3    H130941   0.233   6.109   7.198  1.0715  0.1011 -0.7804
 3102TIP3    H230942   0.237   6.171   7.060 -1.2467  0.8184 -0.5573
 3103TIP3   OH230943   5.899   0.878   0.404 -0.1202 -0.1338 -0.3802
 3103TIP3    H130944   5.925   0.788   0.423  0.3998  0.1748  0.4024
 3103TIP3    H230945   5.961   0.907   0.337 -0.8016 -0.6196 -1.2343
 3104TIP3   OH230946   1.703   4.212   1.730 -0.1959  0.0356 -0.2682
 3104TIP3    H130947   1.649   4.262   1.668 -1.3780  2.2219  2.3356
 3104TIP3    H230948   1.674   4.122   1.719 -2.3140  0.7463 -1.0273
 3105TIP3   OH230949   1.376   2.505   1.311  0.2017  0.2511 -0.5277
 3105TIP3    H130950   1.430   2.584   1.312 -0.1568  0.5335  1.6284
 3105TIP3    H230951   1.419   2.446   1.373 -1.0454 -0.1358  0.0082
 3106TIP3   OH230952   6.786   5.060   8.178 -0.5389  0.4703 -0.0661
 3106TIP3    H130953   6.757   5.145   8.210 -0.7984  0.5658 -0.5498
 3106TIP3    H230954   6.724   4.998   8.217 -0.9535  0.6021 -0.5146
 3107TIP3   OH230955   4.733   3.464   0.020 -0.2323  0.2802  0.1115
 3107TIP3    H130956   4.826   3.457  -0.003 -0.3183 -0.4059 -0.0610
 3107TIP3    H230957   4.693   3.388  -0.022 -0.8184  0.3906  0.4660
 3108TIP3   OH230958   6.757   5.974   7.232  0.0150 -0.1681  0.0633
 3108TIP3    H130959   6.711   5.955   7.151 -1.8777 -1.5028  1.3831
 3108TIP3    H230960   6.701   6.037   7.278 -0.0179 -0.9997  1.2217
 3109TIP3   OH230961   2.677   6.641   1.256 -0.0111 -0.1183 -0.0157
 3109TIP3    H130962   2.642   6.606   1.338  0.2923  0.8133  0.5231
 3109TIP3    H230963   2.721   6.722   1.281 -1.0045  0.8684 -1.2680
 3110TIP3   OH230964   3.805   4.547   7.673  0.0590  0.2333 -0.4752
 3110TIP3    H130965   3.872   4.553   7.742  0.5097  0.8121 -0.9527
 3110TIP3    H230966   3.831   4.614   7.610 -0.1675 -0.5202 -1.3737
 3111TIP3   OH230967   0.638   6.024   1.650 -0.2085  0.5217 -0.2143
 3111TIP3    H130968   0.566   6.075   1.688 -1.3829 -1.8979  1.0111
 3111TIP3    H230969   0.717   6.073   1.672 -1.2023  1.3355  1.7440
 3112TIP3   OH230970   0.429   6.864   7.997  0.2986  0.4472 -0.2243
 3112TIP3    H130971   0.520   6.838   7.984  0.3220 -1.6079  2.8477
 3112TIP3    H230972   0.434   6.957   8.018  1.9744  0.0551  1.4670
 3113TIP3   OH230973   3.737   3.886   0.342 -0.3655 -0.6695 -0.3707
 3113TIP3    H130974   3.664   3.940   0.313  1.3554  1.3717 -1.2067
 3113TIP3    H230975   3.786   3.867   0.261  1.0501 -0.3271  0.3761
 3114TIP3   OH230976   1.374   4.455   2.424 -0.8175 -0.4464 -0.4958
 3114TIP3    H130977   1.398   4.546   2.444 -0.5911 -0.3906 -1.0240
 3114TIP3    H230978   1.286   4.461   2.387 -0.7520 -0.4348 -0.6465
 3115TIP3   OH230979   0.559   1.295   7.912 -0.3576  0.2189 -0.0250
 3115TIP3    H130980   0.569   1.329   7.823  0.8534 -0.2647 -0.0884
 3115TIP3    H230981   0.524   1.369   7.962  0.8676  1.1484 -0.4769
 3116TIP3   OH230982   3.036   1.977   3.145  0.4682 -0.1971 -0.2245
 3116TIP3    H130983   3.097   2.051   3.143 -1.4350  1.4641 -0.2946
 3116TIP3    H230984   2.988   1.988   3.227 -0.7960 -0.5319 -0.8979
 3117TIP3   OH230985   3.294   6.372   1.869  0.0345  0.1633  0.1117
 3117TIP3    H130986   3.205   6.374   1.835  0.2223  0.4622 -0.3630
 3117TIP3    H230987   3.300   6.289   1.916 -1.2683  1.1662  2.2397
 3118TIP3   OH230988   6.251   4.150   2.317 -0.0429 -0.3000  0.0272
 3118TIP3    H130989   6.247   4.143   2.413  0.1530  1.5578  0.1978
 3118TIP3    H230990   6.287   4.237   2.301  0.0177 -0.6291 -1.7508
 3119TIP3   OH230991   6.948   0.227   1.395  0.3090  0.0503  0.3254
 3119TIP3    H130992   6.945   0.316   1.361  3.1166  0.8011  1.7651
 3119TIP3    H230993   7.013   0.182   1.341 -2.2176 -1.7951 -1.4851
 3120TIP3   OH230994   1.211   3.648   0.335 -0.0633 -0.2886  0.2411
 3120TIP3    H130995   1.287   3.696   0.368  0.2931  1.1838 -2.4960
 3120TIP3    H230996   1.137   3.685   0.383  0.2829  2.6361 -1.2819
 3121TIP3   OH230997   2.601   4.434   1.545 -0.2829 -0.6055 -0.2221
 3121TIP3    H130998   2.611   4.353   1.595  0.4745 -0.3891 -0.0000
 3121TIP3    H230999   2.682   4.440   1.494 -0.9777 -0.7417 -1.3577
 3122TIP3   OH231000   2.887   3.141   8.340 -0.0722 -0.1844  0.4538
 3122TIP3    H131001   2.888   3.170   8.249 -2.9474 -0.6341  0.1870
 3122TIP3    H231002   2.866   3.221   8.389  0.3593 -0.1707  0.6209
 3123TIP3   OH231003   0.579   0.753   8.519 -0.3460  0.0366 -0.3331
 3123TIP3    H131004   0.499   0.743   8.571  0.1218 -0.6472  0.2698
 3123TIP3    H231005   0.572   0.841   8.482 -0.4964  0.7304  1.2513
 3124TIP3   OH231006   5.828   6.158   7.046 -0.6478  0.4113 -0.1924
 3124TIP3    H131007   5.834   6.243   7.001  0.6110  0.4356 -0.0116
 3124TIP3    H231008   5.830   6.094   6.976 -0.4106  0.5066 -0.2773
 3125TIP3   OH231009   4.969   4.877   0.681  0.6738  0.3415  1.0015
 3125TIP3    H131010   5.030   4.804   0.675  0.9631  0.6444  0.1051
 3125TIP3    H231011   4.985   4.929   0.602 -1.8624 -0.4444 -0.1467
 3126TIP3   OH231012   0.141   3.572   7.491 -1.0270 -0.5016 -0.3251
 3126TIP3    H131013   0.151   3.640   7.424  2.2897  0.7800  1.2904
 3126TIP3    H231014   0.214   3.512   7.475 -0.7132 -0.6645  1.5852
 3127TIP3   OH231015   2.521   5.997   7.865 -0.3383 -0.1886 -0.5608
 3127TIP3    H131016   2.466   6.043   7.929  1.2364  1.9956 -0.6797
 3127TIP3    H231017   2.581   5.944   7.918 -1.0550 -0.8332 -0.3700
 3128TIP3   OH231018   3.994   0.142   1.327 -0.4504  0.2935  0.0598
 3128TIP3    H131019   4.033   0.201   1.391 -0.7960  2.7032 -1.8023
 3128TIP3    H231020   3.930   0.196   1.281  0.5885 -0.9477 -3.0743
 3129TIP3   OH231021   6.763   4.812   2.145 -0.1486  0.3364  0.4386
 3129TIP3    H131022   6.742   4.866   2.221 -0.9455 -0.8297  1.0692
 3129TIP3    H231023   6.682   4.809   2.094 -0.3996 -0.9589  0.8671
 3130TIP3   OH231024   2.443   6.579   6.613 -0.0200 -0.2677  0.0979
 3130TIP3    H131025   2.424   6.488   6.635  0.7371 -0.8987 -1.6782
 3130TIP3    H231026   2.517   6.602   6.668 -0.9970 -0.2774  1.4759
 3131TIP3   OH231027   6.330   0.973   8.238 -0.0871  0.1562 -0.5867
 3131TIP3    H131028   6.378   0.954   8.318  0.3813 -0.2802 -0.9669
 3131TIP3    H231029   6.398   0.989   8.172 -0.4625  0.3002 -0.9469
 3132TIP3   OH231030   3.391   6.139   2.197  0.2362  0.0985  0.5582
 3132TIP3    H131031   3.387   6.231   2.221  1.5709 -0.1251  1.7723
 3132TIP3    H231032   3.315   6.125   2.141  0.0089  1.9215  0.3759
 3133TIP3   OH231033   1.575   0.548   0.933  0.7721  0.9387 -0.2499
 3133TIP3    H131034   1.564   0.453   0.942  0.3802  0.7881 -2.0365
 3133TIP3    H231035   1.578   0.563   0.839  1.0771  2.6881  0.0109
 3134TIP3   OH231036   3.006   2.207   8.516  0.2320 -0.0893 -0.2115
 3134TIP3    H131037   2.958   2.289   8.509  1.1188  0.4718  0.1240
 3134TIP3    H231038   2.970   2.152   8.447  0.3470  0.9567 -1.1298
 3135TIP3   OH231039   4.585   5.206   0.919  0.2180 -0.4166  0.0114
 3135TIP3    H131040   4.649   5.152   0.873  2.2614  1.3154  0.7115
 3135TIP3    H231041   4.634   5.281   0.952 -2.4402  1.8321 -0.7270
 3136TIP3   OH231042   4.855   3.631   8.009  0.0627  0.0420  0.6921
 3136TIP3    H131043   4.868   3.690   8.083 -0.0218  0.3475  0.4694
 3136TIP3    H231044   4.844   3.690   7.934 -1.0268 -0.2310  0.6251
 3137TIP3   OH231045   4.698   2.725   8.468  0.5144 -0.1009  0.5084
 3137TIP3    H131046   4.673   2.810   8.431  1.6143  1.2048  2.5603
 3137TIP3    H231047   4.615   2.684   8.492  0.0085  0.8381  0.4084
 3138TIP3   OH231048   6.631   5.386   7.932  0.2853  0.0727  0.4321
 3138TIP3    H131049   6.692   5.325   7.974 -0.9933 -2.0048 -0.5484
 3138TIP3    H231050   6.685   5.433   7.868  0.9710 -1.4359 -0.1443
 3139TIP3   OH231051   1.487   4.274   2.621 -0.2030 -0.1830 -0.3753
 3139TIP3    H131052   1.427   4.233   2.683  0.2928  1.6897  1.4350
 3139TIP3    H231053   1.431   4.299   2.547 -1.2815 -0.2644  0.3853
 3140TIP3   OH231054   6.212   2.159   3.069  0.0956 -0.1741  0.2242
 3140TIP3    H131055   6.184   2.182   2.980 -0.4016  0.0995  0.4467
 3140TIP3    H231056   6.297   2.201   3.079  0.0671 -0.0462 -0.0579
 3141TIP3   OH231057   4.037   4.210   2.212  0.0752  0.4311 -0.1678
 3141TIP3    H131058   3.992   4.233   2.293 -0.7439  0.4362 -0.6082
 3141TIP3    H231059   4.027   4.115   2.204 -0.7125  0.5494 -0.7451
 3142TIP3   OH231060   0.317   6.520   7.710 -0.0408  0.0991 -0.9178
 3142TIP3    H131061   0.231   6.547   7.675  0.2289  0.4723 -1.3088
 3142TIP3    H231062   0.361   6.603   7.730 -0.3902 -0.1035  0.8492
 3143TIP3   OH231063   4.258   1.005   6.859  0.8619  0.1065  0.9116
 3143TIP3    H131064   4.302   1.079   6.901  1.0614 -0.3699  1.5578
 3143TIP3    H231065   4.306   0.928   6.890  1.6062 -0.2222 -0.8932
 3144TIP3   OH231066   4.445   4.665   2.757 -0.5029 -0.4159  0.0327
 3144TIP3    H131067   4.429   4.689   2.666 -1.1692 -0.8466  0.0317
 3144TIP3    H231068   4.402   4.580   2.768 -0.1426 -0.5257  0.6579
 3145TIP3   OH231069   3.985   4.925   3.024 -0.1359  0.5551  0.2854
 3145TIP3    H131070   4.079   4.942   3.018  0.3192 -1.5001  0.7830
 3145TIP3    H231071   3.946   5.011   3.041  1.6659  1.4178  0.2776
 3146TIP3   OH231072   0.120   0.675   1.113 -0.6004  0.5927  0.7788
 3146TIP3    H131073   0.104   0.622   1.035 -0.2643 -0.5581  1.4608
 3146TIP3    H231074   0.097   0.764   1.087  2.3361  0.8211 -1.5599
 3147TIP3   OH231075   3.558   3.717   0.494  0.1252 -0.0558  0.2239
 3147TIP3    H131076   3.586   3.774   0.566 -3.1102 -0.2016  1.7768
 3147TIP3    H231077   3.600   3.754   0.416  1.1621  2.1238  1.7305
 3148TIP3   OH231078   5.375   5.502   0.629 -0.1335  0.3347  0.1932
 3148TIP3    H131079   5.347   5.502   0.538 -1.4076 -1.8094  0.4961
 3148TIP3    H231080   5.313   5.558   0.674 -0.1558  0.5420 -0.0967
 3149TIP3   OH231081   4.283   0.080   8.327  0.2938  0.3161 -0.0350
 3149TIP3    H131082   4.232   0.007   8.292 -1.5830  0.9304  1.3004
 3149TIP3    H231083   4.286   0.143   8.254  1.6327 -0.8835 -1.0777
 3150TIP3   OH231084   6.331   3.716   1.640 -0.4294  0.0073  0.3104
 3150TIP3    H131085   6.248   3.762   1.650 -0.1408  0.1106  3.1592
 3150TIP3    H231086   6.393   3.769   1.691  0.9378 -1.1189 -0.1195
 3151TIP3   OH231087   2.176   0.491   2.074 -0.4072  0.1352 -0.2987
 3151TIP3    H131088   2.128   0.440   2.139  0.4673 -1.3431 -0.7653
 3151TIP3    H231089   2.109   0.521   2.013 -0.8875 -1.1118 -0.4252
 3152TIP3   OH231090   4.423   2.804   7.914 -0.1318 -0.5251 -0.0304
 3152TIP3    H131091   4.354   2.738   7.909 -0.7890  0.1558 -0.2217
 3152TIP3    H231092   4.452   2.816   7.823 -0.5185 -0.0476 -0.0985
 3153TIP3   OH231093   3.421   0.460   7.756 -0.0611  0.0803 -0.4903
 3153TIP3    H131094   3.500   0.437   7.706 -0.1637  0.3092 -0.7662
 3153TIP3    H231095   3.352   0.406   7.718 -0.0733  0.0213 -0.3818
 3154TIP3   OH231096   5.399   1.987   1.862  0.0103  0.1097  0.5718
 3154TIP3    H131097   5.490   1.956   1.864 -0.6291 -2.0380 -0.4425
 3154TIP3    H231098   5.349   1.915   1.901 -1.4229  0.5552 -0.3813
 3155TIP3   OH231099   1.314   3.968   0.081  0.7080 -0.1848 -0.4898
 3155TIP3    H131100   1.378   3.977   0.011 -1.2819 -0.7258 -2.5281
 3155TIP3    H231101   1.253   4.041   0.068  2.1685  1.8884  2.9851
 3156TIP3   OH231102   3.921   3.733   2.681 -0.3805 -0.4184  0.1035
 3156TIP3    H131103   3.845   3.756   2.735 -1.5166 -0.0281 -1.5762
 3156TIP3    H231104   3.924   3.637   2.683 -1.1291 -0.4535 -0.0611
 3157TIP3   OH231105   0.511   3.228   7.355  0.4398 -0.7224 -0.2048
 3157TIP3    H131106   0.599   3.266   7.362  0.1725 -0.2130  0.4780
 3157TIP3    H231107   0.509   3.189   7.268  1.2708 -0.5535 -0.3092
 3158TIP3   OH231108   5.266   6.863   7.548  0.5591 -0.8604  0.2909
 3158TIP3    H131109   5.247   6.799   7.479  0.5632 -0.6300  0.0743
 3158TIP3    H231110   5.275   6.810   7.627 -0.3595 -1.0388  0.2837
 3159TIP3   OH231111   0.837   0.040   1.062 -0.2710 -0.0051 -0.6336
 3159TIP3    H131112   0.832   0.102   1.135  0.6724 -0.5706 -0.0732
 3159TIP3    H231113   0.898   0.081   1.000 -0.5252  0.1447 -0.7881
 3160TIP3   OH231114   0.205   6.178   2.077 -0.1854  0.1290 -0.2559
 3160TIP3    H131115   0.198   6.161   1.983  1.6766 -2.0091 -0.1022
 3160TIP3    H231116   0.117   6.165   2.111 -0.5186 -0.9157 -1.4604
 3161TIP3   OH231117   1.765   0.003   7.640  0.3218 -0.0435 -0.0407
 3161TIP3    H131118   1.707   0.032   7.710  0.0132 -0.7369  0.0022
 3161TIP3    H231119   1.834   0.070   7.636  0.3970 -0.0395  0.9773
 3162TIP3   OH231120   0.881   2.960   1.471 -0.3821 -0.4720  0.4484
 3162TIP3    H131121   0.922   2.892   1.417 -0.8462 -0.5542  0.1853
 3162TIP3    H231122   0.949   2.988   1.531 -0.2062 -1.2364  0.6190
 3163TIP3   OH231123   1.419   4.354   8.366  0.4264  0.2885 -0.0311
 3163TIP3    H131124   1.349   4.396   8.316  0.6291  0.9920  0.2637
 3163TIP3    H231125   1.467   4.426   8.406  2.8722  0.0426 -2.2249
 3164TIP3   OH231126   0.643   2.707   0.390 -0.5501 -0.2679  0.6617
 3164TIP3    H131127   0.683   2.696   0.304 -0.5085 -2.0618  0.8685
 3164TIP3    H231128   0.698   2.771   0.434 -1.1911  1.5422 -0.9857
 3165TIP3   OH231129   1.021   4.948   0.140  0.2345 -0.4830  0.1403
 3165TIP3    H131130   1.012   4.978   0.231 -1.0082 -0.7176  0.1077
 3165TIP3    H231131   0.975   5.015   0.089  1.9296  0.2807 -0.4610
 3166TIP3   OH231132   6.912   1.969   0.564  0.0731  0.6540 -1.2301
 3166TIP3    H131133   6.861   2.046   0.541 -0.2347  1.2163  1.1427
 3166TIP3    H231134   6.849   1.909   0.605  0.9575  0.6651  0.2173
 3167TIP3   OH231135   0.192   5.399   2.116 -0.2193 -0.1642 -0.9116
 3167TIP3    H131136   0.187   5.336   2.188  2.1132  2.0369  1.4141
 3167TIP3    H231137   0.279   5.384   2.077 -0.9269 -0.4373 -2.4487
 3168TIP3   OH231138   6.448   5.638   6.768 -0.2656 -0.7037  0.5401
 3168TIP3    H131139   6.498   5.719   6.776 -3.2738  1.3877 -0.3285
 3168TIP3    H231140   6.456   5.614   6.675  1.0997 -1.8058  0.9117
 3169TIP3   OH231141   3.484   3.998   1.809  0.5169 -0.7288 -0.3116
 3169TIP3    H131142   3.485   3.964   1.899  1.9340  1.3448  0.5205
 3169TIP3    H231143   3.487   4.093   1.819 -1.7348 -0.3042 -2.5603
 3170TIP3   OH231144   0.308   6.907   8.273  0.0976  0.1736 -0.0230
 3170TIP3    H131145   0.215   6.917   8.253 -0.3863 -1.3795  1.2694
 3170TIP3    H231146   0.349   6.897   8.187 -1.0408  0.0615 -0.5794
 3171TIP3   OH231147   0.001   4.529   1.035  0.2511  0.6975  0.4420
 3171TIP3    H131148   0.012   4.605   1.092  0.9422 -0.5002  1.9528
 3171TIP3    H231149  -0.069   4.478   1.076  1.4717 -0.7034  0.8566
 3172TIP3   OH231150   5.990   3.769   0.822  0.1408  0.1116 -0.3759
 3172TIP3    H131151   5.982   3.830   0.895  0.1689  0.5918 -0.7771
 3172TIP3    H231152   6.065   3.801   0.772  2.4106 -2.1487  1.2583
 3173TIP3   OH231153   2.961   5.308   7.669  0.0513 -0.1620 -0.1973
 3173TIP3    H131154   2.987   5.339   7.582 -0.9492  0.6103 -0.2432
 3173TIP3    H231155   2.868   5.285   7.659 -0.4883  1.3267  1.0018
 3174TIP3   OH231156   4.216   0.691   0.490 -0.1910  0.2864  0.3734
 3174TIP3    H131157   4.269   0.637   0.432  0.1629 -0.2100  1.1427
 3174TIP3    H231158   4.135   0.707   0.442  1.3513  2.7075 -1.6814
 3175TIP3   OH231159   1.342   0.515   0.603 -0.3644 -0.7557  0.1664
 3175TIP3    H131160   1.425   0.470   0.596  0.0158 -0.3178  1.4973
 3175TIP3    H231161   1.360   0.590   0.660 -1.7857 -1.0071  1.0104
 3176TIP3   OH231162   1.052   1.410   8.524  0.4258 -0.3714  0.5334
 3176TIP3    H131163   1.137   1.452   8.542  0.3308 -0.2300  0.6492
 3176TIP3    H231164   1.038   1.350   8.597 -0.0299  0.3115  1.0095
 3177TIP3   OH231165   3.817   1.518   0.048  0.0555  0.3095  0.1860
 3177TIP3    H131166   3.765   1.449   0.008 -0.5625  0.8417  0.0589
 3177TIP3    H231167   3.888   1.534  -0.014 -0.2251  0.3055 -0.1368
 3178TIP3   OH231168   3.958   3.272   1.391 -0.0465 -0.5617  0.2726
 3178TIP3    H131169   4.025   3.222   1.438 -0.1391 -1.3355 -0.3994
 3178TIP3    H231170   3.991   3.277   1.301  0.5198  1.5875  0.5376
 3179TIP3   OH231171   4.186   5.301   7.972  0.1390 -0.1630 -0.0359
 3179TIP3    H131172   4.099   5.338   7.956  0.0802 -0.6898 -1.0209
 3179TIP3    H231173   4.169   5.209   7.992  0.4421 -0.2017  0.0447
 3180TIP3   OH231174   5.053   0.471   7.959 -0.0936  0.2217  0.1302
 3180TIP3    H131175   4.962   0.469   7.987  0.6080  0.4169  2.6259
 3180TIP3    H231176   5.101   0.426   8.029  1.7940  0.5837 -0.8649
 3181TIP3   OH231177   0.123   0.941   7.165 -0.1516 -0.0185 -0.0998
 3181TIP3    H131178   0.182   0.884   7.115  1.1915  0.1807  1.1897
 3181TIP3    H231179   0.130   0.909   7.255 -1.6657  0.3391  0.1706
 3182TIP3   OH231180   4.018   1.643   2.348 -0.2696  0.0762  0.5996
 3182TIP3    H131181   3.940   1.690   2.377 -0.9547 -0.1695 -0.8050
 3182TIP3    H231182   3.991   1.596   2.270  1.2208 -0.2147  0.2239
 3183TIP3   OH231183   2.110   5.180   7.968  0.0725 -0.8692 -1.3268
 3183TIP3    H131184   2.201   5.182   8.000 -0.9610 -2.5814  2.3671
 3183TIP3    H231185   2.094   5.088   7.947 -1.0962 -0.7971 -0.8417
 3184TIP3   OH231186   2.111   2.746   7.851 -0.3303 -0.2619 -0.0460
 3184TIP3    H131187   2.061   2.672   7.817 -0.5458  0.6373 -1.7983
 3184TIP3    H231188   2.063   2.823   7.821  2.1606  0.6632 -2.0677
 3185TIP3   OH231189   6.428   6.431   1.120  0.5640  0.4214 -0.5082
 3185TIP3    H131190   6.457   6.475   1.041  0.6020  0.5031 -0.4486
 3185TIP3    H231191   6.335   6.416   1.107  0.7388 -0.3704 -0.9598
 3186TIP3   OH231192   0.069   2.309   1.684  0.6324 -0.6941 -0.1669
 3186TIP3    H131193   0.022   2.304   1.601  1.0164 -0.8310 -0.3794
 3186TIP3    H231194   0.111   2.223   1.692  0.5894 -0.6857  0.1765
 3187TIP3   OH231195   5.339   2.523   1.443  0.1698 -0.1471  0.0199
 3187TIP3    H131196   5.261   2.478   1.477  0.1110 -0.9354 -1.0974
 3187TIP3    H231197   5.378   2.564   1.519  0.0744 -1.8753  1.0556
 3188TIP3   OH231198   1.597   2.114   0.607 -0.4321  0.2638  0.2748
 3188TIP3    H131199   1.640   2.029   0.593  0.7850  0.6894  1.2726
 3188TIP3    H231200   1.602   2.157   0.521 -1.6590 -0.8960 -0.4297
 3189TIP3   OH231201   3.902   6.579   0.533  0.2235 -0.1733 -0.1812
 3189TIP3    H131202   3.859   6.634   0.598  0.1183  0.5249 -0.8163
 3189TIP3    H231203   3.920   6.497   0.578 -0.2301  0.1424  0.5933
 3190TIP3   OH231204   2.789   0.364   2.564  0.4710  0.2643 -0.0936
 3190TIP3    H131205   2.695   0.383   2.558  0.4723  0.1950 -0.3318
 3190TIP3    H231206   2.793   0.282   2.615  0.4265  0.4934  0.2816
 3191TIP3   OH231207   0.105   5.481   0.922  0.1518 -0.4036  0.0295
 3191TIP3    H131208   0.154   5.519   0.995  0.5412 -1.6097  0.4070
 3191TIP3    H231209   0.014   5.493   0.946  0.2707 -0.0148  0.3044
 3192TIP3   OH231210   0.210   5.591   0.676 -0.4338  0.1069 -0.3170
 3192TIP3    H131211   0.167   5.545   0.749 -1.2258  1.6382  0.2246
 3192TIP3    H231212   0.143   5.596   0.608 -0.2881  0.2734 -0.4495
 3193TIP3   OH231213   2.024   0.078   6.478  0.4947 -0.3317 -0.1795
 3193TIP3    H131214   2.091   0.050   6.416  1.7147  0.5164  0.7063
 3193TIP3    H231215   2.072   0.103   6.556 -0.9632 -0.8354  0.9304
 3194TIP3   OH231216   3.173   1.669   2.780  0.4323  0.1517 -0.2310
 3194TIP3    H131217   3.254   1.719   2.775 -0.8922  2.3335 -1.4474
 3194TIP3    H231218   3.168   1.622   2.697 -0.0202  0.8341 -0.5974
 3195TIP3   OH231219   0.828   5.654   1.126  0.1776 -0.3660 -0.5230
 3195TIP3    H131220   0.830   5.750   1.129  3.9217 -0.2355 -1.7364
 3195TIP3    H231221   0.765   5.634   1.057 -0.6937  1.2011 -0.2358
 3196TIP3   OH231222   0.688   5.241   0.903 -0.2284 -0.2193  0.2003
 3196TIP3    H131223   0.639   5.266   0.982  0.1215  1.8865 -0.1885
 3196TIP3    H231224   0.690   5.146   0.906  0.4144 -0.2343  3.1655
 3197TIP3   OH231225   6.795   1.173   2.156 -0.3741 -0.0576  0.3039
 3197TIP3    H131226   6.867   1.133   2.205 -0.5953  0.5112  1.1231
 3197TIP3    H231227   6.815   1.154   2.065 -0.4570 -1.9992  0.6442
 3198TIP3   OH231228   5.792   2.353   8.021  0.0639  0.4320 -0.1399
 3198TIP3    H131229   5.783   2.310   8.106 -2.5068  1.9138  0.4300
 3198TIP3    H231230   5.799   2.281   7.958  1.3772 -0.6940  1.2230
 3199TIP3   OH231231   5.606   5.305   7.273  0.5393 -0.0219  0.1532
 3199TIP3    H131232   5.644   5.228   7.230 -0.9144 -0.5874 -0.1963
 3199TIP3    H231233   5.632   5.379   7.219  0.0795 -0.5427 -0.8035
 3200TIP3   OH231234   1.833   5.703   0.441  0.2089  0.4016 -0.2610
 3200TIP3    H131235   1.810   5.717   0.533  1.2740 -0.7302  0.2024
 3200TIP3    H231236   1.749   5.710   0.395 -0.1431  2.5340  0.5593
 3201TIP3   OH231237   3.550   2.186   0.416 -0.0356 -0.2989  0.5515
 3201TIP3    H131238   3.590   2.268   0.388 -1.5416  0.5304  0.7102
 3201TIP3    H231239   3.496   2.157   0.342 -1.0006 -0.1196  1.1550
 3202TIP3   OH231240   1.242   6.283   2.616 -0.5225  0.4917  0.2617
 3202TIP3    H131241   1.267   6.272   2.524 -0.9368  0.0207  0.1960
 3202TIP3    H231242   1.325   6.286   2.664 -0.2940  1.2793 -0.1800
 3203TIP3   OH231243   6.457   1.629   2.149  0.5296 -0.0322  0.0393
 3203TIP3    H131244   6.393   1.560   2.133 -0.2974  0.9154 -0.9541
 3203TIP3    H231245   6.540   1.594   2.117  0.0705 -0.4810 -0.6945
 3204TIP3   OH231246   6.349   0.352   7.599  0.5785  0.1696 -0.7176
 3204TIP3    H131247   6.317   0.295   7.529 -1.2928  1.7293 -1.2270
 3204TIP3    H231248   6.270   0.387   7.639  1.6474  1.6600  0.1832
 3205TIP3   OH231249   4.013   6.168   0.939 -0.2739 -0.4466  0.8838
 3205TIP3    H131250   4.003   6.196   0.848  3.2091  0.2129  0.5416
 3205TIP3    H231251   3.959   6.229   0.989 -0.8864  0.3023 -0.6243
 3206TIP3   OH231252   4.853   5.986   7.292 -0.0170  0.1351  0.3196
 3206TIP3    H131253   4.934   5.936   7.293  0.0714  0.2365 -0.8386
 3206TIP3    H231254   4.868   6.056   7.229 -1.5988 -0.8788 -1.2973
 3207TIP3   OH231255   6.851   1.358   2.458 -0.2061  0.1605 -0.3726
 3207TIP3    H131256   6.912   1.423   2.424 -1.1951  1.3061 -0.0070
 3207TIP3    H231257   6.871   1.351   2.551 -1.8793  2.0239  0.1877
 3208TIP3   OH231258   0.506   6.393   1.510 -0.0524 -0.7154  0.1036
 3208TIP3    H131259   0.416   6.425   1.517  0.2074  0.6088 -1.9469
 3208TIP3    H231260   0.544   6.443   1.438  2.0918 -1.8429  0.3744
 3209TIP3   OH231261   5.843   6.833   6.533 -0.7717  0.1998 -0.3846
 3209TIP3    H131262   5.871   6.849   6.443  1.3630  2.7114  0.6176
 3209TIP3    H231263   5.768   6.891   6.546  0.2549  1.4503  0.0588
 3210TIP3   OH231264   0.619   1.055   1.985  0.3146 -0.0123 -0.6050
 3210TIP3    H131265   0.527   1.030   1.981 -0.2078  1.8253 -1.0429
 3210TIP3    H231266   0.645   1.064   1.893  0.4701  1.0075 -0.4695
 3211TIP3   OH231267   4.769   0.399   7.886  0.7271  0.8364  0.5303
 3211TIP3    H131268   4.766   0.456   7.962  2.4083  0.2180  1.1030
 3211TIP3    H231269   4.715   0.443   7.821 -0.3022  1.6559  1.8749
 3212TIP3   OH231270   3.952   3.966   1.025  0.6747 -0.3362  0.4874
 3212TIP3    H131271   3.872   3.968   1.077  0.9992  1.4383  0.9830
 3212TIP3    H231272   4.010   3.906   1.073  0.9031  1.1248  2.1509
 3213TIP3   OH231273   1.217   1.705   1.367 -0.7032 -0.2024 -0.1809
 3213TIP3    H131274   1.270   1.778   1.401 -1.5940  0.9788 -1.2205
 3213TIP3    H231275   1.224   1.714   1.272  1.1954 -3.0206 -0.4228
 3214TIP3   OH231276   2.793   6.055   7.984 -0.1369 -0.0402 -0.0645
 3214TIP3    H131277   2.799   6.078   7.891  1.3512 -0.8791 -0.1960
 3214TIP3    H231278   2.738   6.124   8.022  0.1633  0.9362 -1.3507
 3215TIP3   OH231279   4.505   5.568   7.610  0.2114  0.3071 -0.7919
 3215TIP3    H131280   4.418   5.528   7.617  0.3890 -0.0029 -0.3086
 3215TIP3    H231281   4.489   5.656   7.575 -0.4744  0.8997  0.9153
 3216TIP3   OH231282   3.866   6.910   8.087  0.1488  0.0058  0.3616
 3216TIP3    H131283   3.895   6.863   8.008  0.9477  0.9187  0.0999
 3216TIP3    H231284   3.776   6.937   8.067  0.2149 -0.0960 -0.0892
 3217TIP3   OH231285   2.814   4.938   6.889  0.2452  0.3560 -0.1766
 3217TIP3    H131286   2.771   4.978   6.814 -0.3577  1.7337  0.8670
 3217TIP3    H231287   2.760   4.862   6.910  1.5123 -1.2360 -2.3022
 3218TIP3   OH231288   2.616   2.752   0.936  0.2692 -0.5415  0.3344
 3218TIP3    H131289   2.703   2.756   0.976  0.3405  1.7885  0.1000
 3218TIP3    H231290   2.555   2.773   1.007  0.1862  0.9880 -0.1607
 3219TIP3   OH231291   6.368   0.781   0.266  0.7727  0.0312 -1.1797
 3219TIP3    H131292   6.329   0.694   0.279  0.7575  0.1659 -0.2543
 3219TIP3    H231293   6.343   0.805   0.177 -1.0582 -0.0033 -0.7160
 3220TIP3   OH231294   0.633   1.781   1.271  0.6288  0.1542  0.0488
 3220TIP3    H131295   0.616   1.767   1.364  0.1867  0.6219  0.0394
 3220TIP3    H231296   0.601   1.701   1.229 -0.9807  0.7417  0.1022
 3221TIP3   OH231297   3.488   5.650   2.026  0.1027 -0.2570  0.5575
 3221TIP3    H131298   3.536   5.670   2.107  1.3691  0.8678 -0.4335
 3221TIP3    H231299   3.555   5.625   1.963 -0.7810 -0.2974 -0.3939
 3222TIP3   OH231300   2.964   1.435   2.497  0.4085 -0.4516  0.4392
 3222TIP3    H131301   3.058   1.448   2.503  0.6510 -2.1700  0.8955
 3222TIP3    H231302   2.944   1.450   2.404  1.2052 -0.5296  0.2454
 3223TIP3   OH231303   3.490   5.873   1.216 -0.4666  0.2814 -0.0183
 3223TIP3    H131304   3.532   5.863   1.301  0.5928  1.2887 -0.4000
 3223TIP3    H231305   3.520   5.958   1.184 -0.5371 -0.2463 -1.5741
 3224TIP3   OH231306   1.859   6.828   6.333  0.1083 -0.2824 -0.3497
 3224TIP3    H131307   1.942   6.874   6.346  0.3913 -1.2180  1.6468
 3224TIP3    H231308   1.880   6.735   6.345 -1.2938 -0.5018  0.8028
 3225TIP3   OH231309   0.708   2.134   7.296  0.1854  0.3183 -0.4684
 3225TIP3    H131310   0.736   2.104   7.209 -0.4662  1.3289 -1.0496
 3225TIP3    H231311   0.628   2.183   7.279 -1.1808 -1.3161  0.9893
 3226TIP3   OH231312   6.687   3.968   1.517 -0.8188  0.0664  0.5479
 3226TIP3    H131313   6.745   3.898   1.547  0.0538  0.8403  0.7174
 3226TIP3    H231314   6.694   3.965   1.422  0.7127  1.0904  0.5754
 3227TIP3   OH231315   6.511   4.369   1.704  0.0464 -0.0207  0.0799
 3227TIP3    H131316   6.544   4.279   1.703  0.0514 -0.0112 -0.6679
 3227TIP3    H231317   6.426   4.362   1.749 -0.9649 -0.7668 -1.8322
 3228TIP3   OH231318   4.707   0.806   8.328  0.0598 -0.1554 -0.3453
 3228TIP3    H131319   4.699   0.754   8.408  0.9154 -1.0133 -0.8004
 3228TIP3    H231320   4.780   0.865   8.345 -0.0679 -0.0036 -0.3202
 3229TIP3   OH231321   2.077   3.597   1.271  0.6884 -0.4445  0.5067
 3229TIP3    H131322   2.002   3.540   1.288  1.2491 -1.1833  0.5500
 3229TIP3    H231323   2.138   3.579   1.342  1.4021 -0.7206 -0.1634
 3230TIP3   OH231324   6.363   3.811   7.852  0.8429  0.6463  0.0717
 3230TIP3    H131325   6.424   3.787   7.782  0.7729 -1.2050  0.6081
 3230TIP3    H231326   6.280   3.829   7.806  0.3672 -2.0583 -0.2560
 3231TIP3   OH231327   1.302   5.012   7.152  0.0863  0.1284  0.0992
 3231TIP3    H131328   1.260   5.060   7.223 -1.6884  1.2587 -1.5911
 3231TIP3    H231329   1.230   4.970   7.106  1.3196 -1.7022 -0.2791
 3232TIP3   OH231330   6.572   0.963   8.098 -0.6125  0.0128  0.0138
 3232TIP3    H131331   6.613   0.920   8.023 -1.7297  1.1506 -1.3075
 3232TIP3    H231332   6.646   0.988   8.155  0.2051 -1.3965 -0.3803
 3233TIP3   OH231333   3.533   6.453   7.470 -0.6011 -0.3360 -0.5059
 3233TIP3    H131334   3.576   6.477   7.552  0.0769 -0.4730 -0.8137
 3233TIP3    H231335   3.588   6.384   7.433 -0.0653  0.7281 -1.7917
 3234TIP3   OH231336   4.714   4.428   2.709 -0.0727  0.4178  0.6732
 3234TIP3    H131337   4.697   4.496   2.774  2.8164  1.4074  0.5274
 3234TIP3    H231338   4.796   4.388   2.737  0.9226  0.4037 -1.9567
 3235TIP3   OH231339   1.839   3.720   0.187  0.1924 -0.1587 -0.3315
 3235TIP3    H131340   1.761   3.737   0.134 -0.1102 -0.8544 -0.1220
 3235TIP3    H231341   1.859   3.805   0.228 -0.2239  0.1161 -0.6890
 3236TIP3   OH231342   5.692   3.766   0.920 -0.4989 -0.2534 -0.1755
 3236TIP3    H131343   5.725   3.810   0.841 -2.2315  2.4702  0.4778
 3236TIP3    H231344   5.754   3.790   0.989 -1.0614  0.6522  0.0343
 3237TIP3   OH231345   5.068   6.766   0.294 -0.2190 -0.0591  0.5752
 3237TIP3    H131346   5.152   6.803   0.268  0.5202 -2.2396 -0.4411
 3237TIP3    H231347   5.002   6.821   0.252  0.7830  0.3764 -0.4462
 3238TIP3   OH231348   0.477   3.885   0.545  0.0635 -0.3697  0.6204
 3238TIP3    H131349   0.495   3.793   0.564 -0.8890 -0.7254 -0.0927
 3238TIP3    H231350   0.527   3.904   0.466 -1.7197 -1.0457 -0.7315
 3239TIP3   OH231351   4.404   5.897   7.973 -0.0344  0.2187 -0.0030
 3239TIP3    H131352   4.448   5.816   8.000  0.0491  0.6730  1.2474
 3239TIP3    H231353   4.472   5.964   7.979 -0.3840  0.5752 -0.0027
 3240TIP3   OH231354   1.092   6.199   6.812  0.5453  0.1290  0.0204
 3240TIP3    H131355   1.119   6.286   6.843  0.3783  0.9215 -1.9042
 3240TIP3    H231356   1.033   6.217   6.738 -3.0418 -1.5671  2.1855
 3241TIP3   OH231357   4.189   2.766   6.837  0.0964 -0.3569 -0.1073
 3241TIP3    H131358   4.144   2.704   6.895  0.9906 -2.5082 -1.5844
 3241TIP3    H231359   4.282   2.755   6.857  0.2124  1.6515  0.6302
 3242TIP3   OH231360   0.022   3.903   0.989  0.6870 -0.3050 -0.4072
 3242TIP3    H131361   0.012   3.893   0.894 -1.2417 -1.9423 -0.1176
 3242TIP3    H231362   0.028   3.813   1.022 -0.0163  0.1726  1.1186
 3243TIP3   OH231363   2.784   1.125   7.928 -0.2592  0.4275  0.3879
 3243TIP3    H131364   2.866   1.076   7.931 -1.1463 -1.0912  1.0057
 3243TIP3    H231365   2.763   1.142   8.020  0.6969  3.2522  0.1893
 3244TIP3   OH231366   4.753   5.155   7.740 -0.0210 -0.1955 -0.0190
 3244TIP3    H131367   4.793   5.110   7.815 -2.4616 -0.1507  1.3969
 3244TIP3    H231368   4.722   5.238   7.777 -0.9729 -0.0239 -1.1812
 3245TIP3   OH231369   1.032   3.623   8.124  0.6953 -0.2145  0.1309
 3245TIP3    H131370   1.060   3.623   8.215  0.1320  1.4857  0.3473
 3245TIP3    H231371   0.973   3.548   8.116  1.9804 -1.3148  0.7349
 3246TIP3   OH231372   1.667   3.029   2.227  0.2177  0.1440  0.4494
 3246TIP3    H131373   1.670   3.121   2.202 -0.3887  0.2022  0.5787
 3246TIP3    H231374   1.756   3.009   2.257  0.7272  0.2929 -0.9228
 3247TIP3   OH231375   3.434   2.652   1.084  0.5184  0.1866  0.2548
 3247TIP3    H131376   3.391   2.593   1.146  0.8044 -0.0071  0.2702
 3247TIP3    H231377   3.366   2.714   1.059  0.8483  1.3567  2.0770
 3248TIP3   OH231378   4.247   0.191   2.667 -0.0806  0.2976  0.1010
 3248TIP3    H131379   4.271   0.208   2.758  1.7254  2.4357 -0.6814
 3248TIP3    H231380   4.310   0.125   2.638 -0.6358 -0.3602  0.3798
 3249TIP3   OH231381   3.327   5.621   1.671 -0.1627  0.0385  0.7114
 3249TIP3    H131382   3.374   5.543   1.642 -0.4758 -0.0878  0.5322
 3249TIP3    H231383   3.394   5.677   1.711  0.5894  0.8788 -1.5452
 3250TIP3   OH231384   6.508   1.866   0.460 -0.0744 -0.3943  0.5716
 3250TIP3    H131385   6.525   1.897   0.372  1.1232 -0.6870  0.6879
 3250TIP3    H231386   6.516   1.943   0.516  0.0867 -0.3787  0.5273
 3251TIP3   OH231387   4.528   5.025   8.008  0.4640 -0.1398  0.4590
 3251TIP3    H131388   4.578   5.105   7.993  0.1577 -0.1586 -0.8330
 3251TIP3    H231389   4.592   4.954   7.999  0.5875 -0.0769  0.8338
 3252TIP3   OH231390   5.056   2.534   7.142 -0.0673 -0.1300  0.2007
 3252TIP3    H131391   4.983   2.522   7.202  1.1106 -0.4310  1.6446
 3252TIP3    H231392   5.057   2.455   7.088 -1.0166  0.0481 -0.0831
 3253TIP3   OH231393   5.393   2.503   1.910 -0.4427  0.3686 -0.4627
 3253TIP3    H131394   5.391   2.408   1.897  2.8641  0.0155  0.6241
 3253TIP3    H231395   5.340   2.539   1.838 -2.3645 -2.2618 -0.4961
 3254TIP3   OH231396   0.093   5.862   7.791 -0.1442  0.0447 -0.7282
 3254TIP3    H131397   0.017   5.907   7.827  0.2708  0.0493  0.1808
 3254TIP3    H231398   0.089   5.774   7.829  0.1831 -0.0188 -0.8391
 3255TIP3   OH231399   4.807   4.576   1.185  0.0177 -0.2142 -0.2628
 3255TIP3    H131400   4.858   4.509   1.139  0.3438 -0.3303  0.2579
 3255TIP3    H231401   4.753   4.527   1.247 -0.0022 -0.0202 -0.1256
 3256TIP3   OH231402   0.099   4.517   7.826 -0.2750  0.0639 -0.3396
 3256TIP3    H131403   0.039   4.442   7.830  0.0509 -0.3312 -2.1625
 3256TIP3    H231404   0.178   4.483   7.784 -0.0154  1.3620 -0.9512
 3257TIP3   OH231405   2.621   6.551   1.529 -0.9091  0.1702  0.2171
 3257TIP3    H131406   2.560   6.606   1.578 -2.6627 -1.7361  0.3005
 3257TIP3    H231407   2.568   6.479   1.497  0.5850  0.2921 -2.8726
 3258TIP3   OH231408   5.410   2.848   2.084  0.2755 -0.1893  0.3699
 3258TIP3    H131409   5.338   2.875   2.027  1.4091 -0.4428 -1.2335
 3258TIP3    H231410   5.379   2.869   2.172 -0.7786  1.9853 -0.4433
 3259TIP3   OH231411   3.361   6.903   1.642  0.2024 -0.5280  0.7139
 3259TIP3    H131412   3.338   6.822   1.596  1.2415 -0.9083  0.8340
 3259TIP3    H231413   3.383   6.875   1.731  1.1863 -0.2168  0.5878
 3260TIP3   OH231414   5.460   4.263   2.408 -0.7022 -0.2430  0.2664
 3260TIP3    H131415   5.543   4.300   2.439  0.1567 -0.8776 -1.1627
 3260TIP3    H231416   5.429   4.210   2.481  0.3878 -0.3592  0.6673
 3261TIP3   OH231417   5.454   0.462   8.312 -0.0640  0.0068 -0.3508
 3261TIP3    H131418   5.481   0.533   8.253 -0.7950  1.3413  0.8444
 3261TIP3    H231419   5.528   0.453   8.372  0.2939 -0.7086 -0.8867
 3262TIP3   OH231420   3.355   1.766   0.672  0.1330  0.2404 -0.2879
 3262TIP3    H131421   3.406   1.690   0.700 -0.6686 -0.5142 -0.8135
 3262TIP3    H231422   3.404   1.800   0.597  1.7727  1.7040  1.3466
 3263TIP3   OH231423   3.713   0.097   2.294  0.8086 -1.1206 -0.0790
 3263TIP3    H131424   3.805   0.111   2.270  1.4260 -2.8977  1.0001
 3263TIP3    H231425   3.718   0.051   2.378 -1.1520  1.5709  1.6580
 3264TIP3   OH231426   3.388   6.636   1.543  0.2512  0.0673  0.2756
 3264TIP3    H131427   3.414   6.563   1.599 -0.6998 -0.8588 -0.4613
 3264TIP3    H231428   3.471   6.672   1.511  0.7244 -1.1120  0.1290
 3265TIP3   OH231429   0.897   5.748   8.194 -0.5094 -0.3893  0.0829
 3265TIP3    H131430   0.819   5.744   8.250 -0.4721  0.1880  0.1806
 3265TIP3    H231431   0.925   5.839   8.198 -0.1565 -0.4716 -0.4080
 3266TIP3   OH231432   3.538   4.973   0.673  0.2940  0.3501 -0.2409
 3266TIP3    H131433   3.449   4.973   0.640  0.4740 -0.1436 -0.7360
 3266TIP3    H231434   3.588   4.923   0.609  0.7696 -0.0821  0.4506
 3267TIP3   OH231435   5.739   1.042   1.915  1.0159  0.1123  0.0185
 3267TIP3    H131436   5.644   1.052   1.913  1.0102  0.0206 -0.2266
 3267TIP3    H231437   5.757   0.996   1.997  1.0026  1.6839  0.9417
 3268TIP3   OH231438   4.370   0.981   0.724  0.4787  0.0554 -0.0326
 3268TIP3    H131439   4.279   0.993   0.751  0.2013  0.0020 -0.9118
 3268TIP3    H231440   4.377   1.026   0.640  1.2126 -0.1034 -0.0676
 3269TIP3   OH231441   1.851   2.085   7.553  0.1396  0.1784  0.0663
 3269TIP3    H131442   1.763   2.080   7.592 -0.5135 -1.4523 -1.4726
 3269TIP3    H231443   1.860   2.003   7.504  1.9507  0.9574 -0.9983
 3270TIP3   OH231444   0.142   1.477   7.637  0.1910  0.4642 -0.1874
 3270TIP3    H131445   0.063   1.528   7.654 -0.2860 -0.2437 -0.2639
 3270TIP3    H231446   0.213   1.541   7.644 -0.4606  1.3356 -1.2093
 3271TIP3   OH231447   4.830   2.831   2.369 -0.2239  0.6763  0.1457
 3271TIP3    H131448   4.861   2.897   2.307  0.6131 -0.5542 -0.8029
 3271TIP3    H231449   4.899   2.826   2.435 -0.5536  1.1354  0.5326
 3272TIP3   OH231450   6.618   2.552   8.164  0.5211 -0.0862 -0.5653
 3272TIP3    H131451   6.554   2.540   8.093 -0.4933 -0.0893  0.3317
 3272TIP3    H231452   6.574   2.517   8.242  0.4941  2.3854  0.6281
 3273TIP3   OH231453   4.813   0.312   1.428 -0.2596 -0.0368  0.3534
 3273TIP3    H131454   4.877   0.340   1.362  0.0571 -1.4101  0.0460
 3273TIP3    H231455   4.748   0.381   1.429 -0.2945 -0.0056 -1.4470
 3274TIP3   OH231456   2.502   4.424   0.816  0.5632 -0.0886  0.2023
 3274TIP3    H131457   2.413   4.422   0.851  0.6282  0.9498  0.4558
 3274TIP3    H231458   2.555   4.459   0.888  1.4415 -2.0583  0.5755
 3275TIP3   OH231459   2.782   5.216   7.419  0.2496  0.8560 -0.5244
 3275TIP3    H131460   2.725   5.256   7.353 -3.4604 -3.8037 -0.6593
 3275TIP3    H231461   2.734   5.225   7.501  1.7146  1.0123  0.3447
 3276TIP3   OH231462   1.820   1.640   7.693 -0.1501  0.1704 -0.1621
 3276TIP3    H131463   1.851   1.618   7.781  3.1414 -0.0642 -1.2433
 3276TIP3    H231464   1.869   1.719   7.670 -0.2158 -0.3300 -2.1540
 3277TIP3   OH231465   2.939   3.352   7.836  0.3937  0.0096 -0.1908
 3277TIP3    H131466   2.967   3.441   7.815  1.6412 -0.3623 -0.1363
 3277TIP3    H231467   2.975   3.298   7.766  0.3795 -0.5710  0.2428
 3278TIP3   OH231468   5.172   1.616   0.000 -0.0043  0.3870  0.4758
 3278TIP3    H131469   5.098   1.605   0.060 -0.5036  2.3469  0.3146
 3278TIP3    H231470   5.228   1.681   0.043  1.3400 -0.6272  0.3141
 3279TIP3   OH231471   3.303   6.154   8.200  0.1025 -0.3530  0.0026
 3279TIP3    H131472   3.325   6.210   8.274  0.3415 -2.1580  1.3733
 3279TIP3    H231473   3.247   6.209   8.145  0.4472  1.2652  1.1711
 3280TIP3   OH231474   3.947   5.470   0.585  0.5147  0.6919  0.2554
 3280TIP3    H131475   3.862   5.479   0.627  0.5316  0.7381  0.2791
 3280TIP3    H231476   3.963   5.375   0.583  0.5747  0.6981  0.4734
 3281TIP3   OH231477   3.888   0.789   3.088  0.3333 -0.2732  0.7181
 3281TIP3    H131478   3.844   0.865   3.049 -0.5098 -1.5310 -0.9370
 3281TIP3    H231479   3.965   0.776   3.032  1.5054  0.4349  2.1136
 3282TIP3   OH231480   4.609   2.089   1.357  0.1951 -0.4394  0.8014
 3282TIP3    H131481   4.585   2.009   1.406 -0.4042 -0.7524  0.0172
 3282TIP3    H231482   4.526   2.122   1.323  0.4478  0.5047  1.0702
 3283TIP3   OH231483   3.387   5.120   8.089  0.1485 -0.7108 -0.4016
 3283TIP3    H131484   3.461   5.180   8.098  1.2036 -1.8304 -1.1536
 3283TIP3    H231485   3.320   5.155   8.147  1.5215 -0.0281  0.8427
 3284TIP3   OH231486   3.400   1.169   8.172 -0.2191 -0.0510 -0.1770
 3284TIP3    H131487   3.418   1.202   8.084  0.6844  0.4498  0.1850
 3284TIP3    H231488   3.443   1.083   8.175 -1.2557 -0.6058 -0.6019
 3285TIP3   OH231489   0.510   3.385   0.895 -0.4084 -1.1319 -0.2324
 3285TIP3    H131490   0.602   3.357   0.898  0.1312  0.5534  0.3453
 3285TIP3    H231491   0.476   3.364   0.982 -0.1940 -0.6273 -0.0214
 3286TIP3   OH231492   1.369   0.618   7.856  0.3373 -0.6327  0.6027
 3286TIP3    H131493   1.348   0.622   7.949  0.8885 -3.8352  0.9997
 3286TIP3    H231494   1.287   0.640   7.812 -0.1974 -0.0229  1.8519
 3287TIP3   OH231495   4.312   2.477   8.449 -0.4519 -0.1066 -0.4086
 3287TIP3    H131496   4.405   2.471   8.425 -0.9156  2.2413 -3.3168
 3287TIP3    H231497   4.268   2.413   8.393 -0.6796 -1.0032  0.7534
 3288TIP3   OH231498   4.448   1.626   2.792 -0.1952  0.3986 -0.3048
 3288TIP3    H131499   4.539   1.635   2.819 -0.8281  0.7624  1.8720
 3288TIP3    H231500   4.414   1.715   2.788 -0.1898  0.3682 -2.3315
 3289TIP3   OH231501   6.855   6.446   1.452 -0.0772 -0.4734  0.6694
 3289TIP3    H131502   6.797   6.476   1.382  0.5974 -0.7518 -0.0272
 3289TIP3    H231503   6.925   6.511   1.456  0.3916 -0.9520  0.4273
 3290TIP3   OH231504   6.715   4.429   8.373 -0.3648 -0.1968 -0.0030
 3290TIP3    H131505   6.623   4.406   8.384 -0.7775 -0.5713 -3.1467
 3290TIP3    H231506   6.751   4.357   8.320  1.4946  0.4021  0.3689
 3291TIP3   OH231507   3.702   4.523   8.478  0.5176  0.0722  0.3491
 3291TIP3    H131508   3.676   4.435   8.454 -0.4425 -0.3922  2.8094
 3291TIP3    H231509   3.622   4.575   8.472  0.6149  0.2951  0.8700
 3292TIP3   OH231510   3.195   3.176   1.040  0.2068 -0.1905 -0.0857
 3292TIP3    H131511   3.250   3.217   0.972  0.7639 -0.3651  0.2571
 3292TIP3    H231512   3.109   3.217   1.028  0.7332  1.0431  0.2050
 3293TIP3   OH231513   1.921   3.095   1.633  0.3289  0.0614 -0.0911
 3293TIP3    H131514   1.948   3.016   1.585 -0.6256  0.2871 -1.0363
 3293TIP3    H231515   1.901   3.063   1.721 -0.0795 -0.7643 -0.4714
 3294TIP3   OH231516   6.611   5.197   1.906  0.1787  0.2685 -0.4888
 3294TIP3    H131517   6.581   5.236   1.824  0.9568 -1.4243 -1.6416
 3294TIP3    H231518   6.706   5.201   1.901  0.2325  0.2019  0.3605
 3295TIP3   OH231519   1.204   2.763   1.387  0.1852  0.0156  0.3334
 3295TIP3    H131520   1.211   2.686   1.444  0.8947 -1.3308 -1.4696
 3295TIP3    H231521   1.189   2.836   1.447 -0.0555 -1.4489  2.1543
 3296TIP3   OH231522   2.895   5.348   0.899 -0.5722 -0.1337  0.3487
 3296TIP3    H131523   2.951   5.414   0.939 -0.8781  0.7961 -0.7239
 3296TIP3    H231524   2.923   5.345   0.807 -0.8088 -1.2372  0.2996
 3297TIP3   OH231525   5.100   6.533   1.516 -0.4579  0.2757  0.2667
 3297TIP3    H131526   5.172   6.583   1.553  0.1777 -0.1974 -0.3121
 3297TIP3    H231527   5.030   6.597   1.502 -0.5405  0.5647  1.7827
 3298TIP3   OH231528   4.440   4.072   1.628  0.5427 -0.6061  0.1179
 3298TIP3    H131529   4.476   4.102   1.544 -0.9253 -1.3997 -0.8486
 3298TIP3    H231530   4.352   4.040   1.606  0.2213 -1.0821  1.9275
 3299TIP3   OH231531   1.985   3.947   2.834  0.4079  0.0271  0.2981
 3299TIP3    H131532   1.954   4.037   2.832 -0.9846 -0.4541 -0.3795
 3299TIP3    H231533   2.079   3.955   2.853  0.1381  1.5628  1.1426
 3300TIP3   OH231534   6.700   4.676   1.613 -0.0352  0.6156 -0.0485
 3300TIP3    H131535   6.793   4.655   1.624 -0.0411  0.9908  0.8662
 3300TIP3    H231536   6.693   4.709   1.524  0.5585 -0.1591 -0.3933
 3301TIP3   OH231537   6.116   1.153   7.308 -0.5903  0.7920  0.9313
 3301TIP3    H131538   6.083   1.215   7.243  1.5888  1.8999  0.8047
 3301TIP3    H231539   6.088   1.067   7.275  0.1158  1.3478 -1.2918
 3302TIP3   OH231540   1.723   0.831   0.328  0.1095  0.1712 -0.0066
 3302TIP3    H131541   1.763   0.860   0.410  0.7777 -0.8569  0.0538
 3302TIP3    H231542   1.791   0.844   0.262 -0.4040  0.9344 -0.4010
 3303TIP3   OH231543   5.213   6.108   1.514 -0.7562  0.0809  0.0045
 3303TIP3    H131544   5.182   6.178   1.572 -0.7720 -1.2830  1.7060
 3303TIP3    H231545   5.133   6.064   1.484 -0.6799 -1.2706  1.6386
 3304TIP3   OH231546   4.494   0.060   2.011 -0.2961 -0.1506 -0.3580
 3304TIP3    H131547   4.526   0.117   1.941 -0.1636  0.0175 -0.1629
 3304TIP3    H231548   4.399   0.066   2.006 -0.2781  1.2582  0.6109
 3305TIP3   OH231549   3.288   6.398   0.303 -0.2021  0.0994 -0.4711
 3305TIP3    H131550   3.277   6.470   0.365 -1.9149  0.2565 -0.9156
 3305TIP3    H231551   3.210   6.401   0.249  0.4763 -1.0904 -1.5647
 3306TIP3   OH231552   0.091   6.540   0.690 -0.1095  0.0274  0.1570
 3306TIP3    H131553  -0.002   6.524   0.673 -0.1264 -0.5027  0.7028
 3306TIP3    H231554   0.124   6.578   0.609 -1.0629  1.3595  0.3686
 3307TIP3   OH231555   3.275   3.984   0.166 -0.3955 -0.1942 -0.0022
 3307TIP3    H131556   3.201   3.948   0.215 -2.1097 -0.1483 -2.4026
 3307TIP3    H231557   3.340   3.914   0.167 -0.6692 -0.4751  1.6120
 3308TIP3   OH231558   0.377   2.032   7.319 -0.1065 -0.4345 -0.0380
 3308TIP3    H131559   0.335   2.106   7.362 -0.5513 -0.3071 -0.6755
 3308TIP3    H231560   0.383   2.058   7.227  0.0088 -1.0627 -0.2142
 3309TIP3   OH231561   1.210   2.369   0.684 -0.2609 -0.1878  0.0810
 3309TIP3    H131562   1.204   2.283   0.643 -1.7293 -0.0088 -0.1332
 3309TIP3    H231563   1.268   2.419   0.626  0.6143 -1.0197  0.2142
 3310TIP3   OH231564   3.983   0.316   0.102  0.0456  0.2555 -0.5952
 3310TIP3    H131565   3.973   0.247   0.036  0.5637 -0.1024 -0.3032
 3310TIP3    H231566   3.916   0.380   0.079 -0.2615 -0.2126 -1.0383
 3311TIP3   OH231567   2.696   4.553   3.010  0.6119 -0.5590  0.3243
 3311TIP3    H131568   2.633   4.602   2.959  0.7032 -0.7084  0.0663
 3311TIP3    H231569   2.734   4.490   2.948  1.9244  0.3582  0.1543
 3312TIP3   OH231570   6.487   6.860   8.052  0.0564 -0.0689 -0.2430
 3312TIP3    H131571   6.443   6.779   8.029  0.6588  0.0765 -2.1119
 3312TIP3    H231572   6.425   6.929   8.028 -0.1220  0.0624  0.5590
 3313TIP3   OH231573   5.212   4.908   1.593  0.1997  0.8549  0.1688
 3313TIP3    H131574   5.204   4.996   1.558 -1.7192  1.3122  1.5637
 3313TIP3    H231575   5.240   4.920   1.684  0.0890  0.0212  0.3257
 3314TIP3   OH231576   1.961   5.657   7.831  0.3949 -0.2899 -0.4119
 3314TIP3    H131577   1.905   5.734   7.829 -0.3655 -0.8381 -0.8461
 3314TIP3    H231578   1.962   5.630   7.923  0.9308  0.4223 -0.2051
 3315TIP3   OH231579   3.431   3.014   8.102  0.1043  0.7975 -0.2154
 3315TIP3    H131580   3.437   2.980   8.013 -0.7599  2.0924 -0.8050
 3315TIP3    H231581   3.443   2.938   8.158 -0.3765 -0.2234 -1.4548
 3316TIP3   OH231582   1.316   2.997   0.742 -0.6094  0.2316 -1.0362
 3316TIP3    H131583   1.277   3.070   0.792  2.1821  1.6550 -0.7696
 3316TIP3    H231584   1.325   3.032   0.654  0.6940  0.1935 -0.9240
 3317TIP3   OH231585   4.660   6.012   1.801 -1.0404  0.3593 -0.5646
 3317TIP3    H131586   4.604   5.946   1.840  2.0395 -2.1635 -0.0629
 3317TIP3    H231587   4.656   6.086   1.862 -3.6072  0.2419 -0.5015
 3318TIP3   OH231588   3.736   2.563   2.323 -0.4279  0.2234 -0.1461
 3318TIP3    H131589   3.796   2.633   2.348 -0.8978 -0.0222  1.8415
 3318TIP3    H231590   3.649   2.601   2.334 -0.7086 -0.8153  1.6285
 3319TIP3   OH231591   5.152   1.897   0.816  0.0793  0.0598  0.3572
 3319TIP3    H131592   5.167   1.989   0.797  0.9579 -0.3851 -1.2711
 3319TIP3    H231593   5.237   1.855   0.801 -0.7919 -1.3176 -1.0572
 3320TIP3   OH231594   4.906   3.273   7.720  0.4844 -0.6340 -0.0130
 3320TIP3    H131595   4.935   3.317   7.800 -1.8304  1.2043 -0.0768
 3320TIP3    H231596   4.965   3.305   7.652  1.2206 -0.6393  0.6171
 3321TIP3   OH231597   5.638   2.557   7.716  0.0928 -0.2090 -0.2834
 3321TIP3    H131598   5.730   2.583   7.709 -0.2910  1.3488  0.0782
 3321TIP3    H231599   5.637   2.465   7.690  1.6022  0.0260 -1.2800
 3322TIP3   OH231600   0.307   1.572   1.587  0.4060  0.5742  0.4521
 3322TIP3    H131601   0.318   1.597   1.679 -2.4011 -1.0059  1.3177
 3322TIP3    H231602   0.310   1.655   1.539 -1.3119  1.8103  2.3582
 3323TIP3   OH231603   2.391   3.251   0.368  0.4007  0.1784  0.2175
 3323TIP3    H131604   2.327   3.229   0.300  0.2317 -1.1313  0.7559
 3323TIP3    H231605   2.419   3.340   0.347  1.0540 -0.5000 -2.1096
 3324TIP3   OH231606   0.929   1.024   0.302 -0.8389 -0.0764 -0.1973
 3324TIP3    H131607   0.975   0.942   0.286  0.0202  0.4961 -0.7959
 3324TIP3    H231608   0.961   1.053   0.387  0.6982  0.7851 -1.0154
 3325TIP3   OH231609   5.526   0.380   7.902 -0.4904  0.2540 -0.0737
 3325TIP3    H131610   5.588   0.328   7.954 -0.4329 -0.5347 -0.9099
 3325TIP3    H231611   5.581   0.423   7.836 -0.6613  0.6897  0.0604
 3326TIP3   OH231612   2.990   4.866   1.570  0.0457  0.1811 -0.1603
 3326TIP3    H131613   2.967   4.819   1.490  3.2719 -1.9319 -0.0220
 3326TIP3    H231614   2.922   4.840   1.633 -0.5275 -1.0256 -1.2420
 3327TIP3   OH231615   4.445   0.396   8.385  0.3337 -0.0661  0.2162
 3327TIP3    H131616   4.402   0.392   8.299 -1.7965  3.3203  0.9641
 3327TIP3    H231617   4.530   0.438   8.367 -0.0213  0.4568 -0.2680
 3328TIP3   OH231618   6.186   1.896   2.268 -0.1672  0.1155 -0.0193
 3328TIP3    H131619   6.231   1.820   2.305 -0.5277  0.3279  0.8730
 3328TIP3    H231620   6.253   1.942   2.218  0.4790  0.1327  0.8500
 3329TIP3   OH231621   6.921   1.387   1.263 -0.3369 -0.3847  0.1297
 3329TIP3    H131622   6.841   1.417   1.307  0.1026 -0.8860  1.3123
 3329TIP3    H231623   6.951   1.464   1.215  0.7434  1.2009  3.0494
 3330TIP3   OH231624   2.282   4.995   1.856  0.4426  0.2916 -0.1236
 3330TIP3    H131625   2.241   4.911   1.839 -0.2439  0.6828 -0.4445
 3330TIP3    H231626   2.361   4.994   1.802  1.7959 -1.1390  1.7637
 3331TIP3   OH231627   0.201   0.044   1.168  0.1349 -0.2506 -0.1510
 3331TIP3    H131628   0.203  -0.003   1.252 -1.4354  1.6572  1.0478
 3331TIP3    H231629   0.292   0.041   1.137  0.6802 -1.3841  1.4022
 3332TIP3   OH231630   6.644   3.371   6.672  0.0607  0.4626  0.1516
 3332TIP3    H131631   6.633   3.459   6.709  0.2558  0.0621  1.1975
 3332TIP3    H231632   6.628   3.312   6.745 -1.0146 -0.4230 -0.7514
 3333TIP3   OH231633   1.485   2.108   1.765 -0.3355  0.1003 -0.2585
 3333TIP3    H131634   1.489   2.183   1.706  1.2823 -1.6187 -2.5233
 3333TIP3    H231635   1.574   2.073   1.766 -0.9579 -1.6005  0.9847
 3334TIP3   OH231636   2.705   2.802   0.666 -0.0596  0.3828 -0.3328
 3334TIP3    H131637   2.798   2.821   0.653 -0.3921  1.5258 -1.1620
 3334TIP3    H231638   2.690   2.817   0.759  0.0243  2.8834 -0.6673
 3335TIP3   OH231639   0.786   6.671   7.418 -0.3396 -0.2555 -0.5943
 3335TIP3    H131640   0.739   6.725   7.482 -0.3034 -0.0586 -0.7308
 3335TIP3    H231641   0.779   6.582   7.452 -1.3154 -0.3147 -0.9119
 3336TIP3   OH231642   2.843   2.298   1.389  0.5257 -0.1652  0.1333
 3336TIP3    H131643   2.891   2.275   1.468  1.1629  1.0776  0.1334
 3336TIP3    H231644   2.750   2.287   1.413  0.7262 -0.3009  0.8796
 3337TIP3   OH231645   6.665   3.381   0.889 -0.4790  0.0926 -0.1806
 3337TIP3    H131646   6.590   3.359   0.944  0.8016 -1.1984  1.1233
 3337TIP3    H231647   6.654   3.326   0.811  1.3973 -3.7612  1.9827
 3338TIP3   OH231648   3.317   2.174   8.058  0.9145 -1.0985  0.3853
 3338TIP3    H131649   3.275   2.152   7.975  0.0506  0.7149  0.3001
 3338TIP3    H231650   3.381   2.104   8.072  0.3570 -1.9868 -1.2786
 3339TIP3   OH231651   1.598   2.585   7.442 -0.8890  0.7268 -0.7362
 3339TIP3    H131652   1.677   2.547   7.404 -0.3638 -0.5981  1.5099
 3339TIP3    H231653   1.526   2.534   7.405 -0.3999 -0.5097 -0.0270
 3340TIP3   OH231654   2.177   5.903   2.251 -0.2043 -0.4122  0.0736
 3340TIP3    H131655   2.121   5.936   2.181  1.1270 -0.4117 -1.0410
 3340TIP3    H231656   2.146   5.949   2.330 -1.8379 -0.5376 -0.4578
 3341TIP3   OH231657   6.205   0.083   1.877  0.5175  0.1547  0.1641
 3341TIP3    H131658   6.236   0.021   1.811  1.4765  0.1277  0.6214
 3341TIP3    H231659   6.275   0.087   1.941  0.9685  2.5238 -0.3639
 3342TIP3   OH231660   1.476   0.624   2.585  0.1262  1.0937 -0.2476
 3342TIP3    H131661   1.430   0.594   2.507  1.6185  0.3620 -0.8888
 3342TIP3    H231662   1.562   0.650   2.553  1.6254 -1.4213  1.4174
 3343TIP3   OH231663   3.753   0.436   0.322 -0.2380  0.0972 -0.1359
 3343TIP3    H131664   3.847   0.419   0.333 -0.4503 -1.0485  0.0639
 3343TIP3    H231665   3.749   0.515   0.268  0.8455  1.0706  1.1249
 3344TIP3   OH231666   0.955   3.310   0.915 -0.0226  0.0818  0.1413
 3344TIP3    H131667   0.953   3.244   0.845 -1.0012  0.1463  0.0987
 3344TIP3    H231668   1.048   3.329   0.927  0.1318  0.7536 -1.7867
 3345TIP3   OH231669   2.979   0.346   0.311 -0.4144  0.1465 -0.1613
 3345TIP3    H131670   3.045   0.297   0.262  1.1927  2.0857 -0.1123
 3345TIP3    H231671   3.011   0.437   0.309 -1.7903  0.7592  2.0183
 3346TIP3   OH231672   1.977   5.614   1.496  0.1299  0.1925  0.2749
 3346TIP3    H131673   1.916   5.566   1.553  1.1141  1.1340  2.2325
 3346TIP3    H231674   1.955   5.706   1.510  0.3405  0.4544 -0.9844
 3347TIP3   OH231675   2.078   3.308   7.406 -0.3492  0.5309 -0.5147
 3347TIP3    H131676   2.069   3.218   7.373 -0.5559  0.9784 -1.7520
 3347TIP3    H231677   2.024   3.311   7.485  0.4080 -0.6833  0.0686
 3348TIP3   OH231678   0.303   1.502   7.882 -0.2288 -0.2134  0.0287
 3348TIP3    H131679   0.344   1.478   7.799 -0.0428 -1.0548  0.3465
 3348TIP3    H231680   0.326   1.593   7.895  1.0472 -0.4986 -0.0941
 3349TIP3   OH231681   3.544   6.491   2.080 -0.0766  0.2536  0.3141
 3349TIP3    H131682   3.471   6.468   2.137  0.3178 -1.0018  0.3533
 3349TIP3    H231683   3.532   6.583   2.060 -2.6017 -0.2842 -1.0121
 3350TIP3   OH231684   0.726   0.068   8.111 -0.0920 -0.2510  0.0611
 3350TIP3    H131685   0.788   0.089   8.180  0.3373  0.1264 -0.4318
 3350TIP3    H231686   0.726  -0.028   8.107  0.7171 -0.2476 -0.1569
 3351TIP3   OH231687   1.472   0.439   1.344  0.3567  0.1584  0.2663
 3351TIP3    H131688   1.490   0.533   1.348 -0.4389  0.4857 -1.9501
 3351TIP3    H231689   1.396   0.426   1.400  0.2661  0.9095  0.3259
 3352TIP3   OH231690   3.659   4.375   2.285  0.3854  0.3774  0.0859
 3352TIP3    H131691   3.685   4.426   2.208  2.5358  0.6256  0.8995
 3352TIP3    H231692   3.564   4.371   2.280  0.2286  3.1547 -0.8549
 3353TIP3   OH231693   5.856   0.164   0.839 -0.1510  0.5824 -0.1080
 3353TIP3    H131694   5.901   0.218   0.904 -1.2177 -0.6314  1.7401
 3353TIP3    H231695   5.854   0.076   0.878 -1.2987 -0.0637 -1.5429
 3354TIP3   OH231696   2.118   1.492   2.512 -0.1166  0.8800 -0.2906
 3354TIP3    H131697   2.167   1.507   2.593  0.2418  2.1684 -0.7148
 3354TIP3    H231698   2.110   1.397   2.506 -1.3168  0.7692  1.9212
 3355TIP3   OH231699   2.599   6.930   1.092  0.1668  0.4552  0.1425
 3355TIP3    H131700   2.644   6.852   1.125  1.6894  1.3342  0.2665
 3355TIP3    H231701   2.582   6.982   1.171 -0.5732  0.3946  0.0276
 3356TIP3   OH231702   5.296   1.388   0.007 -0.5002  0.2626  0.2773
 3356TIP3    H131703   5.244   1.469   0.007 -0.8707  0.0237  0.5685
 3356TIP3    H231704   5.268   1.342  -0.072 -0.5705  0.2340  0.3194
 3357TIP3   OH231705   5.300   2.083   7.530 -0.1634 -0.0712  0.6858
 3357TIP3    H131706   5.374   2.022   7.521 -0.2963 -0.8224  3.6758
 3357TIP3    H231707   5.232   2.046   7.473  0.6123 -1.3018  0.5140
 3358TIP3   OH231708   0.920   4.927   1.761 -0.0956  0.4544  0.2287
 3358TIP3    H131709   0.858   5.000   1.765 -1.0962 -0.2843 -1.1011
 3358TIP3    H231710   0.873   4.853   1.798  0.4689  0.1898  0.4331
 3359TIP3   OH231711   2.655   3.497   0.848  0.3067 -0.1530  0.2389
 3359TIP3    H131712   2.725   3.440   0.817 -0.7946 -1.7994  0.6415
 3359TIP3    H231713   2.649   3.566   0.782  2.1142 -0.1209  0.0685
 3360TIP3   OH231714   1.052   6.261   0.532  0.0617  0.3295 -0.0067
 3360TIP3    H131715   0.968   6.262   0.578  0.2709  1.1699  0.3734
 3360TIP3    H231716   1.115   6.227   0.595  0.4979  2.2088  0.6449
 3361TIP3   OH231717   0.658   6.859   8.423  0.2664  0.3410 -0.1097
 3361TIP3    H131718   0.596   6.807   8.372  1.5225 -0.6523 -0.6965
 3361TIP3    H231719   0.741   6.812   8.413  1.7256  3.0057 -1.5309
 3362TIP3   OH231720   6.693   4.179   2.796 -0.3836  0.4694  0.3979
 3362TIP3    H131721   6.605   4.144   2.784 -0.6360  1.6556 -1.8123
 3362TIP3    H231722   6.682   4.274   2.785  1.1725  0.6236 -0.0341
 3363TIP3   OH231723   0.931   0.134   7.432  0.7374  0.3495  0.2216
 3363TIP3    H131724   0.911   0.182   7.352  0.5935  0.3314  0.2462
 3363TIP3    H231725   0.957   0.047   7.402  1.3192  0.5429  0.1590
 3364TIP3   OH231726   3.739   1.732   8.117  0.3502 -0.0122 -0.0336
 3364TIP3    H131727   3.800   1.661   8.096 -2.0311 -1.2022 -4.5079
 3364TIP3    H231728   3.669   1.689   8.166 -1.8289 -1.5357 -3.9870
 3365TIP3   OH231729   0.271   3.276   0.750  0.0858  0.0839  0.2128
 3365TIP3    H131730   0.249   3.369   0.745  0.3880  0.1761  0.5595
 3365TIP3    H231731   0.295   3.253   0.660 -0.1131  0.3075  0.1003
 3366TIP3   OH231732   6.863   5.020   6.419  0.0646  0.0322  0.2726
 3366TIP3    H131733   6.798   5.077   6.458 -0.4448 -1.1424  1.2171
 3366TIP3    H231734   6.812   4.950   6.379  0.7190 -0.9027  1.0183
 3367TIP3   OH231735   1.710   2.723   8.403 -0.2180  0.0440 -0.0516
 3367TIP3    H131736   1.719   2.779   8.326 -1.4252  2.2892  1.3245
 3367TIP3    H231737   1.635   2.759   8.450  0.5611 -1.1375  2.2580
 3368TIP3   OH231738   4.298   0.313   1.809  0.7264  0.4426 -0.4905
 3368TIP3    H131739   4.315   0.399   1.849  0.5774  1.2226 -2.0091
 3368TIP3    H231740   4.250   0.334   1.729 -0.5475 -1.1866 -0.1831
 3369TIP3   OH231741   6.857   4.569   0.669  0.0055  0.0306 -0.2146
 3369TIP3    H131742   6.829   4.560   0.578 -0.8410 -1.5550  0.1722
 3369TIP3    H231743   6.785   4.534   0.721  1.0870 -0.5352  0.9868
 3370TIP3   OH231744   2.193   1.675   1.862 -0.0601 -0.4664 -0.3597
 3370TIP3    H131745   2.155   1.682   1.774  2.1204  0.2033 -1.3408
 3370TIP3    H231746   2.172   1.759   1.903  1.3679  0.4418 -1.3757
 3371TIP3   OH231747   1.072   4.973   2.728 -0.2310 -0.4182 -0.1540
 3371TIP3    H131748   1.167   4.973   2.728 -0.2231  0.1252 -0.2551
 3371TIP3    H231749   1.047   4.920   2.803  0.1609  0.3902  0.5697
 3372TIP3   OH231750   2.187   1.686   8.190  0.4339 -0.4033  0.2439
 3372TIP3    H131751   2.256   1.619   8.189  2.3079  1.3940 -1.6907
 3372TIP3    H231752   2.214   1.746   8.259 -0.4002 -0.7871  0.9223
 3373TIP3   OH231753   6.578   2.708   0.707  0.3454 -0.1239  0.0724
 3373TIP3    H131754   6.585   2.761   0.627  1.0862  0.2983  0.4111
 3373TIP3    H231755   6.552   2.770   0.775  0.1943 -0.3946  0.2642
 3374TIP3   OH231756   5.948   3.504   8.163 -0.1789  0.5374 -0.5066
 3374TIP3    H131757   5.929   3.479   8.073 -0.7556  1.0025 -0.5211
 3374TIP3    H231758   5.981   3.424   8.204 -2.2212 -0.3697 -0.4794
 3375TIP3   OH231759   1.843   3.720   2.375 -0.6158  0.2708  0.2472
 3375TIP3    H131760   1.896   3.759   2.445 -0.8104 -1.0979  1.2016
 3375TIP3    H231761   1.790   3.792   2.342  0.7146  1.3362  0.3198
 3376TIP3   OH231762   2.788   5.666   7.718 -0.2991  0.0896 -0.4553
 3376TIP3    H131763   2.711   5.701   7.673 -0.6685 -1.0251 -0.7112
 3376TIP3    H231764   2.796   5.719   7.797  1.0749  2.9311 -2.3223
 3377TIP3   OH231765   2.767   6.693   8.098  0.6328 -0.2174 -0.5777
 3377TIP3    H131766   2.711   6.735   8.164  1.0375  0.9901 -0.9668
 3377TIP3    H231767   2.770   6.756   8.026  0.2420 -1.4908 -1.7492
 3378TIP3   OH231768   5.564   6.408   0.185  0.3036  0.0340 -0.1458
 3378TIP3    H131769   5.656   6.400   0.211  0.2152 -0.1959  0.1041
 3378TIP3    H231770   5.515   6.407   0.268  0.0374 -0.4804 -0.3029
 3379TIP3   OH231771   5.803   1.129   7.161  0.6701  0.3322 -0.1522
 3379TIP3    H131772   5.804   1.034   7.171  0.0368  0.3920  0.5314
 3379TIP3    H231773   5.875   1.147   7.100  1.6489 -0.4631  0.7340
 3380TIP3   OH231774   4.950   4.662   0.309  0.0366 -0.1128  0.3795
 3380TIP3    H131775   4.868   4.628   0.346  0.2264 -0.7799  0.2159
 3380TIP3    H231776   5.018   4.629   0.368  0.1851  0.4632  0.5316
 3381TIP3   OH231777   6.342   2.460   8.247 -0.2736 -0.1870 -0.5124
 3381TIP3    H131778   6.342   2.366   8.264 -0.1962 -0.1438 -0.2697
 3381TIP3    H231779   6.258   2.477   8.203 -1.5941  0.0627  1.8927
 3382TIP3   OH231780   1.875   1.452   1.251  0.3530  0.5982  0.2304
 3382TIP3    H131781   1.928   1.442   1.171 -0.3647 -2.2553  0.0050
 3382TIP3    H231782   1.904   1.381   1.308 -1.5693  0.4413  1.0842
 3383TIP3   OH231783   2.292   6.579   8.425 -0.1696  0.3326  0.0963
 3383TIP3    H131784   2.372   6.531   8.403  0.8094  1.4278  1.0848
 3383TIP3    H231785   2.300   6.662   8.378 -1.7095 -0.3148 -1.3859
 3384TIP3   OH231786   6.582   0.753   0.822 -0.2862 -0.7967 -0.5448
 3384TIP3    H131787   6.619   0.837   0.794 -0.9241 -0.5452 -0.6515
 3384TIP3    H231788   6.502   0.744   0.770 -1.6813 -0.1650  1.4118
 3385TIP3   OH231789   4.890   2.005   1.938  0.0108 -0.2505  0.3577
 3385TIP3    H131790   4.976   2.019   1.899  0.6187  0.6014  1.9344
 3385TIP3    H231791   4.835   2.074   1.900  0.0000 -0.7744 -0.6226
 3386TIP3   OH231792   6.285   4.215   8.289  0.4491  0.4584 -0.0681
 3386TIP3    H131793   6.247   4.240   8.205  0.9507 -0.8560 -0.7186
 3386TIP3    H231794   6.322   4.128   8.273 -0.2398 -0.2081  1.7586
 3387TIP3   OH231795   2.838   4.013   1.066  0.4794 -0.1462  0.5395
 3387TIP3    H131796   2.801   4.085   1.015  0.6941 -0.5591 -0.2165
 3387TIP3    H231797   2.822   4.037   1.158 -0.8560  0.0965  0.2603
 3388TIP3   OH231798   2.540   2.225   7.206  0.1458 -0.0033 -0.2938
 3388TIP3    H131799   2.483   2.185   7.271  0.6704 -1.4924 -0.7201
 3388TIP3    H231800   2.494   2.212   7.123 -0.0869  1.0801 -0.3546
 3389TIP3   OH231801   3.990   3.366   0.129  0.4882  0.1872  0.2186
 3389TIP3    H131802   3.942   3.289   0.100  0.6245 -0.9038  2.7213
 3389TIP3    H231803   3.933   3.408   0.193  0.3886  2.2745 -1.1320
 3390TIP3   OH231804   6.237   1.876   0.483  0.2654 -0.6365 -0.0002
 3390TIP3    H131805   6.314   1.853   0.534 -0.5630 -0.3184  1.4519
 3390TIP3    H231806   6.199   1.952   0.529 -0.9899 -0.8847 -0.5815
 3391TIP3   OH231807   5.717   1.451   1.702 -0.1526  0.0425 -0.1594
 3391TIP3    H131808   5.672   1.407   1.630  0.7559 -1.4640  0.1468
 3391TIP3    H231809   5.766   1.381   1.746 -0.3735  0.9823  1.6898
 3392TIP3   OH231810   3.930   0.336   7.310 -0.0937  0.3586 -0.4688
 3392TIP3    H131811   3.887   0.338   7.225 -1.0670 -2.3157 -0.1607
 3392TIP3    H231812   4.023   0.330   7.290 -0.2741  0.3120 -1.3330
 3393TIP3   OH231813   2.255   1.278   7.421  0.4760  0.0490  0.1684
 3393TIP3    H131814   2.308   1.288   7.342 -0.4690  1.2910 -0.3390
 3393TIP3    H231815   2.270   1.188   7.449 -0.3935 -0.9607 -2.3408
 3394TIP3   OH231816   6.141   6.071   7.976  0.0845  0.5085 -0.4262
 3394TIP3    H131817   6.221   6.019   7.964  0.4008  0.7109  0.6677
 3394TIP3    H231818   6.126   6.113   7.891  1.4551  0.9133 -0.4858
 3395TIP3   OH231819   2.797   6.911   3.187  0.1010  0.2105 -0.0994
 3395TIP3    H131820   2.719   6.856   3.190  0.4868 -0.3939 -0.6300
 3395TIP3    H231821   2.772   6.986   3.133  0.0185 -0.2220 -0.6777
 3396TIP3   OH231822   5.598   1.726   0.393  0.5313 -0.4264  0.3185
 3396TIP3    H131823   5.621   1.635   0.373  0.1969 -0.3711 -0.3532
 3396TIP3    H231824   5.502   1.725   0.400  0.5425 -0.1668  0.5203
 3397TIP3   OH231825   6.854   5.098   8.511  0.6207  0.5419  0.5732
 3397TIP3    H131826   6.852   5.003   8.524  0.6458  0.5719  0.7937
 3397TIP3    H231827   6.929   5.113   8.453 -0.9491  0.1473 -1.7226
 3398TIP3   OH231828   3.040   1.110   2.855 -0.1932 -0.0359 -0.3713
 3398TIP3    H131829   3.027   1.142   2.944  0.5920 -0.2284 -0.1798
 3398TIP3    H231830   3.060   1.017   2.866 -0.5005 -0.1555 -0.7845
 3399TIP3   OH231831   3.551   6.774   2.045  0.4333 -0.2775  0.1043
 3399TIP3    H131832   3.483   6.733   1.992 -0.0415  1.4854 -0.7295
 3399TIP3    H231833   3.633   6.752   2.001  0.2205 -0.6241 -0.1221
 3400TIP3   OH231834   1.145   5.635   8.130  0.3342 -0.3102  0.3500
 3400TIP3    H131835   1.218   5.620   8.191  0.6819  0.5232  0.1500
 3400TIP3    H231836   1.067   5.632   8.185  0.6920  1.2672  1.0174
 3401TIP3   OH231837   1.359   5.549   8.255  0.1023 -0.2924  0.1129
 3401TIP3    H131838   1.309   5.468   8.246 -0.0663 -0.1778  0.0272
 3401TIP3    H231839   1.416   5.534   8.331 -0.1003 -0.3987  0.2430
 3402TIP3   OH231840   4.154   4.428   2.446  0.2929 -0.4004  0.3980
 3402TIP3    H131841   4.060   4.437   2.427  0.2425 -3.7099 -1.7371
 3402TIP3    H231842   4.158   4.384   2.531 -0.0010  0.7990  1.0530
 3403TIP3   OH231843   5.530   5.826   0.429  0.1638 -0.1351  0.0488
 3403TIP3    H131844   5.465   5.756   0.422 -1.1895  1.1683 -1.1551
 3403TIP3    H231845   5.600   5.800   0.369 -0.9613  0.1482 -1.4452
 3404TIP3   OH231846   5.959   6.189   6.703  0.3334  0.5014 -0.3163
 3404TIP3    H131847   5.966   6.284   6.718 -0.3481  0.4686  0.3102
 3404TIP3    H231848   5.966   6.179   6.608 -1.2052  1.3655 -0.5669
 3405TIP3   OH231849   6.149   6.192   6.464 -0.1010 -0.0036  0.5981
 3405TIP3    H131850   6.107   6.274   6.435 -0.9523 -0.1160  1.4900
 3405TIP3    H231851   6.235   6.220   6.498  1.0502  0.1202 -2.1270
 3406TIP3   OH231852   6.847   3.108   6.840 -0.2242  0.6708  0.0342
 3406TIP3    H131853   6.872   3.147   6.924 -0.6111  3.1101 -0.9117
 3406TIP3    H231854   6.751   3.112   6.839 -0.6584 -3.6578  1.3276
 3407TIP3   OH231855   3.127   6.015   7.969 -0.0437 -0.4434  0.1917
 3407TIP3    H131856   3.079   6.039   7.890 -1.9557 -0.7126  1.2082
 3407TIP3    H231857   3.131   6.096   8.020  0.2199 -0.5236  0.3022
 3408TIP3   OH231858   6.632   0.032   0.949  0.3059  0.3199 -0.6202
 3408TIP3    H131859   6.674   0.031   0.863 -0.3168  0.1036 -0.9291
 3408TIP3    H231860   6.547  -0.010   0.935 -0.1362  0.9973 -0.0749
 3409TIP3   OH231861   0.059   2.238   0.248 -0.2568 -0.2852  0.1894
 3409TIP3    H131862   0.015   2.160   0.213 -0.2561  0.8685 -2.6010
 3409TIP3    H231863  -0.011   2.301   0.263 -0.0009  0.0661 -0.0735
 3410TIP3   OH231864   1.880   6.492   2.095  0.0465  0.0612  0.1622
 3410TIP3    H131865   1.855   6.584   2.097  1.0300  0.3227  0.4496
 3410TIP3    H231866   1.961   6.487   2.145  0.5434 -0.7970 -0.7008
 3411TIP3   OH231867   2.252   0.468   7.632 -0.3000  0.3302 -0.6332
 3411TIP3    H131868   2.227   0.391   7.580  2.0830  0.2190 -1.7321
 3411TIP3    H231869   2.316   0.434   7.695 -0.3287  1.1600 -0.1501
 3412TIP3   OH231870   6.640   0.665   8.024  0.0365  0.7179 -0.8303
 3412TIP3    H131871   6.650   0.719   7.946  0.8523 -0.6597 -1.7375
 3412TIP3    H231872   6.569   0.604   8.002 -0.8772  1.3963  0.1712
 3413TIP3   OH231873   3.407   6.080   7.920 -0.3467 -0.2517  0.6516
 3413TIP3    H131874   3.367   6.034   7.846 -1.8997 -1.5448  2.2021
 3413TIP3    H231875   3.370   6.037   7.998  1.8557  0.4892  2.2040
 3414TIP3   OH231876   0.065   3.841   2.488 -0.0254  0.3592  0.3079
 3414TIP3    H131877   0.134   3.831   2.422  1.1045  2.5607  1.0664
 3414TIP3    H231878   0.091   3.784   2.559  0.7858  0.8274  0.3939
 3415TIP3   OH231879   2.215   2.910   8.071 -0.1278 -0.4438 -0.2139
 3415TIP3    H131880   2.271   2.864   8.133 -0.1643  0.1932  0.2995
 3415TIP3    H231881   2.195   2.845   8.004  1.1534 -0.7057 -0.3667
 3416TIP3   OH231882   4.475   2.117   0.755 -0.6374 -0.2307  0.5710
 3416TIP3    H131883   4.496   2.145   0.844 -0.5542  0.5712  0.3038
 3416TIP3    H231884   4.560   2.111   0.711 -0.7743  0.6682  0.1729
 3417TIP3   OH231885   0.774   3.428   8.448 -0.4912  0.3484  0.4065
 3417TIP3    H131886   0.853   3.441   8.395 -0.2223  2.3308  1.2178
 3417TIP3    H231887   0.701   3.446   8.389 -0.3087 -0.2089  0.0001
 3418TIP3   OH231888   6.232   0.677   2.046 -0.1965  0.2096 -0.2459
 3418TIP3    H131889   6.157   0.705   2.098  0.1965  3.5475 -1.2809
 3418TIP3    H231890   6.195   0.642   1.965 -0.6646  0.5020 -0.1577
 3419TIP3   OH231891   4.040   3.779   3.191  0.7856  0.1257 -0.2181
 3419TIP3    H131892   4.019   3.858   3.242 -0.0045  0.4103 -0.9610
 3419TIP3    H231893   4.116   3.742   3.235  2.3544  2.3101 -0.9095
 3420TIP3   OH231894   2.646   6.122   1.061 -0.3865  0.4300  0.7982
 3420TIP3    H131895   2.733   6.156   1.082 -0.6076  0.3698  1.8319
 3420TIP3    H231896   2.586   6.178   1.109 -0.9117  0.2801  0.3309
 3421TIP3   OH231897   0.726   3.643   2.853 -0.7122 -0.2380 -0.1798
 3421TIP3    H131898   0.680   3.586   2.914  0.0640 -0.8041 -0.1139
 3421TIP3    H231899   0.706   3.608   2.766 -0.6208 -0.3247 -0.1660
 3422TIP3   OH231900   1.332   4.577   0.477  0.1891 -0.3649  0.3128
 3422TIP3    H131901   1.325   4.601   0.569  1.1944  1.1955  0.0177
 3422TIP3    H231902   1.301   4.654   0.429  0.3400 -0.8917 -0.6553
 3423TIP3   OH231903   5.532   5.284   6.855 -0.4734 -0.3234  0.4652
 3423TIP3    H131904   5.462   5.282   6.920  0.6687 -0.7112  1.7307
 3423TIP3    H231905   5.584   5.360   6.879 -0.7742  0.3103 -0.8290
 3424TIP3   OH231906   5.658   2.977   2.385  0.4225 -0.0888 -0.1942
 3424TIP3    H131907   5.655   2.974   2.481  0.2297  1.2963 -0.1412
 3424TIP3    H231908   5.727   2.915   2.362  0.3746 -0.5497  0.8341
 3425TIP3   OH231909   6.042   1.607   1.406  0.2626  0.2443 -0.0459
 3425TIP3    H131910   5.960   1.655   1.419 -0.4865 -1.5699  2.5498
 3425TIP3    H231911   6.036   1.574   1.317 -0.9217  1.7142 -0.5666
 3426TIP3   OH231912   3.666   1.471   1.294  0.1276  1.0360  0.2093
 3426TIP3    H131913   3.694   1.432   1.378  0.9627 -2.2377 -1.4099
 3426TIP3    H231914   3.580   1.507   1.312 -0.5486 -1.2674  2.1167
 3427TIP3   OH231915   5.758   0.564   3.020  0.2290 -0.6671  0.3885
 3427TIP3    H131916   5.692   0.594   3.083 -0.3607  0.7895 -0.8619
 3427TIP3    H231917   5.708   0.519   2.952  0.4425  0.7065 -0.7252
 3428TIP3   OH231918   4.672   0.009   7.682 -0.3241 -0.5754 -0.3473
 3428TIP3    H131919   4.729   0.083   7.664  0.7887 -1.3193  0.0493
 3428TIP3    H231920   4.587   0.049   7.703  0.3220  0.5897  0.1361
 3429TIP3   OH231921   5.549   4.916   2.906  0.2007 -0.3417 -0.5647
 3429TIP3    H131922   5.593   4.873   2.833 -0.1865  0.2714 -1.1618
 3429TIP3    H231923   5.525   5.002   2.873 -0.3926 -0.2299  0.1366
 3430TIP3   OH231924   6.352   6.383   6.996  0.0936  0.7509 -0.3971
 3430TIP3    H131925   6.283   6.439   6.960 -1.2694 -0.0577  0.8469
 3430TIP3    H231926   6.401   6.353   6.919  0.3986  3.0004 -1.1436
 3431TIP3   OH231927   0.777   2.023   2.942 -0.0203  0.1150  0.0409
 3431TIP3    H131928   0.815   2.111   2.937  0.0447  0.2374  1.8025
 3431TIP3    H231929   0.686   2.038   2.967  0.1653 -0.3130  1.0310
 3432TIP3   OH231930   0.694   4.131   8.243 -0.3064 -0.2187 -0.0323
 3432TIP3    H131931   0.691   4.041   8.273  0.4681  0.3308  1.8215
 3432TIP3    H231932   0.625   4.137   8.177  1.1618 -2.7448 -2.0036
 3433TIP3   OH231933   2.113   0.099   2.050  0.2528 -0.1218 -0.1863
 3433TIP3    H131934   2.186   0.045   2.019  0.7574  1.0324 -1.0943
 3433TIP3    H231935   2.094   0.157   1.977  1.3207  2.5743  1.5547
 3434TIP3   OH231936   4.469   3.045   2.879  0.1578 -0.2206  0.2437
 3434TIP3    H131937   4.469   3.084   2.966  0.0384  0.6826 -0.1478
 3434TIP3    H231938   4.385   3.070   2.841  0.5238  0.0519 -0.4099
 3435TIP3   OH231939   5.612   6.471   2.032 -0.5096 -0.3980 -0.0136
 3435TIP3    H131940   5.615   6.377   2.015 -1.2749 -0.5697  0.7221
 3435TIP3    H231941   5.576   6.478   2.121  0.5074  0.5572  0.3405
 3436TIP3   OH231942   2.824   6.767   1.628  0.0611 -0.1331  0.4517
 3436TIP3    H131943   2.906   6.719   1.635  0.7990  0.9838 -0.1184
 3436TIP3    H231944   2.786   6.763   1.716  1.7134  0.9879  1.2694
 3437TIP3   OH231945   6.150   4.517   1.235  0.5730  0.1295  0.2137
 3437TIP3    H131946   6.059   4.546   1.245  0.9371  1.1646  0.6295
 3437TIP3    H231947   6.155   4.484   1.145 -0.2322 -0.0098  0.2165
 3438TIP3   OH231948   4.722   1.699   1.708  0.0400 -0.0738 -0.3083
 3438TIP3    H131949   4.812   1.723   1.685  0.7714 -0.8651  1.5352
 3438TIP3    H231950   4.707   1.742   1.793 -1.4821  0.3762 -0.7737
 3439TIP3   OH231951   1.424   5.127   1.075  0.9498  0.2506 -0.0183
 3439TIP3    H131952   1.437   5.195   1.008 -0.4002 -1.2335 -1.9186
 3439TIP3    H231953   1.424   5.045   1.025  2.5091 -1.1994  2.1871
 3440TIP3   OH231954   3.947   2.968   1.461 -0.4661 -0.5185 -0.6242
 3440TIP3    H131955   3.973   2.957   1.370 -1.0116  1.7313 -1.0976
 3440TIP3    H231956   4.009   3.032   1.497  0.0813 -1.7675  0.7813
 3441TIP3   OH231957   2.164   2.505   0.469  0.0986  0.0732  0.1372
 3441TIP3    H131958   2.192   2.558   0.543 -1.2122  0.3587  0.4606
 3441TIP3    H231959   2.101   2.560   0.421 -0.4027 -0.7390 -0.1818
 3442TIP3   OH231960   5.236   4.461   0.193 -0.8096 -0.0895  0.2913
 3442TIP3    H131961   5.261   4.539   0.244 -1.4153 -0.9136  1.8942
 3442TIP3    H231962   5.318   4.433   0.153 -0.1287  0.1242  1.4743
 3443TIP3   OH231963   4.075   3.153   0.448  0.5067  0.2912 -0.3515
 3443TIP3    H131964   4.090   3.120   0.536 -0.4421  0.6372 -0.0440
 3443TIP3    H231965   4.104   3.244   0.450 -1.5115  0.9737  0.2562
 3444TIP3   OH231966   6.298   0.222   7.025  0.6254 -0.5104  0.0585
 3444TIP3    H131967   6.380   0.171   7.028  0.7929 -0.2598 -0.2499
 3444TIP3    H231968   6.301   0.268   6.941  0.4940  0.0427  0.3503
 3445TIP3   OH231969   3.504   4.695   8.254  0.1898  0.2551  0.4297
 3445TIP3    H131970   3.460   4.659   8.331 -0.1234  0.8430  0.5396
 3445TIP3    H231971   3.501   4.790   8.268  0.9691  0.3305  0.1472
 3446TIP3   OH231972   2.762   4.039   2.654 -0.4298  0.0550  0.4219
 3446TIP3    H131973   2.699   3.975   2.622  0.3298 -0.9172  0.8065
 3446TIP3    H231974   2.847   4.000   2.636  0.0352  0.0261  2.4273
 3447TIP3   OH231975   0.898   4.856   2.185 -0.0087  0.6838 -0.2371
 3447TIP3    H131976   0.933   4.772   2.214  0.9470  1.3871  0.7092
 3447TIP3    H231977   0.851   4.891   2.261 -1.5322  0.4384 -1.0224
 3448TIP3   OH231978   4.937   1.506   7.335 -0.6357  0.2585  0.0879
 3448TIP3    H131979   4.998   1.576   7.313 -0.1645 -0.5733 -1.3866
 3448TIP3    H231980   4.851   1.540   7.310 -0.1310 -0.6570 -3.4352
 3449TIP3   OH231981   4.462   2.520   7.482  0.4055 -0.4533  0.3619
 3449TIP3    H131982   4.398   2.504   7.550 -2.6668  2.3277 -1.5672
 3449TIP3    H231983   4.444   2.453   7.416 -0.6301  0.3488 -0.1952
 3450TIP3   OH231984   1.360   5.507   1.437 -0.4417  0.2902 -0.5350
 3450TIP3    H131985   1.275   5.497   1.479  0.2264 -1.0162  0.6186
 3450TIP3    H231986   1.384   5.599   1.450 -0.8980  0.2460  0.7187
 3451TIP3   OH231987   3.683   1.305   1.548 -0.6665  0.0039  0.3450
 3451TIP3    H131988   3.624   1.336   1.616  0.8607 -0.1120  1.7821
 3451TIP3    H231989   3.637   1.230   1.509 -0.7118 -1.2645  2.6895
 3452TIP3   OH231990   6.300   3.581   0.840  0.0031 -0.5252  0.2903
 3452TIP3    H131991   6.285   3.570   0.934 -2.0181 -1.3221 -0.0571
 3452TIP3    H231992   6.235   3.523   0.799  1.2691 -0.6997 -1.6017
 3453TIP3   OH231993   5.262   0.245   7.665  0.4013  0.1011 -0.0117
 3453TIP3    H131994   5.277   0.175   7.728  0.7140 -0.4989 -0.7356
 3453TIP3    H231995   5.253   0.324   7.718 -3.4222 -0.9040  1.1655
 3454TIP3   OH231996   2.628   5.074   2.309 -0.3315 -1.0101 -0.3564
 3454TIP3    H131997   2.701   5.135   2.295 -2.1300  1.3959  0.1483
 3454TIP3    H231998   2.644   5.037   2.396  0.3556 -0.6002 -0.3033
 3455TIP3   OH231999   4.178   1.316   1.804 -0.0103 -0.2016 -0.4395
 3455TIP3    H132000   4.115   1.374   1.760 -0.1313 -0.6711 -0.8967
 3455TIP3    H232001   4.258   1.368   1.812 -0.0438 -0.0509 -1.0646
 3456TIP3   OH232002   3.286   4.732   1.528  0.0705  0.2423  0.0333
 3456TIP3    H132003   3.265   4.718   1.620 -0.5780  1.0462  0.0236
 3456TIP3    H232004   3.304   4.826   1.521 -1.5841  0.5393 -0.9480
 3457TIP3   OH232005   1.400   5.775   0.180 -0.1118 -0.5708 -0.1867
 3457TIP3    H132006   1.432   5.857   0.218 -1.4432 -0.2625  0.3174
 3457TIP3    H232007   1.423   5.781   0.087  1.2798 -0.3829  0.1563
 3458TIP3   OH232008   2.235   5.542   0.206 -0.5137 -0.6956 -0.4725
 3458TIP3    H132009   2.285   5.495   0.273  0.4390 -0.9030 -1.2959
 3458TIP3    H232010   2.280   5.520   0.124 -1.9422 -0.8468 -1.2421
 3459TIP3   OH232011   2.780   1.474   8.504  0.2872  0.1346  0.4640
 3459TIP3    H132012   2.697   1.436   8.534  0.1646  0.4561  0.5398
 3459TIP3    H232013   2.823   1.403   8.455 -0.7605  0.4531 -0.9665
 3460TIP3   OH232014   3.742   6.145   0.697  0.0107  0.1908  0.7752
 3460TIP3    H132015   3.828   6.185   0.687 -0.2872  0.5644 -0.3745
 3460TIP3    H232016   3.757   6.052   0.682  0.2070  0.2556  0.5671
 3461TIP3   OH232017   6.352   4.138   7.764 -0.2468 -0.3036 -0.1287
 3461TIP3    H132018   6.377   4.066   7.706 -0.2341 -1.7962  1.6052
 3461TIP3    H232019   6.313   4.203   7.707  3.0198 -0.0328 -2.2906
 3462TIP3   OH232020   0.659   3.622   8.162 -0.1158 -0.4262 -0.2317
 3462TIP3    H132021   0.703   3.549   8.117  0.1769  0.0742 -0.7703
 3462TIP3    H232022   0.658   3.693   8.098 -0.6809 -0.0532  0.1810
 3463TIP3   OH232023   0.104   4.179   7.719 -0.1201  0.1447  0.2030
 3463TIP3    H132024   0.134   4.192   7.629  3.1024 -1.7602  0.8462
 3463TIP3    H232025   0.013   4.152   7.709  0.3990 -0.9902 -2.5930
 3464TIP3   OH232026   5.574   3.074   8.298 -0.1682  0.2534  0.1461
 3464TIP3    H132027   5.563   3.122   8.380 -0.2062 -0.4729  0.5724
 3464TIP3    H232028   5.544   2.985   8.317  1.3066 -0.3504 -0.1912
 3465TIP3   OH232029   6.588   0.484   7.531  0.0109 -0.4547  0.2938
 3465TIP3    H132030   6.496   0.473   7.556 -0.1829 -1.6970 -0.8476
 3465TIP3    H232031   6.585   0.494   7.436  1.0914 -0.8395  0.2175
 3466TIP3   OH232032   3.966   5.156   7.255  0.5269 -0.2530 -0.3110
 3466TIP3    H132033   3.934   5.246   7.267  0.0525 -0.4968  0.3191
 3466TIP3    H232034   4.061   5.164   7.256  0.4901  0.2500 -0.2845
 3467TIP3   OH232035   0.181   2.728   8.313 -0.6660  0.6310  0.0660
 3467TIP3    H132036   0.247   2.665   8.342 -0.5779  1.3066  1.4486
 3467TIP3    H232037   0.109   2.674   8.280 -0.3134 -0.1793  0.5917
 3468TIP3   OH232038   4.543   4.514   1.029  0.0461 -0.3030 -0.2225
 3468TIP3    H132039   4.492   4.593   1.013 -0.4094 -0.7777 -1.2007
 3468TIP3    H232040   4.631   4.535   0.997  1.1583  1.2738  3.4124
 3469TIP3   OH232041   0.609   6.542   1.728  0.0951 -0.1752  0.3807
 3469TIP3    H132042   0.690   6.566   1.683  0.7548 -1.3906  0.8541
 3469TIP3    H232043   0.566   6.480   1.668  0.1630 -0.5275  0.6936
 3470TIP3   OH232044   2.493   1.476   7.797  0.0171  0.0160  0.0982
 3470TIP3    H132045   2.438   1.404   7.828  1.5399 -0.5603  1.6457
 3470TIP3    H232046   2.562   1.432   7.746 -1.2194  0.7823 -2.4347
 3471TIP3   OH232047   6.907   6.766   0.591  0.0924 -0.1946 -0.1760
 3471TIP3    H132048   6.946   6.852   0.610  1.3219 -1.1667  2.1639
 3471TIP3    H232049   6.861   6.742   0.671 -1.5778 -1.0787 -1.3402
 3472TIP3   OH232050   4.620   6.925   0.648 -0.4582 -0.2516  0.4949
 3472TIP3    H132051   4.570   7.007   0.653  1.2617  0.8328  0.8520
 3472TIP3    H232052   4.645   6.906   0.738 -0.3610 -0.8666  0.3432
 3473TIP3   OH232053   1.235   0.162   7.472 -0.5384  0.2462 -0.2487
 3473TIP3    H132054   1.252   0.177   7.565  0.8740 -3.0992  0.1710
 3473TIP3    H232055   1.143   0.137   7.468 -1.9531  4.5923 -0.5410
 3474TIP3   OH232056   2.172   3.869   1.210  0.4640  0.3322  0.6393
 3474TIP3    H132057   2.255   3.878   1.256 -0.3620 -0.0292  2.2950
 3474TIP3    H232058   2.133   3.789   1.246  0.3182 -0.7171 -1.6563
 3475TIP3   OH232059   1.568   3.509   3.080 -0.1697 -0.0036  0.0746
 3475TIP3    H132060   1.611   3.518   3.165 -0.3268 -0.4666  0.2051
 3475TIP3    H232061   1.541   3.417   3.076  1.7368 -0.5820 -1.3624
 3476TIP3   OH232062   5.053   2.623   2.227 -0.2376 -0.4072 -0.3377
 3476TIP3    H132063   5.022   2.700   2.274  1.3858 -0.0226  0.1785
 3476TIP3    H232064   5.033   2.549   2.284  1.4403  0.0259  0.8933
 3477TIP3   OH232065   4.881   5.168   1.480 -0.3962 -0.2407 -0.7009
 3477TIP3    H132066   4.944   5.115   1.430 -0.4166  0.2517 -1.2593
 3477TIP3    H232067   4.920   5.255   1.482 -0.2428 -0.3201  0.4340
 3478TIP3   OH232068   5.525   1.026   2.477 -0.1800  0.2877 -0.1132
 3478TIP3    H132069   5.458   1.032   2.545  0.3514 -0.5901  0.5067
 3478TIP3    H232070   5.489   0.965   2.413  0.7144 -1.5373  1.0696
 3479TIP3   OH232071   4.853   4.182   0.150  0.2323  0.0555  0.6284
 3479TIP3    H132072   4.805   4.244   0.205  2.0760 -0.1070  2.5043
 3479TIP3    H232073   4.943   4.186   0.181  0.4184 -3.7662  1.0933
 3480TIP3   OH232074   0.349   5.671   7.586  0.2615  0.1509 -0.2989
 3480TIP3    H132075   0.295   5.631   7.654  0.2563  0.9141  0.1638
 3480TIP3    H232076   0.429   5.619   7.583  0.4593  0.3942  0.6251
 3481TIP3   OH232077   2.264   4.853   6.972 -0.0825  0.0896  0.2800
 3481TIP3    H132078   2.232   4.939   6.999  0.3889  0.1014  0.8200
 3481TIP3    H232079   2.344   4.840   7.024  0.0804 -0.4872 -0.1120
 3482TIP3   OH232080   1.370   5.400   2.680 -0.1657 -0.3764 -0.3720
 3482TIP3    H132081   1.434   5.334   2.705  0.0382  0.1195  0.4370
 3482TIP3    H232082   1.421   5.468   2.635  0.5900  1.7258  3.2121
 3483TIP3   OH232083   0.056   4.515   1.386 -0.3970  0.3781  0.2341
 3483TIP3    H132084   0.021   4.444   1.333 -1.4742 -0.2759  1.7562
 3483TIP3    H232085   0.086   4.580   1.322 -2.5580  0.0842 -1.1900
 3484TIP3   OH232086   4.296   0.187   0.295  0.5512 -0.2351  0.1535
 3484TIP3    H132087   4.286   0.094   0.317 -0.6977 -0.4664 -1.2302
 3484TIP3    H232088   4.337   0.186   0.208 -0.6276  0.4436 -0.4337
 3485TIP3   OH232089   3.848   2.739   8.007  0.0883 -0.2863  0.1394
 3485TIP3    H132090   3.811   2.658   8.041 -0.1351 -1.0088 -1.7048
 3485TIP3    H232091   3.805   2.751   7.922  1.9765  0.3698 -0.7889
 3486TIP3   OH232092   4.042   2.530   0.731  0.5017 -0.8404 -0.1214
 3486TIP3    H132093   3.983   2.550   0.804 -0.3415  2.3849 -1.5142
 3486TIP3    H232094   4.126   2.566   0.757  0.7725 -1.6263  0.1147
 3487TIP3   OH232095   0.074   5.370   1.726  0.9051 -0.3948  0.5275
 3487TIP3    H132096  -0.004   5.350   1.778 -0.0943  1.3553 -0.2040
 3487TIP3    H232097   0.125   5.429   1.782  1.6497 -1.3820  0.9258
 3488TIP3   OH232098   0.122   2.623   0.174  0.1128  0.4389  0.3733
 3488TIP3    H132099   0.216   2.641   0.174 -0.1691  2.2233  2.1142
 3488TIP3    H232100   0.081   2.709   0.167 -1.4771 -0.4551 -2.8394
 3489TIP3   OH232101   4.025   0.672   8.226 -0.0566  0.3791 -0.3208
 3489TIP3    H132102   4.013   0.579   8.247  1.1129  0.5228  1.2155
 3489TIP3    H232103   4.089   0.671   8.155  0.2839  0.0066 -0.0184
 3490TIP3   OH232104   5.569   0.713   8.169 -0.6408 -0.1904 -0.4191
 3490TIP3    H132105   5.511   0.781   8.134 -1.0712 -0.9538 -1.2330
 3490TIP3    H232106   5.653   0.728   8.126 -0.7687 -0.2407 -0.6897
 3491TIP3   OH232107   6.694   1.385   1.846  0.3838 -0.2953 -0.3159
 3491TIP3    H132108   6.604   1.372   1.877  0.0320 -0.5473 -1.3919
 3491TIP3    H232109   6.725   1.462   1.894 -0.5553  0.0330 -0.2061
 3492TIP3   OH232110   0.195   3.168   8.408  0.2197 -0.2525  0.2046
 3492TIP3    H132111   0.201   3.088   8.355 -1.5810  0.3894 -1.0839
 3492TIP3    H232112   0.176   3.237   8.344 -2.9818  0.4422  1.6772
 3493TIP3   OH232113   6.126   4.454   7.724 -0.0238  0.3311 -0.4141
 3493TIP3    H132114   6.197   4.518   7.728  0.2492 -0.0102  1.5755
 3493TIP3    H232115   6.143   4.404   7.644  0.5604  1.8102 -1.2480
 3494TIP3   OH232116   2.978   5.785   2.399 -0.4325  0.4507 -0.9083
 3494TIP3    H132117   2.990   5.850   2.469  1.7172 -1.0066  0.2135
 3494TIP3    H232118   2.906   5.730   2.429 -2.2671  2.1950 -1.8623
 3495TIP3   OH232119   0.808   6.428   0.109 -0.4952  0.0869  0.2635
 3495TIP3    H132120   0.777   6.358   0.053 -0.4696  1.8084 -2.0534
 3495TIP3    H232121   0.903   6.413   0.117 -0.2686  0.5015 -1.2804
 3496TIP3   OH232122   1.287   5.252   1.944  0.1222  0.2004  0.1741
 3496TIP3    H132123   1.234   5.298   2.009 -0.4697 -0.7894  0.4049
 3496TIP3    H232124   1.279   5.305   1.865 -2.5360 -0.6999 -0.2674
 3497TIP3   OH232125   1.110   3.943   0.288  1.3684 -0.0817  0.2593
 3497TIP3    H132126   1.185   3.953   0.229  1.7182  2.4592  1.0092
 3497TIP3    H232127   1.141   3.978   0.371 -0.7666  1.5317  0.4528
 3498TIP3   OH232128   6.553   1.351   1.454  0.2561  0.1655  0.0666
 3498TIP3    H132129   6.466   1.365   1.418  0.6602  0.7979 -0.7014
 3498TIP3    H232130   6.589   1.278   1.403  0.9033  1.1891 -0.9931
 3499TIP3   OH232131   6.884   3.759   7.025  0.1530 -0.2369 -0.3164
 3499TIP3    H132132   6.925   3.790   6.944 -2.2632  0.6388 -1.3051
 3499TIP3    H232133   6.805   3.713   6.996 -0.4060 -0.5214  1.5211
 3500TIP3   OH232134   2.557   6.783   7.002  0.3157 -0.3466  0.1419
 3500TIP3    H132135   2.596   6.705   7.040  0.0841 -0.5047  0.0600
 3500TIP3    H232136   2.473   6.792   7.048  0.1602 -0.3801 -0.1293
 3501TIP3   OH232137   5.861   4.653   0.248  0.1348  0.3792 -0.6863
 3501TIP3    H132138   5.832   4.741   0.223 -0.0907  0.0177 -1.7395
 3501TIP3    H232139   5.942   4.667   0.296 -0.4519  1.2363  0.0954
 3502TIP3   OH232140   5.343   1.720   1.094 -0.1560  0.1395  0.0471
 3502TIP3    H132141   5.290   1.654   1.050  1.3863 -1.7804  0.9055
 3502TIP3    H232142   5.292   1.744   1.171 -1.0223  0.4534 -0.6114
 3503TIP3   OH232143   4.758   6.132   1.291  1.0063 -0.1435  0.1178
 3503TIP3    H132144   4.838   6.102   1.333  0.6981  0.6046  1.2954
 3503TIP3    H232145   4.788   6.190   1.221  1.5069 -0.5795 -0.0311
 3504TIP3   OH232146   5.814   4.006   2.851  0.2146  0.2335  0.5336
 3504TIP3    H132147   5.788   4.058   2.774  1.8578  1.6795  0.8968
 3504TIP3    H232148   5.731   3.976   2.888 -0.6553  0.0846 -1.3847
 3505TIP3   OH232149   3.446   1.874   7.286 -0.5200  0.2476  0.2120
 3505TIP3    H132150   3.355   1.870   7.316 -0.0309  0.3288  1.8107
 3505TIP3    H232151   3.453   1.960   7.245 -0.9579  0.6104  0.8610
 3506TIP3   OH232152   6.237   3.907   2.201 -0.4380  0.4328 -0.0148
 3506TIP3    H132153   6.269   3.838   2.259 -1.1048  1.1677  1.2800
 3506TIP3    H232154   6.254   3.988   2.249 -0.3490  1.1210 -1.1789
 3507TIP3   OH232155   3.707   3.578   0.117  0.7335 -0.0794  0.2340
 3507TIP3    H132156   3.784   3.632   0.135 -0.1521  0.9472  1.0847
 3507TIP3    H232157   3.696   3.582   0.022  1.0807  0.6877  0.2229
 3508TIP3   OH232158   1.702   2.297   0.819  0.1598  0.1858 -0.5280
 3508TIP3    H132159   1.616   2.302   0.862  0.6834 -0.7122  0.6723
 3508TIP3    H232160   1.689   2.236   0.746 -0.4212  0.7239 -0.8893
 3509TIP3   OH232161   0.002   3.328   7.567  0.0038  0.1998  0.2791
 3509TIP3    H132162   0.049   3.411   7.554 -2.0978  2.0783  3.2708
 3509TIP3    H232163   0.063   3.261   7.535  2.4697  2.7446 -0.8578
 3510TIP3   OH232164   5.904   3.177   2.196  0.3440 -0.5478 -0.1335
 3510TIP3    H132165   5.961   3.105   2.169  0.3085 -0.1136 -1.4437
 3510TIP3    H232166   5.954   3.256   2.177 -1.7276  0.0315 -4.4171
 3511TIP3   OH232167   1.839   0.260   2.571 -0.2473 -0.0898  0.5611
 3511TIP3    H132168   1.794   0.289   2.651 -0.5327 -0.9351  0.7177
 3511TIP3    H232169   1.843   0.165   2.579  1.1006 -0.0727  0.2941
 3512TIP3   OH232170   6.676   3.796   8.221 -0.2732  0.0277 -0.2166
 3512TIP3    H132171   6.731   3.719   8.238 -0.8044  0.1236  2.4614
 3512TIP3    H232172   6.603   3.764   8.169  0.2814 -0.9596 -0.3999
 3513TIP3   OH232173   0.756   2.695   7.086  0.0848  0.2828  0.5065
 3513TIP3    H132174   0.706   2.734   7.158 -0.2755  2.0437 -0.6294
 3513TIP3    H232175   0.747   2.758   7.015 -0.5920 -1.9564 -1.5008
 3514TIP3   OH232176   3.010   1.564   1.963 -0.5355 -0.0377  0.8083
 3514TIP3    H132177   2.992   1.622   1.889  0.5700 -0.3510  0.2753
 3514TIP3    H232178   2.926   1.521   1.981 -0.4127 -1.3572 -1.4635
 3515TIP3   OH232179   4.306   3.502   8.027  0.4807 -0.7914 -0.0298
 3515TIP3    H132180   4.302   3.427   7.967 -0.6944 -0.2121 -0.7233
 3515TIP3    H232181   4.225   3.496   8.078  1.6627 -1.5134  1.8355
 3516TIP3   OH232182   2.996   3.696   8.005 -0.9518  0.3612 -0.3966
 3516TIP3    H132183   3.042   3.780   8.006 -1.5285  0.6802 -0.4143
 3516TIP3    H232184   3.065   3.631   7.988 -0.8160  1.0527 -2.9823
 3517TIP3   OH232185   4.766   6.633   0.394  0.2540  0.3138  0.1157
 3517TIP3    H132186   4.797   6.577   0.323  0.7751  0.7807 -0.0287
 3517TIP3    H232187   4.671   6.634   0.384  0.2116 -0.7957  0.3087
 3518TIP3   OH232188   5.288   6.656   8.460 -0.0716  0.0356 -0.0377
 3518TIP3    H132189   5.315   6.744   8.486  1.4202 -0.4389  0.1323
 3518TIP3    H232190   5.211   6.638   8.514  0.2728  0.8179  0.7529
 3519TIP3   OH232191   6.446   4.105   1.597  0.7725  0.2435  0.0153
 3519TIP3    H132192   6.389   4.028   1.586 -0.1151  0.7504  0.9115
 3519TIP3    H232193   6.534   4.068   1.603  0.3807 -0.7044  0.2483
 3520TIP3   OH232194   5.150   1.512   6.581  0.4968  0.1399 -0.0589
 3520TIP3    H132195   5.171   1.604   6.566  1.5305 -0.0023  0.4249
 3520TIP3    H232196   5.232   1.474   6.612 -0.1377 -0.7687  0.5360
 3521TIP3   OH232197   5.709   3.672   0.414 -0.4594  0.6576  0.5302
 3521TIP3    H132198   5.645   3.737   0.387 -1.2402 -0.1144  0.4711
 3521TIP3    H232199   5.713   3.610   0.341 -0.1594  0.3239  0.8244
 3522TIP3   OH232200   1.922   3.597   7.599  0.0119  0.5324  0.1429
 3522TIP3    H132201   1.873   3.675   7.626 -1.5448  0.0868 -1.2118
 3522TIP3    H232202   1.938   3.610   7.506  1.3229  0.0218  0.2725
 3523TIP3   OH232203   3.185   1.752   7.480  0.8620 -0.3857  0.2436
 3523TIP3    H132204   3.165   1.813   7.552  1.2623 -0.2478  0.2406
 3523TIP3    H232205   3.133   1.784   7.406  1.9341  0.6353 -0.0892
 3524TIP3   OH232206   2.937   0.723   7.127 -0.4119 -0.0422 -0.5792
 3524TIP3    H132207   2.893   0.641   7.148 -0.9147  0.4806  0.5392
 3524TIP3    H232208   3.005   0.699   7.065 -0.9365 -1.2023 -0.7283
 3525TIP3   OH232209   0.542   5.243   1.555 -0.3579 -0.0316 -0.3033
 3525TIP3    H132210   0.470   5.243   1.619  0.5417 -2.1099  0.7969
 3525TIP3    H232211   0.609   5.300   1.594  0.4069 -1.7144  0.9445
 3526TIP3   OH232212   5.108   2.141   1.101 -0.2606 -0.4527 -0.0636
 3526TIP3    H132213   5.043   2.076   1.124  0.2539 -0.4674  1.4845
 3526TIP3    H232214   5.058   2.214   1.065 -1.1038 -0.6455  0.6747
 3527TIP3   OH232215   6.035   0.882   0.153  0.4073  0.3001  0.3099
 3527TIP3    H132216   6.129   0.894   0.146  0.5012 -1.2662 -2.6197
 3527TIP3    H232217   5.998   0.954   0.102  0.1436 -0.3525 -0.4363
 3528TIP3   OH232218   1.805   0.292   0.796 -0.3285 -0.6359 -0.2001
 3528TIP3    H132219   1.803   0.220   0.859 -0.1309 -0.7028 -0.2681
 3528TIP3    H232220   1.885   0.277   0.745  0.4899  0.4444  0.7154
 3529TIP3   OH232221   1.035   5.149   1.474  0.0339  0.3185  0.4843
 3529TIP3    H132222   0.997   5.076   1.424 -0.6271  0.9165  0.0998
 3529TIP3    H232223   1.058   5.110   1.558 -1.5424 -0.0548  0.7828
 3530TIP3   OH232224   1.825   2.630   1.829 -0.2482 -0.6522 -0.0731
 3530TIP3    H132225   1.732   2.624   1.851 -0.0684 -1.8713  0.4457
 3530TIP3    H232226   1.870   2.604   1.909  0.6036  1.2071  0.1017
 3531TIP3   OH232227   0.250   4.303   2.459  0.0192  0.2081  0.2635
 3531TIP3    H132228   0.336   4.282   2.423  0.1638  1.6133 -0.3057
 3531TIP3    H232229   0.264   4.313   2.553  0.4952  0.4826  0.1667
 3532TIP3   OH232230   0.948   2.183   1.362  0.0234  0.2090 -0.7439
 3532TIP3    H132231   0.891   2.166   1.287 -0.4610  1.8086 -0.7800
 3532TIP3    H232232   0.948   2.279   1.370 -0.4312  0.0617  1.6647
 3533TIP3   OH232233   0.260   2.381   1.857  0.2782  0.0367 -0.2838
 3533TIP3    H132234   0.204   2.355   1.783 -0.1215 -0.9486  0.3476
 3533TIP3    H232235   0.349   2.372   1.823  0.0902 -0.0550 -0.7668
 3534TIP3   OH232236   1.538   6.422   7.330 -0.1605  0.1265 -0.4561
 3534TIP3    H132237   1.449   6.390   7.342 -0.1166 -0.0783 -0.6670
 3534TIP3    H232238   1.528   6.508   7.291 -0.2857  0.4947  0.3669
 3535TIP3   OH232239   6.225   3.972   1.066 -0.0548 -0.1546 -0.4602
 3535TIP3    H132240   6.201   4.031   1.137  0.9868  0.7778 -0.8456
 3535TIP3    H232241   6.193   4.015   0.987 -2.3877 -1.8127 -0.5114
 3536TIP3   OH232242   0.947   5.309   0.891  0.7110 -0.2480 -0.4446
 3536TIP3    H132243   0.854   5.314   0.914  0.5228 -1.7274 -0.7918
 3536TIP3    H232244   0.964   5.391   0.844  0.1600  1.0638  1.5211
 3537TIP3   OH232245   4.194   4.603   1.110  0.1201  0.4417 -0.1151
 3537TIP3    H132246   4.253   4.538   1.149 -0.5069  0.8114  1.4778
 3537TIP3    H232247   4.230   4.616   1.022 -0.0294 -2.4286 -0.6956
 3538TIP3   OH232248   2.717   1.274   1.661  0.3149  0.3269 -0.3926
 3538TIP3    H132249   2.743   1.242   1.575  0.5171 -0.4667 -0.0463
 3538TIP3    H232250   2.646   1.216   1.688  1.2527 -0.3998  0.6103
 3539TIP3   OH232251   4.793   1.773   1.347  0.3016  0.2676  0.1341
 3539TIP3    H132252   4.820   1.815   1.429 -0.2002  1.1003 -0.1157
 3539TIP3    H232253   4.765   1.685   1.373  3.3668 -0.7528  0.3972
 3540TIP3   OH232254   1.384   0.700   8.360 -0.1449  1.0272  0.0754
 3540TIP3    H132255   1.373   0.662   8.447  1.6687 -0.7003 -0.3922
 3540TIP3    H232256   1.439   0.777   8.374  1.6074 -0.2014  0.3358
 3541TIP3   OH232257   3.896   2.183   2.089 -0.2512  0.4431 -0.8200
 3541TIP3    H132258   3.861   2.156   2.004  0.8763  0.3874 -1.2904
 3541TIP3    H232259   3.884   2.278   2.090  1.4530  0.7224 -1.9116
 3542TIP3   OH232260   6.427   5.394   7.321 -0.1234  0.1997 -0.1078
 3542TIP3    H132261   6.335   5.375   7.305  0.1464 -2.4645  1.1366
 3542TIP3    H232262   6.427   5.483   7.356 -1.9788  1.0113 -1.9627
 3543TIP3   OH232263   1.381   3.449   2.262  0.0242  0.0604  0.3956
 3543TIP3    H132264   1.432   3.501   2.199 -1.6327  0.7783 -0.4143
 3543TIP3    H232265   1.359   3.511   2.331 -2.4165  0.6727 -0.8338
 3544TIP3   OH232266   1.905   1.714   8.263 -0.5163 -0.0938  0.2827
 3544TIP3    H132267   1.995   1.688   8.240 -1.0457 -1.3793 -0.4345
 3544TIP3    H232268   1.858   1.713   8.180 -1.3306  0.0028  0.7371
 3545TIP3   OH232269   5.859   5.280   2.209 -0.0160  0.0572 -0.2836
 3545TIP3    H132270   5.834   5.197   2.251 -0.5371 -0.1173 -0.9317
 3545TIP3    H232271   5.847   5.265   2.116  1.0762  0.4741 -0.4990
 3546TIP3   OH232272   4.132   2.232   2.243  0.2744  0.1240 -0.2933
 3546TIP3    H132273   4.077   2.263   2.315 -1.9145 -0.7136 -1.4981
 3546TIP3    H232274   4.070   2.211   2.173  2.0546 -1.8269 -1.4025
 3547TIP3   OH232275   6.375   3.947   7.551  0.0401  0.4003 -0.3301
 3547TIP3    H132276   6.316   3.925   7.479 -1.2842  0.1145  0.7936
 3547TIP3    H232277   6.463   3.937   7.514 -0.5976  0.1731 -1.8620
 3548TIP3   OH232278   6.669   1.905   2.888  0.0334  0.5544  0.0522
 3548TIP3    H132279   6.603   1.945   2.831  1.1183  1.2206 -0.7803
 3548TIP3    H232280   6.698   1.828   2.840 -1.2624 -0.6904  1.1613
 3549TIP3   OH232281   2.139   0.421   2.377 -0.1842  0.3007  0.0112
 3549TIP3    H132282   2.084   0.481   2.328 -0.9049  0.2092  0.6913
 3549TIP3    H232283   2.193   0.478   2.432 -0.7977  0.3480  0.5822
 3550TIP3   OH232284   0.756   2.140   1.820  0.4263 -0.8262 -0.3943
 3550TIP3    H132285   0.772   2.224   1.779  0.2322 -1.3450 -1.5723
 3550TIP3    H232286   0.710   2.089   1.754 -0.0535 -1.6364  0.5358
 3551TIP3   OH232287   5.659   6.902   2.333  0.0113  0.4360  0.1097
 3551TIP3    H132288   5.719   6.829   2.318  0.5622  0.3486  2.4140
 3551TIP3    H232289   5.584   6.884   2.277  0.8866 -0.9744 -0.6525
 3552TIP3   OH232290   4.791   6.784   2.321 -0.3906 -0.0820 -0.0919
 3552TIP3    H132291   4.782   6.755   2.231  2.5829 -0.2513 -0.4133
 3552TIP3    H232292   4.701   6.783   2.355 -1.3843 -1.7337 -2.4735
 3553TIP3   OH232293   2.725   4.677   0.013 -0.4951  0.3867  0.2693
 3553TIP3    H132294   2.705   4.672  -0.081  1.9829  1.0874 -0.3592
 3553TIP3    H232295   2.685   4.759   0.042 -1.4308  0.0772 -0.1175
 3554TIP3   OH232296   1.558   4.433   1.616 -1.0175  0.0510 -0.0053
 3554TIP3    H132297   1.644   4.459   1.584 -0.7893 -0.1170  0.4578
 3554TIP3    H232298   1.527   4.508   1.666 -0.2172 -0.6522  1.6063
 3555TIP3   OH232299   0.484   5.679   1.799  0.3474 -0.7520 -0.6320
 3555TIP3    H132300   0.419   5.721   1.743 -1.4408  1.7918  2.9288
 3555TIP3    H232301   0.440   5.602   1.834  1.3892 -2.2257 -2.4062
 3556TIP3   OH232302   2.610   4.936   2.951  0.3107 -0.4538  0.2970
 3556TIP3    H132303   2.565   4.863   2.909  2.2210 -0.1578 -2.5807
 3556TIP3    H232304   2.549   5.010   2.942 -0.2861 -0.9485  0.2039
 3557TIP3   OH232305   2.724   2.861   2.360 -0.1245 -0.5503 -0.1421
 3557TIP3    H132306   2.757   2.848   2.271 -0.4128  1.0482 -0.5053
 3557TIP3    H232307   2.694   2.774   2.387 -0.3355 -0.9991 -1.7217
 3558TIP3   OH232308   1.884   5.120   1.916 -0.2385 -0.1917 -0.1058
 3558TIP3    H132309   1.902   5.035   1.876  0.1441 -0.0433 -0.2502
 3558TIP3    H232310   1.895   5.105   2.010  2.4559  0.3126 -0.2765
 3559TIP3   OH232311   2.334   3.140   7.995 -1.0403  1.5114  0.9907
 3559TIP3    H132312   2.295   3.058   8.027 -0.3840  1.0325  0.5968
 3559TIP3    H232313   2.269   3.177   7.937 -0.4142  0.0407 -0.7352
 3560TIP3   OH232314   6.048   3.948   7.506  0.2023  0.6080 -0.6282
 3560TIP3    H132315   5.971   3.893   7.521  0.1306  1.0703  0.8360
 3560TIP3    H232316   6.083   3.917   7.422 -0.9282 -0.3609 -0.7732
 3561TIP3   OH232317   3.509   1.471   7.800 -0.0503 -0.5088 -0.2892
 3561TIP3    H132318   3.598   1.442   7.781  0.2626  0.8097 -0.9783
 3561TIP3    H232319   3.506   1.561   7.767 -1.5897 -0.4774 -0.1240
 3562TIP3   OH232320   0.035   5.872   1.138 -0.5217 -0.5620 -0.4533
 3562TIP3    H132321   0.051   5.891   1.046 -1.4500 -1.7694 -0.8864
 3562TIP3    H232322  -0.014   5.948   1.170 -2.0107 -1.0193 -1.5106
 3563TIP3   OH232323   0.416   5.240   0.367  0.1289  0.4088  0.0207
 3563TIP3    H132324   0.411   5.161   0.420  0.5516 -0.3679 -1.0534
 3563TIP3    H232325   0.342   5.293   0.396 -3.4733 -2.5860 -2.6701
 3564TIP3   OH232326   2.250   3.514   1.449  0.5546 -0.2092 -0.0481
 3564TIP3    H132327   2.328   3.566   1.468  1.4317 -1.4312 -0.1872
 3564TIP3    H232328   2.224   3.479   1.534 -1.3392  2.1430  0.4303
 3565TIP3   OH232329   6.280   1.155   1.105 -0.2145  0.2095 -0.5908
 3565TIP3    H132330   6.347   1.199   1.157 -1.1326  0.9836 -0.0318
 3565TIP3    H232331   6.290   1.062   1.127 -0.1666  0.4550  0.4910
 3566TIP3   OH232332   2.387   1.014   7.238 -0.4169 -0.1986 -0.1659
 3566TIP3    H132333   2.447   1.052   7.301 -0.3090 -0.4648 -0.1037
 3566TIP3    H232334   2.444   0.968   7.176 -0.5424 -0.2661 -0.2323
 3567TIP3   OH232335   4.853   5.670   6.981  0.0621  0.1551  0.2091
 3567TIP3    H132336   4.876   5.609   6.911  1.7710  0.5551  0.3783
 3567TIP3    H232337   4.935   5.716   7.000 -0.6192  0.7826  1.7540
 3568TIP3   OH232338   2.329   3.322   0.622 -0.2051 -0.7330 -0.0810
 3568TIP3    H132339   2.357   3.413   0.610  0.1887 -0.7070  0.9610
 3568TIP3    H232340   2.327   3.286   0.533 -0.6717  0.3763 -0.5424
 3569TIP3   OH232341   2.140   5.490   0.643 -0.1594 -0.0283 -0.3234
 3569TIP3    H132342   2.093   5.504   0.725 -0.6989  2.8724 -1.0059
 3569TIP3    H232343   2.151   5.578   0.606  3.8973 -0.7240 -1.2902
 3570TIP3   OH232344   1.673   0.723   6.823  0.2842  0.4709 -0.3378
 3570TIP3    H132345   1.633   0.723   6.736 -0.3712  0.5179 -0.0407
 3570TIP3    H232346   1.697   0.815   6.838  2.2996  0.1635 -1.3098
 3571TIP3   OH232347   0.012   4.915   1.998 -0.6737 -0.6030 -0.4222
 3571TIP3    H132348   0.065   4.839   2.021  0.7545  1.0480  2.2477
 3571TIP3    H232349  -0.077   4.891   2.024  0.3091 -0.2094  3.9873
 3572TIP3   OH232350   5.029   1.195   8.123 -0.1172 -0.7322 -0.4098
 3572TIP3    H132351   5.102   1.240   8.080  0.0735 -0.4340  0.2173
 3572TIP3    H232352   5.021   1.112   8.076  0.0244 -0.3710 -1.0807
 3573TIP3   OH232353   5.745   5.587   2.201  0.2123 -0.1163 -0.6621
 3573TIP3    H132354   5.777   5.559   2.115 -0.2570 -2.6217 -0.0880
 3573TIP3    H232355   5.822   5.583   2.258  0.2788  0.4622 -0.7003
 3574TIP3   OH232356   3.862   3.228   3.109 -0.2477  0.7666 -0.1134
 3574TIP3    H132357   3.891   3.300   3.166 -1.0399  0.9984  0.0135
 3574TIP3    H232358   3.813   3.272   3.040 -2.2028  0.2447  0.8839
 3575TIP3   OH232359   3.996   0.275   8.044 -0.3398 -0.5737 -0.5721
 3575TIP3    H132360   4.067   0.284   7.980 -0.2746  0.6043 -0.3468
 3575TIP3    H232361   3.949   0.196   8.016  0.1723 -0.5383 -1.5846
 3576TIP3   OH232362   1.713   3.916   2.713  0.1082  0.3065  0.1711
 3576TIP3    H132363   1.787   3.856   2.727 -0.2230 -0.5016 -1.3798
 3576TIP3    H232364   1.678   3.931   2.801 -1.0713 -3.4342  0.5259
 3577TIP3   OH232365   4.898   2.908   2.640 -0.3552  0.1606 -0.5651
 3577TIP3    H132366   4.913   3.003   2.640 -0.2264  0.1543 -1.4120
 3577TIP3    H232367   4.939   2.877   2.720 -1.3939  0.9602  0.3114
 3578TIP3   OH232368   4.166   2.640   2.320  0.3763 -0.5266  0.1097
 3578TIP3    H132369   4.179   2.618   2.412  0.3303 -3.6772 -0.5396
 3578TIP3    H232370   4.250   2.622   2.278  0.2045  0.2197 -0.5820
 3579TIP3   OH232371   2.810   5.955   8.519 -0.1246  0.2741 -0.0397
 3579TIP3    H132372   2.823   5.997   8.604 -1.1903  0.3749  0.0776
 3579TIP3    H232373   2.747   6.011   8.474 -1.2739 -0.9778 -0.0330
 3580TIP3   OH232374   0.394   2.629   0.452  0.5154  0.1651  0.2940
 3580TIP3    H132375   0.484   2.657   0.436 -0.1574  0.7721 -3.1323
 3580TIP3    H232376   0.360   2.607   0.365 -2.3653 -0.9645  1.5970
 3581TIP3   OH232377   0.255   0.278   8.506  0.7984 -0.2542 -0.1737
 3581TIP3    H132378   0.331   0.336   8.514  0.8378 -0.3450  0.1028
 3581TIP3    H232379   0.193   0.310   8.571 -0.1291  0.9267 -1.5576
 3582TIP3   OH232380   6.111   2.082   0.619 -0.3333 -0.1261 -0.2779
 3582TIP3    H132381   6.140   2.168   0.591 -0.6333 -0.3668 -1.3579
 3582TIP3    H232382   6.099   2.090   0.714 -0.8760  1.1700 -0.4464
 3583TIP3   OH232383   6.738   0.615   1.799 -0.1055 -0.2327 -0.5303
 3583TIP3    H132384   6.672   0.638   1.864  0.8127 -1.9951  1.1333
 3583TIP3    H232385   6.697   0.546   1.746 -0.1630 -0.1999 -0.5288
 3584TIP3   OH232386   0.634   6.165   1.388 -0.1867  0.6882 -0.2237
 3584TIP3    H132387   0.588   6.239   1.427  0.9987  1.6105 -0.5119
 3584TIP3    H232388   0.662   6.111   1.462 -1.2811  0.3688 -0.0284
 3585TIP3   OH232389   4.162   3.774   8.297 -0.4223 -0.3539 -0.0054
 3585TIP3    H132390   4.225   3.838   8.264 -0.2626 -0.1648  0.6343
 3585TIP3    H232391   4.212   3.693   8.305 -0.3433 -0.2864  0.1932
 3586TIP3   OH232392   1.537   3.733   1.830 -0.1164  0.4704  0.2959
 3586TIP3    H132393   1.449   3.699   1.849  0.3542 -1.4397 -0.7064
 3586TIP3    H232394   1.544   3.729   1.734  0.8262  1.2267  0.3229
 3587TIP3   OH232395   0.174   2.198   6.587 -0.1717 -0.2200  0.6591
 3587TIP3    H132396   0.175   2.275   6.531 -2.0096 -0.1688  0.6332
 3587TIP3    H232397   0.210   2.127   6.533 -0.7830  0.0931 -0.1646
 3588TIP3   OH232398   0.601   5.566   0.968 -0.0119 -0.0346  0.4053
 3588TIP3    H132399   0.617   5.528   0.882 -1.2123  0.4363 -0.0537
 3588TIP3    H232400   0.546   5.501   1.012  0.4925 -0.2151  0.7805
 3589TIP3   OH232401   5.291   1.370   0.878  0.2414 -0.6059  0.4517
 3589TIP3    H132402   5.253   1.458   0.882  1.1702 -0.1584 -0.2781
 3589TIP3    H232403   5.350   1.366   0.953  2.4103  0.4881 -1.0953
 3590TIP3   OH232404   4.789   4.145   7.647 -0.2604  0.4382 -0.1817
 3590TIP3    H132405   4.709   4.114   7.689 -0.0366 -0.1283 -0.1691
 3590TIP3    H232406   4.786   4.108   7.559 -0.9812  2.0440 -0.8731
 3591TIP3   OH232407   5.302   6.946   8.208 -0.0395 -0.0139 -0.7060
 3591TIP3    H132408   5.274   6.915   8.122  0.9299 -1.3920 -0.5576
 3591TIP3    H232409   5.253   7.028   8.221 -1.0743 -0.3774 -2.0503
 3592TIP3   OH232410   5.856   4.588   8.358  0.6644 -0.0222  0.2379
 3592TIP3    H132411   5.765   4.585   8.327  0.0499 -1.0949  1.9400
 3592TIP3    H232412   5.909   4.581   8.279 -0.7180  1.0379 -0.8380
 3593TIP3   OH232413   2.721   5.519   7.007 -0.3347  0.1827  0.0781
 3593TIP3    H132414   2.679   5.556   6.930  2.2543  1.6589 -0.7479
 3593TIP3    H232415   2.774   5.447   6.973  1.5191  1.3942  0.2323
 3594TIP3   OH232416   5.175   5.307   8.226 -0.1042 -1.1014  0.5549
 3594TIP3    H132417   5.174   5.342   8.315 -0.9678  1.2825 -0.3141
 3594TIP3    H232418   5.217   5.375   8.173 -2.6115 -0.8982 -1.3890
 3595TIP3   OH232419   1.824   3.311   0.809 -0.2822 -0.0525 -0.0210
 3595TIP3    H132420   1.917   3.335   0.810 -0.2098 -0.3178  0.5787
 3595TIP3    H232421   1.818   3.241   0.875 -1.0451  0.5035  0.5026
 3596TIP3   OH232422   6.715   3.633   6.794 -0.0978  0.3794  0.3735
 3596TIP3    H132423   6.667   3.644   6.876 -1.1210 -1.8129  0.1207
 3596TIP3    H232424   6.722   3.722   6.759 -3.1346  0.9228  0.9045
 3597TIP3   OH232425   3.059   0.224   1.913  0.3598 -0.5242  0.0089
 3597TIP3    H132426   3.071   0.173   1.833  0.0400  0.0137 -0.3966
 3597TIP3    H232427   2.966   0.247   1.912  0.3416 -0.5691  0.5706
 3598TIP3   OH232428   3.734   6.946   2.840 -0.6489 -0.0220 -0.2650
 3598TIP3    H132429   3.785   6.865   2.840 -0.5902  0.0144 -0.4480
 3598TIP3    H232430   3.716   6.963   2.932  0.5768  0.5311 -0.1039
 3599TIP3   OH232431   1.686   3.537   2.188 -0.5189  0.3805 -0.0407
 3599TIP3    H132432   1.620   3.598   2.221  0.4838  0.6773  1.4674
 3599TIP3    H232433   1.761   3.591   2.165  1.2201 -0.3393  3.3548
 3600TIP3   OH232434   2.342   5.530   7.993  0.1924 -0.5695 -0.0642
 3600TIP3    H132435   2.274   5.546   8.059  0.0780 -2.6219  0.3788
 3600TIP3    H232436   2.301   5.555   7.910  0.1089  1.4072  0.5026
 3601TIP3   OH232437   4.521   0.924   0.971  0.1944 -0.1672 -0.1764
 3601TIP3    H132438   4.461   0.946   0.900 -1.0294  1.0079  1.1639
 3601TIP3    H232439   4.537   0.830   0.961 -0.2646 -0.0993 -1.7435
 3602TIP3   OH232440   0.331   3.629   2.171 -0.4089 -0.3528 -0.0628
 3602TIP3    H132441   0.289   3.617   2.085 -1.2592  0.0609  0.2881
 3602TIP3    H232442   0.343   3.723   2.179 -1.1566 -0.3124  0.6566
 3603TIP3   OH232443   5.865   1.849   0.251 -0.7694  0.0059 -0.0984
 3603TIP3    H132444   5.902   1.808   0.330 -0.4660  0.3915 -0.0428
 3603TIP3    H232445   5.772   1.862   0.273 -0.7216 -0.0415  0.1343
 3604TIP3   OH232446   3.456   0.845   1.193  0.1215 -0.2934  0.1725
 3604TIP3    H132447   3.414   0.920   1.234 -0.8179 -0.4187 -0.5419
 3604TIP3    H232448   3.473   0.784   1.265  1.2114  0.7288  0.8145
 3605TIP3   OH232449   5.906   2.636   7.688  0.3800  0.1114 -0.0078
 3605TIP3    H132450   5.922   2.626   7.594 -0.7985 -1.8781 -0.0492
 3605TIP3    H232451   5.977   2.692   7.718  0.5998  1.0849 -2.1301
 3606TIP3   OH232452   6.021   6.560   7.500  0.4048  0.2226 -0.3726
 3606TIP3    H132453   5.979   6.559   7.414  0.0902  0.6803 -0.2266
 3606TIP3    H232454   5.951   6.539   7.562  1.0417 -2.3183 -0.3678
 3607TIP3   OH232455   0.817   3.864   8.280 -0.2068 -0.2299 -0.0315
 3607TIP3    H132456   0.788   3.842   8.192 -1.4203  0.9350  0.0445
 3607TIP3    H232457   0.873   3.791   8.306 -0.3316 -0.8877 -1.5172
 3608TIP3   OH232458   5.699   6.797   8.082 -0.4834 -0.4372  0.0333
 3608TIP3    H132459   5.659   6.747   8.153 -1.2907  0.4872  0.2462
 3608TIP3    H232460   5.791   6.770   8.083 -1.1682 -3.1631 -0.9389
 3609TIP3   OH232461   2.827   1.154   7.163 -0.4900 -0.0328 -0.1485
 3609TIP3    H132462   2.921   1.144   7.149 -0.5707 -0.6271 -0.3081
 3609TIP3    H232463   2.798   1.068   7.193 -1.3380 -0.5373 -2.2055
 3610TIP3   OH232464   3.965   2.886   0.087  0.5574  0.0726 -0.1095
 3610TIP3    H132465   3.888   2.834   0.063  1.2466 -0.1966 -1.8787
 3610TIP3    H232466   4.034   2.821   0.101  0.1803  0.1825  3.0121
 3611TIP3   OH232467   3.146   1.800   2.435 -0.0789  0.0031  0.2249
 3611TIP3    H132468   3.137   1.727   2.374  0.0327  1.5997 -1.7902
 3611TIP3    H232469   3.241   1.808   2.448 -0.0449  0.3322 -0.2323
 3612TIP3   OH232470   5.376   6.585   7.194 -0.4598 -0.7763  0.4927
 3612TIP3    H132471   5.324   6.659   7.226 -0.8901 -1.5939  1.7770
 3612TIP3    H232472   5.363   6.585   7.099 -0.0856  1.0545  0.4139
 3613TIP3   OH232473   1.681   1.231   2.424 -0.7319  0.2760 -1.0013
 3613TIP3    H132474   1.727   1.190   2.496 -1.7962 -1.4586 -1.2326
 3613TIP3    H232475   1.749   1.252   2.360  0.0007  0.0869 -0.2933
 3614TIP3   OH232476   2.520   4.160   8.263 -0.4964  0.0175 -0.5006
 3614TIP3    H132477   2.577   4.085   8.279  0.4747  0.5870 -1.2018
 3614TIP3    H232478   2.446   4.123   8.216 -1.7085 -1.0709  2.0451
 3615TIP3   OH232479   2.489   2.507   0.222 -0.3672 -0.5509  0.4539
 3615TIP3    H132480   2.510   2.425   0.177  1.0725 -0.5499  1.0568
 3615TIP3    H232481   2.571   2.557   0.220 -0.1421 -0.6676  3.2782
 3616TIP3   OH232482   5.331   3.114   2.504  0.7390  0.4146 -0.0736
 3616TIP3    H132483   5.255   3.167   2.530 -0.4375 -0.8365 -0.8491
 3616TIP3    H232484   5.407   3.169   2.525 -0.3449  1.4509  1.2795
 3617TIP3   OH232485   6.944   5.518   8.353 -0.2317 -0.1464  0.1984
 3617TIP3    H132486   6.893   5.447   8.315 -0.5811  0.2760 -0.1333
 3617TIP3    H232487   6.886   5.557   8.419  0.6699 -1.4075  1.8070
 3618TIP3   OH232488   5.250   3.094   7.535 -0.0086  0.0469 -0.3374
 3618TIP3    H132489   5.293   3.010   7.556 -0.2727  0.2803  1.3185
 3618TIP3    H232490   5.157   3.073   7.530 -0.2618  0.4541  1.6789
 3619TIP3   OH232491   6.185   0.740   8.130 -0.2084 -0.3863  0.3139
 3619TIP3    H132492   6.204   0.817   8.076 -1.3465 -1.7232 -2.1669
 3619TIP3    H232493   6.271   0.708   8.158  0.4166  0.4604 -0.5881
 3620TIP3   OH232494   4.746   4.332   7.053  0.6248 -0.3238 -0.3239
 3620TIP3    H132495   4.711   4.420   7.039 -0.8663 -0.8468 -0.1265
 3620TIP3    H232496   4.686   4.276   7.003  0.1633 -1.4307  1.4037
 3621TIP3   OH232497   1.949   3.221   8.353 -0.2839 -0.1167  0.6051
 3621TIP3    H132498   1.903   3.233   8.436 -3.8328 -0.5506 -1.0959
 3621TIP3    H232499   1.973   3.310   8.326 -0.4339  0.1738  1.3959
 3622TIP3   OH232500   4.091   0.828   1.638 -0.3735  0.0555  0.1820
 3622TIP3    H132501   4.016   0.823   1.579  0.5727 -0.9399 -1.0027
 3622TIP3    H232502   4.090   0.918   1.671 -1.3294  0.4289 -0.8163
 3623TIP3   OH232503   2.635   6.553   0.954 -0.0178 -0.5597 -0.2490
 3623TIP3    H132504   2.618   6.614   0.882 -0.6902 -1.3668 -0.7878
 3623TIP3    H232505   2.714   6.588   0.997 -0.5912  0.8821 -0.3161
 3624TIP3   OH232506   0.743   3.736   2.364  0.1746 -0.3803 -0.1459
 3624TIP3    H132507   0.796   3.812   2.340  1.7062 -1.3049  0.1928
 3624TIP3    H232508   0.656   3.773   2.383  1.2032  1.4696  1.3341
 3625TIP3   OH232509   2.095   6.593   0.907 -0.9193 -0.1487  0.1109
 3625TIP3    H132510   2.033   6.520   0.909 -2.2585  0.8665 -1.4514
 3625TIP3    H232511   2.175   6.555   0.871 -1.6292 -0.8623 -0.7733
 3626TIP3   OH232512   6.031   4.126   2.173 -0.5286 -0.1261 -0.4368
 3626TIP3    H132513   5.998   4.205   2.130 -1.2554  0.2810  0.8144
 3626TIP3    H232514   6.126   4.130   2.163 -0.5789  0.7849 -0.6088
 3627TIP3   OH232515   0.422   6.497   0.887 -0.2905  0.2223  0.8685
 3627TIP3    H132516   0.415   6.469   0.978  1.5795 -0.8176  0.7447
 3627TIP3    H232517   0.380   6.428   0.836 -1.2096  0.7344  0.9161
 3628TIP3   OH232518   5.004   6.796   1.171  0.1209 -0.3100 -0.4985
 3628TIP3    H132519   5.014   6.791   1.076 -1.2814  0.0645 -0.6942
 3628TIP3    H232520   4.909   6.798   1.185  0.2926  1.6392  0.7781
 3629TIP3   OH232521   0.748   3.168   8.034 -0.5458  0.0266  0.3316
 3629TIP3    H132522   0.668   3.123   8.060 -0.8449  0.3187 -0.0722
 3629TIP3    H232523   0.805   3.098   8.002 -1.0874 -0.0581 -0.4934
 3630TIP3   OH232524   4.019   1.622   8.120  0.5603  0.6445 -0.0833
 3630TIP3    H132525   4.049   1.712   8.108  0.0405  0.7020 -1.0593
 3630TIP3    H232526   4.077   1.569   8.065  2.8285 -0.0412  2.7617
 3631TIP3   OH232527   5.990   4.965   7.649 -0.1448  0.0049  0.4515
 3631TIP3    H132528   5.946   4.906   7.711 -0.0447  1.9511  2.5120
 3631TIP3    H232529   6.072   4.921   7.628 -0.5370 -1.0759  1.0603
 3632TIP3   OH232530   1.611   0.913   2.146  0.3677  0.0322 -0.3051
 3632TIP3    H132531   1.579   0.912   2.236 -2.2023 -0.9732 -1.1181
 3632TIP3    H232532   1.628   0.821   2.126  0.5994  0.2083 -0.9358
 3633TIP3   OH232533   5.946   5.863   0.294  0.9990  0.1577 -0.3453
 3633TIP3    H132534   5.960   5.848   0.201 -0.5038 -2.7625 -0.2173
 3633TIP3    H232535   5.983   5.786   0.337 -2.5907 -1.0386  0.9734
 3634TIP3   OH232536   0.668   0.949   0.335  0.0089 -0.4160 -0.1024
 3634TIP3    H132537   0.719   0.869   0.327 -1.6912 -1.6130  0.2867
 3634TIP3    H232538   0.731   1.020   0.322  1.7744 -1.7759  0.6205
 3635TIP3   OH232539   4.693   3.386   2.458  0.0681  0.4490  0.3619
 3635TIP3    H132540   4.701   3.456   2.523 -1.6026  0.9035  0.1127
 3635TIP3    H232541   4.667   3.309   2.510  0.7377  0.2845  0.4728
 3636TIP3   OH232542   2.066   4.461   0.678 -0.6914 -0.4874  0.0507
 3636TIP3    H132543   2.121   4.487   0.752 -0.0103 -0.2856 -0.5132
 3636TIP3    H232544   2.065   4.538   0.621 -1.4027 -0.5578 -0.0401
 3637TIP3   OH232545   5.416   2.077   1.597  0.0953 -0.5570 -0.6275
 3637TIP3    H132546   5.389   2.015   1.664  2.7761 -0.6197  0.5401
 3637TIP3    H232547   5.441   2.023   1.523 -0.1858 -0.6858 -0.6287
 3638TIP3   OH232548   0.530   2.697   0.809 -0.4170  0.4202 -0.2677
 3638TIP3    H132549   0.444   2.676   0.773 -1.0617 -0.8424  1.8588
 3638TIP3    H232550   0.583   2.719   0.732 -1.6066 -2.3301 -2.0140
 3639TIP3   OH232551   2.289   1.531   0.449 -0.5604 -0.4670  0.4447
 3639TIP3    H132552   2.329   1.611   0.413 -0.8275 -0.5727 -0.1041
 3639TIP3    H232553   2.358   1.466   0.446 -0.9783 -0.8923 -1.3313
 3640TIP3   OH232554   5.399   3.562   1.159 -0.1418  0.2415  0.2504
 3640TIP3    H132555   5.469   3.517   1.206 -0.0543 -0.7862 -0.8293
 3640TIP3    H232556   5.318   3.525   1.195 -0.0788 -0.3127 -0.1591
 3641TIP3   OH232557   1.645   5.074   0.841  0.1569 -0.4969  0.7901
 3641TIP3    H132558   1.644   5.162   0.878 -0.3767 -0.2975  0.3301
 3641TIP3    H232559   1.727   5.069   0.792 -0.5522  0.3518 -0.5458
 3642TIP3   OH232560   6.438   1.939   2.713 -0.5100 -0.2586  0.0725
 3642TIP3    H132561   6.398   1.859   2.748  0.2961 -0.7654 -0.1429
 3642TIP3    H232562   6.379   1.967   2.644 -0.9873 -0.4682  0.3906
 3643TIP3   OH232563   2.656   5.470   1.743 -0.3464  0.3731 -0.4927
 3643TIP3    H132564   2.671   5.379   1.718 -1.2079  0.3624 -0.9921
 3643TIP3    H232565   2.618   5.465   1.830  0.7214  0.3218 -0.0072
 3644TIP3   OH232566   6.467   3.009   1.926  0.2862  0.3921 -0.3308
 3644TIP3    H132567   6.449   3.026   2.019  1.8834  1.3961 -0.1674
 3644TIP3    H232568   6.525   3.080   1.900  0.4596 -0.3000 -1.9137
 3645TIP3   OH232569   4.320   1.785   1.509 -0.0611 -0.3694 -0.6490
 3645TIP3    H132570   4.258   1.727   1.553  1.6345 -2.1716 -0.5014
 3645TIP3    H232571   4.320   1.755   1.418  0.6377 -0.4454 -0.6297
 3646TIP3   OH232572   3.569   0.689   7.780  0.3757  0.4394 -0.3404
 3646TIP3    H132573   3.512   0.612   7.777 -1.4341  1.7440 -1.2197
 3646TIP3    H232574   3.647   0.663   7.732 -1.0812 -0.2043 -2.4777
 3647TIP3   OH232575   6.369   0.462   0.995  0.2644 -0.4505 -0.0652
 3647TIP3    H132576   6.401   0.453   1.084  0.6436 -1.5358 -0.2923
 3647TIP3    H232577   6.437   0.422   0.941  0.5799  1.1722 -0.9635
 3648TIP3   OH232578   1.702   3.892   1.999  0.3223 -0.2347 -0.4079
 3648TIP3    H132579   1.655   3.825   1.949 -3.0940  1.5042  0.1913
 3648TIP3    H232580   1.757   3.936   1.934 -1.5785 -0.1011 -2.0144
 3649TIP3   OH232581   1.806   5.918   7.853  0.4545 -0.2269 -0.1637
 3649TIP3    H132582   1.824   5.958   7.938 -1.1056  0.5792 -0.1818
 3649TIP3    H232583   1.853   5.973   7.790 -0.3866  0.6761 -0.0338
 3650TIP3   OH232584   6.554   1.419   8.107 -0.5773 -0.2306  0.2866
 3650TIP3    H132585   6.520   1.334   8.078  0.6590 -1.1110  1.2991
 3650TIP3    H232586   6.587   1.403   8.195  1.4494  0.8222 -0.2217
 3651TIP3   OH232587   3.454   6.479   0.041 -0.3470  0.8036  0.5299
 3651TIP3    H132588   3.474   6.434   0.123 -0.3178 -1.7317 -0.7901
 3651TIP3    H232589   3.539   6.497   0.002 -0.4057 -0.3510 -0.1426
 3652TIP3   OH232590   1.133   2.620   1.961 -0.4797 -0.8764  0.2722
 3652TIP3    H132591   1.145   2.525   1.966  0.5085 -0.8229 -0.7496
 3652TIP3    H232592   1.188   2.654   2.032  1.1850 -0.9526 -0.9340
 3653TIP3   OH232593   3.009   2.854   1.836 -0.7927 -0.4470 -0.1325
 3653TIP3    H132594   2.914   2.845   1.829 -0.7331 -1.7291  0.4632
 3653TIP3    H232595   3.042   2.764   1.833  0.5247  0.0390 -1.8023
 3654TIP3   OH232596   4.348   1.884   2.158  0.1064  0.2292 -0.5557
 3654TIP3    H132597   4.357   1.978   2.167 -3.5961  0.7046 -0.1243
 3654TIP3    H232598   4.413   1.847   2.218 -1.3400  2.6592  2.8123
 3655TIP3   OH232599   2.316   1.390   3.074  0.4611  0.0378 -0.1440
 3655TIP3    H132600   2.248   1.367   3.011 -0.3731 -1.8191  1.3475
 3655TIP3    H232601   2.322   1.314   3.132  2.3443  1.0165  1.0442
 3656TIP3   OH232602   1.386   6.627   2.618 -0.2629  0.7123  0.7674
 3656TIP3    H132603   1.321   6.620   2.688  0.4846  2.3400  1.6884
 3656TIP3    H232604   1.410   6.719   2.618  2.7777  0.0094  1.1539
 3657TIP3   OH232605   0.922   0.652   0.534 -0.0251 -0.0436 -0.9540
 3657TIP3    H132606   0.928   0.613   0.447 -0.5052 -0.4986 -0.7855
 3657TIP3    H232607   0.829   0.664   0.549  0.1036  1.1984 -1.0069
 3658TIP3   OH232608   2.149   6.815   0.067  0.0132 -0.2758  0.4394
 3658TIP3    H132609   2.100   6.741   0.031 -0.5957  0.2048  0.2721
 3658TIP3    H232610   2.140   6.806   0.161  0.2419 -0.6125  0.4327
 3659TIP3   OH232611   2.764   4.298   1.006 -0.2584 -0.2372 -0.2904
 3659TIP3    H132612   2.776   4.364   0.937 -1.8751 -1.8890 -2.3096
 3659TIP3    H232613   2.832   4.317   1.070  0.2250  2.4867 -1.4675
 3660TIP3   OH232614   4.103   0.472   2.032 -0.2205 -0.4548  0.0541
 3660TIP3    H132615   4.133   0.419   1.958 -0.1430 -1.6720  0.9345
 3660TIP3    H232616   4.087   0.558   1.994  3.0602 -0.0533 -0.7690
 3661TIP3   OH232617   6.257   3.854   0.763 -0.1788 -0.2095  0.5756
 3661TIP3    H132618   6.260   3.783   0.828  2.0942 -0.9673 -0.2656
 3661TIP3    H232619   6.337   3.904   0.779  0.1926 -0.1369 -1.3294
 3662TIP3   OH232620   5.442   2.171   7.827  0.0026  0.9145 -0.0461
 3662TIP3    H132621   5.417   2.167   7.735  0.4345 -1.5245 -0.1236
 3662TIP3    H232622   5.360   2.192   7.873 -1.0521 -1.3756 -0.7394
 3663TIP3   OH232623   4.029   5.418   1.690 -0.0925 -0.0082  0.0062
 3663TIP3    H132624   4.092   5.372   1.633  2.2766  1.3752  1.3347
 3663TIP3    H232625   4.031   5.369   1.772 -2.2151 -0.9927 -0.4505
 3664TIP3   OH232626   0.460   4.101   1.972  0.0033 -0.2260  0.5737
 3664TIP3    H132627   0.464   4.180   1.919 -0.5423 -0.8122 -0.3571
 3664TIP3    H232628   0.384   4.115   2.029 -0.7245 -0.5024 -0.3040
 3665TIP3   OH232629   5.614   3.341   2.400 -0.6006 -0.3591 -0.4901
 3665TIP3    H132630   5.638   3.413   2.343  0.7804 -0.8961 -0.6288
 3665TIP3    H232631   5.612   3.379   2.488  1.3368 -0.3727 -0.3991
 3666TIP3   OH232632   1.687   2.982   0.813 -0.3974  0.5557  0.6727
 3666TIP3    H132633   1.667   2.889   0.804 -1.7426  0.8384  0.4897
 3666TIP3    H232634   1.725   3.007   0.728  0.4353  0.0799  0.8958
 3667TIP3   OH232635   3.175   2.711   7.803 -0.9762  0.5522 -0.1274
 3667TIP3    H132636   3.132   2.734   7.885 -0.5402 -0.3104  0.3495
 3667TIP3    H232637   3.128   2.762   7.737 -1.0023  1.6577  0.7086
 3668TIP3   OH232638   3.312   0.825   8.062  0.2447 -0.5862  0.1425
 3668TIP3    H132639   3.402   0.829   8.094 -0.2686 -1.0086  1.7253
 3668TIP3    H232640   3.295   0.732   8.050  0.3945 -0.4390 -1.3198
 3669TIP3   OH232641   3.823   5.359   0.142  0.1358 -0.1878  0.4052
 3669TIP3    H132642   3.807   5.416   0.067  0.3265 -1.7898 -0.9149
 3669TIP3    H232643   3.868   5.415   0.205  1.3403  0.8729 -1.2763
 3670TIP3   OH232644   5.167   2.312   2.445 -0.0459 -0.2347  0.1213
 3670TIP3    H132645   5.107   2.292   2.374  0.2695 -0.0648 -0.1987
 3670TIP3    H232646   5.125   2.384   2.493  0.0235  0.0682 -0.2623
 3671TIP3   OH232647   5.407   0.782   0.570  0.1649  0.8508 -0.6163
 3671TIP3    H132648   5.413   0.871   0.607 -0.5730  1.2048 -1.3173
 3671TIP3    H232649   5.418   0.724   0.645  3.9559  1.4414 -0.5216
 3672TIP3   OH232650   4.439   3.420   2.092  0.6571 -0.4084 -0.1221
 3672TIP3    H132651   4.438   3.497   2.035  0.0954 -1.7838 -2.0868
 3672TIP3    H232652   4.454   3.455   2.180 -0.0088  1.9610 -0.8838
 3673TIP3   OH232653   3.305   1.086   1.659 -0.5190 -0.0399  0.3448
 3673TIP3    H132654   3.344   1.032   1.728 -2.8207  0.0042  1.7961
 3673TIP3    H232655   3.268   1.023   1.597 -0.1585 -0.0885  0.1756
 3674TIP3   OH232656   2.597   6.352   2.594 -0.3345 -0.7395 -0.3809
 3674TIP3    H132657   2.521   6.378   2.542  0.7929 -0.3207 -1.9056
 3674TIP3    H232658   2.657   6.312   2.530  0.4702 -1.6433  0.8911
 3675TIP3   OH232659   4.667   1.762   2.248  0.1523  0.1524  0.5172
 3675TIP3    H132660   4.604   1.695   2.223 -0.3536  0.4232  1.0273
 3675TIP3    H232661   4.698   1.736   2.335  1.8960 -0.7837 -0.3257
 3676TIP3   OH232662   3.492   6.904   1.265  0.2470  0.3937 -0.2553
 3676TIP3    H132663   3.543   6.887   1.344  0.7117  0.8651 -0.4455
 3676TIP3    H232664   3.499   6.824   1.214  1.1778  0.6034 -0.4779
 3677TIP3   OH232665   1.123   2.365   0.205  0.3972  0.7761  0.0295
 3677TIP3    H132666   1.033   2.337   0.220  0.6069  0.2575  0.3411
 3677TIP3    H232667   1.150   2.405   0.287  0.9932 -0.5599  0.5010
 3678TIP3   OH232668   0.914   6.579   8.027  0.9511 -0.1235 -0.4555
 3678TIP3    H132669   0.993   6.611   8.070  0.0137  1.9834 -0.1575
 3678TIP3    H232670   0.887   6.502   8.077  3.0759 -1.2176 -0.9054
 3679TIP3   OH232671   1.865   2.074   2.715 -0.0429 -0.3976 -0.3261
 3679TIP3    H132672   1.790   2.131   2.731 -0.0410 -0.8661  1.6921
 3679TIP3    H232673   1.883   2.034   2.801  1.4678 -1.5640 -1.1367
 3680TIP3   OH232674   3.778   2.852   2.384  0.1006  0.1521  0.1857
 3680TIP3    H132675   3.736   2.938   2.378 -0.6226 -0.2584 -1.0073
 3680TIP3    H232676   3.831   2.845   2.304 -0.5713 -0.8718 -0.1923
 3681TIP3   OH232677   3.413   1.791   2.476  0.0721  0.6741  0.1921
 3681TIP3    H132678   3.446   1.781   2.565 -2.2949  1.7240  1.2556
 3681TIP3    H232679   3.489   1.822   2.426  1.5816 -0.4368  1.6846
 3682TIP3   OH232680   5.709   6.700   1.932  0.7158  0.1556  0.4486
 3682TIP3    H132681   5.657   6.630   1.972  1.6679 -1.7621 -1.5127
 3682TIP3    H232682   5.760   6.736   2.004 -0.3661 -0.6427  1.6530
 3683TIP3   OH232683   2.002   1.961   0.324 -0.7624 -0.1925  0.5231
 3683TIP3    H132684   2.010   2.040   0.377  2.2807  0.3617 -0.5648
 3683TIP3    H232685   2.064   1.899   0.363  1.1875  0.0540 -1.9230
 3684TIP3   OH232686   2.210   5.921   7.415  0.1834  0.3146 -0.5775
 3684TIP3    H132687   2.205   5.996   7.474 -2.2075  0.5033 -0.9263
 3684TIP3    H232688   2.259   5.855   7.464 -1.9910  0.3284  1.8265
 3685TIP3   OH232689   0.791   5.199   0.493  0.3213  0.0667  0.1510
 3685TIP3    H132690   0.770   5.291   0.504 -1.9129 -0.3050 -0.5513
 3685TIP3    H232691   0.744   5.172   0.415 -1.0378 -2.1831  1.6150
 3686TIP3   OH232692   5.290   2.932   1.163 -0.3482  0.0857 -0.0950
 3686TIP3    H132693   5.306   3.020   1.130  1.2039 -0.4803 -0.9452
 3686TIP3    H232694   5.195   2.923   1.163 -0.4769  1.1213 -1.7105
 3687TIP3   OH232695   5.000   4.143   2.030 -0.5635  0.1768 -0.5567
 3687TIP3    H132696   5.036   4.069   1.982 -1.6401 -0.5549 -0.2939
 3687TIP3    H232697   5.066   4.163   2.096 -0.3014 -0.6247 -0.5606
 3688TIP3   OH232698   0.661   5.913   2.888  0.1882 -0.1530 -0.0131
 3688TIP3    H132699   0.730   5.977   2.904  1.2784 -1.3795  0.4537
 3688TIP3    H232700   0.668   5.892   2.795  0.9353 -0.7923  0.1798
 3689TIP3   OH232701   6.597   2.291   2.021 -0.6232  0.1297 -0.6511
 3689TIP3    H132702   6.592   2.315   1.928 -2.5089 -0.5625 -0.7698
 3689TIP3    H232703   6.526   2.340   2.062  0.2346  0.4800  0.4646
 3690TIP3   OH232704   5.885   6.235   1.758  0.5772 -0.1591  0.2126
 3690TIP3    H132705   5.855   6.150   1.790  0.8063 -0.4966 -0.4371
 3690TIP3    H232706   5.961   6.214   1.703 -0.2625  0.2999 -1.1849
 3691TIP3   OH232707   0.755   5.105   2.151 -0.2121 -0.0622 -1.0731
 3691TIP3    H132708   0.793   5.065   2.230 -4.0221  0.1381  1.1276
 3691TIP3    H232709   0.758   5.035   2.086  0.5980 -1.1789  0.0977
 3692TIP3   OH232710   5.230   0.938   0.325 -0.3420 -0.5951 -0.6685
 3692TIP3    H132711   5.266   1.006   0.267  1.5706  0.2191  1.3371
 3692TIP3    H232712   5.307   0.889   0.354 -1.1597 -0.6688  1.5369
 3693TIP3   OH232713   0.910   0.704   6.927  0.0268 -0.1930  0.2730
 3693TIP3    H132714   0.987   0.657   6.894 -0.4898 -2.4311  1.9705
 3693TIP3    H232715   0.946   0.763   6.993  0.5533  0.8431 -0.9121
 3694TIP3   OH232716   5.623   4.104   0.819  0.4737 -0.2706 -0.2082
 3694TIP3    H132717   5.660   4.137   0.737 -0.8826  1.1917 -0.2745
 3694TIP3    H232718   5.563   4.035   0.792 -0.8656  1.0013 -0.6015
 3695TIP3   OH232719   4.197   1.555   2.709 -0.0522 -0.2203  0.5002
 3695TIP3    H132720   4.283   1.582   2.741  0.3660 -1.4675  0.5168
 3695TIP3    H232721   4.213   1.527   2.619 -0.5841  0.2198  0.2678
 3696TIP3   OH232722   2.583   3.524   1.108 -0.6257 -0.5743  0.3688
 3696TIP3    H132723   2.492   3.503   1.086 -0.9892  0.6572  0.5951
 3696TIP3    H232724   2.629   3.522   1.024 -0.8092 -1.3769  0.2765
 3697TIP3   OH232725   5.674   0.492   6.708 -0.0931 -0.2548 -0.2170
 3697TIP3    H132726   5.607   0.483   6.640 -0.6900 -0.7678  0.4176
 3697TIP3    H232727   5.739   0.551   6.670 -1.7582  1.6977 -0.2078
 3698TIP3   OH232728   1.096   0.618   1.585 -0.0869 -0.2458  0.2625
 3698TIP3    H132729   1.092   0.546   1.523 -0.0955 -0.5941  0.6581
 3698TIP3    H232730   1.173   0.598   1.639  2.0159  1.7881 -1.7296
 3699TIP3   OH232731   4.952   0.390   8.233 -0.0828  0.1295 -0.2081
 3699TIP3    H132732   4.997   0.471   8.259 -0.4830 -0.0980  1.2532
 3699TIP3    H232733   5.017   0.322   8.243 -0.3625 -0.0192  0.6480
 3700TIP3   OH232734   5.926   1.129   1.375 -0.8365  0.0963  0.0172
 3700TIP3    H132735   5.984   1.073   1.324  0.6851  2.1917 -0.7061
 3700TIP3    H232736   5.900   1.198   1.313 -3.6403 -0.4046  0.4980
 3701TIP3   OH232737   0.963   0.733   7.972  0.0771 -0.3005  0.3722
 3701TIP3    H132738   1.001   0.810   8.013 -1.5871  0.8408 -0.1187
 3701TIP3    H232739   0.940   0.676   8.046 -0.8173  0.7298  0.9315
 3702TIP3   OH232740   3.448   2.443   7.314 -0.2457  0.5861 -0.4311
 3702TIP3    H132741   3.517   2.450   7.248  0.7874 -4.0205 -0.2087
 3702TIP3    H232742   3.373   2.407   7.265 -0.0365 -1.1798  0.4501
 3703TIP3   OH232743   3.537   4.161   2.700 -0.2646 -0.5338 -0.4949
 3703TIP3    H132744   3.568   4.077   2.735 -0.7149 -0.1705  0.8646
 3703TIP3    H232745   3.599   4.183   2.631  1.7537 -0.4381  1.2606
 3704TIP3   OH232746   5.649   1.156   1.152 -0.4635 -0.2759  0.0320
 3704TIP3    H132747   5.639   1.110   1.235 -0.8990 -1.2483 -0.5435
 3704TIP3    H232748   5.717   1.221   1.169 -1.0346  0.0173  1.3429
 3705TIP3   OH232749   3.874   3.134   8.492 -0.6553 -0.3927  0.0977
 3705TIP3    H132750   3.949   3.165   8.441 -0.2721  1.0833  1.4717
 3705TIP3    H232751   3.894   3.042   8.510  0.3233 -0.3012 -0.4419
 3706TIP3   OH232752   3.268   2.415   0.155 -0.0806 -0.1304  0.6466
 3706TIP3    H132753   3.305   2.426   0.067 -1.0541 -0.7452  0.1540
 3706TIP3    H232754   3.336   2.450   0.214  1.0232 -0.6780 -0.2714
 3707TIP3   OH232755   0.629   2.424   2.805  1.1678 -0.0553 -0.0232
 3707TIP3    H132756   0.699   2.389   2.860  0.1228 -1.8988  0.1994
 3707TIP3    H232757   0.549   2.386   2.840  0.3478 -0.4323 -2.1452
 3708TIP3   OH232758   1.760   0.154   0.090  0.2251 -0.6572  0.1147
 3708TIP3    H132759   1.855   0.153   0.095  0.1962 -1.2337  0.7521
 3708TIP3    H232760   1.733   0.071   0.128 -0.5084 -0.8887 -0.8538
 3709TIP3   OH232761   4.820   3.621   2.634  0.2834  0.1512 -0.9230
 3709TIP3    H132762   4.751   3.636   2.698  0.4363  0.1796 -0.7612
 3709TIP3    H232763   4.870   3.547   2.670  0.3361  0.1325 -1.0354
 3710TIP3   OH232764   5.067   4.175   7.573  0.0226 -0.4633  0.0288
 3710TIP3    H132765   5.035   4.099   7.620 -2.6014 -0.4098 -1.4819
 3710TIP3    H232766   5.014   4.248   7.606  1.7955  0.5650  0.7275
 3711TIP3   OH232767   3.059   3.561   2.015 -0.3819  0.5699 -0.3772
 3711TIP3    H132768   3.016   3.644   2.036  0.5211  0.6109  1.5176
 3711TIP3    H232769   3.090   3.573   1.925 -2.6834  1.2045 -1.1605
 3712TIP3   OH232770   3.213   0.086   2.931  0.9740 -0.1251  0.0127
 3712TIP3    H132771   3.190   0.034   3.008  1.4091 -0.3711 -0.0191
 3712TIP3    H232772   3.147   0.155   2.927  1.7581  0.7418  1.4040
 3713TIP3   OH232773   2.457   0.144   7.599 -0.5067  0.2171  0.4346
 3713TIP3    H132774   2.539   0.192   7.612 -0.7246  0.7219  0.0014
 3713TIP3    H232775   2.428   0.171   7.512 -1.1458  0.0594  0.5971
 3714TIP3   OH232776   2.903   2.725   0.979  0.6213  0.6257 -0.6752
 3714TIP3    H132777   2.915   2.631   0.974  2.3165  0.8347 -1.2328
 3714TIP3    H232778   2.957   2.752   1.054  1.2953  1.2836 -1.3740
 3715TIP3   OH232779   1.471   4.727   8.395  0.1059  0.0259  0.2766
 3715TIP3    H132780   1.519   4.810   8.391 -0.1858  0.1614 -1.2158
 3715TIP3    H232781   1.399   4.743   8.455  0.0301  0.8845 -0.0306
 3716TIP3   OH232782   3.562   4.465   8.074 -0.2386  0.1800  0.2463
 3716TIP3    H132783   3.526   4.548   8.105 -2.2849 -0.1960 -0.9326
 3716TIP3    H232784   3.557   4.470   7.979 -0.1272 -1.1927  0.1435
 3717TIP3   OH232785   6.091   6.121   1.288  0.2305  0.4557  0.0692
 3717TIP3    H132786   6.146   6.088   1.217 -1.5331  1.5759 -1.9183
 3717TIP3    H232787   6.002   6.114   1.255 -0.9083 -1.1742  3.1456
 3718TIP3   OH232788   0.347   5.234   1.763 -0.0544  0.3027  0.3437
 3718TIP3    H132789   0.258   5.259   1.741  0.1508 -0.8456 -2.1368
 3718TIP3    H232790   0.339   5.173   1.837 -1.0790  1.9595  1.6636
 3719TIP3   OH232791   2.565   1.501   8.062 -0.1839  0.2275 -0.4248
 3719TIP3    H132792   2.484   1.474   8.105 -0.2612  1.8540  0.5534
 3719TIP3    H232793   2.545   1.500   7.968 -0.5307 -1.7682 -0.3721
 3720TIP3   OH232794   5.663   4.279   0.607  0.1209  0.1397  0.3058
 3720TIP3    H132795   5.745   4.327   0.620  0.7539 -0.6436 -0.6136
 3720TIP3    H232796   5.632   4.306   0.520 -0.2785 -0.0313  0.3915
 3721TIP3   OH232797   3.734   4.041   1.336  0.1391  0.2652 -0.4003
 3721TIP3    H132798   3.770   4.106   1.397  0.0704  0.3912 -0.4912
 3721TIP3    H232799   3.778   3.959   1.358  1.4793  0.6915 -1.4076
 3722TIP3   OH232800   2.835   0.219   1.065 -0.4256  0.3123 -0.1870
 3722TIP3    H132801   2.857   0.312   1.065 -0.5440  0.4018 -2.3933
 3722TIP3    H232802   2.740   0.216   1.054 -0.6157 -0.1001  1.3434
 3723TIP3   OH232803   1.828   6.855   7.357  0.0537 -0.1785 -0.3352
 3723TIP3    H132804   1.753   6.798   7.342  0.1994 -0.1326 -1.2917
 3723TIP3    H232805   1.814   6.892   7.444 -0.8216 -0.4798 -0.3464
 3724TIP3   OH232806   1.310   5.431   7.003 -0.3726  0.1660  0.6889
 3724TIP3    H132807   1.249   5.421   7.077  0.4358  1.0974  1.5105
 3724TIP3    H232808   1.375   5.493   7.035  0.0515  0.5003 -0.7911
 3725TIP3   OH232809   1.043   6.658   0.631  0.3028 -0.4107  0.2491
 3725TIP3    H132810   1.097   6.600   0.684  1.6094  1.4166  1.0130
 3725TIP3    H232811   0.992   6.708   0.695 -0.6630 -0.5673 -0.3804
 3726TIP3   OH232812   1.527   6.566   1.249 -0.0821  0.3864 -0.2087
 3726TIP3    H132813   1.531   6.506   1.324 -3.1994  0.1460 -0.0951
 3726TIP3    H232814   1.535   6.653   1.287  0.7080  0.1823  0.1043
 3727TIP3   OH232815   2.442   1.564   1.709  0.7294 -0.3827 -0.0399
 3727TIP3    H132816   2.404   1.479   1.686 -0.5508  0.2413 -0.3083
 3727TIP3    H232817   2.407   1.624   1.643  1.9767  0.2801 -0.1163
 3728TIP3   OH232818   6.244   2.808   1.866 -0.2192 -0.0752 -0.1364
 3728TIP3    H132819   6.261   2.756   1.944  0.1733 -0.5840 -0.5550
 3728TIP3    H232820   6.277   2.895   1.888 -0.0309 -0.2369  0.2338
 3729TIP3   OH232821   1.376   1.876   1.845 -0.5954  0.5894  0.1728
 3729TIP3    H132822   1.425   1.952   1.814  0.4608 -0.7126 -1.5327
 3729TIP3    H232823   1.444   1.810   1.862 -1.5435 -0.2244  0.8722
 3730TIP3   OH232824   3.464   2.807   8.255  0.2177  0.1095 -0.4050
 3730TIP3    H132825   3.387   2.751   8.256  0.1241  0.1972  1.4850
 3730TIP3    H232826   3.536   2.751   8.283  0.6095  0.3233 -0.9664
 3731TIP3   OH232827   0.705   2.420   7.909  0.5577  0.4903  0.1587
 3731TIP3    H132828   0.791   2.394   7.942  1.0017  1.1401 -0.4263
 3731TIP3    H232829   0.715   2.418   7.813 -0.6920 -1.3662  0.0231
 3732TIP3   OH232830   3.225   3.317   8.269  0.5442  0.0344  0.5635
 3732TIP3    H132831   3.140   3.359   8.284  0.1652  0.1781 -1.6254
 3732TIP3    H232832   3.203   3.225   8.252  0.9579 -0.1739  1.1150
 3733TIP3   OH232833   4.721   3.303   1.523 -0.3340  0.5422 -0.0001
 3733TIP3    H132834   4.700   3.219   1.564 -0.1428  0.7858  0.5995
 3733TIP3    H232835   4.690   3.369   1.585 -2.1459  0.9595 -1.2594
 3734TIP3   OH232836   1.881   4.500   0.075  0.7165  0.1598  0.1398
 3734TIP3    H132837   1.803   4.548   0.047 -0.1912 -0.9235  0.7484
 3734TIP3    H232838   1.934   4.492  -0.004  0.2733  1.0224 -0.2510
 3735TIP3   OH232839   1.300   6.039   1.365  0.0172  0.4023 -0.0310
 3735TIP3    H132840   1.248   6.045   1.285  0.5427 -1.7508 -0.5761
 3735TIP3    H232841   1.237   6.057   1.435 -0.8806  0.4163 -0.8079
 3736TIP3   OH232842   3.883   2.847   2.638 -0.3241 -0.5819  0.8159
 3736TIP3    H132843   3.873   2.825   2.545  0.7322  0.5372  0.3985
 3736TIP3    H232844   3.816   2.796   2.682 -1.8388 -0.0316 -0.7283
 3737TIP3   OH232845   6.394   3.330   0.608  0.0792 -0.4206  0.8857
 3737TIP3    H132846   6.311   3.320   0.654  0.2150  1.0026  1.4739
 3737TIP3    H232847   6.379   3.290   0.522 -0.7252 -1.5231  1.5080
 3738TIP3   OH232848   3.426   5.535   8.244 -0.1341 -0.2680 -0.3575
 3738TIP3    H132849   3.419   5.530   8.149 -0.2912 -1.9690 -0.2793
 3738TIP3    H232850   3.519   5.521   8.262 -0.2174 -0.6781 -0.2328
 3739TIP3   OH232851   5.876   2.615   0.882 -1.1842 -0.3113  0.5176
 3739TIP3    H132852   5.874   2.521   0.867 -0.5176 -0.2745  0.1796
 3739TIP3    H232853   5.898   2.625   0.974  0.2321 -0.4789  0.2196
 3740TIP3   OH232854   3.523   2.370   0.705  0.0179  0.1020  0.0646
 3740TIP3    H132855   3.575   2.405   0.778  2.0562  0.9416 -1.6715
 3740TIP3    H232856   3.446   2.427   0.701  0.2403  0.4935  1.1076
 3741TIP3   OH232857   3.654   3.128   8.235  0.0627 -0.2253  0.4800
 3741TIP3    H132858   3.574   3.085   8.206  0.0317 -0.3463  0.7385
 3741TIP3    H232859   3.724   3.078   8.195  0.0301 -0.5997  0.8867
 3742TIP3   OH232860   5.465   1.388   2.454  0.3261 -0.8647  0.5938
 3742TIP3    H132861   5.446   1.331   2.528  0.5063 -1.5910  0.1020
 3742TIP3    H232862   5.515   1.460   2.490 -0.9347 -0.3894  1.4355
 3743TIP3   OH232863   4.425   2.070   8.426 -0.4446 -0.0116 -0.2591
 3743TIP3    H132864   4.344   2.077   8.475  0.4410 -0.1930  1.3000
 3743TIP3    H232865   4.485   2.023   8.484  1.5788  2.2957 -0.2547
 3744TIP3   OH232866   5.869   5.933   1.429 -0.7092  0.5404 -0.3786
 3744TIP3    H132867   5.864   5.937   1.334 -1.0267  1.1544 -0.3441
 3744TIP3    H232868   5.779   5.912   1.457 -0.0105 -3.1292 -0.3301
 3745TIP3   OH232869   0.653   2.771   1.675  0.5275 -0.0675 -0.0072
 3745TIP3    H132870   0.597   2.724   1.612 -1.8244  1.3134  0.9336
 3745TIP3    H232871   0.684   2.847   1.626  2.4215 -1.2630 -0.7979
 3746TIP3   OH232872   6.257   0.160   7.411 -0.2356  0.1130  0.0617
 3746TIP3    H132873   6.335   0.105   7.423  0.3982  0.6124 -1.4980
 3746TIP3    H232874   6.213   0.122   7.335  1.5152  3.0656 -2.6812
 3747TIP3   OH232875   5.624   2.260   0.425 -0.0797  0.1476 -0.4473
 3747TIP3    H132876   5.661   2.339   0.386  0.3437 -0.9868 -2.4810
 3747TIP3    H232877   5.697   2.198   0.429 -0.3472 -0.0937  1.3384
 3748TIP3   OH232878   0.996   3.071   0.739 -0.0354 -0.6227 -0.0453
 3748TIP3    H132879   0.901   3.059   0.742 -0.1149  0.0708  0.4864
 3748TIP3    H232880   1.031   2.982   0.742 -0.6184 -0.8552  2.6604
 3749TIP3   OH232881   5.333   3.607   2.071 -0.3349 -0.0280  0.1823
 3749TIP3    H132882   5.287   3.686   2.043  0.1900 -0.4165 -1.9969
 3749TIP3    H232883   5.373   3.631   2.155  0.8357  2.4865 -0.9618
 3750TIP3   OH232884   5.429   0.122   1.554 -0.5227  0.1840 -0.4012
 3750TIP3    H132885   5.521   0.139   1.575 -0.0186 -2.7777  0.2772
 3750TIP3    H232886   5.429   0.032   1.522 -3.0052  0.6449 -1.8959
 3751TIP3   OH232887   6.852   4.984   7.917 -0.3157 -0.2001 -0.2115
 3751TIP3    H132888   6.939   4.949   7.938 -0.2514  0.2167  0.2399
 3751TIP3    H232889   6.817   5.015   8.001 -0.6943  0.0866 -0.4691
 3752TIP3   OH232890   4.328   5.172   0.463  0.1363 -0.1036 -0.2286
 3752TIP3    H132891   4.238   5.156   0.433 -0.0102 -2.1916  1.1559
 3752TIP3    H232892   4.324   5.161   0.558  2.1241 -1.8742 -0.2842
 3753TIP3   OH232893   0.956   4.492   0.559 -0.1079  0.0705 -0.4838
 3753TIP3    H132894   1.022   4.441   0.512 -0.9585  0.1078 -1.7698
 3753TIP3    H232895   0.962   4.462   0.650  1.5991  0.0148 -0.5877
 3754TIP3   OH232896   5.730   6.236   8.169 -0.4137 -0.5662 -0.3218
 3754TIP3    H132897   5.752   6.144   8.182 -1.3743 -0.7829 -0.1981
 3754TIP3    H232898   5.811   6.276   8.138  0.2847 -1.2534  0.5620
 3755TIP3   OH232899   5.489   4.507   8.390 -0.5884 -0.1069 -0.2654
 3755TIP3    H132900   5.414   4.508   8.330 -0.8806  1.4369  0.0755
 3755TIP3    H232901   5.554   4.563   8.348 -0.9027  1.2281  0.9234
 3756TIP3   OH232902   4.296   1.621   2.395  0.2990 -0.0677 -0.2155
 3756TIP3    H132903   4.200   1.625   2.395  0.1960 -1.2298  2.3346
 3756TIP3    H232904   4.323   1.710   2.418 -0.1842  0.0335 -0.0218
 3757TIP3   OH232905   1.721   5.301   2.084  0.8469 -0.4681 -0.3135
 3757TIP3    H132906   1.711   5.298   1.989  1.9993 -1.3925 -0.4303
 3757TIP3    H232907   1.639   5.266   2.118  0.1517  0.5078 -0.9331
 3758TIP3   OH232908   0.412   2.367   7.020 -0.2999 -0.0178  0.5558
 3758TIP3    H132909   0.395   2.276   6.998 -0.3481  0.6315 -2.5726
 3758TIP3    H232910   0.368   2.417   6.951  1.0460  2.2940  1.2664
 3759TIP3   OH232911   2.153   0.040   0.333 -0.0198 -0.0624  0.0957
 3759TIP3    H132912   2.073   0.061   0.285  0.3374 -1.6453 -1.2926
 3759TIP3    H232913   2.156   0.104   0.404 -1.9784  0.6690 -0.4149
 3760TIP3   OH232914   5.943   3.830   2.188  0.4417 -0.0052 -0.4147
 3760TIP3    H132915   5.910   3.789   2.108 -0.5602  0.2985 -0.1678
 3760TIP3    H232916   6.037   3.840   2.172  0.1056  1.0520 -2.0059
 3761TIP3   OH232917   6.694   5.599   7.478 -0.0002 -0.0110 -0.1898
 3761TIP3    H132918   6.761   5.533   7.461 -0.5685  0.0326 -2.9327
 3761TIP3    H232919   6.741   5.682   7.475  0.2687 -0.1207  0.6893
 3762TIP3   OH232920   0.047   4.354   0.315  0.5130 -0.7183  0.6782
 3762TIP3    H132921   0.094   4.370   0.234 -2.1313  1.4361 -0.5687
 3762TIP3    H232922   0.042   4.258   0.321  1.4143 -0.9398 -1.2738
 3763TIP3   OH232923   5.874   0.434   0.099 -0.5648  0.3675  0.2274
 3763TIP3    H132924   5.899   0.527   0.093 -0.2299  0.1988 -1.7322
 3763TIP3    H232925   5.884   0.413   0.192  1.3611  1.7686  0.4170
 3764TIP3   OH232926   3.559   6.142   1.321  0.3240  0.5355  0.2770
 3764TIP3    H132927   3.581   6.069   1.380 -1.3340  1.8799  2.7691
 3764TIP3    H232928   3.634   6.200   1.326  0.5557  0.2303  0.3923
 3765TIP3   OH232929   0.934   2.739   1.728 -0.2176 -0.1968 -0.0866
 3765TIP3    H132930   0.948   2.799   1.801 -0.4434 -0.0533 -0.1604
 3765TIP3    H232931   0.850   2.698   1.747  0.1362 -0.8167  0.1901
 3766TIP3   OH232932   1.158   2.287   7.319 -0.1618  0.1134  0.2693
 3766TIP3    H132933   1.120   2.270   7.233 -1.9941  0.2756  1.0039
 3766TIP3    H232934   1.091   2.260   7.381 -0.1670  2.8105  1.6190
 3767TIP3   OH232935   3.268   0.275   1.397  0.1474  0.2819 -0.4648
 3767TIP3    H132936   3.229   0.244   1.315 -0.8139 -0.7967  0.3667
 3767TIP3    H232937   3.250   0.369   1.399 -0.4246  0.1943 -1.1731
 3768TIP3   OH232938   1.914   1.032   2.240 -0.4211  0.2023  0.6889
 3768TIP3    H132939   1.993   0.984   2.215  0.0691  0.7189  1.2027
 3768TIP3    H232940   1.851   0.964   2.264 -0.8933 -0.3192 -1.7803
 3769TIP3   OH232941   5.285   3.989   0.260  0.0366 -0.3903 -0.2096
 3769TIP3    H132942   5.297   3.919   0.196 -0.9113  0.9690 -1.9538
 3769TIP3    H232943   5.264   4.066   0.208  3.3338  1.8317  1.3911
 3770TIP3   OH232944   3.782   0.403   1.711  0.2297 -0.7875  0.3007
 3770TIP3    H132945   3.728   0.411   1.632  0.5188  2.1348  0.2742
 3770TIP3    H232946   3.721   0.375   1.779 -0.4951 -1.1883 -0.4910
 3771TIP3   OH232947   2.100   5.054   3.057 -0.1388  0.7940  0.0722
 3771TIP3    H132948   2.043   4.989   3.097  0.5875  0.1778  0.1210
 3771TIP3    H232949   2.165   5.003   3.009  0.2414  1.4896 -0.1711
 3772TIP3   OH232950   4.290   6.734   1.613 -1.0519 -0.1655 -0.2215
 3772TIP3    H132951   4.315   6.816   1.655 -1.3093 -0.1337 -0.1281
 3772TIP3    H232952   4.366   6.677   1.626 -0.7269  0.1745 -0.6155
 3773TIP3   OH232953   1.877   6.798   1.759 -0.4841  0.4085  0.3650
 3773TIP3    H132954   1.872   6.867   1.826  1.7901 -0.2099  1.2605
 3773TIP3    H232955   1.969   6.774   1.756 -0.7975 -0.8078 -1.8064
 3774TIP3   OH232956   0.248   1.284   7.468  0.2059 -0.5408  0.4117
 3774TIP3    H132957   0.212   1.370   7.488  0.1792 -0.1481 -1.1723
 3774TIP3    H232958   0.342   1.293   7.486  0.3957  0.2039 -0.8652
 3775TIP3   OH232959   5.213   0.755   8.495  0.3588  0.0367  0.3603
 3775TIP3    H132960   5.275   0.801   8.552  0.9666  0.1285 -0.3626
 3775TIP3    H232961   5.192   0.818   8.427  0.1838 -0.3114  0.0905
 3776TIP3   OH232962   6.408   5.305   0.762 -0.3417 -0.2797 -0.3421
 3776TIP3    H132963   6.367   5.237   0.815  0.6939 -1.0249 -0.4660
 3776TIP3    H232964   6.420   5.378   0.822 -0.9333 -0.4158 -0.0517
 3777TIP3   OH232965   0.909   3.258   1.386 -0.0664 -0.4341  0.0070
 3777TIP3    H132966   0.984   3.225   1.338 -0.0078 -0.7768  0.3246
 3777TIP3    H232967   0.896   3.347   1.354 -1.1630 -1.2436 -1.9787
 3778TIP3   OH232968   6.718   3.961   7.847  0.2562 -0.2729  0.4880
 3778TIP3    H132969   6.732   4.030   7.782  0.7834 -0.9402 -0.1229
 3778TIP3    H232970   6.644   3.993   7.900 -0.7223 -0.0617 -0.9424
 3779TIP3   OH232971   4.681   1.196   7.813  0.0062 -0.5665 -0.3300
 3779TIP3    H132972   4.703   1.276   7.766  1.8496 -2.5733 -3.2440
 3779TIP3    H232973   4.596   1.170   7.779  0.6900 -1.2679 -1.5535
 3780TIP3   OH232974   4.400   3.754   7.961 -0.8080  0.2456  0.4086
 3780TIP3    H132975   4.331   3.805   7.918 -0.0333  2.2463  1.4152
 3780TIP3    H232976   4.358   3.671   7.983 -2.5367  0.9456 -0.0765
 3781TIP3   OH232977   2.711   6.258   0.138  0.6731 -0.0055 -0.1568
 3781TIP3    H132978   2.646   6.325   0.159  1.3188  0.7988 -0.6654
 3781TIP3    H232979   2.669   6.205   0.070 -0.2195 -0.7513  0.9151
 3782TIP3   OH232980   0.793   1.199   7.732 -0.3903  0.1171  0.1425
 3782TIP3    H132981   0.810   1.271   7.672 -0.9570  1.0451  1.0692
 3782TIP3    H232982   0.737   1.139   7.683  1.1995 -0.4005 -1.1185
 3783TIP3   OH232983   0.327   6.003   6.373 -0.1246 -0.2572  1.5266
 3783TIP3    H132984   0.363   5.961   6.450  1.2740  0.7983  1.4822
 3783TIP3    H232985   0.244   6.040   6.403 -0.6039 -1.6138  1.9616
 3784TIP3   OH232986   2.892   2.226   1.652  0.0752 -0.0761 -0.0721
 3784TIP3    H132987   2.954   2.297   1.639  1.9897 -1.5995  0.2525
 3784TIP3    H232988   2.859   2.238   1.741  0.9879 -0.0162  0.2701
 3785TIP3   OH232989   4.096   3.236   7.532  0.2363 -0.0403 -0.6691
 3785TIP3    H132990   4.133   3.289   7.462  0.8925  0.8302  0.3126
 3785TIP3    H232991   4.006   3.268   7.542  1.0632  2.0213  0.9269
 3786TIP3   OH232992   5.889   2.867   2.317 -0.2794  0.0892 -0.2189
 3786TIP3    H132993   5.969   2.821   2.343  0.7475  1.9244 -0.0160
 3786TIP3    H232994   5.887   2.859   2.222 -0.2374 -0.5522 -0.1706
 3787TIP3   OH232995   0.788   2.782   8.046  0.1955  0.6853  0.2944
 3787TIP3    H132996   0.759   2.701   8.087  0.2865  1.0612  1.1169
 3787TIP3    H232997   0.770   2.850   8.111 -1.1285  1.5298 -0.9074
 3788TIP3   OH232998   0.991   6.257   0.281  0.3834 -0.2642  0.1316
 3788TIP3    H132999   1.020   6.284   0.368  0.3257  1.2941 -0.3065
 3788TIP3    H233000   0.895   6.260   0.286  0.3845  0.1402 -0.0771
 3789TIP3   OH233001   0.495   5.578   2.666 -0.2353  0.4021 -0.1216
 3789TIP3    H133002   0.426   5.629   2.710  0.6194  0.6749  0.9377
 3789TIP3    H233003   0.536   5.529   2.736 -0.2293 -0.8175 -0.9588
 3790TIP3   OH233004   2.425   6.679   1.144  0.0121 -0.3621 -0.0963
 3790TIP3    H133005   2.416   6.740   1.218  0.8640  0.4796 -0.6659
 3790TIP3    H233006   2.510   6.638   1.157  1.5932  1.9870 -2.1418
 3791TIP3   OH233007   6.325   2.073   0.008 -0.2480 -0.1742  0.1354
 3791TIP3    H133008   6.289   2.080   0.097 -0.5264 -1.2541  0.1140
 3791TIP3    H233009   6.389   2.003   0.013  1.1692  1.0620 -0.0772
 3792TIP3   OH233010   4.966   2.613   7.679  0.0450  0.1743  0.3098
 3792TIP3    H133011   4.877   2.582   7.665  0.6247 -1.9276  0.8597
 3792TIP3    H233012   4.956   2.694   7.728 -1.5609 -0.7644  1.6311
 3793TIP3   OH233013   2.243   6.356   7.404  0.4163  0.3710  0.3338
 3793TIP3    H133014   2.301   6.413   7.354  1.0791  2.8617  3.5346
 3793TIP3    H233015   2.268   6.267   7.379  0.8126  1.3532 -3.3673
 3794TIP3   OH233016   2.672   1.957   2.024 -0.5972 -0.2023 -0.2049
 3794TIP3    H133017   2.652   1.874   2.068  1.7978 -0.1816  1.0766
 3794TIP3    H233018   2.633   1.947   1.937 -0.1173 -2.8294 -0.2174
 3795TIP3   OH233019   2.010   6.645   1.256 -0.5125  0.5477 -0.2650
 3795TIP3    H133020   2.037   6.734   1.282 -1.7123  1.3873 -1.7233
 3795TIP3    H233021   1.926   6.633   1.298  0.2560 -0.4719  1.0304
 3796TIP3   OH233022   5.520   1.650   8.359  0.3818 -0.1772  0.0788
 3796TIP3    H133023   5.611   1.677   8.347  0.0353  0.3848 -1.5448
 3796TIP3    H233024   5.472   1.696   8.290 -0.3931 -4.2533 -2.4683
 3797TIP3   OH233025   2.655   0.170   1.754  0.2973  0.3981  0.2485
 3797TIP3    H133026   2.695   0.162   1.841 -1.7625  1.7542  1.4033
 3797TIP3    H233027   2.576   0.116   1.758 -0.1234  0.9233 -0.5634
 3798TIP3   OH233028   1.827   5.498   1.714 -0.3670 -0.1130  0.5518
 3798TIP3    H133029   1.764   5.445   1.762 -0.4677 -0.7800 -0.2794
 3798TIP3    H233030   1.912   5.461   1.737 -0.3745 -0.0828  0.6283
 3799TIP3   OH233031   0.743   5.220   1.278  0.0855  0.3217 -0.1826
 3799TIP3    H133032   0.827   5.216   1.233 -0.3377  0.3131 -0.9940
 3799TIP3    H233033   0.713   5.129   1.281 -0.8425  0.5508 -1.7574
 3800TIP3   OH233034   1.962   2.644   7.541 -1.0281 -0.0784 -0.5514
 3800TIP3    H133035   1.989   2.564   7.496 -1.0181 -0.3622 -0.0538
 3800TIP3    H233036   1.959   2.711   7.473  0.0558 -0.2427 -0.7738
 3801TIP3   OH233037   2.889   0.923   2.075  0.0111 -0.8398  0.2755
 3801TIP3    H133038   2.805   0.879   2.060  1.2383 -2.5788 -2.1516
 3801TIP3    H233039   2.947   0.853   2.105  1.4444 -0.4597 -1.4465
 3802TIP3   OH233040   4.466   2.690   6.888  0.0951 -0.0432  0.1890
 3802TIP3    H133041   4.488   2.630   6.959  1.8695  0.2937 -0.0401
 3802TIP3    H233042   4.451   2.633   6.812  2.1290 -0.2476 -0.1213
 3803TIP3   OH233043   2.741   2.324   7.383 -0.0336 -0.0093  0.0924
 3803TIP3    H133044   2.761   2.235   7.410  0.7349  0.3969  0.9260
 3803TIP3    H233045   2.671   2.315   7.318 -0.5556 -1.1576  0.7821
 3804TIP3   OH233046   2.933   6.060   8.231  0.6573 -0.3260 -0.4550
 3804TIP3    H133047   2.882   6.139   8.253 -0.2454 -1.3524  1.3606
 3804TIP3    H233048   2.911   6.043   8.139  0.2058  1.0402 -0.6360
 3805TIP3   OH233049   2.143   1.230   1.206  0.3897 -0.5719  0.2313
 3805TIP3    H133050   2.153   1.136   1.191  2.4964 -0.2952 -0.2903
 3805TIP3    H233051   2.099   1.236   1.292  0.8229 -2.0096  0.5760
 3806TIP3   OH233052   0.194   6.596   1.873 -0.0439  0.1271 -0.1235
 3806TIP3    H133053   0.208   6.676   1.923  0.4656  0.0666 -0.1674
 3806TIP3    H233054   0.178   6.529   1.940  0.5018  0.0730 -0.0472
 3807TIP3   OH233055   6.911   6.091   1.979  0.2141 -0.0241  0.2808
 3807TIP3    H133056   6.878   6.092   1.890  0.8825 -0.3896  0.0175
 3807TIP3    H233057   6.833   6.097   2.034 -0.2552 -0.4979 -0.3216
 3808TIP3   OH233058   0.677   2.584   1.367  0.0193  0.1913 -0.1518
 3808TIP3    H133059   0.595   2.536   1.377 -0.1701  0.7606  1.2540
 3808TIP3    H233060   0.745   2.522   1.394  0.0248 -0.1271 -0.8702
 3809TIP3   OH233061   1.477   5.861   2.183 -0.1349  0.0218 -0.3172
 3809TIP3    H133062   1.497   5.937   2.239 -0.1112 -0.0418 -0.2390
 3809TIP3    H233063   1.523   5.788   2.224 -0.0873 -0.0179 -0.4422
 3810TIP3   OH233064   1.337   3.620   2.933  0.0990  0.1714  0.3513
 3810TIP3    H133065   1.423   3.596   2.969  0.2321 -0.6800 -0.4836
 3810TIP3    H233066   1.274   3.584   2.996  0.2819 -2.8496 -0.9777
 3811TIP3   OH233067   3.473   4.652   0.046  0.7623 -0.3045 -0.0769
 3811TIP3    H133068   3.390   4.648   0.094 -1.0039 -0.5668 -2.9063
 3811TIP3    H233069   3.515   4.733   0.076  0.8762 -1.4770  3.3665
 3812TIP3   OH233070   1.297   3.002   1.831  0.1321  0.4337 -0.2978
 3812TIP3    H133071   1.257   3.086   1.811 -1.1121  0.2871  1.3120
 3812TIP3    H233072   1.339   3.015   1.916  1.0529 -0.2175 -0.6379
 3813TIP3   OH233073   3.207   1.235   2.147  0.5482 -0.1977  0.5910
 3813TIP3    H133074   3.131   1.179   2.132 -0.5159  1.0703  1.0385
 3813TIP3    H233075   3.270   1.179   2.193 -0.1420 -1.2481  0.2862
 3814TIP3   OH233076   2.674   3.117   2.101 -0.2552 -0.8795  0.0426
 3814TIP3    H133077   2.645   3.088   2.015  0.2219  0.4442 -0.6011
 3814TIP3    H233078   2.604   3.175   2.132  0.8267  0.9532 -0.7625
 3815TIP3   OH233079   6.819   6.431   7.317 -0.0078  0.1533  0.1356
 3815TIP3    H133080   6.786   6.405   7.231  0.5057  1.3318 -0.4453
 3815TIP3    H233081   6.765   6.505   7.342 -0.3628 -0.3895  0.9876
 3816TIP3   OH233082   3.529   3.809   0.040 -0.1246 -0.2555  0.1003
 3816TIP3    H133083   3.470   3.784  -0.031  0.0811  0.3217 -0.2789
 3816TIP3    H233084   3.607   3.756   0.026  0.5790  1.0496 -1.1034
 3817TIP3   OH233085   2.373   3.014   2.381  0.1152 -0.2111  0.5434
 3817TIP3    H133086   2.451   3.023   2.436  0.0621  0.8739  0.4536
 3817TIP3    H233087   2.347   2.922   2.392  1.5271 -0.6516  0.4056
 3818TIP3   OH233088   2.777   4.060   2.134  0.0392  0.1346  0.3739
 3818TIP3    H133089   2.848   4.088   2.076  0.6810 -1.4826  0.3182
 3818TIP3    H233090   2.820   4.039   2.217 -0.4099 -0.6066  0.4250
 3819TIP3   OH233091   6.390   2.479   7.110 -0.0475  0.1854  0.0740
 3819TIP3    H133092   6.312   2.426   7.095 -0.3978  1.1922 -1.9663
 3819TIP3    H233093   6.461   2.416   7.119 -0.8371 -0.6950  0.1989
 3820TIP3   OH233094   1.906   1.335   0.009  0.2725  0.4449  0.0500
 3820TIP3    H133095   1.983   1.319   0.065  0.3139  0.0473 -0.1200
 3820TIP3    H233096   1.939   1.323  -0.080 -0.0500  0.0202 -0.0116
 3821TIP3   OH233097   5.293   5.710   7.134 -0.0006 -0.0861 -1.0201
 3821TIP3    H133098   5.319   5.650   7.063  0.4582 -2.2680  0.8709
 3821TIP3    H233099   5.373   5.755   7.158  0.0266  0.0258 -1.3154
 3822TIP3   OH233100   2.697   0.587   7.900  0.2116  0.3568 -0.1536
 3822TIP3    H133101   2.711   0.499   7.866 -0.0673  0.0459  0.5182
 3822TIP3    H233102   2.670   0.638   7.824 -0.0459 -0.2385 -0.4668
 3823TIP3   OH233103   4.867   1.427   0.613  0.2638 -0.4363 -0.3733
 3823TIP3    H133104   4.954   1.392   0.595  1.2260  1.8391 -0.5044
 3823TIP3    H233105   4.837   1.378   0.690  2.4491 -0.0735  0.7931
 3824TIP3   OH233106   2.619   6.803   0.106 -0.0258 -0.1811  0.2387
 3824TIP3    H133107   2.698   6.857   0.115  0.2517 -0.5909  0.3118
 3824TIP3    H233108   2.549   6.865   0.086  0.1529  0.2775  1.0018
 3825TIP3   OH233109   4.821   6.811   8.208  0.7230  0.0944  0.1479
 3825TIP3    H133110   4.765   6.879   8.245 -0.7133 -0.2304 -1.2999
 3825TIP3    H233111   4.860   6.852   8.131 -0.8019 -0.9022 -1.2235
 3826TIP3   OH233112   1.632   1.695   1.435 -0.0219  0.2216 -0.2220
 3826TIP3    H133113   1.705   1.724   1.381 -1.5813 -1.2545 -3.3548
 3826TIP3    H233114   1.580   1.775   1.449  1.0777  0.8722  0.2762
 3827TIP3   OH233115   2.404   4.007   7.646 -0.3004 -0.0449  0.2747
 3827TIP3    H133116   2.480   3.952   7.666  0.4377  1.2408  1.2313
 3827TIP3    H233117   2.426   4.050   7.563  0.7241  1.4056  1.2378
 3828TIP3   OH233118   3.070   1.124   7.362 -0.2014 -0.3580  0.3481
 3828TIP3    H133119   3.070   1.087   7.274  0.4296 -1.3218  0.7388
 3828TIP3    H233120   2.980   1.110   7.394 -1.2014  2.2564 -1.0184
 3829TIP3   OH233121   4.667   4.404   8.511 -0.4883 -0.0799  0.2268
 3829TIP3    H133122   4.749   4.452   8.499 -1.1997  1.1333  0.0614
 3829TIP3    H233123   4.641   4.378   8.423 -0.3097 -0.4192  0.2733
 3830TIP3   OH233124   6.583   5.618   1.224 -0.1188 -0.0337  0.1875
 3830TIP3    H133125   6.568   5.532   1.263  1.9566 -0.1689  0.7889
 3830TIP3    H233126   6.599   5.676   1.298  0.1508  0.5271 -0.2997
 3831TIP3   OH233127   3.812   1.958   7.116 -0.1091 -0.0128  0.3071
 3831TIP3    H133128   3.777   2.046   7.128 -0.1909  0.1760 -1.2364
 3831TIP3    H233129   3.907   1.970   7.117 -0.1082  0.3925 -1.7946
 3832TIP3   OH233130   6.943   4.860   0.535 -0.2315 -0.1385 -0.3373
 3832TIP3    H133131   6.933   4.907   0.618 -1.3169 -1.4757  0.3230
 3832TIP3    H233132   6.978   4.775   0.560  0.5685 -0.1356 -1.3942
 3833TIP3   OH233133   1.216   6.506   0.766 -0.0241 -0.6059 -0.0447
 3833TIP3    H133134   1.210   6.473   0.856  1.1598  0.1400  0.3297
 3833TIP3    H233135   1.290   6.457   0.728  0.0805 -0.2487 -0.3029
 3834TIP3   OH233136   3.386   1.706   8.503 -0.0517  0.7539  0.6423
 3834TIP3    H133137   3.347   1.680   8.586  0.0034 -1.7200 -0.0439
 3834TIP3    H233138   3.470   1.745   8.528 -1.3678  3.0260  1.8903
 3835TIP3   OH233139   0.818   3.924   1.363  0.0798 -0.1213 -0.1204
 3835TIP3    H133140   0.838   3.953   1.274  3.5338  0.1849  0.6293
 3835TIP3    H233141   0.752   3.987   1.394 -1.1196 -0.1834 -2.3387
 3836TIP3   OH233142   4.392   3.282   0.028  0.7870  0.4649 -0.0247
 3836TIP3    H133143   4.340   3.346  -0.021 -0.1074 -0.0204  0.2708
 3836TIP3    H233144   4.405   3.322   0.114 -0.3363 -0.0113  0.3829
 3837TIP3   OH233145   0.555   4.445   2.376  0.1602 -0.3214 -0.2115
 3837TIP3    H133146   0.579   4.453   2.468 -0.3117  1.5381 -0.2075
 3837TIP3    H233147   0.614   4.506   2.331  0.1682 -0.9772 -1.1035
 3838TIP3   OH233148   1.458   6.667   7.858 -0.2082 -0.6361  0.1220
 3838TIP3    H133149   1.398   6.736   7.828 -0.0779 -0.0175  1.2039
 3838TIP3    H233150   1.479   6.617   7.780  0.0654  0.8579 -0.8122
 3839TIP3   OH233151   2.032   5.393   1.878  0.1546 -0.2918  0.0654
 3839TIP3    H133152   1.964   5.334   1.909 -1.6419  0.7359 -1.6234
 3839TIP3    H233153   2.096   5.337   1.836  0.2992 -1.2789  1.5422
 3840TIP3   OH233154   2.055   3.536   0.187  0.3510  0.4049  0.0566
 3840TIP3    H133155   2.109   3.558   0.111  0.1542 -0.7314 -0.4406
 3840TIP3    H233156   1.974   3.584   0.173 -0.3654 -1.1286 -1.3898
 3841TIP3   OH233157   0.210   6.484   8.366  0.3346  0.1669  0.1546
 3841TIP3    H133158   0.129   6.484   8.417 -0.7537  1.0673 -1.4989
 3841TIP3    H233159   0.211   6.569   8.323  2.8430  0.7218  1.1137
 3842TIP3   OH233160   1.661   0.519   0.369 -0.4389  0.0173  0.1385
 3842TIP3    H133161   1.694   0.560   0.449 -0.2414 -0.5986  0.3741
 3842TIP3    H233162   1.615   0.590   0.324  1.8376  1.0929 -0.5930
 3843TIP3   OH233163   4.014   6.210   8.332 -0.0606 -0.8001 -0.2060
 3843TIP3    H133164   4.057   6.279   8.383  0.4897 -0.8471 -0.5884
 3843TIP3    H233165   4.082   6.179   8.272  0.0648 -2.4689  0.7248
 3844TIP3   OH233166   5.116   6.095   8.200 -0.0963  0.0579  0.0355
 3844TIP3    H133167   5.190   6.125   8.253  0.5785  0.5564 -1.1384
 3844TIP3    H233168   5.132   6.134   8.114 -1.3498 -0.4273 -0.4304
 3845TIP3   OH233169   3.625   0.460   7.513  0.4565 -0.2688 -0.1351
 3845TIP3    H133170   3.598   0.371   7.536  1.9819 -0.5845  0.5305
 3845TIP3    H233171   3.615   0.464   7.418  2.5642 -1.9797 -0.5102
 3846TIP3   OH233172   6.381   1.737   0.808  0.7116  0.3206 -0.1162
 3846TIP3    H133173   6.443   1.665   0.816  0.2049 -0.2993 -1.4487
 3846TIP3    H233174   6.311   1.703   0.752  0.3686  1.7750 -0.6377
 3847TIP3   OH233175   0.287   3.540   6.685  0.1433  0.0435 -0.1167
 3847TIP3    H133176   0.375   3.557   6.718  0.1353 -0.8037  0.3608
 3847TIP3    H233177   0.229   3.583   6.748  0.1594 -0.8943  0.5588
 3848TIP3   OH233178   5.469   4.980   0.792  0.3233  0.0663 -0.0636
 3848TIP3    H133179   5.462   5.063   0.745 -1.7958  0.3243  0.5909
 3848TIP3    H233180   5.528   4.927   0.739  0.6156  1.4956 -1.2353
 3849TIP3   OH233181   0.080   5.288   0.623 -0.3889  0.4417 -0.3068
 3849TIP3    H133182   0.103   5.321   0.536 -2.1348  1.4744 -0.4260
 3849TIP3    H233183  -0.014   5.271   0.618 -0.0044 -2.5875  0.4304
 3850TIP3   OH233184   4.408   6.590   0.073 -0.0193 -0.0922  0.7624
 3850TIP3    H133185   4.320   6.627   0.083  0.0605  1.9230 -3.5975
 3850TIP3    H233186   4.397   6.496   0.088 -2.6539  0.2506  1.4302
 3851TIP3   OH233187   5.819   6.457   0.644 -0.0913 -0.0888 -0.5336
 3851TIP3    H133188   5.725   6.476   0.650  0.4230  2.8389 -0.5714
 3851TIP3    H233189   5.862   6.542   0.647  2.5243 -1.2115 -1.9808
 3852TIP3   OH233190   2.066   0.234   0.785 -0.4439  0.0846  0.1787
 3852TIP3    H133191   2.117   0.170   0.733 -1.0081  0.1381 -0.4597
 3852TIP3    H233192   2.089   0.215   0.876 -1.9946 -2.3089  0.1594
 3853TIP3   OH233193   4.265   1.271   8.413 -0.2729  0.7397  0.1610
 3853TIP3    H133194   4.344   1.220   8.429 -0.7099  0.3550  1.1924
 3853TIP3    H233195   4.202   1.207   8.378 -0.7480  0.5922  1.2412
 3854TIP3   OH233196   0.707   3.088   1.212 -0.3281  0.0901  0.1454
 3854TIP3    H133197   0.731   3.167   1.163 -2.1862  2.0710  2.1728
 3854TIP3    H233198   0.632   3.052   1.164 -0.2631  0.2863 -0.1032
 3855TIP3   OH233199   5.589   4.330   3.224  0.1623  0.0611  0.3729
 3855TIP3    H133200   5.583   4.239   3.193  0.3449  0.0862  0.2639
 3855TIP3    H233201   5.503   4.367   3.205 -0.3337 -0.4472  1.5563
 3856TIP3   OH233202   2.086   5.034   8.299 -0.4964  0.2702 -0.1869
 3856TIP3    H133203   2.100   5.083   8.380 -1.4049 -1.1694  0.8899
 3856TIP3    H233204   2.018   5.083   8.253 -1.0423  0.3181  0.6448
 3857TIP3   OH233205   6.017   1.781   0.828  0.4090 -0.3805 -0.7704
 3857TIP3    H133206   5.925   1.768   0.808  0.3743 -0.7426 -0.3855
 3857TIP3    H233207   6.020   1.865   0.874  0.1943 -0.6453 -0.2666
 3858TIP3   OH233208   0.998   6.003   8.214  0.6067  0.0540  0.5770
 3858TIP3    H133209   0.978   6.057   8.290 -0.0370  0.7597 -0.0710
 3858TIP3    H233210   1.083   6.035   8.184 -0.2753  1.5392 -0.4736
 3859TIP3   OH233211   0.180   2.289   7.878 -0.1430 -0.0702 -0.4661
 3859TIP3    H133212   0.204   2.355   7.943 -0.0280 -0.9117  0.3730
 3859TIP3    H233213   0.246   2.297   7.809 -0.2889  0.8625 -0.5086
 3860TIP3   OH233214   3.275   3.735   8.388 -0.0239 -0.5444  0.0484
 3860TIP3    H133215   3.180   3.727   8.386  0.0034 -0.8615 -0.0567
 3860TIP3    H233216   3.294   3.818   8.344 -0.3122  0.0673  1.0397
 3861TIP3   OH233217   4.148   1.143   0.498 -0.1612  0.1517  0.6342
 3861TIP3    H133218   4.232   1.126   0.455 -0.9106 -0.9603 -0.4377
 3861TIP3    H233219   4.087   1.082   0.457 -1.7440  1.6667  0.6491
 3862TIP3   OH233220   4.451   6.913   1.342 -0.1529 -0.4579  0.1199
 3862TIP3    H133221   4.433   6.904   1.436  0.0319 -1.0022  0.1067
 3862TIP3    H233222   4.422   7.002   1.321  2.0196  0.5864  1.2026
 3863TIP3   OH233223   5.891   0.731   7.607 -0.4339 -0.2199  0.3631
 3863TIP3    H133224   5.863   0.749   7.696 -2.2132 -0.7065 -0.0552
 3863TIP3    H233225   5.987   0.727   7.612 -0.3257  2.1834  1.7569
 3864TIP3   OH233226   3.418   2.567   0.344 -0.6437  0.0754  0.2347
 3864TIP3    H133227   3.502   2.528   0.367 -0.5661  0.1682  0.1032
 3864TIP3    H233228   3.438   2.659   0.326 -0.6270 -0.1026 -0.6910
 3865TIP3   OH233229   5.760   0.385   8.356  0.1854  0.4219  0.1571
 3865TIP3    H133230   5.802   0.401   8.440  0.5909 -1.1852  0.3091
 3865TIP3    H233231   5.732   0.293   8.361 -1.0025  0.6936 -0.9478
 3866TIP3   OH233232   1.810   2.293   6.862  0.1488 -0.4158  1.0391
 3866TIP3    H133233   1.714   2.301   6.867  0.0331 -0.9440  0.1185
 3866TIP3    H233234   1.824   2.199   6.847  0.6149  0.0099 -1.7814
 3867TIP3   OH233235   5.595   0.992   7.755 -0.1035  0.2541 -0.3032
 3867TIP3    H133236   5.521   1.009   7.696  0.8561 -0.7843 -1.8664
 3867TIP3    H233237   5.554   0.967   7.838 -1.6016 -2.1943 -1.6579
 3868TIP3   OH233238   6.439   5.456   0.541  0.3507  0.0161 -0.4435
 3868TIP3    H133239   6.533   5.463   0.522  0.2280  2.4262 -0.4279
 3868TIP3    H233240   6.435   5.413   0.626  1.4135 -0.5151 -0.6419
 3869TIP3   OH233241   2.327   4.671   1.976 -0.0935  0.5896 -0.5370
 3869TIP3    H133242   2.238   4.638   1.961  0.8851 -2.3654 -0.4457
 3869TIP3    H233243   2.326   4.700   2.067 -0.9136  0.4727 -0.4976
 3870TIP3   OH233244   6.747   1.269   6.434  0.7020  0.3820  0.1468
 3870TIP3    H133245   6.839   1.247   6.419  1.1311  0.6051  2.1979
 3870TIP3    H233246   6.703   1.184   6.442  1.1323  0.2483  1.2621
 3871TIP3   OH233247   6.648   1.903   7.055 -0.1163 -0.2670 -0.3342
 3871TIP3    H133248   6.701   1.899   6.975 -0.6689  2.7189 -0.9556
 3871TIP3    H233249   6.663   1.991   7.090 -3.2695  0.0720  0.4275
 3872TIP3   OH233250   0.427   1.166   1.682  0.3830 -0.1495  0.5385
 3872TIP3    H133251   0.439   1.080   1.721 -0.8452 -1.2914 -1.4572
 3872TIP3    H233252   0.497   1.172   1.616 -1.0525 -0.7699 -1.1148
 3873TIP3   OH233253   1.810   1.310   7.577  0.0422 -0.2324 -0.3518
 3873TIP3    H133254   1.830   1.240   7.639  2.3096  0.3271 -0.3796
 3873TIP3    H233255   1.892   1.357   7.566 -0.3317 -0.1376 -3.6130
 3874TIP3   OH233256   1.336   3.157   0.214 -0.0480  0.5771 -0.0786
 3874TIP3    H133257   1.344   3.220   0.286 -0.3377 -0.0850  0.5476
 3874TIP3    H233258   1.242   3.139   0.209 -0.2216  1.7685 -1.6439
 3875TIP3   OH233259   6.435   2.311   7.648  0.6558  0.6316 -0.0638
 3875TIP3    H133260   6.526   2.314   7.678  1.1060 -0.9567 -1.1476
 3875TIP3    H233261   6.442   2.314   7.552 -0.4009 -0.1279 -0.1703
 3876TIP3   OH233262   5.864   0.310   7.632  0.0687 -0.2154  0.0695
 3876TIP3    H133263   5.782   0.357   7.649  0.4769  0.3424  0.5009
 3876TIP3    H233264   5.895   0.345   7.548  1.1486  1.4143  1.1010
 3877TIP3   OH233265   6.284   1.714   0.191  0.2272 -0.1992  0.0563
 3877TIP3    H133266   6.338   1.688   0.266  0.9588 -0.9760 -0.7117
 3877TIP3    H233267   6.208   1.655   0.194  0.5317 -0.6064 -0.1208
 3878TIP3   OH233268   3.857   2.973   0.931 -0.1954 -0.1723 -0.4897
 3878TIP3    H133269   3.768   2.987   0.964 -0.6545 -0.3358 -1.6117
 3878TIP3    H233270   3.846   2.961   0.837  0.8686 -1.5186 -0.4795
 3879TIP3   OH233271   2.421   2.133   1.880  0.3475  0.2614 -0.2098
 3879TIP3    H133272   2.383   2.083   1.807 -1.0022 -1.4348  1.5565
 3879TIP3    H233273   2.346   2.159   1.933  1.3976 -0.2370  1.6126
 3880TIP3   OH233274   0.151   2.143   0.684  0.2281 -0.4923 -0.0159
 3880TIP3    H133275   0.200   2.170   0.607 -0.1244  0.8856  0.2262
 3880TIP3    H233276   0.101   2.066   0.655  0.6592 -0.4380 -0.9323
 3881TIP3   OH233277   2.821   6.149   0.618  0.3184  0.1965  0.0587
 3881TIP3    H133278   2.833   6.076   0.679 -1.9608 -1.3788 -1.2443
 3881TIP3    H233279   2.795   6.223   0.673 -1.2682 -1.0644  1.0933
 3882TIP3   OH233280   5.365   2.203   0.350 -0.3095  0.3725  0.0275
 3882TIP3    H133281   5.451   2.244   0.364  0.4945 -1.3535  0.4457
 3882TIP3    H233282   5.354   2.146   0.427 -2.6318  1.8160  0.8523
 3883TIP3   OH233283   1.796   1.260   0.669 -0.4489  0.5424  0.2286
 3883TIP3    H133284   1.848   1.339   0.686  2.0564 -0.3501 -2.5564
 3883TIP3    H233285   1.727   1.289   0.609  1.2105  0.5020 -1.7974
 3884TIP3   OH233286   2.609   1.165   2.455 -0.0799 -0.2721  0.2701
 3884TIP3    H133287   2.571   1.185   2.541 -1.8135  0.2691 -0.5636
 3884TIP3    H233288   2.569   1.081   2.431  3.2623 -2.4399  1.5395
 3885TIP3   OH233289   0.469   0.909   0.543  0.1366  1.1069 -0.0525
 3885TIP3    H133290   0.393   0.953   0.504  0.3547  2.5192  1.0256
 3885TIP3    H233291   0.545   0.954   0.505  0.3574  3.1074  2.4569
 3886TIP3   OH233292   5.024   3.612   0.506  0.5828 -0.8076  0.3130
 3886TIP3    H133293   5.093   3.587   0.445  0.4345  1.8254 -1.0660
 3886TIP3    H233294   5.033   3.707   0.516 -2.7605 -0.3335  0.1124
 3887TIP3   OH233295   6.624   1.457   6.955 -0.3854 -0.0080  0.6725
 3887TIP3    H133296   6.687   1.402   6.909 -1.8706 -0.0157 -1.4800
 3887TIP3    H233297   6.539   1.433   6.919 -1.8084 -0.4663  3.9300
 3888TIP3   OH233298   1.511   0.976   8.338 -0.4654 -0.0182 -0.0276
 3888TIP3    H133299   1.578   1.009   8.397  0.3555  0.3336 -1.1370
 3888TIP3    H233300   1.435   1.034   8.353  0.9947  2.6435 -2.0843
 3889TIP3   OH233301   6.011   3.984   2.549 -0.4091 -0.2199 -0.5756
 3889TIP3    H133302   6.089   3.995   2.604 -0.1968 -1.5360 -0.5754
 3889TIP3    H233303   5.938   3.992   2.611 -0.1829 -1.2740 -0.1322
 3890TIP3   OH233304   6.732   5.394   1.544  0.3871 -0.1405 -0.0830
 3890TIP3    H133305   6.772   5.440   1.470 -1.0658  0.0632 -0.7859
 3890TIP3    H233306   6.755   5.447   1.620  0.5542  0.5489 -0.6018
 3891TIP3   OH233307   2.492   2.847   7.007 -0.0005  0.0834 -0.0820
 3891TIP3    H133308   2.569   2.807   6.966  1.0205  0.0854  1.7678
 3891TIP3    H233309   2.525   2.925   7.050 -1.3632  1.0092 -0.6368
 3892TIP3   OH233310   5.880   2.166   0.421  0.0497 -0.1785  0.1614
 3892TIP3    H133311   5.968   2.197   0.441  0.8292 -1.8038 -0.6180
 3892TIP3    H233312   5.893   2.084   0.373 -1.8974 -2.0766  2.6067
 3893TIP3   OH233313   4.881   4.367   7.784  0.3890  0.0216  0.4379
 3893TIP3    H133314   4.887   4.419   7.704  1.6970  0.7877  0.9982
 3893TIP3    H233315   4.850   4.281   7.755 -0.5879  0.7238 -0.6735
 3894TIP3   OH233316   4.971   0.363   2.720 -0.0192  0.1043  0.6192
 3894TIP3    H133317   4.958   0.278   2.763  0.3354 -0.1448  0.2418
 3894TIP3    H233318   4.964   0.426   2.791 -0.2832 -0.2414  0.9066
 3895TIP3   OH233319   6.406   3.164   7.974 -0.3685 -0.5628  0.5097
 3895TIP3    H133320   6.316   3.191   7.989 -0.7856 -0.7206 -1.3916
 3895TIP3    H233321   6.400   3.069   7.962  0.1089 -0.6295  0.7988
 3896TIP3   OH233322   5.102   0.223   1.592  0.1087 -0.3823 -0.2402
 3896TIP3    H133323   5.172   0.176   1.545  1.2550  1.4717 -0.4995
 3896TIP3    H233324   5.143   0.250   1.674 -0.9718 -1.0404  0.5346
 3897TIP3   OH233325   3.644   1.596   0.236  0.0393 -0.2826  0.5191
 3897TIP3    H133326   3.680   1.547   0.310 -0.8942 -0.3846  0.9170
 3897TIP3    H233327   3.699   1.571   0.162  0.2575 -1.0750  0.9397
 3898TIP3   OH233328   6.021   5.375   1.766 -0.2427  0.6286  0.2653
 3898TIP3    H133329   6.104   5.420   1.748  0.6902 -1.0088  0.3263
 3898TIP3    H233330   5.981   5.362   1.680  0.7867 -0.8084 -0.0213
 3899TIP3   OH233331   0.528   4.781   8.228 -0.4051  0.0656  0.2150
 3899TIP3    H133332   0.510   4.875   8.233  0.3054  0.2065  0.2994
 3899TIP3    H233333   0.598   4.767   8.292  1.3646 -0.0223 -1.6060
 3900TIP3   OH233334   5.497   2.691   7.895 -0.1502 -0.1355 -0.2669
 3900TIP3    H133335   5.406   2.666   7.877  0.2903 -1.6671 -0.4583
 3900TIP3    H233336   5.547   2.655   7.822  0.8955 -1.3028  0.9776
 3901TIP3   OH233337   6.209   1.488   1.597 -0.0828 -0.5758 -0.0395
 3901TIP3    H133338   6.277   1.440   1.549 -0.0469  0.4170 -1.0111
 3901TIP3    H233339   6.143   1.509   1.531 -0.1404  0.6195  0.3749
 3902TIP3   OH233340   1.731   4.050   8.403 -0.1012  0.0032 -0.0035
 3902TIP3    H133341   1.652   4.083   8.447  0.5949  0.8321  0.6549
 3902TIP3    H233342   1.763   4.125   8.354  1.0618  0.1112  0.8790
 3903TIP3   OH233343   5.480   4.407   0.099  0.6716  0.1385 -0.6618
 3903TIP3    H133344   5.506   4.443   0.014  0.6544 -1.9354 -1.5932
 3903TIP3    H233345   5.545   4.340   0.118 -1.7324 -2.5275 -1.2361
 3904TIP3   OH233346   6.507   2.127   0.590 -0.2659 -0.0512  0.5304
 3904TIP3    H133347   6.546   2.096   0.672  0.4988  0.0285  0.2075
 3904TIP3    H233348   6.415   2.144   0.611 -0.2009 -0.5472  1.2326
 3905TIP3   OH233349   0.390   4.934   1.131  0.2134 -0.1868  0.3573
 3905TIP3    H133350   0.421   4.933   1.221  1.3479  1.4873  0.0504
 3905TIP3    H233351   0.451   4.878   1.084  2.0043  1.8665  0.0395
 3906TIP3   OH233352   2.155   2.773   1.105 -0.1319  0.6651 -0.1434
 3906TIP3    H133353   2.199   2.821   1.034 -0.8459 -0.0742 -1.1194
 3906TIP3    H233354   2.087   2.833   1.135 -0.6451  0.5108 -0.9641
 3907TIP3   OH233355   4.810   2.921   2.051  0.0061 -0.9211  0.0723
 3907TIP3    H133356   4.734   2.955   2.099  0.5996  0.5565  0.0251
 3907TIP3    H233357   4.882   2.977   2.080  1.2569 -2.7546  0.6849
 3908TIP3   OH233358   1.267   3.675   1.025  0.1249  0.0160  0.7102
 3908TIP3    H133359   1.254   3.668   0.931 -1.7885  1.2425  0.8109
 3908TIP3    H233360   1.333   3.610   1.046  0.6059 -0.2604 -1.4735
 3909TIP3   OH233361   5.898   3.012   0.174 -0.5481  0.5825 -0.4090
 3909TIP3    H133362   5.966   2.974   0.119 -0.0002  1.3123 -0.2557
 3909TIP3    H233363   5.929   3.101   0.193 -0.8308  0.4367  0.8681
 3910TIP3   OH233364   5.821   1.724   2.180  1.1127  0.3914  0.8529
 3910TIP3    H133365   5.890   1.704   2.118  2.4422  0.4992  2.2374
 3910TIP3    H233366   5.857   1.699   2.265 -0.5436  0.4807  1.6188
 3911TIP3   OH233367   5.305   0.607   1.167  0.0611 -1.1128 -0.0408
 3911TIP3    H133368   5.285   0.641   1.080  1.3928  0.9708  0.3757
 3911TIP3    H233369   5.319   0.686   1.220 -3.5146 -2.1643  2.8763
 3912TIP3   OH233370   2.208   3.974   2.465 -0.7113 -0.1661 -0.1399
 3912TIP3    H133371   2.237   4.009   2.549 -0.3265  1.8020 -1.0358
 3912TIP3    H233372   2.134   3.918   2.487 -1.4640  1.3178  1.4056
 3913TIP3   OH233373   4.928   5.256   2.613  0.0637 -0.1396 -0.6735
 3913TIP3    H133374   4.984   5.280   2.540 -0.6006  1.6596 -0.6390
 3913TIP3    H233375   4.858   5.322   2.613 -0.3389 -0.4984  1.1413
 3914TIP3   OH233376   3.301   2.589   8.145 -0.1630  0.3782  0.3589
 3914TIP3    H133377   3.354   2.629   8.077  1.7912 -0.1148  1.5194
 3914TIP3    H233378   3.254   2.518   8.100  0.7253  0.3604 -0.5822
 3915TIP3   OH233379   4.510   4.243   7.623  0.1278  0.2156  0.2645
 3915TIP3    H133380   4.589   4.253   7.568  0.1400  0.0172  0.2442
 3915TIP3    H233381   4.463   4.170   7.583 -1.8306  2.4799 -1.8387
 3916TIP3   OH233382   0.536   2.411   7.267 -0.3905  0.3664  0.0963
 3916TIP3    H133383   0.458   2.381   7.314 -0.5350  0.1633 -0.2719
 3916TIP3    H233384   0.515   2.398   7.175  0.1540  0.1283  0.0033
 3917TIP3   OH233385   2.802   4.759   2.843 -0.1252  0.8597 -0.6719
 3917TIP3    H133386   2.757   4.839   2.870  1.9472  1.7621  0.3341
 3917TIP3    H233387   2.794   4.701   2.919  1.6519  1.6227  0.1649
 3918TIP3   OH233388   4.261   6.598   1.910  0.1826 -0.0671 -0.8873
 3918TIP3    H133389   4.322   6.660   1.950 -0.3907  0.4645 -0.8227
 3918TIP3    H233390   4.316   6.525   1.882  0.5272 -0.8278  1.5301
 3919TIP3   OH233391   3.258   5.716   1.246  0.1111  0.6911  0.0734
 3919TIP3    H133392   3.280   5.626   1.225 -1.8102  0.1013  0.3469
 3919TIP3    H233393   3.340   5.764   1.238  0.4991 -0.2704 -4.1904
 3920TIP3   OH233394   4.358   5.958   3.190  0.0725 -0.1254 -0.0040
 3920TIP3    H133395   4.411   6.033   3.164 -0.5410  1.1545  2.2433
 3920TIP3    H233396   4.420   5.885   3.196  1.8227  1.4519  3.1487
 3921TIP3   OH233397   0.632   2.892   2.022  0.5593 -0.1066 -0.0585
 3921TIP3    H133398   0.673   2.820   2.069 -0.1262 -0.6083 -0.2232
 3921TIP3    H233399   0.578   2.936   2.088 -0.0916 -0.5722 -0.2715
 3922TIP3   OH233400   3.405   1.839   0.969  0.4214  0.3122 -0.4244
 3922TIP3    H133401   3.369   1.928   0.972 -0.4195 -0.0318  0.2460
 3922TIP3    H233402   3.378   1.805   0.884 -3.2727 -0.8568  1.0108
 3923TIP3   OH233403   5.332   2.515   1.158  0.1725 -0.9245  0.2936
 3923TIP3    H133404   5.242   2.547   1.150  0.7509  1.2493  1.4780
 3923TIP3    H233405   5.346   2.506   1.252  1.2410 -1.0283  0.1392
 3924TIP3   OH233406   2.894   2.273   2.256 -0.4633 -0.3087 -0.4281
 3924TIP3    H133407   2.809   2.279   2.212 -0.8504 -1.2554  0.1626
 3924TIP3    H233408   2.926   2.185   2.236  0.6634  0.2262 -1.1140
 3925TIP3   OH233409   5.502   1.528   0.736 -0.2336 -0.7041  0.4031
 3925TIP3    H133410   5.446   1.466   0.784 -0.8987 -1.1763 -0.9204
 3925TIP3    H233411   5.481   1.512   0.644 -1.0355  2.0579  0.0148
 3926TIP3   OH233412   5.596   6.625   7.334  0.5310 -0.0627  0.3506
 3926TIP3    H133413   5.523   6.610   7.274  0.6267  1.6974 -0.2723
 3926TIP3    H233414   5.571   6.703   7.384  1.4139 -0.2147  1.0510
 3927TIP3   OH233415   0.930   6.853   7.280  0.3501 -0.2544 -0.4351
 3927TIP3    H133416   0.897   6.774   7.322  0.0642 -0.0694 -0.3107
 3927TIP3    H233417   0.863   6.876   7.215  1.8381 -1.8916 -2.7289
 3928TIP3   OH233418   2.990   1.157   2.574 -0.2379 -0.3970 -0.4940
 3928TIP3    H133419   2.954   1.234   2.530 -3.7474 -2.1534 -1.0232
 3928TIP3    H233420   2.989   1.179   2.667 -1.7789  0.0375 -0.5876
 3929TIP3   OH233421   6.693   3.287   7.089  0.4519  0.6750 -0.0797
 3929TIP3    H133422   6.757   3.350   7.056  0.2605  0.7947 -0.2309
 3929TIP3    H233423   6.639   3.266   7.012  0.3251  0.5581  0.0409
 3930TIP3   OH233424   4.377   4.630   2.108  0.1942  0.1060  0.3986
 3930TIP3    H133425   4.307   4.630   2.172  0.3580 -1.1214  0.6047
 3930TIP3    H233426   4.384   4.539   2.080 -0.3890  0.7078 -1.9377
 3931TIP3   OH233427   6.644   2.416   2.346 -0.3084 -0.2421  0.1680
 3931TIP3    H133428   6.687   2.460   2.419 -0.3083 -0.2340  0.1630
 3931TIP3    H233429   6.708   2.420   2.275  0.3265 -1.6258  0.6209
 3932TIP3   OH233430   5.790   6.540   2.774  0.0512  0.4432  0.0613
 3932TIP3    H133431   5.861   6.598   2.801  0.1252  0.0594  0.7277
 3932TIP3    H233432   5.720   6.556   2.838  0.2824 -0.5897  0.5888
 3933TIP3   OH233433   1.753   0.921   7.438  0.6987  0.1472 -0.0930
 3933TIP3    H133434   1.819   0.970   7.486  0.1331 -0.0406  0.9072
 3933TIP3    H233435   1.760   0.831   7.472  1.2900 -0.3350 -1.4340
 3934TIP3   OH233436   0.993   6.852   7.683 -0.1318  0.6283 -0.1753
 3934TIP3    H133437   0.934   6.787   7.721 -2.4568  2.0638 -1.1035
 3934TIP3    H233438   0.945   6.935   7.689  2.2023  2.0757 -0.1540
 3935TIP3   OH233439   1.951   0.471   0.466 -0.3479  0.5813 -0.4361
 3935TIP3    H133440   1.862   0.468   0.431 -0.4981 -0.4452 -0.0248
 3935TIP3    H233441   1.992   0.547   0.424 -1.4105  1.0584 -0.6313
 3936TIP3   OH233442   3.617   6.197   0.940 -0.5967 -0.1260  0.1457
 3936TIP3    H133443   3.628   6.150   0.858 -2.6296  0.8397 -0.7518
 3936TIP3    H233444   3.534   6.164   0.975 -1.4050  1.8060  0.1347
 3937TIP3   OH233445   2.150   6.809   1.825  0.5787  0.1781  0.1798
 3937TIP3    H133446   2.168   6.823   1.918 -1.9883  1.0409  0.6328
 3937TIP3    H233447   2.165   6.895   1.785  3.7669 -0.6544 -0.7048
 3938TIP3   OH233448   4.547   3.624   3.237  0.1255 -0.3471  0.2947
 3938TIP3    H133449   4.569   3.565   3.164 -0.8664  0.1237 -0.4054
 3938TIP3    H233450   4.568   3.573   3.316 -1.3654 -1.9193 -0.2747
 3939TIP3   OH233451   2.918   2.443   0.932  0.0971  0.0806  0.0574
 3939TIP3    H133452   2.995   2.437   0.876 -0.0082  0.0616 -0.0876
 3939TIP3    H233453   2.862   2.370   0.903  0.1699 -0.1053  0.3822
 3940TIP3   OH233454   5.161   5.334   2.735  0.0716 -0.7059 -0.1479
 3940TIP3    H133455   5.072   5.315   2.707  0.1873 -2.4318  0.5153
 3940TIP3    H233456   5.214   5.265   2.695  0.6328 -1.5258  1.8464
 3941TIP3   OH233457   3.250   1.544   2.536  0.7861 -0.1906  0.8576
 3941TIP3    H133458   3.287   1.629   2.511  1.1142 -0.2488  1.1350
 3941TIP3    H233459   3.285   1.482   2.472  0.5152 -0.1126  0.6313
 3942TIP3   OH233460   5.237   2.661   0.320 -0.2016  0.6549 -0.0571
 3942TIP3    H133461   5.246   2.600   0.247  0.2076 -0.8706  1.2055
 3942TIP3    H233462   5.322   2.658   0.364 -1.0039  0.0971  1.5256
 3943TIP3   OH233463   6.153   4.300   8.073 -0.5536  0.4069  0.3194
 3943TIP3    H133464   6.115   4.290   7.986 -2.3149  1.2133  0.9369
 3943TIP3    H233465   6.219   4.369   8.063  1.3880 -1.4936 -0.9274
 3944TIP3   OH233466   4.964   1.901   1.182 -0.0380  0.4757 -0.0268
 3944TIP3    H133467   5.054   1.883   1.209 -0.2121 -2.8223 -1.2024
 3944TIP3    H233468   4.911   1.886   1.261  0.2042 -0.8495 -0.0886
 3945TIP3   OH233469   0.631   0.068   0.899  0.5981  0.1815 -0.5124
 3945TIP3    H133470   0.698   0.047   0.965  1.5666  4.4273  0.2028
 3945TIP3    H233471   0.548   0.045   0.941  1.3956 -2.0033 -0.0102
 3946TIP3   OH233472   5.185   6.117   0.421  0.1628  0.1345  0.0986
 3946TIP3    H133473   5.170   6.134   0.514 -0.8248 -0.3749  0.0483
 3946TIP3    H233474   5.125   6.176   0.375 -0.4527 -0.6724 -0.1616
 3947TIP3   OH233475   4.717   2.186   0.545  0.4948  0.2697 -0.2751
 3947TIP3    H133476   4.756   2.151   0.465  0.2613  1.4963 -0.9324
 3947TIP3    H233477   4.789   2.183   0.609  0.3878 -1.7234 -0.1884
 3948TIP3   OH233478   1.212   3.869   8.079  0.5195 -0.2098  0.6769
 3948TIP3    H133479   1.196   3.803   8.011 -0.6025  0.7103 -0.0016
 3948TIP3    H233480   1.307   3.883   8.077  0.4488  0.3701 -1.3151
 3949TIP3   OH233481   3.564   6.018   0.367 -0.1392  0.0746 -0.1091
 3949TIP3    H133482   3.541   5.943   0.313  1.3002 -0.0156 -0.6301
 3949TIP3    H233483   3.550   5.989   0.457 -1.7663 -0.0416 -0.3726
 3950TIP3   OH233484   0.860   5.619   1.702 -0.7909  0.3444  0.8576
 3950TIP3    H133485   0.851   5.665   1.785 -1.5534  0.5849  0.6435
 3950TIP3    H233486   0.912   5.678   1.648  0.8707 -0.3875  1.5859
 3951TIP3   OH233487   2.839   1.445   1.157  0.0365  0.0536  0.1924
 3951TIP3    H133488   2.869   1.354   1.157 -1.3726 -0.5712  3.6602
 3951TIP3    H233489   2.750   1.440   1.122  0.4326  0.3505 -0.8859
 3952TIP3   OH233490   1.905   1.966   3.013  0.6251  0.4372  0.3924
 3952TIP3    H133491   1.892   1.968   3.108  0.7433 -0.2534  0.4268
 3952TIP3    H233492   1.870   1.882   2.985  2.0561 -0.0771  0.0541
 3953TIP3   OH233493   0.033   6.204   1.524 -0.5356  0.3198 -0.2348
 3953TIP3    H133494   0.013   6.295   1.503 -2.5417 -0.1131 -0.4061
 3953TIP3    H233495   0.075   6.170   1.445 -0.2511  0.9416 -0.3596
 3954TIP3   OH233496   4.499   6.220   7.617 -0.5833  0.9014  0.1193
 3954TIP3    H133497   4.571   6.205   7.555 -0.4657 -1.1988  0.7085
 3954TIP3    H233498   4.429   6.162   7.588 -0.7630  0.3657  1.5455
 3955TIP3   OH233499   2.641   2.623   7.735 -0.0927 -0.1556  0.4982
 3955TIP3    H133500   2.661   2.707   7.693  0.4954 -0.2143  0.6440
 3955TIP3    H233501   2.546   2.617   7.734 -0.0869 -0.2954 -1.1039
 3956TIP3   OH233502   2.724   1.656   8.221  0.1908  0.5766 -0.2034
 3956TIP3    H133503   2.692   1.630   8.307  0.7610  0.0517 -0.1436
 3956TIP3    H233504   2.667   1.609   8.159 -0.3711  1.1377 -0.1260
 3957TIP3   OH233505   2.164   0.166   7.682  0.4592 -0.6441  0.2840
 3957TIP3    H133506   2.181   0.106   7.610 -1.2196  0.9008 -1.5256
 3957TIP3    H233507   2.092   0.221   7.651  0.7009  1.1127  2.5502
 3958TIP3   OH233508   5.372   1.793   0.085  0.0801  0.2329  0.0158
 3958TIP3    H133509   5.334   1.881   0.089 -0.3970  0.0592 -0.5350
 3958TIP3    H233510   5.433   1.797   0.011  0.2968  0.1882  0.1913
 3959TIP3   OH233511   0.101   4.040   1.945 -0.0707  0.1141 -0.0575
 3959TIP3    H133512   0.149   4.115   1.910 -0.3912  0.4986  0.3234
 3959TIP3    H233513   0.015   4.045   1.904 -0.3547  0.4078  0.5662
 3960TIP3   OH233514   2.859   6.681   2.526 -0.3553 -0.1636 -0.3287
 3960TIP3    H133515   2.825   6.620   2.592 -1.6494 -0.2384 -1.0173
 3960TIP3    H233516   2.797   6.673   2.454  0.2475  0.9605 -0.9819
 3961TIP3   OH233517   6.156   0.520   1.534 -0.6492  0.1123 -0.0953
 3961TIP3    H133518   6.175   0.427   1.537  0.6532  0.3224 -0.7652
 3961TIP3    H233519   6.240   0.561   1.511 -1.5917  1.2801 -1.7210
 3962TIP3   OH233520   4.266   3.104   0.228 -0.0411 -0.3797 -0.0996
 3962TIP3    H133521   4.203   3.089   0.298  1.2247 -1.1087  0.9197
 3962TIP3    H233522   4.253   3.196   0.203 -0.6946 -0.1859  0.8959
 3963TIP3   OH233523   1.475   5.763   8.453 -0.3633  0.1957 -0.0032
 3963TIP3    H133524   1.476   5.812   8.371  0.7168 -1.2248 -0.8865
 3963TIP3    H233525   1.449   5.674   8.428  2.3641 -0.9249  0.7088
 3964TIP3   OH233526   2.160   2.527   8.155 -0.0175 -0.1820  0.0135
 3964TIP3    H133527   2.163   2.513   8.060 -0.7042 -1.5498  0.1681
 3964TIP3    H233528   2.226   2.594   8.172 -0.5929  0.8431 -1.5515
 3965TIP3   OH233529   5.283   3.838   1.153  0.1437 -0.0302  0.2442
 3965TIP3    H133530   5.291   3.744   1.171  0.5706 -0.3193 -1.2872
 3965TIP3    H233531   5.218   3.843   1.082  2.5656  0.4730 -2.1043
 3966TIP3   OH233532   4.301   0.780   7.057 -0.7130  0.2346 -0.2739
 3966TIP3    H133533   4.254   0.739   7.129  1.5348 -1.0357  0.5714
 3966TIP3    H233534   4.390   0.744   7.062 -0.7494 -0.9925 -4.5074
 3967TIP3   OH233535   5.765   1.134   6.362 -0.0142  0.0856  0.2096
 3967TIP3    H133536   5.769   1.071   6.290  0.3900  1.6434 -1.1881
 3967TIP3    H233537   5.676   1.168   6.359 -0.6670 -1.2904  1.8193
 3968TIP3   OH233538   6.840   6.103   1.726 -0.0785 -0.3376 -0.1329
 3968TIP3    H133539   6.892   6.133   1.651  0.5947 -0.8424  0.1172
 3968TIP3    H233540   6.779   6.039   1.690 -0.0847 -0.2200 -0.3305
 3969TIP3   OH233541   4.272   3.335   0.800 -0.9643  0.1747 -0.2720
 3969TIP3    H133542   4.179   3.332   0.823 -0.6250 -1.5667  1.0900
 3969TIP3    H233543   4.281   3.275   0.726 -0.9166  0.2914 -0.3614
 3970TIP3   OH233544   0.345   2.544   2.461  0.2240  0.4204 -0.2451
 3970TIP3    H133545   0.336   2.534   2.556 -3.1071 -0.3897 -0.5026
 3970TIP3    H233546   0.332   2.638   2.446  0.2425  0.4755  0.0756
 3971TIP3   OH233547   3.309   3.425   0.529  0.1919  0.2655 -0.1119
 3971TIP3    H133548   3.277   3.336   0.547  1.3655 -0.4485 -1.3609
 3971TIP3    H233549   3.386   3.435   0.585  1.3017 -0.3400 -1.4571
 3972TIP3   OH233550   2.257   3.182   1.034 -0.2716 -0.2715 -0.1225
 3972TIP3    H133551   2.274   3.238   1.109 -0.2185 -1.0422  0.4492
 3972TIP3    H233552   2.317   3.213   0.966  0.7043 -0.5066  0.6234
 3973TIP3   OH233553   4.891   5.401   1.127 -0.0605 -0.2907 -0.4373
 3973TIP3    H133554   4.863   5.310   1.129  0.9583 -0.6227  1.6973
 3973TIP3    H233555   4.832   5.443   1.064 -1.1307 -2.2139 -0.7933
 3974TIP3   OH233556   0.934   0.043   2.125 -0.3115  0.2379 -0.2312
 3974TIP3    H133557   0.993  -0.011   2.178  0.6127  1.4914  0.0477
 3974TIP3    H233558   0.899  -0.018   2.059  0.2543 -0.8236  0.4191
 3975TIP3   OH233559   5.313   1.020   1.730 -0.3638  0.1125  0.2486
 3975TIP3    H133560   5.260   1.100   1.737 -0.8283 -0.0361 -1.3134
 3975TIP3    H233561   5.365   1.019   1.811 -0.0500  2.2016  0.1316
 3976TIP3   OH233562   1.674   4.961   0.113  0.1348  0.0051 -0.2163
 3976TIP3    H133563   1.655   4.904   0.187 -0.0513 -0.1330 -0.3694
 3976TIP3    H233564   1.707   5.042   0.152  3.2914 -1.2144 -0.0368
 3977TIP3   OH233565   4.122   0.052   7.831  0.0666  0.3672 -0.1637
 3977TIP3    H133566   4.070  -0.013   7.783  0.0478  1.1718 -1.2953
 3977TIP3    H233567   4.113   0.132   7.778  0.6671  1.0933  0.8127
 3978TIP3   OH233568   1.051   6.098   7.597  0.3204  0.2488 -0.1872
 3978TIP3    H133569   1.031   6.058   7.681 -0.5202 -2.2376 -1.4869
 3978TIP3    H233570   1.139   6.066   7.576  0.0789 -0.0391 -0.7589
 3979TIP3   OH233571   3.264   6.603   1.006 -0.3197  0.1581  0.1548
 3979TIP3    H133572   3.313   6.636   0.930  2.9539  0.7542  2.2893
 3979TIP3    H233573   3.232   6.682   1.049  2.4355  0.3380  2.1066
 3980TIP3   OH233574   0.033   5.635   7.954  0.5971  0.0698 -0.0472
 3980TIP3    H133575   0.039   5.693   8.029 -0.3777  0.0719  0.0480
 3980TIP3    H233576  -0.061   5.619   7.944  0.8268 -1.3045 -0.2140
 3981TIP3   OH233577   3.997   3.805   0.791 -0.2469 -0.0331  0.0504
 3981TIP3    H133578   4.003   3.816   0.885  0.5380  0.8275 -0.0822
 3981TIP3    H233579   4.050   3.877   0.755 -1.7748  0.5620 -1.0856
 3982TIP3   OH233580   1.734   3.606   1.346 -0.2034 -0.0441  0.3353
 3982TIP3    H133581   1.742   3.641   1.257 -0.4601  0.3149  0.4508
 3982TIP3    H233582   1.792   3.529   1.347 -0.0611  0.0548 -0.0853
 3983TIP3   OH233583   2.072   0.689   0.333 -0.0569  0.7237  0.3840
 3983TIP3    H133584   2.037   0.777   0.348 -0.0358  0.8700 -0.3974
 3983TIP3    H233585   2.166   0.696   0.352  0.0515  1.0181 -0.2305
 3984TIP3   OH233586   3.863   2.252   0.717  0.0147  0.8462  0.2847
 3984TIP3    H133587   3.938   2.301   0.684  0.8091  0.6053  1.6548
 3984TIP3    H233588   3.831   2.303   0.791  0.5739 -0.4054  1.4529
 3985TIP3   OH233589   1.639   3.270   8.263  0.4245 -0.5489  0.0357
 3985TIP3    H133590   1.720   3.294   8.219  0.1705  1.7795  0.7173
 3985TIP3    H233591   1.580   3.244   8.193  0.7765  0.8131 -0.7990
 3986TIP3   OH233592   6.218   2.549   0.525  0.0372  0.4830  0.0134
 3986TIP3    H133593   6.190   2.587   0.608  1.5400  1.2556  0.1906
 3986TIP3    H233594   6.267   2.619   0.481  3.3240 -1.2738  0.5504
 3987TIP3   OH233595   3.962   1.474   0.858  0.1684  0.2334 -0.6052
 3987TIP3    H133596   3.920   1.560   0.866  1.1329  0.9333 -2.4356
 3987TIP3    H233597   4.050   1.494   0.827  0.4488 -1.4115 -0.9229
 3988TIP3   OH233598   3.768   4.999   2.220  0.4932 -0.9196  0.0871
 3988TIP3    H133599   3.818   5.059   2.276 -0.2553 -0.8626  0.7121
 3988TIP3    H233600   3.757   5.046   2.138  0.3869 -0.4184  0.3860
 3989TIP3   OH233601   6.835   3.945   0.444 -0.2730  0.4265  0.3675
 3989TIP3    H133602   6.799   4.019   0.494 -2.0860 -0.1800  0.0407
 3989TIP3    H233603   6.871   3.984   0.365  0.4939  1.1465  1.0524
 3990TIP3   OH233604   3.728   1.206   0.545 -0.0498  0.7407  0.6017
 3990TIP3    H133605   3.661   1.206   0.613  1.8984  0.5379  2.6430
 3990TIP3    H233606   3.811   1.213   0.593  1.5093 -0.6686 -1.6719
 3991TIP3   OH233607   6.622   3.191   7.576 -0.4594 -0.1888 -0.2861
 3991TIP3    H133608   6.537   3.156   7.605 -0.0993 -0.6822  0.1780
 3991TIP3    H233609   6.603   3.229   7.490 -1.0374 -0.7838 -0.4347
 3992TIP3   OH233610   1.858   5.739   8.076 -0.0663 -0.1236 -0.5244
 3992TIP3    H133611   1.780   5.683   8.069  0.0635 -0.5876  1.3478
 3992TIP3    H233612   1.859   5.767   8.167  2.7708 -1.3401 -0.0735
 3993TIP3   OH233613   3.176   3.333   7.053 -0.1467  0.9550 -0.1750
 3993TIP3    H133614   3.255   3.311   7.003  1.3022 -0.4006  2.4609
 3993TIP3    H233615   3.138   3.248   7.075 -0.5697  1.4737  1.1780
 3994TIP3   OH233616   5.354   6.254   8.282  0.1654  0.5702  0.5492
 3994TIP3    H133617   5.375   6.348   8.288 -2.3789  1.1691  1.0102
 3994TIP3    H233618   5.390   6.217   8.362  0.7484  1.2474  0.6124
 3995TIP3   OH233619   2.838   6.336   7.467 -0.9689 -0.0368  0.1121
 3995TIP3    H133620   2.827   6.278   7.542  1.0743 -0.2198  0.3198
 3995TIP3    H233621   2.837   6.278   7.391 -3.9571  0.2350 -0.1729
 3996TIP3   OH233622   5.882   1.449   2.058 -0.1915 -0.1985  0.4692
 3996TIP3    H133623   5.873   1.375   1.999 -0.5799 -0.2598  0.6040
 3996TIP3    H233624   5.826   1.517   2.022  1.2242  0.5380 -0.4297
 3997TIP3   OH233625   5.709   5.250   2.675  0.1598  0.3737 -0.5531
 3997TIP3    H133626   5.650   5.240   2.750  0.0086  1.2924 -0.5334
 3997TIP3    H233627   5.775   5.183   2.688  0.2001  0.5880  0.4779
 3998TIP3   OH233628   0.648   4.174   1.643 -0.1203 -0.3463 -0.2113
 3998TIP3    H133629   0.588   4.125   1.587 -0.5812 -1.9635  1.5855
 3998TIP3    H233630   0.728   4.121   1.645 -0.0255 -0.1945  0.4256
 3999TIP3   OH233631   5.521   1.888   7.781  0.7761  0.1808 -0.0610
 3999TIP3    H133632   5.441   1.846   7.813  1.5369 -1.4213 -0.1505
 3999TIP3    H233633   5.513   1.980   7.807 -1.7198  0.3850 -1.3171
 4000TIP3   OH233634   4.125   4.493   1.948 -0.0406 -0.4029  0.0280
 4000TIP3    H133635   4.140   4.521   1.858  0.6598 -1.1465 -0.0970
 4000TIP3    H233636   4.208   4.455   1.976 -0.6726 -1.5196  0.4804
 4001TIP3   OH233637   2.639   1.024   0.074 -0.3599  0.2957 -0.0818
 4001TIP3    H133638   2.568   1.020   0.137  0.1793  1.1147  0.6029
 4001TIP3    H233639   2.629   0.945   0.021 -1.4736  0.1545  0.3169
 4002TIP3   OH233640   4.980   1.515   1.451  0.9369  0.0914 -0.3080
 4002TIP3    H133641   5.045   1.494   1.385  1.7927 -0.8633  0.8003
 4002TIP3    H233642   5.010   1.598   1.488  0.8203  0.2921 -0.6601
 4003TIP3   OH233643   4.687   4.882   3.018  0.5662  0.0615 -0.5955
 4003TIP3    H133644   4.720   4.801   2.978 -0.7987 -0.8507  0.0562
 4003TIP3    H233645   4.624   4.853   3.084 -1.8908  1.7225 -2.0720
 4004TIP3   OH233646   2.997   0.648   7.968 -0.4615 -0.3952  0.2779
 4004TIP3    H133647   3.062   0.581   7.950  0.6074  0.3911  1.0777
 4004TIP3    H233648   2.914   0.600   7.975  0.5107 -1.8802  2.5542
 4005TIP3   OH233649   3.544   5.810   0.207 -0.0750 -0.1894 -0.0134
 4005TIP3    H133650   3.460   5.807   0.162  0.3078 -0.4065 -0.7197
 4005TIP3    H233651   3.608   5.783   0.142  1.2000  4.3964 -1.0213
 4006TIP3   OH233652   4.377   3.699   2.596 -0.0368  0.4216 -0.3663
 4006TIP3    H133653   4.353   3.790   2.616  1.4935  0.5780  0.9900
 4006TIP3    H233654   4.451   3.681   2.654 -0.0046 -1.5506 -0.9609
 4007TIP3   OH233655   0.478   0.606   7.551 -0.2814  0.3226  0.4059
 4007TIP3    H133656   0.472   0.698   7.577  1.2681  0.9200 -1.1816
 4007TIP3    H233657   0.406   0.593   7.490 -0.3876  0.5214  0.4876
 4008TIP3   OH233658   1.314   1.785   8.405  0.1611  0.4632  0.3176
 4008TIP3    H133659   1.386   1.842   8.377  1.1948  0.0536  2.0064
 4008TIP3    H233660   1.353   1.697   8.409 -0.4228  0.2324  1.2509
 4009TIP3   OH233661   3.345   0.555   8.019 -0.1401 -0.7525  0.0976
 4009TIP3    H133662   3.370   0.567   7.928 -1.1010  0.5274 -0.0147
 4009TIP3    H233663   3.316   0.463   8.024  3.2994 -1.9705 -0.0076
 4010TIP3   OH233664   3.610   2.930   0.140  0.3626  0.0455  0.3910
 4010TIP3    H133665   3.642   2.936   0.230 -0.3240  0.0382  0.6373
 4010TIP3    H233666   3.587   2.838   0.129  0.8920 -0.0516  0.0471
 4011TIP3   OH233667   1.640   3.287   7.965  0.1494 -0.2048  0.6423
 4011TIP3    H133668   1.555   3.243   7.963  0.5138 -0.9024 -0.9809
 4011TIP3    H233669   1.620   3.379   7.951 -0.4277 -0.1621  1.6423
 4012TIP3   OH233670   5.684   1.937   8.203 -0.1275  0.3412  0.2266
 4012TIP3    H133671   5.716   1.885   8.277 -1.0892  0.3546  0.6782
 4012TIP3    H233672   5.629   1.877   8.153 -1.0804  0.8281  0.6408
 4013TIP3   OH233673   2.086   2.485   8.410  0.2318 -0.2630  0.2497
 4013TIP3    H133674   2.166   2.525   8.443  1.2830 -3.7545  2.5180
 4013TIP3    H233675   2.108   2.455   8.322  0.3044  1.5068 -0.3743
 4014TIP3   OH233676   4.687   1.830   1.954  0.5532 -0.4551 -0.0135
 4014TIP3    H133677   4.751   1.899   1.963  0.0078 -0.1650  2.1941
 4014TIP3    H233678   4.696   1.778   2.034  1.1826 -3.1970 -1.7241
 4015TIP3   OH233679   0.061   5.963   0.865 -0.2603  0.5379  0.6479
 4015TIP3    H133680  -0.006   5.901   0.838  1.9890 -1.4529 -0.7274
 4015TIP3    H233681   0.091   6.004   0.783  1.1838  0.3038  1.0271
 4016TIP3   OH233682   5.827   3.030   0.995  0.0214  0.1182  0.0014
 4016TIP3    H133683   5.772   2.957   0.966  1.1170 -0.0190 -1.8622
 4016TIP3    H233684   5.878   2.994   1.068  2.2235 -1.7949 -2.3175
 4017TIP3   OH233685   6.725   2.774   7.504  0.1653 -0.2650 -0.0320
 4017TIP3    H133686   6.809   2.818   7.495  0.1375 -0.2926 -0.4401
 4017TIP3    H233687   6.718   2.754   7.598  0.2731  0.3995  0.1192
 4018TIP3   OH233688   5.543   4.366   7.843 -0.0888  0.4693 -0.3335
 4018TIP3    H133689   5.529   4.279   7.807  1.4814 -0.0362  0.1716
 4018TIP3    H233690   5.483   4.423   7.794 -0.4081 -0.7249 -1.3762
 4019TIP3   OH233691   3.300   0.187   0.603  0.0554  0.3355 -0.6065
 4019TIP3    H133692   3.218   0.139   0.608  0.0640  0.1867 -1.6802
 4019TIP3    H233693   3.275   0.276   0.578  0.1837  0.3938 -0.5295
 4020TIP3   OH233694   5.193   1.647   0.637 -0.2670  0.4243  0.2572
 4020TIP3    H133695   5.242   1.579   0.591 -1.3089  0.1739 -0.5379
 4020TIP3    H233696   5.258   1.692   0.691  1.3094  1.5039 -2.3166
 4021TIP3   OH233697   0.700   3.606   7.137 -0.0804  0.9433  0.4732
 4021TIP3    H133698   0.742   3.527   7.170 -0.4445  0.8370  0.6845
 4021TIP3    H233699   0.676   3.656   7.215 -0.7507  0.7906  0.3644
 4022TIP3   OH233700   4.449   3.370   1.039  0.1268  0.2081 -0.2427
 4022TIP3    H133701   4.411   3.384   0.952 -0.4824 -1.1457 -0.2297
 4022TIP3    H233702   4.437   3.276   1.054  0.7581  0.3273  1.0616
 4023TIP3   OH233703   2.120   1.401   7.131  0.0535 -0.9371 -0.3285
 4023TIP3    H133704   2.209   1.379   7.106  1.1039  0.6752  1.7179
 4023TIP3    H233705   2.086   1.321   7.173  0.3932 -1.6417 -1.3589
 4024TIP3   OH233706   5.949   5.371   8.388  0.2982 -0.4492  0.1406
 4024TIP3    H133707   5.971   5.284   8.421  0.5604 -0.4527 -0.0404
 4024TIP3    H233708   5.862   5.361   8.348 -0.9065 -0.0213  2.5081
 4025TIP3   OH233709   3.621   4.889   0.150  1.1556  0.1554 -0.4890
 4025TIP3    H133710   3.622   4.983   0.134  0.4206  0.2945  0.2511
 4025TIP3    H233711   3.692   4.874   0.213  1.1069  0.2453 -0.4135
 4026TIP3   OH233712   4.080   3.406   8.134  0.0753 -0.0315 -0.3555
 4026TIP3    H133713   4.031   3.389   8.054  0.2717 -0.0161 -0.4811
 4026TIP3    H233714   4.062   3.331   8.189 -0.0166 -0.0694 -0.4361
 4027TIP3   OH233715   3.884   4.973   8.298 -0.3153  0.4274 -0.1948
 4027TIP3    H133716   3.870   4.909   8.368  0.2876  1.7112  1.1659
 4027TIP3    H233717   3.858   4.928   8.218 -0.6310 -1.2428  0.8044
 4028TIP3   OH233718   1.640   5.682   0.247  0.1442 -0.7931  0.1419
 4028TIP3    H133719   1.569   5.736   0.213  1.1548  0.2407 -0.4103
 4028TIP3    H233720   1.633   5.599   0.200 -1.0614 -0.9382  0.5569
 4029TIP3   OH233721   2.652   1.039   6.965 -0.1099  0.6554  0.0160
 4029TIP3    H133722   2.714   1.072   7.030  2.7756 -0.0492 -2.1465
 4029TIP3    H233723   2.609   0.965   7.008  0.3001  1.3818  1.7297
 4030TIP3   OH233724   0.230   4.927   0.193  0.1968  0.2867 -0.1317
 4030TIP3    H133725   0.291   4.993   0.158  0.8678 -0.0683  0.3348
 4030TIP3    H233726   0.196   4.882   0.116  0.6199  0.4192 -0.3989
 4031TIP3   OH233727   1.573   0.723   7.282 -0.0286  0.0964 -0.1251
 4031TIP3    H133728   1.560   0.636   7.244  0.6590  0.1835 -0.5894
 4031TIP3    H233729   1.639   0.710   7.349 -2.3147 -0.3384  2.1884
 4032TIP3   OH233730   2.351   6.194   0.192 -0.5766 -0.0724 -0.2546
 4032TIP3    H133731   2.327   6.120   0.137  0.1781  0.6127 -1.5524
 4032TIP3    H233732   2.270   6.219   0.236 -1.1173 -0.8488 -0.7939
 4033TIP3   OH233733   4.792   1.251   0.859  0.6396 -0.4593 -0.3196
 4033TIP3    H133734   4.811   1.324   0.918  0.5464  0.3529 -1.2557
 4033TIP3    H233735   4.705   1.221   0.883 -0.3461  1.3150 -1.4357
 4034TIP3   OH233736   1.399   3.003   2.086 -0.5777  0.5125 -0.3547
 4034TIP3    H133737   1.490   3.000   2.114 -0.6528  0.8570 -0.0692
 4034TIP3    H233738   1.360   3.073   2.138 -1.0808  0.1686 -0.2590
 4035TIP3   OH233739   6.344   5.522   7.937 -0.0597  0.7752  0.2498
 4035TIP3    H133740   6.351   5.534   7.843 -1.8408 -1.2800 -0.2168
 4035TIP3    H233741   6.425   5.477   7.962 -1.4500 -2.9465 -1.2149
 4036TIP3   OH233742   4.158   6.488   8.207  0.6089  0.0400  0.2095
 4036TIP3    H133743   4.250   6.482   8.232  1.6014  0.7505 -2.8198
 4036TIP3    H233744   4.110   6.456   8.283  3.2763  0.6941  2.3154
 4037TIP3   OH233745   6.569   1.567   0.684 -0.6538 -0.2688 -0.3170
 4037TIP3    H133746   6.645   1.540   0.632 -0.4837  1.9196 -1.2985
 4037TIP3    H233747   6.498   1.577   0.621 -1.0377  0.3033  0.1893
 4038TIP3   OH233748   3.720   0.711   8.030 -0.5629  0.6147  0.1993
 4038TIP3    H133749   3.806   0.677   8.005 -1.0116  0.2029 -0.8715
 4038TIP3    H233750   3.658   0.655   7.983 -1.4060  1.1464  0.6509
 4039TIP3   OH233751   2.620   2.212   2.111  0.2446 -0.2334  0.9421
 4039TIP3    H133752   2.646   2.126   2.078  1.4506 -0.3344  2.0550
 4039TIP3    H233753   2.552   2.194   2.176  0.3599 -0.3375  1.0346
 4040TIP3   OH233754   2.652   0.718   0.757  0.4240  0.3941  0.0144
 4040TIP3    H133755   2.699   0.780   0.702  0.2526  0.5250  0.0123
 4040TIP3    H233756   2.566   0.758   0.769 -0.3966 -0.7433 -1.6149
 4041TIP3   OH233757   6.746   3.181   6.513  0.2315 -0.1169 -0.2678
 4041TIP3    H133758   6.693   3.183   6.434 -0.8660 -1.3331  0.4094
 4041TIP3    H233759   6.714   3.255   6.566  0.2843  0.0884 -0.5206
 4042TIP3   OH233760   0.748   5.752   1.931 -0.3606  0.6453  0.1778
 4042TIP3    H133761   0.669   5.724   1.885  0.8128 -1.5747 -0.6567
 4042TIP3    H233762   0.731   5.732   2.023  0.2806 -2.7552 -0.3397
 4043TIP3   OH233763   4.288   0.664   1.554 -0.1194  0.2392 -0.1759
 4043TIP3    H133764   4.327   0.672   1.640 -0.3845  1.2557 -0.1422
 4043TIP3    H233765   4.229   0.739   1.546 -0.3075  0.0137 -1.1296
 4044TIP3   OH233766   6.503   2.352   1.751  0.1753 -0.2092 -0.4931
 4044TIP3    H133767   6.537   2.441   1.747 -1.2578  0.3560 -0.6987
 4044TIP3    H233768   6.443   2.346   1.677  0.8314 -1.6126 -0.9446
 4045TIP3   OH233769   2.862   1.794   1.721 -0.7932  0.4818  0.7935
 4045TIP3    H133770   2.886   1.703   1.702 -0.8162  0.9893 -2.1136
 4045TIP3    H233771   2.766   1.794   1.722 -0.8097  0.2621  2.3354
 4046TIP3   OH233772   5.476   1.293   1.534  0.4578  0.2631 -0.5205
 4046TIP3    H133773   5.539   1.224   1.551 -0.3108 -0.2938  0.1740
 4046TIP3    H233774   5.455   1.328   1.621 -0.6223  0.0331 -0.6759
 4047TIP3   OH233775   2.194   3.572   8.114  0.2068  0.6178  0.4662
 4047TIP3    H133776   2.252   3.592   8.040 -0.7419 -0.8494 -0.7575
 4047TIP3    H233777   2.253   3.560   8.188  1.1846  2.2851  0.0168
 4048TIP3   OH233778   1.096   6.617   7.550  0.4895 -0.6546 -0.5104
 4048TIP3    H133779   1.061   6.702   7.523 -0.5855 -0.9346 -0.0414
 4048TIP3    H233780   1.031   6.582   7.611  1.3573 -1.4221  0.0013
 4049TIP3   OH233781   4.976   3.734   3.153  0.1616 -0.2613 -0.2605
 4049TIP3    H133782   5.019   3.658   3.113 -0.4043 -0.7379  0.0360
 4049TIP3    H233783   4.930   3.776   3.080  1.4239  0.4778 -0.6643
 4050TIP3   OH233784   6.854   3.673   0.338 -0.0375  0.4284  0.2886
 4050TIP3    H133785   6.856   3.751   0.393  0.2418  0.0378  0.8435
 4050TIP3    H233786   6.915   3.612   0.380 -2.3661 -1.2056  1.5529
 4051TIP3   OH233787   3.288   6.135   1.266 -0.1007  0.3356 -0.5341
 4051TIP3    H133788   3.294   6.117   1.172 -0.0107 -0.3233 -0.4073
 4051TIP3    H233789   3.379   6.140   1.295 -0.1229  1.4262 -0.6416
 4052TIP3   OH233790   0.877   4.038   2.237 -0.0549 -0.2956 -0.0553
 4052TIP3    H133791   0.884   4.113   2.296  0.1413 -0.4861  0.1659
 4052TIP3    H233792   0.963   3.996   2.242 -0.2242 -0.6402 -0.0349
 4053TIP3   OH233793   2.446   1.627   8.374  0.0899  0.4921  0.0734
 4053TIP3    H133794   2.467   1.709   8.330  0.9021  0.4319  0.3274
 4053TIP3    H233795   2.412   1.653   8.460 -1.1226  0.5969 -0.4161
 4054TIP3   OH233796   4.707   1.936   0.774  0.4358  0.0931 -0.2412
 4054TIP3    H133797   4.703   1.899   0.686 -1.5123 -0.5134  0.0559
 4054TIP3    H233798   4.796   1.916   0.804  1.2701  0.6407 -2.1759
 4055TIP3   OH233799   0.104   1.539   7.038  0.1313 -0.1349 -0.0098
 4055TIP3    H133800   0.057   1.457   7.022  0.0549  0.3210 -2.5035
 4055TIP3    H233801   0.192   1.523   7.002 -0.2422  1.2061 -1.6471
 4056TIP3   OH233802   6.948   0.071   6.747 -0.0673  1.0980 -0.0296
 4056TIP3    H133803   7.039   0.095   6.765  0.3940 -0.9316  0.6373
 4056TIP3    H233804   6.955  -0.001   6.684 -1.2129  0.8244  0.1440
 4057TIP3   OH233805   0.106   1.904   8.345 -0.8808  0.6723  0.0516
 4057TIP3    H133806   0.068   1.984   8.380 -1.8726  0.6546 -0.9130
 4057TIP3    H233807   0.070   1.897   8.256 -2.1887 -1.7089  0.6679
 4058TIP3   OH233808   6.855   0.421   1.139  0.0204 -0.0937 -0.3497
 4058TIP3    H133809   6.786   0.427   1.073 -0.2000 -0.6503 -0.1684
 4058TIP3    H233810   6.830   0.486   1.205 -0.9585 -1.0880  0.2930
 4059TIP3   OH233811   4.672   4.662   0.391  0.0897  0.7908  0.0684
 4059TIP3    H133812   4.619   4.626   0.320  2.2030  0.2283 -1.3050
 4059TIP3    H233813   4.674   4.756   0.375 -2.0734  1.1055  1.3043
 4060TIP3   OH233814   6.604   1.470   6.530  0.1755  0.1607  0.1118
 4060TIP3    H133815   6.672   1.409   6.503  0.1088  0.4317 -0.7070
 4060TIP3    H233816   6.524   1.418   6.532  0.0607  0.2798 -0.9050
 4061TIP3   OH233817   1.695   0.778   1.242 -0.1924 -0.0024  0.2923
 4061TIP3    H133818   1.664   0.734   1.321  0.0008 -0.1551  0.2830
 4061TIP3    H233819   1.791   0.772   1.248 -0.1899 -0.6317 -0.3061
 4062TIP3   OH233820   0.831   2.609   1.973 -0.7718 -0.1578 -0.0892
 4062TIP3    H133821   0.788   2.626   2.057 -0.6009 -1.0287  0.1850
 4062TIP3    H233822   0.920   2.585   1.997 -1.2881 -2.6348 -0.3093
 4063TIP3   OH233823   3.817   6.284   2.027  0.3025  0.4832 -0.1097
 4063TIP3    H133824   3.891   6.326   1.984 -0.3676  2.4397  0.5378
 4063TIP3    H233825   3.740   6.324   1.986 -0.3606  0.2417  0.8615
 4064TIP3   OH233826   2.435   1.017   0.303  0.1916 -0.1741 -0.1416
 4064TIP3    H133827   2.359   1.073   0.319  1.0439  0.9831 -0.0161
 4064TIP3    H233828   2.481   1.014   0.387  1.8463  1.5826 -0.9058
 4065TIP3   OH233829   0.795   6.147   8.457  0.0133 -0.2031  0.7918
 4065TIP3    H133830   0.832   6.197   8.384  0.6128  0.4917  1.5587
 4065TIP3    H233831   0.725   6.095   8.417 -0.6448  1.2540 -0.0288
 4066TIP3   OH233832   1.087   5.598   1.056 -0.4394  0.1946  0.1813
 4066TIP3    H133833   1.108   5.505   1.049 -0.6670  0.1790 -0.3644
 4066TIP3    H233834   0.992   5.600   1.071 -0.7085  0.3680 -1.3577
 4067TIP3   OH233835   4.251   4.870   3.016  0.1519  0.0255  0.0291
 4067TIP3    H133836   4.285   4.871   2.926 -1.3257  1.6230 -0.5781
 4067TIP3    H233837   4.327   4.850   3.071  1.6101  1.3891 -1.3873
 4068TIP3   OH233838   6.604   1.036   6.434 -0.3069  0.8149  0.1299
 4068TIP3    H133839   6.524   1.015   6.385  0.2621  1.2159 -1.0041
 4068TIP3    H233840   6.631   0.953   6.472 -2.0249  0.9220  1.7352
 4069TIP3   OH233841   1.671   4.621   0.629 -0.1716  0.0104 -0.2658
 4069TIP3    H133842   1.729   4.655   0.560 -0.5362  0.8279 -0.1843
 4069TIP3    H233843   1.597   4.682   0.629  0.1072  0.3794  1.2696
 4070TIP3   OH233844   2.661   3.684   0.640 -0.1262 -0.4701  0.4031
 4070TIP3    H133845   2.682   3.739   0.564 -2.1067  0.9184  0.7902
 4070TIP3    H233846   2.570   3.657   0.625 -0.8586  0.5522  2.6802
 4071TIP3   OH233847   6.387   1.955   1.258  0.6127 -0.4027 -0.2196
 4071TIP3    H133848   6.332   1.947   1.181 -0.1084 -1.2712  0.3740
 4071TIP3    H233849   6.472   1.920   1.231  0.6157  0.0809 -0.8585
 4072TIP3   OH233850   5.188   0.820   1.586  0.2048 -0.1108  0.4292
 4072TIP3    H133851   5.103   0.804   1.627 -0.1268 -3.0426 -1.0913
 4072TIP3    H233852   5.234   0.877   1.647 -2.2145  0.1889  2.1310
 4073TIP3   OH233853   4.917   5.042   0.096 -0.0511 -0.1090 -0.4310
 4073TIP3    H133854   4.918   5.035   0.001 -0.2598 -0.5485 -0.3991
 4073TIP3    H233855   4.975   5.117   0.115  1.1470 -0.9168 -0.8149
 4074TIP3   OH233856   5.147   0.245   7.273 -0.2144 -0.5044 -0.4532
 4074TIP3    H133857   5.211   0.213   7.336 -2.4836 -1.3590  1.5392
 4074TIP3    H233858   5.117   0.167   7.227 -0.0182 -0.1371 -1.2235
 4075TIP3   OH233859   2.806   0.076   1.566 -0.2809 -0.5942  0.4474
 4075TIP3    H133860   2.747   0.085   1.641 -0.9764 -0.6875 -0.0802
 4075TIP3    H233861   2.819  -0.018   1.556  0.9552 -0.5422  1.3115
 4076TIP3   OH233862   5.013   5.597   0.191  0.4163 -0.2620  0.3313
 4076TIP3    H133863   5.000   5.686   0.159  0.5659 -0.7268 -1.0890
 4076TIP3    H233864   5.081   5.606   0.258  0.6456  0.6572 -0.0068
 4077TIP3   OH233865   1.521   0.190   2.499  0.6079 -0.0335 -0.6400
 4077TIP3    H133866   1.533   0.267   2.555  1.6588  0.9497 -2.1197
 4077TIP3    H233867   1.530   0.115   2.557 -1.5624  0.9119  1.0764
 4078TIP3   OH233868   1.006   4.809   1.064 -0.1453 -0.6924 -0.3175
 4078TIP3    H133869   0.995   4.758   0.983 -0.3066 -0.6848 -0.3005
 4078TIP3    H233870   1.094   4.847   1.056 -0.8697  0.8472 -1.3615
 4079TIP3   OH233871   1.344   1.527   8.118 -0.5751  0.5509 -0.0352
 4079TIP3    H133872   1.311   1.438   8.108 -0.4386  0.5095 -0.1294
 4079TIP3    H233873   1.305   1.559   8.199  0.0449  0.1070  0.4513
 4080TIP3   OH233874   3.339   4.210   1.544  0.2080 -0.0051 -0.2343
 4080TIP3    H133875   3.354   4.145   1.475  0.5756  0.2320 -0.3852
 4080TIP3    H233876   3.387   4.288   1.514 -0.2246  0.3339 -0.0562
 4081TIP3   OH233877   6.698   2.878   8.103  0.7316  0.2146 -0.0565
 4081TIP3    H133878   6.745   2.809   8.056  1.8461  0.9543 -0.0729
 4081TIP3    H233879   6.625   2.901   8.046 -0.2611 -1.6285  0.4007
 4082TIP3   OH233880   6.056   6.887   2.090  0.3281  0.3105  0.1103
 4082TIP3    H133881   6.101   6.912   2.171 -0.6062  2.3867  0.0625
 4082TIP3    H233882   6.102   6.936   2.021  1.2997 -1.6544 -0.7164
 4083TIP3   OH233883   6.274   4.528   7.246  0.0707  0.1342 -0.1623
 4083TIP3    H133884   6.314   4.613   7.226  0.5830 -0.1491 -0.3894
 4083TIP3    H233885   6.209   4.515   7.177 -2.7839  2.0449  1.9675
 4084TIP3   OH233886   4.046   6.255   7.702 -0.3326  0.1638  0.2399
 4084TIP3    H133887   3.987   6.330   7.700 -1.3861 -0.6412 -1.8935
 4084TIP3    H233888   4.031   6.210   7.619  2.2077 -0.9435  0.2763
 4085TIP3   OH233889   2.799   5.195   1.085  0.6140 -0.2314 -0.4405
 4085TIP3    H133890   2.853   5.244   1.024  1.5974  0.6332  1.0547
 4085TIP3    H233891   2.861   5.144   1.137 -0.2289 -1.3633 -0.4988
 4086TIP3   OH233892   5.334   6.382   6.766 -0.6656 -0.3378 -0.1540
 4086TIP3    H133893   5.427   6.360   6.770 -0.1889  1.5301 -0.0105
 4086TIP3    H233894   5.312   6.415   6.853 -0.6793  1.9441 -0.9456
 4087TIP3   OH233895   5.494   5.231   0.638 -0.0426  0.3053  0.0728
 4087TIP3    H133896   5.420   5.193   0.591  0.0968  0.5161 -0.3153
 4087TIP3    H233897   5.471   5.323   0.647  0.9610  0.7531 -1.6035
 4088TIP3   OH233898   6.396   4.444   7.497 -0.5012  0.1524 -0.5075
 4088TIP3    H133899   6.428   4.511   7.558 -0.8681 -1.5768  1.6975
 4088TIP3    H233900   6.351   4.494   7.429 -3.6842  2.1519  2.7145
 4089TIP3   OH233901   1.042   0.855   8.388 -0.4708 -0.4243  0.4847
 4089TIP3    H133902   1.059   0.935   8.438  1.1398 -0.6007  0.2681
 4089TIP3    H233903   1.066   0.878   8.298 -1.5865 -0.6690  0.1096
 4090TIP3   OH233904   1.414   3.407   0.644  0.5140  0.2140 -0.2458
 4090TIP3    H133905   1.346   3.399   0.578  0.2403 -0.0084  0.0627
 4090TIP3    H233906   1.472   3.332   0.628  0.0511 -0.2509  0.2202
 4091TIP3   OH233907   5.456   1.331   2.700  0.2254  0.1664 -0.1529
 4091TIP3    H133908   5.399   1.370   2.766  0.3810 -3.6087  2.5127
 4091TIP3    H233909   5.543   1.361   2.723  0.2066 -0.6554  1.0570
 4092TIP3   OH233910   4.398   4.686   2.495  0.2193  0.4313  0.0136
 4092TIP3    H133911   4.421   4.754   2.432  0.0856  0.0998 -0.4019
 4092TIP3    H233912   4.307   4.665   2.476  0.6347 -0.7982 -0.7666
 4093TIP3   OH233913   1.700   0.954   1.590 -0.0108 -0.4822  0.2664
 4093TIP3    H133914   1.631   0.983   1.650 -0.2256 -0.5766  0.0654
 4093TIP3    H233915   1.781   0.975   1.635 -0.1572 -2.0071  1.3086
 4094TIP3   OH233916   1.118   2.189   8.108  0.2691 -0.6543  0.2809
 4094TIP3    H133917   1.186   2.243   8.148  0.0093  1.2890 -1.7284
 4094TIP3    H233918   1.082   2.139   8.182  1.8959  0.4082  1.8947
 4095TIP3   OH233919   6.170   0.641   0.917  0.0887  0.0973  0.5779
 4095TIP3    H133920   6.224   0.571   0.952 -0.3031 -0.2249  0.5519
 4095TIP3    H233921   6.114   0.667   0.990 -1.6076 -1.4317 -0.0999
 4096TIP3   OH233922   4.089   1.217   7.641 -0.1816 -0.1771  1.0369
 4096TIP3    H133923   4.029   1.290   7.632  0.0322 -0.2312 -1.6043
 4096TIP3    H233924   4.135   1.213   7.557 -0.1424 -3.2878  1.0777
 4097TIP3   OH233925   6.204   5.958   8.256  0.5965  0.0148  0.2765
 4097TIP3    H133926   6.193   6.035   8.312  0.6452  0.1470  0.1025
 4097TIP3    H233927   6.274   5.981   8.196  0.4718 -0.0894  0.0902
 4098TIP3   OH233928   5.714   0.087   7.946 -0.5013  0.3274 -0.7467
 4098TIP3    H133929   5.707  -0.000   7.983 -1.1927  0.5963 -0.2192
 4098TIP3    H233930   5.789   0.127   7.990 -0.2114  0.0234 -0.9576
 4099TIP3   OH233931   3.679   0.152   1.228 -0.1096  0.0532 -0.3541
 4099TIP3    H133932   3.620   0.092   1.273  1.0997  0.3266  1.7486
 4099TIP3    H233933   3.628   0.231   1.214 -0.3377  0.2398  1.3147
 4100TIP3   OH233934   1.754   1.916   0.498  0.1794  0.0097  0.4406
 4100TIP3    H133935   1.784   1.825   0.492  0.5117  0.1345  0.1848
 4100TIP3    H233936   1.725   1.938   0.410  2.6904  1.0274 -0.2433
 4101TIP3   OH233937   3.636   5.890   1.432  0.6289  0.6137  0.0692
 4101TIP3    H133938   3.593   5.866   1.514  0.6786  0.9281  0.1899
 4101TIP3    H233939   3.702   5.822   1.419  0.4861  0.4531  0.1876
 4102TIP3   OH233940   3.383   1.248   2.546 -0.8249 -0.0821 -0.2142
 4102TIP3    H133941   3.381   1.213   2.457  1.3013  1.2433 -0.8701
 4102TIP3    H233942   3.341   1.181   2.600 -2.1654 -0.9126 -2.2040
 4103TIP3   OH233943   6.515   3.177   2.461  0.1184 -0.0562 -0.2583
 4103TIP3    H133944   6.426   3.165   2.495 -0.0833  1.0153 -0.3760
 4103TIP3    H233945   6.518   3.124   2.382 -0.2673 -0.4580 -0.0093
 4104TIP3   OH233946   2.676   5.273   7.670  0.4701  0.4151  0.2205
 4104TIP3    H133947   2.644   5.243   7.755  1.3760  1.1991  0.8579
 4104TIP3    H233948   2.654   5.366   7.667  0.1820  0.3327 -0.5444
 4105TIP3   OH233949   6.551   1.184   7.485  0.4738 -0.4281 -0.8158
 4105TIP3    H133950   6.526   1.102   7.443  1.0268  0.3055 -2.6523
 4105TIP3    H233951   6.476   1.242   7.472  0.6644 -0.1791 -0.8068
 4106TIP3   OH233952   0.105   0.625   2.362 -0.5278  0.0084 -0.0256
 4106TIP3    H133953   0.194   0.605   2.389 -0.5770 -0.8855 -0.5077
 4106TIP3    H233954   0.053   0.614   2.441 -0.4828 -1.3290 -0.1646
 4107TIP3   OH233955   6.396   0.025   8.463 -0.6996 -0.2978  0.7808
 4107TIP3    H133956   6.324  -0.039   8.461 -0.4412 -0.7254  2.6134
 4107TIP3    H233957   6.475  -0.028   8.459 -0.4617  0.1523 -0.8953
 4108TIP3   OH233958   0.702   6.665   0.441 -0.1228  0.1261  0.1960
 4108TIP3    H133959   0.674   6.732   0.504  2.0384  0.2664  1.1154
 4108TIP3    H233960   0.702   6.584   0.491 -1.0408 -0.2673 -0.4235
 4109TIP3   OH233961   1.448   2.613   2.632  0.2169  0.2932  0.0925
 4109TIP3    H133962   1.445   2.620   2.537  1.3393 -2.0050 -0.1573
 4109TIP3    H233963   1.366   2.569   2.656 -0.3632  1.4331  0.2973
 4110TIP3   OH233964   3.014   1.921   1.916  0.0102 -0.9610 -0.1492
 4110TIP3    H133965   2.953   1.879   1.855  0.7335 -3.9893  1.0399
 4110TIP3    H233966   3.096   1.873   1.905  2.0407  2.2833 -0.9264
 4111TIP3   OH233967   1.914   4.381   1.866  0.6510 -0.3356  0.4541
 4111TIP3    H133968   1.972   4.333   1.807  1.4965  2.7285 -1.4109
 4111TIP3    H233969   1.826   4.357   1.836  0.9349 -2.3964  1.0895
 4112TIP3   OH233970   5.787   1.749   8.387  0.4887 -0.3596  0.2425
 4112TIP3    H133971   5.853   1.781   8.448  1.5291 -0.0131 -1.0115
 4112TIP3    H233972   5.838   1.709   8.316 -0.6164  0.3088 -0.9731
 4113TIP3   OH233973   0.890   3.183   8.512  0.0696 -0.1541 -0.4011
 4113TIP3    H133974   0.819   3.119   8.515 -0.8627  0.8893  1.3869
 4113TIP3    H233975   0.849   3.263   8.478  1.0198 -0.2266 -1.8023
 4114TIP3   OH233976   0.331   3.026   1.968  0.1502 -0.0275  0.4551
 4114TIP3    H133977   0.382   2.968   2.025  2.1800  2.1960  1.0470
 4114TIP3    H233978   0.287   3.086   2.029 -1.1085 -0.2487 -0.1916
 4115TIP3   OH233979   6.022   0.127   8.393  0.0726 -0.9572  0.3438
 4115TIP3    H133980   5.946   0.077   8.423 -0.4653 -0.3438  0.0384
 4115TIP3    H233981   6.083   0.061   8.361 -0.6410 -1.4233 -0.1021
 4116TIP3   OH233982   1.539   3.195   0.499  0.4296  0.3223 -0.2730
 4116TIP3    H133983   1.463   3.137   0.491  0.6573 -0.3028  1.5632
 4116TIP3    H233984   1.607   3.152   0.446  1.8343 -3.4549  3.9046
 4117TIP3   OH233985   4.716   1.188   8.505  0.4930  0.2313 -0.5257
 4117TIP3    H133986   4.680   1.158   8.589  0.0975  2.4515  0.1786
 4117TIP3    H233987   4.811   1.194   8.521  0.7967 -2.0563 -1.1923
 4118TIP3   OH233988   6.195   6.194   8.415  0.1631 -0.4939 -0.1600
 4118TIP3    H133989   6.253   6.228   8.347 -1.4113  0.2308 -1.2060
 4118TIP3    H233990   6.154   6.272   8.452  0.0916 -0.9733  0.7969
 4119TIP3   OH233991   2.280   2.200   3.014  0.3346 -0.6372  0.1461
 4119TIP3    H133992   2.239   2.118   2.985  0.1558 -1.3094  2.1758
 4119TIP3    H233993   2.368   2.196   2.978 -0.7287  0.0584 -2.8878
 4120TIP3   OH233994   5.900   0.508   2.010 -0.6126  0.0462 -0.1265
 4120TIP3    H133995   5.872   0.425   1.972  0.2598 -0.6763  0.7565
 4120TIP3    H233996   5.868   0.505   2.101 -1.2049  1.0053 -0.2842
 4121TIP3   OH233997   4.056   5.187   1.950  0.0674 -0.1001 -0.1896
 4121TIP3    H133998   3.972   5.191   1.997  1.1616  0.0768  1.8692
 4121TIP3    H233999   4.107   5.260   1.986  1.6684 -1.1437 -0.2621
 4122TIP3   OH234000   0.187   5.974   6.835  0.4296 -0.2779 -0.3895
 4122TIP3    H134001   0.156   5.952   6.923  0.5236 -1.5972 -0.6680
 4122TIP3    H234002   0.277   6.004   6.848  0.6717 -1.1123 -0.1041
 4123TIP3   OH234003   5.643   0.747   0.316  0.3393  0.0137 -0.2305
 4123TIP3    H134004   5.635   0.655   0.342 -1.8240  0.9685  3.0568
 4123TIP3    H234005   5.737   0.766   0.325  0.5349 -1.3699  1.0554
 4124TIP3   OH234006   5.310   0.151   1.171 -0.3014 -0.1661  0.6669
 4124TIP3    H134007   5.315   0.212   1.097 -1.7027  0.8831  1.3805
 4124TIP3    H234008   5.365   0.191   1.239  0.2534 -0.6562  0.5099
 4125TIP3   OH234009   5.176   0.057   0.847 -0.2222 -0.3816 -0.0604
 4125TIP3    H134010   5.101   0.075   0.789  0.1664 -0.3019 -0.5436
 4125TIP3    H234011   5.229   0.136   0.842  0.4792 -0.8755 -0.6255
 4126TIP3   OH234012   2.270   2.754   0.254 -0.1976  0.5236  0.3131
 4126TIP3    H134013   2.198   2.762   0.317  0.5660 -1.5920  1.5729
 4126TIP3    H234014   2.346   2.792   0.298  0.1970 -0.3601  0.4103
 4127TIP3   OH234015   3.446   2.642   1.762  0.4185 -0.6920 -0.0175
 4127TIP3    H134016   3.471   2.715   1.706 -1.8645  1.9228  2.1046
 4127TIP3    H234017   3.448   2.565   1.704  1.5428  1.2233 -2.7043
 4128TIP3   OH234018   4.295   5.466   7.752 -0.1948 -0.4305  0.4920
 4128TIP3    H134019   4.223   5.519   7.718 -1.5890 -1.5379  1.6087
 4128TIP3    H234020   4.255   5.410   7.818  1.0640 -3.3051 -0.9920
 4129TIP3   OH234021   3.942   3.729   2.387  0.4718  0.5812  0.1516
 4129TIP3    H134022   3.950   3.751   2.480 -0.0299 -0.9901  0.6005
 4129TIP3    H234023   3.862   3.677   2.382  1.5303 -1.0365 -0.8025
 4130TIP3   OH234024   1.525   6.235   2.649  0.4434 -0.1546  0.3636
 4130TIP3    H134025   1.578   6.157   2.632  2.0922  0.8416  0.6374
 4130TIP3    H234026   1.541   6.255   2.741 -1.4353 -0.5140  0.7975
 4131TIP3   OH234027   6.605   5.903   7.018 -0.1060 -0.2352  0.0163
 4131TIP3    H134028   6.526   5.881   7.068 -0.3697 -0.0216 -0.3042
 4131TIP3    H234029   6.583   5.881   6.927  1.5846 -4.0552  0.3629
 4132TIP3   OH234030   2.058   6.675   0.314  0.1899  0.1637  0.0847
 4132TIP3    H134031   1.978   6.716   0.348 -0.3347 -0.8545  0.1132
 4132TIP3    H234032   2.128   6.714   0.366 -0.3573  0.5338  0.5614
 4133TIP3   OH234033   6.757   6.825   7.542 -0.3710  0.2178  0.0709
 4133TIP3    H134034   6.756   6.852   7.634 -1.0068  0.9096 -0.1245
 4133TIP3    H234035   6.769   6.906   7.493  0.0025 -0.1495 -0.4623
 4134TIP3   OH234036   3.244   1.157   0.076  0.1152 -0.1384  0.9879
 4134TIP3    H134037   3.331   1.160   0.036  1.3310  1.0252  3.4700
 4134TIP3    H234038   3.244   1.230   0.138 -2.4664 -0.4362  1.4365
 4135TIP3   OH234039   3.351   1.056   2.357  0.0350  0.4751  0.1774
 4135TIP3    H134040   3.355   1.015   2.270  1.2753 -1.4354  1.0677
 4135TIP3    H234041   3.293   1.000   2.408 -1.0850  1.8580  0.4898
 4136TIP3   OH234042   6.185   1.475   2.166 -0.4851  0.2005  0.1400
 4136TIP3    H134043   6.101   1.440   2.136 -0.7806  0.0336  1.1463
 4136TIP3    H234044   6.169   1.505   2.255  0.5467  0.0823  0.3788
 4137TIP3   OH234045   2.770   1.167   2.249 -0.2099  0.6483 -0.2020
 4137TIP3    H134046   2.810   1.081   2.250  0.3886  0.9003 -1.2421
 4137TIP3    H234047   2.726   1.174   2.334  0.6507 -0.2356  0.3314
 4138TIP3   OH234048   6.023   1.501   7.183 -0.2562  0.2803  0.4742
 4138TIP3    H134049   5.996   1.422   7.138 -0.7745 -0.2434  1.6612
 4138TIP3    H234050   5.941   1.540   7.215  0.1872 -0.1669  2.2372
 4139TIP3   OH234051   2.562   3.661   2.631 -0.0330  0.7186  0.2776
 4139TIP3    H134052   2.541   3.587   2.688 -0.5804 -0.1309 -0.9865
 4139TIP3    H234053   2.639   3.701   2.671  0.1774 -0.4473  1.0785
 4140TIP3   OH234054   4.949   1.642   6.920  0.0360  0.7387 -0.0816
 4140TIP3    H134055   5.001   1.716   6.887 -1.4992  0.4871 -3.4195
 4140TIP3    H234056   4.990   1.565   6.883 -0.1507  0.1445  0.9137
 4141TIP3   OH234057   2.009   1.274   2.337 -0.1974  0.0673 -0.1637
 4141TIP3    H134058   2.007   1.185   2.302 -0.4160 -0.2511  0.6259
 4141TIP3    H234059   1.982   1.329   2.263 -0.2570 -0.5372 -0.6040
 4142TIP3   OH234060   1.215   4.233   2.032  0.5170 -0.7239  0.1458
 4142TIP3    H134061   1.234   4.170   1.963  3.4888 -1.1633  1.1823
 4142TIP3    H234062   1.232   4.318   1.993 -0.4231 -0.7622 -0.3710
 4143TIP3   OH234063   6.817   1.915   1.893 -0.4988  0.5639  0.5345
 4143TIP3    H134064   6.814   1.845   1.958  0.6058  0.2966  0.3220
 4143TIP3    H234065   6.764   1.883   1.821  2.1459 -1.3448 -0.7442
 4144TIP3   OH234066   0.373   5.313   0.845  0.5186  0.7736 -0.0452
 4144TIP3    H134067   0.394   5.341   0.755 -1.2352 -0.6276 -0.9677
 4144TIP3    H234068   0.442   5.251   0.867  0.4837  0.4410 -0.8098
 4145TIP3   OH234069   2.498   4.271   0.296 -0.4117 -0.3733 -0.1060
 4145TIP3    H134070   2.530   4.358   0.322  0.4574 -1.2272  1.8532
 4145TIP3    H234071   2.403   4.279   0.296 -0.3381  0.6515 -0.2477
 4146TIP3   OH234072   4.951   5.685   1.447 -0.0456  0.5571 -0.2215
 4146TIP3    H134073   5.026   5.628   1.462 -2.6245 -2.9638  0.6307
 4146TIP3    H234074   4.918   5.659   1.360 -0.4570  1.8275 -0.4618
 4147TIP3   OH234075   4.612   1.634   7.546  0.5651 -0.0454  0.2965
 4147TIP3    H134076   4.566   1.552   7.530  0.6116 -0.1283  0.5835
 4147TIP3    H234077   4.633   1.667   7.458 -0.1188  0.0389  0.1552
 4148TIP3   OH234078   6.771   3.744   2.215 -0.1094 -0.0295  0.0794
 4148TIP3    H134079   6.764   3.839   2.206 -0.3711 -0.0905 -0.4304
 4148TIP3    H234080   6.695   3.719   2.267  0.8230  0.2072  1.6099
 4149TIP3   OH234081   0.396   5.760   8.375  0.4369  0.1702 -0.2418
 4149TIP3    H134082   0.491   5.761   8.387  0.7074  2.3755 -1.8394
 4149TIP3    H234083   0.361   5.808   8.450  0.6514  0.0024 -0.0359
 4150TIP3   OH234084   0.321   3.499   1.094 -0.4450 -1.1779  0.1941
 4150TIP3    H134085   0.327   3.509   0.999  4.7100  0.5373  0.4128
 4150TIP3    H234086   0.290   3.584   1.126 -0.7734 -1.2768  0.1456
 4151TIP3   OH234087   0.912   3.976   1.117  0.3056 -0.2831  0.2811
 4151TIP3    H134088   0.838   3.984   1.057  0.2811  1.1947  0.4781
 4151TIP3    H234089   0.989   3.990   1.061  0.2240  2.9621  0.8040
 4152TIP3   OH234090   3.601   4.246   2.981 -0.3893 -0.2021  0.3003
 4152TIP3    H134091   3.566   4.274   2.896 -1.7515 -1.3266  0.4514
 4152TIP3    H234092   3.644   4.163   2.963  0.5659  0.2444  0.4755
 4153TIP3   OH234093   4.481   6.559   1.669 -0.4063 -0.2774  1.1307
 4153TIP3    H134094   4.554   6.622   1.669 -1.5338  1.0768  1.4423
 4153TIP3    H234095   4.481   6.524   1.758  1.1534 -1.8933  0.5524
 4154TIP3   OH234096   2.409   3.738   8.288  0.3683  0.6367 -0.0028
 4154TIP3    H134097   2.479   3.680   8.256  2.1684  2.4763  0.4157
 4154TIP3    H234098   2.414   3.815   8.232 -1.8095  0.5452 -0.3802
 4155TIP3   OH234099   1.258   4.833   0.022  0.0107 -0.0791 -0.2368
 4155TIP3    H134100   1.310   4.912   0.008  0.5182 -0.3329  0.1636
 4155TIP3    H234101   1.183   4.862   0.074 -0.1192  0.2445 -0.6021
 4156TIP3   OH234102   6.703   3.468   0.490 -0.0813  0.3605 -0.3256
 4156TIP3    H134103   6.653   3.548   0.504 -0.6746  0.0189 -0.4809
 4156TIP3    H234104   6.674   3.436   0.404  0.6744  0.3571 -0.5932
 4157TIP3   OH234105   2.367   6.643   7.626 -0.2751  0.4638  0.0693
 4157TIP3    H134106   2.402   6.708   7.688 -0.9929  1.3963 -0.4721
 4157TIP3    H234107   2.368   6.689   7.541  1.1292 -0.9444 -0.7347
 4158TIP3   OH234108   5.053   3.806   7.030  0.0871  0.2037 -0.5980
 4158TIP3    H134109   4.960   3.801   7.008  0.2130  0.8692 -1.2873
 4158TIP3    H234110   5.090   3.724   6.998 -0.5714 -0.8967  1.2862
 4159TIP3   OH234111   3.183   6.935   7.920 -0.1689 -0.3120  0.0598
 4159TIP3    H134112   3.159   6.852   7.963 -1.1961 -0.4282 -0.6849
 4159TIP3    H234113   3.225   6.987   7.989 -1.9854 -0.3888  1.3009
 4160TIP3   OH234114   4.228   6.952   7.219 -0.0414 -0.0409  0.1022
 4160TIP3    H134115   4.180   6.951   7.136 -0.5162 -0.5539  0.3770
 4160TIP3    H234116   4.302   7.010   7.203 -0.9906  1.1177 -0.1868
 4161TIP3   OH234117   6.727   6.645   6.626 -0.4762 -0.3923  0.8063
 4161TIP3    H134118   6.694   6.732   6.601 -0.0778 -0.1145  1.2376
 4161TIP3    H234119   6.823   6.655   6.625 -0.4458 -0.5338  1.9059
 4162TIP3   OH234120   0.531   4.074   1.340  0.6719  0.1216  0.4417
 4162TIP3    H134121   0.461   4.092   1.278 -1.3823 -0.3000  2.4818
 4162TIP3    H234122   0.575   4.158   1.354  1.6209  0.0916 -1.9731
 4163TIP3   OH234123   6.115   5.814   0.772 -0.4152 -0.2856 -0.4658
 4163TIP3    H134124   6.037   5.763   0.748  0.2455 -1.1265 -0.8716
 4163TIP3    H234125   6.092   5.904   0.750 -1.0094 -0.6159 -1.2619
 4164TIP3   OH234126   2.067   2.447   7.389 -0.6091  0.5128  0.4654
 4164TIP3    H134127   2.028   2.360   7.393 -0.2953  0.2983 -0.7549
 4164TIP3    H234128   2.126   2.444   7.314  1.5140  0.9430  2.0293
 4165TIP3   OH234129   3.305   5.666   0.919  0.0497  0.1283 -0.6071
 4165TIP3    H134130   3.332   5.715   0.842  1.7356 -1.8671 -1.3926
 4165TIP3    H234131   3.384   5.659   0.972  0.1319 -2.2973 -0.9191
 4166TIP3   OH234132   3.425   1.071   2.746 -0.5161  0.4053  0.1831
 4166TIP3    H134133   3.516   1.044   2.754 -1.1160 -1.8900 -0.2265
 4166TIP3    H234134   3.385   1.048   2.830 -0.9992  0.1798 -0.1009
 4167TIP3   OH234135   3.299   4.055   0.546  0.4616 -0.0948 -0.2630
 4167TIP3    H134136   3.275   4.032   0.635  2.5734 -0.9134  0.1623
 4167TIP3    H234137   3.359   4.129   0.556 -0.2415  0.6082 -1.1080
 4168TIP3   OH234138   4.871   5.589   1.778 -0.0704  0.4557  0.2632
 4168TIP3    H134139   4.834   5.677   1.779 -0.0354  0.4678  1.6856
 4168TIP3    H234140   4.918   5.582   1.861 -1.1138 -1.3410  0.7436
 4169TIP3   OH234141   0.862   5.009   7.829 -0.0041  0.0356 -0.1897
 4169TIP3    H134142   0.798   4.994   7.759  0.9021  0.2471 -1.0850
 4169TIP3    H234143   0.818   4.979   7.908 -1.0882 -0.1294 -0.8369
 4170TIP3   OH234144   6.735   3.549   7.283 -0.2701  0.5933 -0.0368
 4170TIP3    H134145   6.694   3.608   7.221 -1.4172  0.0859  0.2194
 4170TIP3    H234146   6.748   3.468   7.234  0.3962  0.7253 -0.0968
 4171TIP3   OH234147   3.731   4.782   0.994 -0.1418  0.0818  0.0407
 4171TIP3    H134148   3.667   4.763   1.063 -1.2472 -0.4944 -1.1071
 4171TIP3    H234149   3.740   4.700   0.946 -0.0060  0.6710 -0.9796
 4172TIP3   OH234150   6.033   2.001   1.308 -0.0857 -0.0190  0.0629
 4172TIP3    H134151   6.054   1.930   1.247 -1.3517 -2.1076  1.8850
 4172TIP3    H234152   6.105   2.002   1.370  0.0314  0.4376 -0.0808
 4173TIP3   OH234153   1.167   2.574   1.590 -0.4340 -0.0718  0.5451
 4173TIP3    H134154   1.109   2.617   1.654 -0.3675 -2.6654  2.5302
 4173TIP3    H234155   1.177   2.485   1.624  1.6025 -0.8579 -1.8621
 4174TIP3   OH234156   4.507   5.599   2.023  0.4119  0.5013  0.5585
 4174TIP3    H134157   4.553   5.523   1.987  0.0625  0.0304  1.0974
 4174TIP3    H234158   4.567   5.636   2.087  0.4473  0.4892  0.5321
 4175TIP3   OH234159   4.570   2.132   2.393  0.2069 -0.7562  0.0951
 4175TIP3    H134160   4.651   2.083   2.377  0.5670 -0.4438  0.9065
 4175TIP3    H234161   4.595   2.199   2.456 -0.8923 -1.2526  1.1050
 4176TIP3   OH234162   3.046   1.174   1.539  0.6977  0.2302  0.3865
 4176TIP3    H134163   3.138   1.187   1.561  0.8952 -0.1362 -0.1979
 4176TIP3    H234164   2.998   1.205   1.616  1.2917  0.8209  0.5203
 4177TIP3   OH234165   4.673   6.637   0.731 -0.2120 -0.3630  0.2613
 4177TIP3    H134166   4.704   6.707   0.790 -0.6509 -0.2195  0.3207
 4177TIP3    H234167   4.754   6.596   0.699  0.0472  0.0958  0.3167
 4178TIP3   OH234168   3.556   0.921   8.143 -0.1575 -0.1422 -0.4293
 4178TIP3    H134169   3.612   0.998   8.133  2.2519 -1.4439  1.6455
 4178TIP3    H234170   3.616   0.847   8.129 -0.9148 -1.6530  3.1845
 4179TIP3   OH234171   1.818   3.289   0.124  0.0366  0.0713 -0.1011
 4179TIP3    H134172   1.894   3.318   0.173 -0.8016  0.5736  0.9376
 4179TIP3    H234173   1.774   3.369   0.097  0.3558 -0.1998 -1.5058
 4180TIP3   OH234174   6.773   5.294   0.543 -0.5013 -0.6432  0.4148
 4180TIP3    H134175   6.697   5.237   0.549 -2.0408  0.7112 -3.3798
 4180TIP3    H234176   6.780   5.317   0.450  1.9342  2.7775  1.2134
 4181TIP3   OH234177   0.270   4.187   2.138 -0.3365 -0.2451 -0.1919
 4181TIP3    H134178   0.199   4.239   2.176 -0.4098 -0.7058  0.3125
 4181TIP3    H234179   0.226   4.109   2.105 -0.2216 -0.0119 -0.9207
 4182TIP3   OH234180   4.177   1.569   1.041 -1.1300  0.2083  0.0717
 4182TIP3    H134181   4.100   1.522   1.012 -0.1171 -1.8507  0.5565
 4182TIP3    H234182   4.201   1.625   0.967 -1.6988 -0.9104 -0.9791
 4183TIP3   OH234183   5.161   6.163   7.295  0.0677 -0.0373 -0.2130
 4183TIP3    H134184   5.079   6.181   7.249  0.4123  0.3909 -0.6712
 4183TIP3    H234185   5.209   6.105   7.237 -0.1983 -0.8471  0.3675
 4184TIP3   OH234186   5.020   6.165   1.960 -0.6531 -0.4557 -0.1971
 4184TIP3    H134187   5.096   6.107   1.964 -0.6251 -0.4101 -0.0550
 4184TIP3    H234188   5.053   6.249   1.991 -0.6689 -0.3365 -0.4970
 4185TIP3   OH234189   2.822   3.319   1.868 -0.3717 -0.0286 -0.1819
 4185TIP3    H134190   2.875   3.397   1.849 -1.8049  0.7029 -1.3762
 4185TIP3    H234191   2.874   3.270   1.932  1.1396  1.2815 -0.3363
 4186TIP3   OH234192   5.161   2.118   8.418  0.3076  0.0395 -0.9752
 4186TIP3    H134193   5.245   2.128   8.372  1.1649  0.3074  0.5833
 4186TIP3    H234194   5.184   2.080   8.502 -0.8657  2.0076  0.3265
 4187TIP3   OH234195   4.142   2.693   7.967 -0.6303  0.1849 -0.3077
 4187TIP3    H134196   4.109   2.745   7.894 -1.5584  2.0656  1.3412
 4187TIP3    H234197   4.070   2.692   8.030 -0.6757 -3.2492 -0.2332
 4188TIP3   OH234198   5.831   5.771   7.915 -0.0290  0.0428 -0.0539
 4188TIP3    H134199   5.770   5.835   7.879 -2.3849 -1.5728  0.7991
 4188TIP3    H234200   5.893   5.822   7.967 -1.4240  1.6429  0.0907
 4189TIP3   OH234201   5.881   5.627   8.282  1.1559  0.2748 -0.5413
 4189TIP3    H134202   5.915   5.596   8.198 -1.4036 -2.5356 -0.7301
 4189TIP3    H234203   5.911   5.562   8.345  0.2918  0.5020  0.1222
 4190TIP3   OH234204   0.948   4.807   7.603 -0.3343 -0.4671 -0.0058
 4190TIP3    H134205   0.862   4.809   7.560 -1.6785  1.2753  2.5004
 4190TIP3    H234206   0.937   4.861   7.681  2.0140 -3.0471  2.3566
 4191TIP3   OH234207   3.041   2.874   3.333 -0.7893  0.0591 -0.1089
 4191TIP3    H134208   3.115   2.879   3.273 -0.7591  0.0807 -0.0701
 4191TIP3    H234209   3.065   2.932   3.405 -0.1829 -1.0631  0.6202
 4192TIP3   OH234210   0.115   2.872   1.438  0.0699 -0.1895 -0.5087
 4192TIP3    H134211   0.182   2.882   1.369  0.1262  2.3067 -0.2040
 4192TIP3    H234212   0.035   2.907   1.398 -0.4603 -0.8548 -0.0379
 4193TIP3   OH234213   3.891   1.881   2.968 -0.7012 -0.2143 -0.0165
 4193TIP3    H134214   3.925   1.828   2.897 -1.0897 -2.6743  1.5158
 4193TIP3    H234215   3.796   1.869   2.964 -0.7817  0.2127  0.4779
 4194TIP3   OH234216   2.856   4.623   2.520 -0.2151 -0.1036 -0.4157
 4194TIP3    H134217   2.918   4.563   2.560  0.7703  0.8648 -0.4202
 4194TIP3    H234218   2.821   4.674   2.593 -0.5827 -0.2564 -0.4804
 4195TIP3   OH234219   6.247   6.415   7.553 -0.2018  0.2443 -0.0891
 4195TIP3    H134220   6.168   6.446   7.509  1.5792  1.5719 -2.5667
 4195TIP3    H234221   6.266   6.482   7.618  0.9153  2.0001 -2.1040
 4196TIP3   OH234222   2.401   6.109   8.094  0.4835 -0.5777  0.1795
 4196TIP3    H134223   2.491   6.129   8.121  0.3914  2.3671 -1.3430
 4196TIP3    H234224   2.349   6.180   8.131 -0.7110 -0.5523 -1.4602
 4197TIP3   OH234225   2.526   6.363   1.133 -0.6191  0.9568 -0.0296
 4197TIP3    H134226   2.453   6.341   1.074 -0.9435  1.1273  0.3000
 4197TIP3    H234227   2.574   6.431   1.086  0.0958 -0.0825 -0.8243
 4198TIP3   OH234228   1.403   1.769   0.272  0.2149  0.2488  0.0295
 4198TIP3    H134229   1.346   1.739   0.201  1.8456  0.0818 -1.2568
 4198TIP3    H234230   1.344   1.780   0.347 -1.1009 -2.4485 -0.4829
 4199TIP3   OH234231   3.220   3.162   0.611 -0.0707 -0.3060 -0.5884
 4199TIP3    H134232   3.220   3.066   0.614 -0.5422 -0.2901  0.1192
 4199TIP3    H234233   3.243   3.189   0.700  0.7418  0.2439 -0.9534
 4200TIP3   OH234234   3.720   2.856   8.384 -0.3095  0.1034 -0.7896
 4200TIP3    H134235   3.753   2.780   8.335 -0.4104 -0.6777  0.3055
 4200TIP3    H234236   3.670   2.817   8.456  0.1432  1.2051  0.1444
 4201TIP3   OH234237   0.408   3.744   2.958  0.3283  0.9179  0.3580
 4201TIP3    H134238   0.323   3.786   2.962  1.5072  3.4591  3.6106
 4201TIP3    H234239   0.448   3.777   2.878 -1.9155 -0.9929 -1.6812
 4202TIP3   OH234240   4.136   3.602   2.513  0.5573  0.5384  0.5089
 4202TIP3    H134241   4.089   3.657   2.450  1.4202  1.1868  0.4062
 4202TIP3    H234242   4.224   3.640   2.516  1.4763 -1.4077 -0.2920
 4203TIP3   OH234243   6.028   1.772   0.039  0.2215  1.1324 -0.1664
 4203TIP3    H134244   5.979   1.763   0.121 -1.5199  1.2536 -1.1489
 4203TIP3    H234245   6.099   1.708   0.046 -1.2994 -0.5631  0.4566
 4204TIP3   OH234246   2.800   0.993   0.920 -0.4360  0.1534  0.0274
 4204TIP3    H134247   2.725   0.973   0.976 -0.5360  0.6019  0.0622
 4204TIP3    H234248   2.857   1.048   0.974 -0.8478  1.1485 -0.5060
 4205TIP3   OH234249   2.125   4.230   0.557  0.3416  0.1992 -0.7079
 4205TIP3    H134250   2.091   4.313   0.591  1.1652  0.1888  0.1771
 4205TIP3    H234251   2.166   4.188   0.633 -1.8020 -1.9633 -0.6336
 4206TIP3   OH234252   3.834   1.823   8.418 -0.1658 -0.4221 -0.3466
 4206TIP3    H134253   3.843   1.729   8.407 -1.1158 -0.4178 -1.3214
 4206TIP3    H234254   3.912   1.859   8.376 -0.8558 -0.7014 -1.9362
 4207TIP3   OH234255   3.493   6.759   7.035  0.0481 -0.1481  0.0694
 4207TIP3    H134256   3.521   6.734   7.123 -3.0111 -0.2414  1.1294
 4207TIP3    H234257   3.477   6.853   7.040  1.6308  0.2165 -0.9736
 4208TIP3   OH234258   5.170   3.933   8.054 -0.3294 -0.2837 -0.0793
 4208TIP3    H134259   5.173   3.875   7.979 -3.1343  0.2214 -0.6949
 4208TIP3    H234260   5.090   3.908   8.101 -0.0572  1.1696  1.2606
 4209TIP3   OH234261   1.393   4.502   1.430 -0.2324 -0.0521 -0.4600
 4209TIP3    H134262   1.360   4.567   1.493 -0.5244 -0.4234 -0.2241
 4209TIP3    H234263   1.459   4.453   1.478 -0.8726 -0.7273 -0.2383
 4210TIP3   OH234264   1.394   0.911   7.574 -1.1650  0.5840 -0.4882
 4210TIP3    H134265   1.431   0.823   7.576  0.0618  1.0621 -0.6789
 4210TIP3    H234266   1.302   0.900   7.597 -0.5794 -0.5297  1.6107
 4211TIP3   OH234267   3.419   2.751   2.598 -0.3815 -0.6174 -0.2383
 4211TIP3    H134268   3.495   2.777   2.651 -1.0297  1.3937 -0.1942
 4211TIP3    H234269   3.388   2.833   2.560 -0.5491 -1.8413 -2.9803
 4212TIP3   OH234270   6.412   5.865   1.757  0.7281 -0.2760  0.6674
 4212TIP3    H134271   6.350   5.902   1.695 -2.5816  1.5322  4.6217
 4212TIP3    H234272   6.460   5.941   1.791  2.2724 -1.1869  0.6152
 4213TIP3   OH234273   2.094   6.516   0.092  0.3782 -0.0201  0.0286
 4213TIP3    H134274   2.107   6.577   0.164  0.4000 -0.3004  0.2662
 4213TIP3    H234275   2.160   6.540   0.028 -0.2026  0.7843 -0.2771
 4214TIP3   OH234276   2.357   6.801   7.414 -0.3396 -1.0052  0.2066
 4214TIP3    H134277   2.313   6.791   7.329 -0.4870 -0.6952  0.2445
 4214TIP3    H234278   2.428   6.863   7.397 -0.3620 -0.9522  0.3055
 4215TIP3   OH234279   1.966   2.967   1.981  0.4481 -0.4713 -0.1118
 4215TIP3    H134280   1.993   2.990   2.070 -2.3625  0.9287  0.4839
 4215TIP3    H234281   2.049   2.951   1.935  2.1661  1.5001  2.0115
 4216TIP3   OH234282   5.002   3.096   7.449 -0.3919 -0.2066 -0.4887
 4216TIP3    H134283   4.942   3.168   7.431 -1.0858 -0.6521 -0.0334
 4216TIP3    H234284   4.950   3.017   7.434  0.2802 -0.6110 -0.7273
 4217TIP3   OH234285   0.987   3.107   0.433 -0.4937  0.2516  0.2875
 4217TIP3    H134286   0.913   3.047   0.432 -1.4157  1.3504  1.0725
 4217TIP3    H234287   1.016   3.108   0.525 -1.1152  1.7424  0.4817
 4218TIP3   OH234288   1.470   3.553   8.379 -0.1445 -1.1203 -0.2418
 4218TIP3    H134289   1.421   3.585   8.455  0.3576  0.5762 -0.5864
 4218TIP3    H234290   1.556   3.529   8.414  0.4857  0.7516 -0.4038
 4219TIP3   OH234291   0.953   4.231   0.351 -0.3031 -0.2027  0.6047
 4219TIP3    H134292   1.027   4.211   0.294 -1.9935 -1.7411 -1.2183
 4219TIP3    H234293   0.879   4.241   0.290 -1.3538  3.0015  2.1613
 4220TIP3   OH234294   1.892   6.389   1.450 -0.2623  0.1461 -0.2273
 4220TIP3    H134295   1.952   6.360   1.518  0.7411  0.3548 -0.9861
 4220TIP3    H234296   1.870   6.480   1.473 -0.2934  0.0661  0.0561
 4221TIP3   OH234297   4.099   2.924   1.756  0.3140 -0.1922 -0.2998
 4221TIP3    H134298   4.149   2.845   1.738  0.0524 -0.8262  1.5284
 4221TIP3    H234299   4.009   2.901   1.729  0.0117 -0.9715  1.2306
 4222TIP3   OH234300   0.316   2.167   0.899  0.2049  0.0681  0.3600
 4222TIP3    H134301   0.273   2.133   0.821  0.7002 -0.6989  0.4150
 4222TIP3    H234302   0.309   2.262   0.890 -0.5468 -0.0267 -0.1578
 4223TIP3   OH234303   4.378   0.212   0.023 -0.6021 -0.2434  0.1593
 4223TIP3    H134304   4.401   0.292  -0.024 -2.7070 -0.8265 -2.0699
 4223TIP3    H234305   4.355   0.149  -0.046 -0.7156 -2.2216  1.8971
 4224TIP3   OH234306   1.479   0.248   0.965 -0.1730 -0.0911 -0.2447
 4224TIP3    H134307   1.412   0.237   1.033  1.8398 -2.5732  1.5204
 4224TIP3    H234308   1.483   0.163   0.921  2.3251 -0.3311  0.2959
 4225TIP3   OH234309   3.563   5.808   1.690  0.0325 -0.5415 -0.2037
 4225TIP3    H134310   3.533   5.882   1.743 -0.8760 -0.4143 -0.8609
 4225TIP3    H234311   3.637   5.772   1.738 -0.9640 -0.6408  1.3396
 4226TIP3   OH234312   4.700   3.907   2.692  0.9030  0.0858 -0.7348
 4226TIP3    H134313   4.616   3.938   2.658  0.5929  1.2914  1.0080
 4226TIP3    H234314   4.676   3.847   2.763  1.5302 -1.1265 -1.5173
 4227TIP3   OH234315   1.686   3.584   0.901  0.1804 -0.1552 -0.0907
 4227TIP3    H134316   1.727   3.500   0.921 -0.9998 -0.9776 -0.9859
 4227TIP3    H234317   1.593   3.569   0.915 -0.0771  0.8928 -0.6141
 4228TIP3   OH234318   1.102   5.060   8.104 -0.1176  0.4982 -0.6423
 4228TIP3    H134319   1.118   5.102   8.019 -0.6041  1.0099 -0.4884
 4228TIP3    H234320   1.083   4.968   8.082  2.4632 -0.0463 -0.8660
 4229TIP3   OH234321   5.278   0.344   8.096  0.0595  0.0404  0.0834
 4229TIP3    H134322   5.249   0.281   8.162 -1.5164  0.5697 -0.0690
 4229TIP3    H234323   5.373   0.347   8.107 -0.0733 -0.5311  1.7498
 4230TIP3   OH234324   3.563   4.070   0.131  0.2036  0.2794 -0.5350
 4230TIP3    H134325   3.565   3.987   0.084 -0.3941  0.9250 -1.7666
 4230TIP3    H234326   3.568   4.137   0.062 -0.3661  1.2722  0.3499
 4231TIP3   OH234327   5.619   1.763   1.110  0.2304  0.2011  0.0967
 4231TIP3    H134328   5.537   1.771   1.062 -0.1482 -0.8665  0.5426
 4231TIP3    H234329   5.659   1.850   1.104 -0.9493  0.7493 -0.0840
 4232TIP3   OH234330   4.897   5.232   2.026  0.0415  0.3336 -0.1228
 4232TIP3    H134331   4.843   5.217   2.103  1.4776 -0.9153  0.7110
 4232TIP3    H234332   4.904   5.146   1.984 -0.1027  0.8441 -1.2259
 4233TIP3   OH234333   1.107   4.637   8.407 -0.5392  0.5930 -0.5759
 4233TIP3    H134334   1.141   4.717   8.448 -1.7037  1.2246 -0.8085
 4233TIP3    H234335   1.179   4.607   8.351  0.0788  1.2164 -0.1398
 4234TIP3   OH234336   0.244   1.965   7.825  0.2021  0.2045 -0.1074
 4234TIP3    H134337   0.252   1.980   7.919  0.9835 -0.3529 -0.0765
 4234TIP3    H234338   0.319   2.010   7.787 -0.3833  0.8497 -0.5184
 4235TIP3   OH234339   5.192   0.662   7.424  0.2925 -0.0223  0.1471
 4235TIP3    H134340   5.152   0.735   7.377  0.8876  1.3525  1.6450
 4235TIP3    H234341   5.286   0.674   7.410  0.3593 -1.0373 -0.3187
 4236TIP3   OH234342   3.460   2.941   0.538  0.2153 -0.6410 -0.2603
 4236TIP3    H134343   3.420   2.884   0.472 -1.5629  0.4041 -0.1634
 4236TIP3    H234344   3.466   3.027   0.495 -0.9870  0.0608  0.8979
 4237TIP3   OH234345   3.102   4.552   8.428 -0.4081  0.6930 -0.2231
 4237TIP3    H134346   3.064   4.596   8.504  1.9614  2.6170 -0.0327
 4237TIP3    H234347   3.132   4.467   8.462 -1.9468  0.2976  0.2399
 4238TIP3   OH234348   1.989   0.428   1.056  0.0249 -0.0711 -0.0619
 4238TIP3    H134349   1.945   0.387   1.131  1.1158 -4.5588 -1.5654
 4238TIP3    H234350   1.930   0.412   0.982  0.9648  0.2399 -0.8988
 4239TIP3   OH234351   0.219   4.621   2.867  0.4533  0.4274 -0.5266
 4239TIP3    H134352   0.291   4.684   2.872  0.8864 -0.0373 -0.8634
 4239TIP3    H234353   0.140   4.673   2.886  0.9239  0.8371  0.3638
 4240TIP3   OH234354   3.797   3.575   8.185  0.8532  0.4732  0.1302
 4240TIP3    H134355   3.749   3.542   8.109  0.5684  0.8930  0.1223
 4240TIP3    H234356   3.833   3.497   8.226  0.4401  0.1784 -0.0523
 4241TIP3   OH234357   6.466   3.821   1.898  0.3832  0.2252  0.2285
 4241TIP3    H134358   6.426   3.764   1.965 -2.3837 -0.4182 -1.7941
 4241TIP3    H234359   6.444   3.909   1.927 -2.0392 -0.0880 -0.4081
 4242TIP3   OH234360   4.503   5.363   7.330  0.1143  0.1860  0.0368
 4242TIP3    H134361   4.549   5.386   7.411  0.4697 -0.0926 -0.0800
 4242TIP3    H234362   4.448   5.439   7.311 -0.7117 -0.1376  1.0619
 4243TIP3   OH234363   4.265   3.050   7.940 -0.1587 -0.0660 -0.2526
 4243TIP3    H134364   4.293   3.057   8.031 -1.2152 -0.5708  0.1297
 4243TIP3    H234365   4.299   2.965   7.911  0.7669  0.3952 -0.5575
 4244TIP3   OH234366   5.094   3.521   3.007 -0.2802  0.7753  0.0862
 4244TIP3    H134367   5.078   3.464   2.932 -0.0878 -1.0767  1.3709
 4244TIP3    H234368   5.142   3.595   2.971 -2.0001  0.9865 -1.9500
 4245TIP3   OH234369   3.724   4.965   8.021  0.0856  0.3550 -0.1753
 4245TIP3    H134370   3.749   4.974   7.929 -0.3824 -1.6736 -0.5425
 4245TIP3    H234371   3.693   5.053   8.046  0.4789  1.0082 -1.8476
 4246TIP3   OH234372   6.789   1.867   7.405 -0.0047  0.1973 -0.3391
 4246TIP3    H134373   6.784   1.923   7.483 -2.0034  1.8076 -1.5324
 4246TIP3    H234374   6.822   1.925   7.336 -0.2959 -0.6197 -1.1847
 4247TIP3   OH234375   0.198   4.092   7.948  0.0928  0.1612 -0.0924
 4247TIP3    H134376   0.179   4.132   7.863  0.7406  1.6601  0.4336
 4247TIP3    H234377   0.112   4.071   7.984 -0.2393  0.4935 -0.6671
 4248TIP3   OH234378   2.040   3.958   0.378  0.4117  0.0553  0.1990
 4248TIP3    H134379   2.132   3.958   0.351  0.7105  0.0645  1.1986
 4248TIP3    H234380   2.003   4.037   0.336  0.6063 -0.4610 -0.9828
 4249TIP3   OH234381   6.892   4.785   7.590  0.1812  0.3211  0.1487
 4249TIP3    H134382   6.912   4.875   7.561 -0.7711  0.7099  0.6446
 4249TIP3    H234383   6.808   4.793   7.634  1.0174 -0.4648  1.9581
 4250TIP3   OH234384   4.699   3.858   1.278  0.2372  0.2330  0.4113
 4250TIP3    H134385   4.648   3.939   1.275  0.9608  0.6737 -0.9380
 4250TIP3    H234386   4.784   3.882   1.241  0.0690 -1.4162 -1.2171
 4251TIP3   OH234387   3.794   5.191   2.023  0.3695 -0.1493 -0.4163
 4251TIP3    H134388   3.802   5.272   2.074  1.1225 -1.2751  1.3423
 4251TIP3    H234389   3.734   5.214   1.952 -1.0155  1.4158  1.1556
 4252TIP3   OH234390   6.342   5.761   0.941  0.1387 -0.5100 -0.5337
 4252TIP3    H134391   6.360   5.758   0.847 -0.7663 -0.1373 -0.7361
 4252TIP3    H234392   6.264   5.816   0.948  0.8613  0.4084  0.5451
 4253TIP3   OH234393   0.180   0.540   1.332  0.5478 -0.8960  0.2390
 4253TIP3    H134394   0.201   0.624   1.374  1.0982 -1.6775  1.6010
 4253TIP3    H234395   0.135   0.564   1.251  1.7164  0.7433  0.0171
 4254TIP3   OH234396   3.161   4.240   0.780  0.1411 -0.0812  0.0921
 4254TIP3    H134397   3.169   4.298   0.855  0.7246  1.3568 -1.0365
 4254TIP3    H234398   3.243   4.252   0.731 -0.3587 -0.7090 -0.9474
 4255TIP3   OH234399   1.604   6.761   1.706  0.3353  0.2449  0.2471
 4255TIP3    H134400   1.697   6.783   1.709  1.1573 -2.8517  0.9310
 4255TIP3    H234401   1.580   6.744   1.797 -0.2875 -1.0068 -0.1209
 4256TIP3   OH234402   3.468   3.746   1.677  0.1266 -0.6429  0.7462
 4256TIP3    H134403   3.466   3.839   1.702 -2.0773 -0.5758  0.4349
 4256TIP3    H234404   3.560   3.721   1.689  0.7478  1.5315  0.9702
 4257TIP3   OH234405   3.131   4.433   1.874 -0.1153 -0.2732  0.0075
 4257TIP3    H134406   3.051   4.472   1.911  0.6857  0.3299  1.1594
 4257TIP3    H234407   3.099   4.363   1.817 -1.5738  1.6645 -1.6775
 4258TIP3   OH234408   0.122   1.082   2.244 -0.3312 -0.0408 -0.7214
 4258TIP3    H134409   0.131   1.176   2.257  2.3432 -0.2072 -0.9676
 4258TIP3    H234410   0.142   1.069   2.151  0.4673 -0.9541 -0.4382
 4259TIP3   OH234411   4.162   6.463   0.818  0.0294 -0.0678  0.5150
 4259TIP3    H134412   4.185   6.529   0.752  0.6944 -1.9417 -1.2190
 4259TIP3    H234413   4.107   6.400   0.771  1.2425 -1.9333  1.4755
 4260TIP3   OH234414   0.001   1.582   1.790  0.0127  0.3951  0.4592
 4260TIP3    H134415  -0.033   1.526   1.720  0.7559  1.0964 -0.5035
 4260TIP3    H234416   0.063   1.640   1.746 -0.7452  2.0089  1.4137
 4261TIP3   OH234417   6.233   3.506   1.081  0.0451  0.1256 -0.5754
 4261TIP3    H134418   6.154   3.478   1.034 -0.3429  0.4199 -0.1012
 4261TIP3    H234419   6.247   3.437   1.146 -0.9704  1.0386  0.6639
 4262TIP3   OH234420   2.870   2.886   7.394 -0.2868 -0.3344  0.1839
 4262TIP3    H134421   2.811   2.812   7.397 -0.4298 -0.2582 -0.4595
 4262TIP3    H234422   2.911   2.880   7.308 -1.4932  1.2289 -0.5633
 4263TIP3   OH234423   0.106   6.165   2.523 -0.1201 -0.1218 -0.0914
 4263TIP3    H134424   0.155   6.177   2.605  0.0698 -0.3881 -0.1638
 4263TIP3    H234425   0.065   6.250   2.507  0.2510  0.0810  0.0158
 4264TIP3   OH234426   0.966   0.239   8.521  0.2280 -0.5081  0.0874
 4264TIP3    H134427   0.876   0.269   8.508  0.0355 -0.9312  0.4401
 4264TIP3    H234428   0.958   0.157   8.569  0.8331 -0.2309  0.6758
 4265TIP3   OH234429   4.581   3.305   1.293  0.7335 -0.3251 -0.1901
 4265TIP3    H134430   4.574   3.341   1.381  0.4549  0.7959 -0.6611
 4265TIP3    H234431   4.600   3.212   1.307 -1.9532 -0.7837  1.0793
 4266TIP3   OH234432   0.357   3.094   0.100  0.5083 -0.3558  0.0080
 4266TIP3    H134433   0.305   3.050   0.168  0.9516  0.9916  1.2976
 4266TIP3    H234434   0.293   3.118   0.033  0.0624 -1.7736 -0.1025
 4267TIP3   OH234435   1.110   4.193   7.326  0.1047 -0.0511 -0.1185
 4267TIP3    H134436   1.055   4.148   7.261 -0.0785  0.1817 -0.1286
 4267TIP3    H234437   1.197   4.157   7.313  0.3250  0.8180 -1.3018
 4268TIP3   OH234438   0.710   2.650   0.133  0.1564  0.4221 -0.0848
 4268TIP3    H134439   0.729   2.723   0.075  1.2906  0.8623  0.7897
 4268TIP3    H234440   0.741   2.573   0.086 -0.6078  0.5499 -0.8107
 4269TIP3   OH234441   0.852   3.721   1.822  1.1449 -0.1877 -0.4549
 4269TIP3    H134442   0.790   3.793   1.837  0.2218 -1.0767  0.1138
 4269TIP3    H234443   0.892   3.741   1.738  1.4161  1.3487 -0.0097
 4270TIP3   OH234444   1.902   6.669   7.660  1.0952  0.8450  0.4307
 4270TIP3    H134445   1.876   6.760   7.640 -1.6613  0.2075  0.6682
 4270TIP3    H234446   1.932   6.672   7.751 -0.2808  1.3438  0.8971
 4271TIP3   OH234447   2.601   0.169   0.879 -0.0021 -0.1217 -0.6742
 4271TIP3    H134448   2.619   0.081   0.912  0.4012 -0.0509 -0.6994
 4271TIP3    H234449   2.519   0.195   0.923  0.5164 -0.0358  0.2749
 4272TIP3   OH234450   2.375   2.135   6.965 -0.3473  0.0080  0.5003
 4272TIP3    H134451   2.324   2.153   7.043  0.6184 -1.8934  1.6294
 4272TIP3    H234452   2.313   2.147   6.892 -2.4867 -2.3484  1.7896
 4273TIP3   OH234453   6.815   5.858   7.484 -0.1216 -0.1739  0.1761
 4273TIP3    H134454   6.797   5.925   7.418  0.1573  0.4431  0.7128
 4273TIP3    H234455   6.901   5.824   7.460 -0.0485  0.0043  0.1834
 4274TIP3   OH234456   0.091   0.505   7.651 -0.6518  0.7154 -0.3458
 4274TIP3    H134457   0.003   0.543   7.649 -1.1709 -0.4913 -1.1041
 4274TIP3    H234458   0.150   0.581   7.654 -1.7063  1.6024  2.9339
 4275TIP3   OH234459   3.742   5.092   7.080  0.2053 -0.0826 -0.1616
 4275TIP3    H134460   3.770   5.089   6.988  0.4077 -0.3373 -0.0900
 4275TIP3    H234461   3.809   5.144   7.124  1.8584 -2.5990  0.4672
 4276TIP3   OH234462   0.747   4.977   0.949 -0.4039  0.0908  0.7569
 4276TIP3    H134463   0.670   4.953   0.897  0.2374 -0.7508  0.1765
 4276TIP3    H234464   0.820   4.974   0.887  0.4872 -1.5494  1.8104
 4277TIP3   OH234465   6.857   6.377   1.861  0.1911  0.3110  0.3495
 4277TIP3    H134466   6.796   6.335   1.800  0.8115 -2.6803  1.5895
 4277TIP3    H234467   6.939   6.384   1.811  0.3858 -1.0877  0.4191
 4278TIP3   OH234468   0.980   1.535   8.099 -0.5298 -0.7859  0.2137
 4278TIP3    H134469   0.910   1.471   8.107 -0.9283 -0.4701 -0.6139
 4278TIP3    H234470   1.051   1.488   8.054 -0.4767 -0.9052  0.4231
 4279TIP3   OH234471   2.488   0.376   1.647 -0.1712  0.6173  0.3810
 4279TIP3    H134472   2.445   0.319   1.711 -0.1693 -0.3736 -0.4834
 4279TIP3    H234473   2.557   0.323   1.609 -0.1638  1.1940 -0.4481
 4280TIP3   OH234474   1.910   6.356   1.172 -0.3537  0.2446  0.8948
 4280TIP3    H134475   1.912   6.351   1.268 -1.8357 -0.4407  0.9205
 4280TIP3    H234476   1.850   6.428   1.153 -1.8184 -1.0126  0.5241
 4281TIP3   OH234477   3.540   5.294   1.878 -0.1267 -0.4529  0.0497
 4281TIP3    H134478   3.479   5.305   1.805 -0.5838 -1.3008  0.2939
 4281TIP3    H234479   3.484   5.289   1.955 -0.1329 -4.6956 -0.0037
 4282TIP3   OH234480   3.184   5.170   0.921 -0.4198 -0.2465 -0.7303
 4282TIP3    H134481   3.141   5.108   0.981 -1.8051  1.4310  0.1184
 4282TIP3    H234482   3.150   5.256   0.948  1.3195  0.8744 -1.9450
 4283TIP3   OH234483   3.846   4.285   1.449 -0.1220  0.3141 -0.6345
 4283TIP3    H134484   3.921   4.305   1.504 -1.0740 -0.3762  0.9968
 4283TIP3    H234485   3.855   4.343   1.373  2.5727 -0.4832 -1.0115
 4284TIP3   OH234486   3.427   1.648   7.451  0.1577  0.3082 -0.3640
 4284TIP3    H134487   3.338   1.662   7.483  0.3806 -0.4945  0.6372
 4284TIP3    H234488   3.441   1.719   7.389 -0.9901  0.7486 -0.1453
 4285TIP3   OH234489   3.706   4.292   1.704 -0.1973  0.3378  0.7209
 4285TIP3    H134490   3.795   4.283   1.738 -0.0376  0.5387  0.3535
 4285TIP3    H234491   3.717   4.319   1.613 -0.5742 -2.5343 -0.2787
 4286TIP3   OH234492   5.983   2.718   7.148 -0.4132  0.7953  0.2597
 4286TIP3    H134493   5.997   2.745   7.057  1.8396 -2.0046 -0.3837
 4286TIP3    H234494   5.889   2.708   7.156 -0.7092  1.6412 -1.5781
 4287TIP3   OH234495   0.706   5.703   2.534 -0.1962  0.6395 -0.4919
 4287TIP3    H134496   0.709   5.792   2.568  0.0406 -0.3297  2.3614
 4287TIP3    H234497   0.631   5.663   2.578  0.2694 -0.8144 -0.9658
 4288TIP3   OH234498   1.261   6.452   0.203  0.1054  0.1293  0.3355
 4288TIP3    H134499   1.236   6.472   0.293  0.5264 -0.3407  0.5617
 4288TIP3    H234500   1.189   6.401   0.168  0.7995 -1.4068  1.0506
 4289TIP3   OH234501   4.877   1.016   1.170 -0.4934  0.4962  0.6929
 4289TIP3    H134502   4.822   0.957   1.222  0.6468 -0.6656  0.6449
 4289TIP3    H234503   4.966   0.992   1.194  0.0175  1.5074 -0.1240
 4290TIP3   OH234504   6.078   3.220   0.113  0.0627  0.1929 -0.2598
 4290TIP3    H134505   6.051   3.309   0.136  0.1562  0.4537 -1.1074
 4290TIP3    H234506   6.044   3.208   0.024  0.5353 -0.4201 -0.3598
 4291TIP3   OH234507   2.334   0.246   1.860 -0.3123  0.2871  0.9328
 4291TIP3    H134508   2.347   0.324   1.915 -0.0884  0.5402  0.5265
 4291TIP3    H234509   2.383   0.177   1.905 -0.6731  0.3327  1.4005
 4292TIP3   OH234510   0.161   5.600   1.188  0.2843  0.0640 -0.2156
 4292TIP3    H134511   0.097   5.671   1.185 -1.6118 -1.1993  3.5027
 4292TIP3    H234512   0.236   5.638   1.233  0.6125  0.5203 -1.1227
 4293TIP3   OH234513   4.781   2.350   8.154 -0.4472 -0.0850  0.1715
 4293TIP3    H134514   4.710   2.366   8.216 -1.7906  0.2704 -1.3993
 4293TIP3    H234515   4.756   2.398   8.075  0.2598 -2.0315 -1.3239
 4294TIP3   OH234516   2.347   0.328   8.486 -0.2566  0.1330 -0.5965
 4294TIP3    H134517   2.362   0.237   8.510  0.3098 -0.5345 -3.1349
 4294TIP3    H234518   2.273   0.325   8.426 -1.8770  1.7234  1.1961
 4295TIP3   OH234519   1.249   2.469   0.933  0.2467  0.6067  0.0261
 4295TIP3    H134520   1.211   2.430   0.854 -2.9600 -0.5288  1.9394
 4295TIP3    H234521   1.258   2.562   0.912  0.3250  0.2052 -1.9274
 4296TIP3   OH234522   6.048   6.220   7.491  0.7412 -0.7839  0.2973
 4296TIP3    H134523   6.140   6.221   7.518  1.1136 -1.6462 -0.8461
 4296TIP3    H234524   6.051   6.231   7.396 -0.3949  0.0137  0.3310
 4297TIP3   OH234525   0.161   0.832   2.088 -0.2492 -0.4315 -0.4416
 4297TIP3    H134526   0.088   0.841   2.149 -1.2594  0.6273 -1.7305
 4297TIP3    H234527   0.119   0.820   2.002  1.0926 -0.2386 -1.1531
 4298TIP3   OH234528   0.657   4.054   0.666  0.2772 -0.1189 -0.0841
 4298TIP3    H134529   0.735   4.034   0.615  0.4459 -0.8905  0.4621
 4298TIP3    H234530   0.585   4.014   0.617 -0.1101  2.2164 -1.6369
 4299TIP3   OH234531   6.250   2.035   2.544  0.7402 -0.2855  0.0349
 4299TIP3    H134532   6.230   2.112   2.490  1.1881 -0.1891  0.0048
 4299TIP3    H234533   6.196   1.966   2.508 -0.4955  0.2702  0.7349
 4300TIP3   OH234534   2.750   1.337   7.763 -0.2350  0.4155  0.0390
 4300TIP3    H134535   2.796   1.300   7.688 -0.7882 -0.4247  0.0961
 4300TIP3    H234536   2.750   1.266   7.828 -1.0999  0.5997  0.2496
 4301TIP3   OH234537   5.181   6.789   0.543  0.4028 -0.2286  0.1675
 4301TIP3    H134538   5.144   6.839   0.471  0.2277 -3.3521 -2.1234
 4301TIP3    H234539   5.105   6.760   0.594  0.5020  1.5967  1.4670
 4302TIP3   OH234540   0.538   3.590   1.556  0.9725  0.0158  0.4449
 4302TIP3    H134541   0.477   3.641   1.610  0.6256 -1.3491  1.3907
 4302TIP3    H234542   0.551   3.644   1.478 -1.1462  0.5303  0.3826
 4303TIP3   OH234543   6.073   5.586   1.011 -0.2845  0.3331  0.1805
 4303TIP3    H134544   6.101   5.652   0.948 -0.1678 -1.4161 -1.6904
 4303TIP3    H234545   5.985   5.615   1.038 -0.7907  0.5817 -1.6176
 4304TIP3   OH234546   0.791   2.788   1.233  0.3161  0.3435  0.1978
 4304TIP3    H134547   0.761   2.875   1.257 -1.0598  0.8130 -2.8491
 4304TIP3    H234548   0.754   2.731   1.300  0.4096  1.9371  1.6858
 4305TIP3   OH234549   1.818   6.795   3.059  0.7588  0.1978 -0.4669
 4305TIP3    H134550   1.752   6.776   2.992  0.2278 -2.6857  0.7294
 4305TIP3    H234551   1.857   6.878   3.031 -2.6470  1.5694 -1.7832
 4306TIP3   OH234552   2.142   0.097   1.012 -0.0423 -0.0505  0.5831
 4306TIP3    H134553   2.216   0.156   1.001 -0.1814 -0.1989 -1.4090
 4306TIP3    H234554   2.172   0.014   0.977 -0.7599 -0.4423  0.8763
 4307TIP3   OH234555   3.508   6.441   3.077  0.2639 -0.2078 -0.1308
 4307TIP3    H134556   3.578   6.419   3.139  1.6934 -0.1788 -1.6729
 4307TIP3    H234557   3.509   6.369   3.014 -1.1629 -0.2349 -0.1379
 4308TIP3   OH234558   2.527   6.430   8.411  0.6734  0.3481  0.3434
 4308TIP3    H134559   2.537   6.436   8.506  1.9172  1.3369  0.1774
 4308TIP3    H234560   2.616   6.440   8.377  0.1634  0.6628 -0.9566
 4309TIP3   OH234561   4.009   1.747   2.783 -0.0092  0.5459  0.1479
 4309TIP3    H134562   3.995   1.769   2.691  0.7310 -0.1761 -0.1410
 4309TIP3    H234563   4.089   1.695   2.784  0.6046  1.4664  1.3334
 4310TIP3   OH234564   6.221   5.985   1.568  0.1397 -0.1068 -0.2560
 4310TIP3    H134565   6.261   5.969   1.483 -0.2383  0.6608 -0.5853
 4310TIP3    H234566   6.199   6.078   1.568 -0.5374 -0.2521  0.3950
 4311TIP3   OH234567   6.948   2.593   0.714 -0.4157 -0.5314 -0.3288
 4311TIP3    H134568   6.865   2.635   0.738 -0.0708  0.4314 -0.7431
 4311TIP3    H234569   6.927   2.545   0.634 -0.2975  0.7980 -1.1987
 4312TIP3   OH234570   1.913   1.446   2.105 -0.3505  0.2783  0.2474
 4312TIP3    H134571   1.924   1.523   2.049  1.5967  0.5122  0.8765
 4312TIP3    H234572   1.818   1.436   2.114 -0.6696  1.5401 -1.2728
 4313TIP3   OH234573   4.563   4.902   2.775 -0.0942  0.3801  0.0605
 4313TIP3    H134574   4.525   4.815   2.786  0.5287  0.1952  0.8158
 4313TIP3    H234575   4.603   4.922   2.860  3.2280 -0.2616 -1.2149
 4314TIP3   OH234576   0.862   3.770   0.681  0.1359  0.7361 -0.1498
 4314TIP3    H134577   0.801   3.722   0.625 -1.3168 -0.8695  2.6024
 4314TIP3    H234578   0.818   3.853   0.700 -0.6332  0.1415  0.7474
 4315TIP3   OH234579   4.821   0.536   0.088 -0.3016  0.0289  0.2286
 4315TIP3    H134580   4.882   0.577   0.149 -0.9309  0.6739  0.4473
 4315TIP3    H234581   4.739   0.585   0.100 -1.1446 -1.4152  0.6224
 4316TIP3   OH234582   6.615   3.875   0.124 -0.4310 -0.3701 -0.1470
 4316TIP3    H134583   6.574   3.882   0.037 -1.9506  0.5839  0.5984
 4316TIP3    H234584   6.550   3.830   0.178 -0.2048  0.5063  0.8911
 4317TIP3   OH234585   1.117   3.446   0.076 -0.3643  0.6781  0.6397
 4317TIP3    H134586   1.086   3.390   0.147 -2.2758  1.5559  0.5664
 4317TIP3    H234587   1.212   3.444   0.083 -0.3904 -1.9692  1.0746
 4318TIP3   OH234588   5.678   5.318   8.259 -0.3136 -0.3852 -0.6199
 4318TIP3    H134589   5.611   5.284   8.199  0.0171 -1.6329 -0.3239
 4318TIP3    H234590   5.749   5.348   8.202 -0.2851 -0.9405 -0.8887
 4319TIP3   OH234591   2.739   0.353   8.241  0.1533  0.0595 -0.0683
 4319TIP3    H134592   2.772   0.443   8.249  0.5732 -0.2247  1.9269
 4319TIP3    H234593   2.776   0.308   8.317 -0.9675 -1.5212 -0.4327
 4320TIP3   OH234594   6.355   1.493   2.440  0.2588 -0.4928 -0.7823
 4320TIP3    H134595   6.392   1.560   2.382 -0.3140  0.7630  0.2536
 4320TIP3    H234596   6.261   1.499   2.427  0.2059 -1.2075 -0.7736
 4321TIP3   OH234597   5.893   4.218   8.135 -0.0975  0.0787 -0.1354
 4321TIP3    H134598   5.985   4.219   8.109 -0.1407  0.4612 -0.2697
 4321TIP3    H234599   5.855   4.295   8.094 -0.1294  0.8038  1.1873
 4322TIP3   OH234600   0.389   6.486   0.188  0.0890  0.0073  0.1228
 4322TIP3    H134601   0.390   6.392   0.169  0.3434 -0.0871  0.6068
 4322TIP3    H234602   0.353   6.492   0.277 -0.8644  0.4312 -0.2802
 4323TIP3   OH234603   5.221   6.147   6.627 -0.0942  0.5803 -0.5582
 4323TIP3    H134604   5.239   6.088   6.701 -1.4665  2.1461  1.1526
 4323TIP3    H234605   5.259   6.231   6.654 -0.5711  1.1723 -1.6813
 4324TIP3   OH234606   1.569   6.454   0.542  0.6449 -0.3243  0.5429
 4324TIP3    H134607   1.527   6.373   0.515  2.9063 -1.2730 -0.3457
 4324TIP3    H234608   1.549   6.517   0.472  2.3376 -1.3520 -0.9327
 4325TIP3   OH234609   6.232   1.924   8.180  0.3783 -0.5472 -0.4790
 4325TIP3    H134610   6.267   2.009   8.153 -0.8930 -1.0689 -4.3295
 4325TIP3    H234611   6.307   1.878   8.218  0.9767  2.3566  2.2912
 4326TIP3   OH234612   2.879   5.224   7.938 -0.5570  0.5984  0.4494
 4326TIP3    H134613   2.844   5.136   7.932  0.9103 -0.0117  0.5271
 4326TIP3    H234614   2.945   5.229   7.869 -2.0181  2.3330 -0.9281
 4327TIP3   OH234615   6.196   3.463   7.956  0.1435 -0.8281 -0.1265
 4327TIP3    H134616   6.207   3.371   7.980 -0.9889 -1.2869 -1.2213
 4327TIP3    H234617   6.285   3.500   7.961  0.5205 -1.8159  0.9097
 4328TIP3   OH234618   0.061   1.339   0.299  0.9179  0.0217  0.4790
 4328TIP3    H134619  -0.013   1.376   0.347  0.1961  1.8173 -1.8064
 4328TIP3    H234620   0.028   1.256   0.265  0.1121  0.5508 -0.0689
 4329TIP3   OH234621   2.050   3.602   0.540 -0.1993 -0.2587  0.2037
 4329TIP3    H134622   1.997   3.636   0.612  0.5584  1.0390  0.1768
 4329TIP3    H234623   2.029   3.659   0.466  0.0571 -0.7310 -0.2410
 4330TIP3   OH234624   1.665   3.073   7.602  0.1908 -0.0508  0.5605
 4330TIP3    H134625   1.708   3.064   7.687 -0.0830 -1.6552  0.5637
 4330TIP3    H234626   1.706   3.007   7.547 -0.9037 -0.2814 -0.0103
 4331TIP3   OH234627   2.629   5.886   7.624 -0.0785  0.1169 -0.1100
 4331TIP3    H134628   2.677   5.944   7.565 -1.5164  0.8483 -0.6371
 4331TIP3    H234629   2.623   5.935   7.706  1.0899 -0.4863  0.3426
 4332TIP3   OH234630   4.990   2.699   1.674 -0.0667  0.1115  0.2661
 4332TIP3    H134631   5.033   2.779   1.645  0.7076 -0.3092  0.2239
 4332TIP3    H234632   4.976   2.712   1.768 -0.3097  0.4567  0.1839
 4333TIP3   OH234633   3.141   6.786   8.354 -0.5229 -0.0515 -0.8566
 4333TIP3    H134634   3.224   6.739   8.366 -0.4643  0.1175 -0.5763
 4333TIP3    H234635   3.112   6.762   8.266 -0.5212 -0.6575 -0.6980
 4334TIP3   OH234636   6.576   0.771   1.182  0.2557  0.0244 -0.0257
 4334TIP3    H134637   6.631   0.818   1.120 -0.9590  1.5468  0.0030
 4334TIP3    H234638   6.634   0.749   1.254  1.8516 -2.2652 -1.8421
 4335TIP3   OH234639   1.469   2.606   7.009  0.2533  0.5015 -0.2707
 4335TIP3    H134640   1.554   2.648   7.025 -0.6980  1.7389  2.1416
 4335TIP3    H234641   1.484   2.514   7.029  0.8249  0.8906  1.3100
 4336TIP3   OH234642   2.907   2.531   8.179  0.1874  0.4524 -0.3391
 4336TIP3    H134643   2.971   2.460   8.176  0.2393  0.5183 -1.0471
 4336TIP3    H234644   2.893   2.554   8.087 -0.4995  0.7573 -0.1635
 4337TIP3   OH234645   5.382   4.797   6.695 -0.2079  0.4780  0.3323
 4337TIP3    H134646   5.440   4.740   6.745  0.3130  0.1917 -0.5678
 4337TIP3    H234647   5.294   4.761   6.710  0.2322 -1.5062 -1.3404
 4338TIP3   OH234648   3.554   2.776   0.744  0.2665 -0.6305 -0.7185
 4338TIP3    H134649   3.546   2.833   0.821 -0.6377 -1.5064 -0.1520
 4338TIP3    H234650   3.524   2.831   0.671 -0.0201 -0.1814 -0.2718
 4339TIP3   OH234651   1.275   5.849   1.997 -0.1369 -0.2688  0.2486
 4339TIP3    H134652   1.280   5.925   1.938  0.7206 -0.0674  0.5596
 4339TIP3    H234653   1.346   5.864   2.060  0.0143 -1.3138  0.3345
 4340TIP3   OH234654   3.827   2.064   0.103 -0.3636 -0.7376 -0.2294
 4340TIP3    H134655   3.782   1.980   0.112 -1.4711 -0.0554  1.0021
 4340TIP3    H234656   3.838   2.095   0.193  0.4333  0.2242 -0.6389
 4341TIP3   OH234657   4.384   1.392   8.128  0.2129 -0.1317  0.3593
 4341TIP3    H134658   4.353   1.312   8.170  0.1123 -0.7269 -0.7897
 4341TIP3    H234659   4.305   1.443   8.111  0.2303  0.0019  0.6756
 4342TIP3   OH234660   4.617   6.446   6.733  0.5119 -0.0216  0.0914
 4342TIP3    H134661   4.551   6.514   6.720  1.1236  0.4736 -0.4987
 4342TIP3    H234662   4.700   6.494   6.739  0.8384 -0.6358  0.7432
 4343TIP3   OH234663   0.024   3.839   6.776 -0.3721 -0.2016 -0.1726
 4343TIP3    H134664   0.096   3.883   6.730 -0.3918 -0.1469 -0.1509
 4343TIP3    H234665  -0.055   3.868   6.731 -0.2761 -1.5100 -1.2230
 4344TIP3   OH234666   5.691   0.778   0.855 -0.3381 -0.1642  0.0549
 4344TIP3    H134667   5.741   0.838   0.800 -0.2758  1.0476  1.3745
 4344TIP3    H234668   5.603   0.815   0.859 -0.3202 -0.1856  0.8264
 4345TIP3   OH234669   6.218   2.667   7.909 -0.1034 -0.4755 -0.2861
 4345TIP3    H134670   6.182   2.710   7.831 -1.3890  0.9160  1.0031
 4345TIP3    H234671   6.141   2.649   7.963  0.8120 -0.9130  0.8979
 4346TIP3   OH234672   5.433   3.796   8.028  0.2650 -0.0147 -0.1986
 4346TIP3    H134673   5.347   3.822   7.994 -0.4038 -1.5989  0.1705
 4346TIP3    H234674   5.435   3.701   8.017  2.0400  0.0064 -0.2978
 4347TIP3   OH234675   5.000   3.357   1.662  0.1740 -0.1034 -0.3343
 4347TIP3    H134676   4.918   3.334   1.706  0.1112 -0.1356 -0.4681
 4347TIP3    H234677   5.003   3.299   1.586  0.6204 -0.5350  0.0096
 4348TIP3   OH234678   4.336   2.711   1.959 -0.3018 -0.2320 -0.1923
 4348TIP3    H134679   4.388   2.631   1.956  1.0535  0.5839  0.3225
 4348TIP3    H234680   4.358   2.751   2.044  1.7277  2.3414 -1.7615
 4349TIP3   OH234681   4.780   4.482   1.874 -0.4447 -0.2872  0.1661
 4349TIP3    H134682   4.753   4.435   1.953 -1.4226 -0.7008 -0.3890
 4349TIP3    H234683   4.854   4.432   1.840  0.5760  0.4011  1.2814
 4350TIP3   OH234684   2.587   0.720   7.695  0.2412 -0.0649  0.2467
 4350TIP3    H134685   2.540   0.691   7.617  0.5997 -1.7360  0.6137
 4350TIP3    H234686   2.549   0.805   7.716 -2.0531 -0.9716  0.0648
 4351TIP3   OH234687   3.453   3.154   1.085 -0.2692  0.1829 -0.2148
 4351TIP3    H134688   3.471   3.226   1.145  1.6752 -1.4459  1.3132
 4351TIP3    H234689   3.361   3.133   1.100 -0.2693  0.9216  0.9536
 4352TIP3   OH234690   4.941   4.652   2.444  0.3182 -0.2550 -0.2284
 4352TIP3    H134691   4.878   4.581   2.430  0.0425  0.0053 -0.3160
 4352TIP3    H234692   5.020   4.608   2.474  1.0129 -0.8741 -2.7523
 4353TIP3   OH234693   0.052   0.260   1.745 -0.3615  0.1463  0.4376
 4353TIP3    H134694   0.074   0.324   1.677 -4.6503 -0.7939 -2.2252
 4353TIP3    H234695   0.035   0.314   1.823  0.2654  1.7914 -0.5000
 4354TIP3   OH234696   2.519   4.061   1.418 -0.0224  0.4612  0.2292
 4354TIP3    H134697   2.467   3.995   1.373  1.7352 -0.7496 -0.1305
 4354TIP3    H234698   2.523   4.031   1.508  2.2709 -1.0214 -0.2767
 4355TIP3   OH234699   5.111   2.034   2.257  0.2941  0.2522 -0.2953
 4355TIP3    H134700   5.170   1.985   2.314  1.9731  3.0439  0.6054
 4355TIP3    H234701   5.168   2.072   2.190 -0.8251  1.2173 -0.7486
 4356TIP3   OH234702   1.321   2.015   2.681  0.3762  0.6217 -0.3275
 4356TIP3    H134703   1.362   2.013   2.768 -0.5159  1.0391  0.1251
 4356TIP3    H234704   1.324   1.924   2.651  0.3172  0.3943  0.3284
 4357TIP3   OH234705   3.993   5.933   0.811 -0.2332  0.5429  0.5365
 4357TIP3    H134706   4.055   5.956   0.742 -1.3313  0.6730 -0.4313
 4357TIP3    H234707   3.990   6.010   0.868 -0.6380  1.1179 -0.2567
 4358TIP3   OH234708   2.215   3.769   7.762  0.2460 -0.0592  0.1297
 4358TIP3    H134709   2.136   3.818   7.785  0.1501 -0.6502  1.1001
 4358TIP3    H234710   2.270   3.832   7.715  0.5662  1.2865  2.2001
 4359TIP3   OH234711   1.942   5.055   0.230 -0.2399 -0.6737  0.6518
 4359TIP3    H134712   2.003   5.117   0.190  1.3801 -1.5703  1.6478
 4359TIP3    H234713   1.978   4.969   0.209  0.2481 -1.1872  3.2832
 4360TIP3   OH234714   0.344   2.348   2.268  0.0548 -0.1494  0.4474
 4360TIP3    H134715   0.341   2.422   2.328 -0.1962 -0.4808  0.8573
 4360TIP3    H234716   0.424   2.360   2.217  0.7891 -0.3777  1.5225
 4361TIP3   OH234717   4.862   6.318   2.347  0.1383 -0.0105 -0.2932
 4361TIP3    H134718   4.936   6.354   2.298  0.7953  1.3220  1.5648
 4361TIP3    H234719   4.786   6.368   2.317  0.5704  0.9468  0.1801
 4362TIP3   OH234720   4.161   0.016   6.767  0.0461 -0.4322 -0.4333
 4362TIP3    H134721   4.233  -0.029   6.810  0.4637 -0.4962 -1.1953
 4362TIP3    H234722   4.168  -0.008   6.675 -1.9499 -1.8173 -0.2829
 4363TIP3   OH234723   5.090   3.387   7.206  0.3494  0.1201  0.3348
 4363TIP3    H134724   5.098   3.435   7.124 -0.3394 -2.1265 -1.1466
 4363TIP3    H234725   5.171   3.336   7.212 -0.3310 -1.0128  0.1350
 4364TIP3   OH234726   2.415   0.588   7.906  0.2056 -0.3083  0.4326
 4364TIP3    H134727   2.511   0.588   7.915  0.4644 -1.4488 -1.7903
 4364TIP3    H234728   2.391   0.496   7.909 -0.3407 -0.3748 -2.6680
 4365TIP3   OH234729   0.924   1.228   1.493  0.4431  0.0474  0.0511
 4365TIP3    H134730   0.964   1.314   1.480 -1.5709  1.2052  0.8693
 4365TIP3    H234731   0.901   1.198   1.405 -0.7483  1.3919 -0.1444
 4366TIP3   OH234732   1.542   6.640   1.964  0.0160 -0.5799  0.2465
 4366TIP3    H134733   1.497   6.557   1.947 -0.2640 -0.2395 -0.7490
 4366TIP3    H234734   1.609   6.619   2.029  0.6427 -1.8077 -0.7683
 4367TIP3   OH234735   2.347   0.147   1.510 -0.0846 -0.2224  0.0830
 4367TIP3    H134736   2.254   0.149   1.488 -0.0802 -1.5402 -0.1579
 4367TIP3    H234737   2.385   0.220   1.461 -0.5904 -1.2234 -1.9119
 4368TIP3   OH234738   6.588   3.738   7.704  0.1503 -0.7807 -0.1119
 4368TIP3    H134739   6.639   3.718   7.626  2.4714 -0.6117  1.2869
 4368TIP3    H234740   6.646   3.789   7.759 -1.8661  0.2298  1.2122
 4369TIP3   OH234741   0.152   1.841   7.191 -0.0379 -0.5617  0.2496
 4369TIP3    H134742   0.174   1.928   7.226 -0.5560  0.1610 -1.1576
 4369TIP3    H234743   0.212   1.828   7.118  0.9528 -2.0060  1.2637
 4370TIP3   OH234744   1.270   5.225   7.974  0.2891 -0.2910  0.3584
 4370TIP3    H134745   1.339   5.279   7.934 -0.2040 -0.7340 -1.1195
 4370TIP3    H234746   1.284   5.138   7.938 -0.7475 -0.4937  0.4402
 4371TIP3   OH234747   4.771   1.721   0.245 -0.1087  0.0904  0.1857
 4371TIP3    H134748   4.760   1.732   0.150 -0.9440 -0.6805  0.1807
 4371TIP3    H234749   4.758   1.809   0.280 -0.7199  0.2235 -0.3427
 4372TIP3   OH234750   0.543   1.055   8.464 -0.4228 -0.8544 -0.5366
 4372TIP3    H134751   0.618   1.064   8.522 -0.3471 -0.1796 -0.7304
 4372TIP3    H234752   0.487   1.130   8.485 -1.1880 -1.4984 -0.1931
 4373TIP3   OH234753   0.440   3.320   8.327  0.9492  0.0995 -0.8948
 4373TIP3    H134754   0.345   3.325   8.321  0.4336 -4.2627  0.3790
 4373TIP3    H234755   0.469   3.299   8.238  0.7647  1.2405 -1.2418
 4374TIP3   OH234756   0.985   2.088   1.977  0.3421  0.3593  0.2555
 4374TIP3    H134757   1.024   2.058   1.895  0.0230 -2.4848  1.0349
 4374TIP3    H234758   0.895   2.112   1.953  0.6041  0.6882 -0.4182
 4375TIP3   OH234759   5.593   1.697   6.937 -0.0836  0.4238  0.1896
 4375TIP3    H134760   5.631   1.677   6.852  0.2774 -0.3687  0.5278
 4375TIP3    H234761   5.540   1.620   6.958  1.6555 -0.4313  1.6978
 4376TIP3   OH234762   5.198   2.101   1.424 -0.4980  0.0532 -0.2949
 4376TIP3    H134763   5.283   2.125   1.462 -0.7259 -1.4384  1.2589
 4376TIP3    H234764   5.188   2.162   1.351  1.8817  0.3175 -0.5062
 4377TIP3   OH234765   3.146   4.045   8.454 -0.2740 -0.6159 -0.2930
 4377TIP3    H134766   3.213   4.050   8.387 -0.4799  0.1690 -0.4495
 4377TIP3    H234767   3.190   4.006   8.529  0.7533  1.1101  0.0715
 4378TIP3   OH234768   2.342   5.499   2.674 -0.0579  0.0087 -0.3450
 4378TIP3    H134769   2.432   5.490   2.643  0.0517 -0.0306 -0.0203
 4378TIP3    H234770   2.289   5.453   2.608  0.1908 -0.2565 -0.3631
 4379TIP3   OH234771   0.535   3.018   2.257  0.1286  0.1509  0.5901
 4379TIP3    H134772   0.617   3.036   2.302  0.9531  2.6514 -1.6417
 4379TIP3    H234773   0.473   2.998   2.327  1.9189  1.1965  2.5951
 4380TIP3   OH234774   4.582   1.097   6.885  0.1889 -0.3345 -0.3230
 4380TIP3    H134775   4.588   1.031   6.817  0.4167 -0.4011 -0.2367
 4380TIP3    H234776   4.488   1.102   6.906  0.0395  0.1188 -1.0677
 4381TIP3   OH234777   2.905   1.917   0.289 -0.3392  0.1598  0.1339
 4381TIP3    H134778   2.837   1.882   0.231 -1.0552  0.5592  0.7207
 4381TIP3    H234779   2.987   1.897   0.244 -0.8549 -0.0726 -0.7262
 4382TIP3   OH234780   4.163   4.632   1.702 -0.0499 -0.0521  0.5127
 4382TIP3    H134781   4.244   4.671   1.670  1.2499 -1.0813  2.3317
 4382TIP3    H234782   4.111   4.706   1.733  0.8754  0.5098  0.7468
 4383TIP3   OH234783   0.800   0.506   0.957  0.1355 -0.1204  0.0861
 4383TIP3    H134784   0.759   0.481   1.040  1.3791 -0.3397  0.6617
 4383TIP3    H234785   0.887   0.538   0.981  0.5980 -0.3611 -1.1481
 4384TIP3   OH234786   5.327   5.146   0.293 -0.0488  0.6963  0.5464
 4384TIP3    H134787   5.299   5.233   0.322 -2.6593  0.3190 -0.5762
 4384TIP3    H234788   5.372   5.162   0.210 -2.5535  0.8937 -0.8734
 4385TIP3   OH234789   4.438   2.812   1.087  0.5066  0.0762  0.0583
 4385TIP3    H134790   4.531   2.805   1.108  0.8381 -1.0603 -1.5590
 4385TIP3    H234791   4.397   2.741   1.136  0.3426  1.0343  1.3577
 4386TIP3   OH234792   4.583   0.451   2.054  0.2605 -0.1350  0.2486
 4386TIP3    H134793   4.607   0.467   1.962 -2.3534 -1.5557 -0.7742
 4386TIP3    H234794   4.508   0.507   2.070  1.2514  0.7890  1.8712
 4387TIP3   OH234795   5.998   2.876   1.589 -0.1846 -0.5728  0.8640
 4387TIP3    H134796   6.064   2.946   1.594 -1.6502  1.3420 -2.8749
 4387TIP3    H234797   5.916   2.919   1.612 -0.9217 -1.3576 -0.2116
 4388TIP3   OH234798   1.864   5.760   0.048  0.0828  0.3272  0.6152
 4388TIP3    H134799   1.799   5.692   0.065  1.1041 -0.6276  0.8006
 4388TIP3    H234800   1.913   5.728  -0.028  1.0131  0.5288  1.1184
 4389TIP3   OH234801   6.127   6.768   1.463  0.2339  0.3579 -0.0545
 4389TIP3    H134802   6.065   6.777   1.536  0.0032 -1.8554  0.0924
 4389TIP3    H234803   6.090   6.822   1.393 -1.3249 -0.1150  0.3763
 4390TIP3   OH234804   2.971   1.597   0.359 -0.4054 -0.2438 -0.6548
 4390TIP3    H134805   2.959   1.685   0.394 -1.3157 -0.3836 -0.5808
 4390TIP3    H234806   2.984   1.609   0.265  0.1524  0.0067 -0.5493
 4391TIP3   OH234807   1.027   0.361   1.364  0.7084  0.4459 -0.0301
 4391TIP3    H134808   0.954   0.320   1.317 -1.8196  3.4085  0.9705
 4391TIP3    H234809   1.045   0.441   1.315  0.7674  1.5688  1.7452
 4392TIP3   OH234810   6.873   5.914   0.552  0.0954  0.5740 -0.4365
 4392TIP3    H134811   6.843   5.990   0.502 -1.0191  0.8914  0.6618
 4392TIP3    H234812   6.831   5.923   0.638  1.0660 -0.5408  0.1960
 4393TIP3   OH234813   4.533   2.594   1.614  0.3961 -0.3660 -0.1097
 4393TIP3    H134814   4.509   2.504   1.590  0.5137 -0.6287  0.7283
 4393TIP3    H234815   4.619   2.607   1.576  0.7350 -0.9005  0.4597
 4394TIP3   OH234816   4.786   6.359   8.463 -0.1388 -0.1792  0.1132
 4394TIP3    H134817   4.766   6.449   8.438 -0.5591 -0.0299  0.9738
 4394TIP3    H234818   4.882   6.355   8.462 -0.1226  0.1953 -0.1895
 4395TIP3   OH234819   6.751   3.222   1.216  0.0893 -0.2376  0.0980
 4395TIP3    H134820   6.743   3.140   1.168  0.2377  0.4797 -1.2102
 4395TIP3    H234821   6.677   3.222   1.277  0.7753 -1.8679  0.9707
 4396TIP3   OH234822   0.311   2.161   8.306  0.6295 -0.3010 -0.5070
 4396TIP3    H134823   0.255   2.142   8.382 -2.7437  0.1894 -2.6653
 4396TIP3    H234824   0.312   2.256   8.300  0.0959 -0.3420 -1.5276
 4397TIP3   OH234825   6.734   4.277   1.963  0.5723 -0.1634 -0.8064
 4397TIP3    H134826   6.710   4.369   1.958  2.2138  0.3250 -0.4649
 4397TIP3    H234827   6.689   4.244   2.041  1.5901  0.9226  0.3005
 4398TIP3   OH234828   4.348   3.934   8.448  0.1859  0.3461 -0.7857
 4398TIP3    H134829   4.360   4.026   8.426 -1.5361  0.1410 -2.9972
 4398TIP3    H234830   4.374   3.886   8.369 -0.6246 -0.9283 -0.3207
 4399TIP3   OH234831   4.678   6.002   7.876 -0.6955 -0.4785 -0.6577
 4399TIP3    H134832   4.715   5.981   7.791  1.9284 -1.8972  0.7201
 4399TIP3    H234833   4.748   5.984   7.939 -2.4683  0.5983  1.8287
 4400TIP3   OH234834   4.692   4.935   0.754  0.3142 -0.3800 -0.5920
 4400TIP3    H134835   4.768   4.926   0.697  0.8337 -1.3347  0.2168
 4400TIP3    H234836   4.728   4.928   0.843 -0.3459  1.9194 -0.0658
 4401TIP3   OH234837   0.247   2.885   0.888 -0.0728 -0.3135 -0.3044
 4401TIP3    H134838   0.264   2.798   0.854  0.4632 -0.5128  0.4503
 4401TIP3    H234839   0.189   2.870   0.963  0.3130 -0.0561  0.0471
 4402TIP3   OH234840   5.558   1.708   1.516 -0.3398 -0.1788 -0.8704
 4402TIP3    H134841   5.496   1.704   1.589  0.6719 -0.1029  0.0173
 4402TIP3    H234842   5.562   1.801   1.493  0.2977 -0.0170 -0.1542
 4403TIP3   OH234843   1.362   6.355   1.593 -0.0108 -0.3139  0.4228
 4403TIP3    H134844   1.387   6.263   1.580 -0.5357 -0.1295 -2.6724
 4403TIP3    H234845   1.402   6.379   1.676 -0.3423 -3.4895  1.6487
 4404TIP3   OH234846   3.924   3.749   0.150 -0.3172  0.2236 -0.1317
 4404TIP3    H134847   4.009   3.793   0.155 -0.4770  0.5571 -0.3031
 4404TIP3    H234848   3.892   3.770   0.062  0.0881 -1.1372 -0.6207
 4405TIP3   OH234849   4.497   2.546   0.604 -0.4155  0.4762  0.3841
 4405TIP3    H134850   4.519   2.638   0.616  1.3546  0.0430  0.6903
 4405TIP3    H234851   4.547   2.500   0.672 -0.0579 -0.8443 -0.7344
 4406TIP3   OH234852   2.888   1.788   7.793 -0.5020  0.3014 -0.0770
 4406TIP3    H134853   2.878   1.765   7.701  0.4651 -1.3385  0.1791
 4406TIP3    H234854   2.860   1.710   7.841 -0.6443  0.9875  1.0122
 4407TIP3   OH234855   5.868   2.089   7.653 -0.1674  0.6774  0.2876
 4407TIP3    H134856   5.789   2.070   7.603  0.2339  1.2580 -0.6010
 4407TIP3    H234857   5.909   2.162   7.607  1.0981  0.1331  0.4904
 4408TIP3   OH234858   4.310   1.342   1.102 -0.6671  0.4861 -0.6387
 4408TIP3    H134859   4.382   1.354   1.164 -0.2266  0.5302 -1.1493
 4408TIP3    H234860   4.265   1.427   1.099 -1.2941  0.2001  0.3533
 4409TIP3   OH234861   5.236   0.740   8.041 -0.2217  0.8005 -0.1924
 4409TIP3    H134862   5.244   0.678   7.969  1.0031  0.0816  0.5290
 4409TIP3    H234863   5.257   0.689   8.119 -0.4077  1.8333  0.5541
 4410TIP3   OH234864   1.136   5.430   2.110  0.0120  0.1074  0.1323
 4410TIP3    H134865   1.104   5.385   2.188 -2.0435  2.3564  0.7154
 4410TIP3    H234866   1.209   5.484   2.141  1.2292 -1.2517 -0.2035
 4411TIP3   OH234867   6.537   2.559   1.441 -0.8691  0.6109 -0.6280
 4411TIP3    H134868   6.593   2.547   1.518 -1.4270  0.1139 -0.2894
 4411TIP3    H234869   6.458   2.601   1.475 -1.4043 -0.2376 -0.8038
 4412TIP3   OH234870   4.965   1.098   0.396  0.0515  0.4947 -0.5255
 4412TIP3    H134871   5.058   1.077   0.406 -0.5787 -2.8580 -0.5670
 4412TIP3    H234872   4.931   1.096   0.485 -0.4429 -1.2228 -0.7131
 4413TIP3   OH234873   0.882   1.326   2.443 -0.1983  0.0193 -0.1523
 4413TIP3    H134874   0.967   1.351   2.479 -0.1091  2.0523 -1.5879
 4413TIP3    H234875   0.895   1.239   2.406  1.4332  0.5195 -0.8258
 4414TIP3   OH234876   4.028   0.046   7.401 -0.0270  0.3711 -0.6435
 4414TIP3    H134877   3.957   0.043   7.337  0.9782  0.7608 -1.8288
 4414TIP3    H234878   4.108   0.045   7.348  0.8593 -0.1456  0.6487
 4415TIP3   OH234879   6.090   0.107   7.205 -0.4485 -0.2695 -0.1540
 4415TIP3    H134880   6.021   0.045   7.182 -0.4276  0.5303 -2.6219
 4415TIP3    H234881   6.140   0.119   7.124  1.0212  1.1355  0.8947
 4416TIP3   OH234882   4.554   6.952   8.316 -0.4480  0.2077 -0.3552
 4416TIP3    H134883   4.466   6.988   8.309 -0.1035  1.7819  2.1584
 4416TIP3    H234884   4.550   6.895   8.394  0.1783 -1.7228 -1.6621
 4417TIP3   OH234885   4.348   1.488   7.503  0.2727  1.0227 -0.0964
 4417TIP3    H134886   4.295   1.567   7.512 -0.4837  0.4618  0.4495
 4417TIP3    H234887   4.285   1.417   7.495  0.9317  0.6513 -2.5815
 4418TIP3   OH234888   4.415   0.198   1.049 -0.2137 -0.8643  0.7520
 4418TIP3    H134889   4.360   0.129   1.087  0.3300 -0.4721  2.3073
 4418TIP3    H234890   4.495   0.198   1.102  2.7370 -3.3582 -3.0801
 4419TIP3   OH234891   2.086   5.282   2.826  0.0055  0.5811  0.1418
 4419TIP3    H134892   2.106   5.214   2.762  0.3748  1.5878 -0.8402
 4419TIP3    H234893   2.160   5.281   2.886  1.0586  1.5141 -1.0973
 4420TIP3   OH234894   6.369   2.242   2.335 -0.1798 -0.2479  0.2337
 4420TIP3    H134895   6.426   2.318   2.332  0.2812 -0.5797  0.4173
 4420TIP3    H234896   6.307   2.260   2.405  2.3784 -1.7117  3.0954
 4421TIP3   OH234897   3.903   4.746   2.589 -0.0216  0.1942  0.3380
 4421TIP3    H134898   3.912   4.694   2.509  0.0464  0.8308 -0.0737
 4421TIP3    H234899   3.809   4.764   2.595 -0.0317  0.1137  0.4257
 4422TIP3   OH234900   6.337   5.020   1.117 -0.8180 -0.5055 -0.0650
 4422TIP3    H134901   6.287   4.950   1.074  1.2106  0.0562 -3.7700
 4422TIP3    H234902   6.417   5.028   1.065  1.2459  1.4727  3.0389
 4423TIP3   OH234903   1.963   1.245   1.407 -0.0142  0.1136 -0.1422
 4423TIP3    H134904   1.886   1.204   1.369  0.1255 -1.2115  0.9372
 4423TIP3    H234905   1.935   1.275   1.493  0.1395  1.5157 -0.5496
 4424TIP3   OH234906   4.394   3.623   8.487 -0.1389 -0.4931 -0.5224
 4424TIP3    H134907   4.307   3.583   8.492 -0.4496 -0.0131 -1.8433
 4424TIP3    H234908   4.414   3.647   8.578 -1.6792  0.0252 -0.2896
 4425TIP3   OH234909   6.885   5.024   7.416 -0.3716 -0.0939 -0.3807
 4425TIP3    H134910   6.840   5.037   7.500  0.5392  1.6507 -0.1115
 4425TIP3    H234911   6.871   5.106   7.369  1.4922  0.0298 -0.7694
 4426TIP3   OH234912   5.642   0.430   0.488  0.2244  0.6046 -0.3262
 4426TIP3    H134913   5.561   0.472   0.459 -0.6950 -0.2840  0.8357
 4426TIP3    H234914   5.662   0.472   0.571  1.0872  0.9650 -0.7075
 4427TIP3   OH234915   5.111   1.845   6.813  0.0322 -0.3840  0.1246
 4427TIP3    H134916   5.091   1.803   6.729  0.2614  0.0018 -0.1237
 4427TIP3    H234917   5.109   1.939   6.794  1.6380 -0.3163  0.1911
 4428TIP3   OH234918   0.260   0.215   6.760  0.5866  0.1205  0.0809
 4428TIP3    H134919   0.353   0.208   6.781  0.4937 -0.6352  0.2543
 4428TIP3    H234920   0.219   0.245   6.841  0.5360 -0.6129  0.3337
 4429TIP3   OH234921   0.080   4.353   1.913 -0.4908 -0.8051 -0.1740
 4429TIP3    H134922  -0.012   4.327   1.911 -0.9057  0.2932  1.7088
 4429TIP3    H234923   0.090   4.411   1.837 -1.8514  0.4674  0.5652
 4430TIP3   OH234924   6.687   2.174   0.943  0.3347 -0.3651  0.3686
 4430TIP3    H134925   6.629   2.105   0.909  0.7918 -0.1193 -0.9894
 4430TIP3    H234926   6.636   2.217   1.011 -1.7327  0.8039 -1.7735
 4431TIP3   OH234927   3.301   6.450   2.213 -0.2249 -0.0102  0.2434
 4431TIP3    H134928   3.228   6.397   2.248  0.1979 -0.9742 -0.2843
 4431TIP3    H234929   3.259   6.530   2.181 -0.9936 -0.3516  0.3611
 4432TIP3   OH234930   4.393   4.030   0.327 -0.1357  0.0264  0.2511
 4432TIP3    H134931   4.401   3.949   0.276 -1.3769  0.6648 -1.0193
 4432TIP3    H234932   4.299   4.040   0.342 -0.2047  2.0703 -1.1090
 4433TIP3   OH234933   4.541   2.373   0.408 -0.3224  0.3080  0.4536
 4433TIP3    H134934   4.632   2.399   0.395 -0.2685  0.0598  0.3328
 4433TIP3    H234935   4.505   2.438   0.469 -0.6946  1.7876 -1.2577
 4434TIP3   OH234936   6.385   0.505   0.099 -0.3632  0.0086  0.4232
 4434TIP3    H134937   6.352   0.435   0.155  0.1218  0.3502  1.1498
 4434TIP3    H234938   6.306   0.553   0.073 -0.7479 -1.0464 -0.4451
 4435TIP3   OH234939   0.874   1.278   7.442 -0.0973  0.1684 -0.1487
 4435TIP3    H134940   0.854   1.338   7.514 -2.1244  0.4831 -0.8802
 4435TIP3    H234941   0.943   1.321   7.393 -0.6939  1.3611  0.0211
 4436TIP3   OH234942   5.073   0.068   0.035 -0.2267 -0.2458 -0.2833
 4436TIP3    H134943   5.046   0.159   0.044 -0.7652 -0.4476  0.1992
 4436TIP3    H234944   4.997   0.018   0.065 -0.1828 -0.8615 -1.1624
 4437TIP3   OH234945   5.505   6.482   8.368  0.5530 -0.0795  0.5942
 4437TIP3    H134946   5.433   6.503   8.427 -0.7395 -1.0899 -0.5499
 4437TIP3    H234947   5.555   6.415   8.413  0.4891  0.2681  1.1904
 4438TIP3   OH234948   0.579   1.787   1.545 -0.8897  0.5073 -0.5022
 4438TIP3    H134949   0.497   1.746   1.516 -1.1532 -0.8424  1.8837
 4438TIP3    H234950   0.618   1.723   1.605  1.5930  1.4247 -1.0142
 4439TIP3   OH234951   0.504   5.793   1.056 -0.3299 -0.4835 -0.3338
 4439TIP3    H134952   0.535   5.710   1.019 -2.6409 -1.2836 -0.6730
 4439TIP3    H234953   0.429   5.816   1.001 -0.2089  1.4360  0.2624
 4440TIP3   OH234954   6.721   6.923   7.796 -0.2164  0.1472 -0.1908
 4440TIP3    H134955   6.703   6.883   7.881  0.2494 -1.0875 -0.6395
 4440TIP3    H234956   6.786   6.991   7.815  0.8606 -0.9645  0.3013
 4441TIP3   OH234957   3.257   3.328   0.827  0.4293 -0.1057  0.6082
 4441TIP3    H134958   3.331   3.387   0.841  1.3910 -1.0749 -0.1882
 4441TIP3    H234959   3.180   3.382   0.845  1.3128  0.9547  1.3774
 4442TIP3   OH234960   1.377   3.061   8.472 -0.1296 -0.4066  0.0064
 4442TIP3    H134961   1.468   3.091   8.470  0.0323 -0.6163  2.2079
 4442TIP3    H234962   1.352   3.067   8.564 -1.1244 -3.8894  0.0924
 4443TIP3   OH234963   5.170   5.455   7.788  0.7100  0.0478 -0.3743
 4443TIP3    H134964   5.131   5.534   7.823  0.3200 -0.1439 -0.3735
 4443TIP3    H234965   5.186   5.474   7.695  0.6998  0.1569 -0.3523
 4444TIP3   OH234966   2.353   4.926   2.455  0.4306  0.4252  0.1666
 4444TIP3    H134967   2.364   5.018   2.430 -0.2715  0.5043  0.1266
 4444TIP3    H234968   2.350   4.879   2.372  0.3856  0.4179  0.1721
 4445TIP3   OH234969   0.194   4.281   8.187 -0.0741 -0.1317  0.5961
 4445TIP3    H134970   0.141   4.212   8.228  0.7396 -0.0363  1.8670
 4445TIP3    H234971   0.195   4.258   8.094  0.3076 -1.9509  1.0106
 4446TIP3   OH234972   2.741   2.791   1.611  0.2674  0.3013 -0.2656
 4446TIP3    H134973   2.738   2.695   1.617  1.8446  0.1957 -0.5141
 4446TIP3    H234974   2.699   2.821   1.691 -0.5377 -0.5909 -0.3337
 4447TIP3   OH234975   3.994   5.915   2.227 -0.1689 -0.3512  0.0300
 4447TIP3    H134976   3.940   5.933   2.149 -0.8896 -1.2968  0.2897
 4447TIP3    H234977   3.952   5.839   2.267 -1.5300  1.7363  2.9016
 4448TIP3   OH234978   5.471   3.388   0.162  0.0373  0.1488  0.1973
 4448TIP3    H134979   5.522   3.318   0.123 -1.2912  0.3312 -2.0082
 4448TIP3    H234980   5.500   3.467   0.118 -0.7135  0.5338  0.3717
 4449TIP3   OH234981   6.777   0.157   7.414 -0.5473 -0.2006  0.0863
 4449TIP3    H134982   6.683   0.167   7.400 -0.3630 -0.9618 -2.1499
 4449TIP3    H234983   6.813   0.245   7.402 -0.8859 -0.0579  0.1106
 4450TIP3   OH234984   5.200   3.915   2.116  0.1523 -0.0306  0.2950
 4450TIP3    H134985   5.271   3.964   2.075  0.1273  0.4556  0.8261
 4450TIP3    H234986   5.160   3.977   2.177  0.6221 -0.9293  1.5598
 4451TIP3   OH234987   1.807   0.252   6.480  0.3622 -0.2713  0.4025
 4451TIP3    H134988   1.736   0.195   6.452 -0.9091  0.6138  1.7188
 4451TIP3    H234989   1.876   0.192   6.508  0.7303 -1.1562 -2.1446
 4452TIP3   OH234990   5.391   4.316   0.873 -0.3390  0.0601  0.0593
 4452TIP3    H134991   5.406   4.409   0.891 -0.5764  0.0086  0.5322
 4452TIP3    H234992   5.473   4.285   0.835  0.4493 -0.0055  1.7380
 4453TIP3   OH234993   6.458   0.950   2.269  0.1784  0.2770  0.3453
 4453TIP3    H134994   6.395   0.898   2.319  0.1814  0.0411  0.1001
 4453TIP3    H234995   6.542   0.909   2.287  0.2409  0.4856  0.5317
 4454TIP3   OH234996   0.584   6.105   7.458 -0.2679 -0.2248 -0.0552
 4454TIP3    H134997   0.637   6.100   7.379 -1.4463 -0.3780 -0.8753
 4454TIP3    H234998   0.635   6.159   7.518 -0.1363  1.4989 -1.5954
 4455TIP3   OH234999   2.567   4.850   8.263 -0.1870 -0.1878  0.5199
 4455TIP3    H135000   2.570   4.754   8.262 -2.0328 -0.2702  0.2823
 4455TIP3    H235001   2.478   4.872   8.289 -0.5718  1.4209 -1.7545
 4456TIP3   OH235002   1.371   2.009   0.706  0.7940 -0.4606  0.6257
 4456TIP3    H135003   1.340   1.993   0.616  0.4639 -1.5695  0.9174
 4456TIP3    H235004   1.460   2.041   0.695  0.1698  1.1598 -0.1607
 4457TIP3   OH235005   2.516   6.047   1.535  0.1839 -0.1997  0.6340
 4457TIP3    H135006   2.555   6.048   1.448  0.0275 -0.4080  0.5608
 4457TIP3    H235007   2.497   6.139   1.555 -0.6682 -0.2382  0.0497
 4458TIP3   OH235008   3.319   6.063   0.178  0.6051 -0.2486  0.0191
 4458TIP3    H135009   3.311   6.092   0.087 -2.0149 -0.5820  0.0466
 4458TIP3    H235010   3.406   6.090   0.205  0.3931  2.5260 -1.6819
 4459TIP3   OH235011   2.448   6.511   7.301 -0.3818 -0.5273 -0.0501
 4459TIP3    H135012   2.493   6.440   7.254  2.4468  0.8506  0.3741
 4459TIP3    H235013   2.500   6.525   7.380  0.7542  3.5926 -1.2774
 4460TIP3   OH235014   6.258   4.875   2.025  0.6883 -0.4214 -0.3411
 4460TIP3    H135015   6.170   4.860   1.992  1.1924 -0.2855 -1.8296
 4460TIP3    H235016   6.298   4.934   1.961  1.3213  0.8903  1.1963
 4461TIP3   OH235017   2.270   2.105   7.218  0.2611  0.3548 -0.1691
 4461TIP3    H135018   2.199   2.041   7.218  1.5732 -1.1870  0.8356
 4461TIP3    H235019   2.261   2.151   7.302 -0.7533  1.6544 -0.9408
 4462TIP3   OH235020   0.536   2.815   6.864 -0.4589  0.1228 -0.3490
 4462TIP3    H135021   0.627   2.815   6.834  0.2324  0.9099  1.6296
 4462TIP3    H235022   0.505   2.904   6.844  0.4081  1.0882  2.2451
 4463TIP3   OH235023   3.763   1.172   7.219  0.1193  0.0820  0.0867
 4463TIP3    H135024   3.691   1.184   7.281 -0.6029 -0.0191 -0.7179
 4463TIP3    H235025   3.842   1.194   7.269 -0.6177  2.3320  0.4063
 4464TIP3   OH235026   5.993   4.915   1.246 -0.3566 -0.1197  0.3761
 4464TIP3    H135027   6.065   4.886   1.190 -0.8914 -0.2876 -0.2484
 4464TIP3    H235028   6.027   4.908   1.335  1.0125  1.5334  0.0190
 4465TIP3   OH235029   4.011   4.122   2.500  0.7309 -0.2522 -0.9663
 4465TIP3    H135030   4.038   4.032   2.518  0.5935 -0.8335 -3.3406
 4465TIP3    H235031   4.064   4.175   2.559  0.1707 -1.8902  1.1431
 4466TIP3   OH235032   0.992   5.446   0.112  0.8646  0.3262 -0.1786
 4466TIP3    H135033   0.924   5.488   0.164 -0.6371  3.1571 -4.0058
 4466TIP3    H235034   0.963   5.355   0.104  0.0521  0.3350  1.9793
 4467TIP3   OH235035   3.133   2.426   0.715 -0.4006  0.0805 -0.1785
 4467TIP3    H135036   3.199   2.495   0.723  0.7358 -0.9862 -0.0081
 4467TIP3    H235037   3.143   2.393   0.626 -0.8120 -0.0020 -0.1967
 4468TIP3   OH235038   1.172   1.742   0.473 -0.2704 -0.5681  0.1308
 4468TIP3    H135039   1.115   1.684   0.423 -1.1789 -0.9919  1.5885
 4468TIP3    H235040   1.160   1.715   0.564  0.1174  1.2083  0.7523
 4469TIP3   OH235041   1.399   0.171   6.268 -0.1962  0.5534 -0.0324
 4469TIP3    H135042   1.479   0.140   6.310  0.8465  1.7935 -1.0180
 4469TIP3    H235043   1.410   0.148   6.175 -1.8615 -0.9651  0.0795
 4470TIP3   OH235044   5.240   2.538   6.845 -0.1793  0.7592 -0.0383
 4470TIP3    H135045   5.231   2.622   6.891 -2.7733  0.6521 -0.1858
 4470TIP3    H235046   5.172   2.483   6.883 -0.4603 -0.3065 -1.9813
 4471TIP3   OH235047   6.216   0.387   7.255  0.0771  0.0038 -0.4537
 4471TIP3    H135048   6.248   0.373   7.166 -0.0000 -0.6339 -0.3863
 4471TIP3    H235049   6.219   0.300   7.296 -0.0067  0.2665  0.1259
 4472TIP3   OH235050   3.203   2.813   0.387  0.0013 -0.6577 -0.1302
 4472TIP3    H135051   3.158   2.759   0.322  0.8479 -1.0553 -0.4100
 4472TIP3    H235052   3.186   2.770   0.470 -1.8938  0.3860  0.0774
 4473TIP3   OH235053   1.116   0.599   7.772  0.0761 -0.1916 -0.1822
 4473TIP3    H135054   1.094   0.636   7.858  2.9441  1.1005  0.0938
 4473TIP3    H235055   1.112   0.673   7.712  2.5725 -0.0407 -0.2540
 4474TIP3   OH235056   2.159   1.028   8.076 -0.3888 -0.4470 -0.1239
 4474TIP3    H135057   2.232   0.985   8.119 -0.2202  0.7217  0.8136
 4474TIP3    H235058   2.150   1.112   8.121  0.0281  1.0397 -2.6182
 4475TIP3   OH235059   4.819   5.893   7.642  0.2032  0.7515  0.2486
 4475TIP3    H135060   4.835   5.803   7.613 -2.0076  0.3904 -0.0070
 4475TIP3    H235061   4.895   5.942   7.611  0.2557 -0.5399 -1.8500
 4476TIP3   OH235062   5.381   1.139   8.146 -0.2419  0.3756 -0.1554
 4476TIP3    H135063   5.411   1.197   8.216  0.4381  1.4261 -1.2825
 4476TIP3    H235064   5.381   1.194   8.068  1.5527 -1.3971 -1.5203
 4477TIP3   OH235065   0.613   0.248   0.527  0.8541  0.3971  0.1639
 4477TIP3    H135066   0.654   0.263   0.612  1.2854 -1.5298  0.3380
 4477TIP3    H235067   0.554   0.174   0.541  0.4432  0.4693 -1.0562
 4478TIP3   OH235068   1.610   6.477   2.562  0.1452  0.7553 -0.9424
 4478TIP3    H135069   1.547   6.526   2.615  1.5425  0.1880  1.4099
 4478TIP3    H235070   1.607   6.388   2.597  1.4633  0.4593 -1.5140
 4479TIP3   OH235071   1.246   3.995   1.830 -0.2994 -0.9368 -0.2921
 4479TIP3    H135072   1.157   4.016   1.859  0.5715  1.1565  1.0322
 4479TIP3    H235073   1.233   3.929   1.762 -2.8996 -0.3526 -0.4746
 4480TIP3   OH235074   3.171   2.127   1.987  0.9286 -0.3464  0.0742
 4480TIP3    H135075   3.130   2.213   1.984  0.8789 -0.3750 -0.0814
 4480TIP3    H235076   3.108   2.069   1.945 -0.6768 -1.1382  3.2611
 4481TIP3   OH235077   3.811   0.086   0.026  0.1711  0.1274 -0.0905
 4481TIP3    H135078   3.827   0.104  -0.067 -0.0159 -0.9568 -0.3356
 4481TIP3    H235079   3.719   0.108   0.038  0.3592  0.9111  0.0079
 4482TIP3   OH235080   4.984   2.377   7.416 -0.3205 -0.4508  0.8093
 4482TIP3    H135081   4.968   2.304   7.356  1.0912 -0.7213  0.7375
 4482TIP3    H235082   4.915   2.440   7.396 -0.2295 -0.7968 -0.6837
 4483TIP3   OH235083   2.766   6.364   0.771 -0.0838 -0.5410  0.8083
 4483TIP3    H135084   2.844   6.401   0.812 -0.0834  0.7769 -0.3348
 4483TIP3    H235085   2.694   6.416   0.806 -0.0963  0.5089 -0.7268
 4484TIP3   OH235086   2.734   0.893   7.221  0.2054  0.1320  0.3348
 4484TIP3    H135087   2.659   0.849   7.180  0.8914  0.7924 -1.7987
 4484TIP3    H235088   2.810   0.841   7.193  0.8091  1.2862 -0.2349
 4485TIP3   OH235089   6.890   5.014   1.741 -0.7153 -0.4635 -0.2858
 4485TIP3    H135090   6.980   5.005   1.712 -0.5641  1.4977 -0.5996
 4485TIP3    H235091   6.895   5.022   1.836 -0.4226  0.7078 -0.3848
 4486TIP3   OH235092   0.486   0.894   7.604 -0.6595  0.8290  0.0457
 4486TIP3    H135093   0.552   0.886   7.673 -2.4206  1.0641  1.8523
 4486TIP3    H235094   0.406   0.920   7.650 -2.8822 -2.4972 -1.5356
 4487TIP3   OH235095   1.111   2.931   1.611  0.1579 -0.3559 -0.2445
 4487TIP3    H135096   1.088   2.842   1.637  1.8922 -0.3156  1.6770
 4487TIP3    H235097   1.168   2.963   1.681 -2.3036  3.1581  0.3996
 4488TIP3   OH235098   4.605   2.264   0.128  0.3624 -0.1957  0.0656
 4488TIP3    H135099   4.571   2.303   0.208  0.5153  2.0292 -0.8835
 4488TIP3    H235100   4.604   2.170   0.145 -0.8733  0.1308  2.1577
 4489TIP3   OH235101   5.118   2.609   2.876  0.2259  0.9883 -0.0469
 4489TIP3    H135102   5.186   2.662   2.834 -0.5732  0.4103 -2.1903
 4489TIP3    H235103   5.048   2.605   2.812 -0.2569 -1.6355  0.5338
 4490TIP3   OH235104   1.138   6.047   1.149 -0.5106  0.3101 -0.1132
 4490TIP3    H135105   1.141   5.963   1.103  2.9477  1.3791 -2.2242
 4490TIP3    H235106   1.092   6.105   1.090  2.4663  1.2692 -1.6756
 4491TIP3   OH235107   5.983   5.395   0.383  0.4042  0.2323 -0.1269
 4491TIP3    H135108   5.937   5.431   0.459  0.9169  0.4689  0.0737
 4491TIP3    H235109   6.042   5.465   0.356  0.7700 -0.1353 -0.2842
 4492TIP3   OH235110   1.621   0.043   6.391  0.1049 -0.2387 -0.0248
 4492TIP3    H135111   1.684  -0.026   6.368 -0.2873 -0.2178 -1.1975
 4492TIP3    H235112   1.559  -0.000   6.449  1.9448  0.0781  2.3646
 4493TIP3   OH235113   3.408   4.748   2.772  0.2413 -0.0106  0.6238
 4493TIP3    H135114   3.327   4.795   2.788  0.0444 -0.1739  0.1432
 4493TIP3    H235115   3.381   4.656   2.768  0.0489  0.0969 -1.8637
 4494TIP3   OH235116   6.331   1.060   1.390  0.1872 -0.1085 -0.2167
 4494TIP3    H135117   6.301   1.132   1.446  1.6025  0.3407 -0.0057
 4494TIP3    H235118   6.252   1.009   1.373 -0.8988  1.5828 -0.5098
 4495TIP3   OH235119   4.203   1.903   7.800  0.0073 -0.7086 -0.0347
 4495TIP3    H135120   4.142   1.912   7.726  0.4428  0.3063 -0.2880
 4495TIP3    H235121   4.283   1.867   7.762 -0.1064 -1.1465  0.1316
 4496TIP3   OH235122   2.221   5.905   7.837 -0.3655 -0.2915 -0.0887
 4496TIP3    H135123   2.222   5.839   7.767  1.0776  1.3007 -1.6872
 4496TIP3    H235124   2.265   5.981   7.798 -0.6168  1.0971  2.1787
 4497TIP3   OH235125   6.772   2.185   0.452  0.3330 -0.1419  0.0736
 4497TIP3    H135126   6.721   2.104   0.443 -0.2188  0.1992  0.0749
 4497TIP3    H235127   6.738   2.225   0.532  1.0205 -0.1974  0.4038
 4498TIP3   OH235128   3.992   3.010   7.853 -0.0825  0.2390  0.3955
 4498TIP3    H135129   4.010   2.932   7.801  1.7880  0.1005  1.1633
 4498TIP3    H235130   4.077   3.054   7.860 -1.1963  2.7797 -0.6457
 4499TIP3   OH235131   4.859   0.088   1.587 -0.0794 -0.3113 -0.2560
 4499TIP3    H135132   4.812   0.168   1.564 -0.9669 -0.1895  1.7716
 4499TIP3    H235133   4.944   0.098   1.545 -0.5100  1.2330 -0.8589
 4500TIP3   OH235134   6.076   0.940   8.381 -0.3407  0.3759 -0.3310
 4500TIP3    H135135   6.129   0.949   8.302  0.0760 -0.6728 -0.1830
 4500TIP3    H235136   6.084   1.025   8.425  1.5333  0.1163 -0.1075
 4501TIP3   OH235137   2.008   0.651   0.047 -0.2819  0.6602 -0.0657
 4501TIP3    H135138   2.022   0.673   0.139  3.9946 -2.3656  0.3198
 4501TIP3    H235139   2.068   0.709  -0.001 -1.1546  0.9948 -0.7803
 4502TIP3   OH235140   5.758   1.608   0.919 -0.4834  0.5983  0.1097
 4502TIP3    H135141   5.699   1.640   0.987 -1.6937  1.4594 -1.2818
 4502TIP3    H235142   5.700   1.571   0.853  0.7754 -2.6859  0.6865
 4503TIP3   OH235143   3.562   0.098   6.966  0.2370  0.4665 -0.2415
 4503TIP3    H135144   3.483   0.082   7.017 -0.3464  1.2298 -0.9042
 4503TIP3    H235145   3.611   0.162   7.018  0.0870  0.5407 -0.1919
 4504TIP3   OH235146   5.484   3.884   1.314 -0.0693 -0.0641 -0.3597
 4504TIP3    H135147   5.547   3.819   1.282 -0.5503 -1.0853  0.7173
 4504TIP3    H235148   5.424   3.897   1.240  0.9123  0.3182 -1.1126
 4505TIP3   OH235149   2.585   4.988   0.011  0.0660  0.1102 -0.1656
 4505TIP3    H135150   2.605   5.059  -0.050 -1.4844  2.5386  1.9280
 4505TIP3    H235151   2.491   4.972  -0.001 -0.2643  0.6349  1.5174
 4506TIP3   OH235152   3.170   1.765   1.111 -0.2615 -0.1861 -0.3768
 4506TIP3    H135153   3.169   1.804   1.199 -0.9348 -0.7544 -0.1232
 4506TIP3    H235154   3.251   1.797   1.071  0.0307  0.1041  0.4360
 4507TIP3   OH235155   3.891   2.540   0.976 -0.1122 -0.3188  0.4001
 4507TIP3    H135156   3.801   2.509   0.968 -0.0445 -0.5855  0.6907
 4507TIP3    H235157   3.915   2.523   1.067  0.4909 -0.9490  0.1283
 4508TIP3   OH235158   2.117   3.231   1.490 -0.0858 -0.0301 -0.2700
 4508TIP3    H135159   2.041   3.190   1.531 -0.5300 -0.4642 -1.4688
 4508TIP3    H235160   2.192   3.192   1.534 -0.5480 -0.1113  0.4563
 4509TIP3   OH235161   1.174   5.912   8.501 -0.1038 -0.0154 -0.0893
 4509TIP3    H135162   1.206   6.001   8.488  0.5534  0.0284  1.6070
 4509TIP3    H235163   1.095   5.922   8.554  0.0046 -0.4458  0.1548
 4510TIP3   OH235164   6.917   4.991   0.256 -0.3570  0.4590 -0.0138
 4510TIP3    H135165   6.947   4.952   0.339  0.3325  1.0396  0.0194
 4510TIP3    H235166   6.991   5.043   0.226 -0.5765  0.1833 -1.0494
 4511TIP3   OH235167   6.639   0.240   7.862 -0.0089  0.4329  0.2786
 4511TIP3    H135168   6.614   0.167   7.804 -2.0739 -0.5199  2.2056
 4511TIP3    H235169   6.710   0.284   7.816 -0.3190 -1.3520 -2.0993
 4512TIP3   OH235170   5.661   1.751   2.742  0.0329 -0.0563 -0.5014
 4512TIP3    H135171   5.574   1.787   2.758  0.8373  1.4173  0.7881
 4512TIP3    H235172   5.644   1.662   2.709 -1.9372  0.2322 -0.4106
 4513TIP3   OH235173   3.791   3.870   1.963  0.0588  0.4429 -0.0403
 4513TIP3    H135174   3.794   3.775   1.968  1.5850  0.4448 -0.5004
 4513TIP3    H235175   3.785   3.900   2.054  0.7549 -0.0690  0.1757
 4514TIP3   OH235176   2.466   6.792   2.171  0.5405 -0.2021 -0.1288
 4514TIP3    H135177   2.461   6.705   2.131 -0.6679 -0.3070  0.1944
 4514TIP3    H235178   2.448   6.777   2.263  0.9993  0.3169  0.0518
 4515TIP3   OH235179   4.741   0.833   1.357  0.7163  0.0156 -0.6133
 4515TIP3    H135180   4.815   0.774   1.375  1.3525  0.5676 -1.3546
 4515TIP3    H235181   4.669   0.775   1.334  0.2967 -0.6636  2.0461
 4516TIP3   OH235182   3.874   0.105   0.770 -0.2486 -0.1503 -0.6939
 4516TIP3    H135183   3.962   0.109   0.808 -1.1541 -1.5179  1.7964
 4516TIP3    H235184   3.864   0.187   0.721  1.4367  1.2768  1.2163
 4517TIP3   OH235185   0.534   1.376   7.456  0.1055  0.2243  0.0971
 4517TIP3    H135186   0.605   1.431   7.421 -0.3139  0.4219 -0.4625
 4517TIP3    H235187   0.576   1.291   7.471  0.0070 -0.3500 -2.3695
 4518TIP3   OH235188   2.129   5.998   0.065 -0.3275 -0.2515 -0.2428
 4518TIP3    H135189   2.126   6.001   0.160  0.5766  0.8208 -0.2288
 4518TIP3    H235190   2.037   5.997   0.038 -0.5870 -0.5402  0.6249
 4519TIP3   OH235191   2.542   3.835   1.608  0.3120 -0.2814 -0.6680
 4519TIP3    H135192   2.548   3.753   1.557  2.9295 -2.4562  2.7145
 4519TIP3    H235193   2.478   3.815   1.676  1.0428  0.4635  0.2420
 4520TIP3   OH235194   0.660   4.947   1.631  0.3712  0.0344 -0.3155
 4520TIP3    H135195   0.697   5.015   1.688 -2.1641  0.5928  0.8154
 4520TIP3    H235196   0.630   4.994   1.553 -1.2507  0.2711  0.4047
 4521TIP3   OH235197   5.364   4.210   2.119 -0.0802 -0.1095 -0.0489
 4521TIP3    H135198   5.359   4.178   2.209 -2.5466 -0.0697 -0.0914
 4521TIP3    H235199   5.408   4.140   2.071 -0.6453 -1.0960  0.8228
 4522TIP3   OH235200   5.733   2.015   1.070  0.1030  0.5365  0.2368
 4522TIP3    H135201   5.686   2.042   0.991 -0.5972  1.9440  1.1027
 4522TIP3    H235202   5.819   2.055   1.062 -0.1196  1.0499  0.3914
 4523TIP3   OH235203   4.803   1.467   2.095 -0.0658 -0.3865  0.1247
 4523TIP3    H135204   4.882   1.522   2.094 -1.7428  2.1689  0.1301
 4523TIP3    H235205   4.789   1.446   2.187  1.5456 -2.4576 -0.0146
 4524TIP3   OH235206   0.732   3.520   7.516 -0.0802  0.0170  0.2792
 4524TIP3    H135207   0.652   3.483   7.554 -1.3651  0.2408 -2.0229
 4524TIP3    H235208   0.790   3.445   7.505 -0.6514 -0.4567  0.4053
 4525TIP3   OH235209   3.552   6.274   0.286 -0.3377  0.2234 -0.4074
 4525TIP3    H135210   3.458   6.283   0.304 -0.7460 -2.0619 -1.0622
 4525TIP3    H235211   3.579   6.198   0.338  1.0992  0.6864 -0.4345
 4526TIP3   OH235212   4.446   2.847   7.643  0.3955  0.6993  1.2281
 4526TIP3    H135213   4.370   2.890   7.603  1.2941  0.3114 -1.1140
 4526TIP3    H235214   4.520   2.903   7.618  1.2013 -0.4858  0.8497
 4527TIP3   OH235215   5.238   6.606   7.479  0.1342  0.1127  0.4219
 4527TIP3    H135216   5.247   6.595   7.574  2.2212 -0.2855  0.2312
 4527TIP3    H235217   5.237   6.517   7.444 -1.4453  0.2290  0.0787
 4528TIP3   OH235218   6.254   2.075   7.253  0.6371 -0.2567  0.3796
 4528TIP3    H135219   6.236   2.150   7.196  1.9755 -0.2664 -0.0982
 4528TIP3    H235220   6.222   2.101   7.339  0.1679  0.4473  0.0010
 4529TIP3   OH235221   3.699   6.598   6.876  0.1887  0.3189 -0.1895
 4529TIP3    H135222   3.628   6.618   6.936 -1.7601  0.0791 -2.2994
 4529TIP3    H235223   3.724   6.682   6.839 -0.0905  0.2182 -0.6094
 4530TIP3   OH235224   4.553   6.482   1.929 -0.2111  0.1296  1.0079
 4530TIP3    H135225   4.634   6.430   1.922  0.0123  0.6434 -0.5143
 4530TIP3    H235226   4.553   6.512   2.020  0.0905 -1.7972  1.7024
 4531TIP3   OH235227   5.435   5.567   1.672 -0.3030 -0.1654  0.0645
 4531TIP3    H135228   5.412   5.539   1.760  0.2263  0.9497  0.5831
 4531TIP3    H235229   5.355   5.554   1.621 -0.3759 -1.5870  0.4954
 4532TIP3   OH235230   6.180   1.827   6.251  0.0239  0.7413 -0.2580
 4532TIP3    H135231   6.122   1.752   6.242 -0.1992  0.7543  0.8738
 4532TIP3    H235232   6.256   1.793   6.298  0.2307  1.0655 -0.3552
 4533TIP3   OH235233   4.305   1.347   1.465  0.0813 -0.3993  0.0839
 4533TIP3    H135234   4.273   1.256   1.463  0.0816 -0.4316  0.9763
 4533TIP3    H235235   4.385   1.345   1.413  0.0981 -0.9229  0.1199
 4534TIP3   OH235236   0.624   4.337   7.509 -0.0603 -0.1565  0.0986
 4534TIP3    H135237   0.701   4.291   7.545  0.7388  1.5782  0.7012
 4534TIP3    H235238   0.631   4.325   7.415  1.4266  0.6261  0.0764
 4535TIP3   OH235239   3.110   1.126   8.148  0.7257  0.0639 -0.3784
 4535TIP3    H135240   3.047   1.162   8.085  1.5292  2.6328  0.2134
 4535TIP3    H235241   3.193   1.168   8.126  1.0925  0.8523  2.2192
 4536TIP3   OH235242   1.973   4.736   0.211 -0.4959  0.6201 -0.2400
 4536TIP3    H135243   2.032   4.771   0.145 -0.9251 -0.4824 -1.2508
 4536TIP3    H235244   1.945   4.651   0.176 -0.1324 -0.3770  1.7229
 4537TIP3   OH235245   3.627   3.639   2.533  0.0871  0.2222 -0.4935
 4537TIP3    H135246   3.625   3.576   2.460 -0.4904  0.7664 -0.9569
 4537TIP3    H235247   3.629   3.584   2.611  1.4105 -0.3809 -0.9148
 4538TIP3   OH235248   1.451   1.748   2.193  0.3025  0.1724  0.2098
 4538TIP3    H135249   1.415   1.801   2.264 -4.0096 -2.1055  0.0512
 4538TIP3    H235250   1.475   1.665   2.233  0.3830 -0.2005 -0.5788
 4539TIP3   OH235251   3.756   0.308   3.238 -0.6270  0.3414  0.2299
 4539TIP3    H135252   3.679   0.341   3.283 -1.4340  2.2450 -2.3123
 4539TIP3    H235253   3.815   0.383   3.234  0.9809 -0.7999  1.2104
 4540TIP3   OH235254   3.247   0.251   7.747 -0.1651  0.4367  0.2024
 4540TIP3    H135255   3.158   0.281   7.767 -0.6942 -0.4125 -0.7775
 4540TIP3    H235256   3.237   0.195   7.670  1.0377 -0.8112  0.9094
 4541TIP3   OH235257   5.977   2.320   7.481 -0.0456 -0.1893 -0.1597
 4541TIP3    H135258   5.965   2.361   7.396  1.7334  1.0510  0.1374
 4541TIP3    H235259   5.948   2.387   7.544 -1.1389 -1.0093  0.2270
 4542TIP3   OH235260   6.049   1.689   2.008 -0.0694  0.2870  0.1976
 4542TIP3    H135261   6.118   1.678   1.943 -0.2077  0.0020  0.0982
 4542TIP3    H235262   6.061   1.616   2.069  0.9410  1.3408  1.3092
 4543TIP3   OH235263   0.853   2.122   7.588  0.2125  0.3594 -0.0375
 4543TIP3    H135264   0.881   2.209   7.560  0.8439  0.3679  0.5968
 4543TIP3    H235265   0.928   2.065   7.569  0.4208  0.2524  1.0012
 4544TIP3   OH235266   4.412   5.589   7.178 -0.2569 -0.7549  0.4628
 4544TIP3    H135267   4.338   5.641   7.208 -0.3709  0.7488 -2.0790
 4544TIP3    H235268   4.478   5.653   7.153  0.0377 -1.8063 -1.7181
 4545TIP3   OH235269   6.123   6.059   0.410 -0.4841  0.4788  0.2280
 4545TIP3    H135270   6.190   6.049   0.343  1.4864 -0.4587  2.2195
 4545TIP3    H235271   6.058   5.992   0.390  0.5876 -0.4554 -0.1753
 4546TIP3   OH235272   4.025   6.756   1.702 -0.0154  0.0352  0.1953
 4546TIP3    H135273   4.013   6.847   1.677  1.4455 -0.2479 -1.7783
 4546TIP3    H235274   4.118   6.738   1.685 -0.2149 -1.7660  0.7231
 4547TIP3   OH235275   0.220   6.780   7.018 -0.1787  0.5463  0.5151
 4547TIP3    H135276   0.239   6.690   6.994 -0.4548  0.2604  1.3533
 4547TIP3    H235277   0.131   6.796   6.986 -0.1256  0.5243  0.3573
 4548TIP3   OH235278   0.240   5.590   8.226 -0.7471 -0.2490 -0.6479
 4548TIP3    H135279   0.152   5.596   8.263 -0.0601  1.6084  0.8433
 4548TIP3    H235280   0.285   5.668   8.259  1.8167 -1.7191 -0.4116
 4549TIP3   OH235281   0.495   0.633   2.275 -0.2656 -0.5444 -0.1713
 4549TIP3    H135282   0.445   0.630   2.356  1.3440 -2.3125  0.8388
 4549TIP3    H235283   0.504   0.726   2.256 -0.1095 -0.0450  2.0699
 4550TIP3   OH235284   4.969   2.729   1.942  0.4765 -0.1436  0.2473
 4550TIP3    H135285   5.003   2.671   2.010  0.7137  0.0698  0.3130
 4550TIP3    H235286   4.908   2.787   1.988  2.6727  1.8390  0.8647
 4551TIP3   OH235287   1.339   6.296   7.656  0.5820 -0.2091 -0.5809
 4551TIP3    H135288   1.338   6.337   7.569 -0.1067  0.8165 -0.1129
 4551TIP3    H235289   1.323   6.369   7.716  2.0485 -0.7445  0.4908
 4552TIP3   OH235290   3.243   6.332   1.479  0.3955 -0.0427  0.2190
 4552TIP3    H135291   3.282   6.350   1.394 -1.2019  1.8999 -0.1608
 4552TIP3    H235292   3.235   6.237   1.482  1.6698 -0.2321 -1.2222
 4553TIP3   OH235293   1.571   2.575   8.128 -0.8235  0.0811 -0.0430
 4553TIP3    H135294   1.544   2.535   8.045  0.2335 -1.4118  0.2946
 4553TIP3    H235295   1.665   2.590   8.117 -0.8227  0.5961  0.6208
 4554TIP3   OH235296   0.468   0.152   8.120  0.4597  0.1425  0.8232
 4554TIP3    H135297   0.544   0.112   8.163  1.0071  0.3686  0.0913
 4554TIP3    H235298   0.495   0.243   8.104  0.7285 -0.2137 -1.0181
 4555TIP3   OH235299   6.484   5.626   2.152 -0.1535 -0.9342 -0.2434
 4555TIP3    H135300   6.552   5.606   2.088  0.2848 -0.9925  0.2388
 4555TIP3    H235301   6.402   5.607   2.107  0.1677 -1.3432 -0.6555
 4556TIP3   OH235302   0.526   2.055   7.053  0.0013  0.3868 -0.1546
 4556TIP3    H135303   0.472   2.089   6.982  0.5344  1.1346 -0.2185
 4556TIP3    H235304   0.614   2.050   7.016  0.0673 -0.3330  0.0993
 4557TIP3   OH235305   0.318   5.086   1.453  0.2101 -0.1459 -0.3099
 4557TIP3    H135306   0.353   5.001   1.426  0.3781 -0.1151 -0.1929
 4557TIP3    H235307   0.396   5.138   1.475  0.0863 -1.1214  3.1699
 4558TIP3   OH235308   6.477   4.705   1.107  0.7074 -0.7241  0.1158
 4558TIP3    H135309   6.474   4.702   1.202  2.6933 -0.2767  0.2534
 4558TIP3    H235310   6.393   4.741   1.080  1.2600  2.2530  1.9152
 4559TIP3   OH235311   6.627   5.223   2.681  0.1308  0.5711  0.0170
 4559TIP3    H135312   6.703   5.228   2.739  0.0649  1.6862  0.0192
 4559TIP3    H235313   6.628   5.305   2.632 -0.6900  0.3038 -0.4726
 4560TIP3   OH235314   6.920   4.420   6.984 -0.1328  0.0755  0.5480
 4560TIP3    H135315   6.947   4.403   7.074 -0.1834  1.0819  0.7680
 4560TIP3    H235316   6.897   4.513   6.983  2.3276  0.7680 -1.1178
 4561TIP3   OH235317   0.541   0.109   1.974 -0.4856  0.2238 -0.0659
 4561TIP3    H135318   0.524   0.016   1.966  0.5212  0.1438 -1.7403
 4561TIP3    H235319   0.455   0.149   1.985 -1.0050 -0.8264 -0.2489
 4562TIP3   OH235320   5.434   1.658   1.915  0.3123  0.5685 -0.4109
 4562TIP3    H135321   5.525   1.649   1.942  0.4097  0.2800 -0.8265
 4562TIP3    H235322   5.390   1.582   1.954  0.4658  0.1178 -1.1224
 4563TIP3   OH235323   5.892   3.467   2.348  0.1365 -0.1599 -0.2286
 4563TIP3    H135324   5.889   3.435   2.258 -0.9403 -2.5957  0.5789
 4563TIP3    H235325   5.958   3.537   2.346 -0.5350  0.5458 -3.0494
 4564TIP3   OH235326   1.404   5.146   2.473 -0.2922 -0.0670 -0.3838
 4564TIP3    H135327   1.434   5.236   2.465 -1.0682  0.4700  2.0141
 4564TIP3    H235328   1.452   5.111   2.548 -2.3048 -0.5770  0.7309
 4565TIP3   OH235329   1.722   0.722   2.545 -0.1708 -0.0333 -0.5702
 4565TIP3    H135330   1.784   0.754   2.480 -0.6913  0.5341 -0.8011
 4565TIP3    H235331   1.750   0.762   2.627 -0.0662  0.0056 -0.6253
 4566TIP3   OH235332   2.300   4.069   2.703 -0.4433  0.3102  0.4018
 4566TIP3    H135333   2.354   4.148   2.700  2.1965 -1.1906  3.3743
 4566TIP3    H235334   2.263   4.068   2.791 -1.6088 -1.0891 -0.0527
 4567TIP3   OH235335   3.111   0.974   1.915 -0.0206  0.0995 -0.1137
 4567TIP3    H135336   3.113   1.059   1.870 -0.0525 -0.0339 -0.3691
 4567TIP3    H235337   3.022   0.967   1.950 -0.2523 -0.1601 -0.7385
 4568TIP3   OH235338   5.564   4.198   1.625 -0.4053 -0.2430 -0.5606
 4568TIP3    H135339   5.593   4.192   1.534  1.2327 -0.4205 -0.0719
 4568TIP3    H235340   5.507   4.122   1.637 -1.9554  0.6572 -1.8403
 4569TIP3   OH235341   0.249   5.081   7.528  0.3038 -0.5495 -0.4318
 4569TIP3    H135342   0.333   5.038   7.513  0.4230 -0.3389 -0.3714
 4569TIP3    H235343   0.239   5.081   7.623  0.7785  0.4573 -0.3727
 4570TIP3   OH235344   1.939   5.155   0.930 -0.7484 -0.2316  0.8654
 4570TIP3    H135345   2.015   5.190   0.976 -0.3537  0.8834 -0.5851
 4570TIP3    H235346   1.864   5.190   0.979 -0.3366  0.4601  1.0181
 4571TIP3   OH235347   0.410   1.772   8.348  0.3370  0.5885 -0.5385
 4571TIP3    H135348   0.489   1.827   8.344  0.2813  0.9695  2.1814
 4571TIP3    H235349   0.340   1.832   8.372 -0.6490  0.0651 -1.9617
 4572TIP3   OH235350   5.087   0.743   2.388  0.3546  0.2613 -0.0013
 4572TIP3    H135351   5.063   0.658   2.426  4.3447 -1.0200  0.1525
 4572TIP3    H235352   5.132   0.789   2.459  1.3057  0.9849 -1.0418
 4573TIP3   OH235353   1.774   5.246   2.339  0.0019  0.2316 -0.0898
 4573TIP3    H135354   1.683   5.265   2.362 -0.6462 -0.6160 -1.8240
 4573TIP3    H235355   1.782   5.271   2.247  1.4968  0.1756 -0.0012
 4574TIP3   OH235356   5.025   0.984   0.921 -0.7084 -0.0907  0.4908
 4574TIP3    H135357   5.070   1.065   0.945  1.9193 -1.2408 -0.1406
 4574TIP3    H235358   4.950   0.980   0.979  0.5950  1.4699  2.4275
 4575TIP3   OH235359   3.523   0.707   1.438 -0.3142  0.4192  0.5161
 4575TIP3    H135360   3.585   0.651   1.391  1.3066  2.1099  0.4821
 4575TIP3    H235361   3.486   0.651   1.505 -0.0806 -1.1363 -0.6058
 4576TIP3   OH235362   5.063   5.299   1.314 -0.3854 -0.2163 -0.1231
 4576TIP3    H135363   5.091   5.224   1.260 -0.0664 -0.5919  0.5457
 4576TIP3    H235364   5.016   5.356   1.253  1.6219  0.3288 -1.2743
 4577TIP3   OH235365   2.970   1.009   3.423  0.3122  0.5983  0.0881
 4577TIP3    H135366   2.891   0.960   3.446 -0.2311  1.9186  1.2273
 4577TIP3    H235367   3.035   0.943   3.402 -1.3270 -0.5182 -1.6958
 4578TIP3   OH235368   4.006   3.735   7.196 -0.2017  0.4258  0.1091
 4578TIP3    H135369   3.938   3.785   7.150 -0.1880  0.0589 -0.3154
 4578TIP3    H235370   4.032   3.667   7.134  1.9627  1.7505 -0.5268
 4579TIP3   OH235371   6.274   3.918   8.431 -0.0421 -0.1003  0.1981
 4579TIP3    H135372   6.321   3.837   8.450 -2.2129 -1.4223  0.3359
 4579TIP3    H235373   6.288   3.933   8.338  2.6449  0.9664  0.7049
 4580TIP3   OH235374   6.160   3.081   1.608 -0.0962  0.1971 -0.2673
 4580TIP3    H135375   6.139   3.135   1.531  0.7439  0.2588 -0.4685
 4580TIP3    H235376   6.154   3.141   1.682  1.2573  0.7071 -0.5358
 4581TIP3   OH235377   6.753   5.558   0.651 -0.4197 -0.2848  0.3115
 4581TIP3    H135378   6.771   5.468   0.626 -0.3248 -0.3732  0.6830
 4581TIP3    H235379   6.738   5.604   0.569 -1.8387 -0.9326  0.1666
 4582TIP3   OH235380   4.867   2.484   0.120  0.0353  0.6253  0.2115
 4582TIP3    H135381   4.804   2.490   0.048  1.6568  1.7261 -1.2026
 4582TIP3    H235382   4.924   2.411   0.096 -0.7200 -0.4438  1.5412
 4583TIP3   OH235383   0.380   0.077   2.988  0.6676 -0.0198 -0.2179
 4583TIP3    H135384   0.405   0.150   2.931  0.0650  1.4619  1.3351
 4583TIP3    H235385   0.414  -0.000   2.943  1.8184  1.2447 -1.6539
 4584TIP3   OH235386   2.393   4.860   0.389 -0.0154 -0.0671 -0.4371
 4584TIP3    H135387   2.338   4.804   0.443 -1.5763  1.0661 -0.7794
 4584TIP3    H235388   2.382   4.826   0.300  1.6848 -1.2465 -0.2460
 4585TIP3   OH235389   2.544   4.131   1.965 -0.1545  0.1502  0.0403
 4585TIP3    H135390   2.513   4.213   2.002  0.2904  0.1703  0.3690
 4585TIP3    H235391   2.617   4.104   2.021  0.8374  0.4227 -1.0687
 4586TIP3   OH235392   4.294   2.741   8.208 -0.0000  0.7976  0.3192
 4586TIP3    H135393   4.208   2.700   8.219 -0.3006  1.1951 -0.4501
 4586TIP3    H235394   4.323   2.714   8.121  1.4826 -0.7855  1.2388
 4587TIP3   OH235395   1.934   1.672   1.567  0.2056  0.2265  0.1007
 4587TIP3    H135396   1.950   1.714   1.482 -0.7664  0.9941  0.2747
 4587TIP3    H235397   1.916   1.745   1.626 -1.7639 -0.4254  0.3629
 4588TIP3   OH235398   4.782   2.184   1.778 -0.2335 -0.2560 -0.1793
 4588TIP3    H135399   4.837   2.196   1.700  0.0910 -0.9627 -0.0668
 4588TIP3    H235400   4.775   2.272   1.815  1.9842 -0.3142  0.5573
 4589TIP3   OH235401   5.318   4.828   7.724 -0.2212  0.5461 -0.2855
 4589TIP3    H135402   5.291   4.895   7.786 -0.1446 -0.5001  0.9153
 4589TIP3    H235403   5.358   4.876   7.652 -1.7819  1.8948 -0.3015
 4590TIP3   OH235404   3.267   0.772   1.800 -0.0537  0.1777  0.0045
 4590TIP3    H135405   3.214   0.838   1.846  0.2359  1.1355 -0.9899
 4590TIP3    H235406   3.217   0.691   1.808 -2.8528  1.4214 -2.6364
 4591TIP3   OH235407   0.676   6.580   1.060  0.2140 -0.2444 -0.2330
 4591TIP3    H135408   0.715   6.616   1.141 -0.3266  1.2331 -0.6089
 4591TIP3    H235409   0.613   6.515   1.091  0.6860 -0.3721  0.4974
 4592TIP3   OH235410   5.957   4.407   6.808  0.2330 -0.0645 -0.4929
 4592TIP3    H135411   6.010   4.393   6.729  3.3341  0.0073  1.3931
 4592TIP3    H235412   5.896   4.334   6.810  1.5888 -1.3006 -1.8209
 4593TIP3   OH235413   6.148   2.157   1.843  0.3019  0.1701 -0.2659
 4593TIP3    H135414   6.216   2.140   1.908  1.6010  1.5481 -1.2012
 4593TIP3    H235415   6.125   2.071   1.809  0.0924 -0.5070  1.4929
 4594TIP3   OH235416   5.138   0.511   0.357  0.0652 -0.3829 -0.3663
 4594TIP3    H135417   5.167   0.477   0.272 -1.4614  1.4183 -1.6963
 4594TIP3    H235418   5.077   0.445   0.390 -0.6249 -0.3497 -1.5136
 4595TIP3   OH235419   4.264   6.800   7.976 -0.1381  0.4152  0.4595
 4595TIP3    H135420   4.339   6.772   7.923 -1.0509 -0.2684 -0.5275
 4595TIP3    H235421   4.232   6.878   7.931 -1.6411 -0.8424 -0.7606
 4596TIP3   OH235422   4.755   0.510   0.646  0.3534 -0.6417 -0.1206
 4596TIP3    H135423   4.787   0.586   0.596 -2.8311 -0.2230 -1.7848
 4596TIP3    H235424   4.735   0.546   0.733 -1.7282  0.7160 -1.0709
 4597TIP3   OH235425   2.062   0.604   1.543 -0.4450 -0.2635 -0.3393
 4597TIP3    H135426   1.983   0.637   1.587  0.4949 -1.9007  2.9131
 4597TIP3    H235427   2.114   0.682   1.526 -1.3542  0.5639  0.4925
 4598TIP3   OH235428   1.512   5.978   8.263 -0.4245  0.4479 -0.4287
 4598TIP3    H135429   1.601   6.007   8.243 -0.8417  1.5752 -0.7485
 4598TIP3    H235430   1.456   6.033   8.207 -1.2758 -0.8742 -0.9151
 4599TIP3   OH235431   5.830   5.570   2.590  0.0913  0.6957  1.0878
 4599TIP3    H135432   5.878   5.611   2.662 -0.3618 -0.1884  1.9238
 4599TIP3    H235433   5.888   5.578   2.515 -0.6121  4.2666  0.7658
 4600TIP3   OH235434   1.342   3.697   0.071 -0.4986  0.0329 -0.2843
 4600TIP3    H135435   1.364   3.787   0.093 -1.8798  0.3196  0.0499
 4600TIP3    H235436   1.257   3.682   0.114 -0.4802 -1.2917 -0.6585
 4601TIP3   OH235437   1.377   5.497   0.237  0.0022 -0.3101  0.0248
 4601TIP3    H135438   1.334   5.573   0.197  0.5825  0.1347  0.2309
 4601TIP3    H235439   1.423   5.533   0.313 -0.6156 -1.0449  0.7817
 4602TIP3   OH235440   5.347   4.576   7.810  0.3321 -0.4468 -0.4923
 4602TIP3    H135441   5.252   4.578   7.827  0.7089 -0.0291  1.8807
 4602TIP3    H235442   5.364   4.660   7.768 -0.2435 -0.1767 -0.2081
 4603TIP3   OH235443   5.180   4.791   0.992  0.4652 -0.1499  0.2959
 4603TIP3    H135444   5.146   4.768   1.079  1.2717 -0.7559  0.4746
 4603TIP3    H235445   5.172   4.886   0.987  0.3833 -0.1091  1.0343
 4604TIP3   OH235446   3.751   2.190   1.392  0.2623  0.6347  0.2702
 4604TIP3    H135447   3.843   2.216   1.390 -0.0038  1.6227 -1.8633
 4604TIP3    H235448   3.752   2.097   1.372  0.7886  0.5926  0.4633
 4605TIP3   OH235449   5.472   2.822   0.292 -0.1586  0.2041  0.3804
 4605TIP3    H135450   5.534   2.821   0.365 -1.0437  3.5141  1.3346
 4605TIP3    H235451   5.526   2.837   0.215  0.4832  0.2635  0.8348
 4606TIP3   OH235452   4.501   4.190   2.955  0.2477 -0.2734  0.2887
 4606TIP3    H135453   4.417   4.236   2.947  1.9129  3.1753  0.7198
 4606TIP3    H235454   4.534   4.186   2.865  1.0078  1.3829  0.4617
 4607TIP3   OH235455   5.526   2.282   0.676 -0.3054  0.5457 -0.2229
 4607TIP3    H135456   5.602   2.322   0.718  0.9387 -0.7457 -1.1440
 4607TIP3    H235457   5.559   2.251   0.591 -1.1262 -2.4450  0.4185
 4608TIP3   OH235458   0.759   3.263   1.980  0.3038 -0.2792 -0.5617
 4608TIP3    H135459   0.734   3.353   1.957  1.4429  0.3921  0.6418
 4608TIP3    H235460   0.721   3.209   1.912 -1.6389  0.9710 -0.5569
 4609TIP3   OH235461   0.455   3.283   8.057 -0.4504 -0.4247 -0.2829
 4609TIP3    H135462   0.502   3.339   7.994 -0.6618 -0.5923 -0.5889
 4609TIP3    H235463   0.414   3.216   8.004 -3.2349  1.1711 -0.3674
 4610TIP3   OH235464   0.046   5.978   0.146 -0.0197 -0.5734  0.1916
 4610TIP3    H135465   0.103   5.922   0.199 -0.0087  1.3330  2.3201
 4610TIP3    H235466   0.104   6.017   0.080  0.5587 -0.7956  0.5674
 4611TIP3   OH235467   2.681   1.620   0.600 -0.0498  0.3379 -0.3020
 4611TIP3    H135468   2.717   1.708   0.589 -0.4844  0.4530 -0.8096
 4611TIP3    H235469   2.695   1.600   0.693 -0.7928  1.3120  0.0261
 4612TIP3   OH235470   1.718   4.183   1.310 -0.2499 -0.0599  0.4486
 4612TIP3    H135471   1.624   4.190   1.297 -0.0602  0.5127 -0.7931
 4612TIP3    H235472   1.735   4.089   1.321 -0.6849 -0.4958 -2.0129
 4613TIP3   OH235473   1.456   5.119   8.195  0.3682 -0.8334  0.1051
 4613TIP3    H135474   1.520   5.096   8.128  0.7601  3.4455 -1.2309
 4613TIP3    H235475   1.388   5.167   8.148 -0.3157  0.6650  2.4539
 4614TIP3   OH235476   2.937   0.605   8.293  0.1890  0.1200 -0.4677
 4614TIP3    H135477   3.006   0.552   8.332 -0.4929  0.3471  1.1234
 4614TIP3    H235478   2.979   0.690   8.275  0.5880 -0.0836 -0.5083
 4615TIP3   OH235479   2.379   0.692   0.228  0.0675  0.4573 -0.4791
 4615TIP3    H135480   2.420   0.674   0.313 -1.2537 -0.4062 -0.0011
 4615TIP3    H235481   2.424   0.633   0.167  0.3097  0.3412 -0.1904
 4616TIP3   OH235482   2.375   5.765   8.332  0.2916 -0.1792 -0.2039
 4616TIP3    H135483   2.311   5.768   8.261  2.2220  0.2023 -2.0215
 4616TIP3    H235484   2.410   5.676   8.329 -1.9757 -1.3396  2.6195
 4617TIP3   OH235485   2.282   4.747   7.336 -0.7751 -0.1650  0.2770
 4617TIP3    H135486   2.215   4.783   7.278 -0.3823 -1.5984 -1.1515
 4617TIP3    H235487   2.237   4.680   7.386  0.0472 -3.4508 -2.9509
 4618TIP3   OH235488   5.966   1.682   7.641 -0.2405 -0.0909 -0.1738
 4618TIP3    H135489   5.969   1.739   7.718  0.2403  0.1832 -0.3912
 4618TIP3    H235490   6.057   1.659   7.624 -0.4323 -1.0125 -0.0351
 4619TIP3   OH235491   3.264   5.825   1.984  0.2541  0.2324  0.1224
 4619TIP3    H135492   3.264   5.845   2.077 -0.0305  0.8774 -0.0156
 4619TIP3    H235493   3.329   5.755   1.975  0.2817  0.1632  0.7992
 4620TIP3   OH235494   3.061   4.603   0.599 -0.1617  0.2210 -0.2944
 4620TIP3    H135495   3.033   4.694   0.614  1.9062  0.8699 -0.0117
 4620TIP3    H235496   3.082   4.600   0.506 -2.4061 -0.6810 -0.8468
 4621TIP3   OH235497   2.616   3.615   8.162  0.0144 -0.0806 -0.7576
 4621TIP3    H135498   2.649   3.528   8.138  1.5896  0.3132 -0.1749
 4621TIP3    H235499   2.599   3.658   8.078 -2.1156 -1.3749 -1.0604
 4622TIP3   OH235500   0.533   2.933   1.017  0.1867  0.2227 -0.6536
 4622TIP3    H135501   0.487   2.916   0.935  0.1461  0.7763 -0.7526
 4622TIP3    H235502   0.545   2.847   1.057  1.2018 -0.1744 -1.7732
 4623TIP3   OH235503   1.967   4.210   1.060 -0.4747  0.0322 -0.3829
 4623TIP3    H135504   1.944   4.183   0.971  2.0598 -1.1067 -0.7712
 4623TIP3    H235505   2.057   4.242   1.053 -0.0538 -0.5130  1.8517
 4624TIP3   OH235506   6.654   3.244   0.662  0.2571 -0.3574 -0.9318
 4624TIP3    H135507   6.560   3.255   0.649  0.1322  0.5760  0.5258
 4624TIP3    H235508   6.694   3.282   0.584 -0.5334  1.0172 -0.6912
 4625TIP3   OH235509   0.548   2.015   8.306 -0.3372 -0.1578  0.4949
 4625TIP3    H135510   0.483   2.085   8.300  0.9319  1.0649  0.5031
 4625TIP3    H235511   0.591   2.015   8.220  0.3621 -0.2156  0.8349
 4626TIP3   OH235512   5.946   5.427   0.683  0.9517  0.5162  0.3379
 4626TIP3    H135513   5.918   5.519   0.680  2.4102  0.9950 -2.5696
 4626TIP3    H235514   6.042   5.431   0.682  1.0494 -1.0623  0.7927
 4627TIP3   OH235515   4.053   4.359   0.628  0.1406  0.5769 -0.0314
 4627TIP3    H135516   4.019   4.438   0.669 -0.0208  0.5114 -0.0368
 4627TIP3    H235517   4.041   4.291   0.695  1.2657  0.7684  0.3767
 4628TIP3   OH235518   3.622   3.884   1.033 -0.5008  0.1646  0.4326
 4628TIP3    H135519   3.606   3.880   0.938 -1.5006 -1.6075  0.6198
 4628TIP3    H235520   3.591   3.971   1.059  1.1960  1.2925 -1.0510
 4629TIP3   OH235521   0.441   0.815   7.302 -0.5854 -0.2319  0.1319
 4629TIP3    H135522   0.379   0.745   7.322  0.2079 -1.0811 -0.2971
 4629TIP3    H235523   0.446   0.867   7.382 -1.4209 -0.4835  0.3544
 4630TIP3   OH235524   6.350   6.619   1.793 -0.7744  0.4921  0.2406
 4630TIP3    H135525   6.359   6.638   1.886  0.6330  0.0635  0.2129
 4630TIP3    H235526   6.330   6.704   1.753 -2.7315  0.4672  1.0564
 4631TIP3   OH235527   2.976   1.477   6.942  0.7576 -0.0125  0.3759
 4631TIP3    H135528   3.038   1.404   6.951  0.4666 -0.3888 -0.6329
 4631TIP3    H235529   3.006   1.541   7.007  0.4023 -1.4499  2.0429
 4632TIP3   OH235530   3.666   3.292   0.955 -0.2765 -0.0496 -0.0451
 4632TIP3    H135531   3.609   3.355   0.911 -0.2349 -1.1231 -1.7191
 4632TIP3    H235532   3.605   3.235   1.003 -0.6061 -0.8574 -1.3840
 4633TIP3   OH235533   5.217   4.108   0.777  0.3765 -0.4677  0.4055
 4633TIP3    H135534   5.273   4.055   0.720 -1.1754  0.0519 -1.7195
 4633TIP3    H235535   5.273   4.181   0.804  0.9909 -0.3799 -1.0044
 4634TIP3   OH235536   4.776   5.100   2.225 -0.1131 -0.2332  0.2351
 4634TIP3    H135537   4.781   5.061   2.312  0.9034 -0.4982  0.0669
 4634TIP3    H235538   4.799   5.029   2.165 -0.2406  0.0988 -0.2143
 4635TIP3   OH235539   4.947   1.244   0.085 -0.5081 -0.3905  0.2813
 4635TIP3    H135540   4.953   1.154   0.116  3.1771  0.2819  2.0746
 4635TIP3    H235541   5.024   1.256   0.029 -0.8589  1.6422  0.1465
 4636TIP3   OH235542   0.084   6.686   0.920 -1.0403 -1.0321 -0.4155
 4636TIP3    H135543   0.050   6.766   0.879  0.7863 -0.3347 -0.6695
 4636TIP3    H235544   0.124   6.638   0.847  1.4488 -0.2102  0.3094
 4637TIP3   OH235545   1.671   4.186   1.019  0.1086  0.2910 -0.3684
 4637TIP3    H135546   1.722   4.172   1.099 -1.8657  0.8703  1.0829
 4637TIP3    H235547   1.722   4.249   0.968  2.0630 -1.0981 -0.2504
 4638TIP3   OH235548   0.542   0.969   0.806  0.5939  0.1314  0.0053
 4638TIP3    H135549   0.529   0.886   0.851 -1.4380  0.5083  0.2236
 4638TIP3    H235550   0.486   0.962   0.728  0.4011  1.2912  0.0312
 4639TIP3   OH235551   5.975   1.779   0.505  0.2614 -0.1504 -0.2646
 4639TIP3    H135552   5.951   1.835   0.579 -0.8274 -0.3640 -0.4377
 4639TIP3    H235553   6.064   1.807   0.482 -0.3141  1.6510 -0.4718
 4640TIP3   OH235554   2.611   4.874   2.125 -0.7826  0.4799 -0.4141
 4640TIP3    H135555   2.517   4.866   2.107 -0.6077 -0.7651 -0.8244
 4640TIP3    H235556   2.615   4.929   2.203 -1.9261 -0.6357  0.4590
 4641TIP3   OH235557   6.127   1.976   7.900  0.2819  0.5178 -0.4521
 4641TIP3    H135558   6.153   1.980   7.993 -1.3533  1.8474 -0.0097
 4641TIP3    H235559   6.210   1.977   7.853  1.1539 -0.1418  0.9893
 4642TIP3   OH235560   0.197   1.811   0.686 -0.2820 -0.0334  0.6495
 4642TIP3    H135561   0.150   1.878   0.735 -1.4784 -0.4359  0.0755
 4642TIP3    H235562   0.155   1.808   0.601  0.7214 -0.4878  0.1455
 4643TIP3   OH235563   4.911   2.440   2.009 -0.1915  0.1280  0.3503
 4643TIP3    H135564   4.995   2.403   1.981  0.4377  1.0659  0.9411
 4643TIP3    H235565   4.858   2.440   1.929  0.2829 -0.6873  0.0166
 4644TIP3   OH235566   5.858   1.340   1.172 -0.4043 -0.8770 -0.1298
 4644TIP3    H135567   5.953   1.340   1.160 -0.4347 -0.8428 -0.3735
 4644TIP3    H235568   5.833   1.432   1.166 -0.5085 -0.9273 -0.5290
 4645TIP3   OH235569   6.010   3.017   1.992  0.3510 -0.3931  0.1189
 4645TIP3    H135570   5.989   2.923   1.985 -1.2803 -0.1246  1.0471
 4645TIP3    H235571   6.096   3.019   2.033  1.1645 -1.4901 -1.3949
 4646TIP3   OH235572   2.878   1.502   1.704  0.0467 -0.7354  0.1971
 4646TIP3    H135573   2.842   1.475   1.620  0.9644 -2.8622  0.4425
 4646TIP3    H235574   2.805   1.494   1.765 -0.6824  1.0245 -0.3834
 4647TIP3   OH235575   5.861   5.971   6.822 -0.4527 -0.3477  0.5862
 4647TIP3    H135576   5.918   6.038   6.783  0.6392 -1.6476 -0.1295
 4647TIP3    H235577   5.834   5.917   6.748  1.1232 -2.4783  1.4838
 4648TIP3   OH235578   5.649   4.098   0.022 -0.4156  0.3545  0.0167
 4648TIP3    H135579   5.597   4.139  -0.047 -1.5247 -0.6468  0.2295
 4648TIP3    H235580   5.685   4.172   0.072 -0.6134  1.0700 -0.8867
 4649TIP3   OH235581   3.002   2.370   7.290  0.3754 -0.4486  0.0434
 4649TIP3    H135582   2.964   2.378   7.202  1.0254  0.6991 -0.1541
 4649TIP3    H235583   2.926   2.363   7.348 -0.0795 -0.5218 -0.5468
 4650TIP3   OH235584   5.442   3.752   7.723 -0.8115 -0.5155  0.1340
 4650TIP3    H135585   5.526   3.775   7.764  0.4137 -0.3759 -2.2440
 4650TIP3    H235586   5.456   3.663   7.690 -1.1677 -0.0818 -1.2436
 4651TIP3   OH235587   6.518   4.755   2.039 -0.0331 -0.1807  0.4740
 4651TIP3    H135588   6.517   4.717   1.951 -1.1368  1.2102 -0.1550
 4651TIP3    H235589   6.431   4.793   2.050  0.1799 -0.0831  2.0725
 4652TIP3   OH235590   2.900   2.675   0.011  0.0175  0.0310  0.1546
 4652TIP3    H135591   2.908   2.770   0.013 -0.0209  0.0296  0.8567
 4652TIP3    H235592   2.981   2.643   0.050  0.5609 -0.2727 -1.1695
 4653TIP3   OH235593   3.988   4.688   2.086  0.1261  0.2260  0.6355
 4653TIP3    H135594   3.911   4.708   2.033 -0.2990 -0.1863  1.0915
 4653TIP3    H235595   4.040   4.629   2.031 -1.1265 -1.5848  1.2935
 4654TIP3   OH235596   3.580   6.640   7.260 -0.5951  0.3252  0.1881
 4654TIP3    H135597   3.547   6.687   7.337 -0.1228 -0.4970  0.8986
 4654TIP3    H235598   3.554   6.549   7.274 -0.9205  0.2415 -0.8629
 4655TIP3   OH235599   5.087   2.605   1.163 -0.0860  0.1573 -0.4605
 4655TIP3    H135600   5.007   2.553   1.174 -0.5888  0.9649 -0.2100
 4655TIP3    H235601   5.098   2.650   1.247  1.8572 -1.5750  0.2918
 4656TIP3   OH235602   3.169   6.352   8.033  0.5664  0.5160 -0.1039
 4656TIP3    H135603   3.238   6.417   8.021 -0.4038  1.5504 -0.2019
 4656TIP3    H235604   3.124   6.349   7.949 -1.2505  1.9327  0.7470
 4657TIP3   OH235605   6.690   6.337   1.652  0.2442 -0.2657  0.0676
 4657TIP3    H135606   6.757   6.346   1.584 -0.0438  1.1083 -0.0759
 4657TIP3    H235607   6.631   6.270   1.618  0.7621 -0.4607 -0.4799
 4658TIP3   OH235608   5.982   3.597   1.542  0.7181 -0.0195 -1.0286
 4658TIP3    H135609   6.073   3.579   1.568  0.3599 -0.4092  0.0381
 4658TIP3    H235610   5.939   3.512   1.546 -0.5138  0.6191  2.0140
 4659TIP3   OH235611   2.966   3.403   1.468  0.0812  0.0568  0.3575
 4659TIP3    H135612   3.010   3.399   1.553  0.1155 -0.1103  0.3337
 4659TIP3    H235613   2.897   3.468   1.480  0.5006  0.5118  0.3155
 4660TIP3   OH235614   2.055   6.355   1.688 -0.1343  0.0919  0.7716
 4660TIP3    H135615   1.966   6.384   1.712 -0.8298 -1.7305  0.5278
 4660TIP3    H235616   2.068   6.274   1.737  1.9350  0.9739  1.7902
 4661TIP3   OH235617   4.817   5.408   0.299  0.6860  0.5156 -0.0489
 4661TIP3    H135618   4.891   5.465   0.275  0.5496  0.6785 -0.0830
 4661TIP3    H235619   4.751   5.468   0.333  0.1174  0.4957 -1.0972
 4662TIP3   OH235620   3.543   0.154   1.679 -0.5965  0.1041  0.3492
 4662TIP3    H135621   3.486   0.078   1.672 -1.9762  1.0352  1.0842
 4662TIP3    H235622   3.484   0.229   1.677  0.6468  1.1252  0.6761
 4663TIP3   OH235623   0.575   5.851   0.154 -0.1517 -0.0540  0.0116
 4663TIP3    H135624   0.546   5.918   0.216 -0.8310  0.3274 -0.7010
 4663TIP3    H235625   0.523   5.773   0.177  0.9763 -0.5198  1.1489
 4664TIP3   OH235626   6.747   5.440   2.136  0.1036 -0.4687 -0.3613
 4664TIP3    H135627   6.724   5.352   2.167  1.1973 -0.8053 -0.4341
 4664TIP3    H235628   6.803   5.475   2.205  0.7847 -0.3753 -0.9438
 4665TIP3   OH235629   4.530   4.452   2.481  0.1422  0.0647 -0.2743
 4665TIP3    H135630   4.481   4.534   2.493 -0.5965 -0.5703  1.2910
 4665TIP3    H235631   4.574   4.438   2.565  1.6160 -0.3113 -1.0756
 4666TIP3   OH235632   3.435   4.280   0.694 -0.1227 -0.3374 -0.1011
 4666TIP3    H135633   3.451   4.363   0.650  4.1541 -1.0730 -0.3634
 4666TIP3    H235634   3.441   4.301   0.787  3.8290 -0.5405 -0.1417
 4667TIP3   OH235635   1.125   4.765   1.865 -0.5293  0.4198  0.6531
 4667TIP3    H135636   1.093   4.697   1.925  0.8477 -1.8083 -0.9557
 4667TIP3    H235637   1.046   4.808   1.833 -1.5280 -1.0520  1.0386
 4668TIP3   OH235638   3.481   6.063   0.624 -0.1676  0.5881 -0.1890
 4668TIP3    H135639   3.434   6.127   0.677  2.5116  1.7885  0.9270
 4668TIP3    H235640   3.570   6.098   0.617  0.6473 -1.5916 -2.0526
 4669TIP3   OH235641   4.924   4.496   8.480 -0.7415  0.5617  0.2345
 4669TIP3    H135642   4.983   4.452   8.540 -1.1116 -3.4055 -1.9651
 4669TIP3    H235643   4.979   4.522   8.406 -1.2402 -0.4602 -0.5130
 4670TIP3   OH235644   3.426   4.567   1.970  0.4288  0.6696  0.3597
 4670TIP3    H135645   3.513   4.539   1.997 -0.7374 -0.6520  3.1565
 4670TIP3    H235646   3.368   4.495   1.995 -1.8155  2.6265  1.2104
 4671TIP3   OH235647   4.673   1.560   0.487 -0.4288  0.1800 -0.5737
 4671TIP3    H135648   4.740   1.533   0.549 -1.2252 -0.7568 -0.1010
 4671TIP3    H235649   4.716   1.627   0.433  0.5624  0.3239  0.3622
 4672TIP3   OH235650   6.282   0.953   6.463 -0.2084 -0.6173  0.0981
 4672TIP3    H135651   6.283   1.036   6.415  2.2587 -0.5242  0.1908
 4672TIP3    H235652   6.243   0.890   6.403  0.4522  0.0517 -1.0491
 4673TIP3   OH235653   0.602   3.061   0.352 -0.4087  0.0154  0.5797
 4673TIP3    H135654   0.514   3.032   0.327 -0.3877 -1.2971  1.8907
 4673TIP3    H235655   0.660   2.998   0.309 -0.0769  0.9236 -0.3439
 4674TIP3   OH235656   2.382   3.968   1.812 -1.1350  0.1750  0.1609
 4674TIP3    H135657   2.431   4.025   1.871 -1.0003  0.8690 -0.6087
 4674TIP3    H235658   2.393   3.881   1.850  1.3470  0.1678 -0.3750
 4675TIP3   OH235659   5.271   6.555   2.227  0.1596  0.3561  0.1070
 4675TIP3    H135660   5.232   6.634   2.264  1.5316  0.3429  1.6930
 4675TIP3    H235661   5.365   6.566   2.241  0.3838 -1.5428  0.3655
 4676TIP3   OH235662   4.533   6.191   6.856  0.5087  0.1009  0.1658
 4676TIP3    H135663   4.534   6.276   6.812  1.2550  1.2128  2.1936
 4676TIP3    H235664   4.621   6.180   6.891  0.7612 -2.0649 -0.9734
 4677TIP3   OH235665   0.459   6.078   1.151  0.3132 -0.1528 -0.6451
 4677TIP3    H135666   0.473   5.987   1.125 -2.3019 -1.0559  0.7265
 4677TIP3    H235667   0.518   6.092   1.225 -0.2069 -1.1994 -0.0152
 4678TIP3   OH235668   0.329   5.710   1.576 -0.2318  0.1649  0.1591
 4678TIP3    H135669   0.392   5.652   1.534 -1.9728 -1.3591 -0.4640
 4678TIP3    H235670   0.291   5.761   1.504  0.1066  0.9136  0.4983
 4679TIP3   OH235671   1.421   0.154   1.298  0.1985  0.1928  0.1831
 4679TIP3    H135672   1.458   0.242   1.302  0.6382  0.0584 -0.6866
 4679TIP3    H235673   1.339   0.165   1.249 -0.7081  0.4142  1.7033
 4680TIP3   OH235674   3.842   4.604   1.668  0.5201 -0.2634  0.2857
 4680TIP3    H135675   3.809   4.619   1.579 -0.0924  1.4890  0.7694
 4680TIP3    H235676   3.887   4.520   1.662  0.5506 -0.1695 -1.6953
 4681TIP3   OH235677   2.881   4.793   7.587  1.1118 -0.4865  0.1830
 4681TIP3    H135678   2.921   4.876   7.559 -0.7951 -0.1866 -1.9159
 4681TIP3    H235679   2.904   4.732   7.517  0.7323 -1.1785  0.6593
 4682TIP3   OH235680   6.810   4.543   2.185 -0.4782 -0.3281 -0.5223
 4682TIP3    H135681   6.775   4.546   2.274  0.7273  1.4264 -0.0598
 4682TIP3    H235682   6.771   4.618   2.140  0.2488 -0.1659 -0.9184
 4683TIP3   OH235683   4.595   1.426   0.142  0.2977 -0.1955 -0.1280
 4683TIP3    H135684   4.584   1.337   0.175 -1.0897 -0.9591 -2.4317
 4683TIP3    H235685   4.515   1.471   0.169 -0.0068 -0.3026 -0.8303
 4684TIP3   OH235686   3.992   2.654   1.692 -0.3026  0.3738 -0.4742
 4684TIP3    H135687   3.947   2.572   1.711 -0.0379  0.2164 -0.5147
 4684TIP3    H235688   4.083   2.628   1.676 -0.6208  0.4102 -2.5803
 4685TIP3   OH235689   4.248   5.993   7.125  0.2805  0.1034  0.1518
 4685TIP3    H135690   4.328   6.018   7.079 -0.7517  2.4079 -0.5756
 4685TIP3    H235691   4.179   5.997   7.058 -0.9952  1.8444  1.4671
 4686TIP3   OH235692   2.979   2.077   0.735  0.2327  0.2338  0.1641
 4686TIP3    H135693   2.891   2.112   0.753 -0.7252 -1.8373 -0.2362
 4686TIP3    H235694   3.030   2.101   0.812 -0.5107  1.9533  0.1702
 4687TIP3   OH235695   0.437   2.028   0.531  0.3330  0.0992 -0.1980
 4687TIP3    H135696   0.521   2.071   0.515  0.2271  0.4105  0.0786
 4687TIP3    H235697   0.373   2.084   0.487  0.2153  0.1258  0.0056
 4688TIP3   OH235698   1.079   6.384   8.507 -0.2691  0.2275  0.4890
 4688TIP3    H135699   1.014   6.348   8.446 -0.4296  0.6321  0.4147
 4688TIP3    H235700   1.125   6.451   8.456 -0.2430  0.4022  0.7409
 4689TIP3   OH235701   5.940   0.327   1.087 -0.6496  0.0669 -0.0864
 4689TIP3    H135702   5.886   0.320   1.165  1.0238 -1.0145  1.0528
 4689TIP3    H235703   6.023   0.362   1.119 -0.2985  0.6718 -1.5815
 4690TIP3   OH235704   0.626   0.002   7.192  0.0220 -0.0597  0.0747
 4690TIP3    H135705   0.637   0.082   7.140 -0.0081  0.1657  0.4091
 4690TIP3    H235706   0.532  -0.016   7.189  0.1248 -0.5284 -0.6463
 4691TIP3   OH235707   6.925   0.606   7.127  0.0696  0.3943 -0.4017
 4691TIP3    H135708   6.934   0.582   7.035  0.8139  0.2651 -0.3010
 4691TIP3    H235709   7.009   0.646   7.150 -0.0953  0.3903  0.2316
 4692TIP3   OH235710   0.594   6.700   6.765 -0.2564 -0.2367  0.6111
 4692TIP3    H135711   0.544   6.781   6.779  0.0762  0.3165 -1.2329
 4692TIP3    H235712   0.682   6.729   6.742 -0.0542 -1.1279  0.2074
 4693TIP3   OH235713   3.927   1.094   1.339  0.0769 -0.7361  0.3451
 4693TIP3    H135714   3.887   1.065   1.257 -1.4662  0.2062  0.7160
 4693TIP3    H235715   3.948   1.186   1.324  0.6525 -0.8019  0.7067
 4694TIP3   OH235716   6.764   4.219   7.736  0.2942  0.9417  0.6666
 4694TIP3    H135717   6.756   4.240   7.643  0.9002  0.5975  0.5250
 4694TIP3    H235718   6.695   4.269   7.779  0.0915  1.2015  0.0451
 4695TIP3   OH235719   6.291   2.809   1.317  0.3990 -0.3656  0.3911
 4695TIP3    H135720   6.307   2.732   1.263  0.5548  0.1499 -0.3084
 4695TIP3    H235721   6.262   2.774   1.401 -1.6462 -1.1731 -0.5797
 4696TIP3   OH235722   5.213   1.031   0.680 -0.0746  0.7490  0.0831
 4696TIP3    H135723   5.161   1.109   0.697 -2.0515 -0.1831 -1.2598
 4696TIP3    H235724   5.151   0.959   0.684  1.3910 -0.5965 -0.2224
 4697TIP3   OH235725   1.934   4.900   1.036 -0.2312 -0.0813 -0.2176
 4697TIP3    H135726   1.923   4.989   1.004 -2.5447 -0.0575  0.4910
 4697TIP3    H235727   1.910   4.844   0.962  0.6985 -0.1416 -0.4913
 4698TIP3   OH235728   1.388   4.081   1.621  0.0627 -0.2261  0.1418
 4698TIP3    H135729   1.468   4.028   1.623 -0.4483 -1.0646 -0.5186
 4698TIP3    H235730   1.346   4.065   1.706  0.1480 -0.5195  0.1305
 4699TIP3   OH235731   5.647   4.491   0.359  0.1113  0.3194 -0.3361
 4699TIP3    H135732   5.665   4.470   0.268  1.1752 -3.1062  0.5102
 4699TIP3    H235733   5.702   4.568   0.377 -1.1833  1.9655 -2.8302
 4700TIP3   OH235734   4.495   2.085   0.408 -0.1360 -0.7796 -0.3271
 4700TIP3    H135735   4.549   2.006   0.406  0.7240 -0.1987 -1.2756
 4700TIP3    H235736   4.553   2.154   0.439  0.2706  0.2370 -3.0792
 4701TIP3   OH235737   0.999   5.568   0.751  0.2505 -0.2418  0.1042
 4701TIP3    H135738   1.028   5.651   0.788 -0.0195  0.2612 -0.8064
 4701TIP3    H235739   1.031   5.568   0.661 -0.6306 -0.6701 -0.2261
 4702TIP3   OH235740   6.707   6.680   0.757 -0.4497  0.3321 -0.1774
 4702TIP3    H135741   6.636   6.675   0.822 -0.0264 -0.5274  0.2382
 4702TIP3    H235742   6.729   6.588   0.740  2.9024  0.5135  2.2711
 4703TIP3   OH235743   0.440   4.013   1.054  0.0104  0.1149  0.0902
 4703TIP3    H135744   0.530   3.988   1.071 -0.2610 -0.2797  1.0543
 4703TIP3    H235745   0.445   4.079   0.985  1.1576  1.1804  1.1459
 4704TIP3   OH235746   3.482   6.293   7.747 -0.6866 -0.0476 -0.0601
 4704TIP3    H135747   3.489   6.224   7.812 -1.9134  1.1298  1.4136
 4704TIP3    H235748   3.463   6.248   7.665 -0.9630 -1.4590  0.7555
 4705TIP3   OH235749   1.464   2.762   0.377  1.1983 -0.8453 -0.0236
 4705TIP3    H135750   1.483   2.758   0.283  2.9474 -0.5864  0.2816
 4705TIP3    H235751   1.490   2.677   0.411  0.1519 -1.0957  0.1737
 4706TIP3   OH235752   0.065   1.788   6.887  0.4278 -0.3085  0.6230
 4706TIP3    H135753   0.055   1.707   6.938 -0.7210 -1.7773 -1.7645
 4706TIP3    H235754   0.160   1.802   6.881  0.6498 -1.6388  0.8447
 4707TIP3   OH235755   1.226   1.341   6.526  0.4018  0.0975  0.3755
 4707TIP3    H135756   1.301   1.359   6.582  0.6570  0.7764 -0.1666
 4707TIP3    H235757   1.162   1.408   6.549  0.0911 -0.2814  0.6091
 4708TIP3   OH235758   0.282   0.597   7.379 -0.0452  0.1120  0.0562
 4708TIP3    H135759   0.194   0.633   7.379 -0.2053 -0.0460  3.0564
 4708TIP3    H235760   0.271   0.507   7.348 -1.0745 -0.1329  1.0729
 4709TIP3   OH235761   6.921   3.394   1.881 -0.3396 -0.8274  0.0994
 4709TIP3    H135762   6.939   3.476   1.834 -1.1626  0.0785  1.3011
 4709TIP3    H235763   6.878   3.338   1.816  1.5036 -0.8827 -1.1474
 4710TIP3   OH235764   2.786   2.920   1.345  0.4761 -0.3571 -0.0740
 4710TIP3    H135765   2.705   2.967   1.364  0.3364  0.2171 -1.8919
 4710TIP3    H235766   2.766   2.828   1.364  0.0625  0.0135  1.4199
 4711TIP3   OH235767   1.101   3.765   0.574 -0.7902  0.5060  0.0299
 4711TIP3    H135768   1.021   3.765   0.626 -0.0408 -0.5811  1.2428
 4711TIP3    H235769   1.170   3.793   0.635 -0.2366  1.4730 -1.0009
 4712TIP3   OH235770   2.973   3.693   8.456 -0.0454 -1.2008  1.1243
 4712TIP3    H135771   2.881   3.667   8.456  0.4480 -3.0784  0.9221
 4712TIP3    H235772   2.996   3.702   8.548 -0.4874 -0.4146  1.1694
 4713TIP3   OH235773   3.228   3.446   2.682  0.4092 -0.5863 -0.8470
 4713TIP3    H135774   3.132   3.442   2.686  0.4109 -0.8103 -0.9943
 4713TIP3    H235775   3.256   3.356   2.694  0.5890 -0.5695 -1.1307
 4714TIP3   OH235776   5.328   0.723   7.149 -0.4026 -0.3108 -0.0254
 4714TIP3    H135777   5.302   0.633   7.130  1.1220 -0.3906 -2.1469
 4714TIP3    H235778   5.246   0.773   7.147 -1.0501 -1.3591 -0.7704
 4715TIP3   OH235779   6.482   3.975   0.820 -0.3376  0.4654 -0.2545
 4715TIP3    H135780   6.553   3.983   0.884  0.1006 -1.6190 -0.4066
 4715TIP3    H235781   6.527   3.972   0.735 -0.4125 -2.0501 -0.2878
 4716TIP3   OH235782   3.516   6.679   0.533 -0.1799 -0.2191 -0.6295
 4716TIP3    H135783   3.467   6.689   0.451 -2.7943  0.3580  0.9196
 4716TIP3    H235784   3.497   6.591   0.563 -0.4622  0.0893  0.1138
 4717TIP3   OH235785   6.936   2.019   2.844  0.2916 -0.6138 -0.7254
 4717TIP3    H135786   6.908   2.100   2.803  1.9920  0.3251 -0.1402
 4717TIP3    H235787   6.857   1.984   2.885 -0.6924  0.1631 -1.9004
 4718TIP3   OH235788   3.697   5.515   8.260  0.0566  0.0123  0.5097
 4718TIP3    H135789   3.767   5.530   8.197 -0.3125  1.4353  0.4036
 4718TIP3    H235790   3.724   5.564   8.338 -0.4636 -0.0307  0.7215
 4719TIP3   OH235791   6.548   6.488   6.504  0.1763 -0.9698 -0.1201
 4719TIP3    H135792   6.506   6.559   6.456 -1.0080 -1.6467 -0.1180
 4719TIP3    H235793   6.630   6.526   6.537 -0.0916  0.1630 -0.7320
 4720TIP3   OH235794   2.346   0.182   7.351 -0.0540  0.4591 -0.2231
 4720TIP3    H135795   2.310   0.152   7.268  1.4215  0.3020 -0.8334
 4720TIP3    H235796   2.408   0.251   7.327  0.4625  0.3417  0.7399
 4721TIP3   OH235797   0.272   2.845   7.341  0.3515 -0.2603 -0.0748
 4721TIP3    H135798   0.355   2.854   7.387  0.4911  1.8951 -0.6625
 4721TIP3    H235799   0.291   2.871   7.251 -0.5721 -1.5729 -0.6807
 4722TIP3   OH235800   0.237   0.367   7.199 -0.8433 -0.2730  0.1715
 4722TIP3    H135801   0.304   0.391   7.135 -0.6160  1.6020  1.0491
 4722TIP3    H235802   0.223   0.273   7.185  2.8049 -1.0397  0.6856
 4723TIP3   OH235803   3.484   1.352   0.068 -0.9293  0.0475  0.0575
 4723TIP3    H135804   3.411   1.408   0.095 -0.3911  0.4599  0.6916
 4723TIP3    H235805   3.531   1.333   0.149 -1.5317 -1.9923 -0.0196
 4724TIP3   OH235806   6.104   4.506   7.015 -0.5732 -0.4354 -0.4016
 4724TIP3    H135807   6.063   4.453   6.948  1.6782  0.3203 -2.5323
 4724TIP3    H235808   6.097   4.596   6.983  2.1130 -0.2220 -0.6368
 4725TIP3   OH235809   3.961   1.832   7.396  0.1681  1.0526  0.1783
 4725TIP3    H135810   3.874   1.799   7.374  0.7440 -0.7247  0.4277
 4725TIP3    H235811   4.018   1.798   7.326  0.5779  2.9014 -0.4735
 4726TIP3   OH235812   5.887   4.094   1.447  0.0952 -0.4109  0.1499
 4726TIP3    H135813   5.966   4.142   1.468 -0.1112  0.3203 -0.6810
 4726TIP3    H235814   5.824   4.119   1.515  0.1279  0.1555 -0.0233
 4727TIP3   OH235815   4.462   1.846   7.677  0.0993 -0.7422 -0.1318
 4727TIP3    H135816   4.499   1.916   7.732 -2.3644 -0.2382  1.0227
 4727TIP3    H235817   4.525   1.775   7.683  2.4665  1.1642 -0.9502
 4728TIP3   OH235818   1.256   2.008   0.409 -0.7616 -0.7134 -0.2604
 4728TIP3    H135819   1.205   1.929   0.425 -1.8596  0.3283  1.7841
 4728TIP3    H235820   1.201   2.079   0.442  1.4129  0.6012  0.7781
 4729TIP3   OH235821   6.774   6.115   0.408  0.0632  0.1487  0.1147
 4729TIP3    H135822   6.780   6.190   0.467 -1.5918  0.5823 -0.2343
 4729TIP3    H235823   6.685   6.117   0.374  0.3688 -1.2503 -0.8856
 4730TIP3   OH235824   2.319   5.160   2.061 -0.3604 -0.7882 -0.2318
 4730TIP3    H135825   2.310   5.248   2.024 -0.6264 -0.1609  1.2671
 4730TIP3    H235826   2.300   5.101   1.988 -1.6682  0.4073 -0.8995
 4731TIP3   OH235827   6.184   1.183   7.985 -0.5941  0.0654  0.0593
 4731TIP3    H135828   6.277   1.184   8.010 -0.7206  0.4816  0.5294
 4731TIP3    H235829   6.177   1.112   7.923  0.4518  1.2860 -1.5415
 4732TIP3   OH235830   3.950   3.510   7.400 -0.2729 -0.4659 -0.4313
 4732TIP3    H135831   3.976   3.422   7.372  0.5348 -0.2174 -0.4599
 4732TIP3    H235832   3.870   3.495   7.451 -0.8142 -1.0915 -1.4165
 4733TIP3   OH235833   0.693   2.737   7.602 -0.3931  0.5272 -0.7061
 4733TIP3    H135834   0.770   2.763   7.552 -0.4384  1.7138 -0.1884
 4733TIP3    H235835   0.626   2.719   7.535  0.2091 -0.1144 -1.1394
 4734TIP3   OH235836   0.113   0.799   7.673  0.8467 -0.3289 -0.4061
 4734TIP3    H135837   0.040   0.775   7.731 -0.5982  0.3079 -1.8830
 4734TIP3    H235838   0.160   0.867   7.721 -0.3016  0.1670  0.0528
 4735TIP3   OH235839   5.465   5.831   6.861  0.3879 -0.2949  0.9228
 4735TIP3    H135840   5.382   5.861   6.823 -0.8407  1.7412  4.7195
 4735TIP3    H235841   5.451   5.737   6.876 -0.5868 -0.3074  0.0914
 4736TIP3   OH235842   6.804   3.670   2.694 -0.2258  0.0415 -0.1223
 4736TIP3    H135843   6.815   3.765   2.690  0.1828 -0.0306 -0.7836
 4736TIP3    H235844   6.746   3.656   2.769 -0.8010  0.8539 -0.3994
 4737TIP3   OH235845   5.641   1.445   0.345  0.4242 -0.3691  0.0685
 4737TIP3    H135846   5.640   1.450   0.250  1.2464  0.1228  0.0777
 4737TIP3    H235847   5.681   1.360   0.364  0.7730 -0.2248 -0.0221
 4738TIP3   OH235848   5.854   3.301   0.352 -0.1463 -0.6093  0.2484
 4738TIP3    H135849   5.935   3.334   0.389 -0.9899  0.8843  0.8527
 4738TIP3    H235850   5.835   3.359   0.279 -0.4139 -1.2732 -0.2281
 4739TIP3   OH235851   2.852   4.828   1.184 -0.0961 -0.0296 -0.1480
 4739TIP3    H135852   2.766   4.868   1.200 -0.3626 -0.9255  0.7540
 4739TIP3    H235853   2.841   4.737   1.210  1.4662  0.1017  1.1289
 4740TIP3   OH235854   1.284   5.084   7.639  0.6608  0.1851  0.9097
 4740TIP3    H135855   1.377   5.086   7.615  0.3122 -0.4118 -0.5646
 4740TIP3    H235856   1.281   5.028   7.717  1.3920 -0.7768  0.2619
 4741TIP3   OH235857   3.607   3.135   0.368 -0.0974  0.4107 -0.9210
 4741TIP3    H135858   3.695   3.132   0.329 -0.7613  0.2120 -2.4746
 4741TIP3    H235859   3.575   3.222   0.345 -0.0590  0.7446  0.2478
 4742TIP3   OH235860   0.517   3.382   7.654  0.4055  0.1952  0.1291
 4742TIP3    H135861   0.509   3.290   7.678  0.5673  0.6888  2.2850
 4742TIP3    H235862   0.473   3.389   7.569  0.8036 -1.9335 -0.2966
 4743TIP3   OH235863   3.947   3.871   1.447  0.2114 -0.3519  0.0650
 4743TIP3    H135864   3.915   3.849   1.535  1.4536  0.6022  0.7843
 4743TIP3    H235865   4.017   3.808   1.430 -1.0271 -1.5301 -0.9214
 4744TIP3   OH235866   5.090   1.001   2.605  0.3706 -0.3027 -0.1360
 4744TIP3    H135867   5.169   0.956   2.635  0.0265 -0.2194  0.9445
 4744TIP3    H235868   5.023   0.977   2.669 -0.2615  0.3433 -0.5360
 4745TIP3   OH235869   4.791   3.814   2.962  0.0910  0.0939 -0.5526
 4745TIP3    H135870   4.740   3.748   2.916  0.9295 -2.6698  2.1741
 4745TIP3    H235871   4.726   3.864   3.011 -0.3188 -1.5423  0.6570
 4746TIP3   OH235872   5.297   3.247   8.352  0.0467 -0.3604 -0.0495
 4746TIP3    H135873   5.279   3.153   8.352  0.4188 -0.4349  0.8929
 4746TIP3    H235874   5.234   3.284   8.413  0.5537 -0.1257  0.3356
 4747TIP3   OH235875   3.908   1.531   1.859 -0.5827 -0.0177  0.1914
 4747TIP3    H135876   3.832   1.475   1.872 -1.5118  0.9701 -0.7431
 4747TIP3    H235877   3.943   1.505   1.773  1.0327 -1.4462  1.2279
 4748TIP3   OH235878   5.089   5.775   1.950 -0.0234  0.6784  0.5080
 4748TIP3    H135879   5.117   5.730   2.031  0.8805  1.5187  0.6828
 4748TIP3    H235880   4.995   5.789   1.961  0.0595  0.6205  1.3407
 4749TIP3   OH235881   5.493   1.405   8.220 -0.0737 -0.2872  0.3160
 4749TIP3    H135882   5.560   1.396   8.152  0.7523 -4.8427  1.3564
 4749TIP3    H235883   5.525   1.475   8.276  1.3006  0.8331 -1.7175
 4750TIP3   OH235884   2.501   1.361   0.275 -0.4910 -0.4672 -0.2981
 4750TIP3    H135885   2.513   1.354   0.180 -0.0039 -0.7549 -0.2221
 4750TIP3    H235886   2.587   1.387   0.308 -1.1380  1.6091 -0.1116
 4751TIP3   OH235887   2.258   2.497   2.649 -0.5626 -0.8780 -0.5721
 4751TIP3    H135888   2.303   2.580   2.638 -0.2116 -1.0878 -0.7393
 4751TIP3    H235889   2.243   2.489   2.743 -1.5940 -0.1062 -0.6556
 4752TIP3   OH235890   6.614   1.738   1.816 -0.0093  0.5281  0.8371
 4752TIP3    H135891   6.589   1.670   1.753  0.4304  0.2315  0.9790
 4752TIP3    H235892   6.670   1.693   1.879 -1.1714  0.6068  1.9755
 4753TIP3   OH235893   4.947   4.192   0.814  0.0507 -0.0031  0.0617
 4753TIP3    H135894   5.039   4.167   0.809  0.2800  1.0035 -1.7264
 4753TIP3    H235895   4.947   4.287   0.801 -1.2611 -0.0312 -0.3449
 4754TIP3   OH235896   6.482   6.704   0.182 -0.2055 -0.1836 -0.4301
 4754TIP3    H135897   6.428   6.726   0.258 -0.4169  1.7305 -1.0982
 4754TIP3    H235898   6.567   6.743   0.201  0.1231 -0.8014 -0.6214
 4755TIP3   OH235899   0.280   0.931   2.523 -0.5240  0.2524 -0.2931
 4755TIP3    H135900   0.243   0.846   2.500 -4.1396  1.4692  0.4481
 4755TIP3    H235901   0.319   0.963   2.442 -1.6415 -0.9183 -1.3303
 4756TIP3   OH235902   4.038   0.371   0.363  0.2906 -0.1016 -0.1592
 4756TIP3    H135903   4.134   0.376   0.369  0.2684  0.4557 -0.2414
 4756TIP3    H235904   4.021   0.357   0.270  0.2880 -0.0914 -0.1602
 4757TIP3   OH235905   2.231   4.020   1.572 -0.0284 -0.1980 -0.3257
 4757TIP3    H135906   2.206   4.110   1.596  1.0410  0.3890 -1.3415
 4757TIP3    H235907   2.270   3.985   1.652  3.3638  1.6904 -0.9582
 4758TIP3   OH235908   5.062   6.613   0.067 -0.6521 -0.2188  0.1176
 4758TIP3    H135909   5.059   6.620   0.162  1.2486 -1.9520  0.3818
 4758TIP3    H235910   4.971   6.624   0.039 -1.1539  0.9667  2.0468
 4759TIP3   OH235911   4.348   0.964   1.223 -0.0138 -0.3265  0.1255
 4759TIP3    H135912   4.402   0.935   1.149 -1.1522  0.6801 -1.1407
 4759TIP3    H235913   4.259   0.936   1.200 -0.8537  2.3550 -0.2576
 4760TIP3   OH235914   2.645   0.875   1.355 -0.0759 -0.1417  0.6200
 4760TIP3    H135915   2.730   0.832   1.365 -0.0513 -0.2385  0.0234
 4760TIP3    H235916   2.583   0.815   1.395  0.2874  0.5437  2.2893
 4761TIP3   OH235917   0.815   6.255   1.196 -0.4400 -0.1572 -0.3602
 4761TIP3    H135918   0.739   6.240   1.252 -0.2890  1.4794  0.3228
 4761TIP3    H235919   0.800   6.198   1.120 -0.2760 -3.0459  1.6059
 4762TIP3   OH235920   3.364   3.089   6.948 -0.0033 -0.0951 -0.2450
 4762TIP3    H135921   3.419   3.071   6.872 -2.0609  2.4259 -2.5129
 4762TIP3    H235922   3.307   3.012   6.954  1.6249 -1.3198  0.2254
 4763TIP3   OH235923   3.672   0.129   3.063  0.3706  0.1329  0.4963
 4763TIP3    H135924   3.711   0.179   3.134  0.4633  1.0539 -0.1845
 4763TIP3    H235925   3.585   0.167   3.051 -0.6381 -1.6491  1.7394
 4764TIP3   OH235926   0.566   5.028   7.266  0.1973 -0.2797  0.3110
 4764TIP3    H135927   0.604   4.972   7.199  0.4971 -0.1122  0.3406
 4764TIP3    H235928   0.474   5.035   7.242 -0.0042 -1.3676  0.6983
 4765TIP3   OH235929   5.208   1.244   1.441 -0.3106 -0.1662 -0.3374
 4765TIP3    H135930   5.268   1.176   1.409  0.3422  0.2869 -0.0696
 4765TIP3    H235931   5.263   1.320   1.456 -0.9280  0.2033  0.0766
 4766TIP3   OH235932   1.618   1.344   2.150  0.1469  0.1201 -0.3991
 4766TIP3    H135933   1.571   1.343   2.233  1.2126 -0.8485  0.2305
 4766TIP3    H235934   1.585   1.268   2.103 -0.7149  0.8698 -1.0391
 4767TIP3   OH235935   6.836   5.157   6.986 -0.1334  0.4837  0.1450
 4767TIP3    H135936   6.807   5.076   7.029 -1.1396  0.9760  0.4248
 4767TIP3    H235937   6.927   5.167   7.013 -0.5930  0.5093  1.7596
 4768TIP3   OH235938   4.428   5.604   1.030 -0.0907  0.7969  0.0755
 4768TIP3    H135939   4.382   5.663   0.971 -0.6135 -0.1782 -0.5222
 4768TIP3    H235940   4.358   5.560   1.078  0.2646  0.2665  0.1172
 4769TIP3   OH235941   0.227   5.145   1.069  0.4328 -0.3128  0.2394
 4769TIP3    H135942   0.259   5.210   1.132  1.5563 -1.0358  0.4506
 4769TIP3    H235943   0.284   5.069   1.083 -1.4451 -1.7060  0.6741
 4770TIP3   OH235944   4.374   3.612   7.389  0.2717 -0.4170  0.0281
 4770TIP3    H135945   4.448   3.617   7.329 -0.0797 -0.2260 -0.3965
 4770TIP3    H235946   4.340   3.702   7.393  0.7862 -0.2560  1.1497
 4771TIP3   OH235947   0.174   6.182   1.806  0.0171  0.2305  0.4680
 4771TIP3    H135948   0.163   6.181   1.711  0.5975  0.7433  0.3949
 4771TIP3    H235949   0.090   6.152   1.840  0.5647 -2.4505 -0.2704
 4772TIP3   OH235950   2.787   3.324   0.601 -0.7719  0.4142  0.2348
 4772TIP3    H135951   2.752   3.238   0.578  1.2293 -0.2041 -0.7129
 4772TIP3    H235952   2.758   3.382   0.531  0.1406 -0.1097 -0.5937
 4773TIP3   OH235953   4.861   4.545   8.142  0.3336 -0.5596 -0.1961
 4773TIP3    H135954   4.784   4.488   8.152 -0.1274  0.0904  0.0052
 4773TIP3    H235955   4.837   4.604   8.070  0.5089 -0.1400  0.0863
 4774TIP3   OH235956   1.978   6.322   7.506  0.0333 -0.2646  0.2689
 4774TIP3    H135957   2.069   6.299   7.524  0.1059  0.3369  0.6981
 4774TIP3    H235958   1.980   6.363   7.420  0.1847 -0.1519  0.3265
 4775TIP3   OH235959   2.110   3.565   2.110  0.1069 -0.6316 -0.0132
 4775TIP3    H135960   2.062   3.538   2.189 -1.3367  0.1533 -0.5843
 4775TIP3    H235961   2.151   3.648   2.134  1.1136 -1.2548  0.4468
 4776TIP3   OH235962   5.024   0.554   0.744 -0.0693  0.0780  0.2943
 4776TIP3    H135963   5.041   0.513   0.829  0.5504 -0.6670 -0.1727
 4776TIP3    H235964   5.081   0.506   0.683  0.3242  1.3290 -0.3517
 4777TIP3   OH235965   1.599   4.899   8.023 -0.3597  0.3159 -0.3406
 4777TIP3    H135966   1.672   4.907   7.961  0.1327  1.1270  0.3425
 4777TIP3    H235967   1.639   4.868   8.104 -0.7218  1.0851  0.1409
 4778TIP3   OH235968   3.998   3.217   7.233 -0.1530 -0.6153 -0.4862
 4778TIP3    H135969   4.056   3.293   7.239 -1.6723  0.6223 -0.6067
 4778TIP3    H235970   4.050   3.151   7.187  2.0805 -0.5869  1.8048
 4779TIP3   OH235971   5.890   4.214   8.421  0.3572  0.0758 -0.3777
 4779TIP3    H135972   5.984   4.198   8.431  0.8845  1.6843 -2.0771
 4779TIP3    H235973   5.874   4.206   8.327 -0.9468  1.0400 -0.2800
 4780TIP3   OH235974   2.299   4.962   2.921  0.1336 -0.0060  0.1814
 4780TIP3    H135975   2.294   4.935   2.829  0.1882 -1.8122  0.6808
 4780TIP3    H235976   2.367   5.030   2.922  1.7912 -1.5544 -0.7758
 4781TIP3   OH235977   4.849   0.524   2.178 -0.9391 -0.5695 -0.3253
 4781TIP3    H135978   4.791   0.469   2.124 -0.2928 -1.4402 -0.1443
 4781TIP3    H235979   4.791   0.592   2.212 -1.2611  0.3531 -2.5671
 4782TIP3   OH235980   1.821   6.077   1.774 -1.0024 -0.2618 -0.3557
 4782TIP3    H135981   1.877   6.140   1.820 -1.2853 -0.7936  0.7600
 4782TIP3    H235982   1.813   6.113   1.685 -1.3460  1.4030  0.2974
 4783TIP3   OH235983   6.848   1.764   0.322  0.5712  0.4103  0.6558
 4783TIP3    H135984   6.821   1.700   0.389  3.3984 -1.2171  0.3952
 4783TIP3    H235985   6.940   1.779   0.340  0.5574  2.5962 -0.8409
 4784TIP3   OH235986   5.019   0.012   7.518  0.0667  0.4040  0.1995
 4784TIP3    H135987   5.111  -0.007   7.537 -0.1025 -0.1964  0.4452
 4784TIP3    H235988   4.983   0.044   7.601  0.7507  3.5823 -0.5808
 4785TIP3   OH235989   5.409   3.669   2.340  0.4148  0.0653  0.4512
 4785TIP3    H135990   5.351   3.602   2.375 -1.1121  0.9829 -0.2591
 4785TIP3    H235991   5.415   3.734   2.410  0.1473  0.2269  0.3258
 4786TIP3   OH235992   6.478   0.790   7.515  0.0807 -0.2407  0.0658
 4786TIP3    H135993   6.450   0.740   7.591  0.2549  1.0925  1.0481
 4786TIP3    H235994   6.439   0.745   7.440 -1.0911 -0.8897  1.0415
 4787TIP3   OH235995   3.439   5.388   6.993  0.4327  0.3706  0.4125
 4787TIP3    H135996   3.421   5.322   6.926 -0.6560  2.5786 -1.6451
 4787TIP3    H235997   3.527   5.420   6.973  1.2955 -0.9157  1.9104
 4788TIP3   OH235998   3.296   1.028   0.876  0.5359  0.1072  0.5067
 4788TIP3    H135999   3.221   0.971   0.859  0.8600  0.0616 -0.8870
 4788TIP3    H236000   3.263   1.093   0.939 -0.0387 -1.1615  1.5501
 4789TIP3   OH236001   0.765   5.143   1.782 -0.2976 -0.2763 -0.2195
 4789TIP3    H136002   0.796   5.198   1.710 -1.0960  1.1253  0.4666
 4789TIP3    H236003   0.748   5.204   1.853 -0.5843 -1.5061  0.8032
 4790TIP3   OH236004   5.751   2.992   7.695 -0.1715  0.0551  0.0721
 4790TIP3    H136005   5.844   3.006   7.680 -0.4537  2.1160 -0.0382
 4790TIP3    H236006   5.711   3.078   7.685 -2.0806 -0.7316  0.3136
 4791TIP3   OH236007   0.262   3.714   0.321 -0.1157  0.0415 -0.5490
 4791TIP3    H136008   0.226   3.784   0.267  1.5853  1.7884  0.4647
 4791TIP3    H236009   0.214   3.721   0.404  0.7829  0.7632 -0.0681
 4792TIP3   OH236010   2.841   0.363   1.855 -0.1080  0.4930  0.1715
 4792TIP3    H136011   2.774   0.318   1.906  0.1282 -1.5091 -1.1446
 4792TIP3    H236012   2.799   0.379   1.770  0.4630  0.9425 -0.0276
 4793TIP3   OH236013   4.413   2.877   8.414 -0.0667 -0.4262 -0.2032
 4793TIP3    H136014   4.371   2.812   8.358 -1.0600 -0.0661  0.1096
 4793TIP3    H236015   4.479   2.919   8.358  0.9620 -2.0411 -0.2625
 4794TIP3   OH236016   1.982   4.254   0.166  0.5146 -0.2882 -0.2818
 4794TIP3    H136017   1.985   4.181   0.104  2.1732  1.5389 -2.5902
 4794TIP3    H236018   1.946   4.327   0.115  0.1225  0.8324  1.5203
 4795TIP3   OH236019   4.847   3.102   0.151 -0.4895  0.2524 -0.1932
 4795TIP3    H136020   4.885   3.108   0.064 -0.3343 -0.2844 -0.1654
 4795TIP3    H236021   4.881   3.178   0.198  0.4811 -0.1642 -0.1969
 4796TIP3   OH236022   3.067   4.891   1.817  0.4418  0.6732  0.7367
 4796TIP3    H136023   3.025   4.907   1.732 -1.3926  0.3351  1.5234
 4796TIP3    H236024   3.147   4.843   1.796  0.3810  1.1929 -0.8359
 4797TIP3   OH236025   5.601   3.091   8.042  0.1061  0.0854 -0.2128
 4797TIP3    H136026   5.672   3.036   8.006  1.0732  1.0493  0.1721
 4797TIP3    H236027   5.610   3.082   8.137 -0.3869  0.1045 -0.1658
 4798TIP3   OH236028   4.785   0.739   0.465 -0.6389  0.5809 -0.5689
 4798TIP3    H136029   4.839   0.812   0.495 -0.2263  1.0781 -2.4037
 4798TIP3    H236030   4.696   0.774   0.464 -0.5314  0.8465 -0.7993
 4799TIP3   OH236031   5.767   3.137   1.505  0.1708  0.1857  0.5423
 4799TIP3    H136032   5.785   3.082   1.429  0.5143  1.9314 -0.6935
 4799TIP3    H236033   5.767   3.077   1.579 -1.7964 -1.8659 -0.9878
 4800TIP3   OH236034   5.931   2.154   7.907  0.4440 -0.3010 -0.0158
 4800TIP3    H136035   5.900   2.137   7.818  0.1606 -1.1497  0.2299
 4800TIP3    H236036   5.994   2.084   7.924  0.0257 -0.5245  0.6626
 4801TIP3   OH236037   2.890   1.574   2.281  0.3395 -0.5767  0.0985
 4801TIP3    H136038   2.828   1.563   2.209  2.0648 -1.8889 -1.3013
 4801TIP3    H236039   2.858   1.650   2.329 -0.8828  0.4076 -2.1050
 4802TIP3   OH236040   6.304   4.612   8.232  0.0614  0.0368  0.3032
 4802TIP3    H136041   6.359   4.622   8.310  0.5357  0.2870 -0.0599
 4802TIP3    H236042   6.254   4.694   8.228 -1.8119 -0.9508  1.7354
 4803TIP3   OH236043   4.661   6.075   7.453 -0.0338  0.2138 -0.3029
 4803TIP3    H136044   4.670   6.048   7.544  0.7523 -1.0669 -0.7227
 4803TIP3    H236045   4.746   6.052   7.414 -1.1809 -1.5432 -1.8983
 4804TIP3   OH236046   5.734   2.675   7.255  0.5154  0.2239  0.2503
 4804TIP3    H136047   5.665   2.734   7.225  1.4804  0.1684 -2.3585
 4804TIP3    H236048   5.716   2.592   7.211  2.3616  0.3001 -0.7504
 4805TIP3   OH236049   5.019   6.135   0.687 -0.1028  0.0547  0.6899
 4805TIP3    H136050   4.963   6.177   0.752  0.1371  0.8329  0.4103
 4805TIP3    H236051   4.966   6.133   0.607 -0.4205 -0.9570  0.9205
 4806TIP3   OH236052   2.844   0.213   8.022 -0.2564 -0.2843 -0.0869
 4806TIP3    H136053   2.823   0.270   8.096 -2.0260 -1.4886  0.4142
 4806TIP3    H236054   2.794   0.249   7.949 -0.8215 -0.7664  0.0552
 4807TIP3   OH236055   6.585   4.343   7.899 -0.1202  0.5989  1.2888
 4807TIP3    H136056   6.502   4.297   7.887  0.9699 -1.3435  0.7291
 4807TIP3    H236057   6.561   4.425   7.941 -2.5466  1.0780 -0.8198
 4808TIP3   OH236058   1.118   6.241   7.151  0.5211  0.0350 -0.3826
 4808TIP3    H136059   1.062   6.164   7.141 -0.5759  0.8960 -1.1770
 4808TIP3    H236060   1.178   6.236   7.077  1.2265 -0.6610  0.2250
 4809TIP3   OH236061   6.439   5.849   7.720 -0.0418  0.5540  0.1878
 4809TIP3    H136062   6.520   5.833   7.671 -0.4968  0.6631 -0.6104
 4809TIP3    H236063   6.447   5.939   7.752  0.1782  0.5381  0.1808
 4810TIP3   OH236064   2.770   1.745   2.450 -0.1797 -0.1630  0.3850
 4810TIP3    H136065   2.684   1.787   2.457 -0.5385 -1.0806  1.7793
 4810TIP3    H236066   2.777   1.691   2.528  1.0980 -1.1874 -0.3984
 4811TIP3   OH236067   0.044   3.652   1.122  0.0475  0.4422 -0.6793
 4811TIP3    H136068   0.040   3.564   1.085  1.9903  0.4679 -1.0666
 4811TIP3    H236069   0.011   3.642   1.212 -0.1169 -0.6041 -0.8442
 4812TIP3   OH236070   4.305   3.248   2.363  0.2715  0.6380 -0.5256
 4812TIP3    H136071   4.353   3.329   2.347  0.1959  0.6165 -0.8771
 4812TIP3    H236072   4.266   3.259   2.450  2.6753 -0.1876  0.7613
 4813TIP3   OH236073   1.847   2.871   3.084 -0.5395  0.0023 -0.9008
 4813TIP3    H136074   1.935   2.891   3.116  0.0287 -0.3958 -2.1351
 4813TIP3    H236075   1.858   2.788   3.037 -1.6620 -0.2453 -0.7320
 4814TIP3   OH236076   5.276   2.837   0.812  0.0835 -0.0507  0.2235
 4814TIP3    H136077   5.279   2.887   0.730 -1.4026  1.0345  0.8003
 4814TIP3    H236078   5.184   2.819   0.826  0.2026  0.5853  2.1205
 4815TIP3   OH236079   4.046   2.047   0.773 -0.1420 -0.1700  0.2385
 4815TIP3    H136080   4.086   2.104   0.839  0.7060 -0.2227 -0.2155
 4815TIP3    H236081   3.963   2.090   0.752  0.4544  0.8854 -0.0527
 4816TIP3   OH236082   2.066   6.632   7.392  0.0484 -0.6404 -0.0467
 4816TIP3    H136083   2.026   6.718   7.408  1.6487  0.1650 -0.1822
 4816TIP3    H236084   2.092   6.600   7.478  1.0327 -0.1592 -0.1455
 4817TIP3   OH236085   5.658   1.922   7.190 -0.5890  0.4246  0.2925
 4817TIP3    H136086   5.638   2.003   7.236 -2.0233 -0.4806  1.3817
 4817TIP3    H236087   5.724   1.946   7.125 -0.9548  2.4346  0.6002
 4818TIP3   OH236088   2.784   2.068   7.466 -0.8537  0.1282  0.0354
 4818TIP3    H136089   2.730   2.109   7.534 -1.3668 -0.1457 -0.2095
 4818TIP3    H236090   2.805   1.981   7.500 -0.4153  0.2929  0.2050
 4819TIP3   OH236091   4.101   4.713   7.925 -0.0306 -0.4494  0.1381
 4819TIP3    H136092   4.069   4.702   8.014  1.4283 -2.0994  0.5267
 4819TIP3    H236093   4.185   4.757   7.934 -0.7122  1.0773 -0.6088
 4820TIP3   OH236094   2.954   6.646   7.516  0.5639 -0.0551  0.5608
 4820TIP3    H136095   3.045   6.646   7.486  0.4518 -0.0417  0.2101
 4820TIP3    H236096   2.915   6.569   7.474  0.9648 -1.3357  2.4457
 4821TIP3   OH236097   6.442   3.727   8.104 -0.3420  0.0300 -0.3039
 4821TIP3    H136098   6.425   3.633   8.114 -1.9840  0.3317  0.0452
 4821TIP3    H236099   6.427   3.744   8.011  2.6203 -0.4931 -0.9752
 4822TIP3   OH236100   5.327   3.267   7.747 -0.0980  0.0877 -0.8909
 4822TIP3    H136101   5.286   3.219   7.675 -0.0493 -0.2374 -0.7029
 4822TIP3    H236102   5.376   3.201   7.795  2.2776  0.7589 -2.2220
 4823TIP3   OH236103   0.714   5.597   0.689  0.1214 -0.5124 -0.0045
 4823TIP3    H136104   0.799   5.573   0.727 -0.2327 -1.4481  0.2351
 4823TIP3    H236105   0.724   5.578   0.596 -0.0908 -1.4580  0.1533
 4824TIP3   OH236106   2.380   2.028   0.188  0.6637 -0.0983 -0.2367
 4824TIP3    H136107   2.402   2.009   0.097  0.2764  0.4075 -0.4463
 4824TIP3    H236108   2.463   2.022   0.235  0.9135 -0.0907 -0.6736
 4825TIP3   OH236109   2.435   3.184   7.265  0.3809 -0.2441 -0.4760
 4825TIP3    H136110   2.412   3.250   7.330  1.3429  0.2297 -0.5976
 4825TIP3    H236111   2.365   3.189   7.200 -0.4325 -0.5213  0.3750
 4826TIP3   OH236112   1.165   1.288   8.150  0.1372  0.3786  0.3023
 4826TIP3    H136113   1.181   1.216   8.211 -1.9976  0.6273  1.2272
 4826TIP3    H236114   1.089   1.260   8.099  0.3150  1.2811 -0.4907
 4827TIP3   OH236115   0.799   6.061   0.983  0.3015  0.5874 -0.0574
 4827TIP3    H136116   0.829   6.000   1.050  0.8244  0.4550 -0.4023
 4827TIP3    H236117   0.745   6.008   0.925 -0.4928  0.7936  0.4838
 4828TIP3   OH236118   2.616   5.358   1.475  0.0909 -0.0935 -0.1429
 4828TIP3    H136119   2.705   5.323   1.473  1.2287  2.1508  2.8716
 4828TIP3    H236120   2.594   5.375   1.384  2.1577 -2.0094 -1.0912
 4829TIP3   OH236121   5.670   3.550   7.817  0.0282 -0.1355  0.1046
 4829TIP3    H136122   5.760   3.548   7.786  0.3915 -2.1908  1.1246
 4829TIP3    H236123   5.617   3.521   7.742  0.1231  1.3744 -0.5937
 4830TIP3   OH236124   5.871   6.934   7.740  0.2491 -0.1673  0.3905
 4830TIP3    H136125   5.934   6.985   7.689  1.4203  0.5807  2.4858
 4830TIP3    H236126   5.824   6.999   7.792 -2.0680 -0.7482 -0.8613
 4831TIP3   OH236127   3.402   0.091   2.426  0.9790 -0.5439 -0.3659
 4831TIP3    H136128   3.351   0.123   2.501 -0.3664 -0.8554 -1.1238
 4831TIP3    H236129   3.451   0.016   2.461 -0.0891 -1.0561  0.0653
 4832TIP3   OH236130   1.193   1.622   0.738 -0.2635  0.5023 -0.1132
 4832TIP3    H136131   1.206   1.691   0.803  0.3349 -0.2015  0.5392
 4832TIP3    H236132   1.281   1.592   0.717 -0.5479 -1.0889  0.7705
 4833TIP3   OH236133   6.109   2.762   6.674 -0.6685  0.2506 -0.8654
 4833TIP3    H136134   6.181   2.702   6.694 -0.1897  1.3455  0.8538
 4833TIP3    H236135   6.123   2.787   6.582  2.2767  1.9095 -0.0725
 4834TIP3   OH236136   2.620   4.565   1.034 -0.1951 -0.3775  0.2534
 4834TIP3    H136137   2.572   4.624   1.093 -1.5897  0.4540 -1.6121
 4834TIP3    H236138   2.641   4.490   1.089 -0.7418  0.6721  2.0180
 4835TIP3   OH236139   6.197   4.791   0.026  0.6776 -0.6263 -0.1844
 4835TIP3    H136140   6.160   4.850   0.093  2.2114 -0.4025  0.4969
 4835TIP3    H236141   6.166   4.704   0.052  0.3578 -0.4106  0.1753
 4836TIP3   OH236142   5.426   6.338   0.735 -0.4763 -0.0295  0.0424
 4836TIP3    H136143   5.400   6.425   0.764  2.1567  0.5379  0.9850
 4836TIP3    H236144   5.494   6.312   0.797  2.1620 -0.7346 -2.9296
 4837TIP3   OH236145   1.396   0.869   2.669  0.2375  0.2975  0.0180
 4837TIP3    H136146   1.377   0.875   2.763  2.1854 -0.0605  0.4717
 4837TIP3    H236147   1.422   0.778   2.656  1.1468  0.6435 -0.6380
 4838TIP3   OH236148   3.689   4.508   2.036 -0.5901  0.0558 -0.3176
 4838TIP3    H136149   3.749   4.436   2.015 -1.0717 -0.5514  0.3135
 4838TIP3    H236150   3.731   4.586   2.001  0.0656 -0.5045 -0.8038
 4839TIP3   OH236151   1.702   4.144   3.047  0.0144  0.1468  0.2397
 4839TIP3    H136152   1.798   4.150   3.043  0.0549 -0.8496 -0.8021
 4839TIP3    H236153   1.683   4.056   3.015 -1.2643  0.3443  0.4309
 4840TIP3   OH236154   3.730   4.174   2.495  0.3028  0.2602  0.2510
 4840TIP3    H136155   3.724   4.204   2.404  1.7032 -1.3295 -0.4408
 4840TIP3    H236156   3.818   4.136   2.501 -0.1772 -0.6806  1.9532
 4841TIP3   OH236157   4.091   6.831   2.034  0.3482  0.1209 -0.6864
 4841TIP3    H136158   4.117   6.756   1.982 -1.2759 -0.2081 -1.0906
 4841TIP3    H236159   4.168   6.887   2.037  0.8116 -0.3696 -2.5410
 4842TIP3   OH236160   0.160   4.052   1.534 -0.0323  0.6389  0.1325
 4842TIP3    H136161   0.227   4.117   1.555  1.9019 -1.6809  1.6220
 4842TIP3    H236162   0.173   3.982   1.597 -2.6789 -0.8076 -0.7534
 4843TIP3   OH236163   0.630   3.663   0.526  0.0417  0.5669  0.0703
 4843TIP3    H136164   0.607   3.573   0.551  2.8600 -0.1842  0.2639
 4843TIP3    H236165   0.613   3.666   0.432 -1.5584  0.3780  0.3203
 4844TIP3   OH236166   5.450   3.402   1.910 -0.0564 -0.3227 -0.4948
 4844TIP3    H136167   5.412   3.484   1.940 -0.8526 -0.3992 -1.2484
 4844TIP3    H236168   5.406   3.334   1.960  1.6816 -0.2490  1.2380
 4845TIP3   OH236169   2.805   5.659   1.867  0.0340 -0.1569 -0.3408
 4845TIP3    H136170   2.752   5.612   1.803 -0.1749  0.4828 -0.6499
 4845TIP3    H236171   2.883   5.686   1.820 -0.7708  1.5783 -0.7649
 4846TIP3   OH236172   1.149   6.053   1.585  0.1866  0.3168 -0.4477
 4846TIP3    H136173   1.065   6.078   1.622  0.6187  0.6676  0.3154
 4846TIP3    H236174   1.212   6.067   1.656  0.6292 -1.7800 -0.3617
 4847TIP3   OH236175   4.124   4.738   0.515 -0.2137  0.7615  0.1373
 4847TIP3    H136176   4.071   4.759   0.438  1.5823 -0.2483 -1.4619
 4847TIP3    H236177   4.212   4.765   0.492  0.2057  1.4041  2.3039
 4848TIP3   OH236178   1.783   0.184   2.316 -0.1281  0.4052 -0.2789
 4848TIP3    H136179   1.726   0.242   2.266  2.2659  2.1125 -1.2664
 4848TIP3    H236180   1.775   0.215   2.406 -0.8592  0.5012 -0.3696
 4849TIP3   OH236181   3.856   1.794   1.939 -0.0085 -0.4339  0.2094
 4849TIP3    H136182   3.937   1.817   1.984 -0.4520 -2.3318  2.0920
 4849TIP3    H236183   3.885   1.742   1.863  0.5538 -1.5789  1.1749
 4850TIP3   OH236184   2.757   2.133   8.306  0.5270 -0.2905  0.7572
 4850TIP3    H136185   2.723   2.119   8.217 -0.3943  2.8105  0.4963
 4850TIP3    H236186   2.682   2.113   8.363  1.1657 -2.4408  0.9422
 4851TIP3   OH236187   4.306   4.281   0.127 -0.2579  0.4832 -0.1206
 4851TIP3    H136188   4.303   4.286   0.222  2.3880  1.5750 -0.0109
 4851TIP3    H236189   4.385   4.230   0.109 -0.8255  0.1269 -1.7672
 4852TIP3   OH236190   0.821   6.089   7.994 -0.3821  0.4515  0.2526
 4852TIP3    H136191   0.885   6.129   8.053  0.5044  0.6290 -0.7913
 4852TIP3    H236192   0.873   6.055   7.921 -1.2806 -1.2578  0.3662
 4853TIP3   OH236193   0.399   5.026   8.181  0.3326 -0.0606 -0.0340
 4853TIP3    H136194   0.442   5.072   8.109  1.2821 -0.9651 -0.0722
 4853TIP3    H236195   0.308   5.015   8.151 -0.1214  2.3403  0.2769
 4854TIP3   OH236196   6.606   4.191   2.220  0.7713 -0.3303  0.5858
 4854TIP3    H136197   6.627   4.177   2.312  0.3940 -0.4239  0.6572
 4854TIP3    H236198   6.533   4.252   2.221 -0.4496 -1.7536  0.4085
 4855TIP3   OH236199   6.651   6.374   7.096 -0.2359 -0.1619  0.6292
 4855TIP3    H136200   6.570   6.323   7.093 -1.1297  1.1646  1.1399
 4855TIP3    H236201   6.643   6.435   7.023  0.5874 -0.4057  0.3272
 4856TIP3   OH236202   0.774   3.928   2.985  0.3998  0.2947  0.2067
 4856TIP3    H136203   0.815   3.999   3.034  0.6005 -0.0786  0.5802
 4856TIP3    H236204   0.828   3.851   3.003  0.4312  0.1385 -0.5395
 4857TIP3   OH236205   6.668   6.904   1.343 -1.0301 -0.2724 -0.4839
 4857TIP3    H136206   6.698   6.839   1.406  0.9862  1.6196  0.6552
 4857TIP3    H236207   6.729   6.896   1.269  0.6672  1.6663  0.6022
 4858TIP3   OH236208   6.366   5.713   0.204  0.4305  0.0415 -0.4232
 4858TIP3    H136209   6.436   5.778   0.196  0.8000 -0.2373  0.4546
 4858TIP3    H236210   6.387   5.647   0.138  0.7358  0.1891 -0.4770
 4859TIP3   OH236211   1.302   1.558   0.081 -0.7648  0.5427 -0.0662
 4859TIP3    H136212   1.374   1.554   0.018 -0.9620 -0.7281 -0.2347
 4859TIP3    H236213   1.336   1.511   0.158 -2.0756 -1.8651 -0.8653
 4860TIP3   OH236214   0.597   6.399   8.165  0.1397  0.0162  0.0989
 4860TIP3    H136215   0.576   6.455   8.241  0.0605 -1.6566  1.3664
 4860TIP3    H236216   0.692   6.394   8.166  0.1177 -0.4185  0.4211
 4861TIP3   OH236217   2.278   1.934   3.226 -0.1359 -0.0494 -0.4750
 4861TIP3    H136218   2.218   1.943   3.151 -0.3088 -0.0648 -0.3386
 4861TIP3    H236219   2.323   1.851   3.211  0.2953  0.2596 -0.8998
 4862TIP3   OH236220   2.363   2.681   7.751 -0.1890 -0.0964  0.0743
 4862TIP3    H136221   2.275   2.681   7.787  0.2834  0.4159  1.2846
 4862TIP3    H236222   2.407   2.754   7.795 -0.1284  1.9348 -3.0151
 4863TIP3   OH236223   2.005   1.455   1.830 -0.0013 -0.1385  0.3537
 4863TIP3    H136224   2.039   1.544   1.826 -0.9073  0.1875 -1.1250
 4863TIP3    H236225   2.082   1.399   1.822  0.5886  0.4976  1.4750
 4864TIP3   OH236226   6.127   5.612   6.560  0.1371 -0.4251  0.1358
 4864TIP3    H136227   6.063   5.548   6.529 -0.1381 -0.1835  0.2065
 4864TIP3    H236228   6.211   5.578   6.528 -0.2733  0.6821 -2.4271
 4865TIP3   OH236229   6.423   4.555   6.722  0.7394 -0.8698  0.1413
 4865TIP3    H136230   6.499   4.562   6.665 -0.2452 -1.0015 -1.2264
 4865TIP3    H236231   6.420   4.638   6.769  0.2434  0.2050 -1.7210
 4866TIP3   OH236232   0.341   6.601   8.022 -0.4054  0.0435  0.8130
 4866TIP3    H136233   0.384   6.683   8.000  0.0989 -0.1031  1.2226
 4866TIP3    H236234   0.379   6.576   8.106  2.4488 -2.6415 -1.0524
 4867TIP3   OH236235   1.914   1.751   2.055 -0.1165  0.1977 -0.0524
 4867TIP3    H136236   1.969   1.801   1.995 -0.4597  0.0742 -0.4732
 4867TIP3    H236237   1.918   1.800   2.137 -0.1385  0.7034 -0.3490
 4868TIP3   OH236238   4.248   6.172   7.869  0.5712  0.2400 -0.2151
 4868TIP3    H136239   4.324   6.224   7.843 -0.4233  1.5562 -0.6120
 4868TIP3    H236240   4.177   6.204   7.814 -0.2531 -1.0674  0.0360
 4869TIP3   OH236241   5.420   1.777   7.194 -0.0822  0.2802  0.2342
 4869TIP3    H136242   5.357   1.835   7.238 -0.3406  2.1674 -2.3191
 4869TIP3    H236243   5.505   1.821   7.206  0.0350  0.1252 -0.0211
 4870TIP3   OH236244   4.153   5.480   8.224  0.7834  0.0687 -0.2121
 4870TIP3    H136245   4.093   5.408   8.245  0.4436  0.4131  0.0234
 4870TIP3    H236246   4.240   5.446   8.245  0.7517 -0.7058 -1.2860
 4871TIP3   OH236247   3.184   2.830   8.376 -0.2225  0.1638  0.1022
 4871TIP3    H136248   3.207   2.756   8.433 -1.4074 -0.9487 -0.8050
 4871TIP3    H236249   3.125   2.883   8.429  0.5714  0.4442  0.7344
 4872TIP3   OH236250   1.559   6.230   0.260  0.5710 -0.0407  0.4564
 4872TIP3    H136251   1.503   6.245   0.336 -0.8668  1.7843 -0.8906
 4872TIP3    H236252   1.537   6.300   0.199  1.0882 -1.8698 -2.0054
 4873TIP3   OH236253   5.768   0.262   2.672  0.3892 -0.0183  0.0548
 4873TIP3    H136254   5.837   0.299   2.616  1.2065 -0.8584  0.4615
 4873TIP3    H236255   5.768   0.168   2.650 -1.0176  0.0520 -0.3283
 4874TIP3   OH236256   3.939   2.688   6.750  0.2075 -0.1553 -0.4693
 4874TIP3    H136257   4.027   2.726   6.751  0.8584 -1.3386  3.0306
 4874TIP3    H236258   3.953   2.594   6.762 -1.5413 -0.5224 -1.0419
 4875TIP3   OH236259   4.425   4.516   3.092  0.4029 -0.6946  0.4799
 4875TIP3    H136260   4.440   4.485   3.003 -2.5512  1.1967 -0.8078
 4875TIP3    H236261   4.350   4.466   3.123 -0.6762  0.9627  0.6095
 4876TIP3   OH236262   0.687   1.796   0.210 -0.5704 -0.6133 -0.1318
 4876TIP3    H136263   0.680   1.771   0.117  0.3110 -2.8271  0.3140
 4876TIP3    H236264   0.706   1.890   0.208 -1.3814 -0.4361 -2.1547
 4877TIP3   OH236265   0.113   5.539   0.088 -0.1809  0.0944 -0.4369
 4877TIP3    H136266   0.022   5.525   0.059 -0.1023 -2.0218  0.1489
 4877TIP3    H236267   0.163   5.472   0.041  1.4134  2.2508 -1.9849
 4878TIP3   OH236268   3.014   5.640   0.752 -0.1574 -0.1405  0.1777
 4878TIP3    H136269   2.952   5.679   0.814 -1.1575 -2.7864  1.0148
 4878TIP3    H236270   3.100   5.662   0.788 -0.6790  0.4830  1.1119
 4879TIP3   OH236271   0.862   6.577   1.648  0.1079  0.1113 -0.0221
 4879TIP3    H136272   0.911   6.586   1.730  0.8312  1.5549 -0.5705
 4879TIP3    H236273   0.929   6.581   1.579 -0.4444 -1.4655 -0.6993
 4880TIP3   OH236274   6.681   3.169   1.877  0.2324  0.5892 -0.3593
 4880TIP3    H136275   6.746   3.179   1.808 -0.8839 -0.4663 -1.6231
 4880TIP3    H236276   6.725   3.120   1.946  0.9548  0.4682 -0.9004
 4881TIP3   OH236277   5.090   6.451   6.654 -0.7536 -0.5507  0.3696
 4881TIP3    H136278   5.093   6.414   6.566 -0.0845  1.5121 -0.5576
 4881TIP3    H236279   5.177   6.434   6.689 -0.6513 -0.4120  0.1876
 4882TIP3   OH236280   0.948   3.672   7.561  0.0326 -0.3426 -0.2214
 4882TIP3    H136281   0.967   3.697   7.470  3.5858 -1.4042  0.0954
 4882TIP3    H236282   0.895   3.593   7.553  0.3706 -0.4760 -1.4039
 4883TIP3   OH236283   3.079   6.880   3.107  0.3391 -0.0374 -0.1332
 4883TIP3    H136284   2.991   6.910   3.130  0.6570  1.2868 -0.5535
 4883TIP3    H236285   3.069   6.786   3.093 -1.0502  0.1150 -0.3498
 4884TIP3   OH236286   6.230   5.267   1.381  0.1669 -0.4557 -0.2223
 4884TIP3    H136287   6.153   5.243   1.329 -0.1142 -1.1561  0.4910
 4884TIP3    H236288   6.197   5.328   1.446 -0.0293 -1.5539  0.7512
 4885TIP3   OH236289   1.634   5.233   8.380 -0.4384  0.2588  0.1862
 4885TIP3    H136290   1.600   5.265   8.463  1.0350  1.1817  0.4816
 4885TIP3    H236291   1.596   5.146   8.370  0.4700 -0.5082  2.5712
 4886TIP3   OH236292   1.007   0.189   0.907 -0.3301  0.3272  0.0233
 4886TIP3    H136293   0.972   0.259   0.853 -0.0896 -0.1831 -0.8010
 4886TIP3    H236294   1.063   0.138   0.848 -1.4734 -1.3013  0.2888
 4887TIP3   OH236295   3.111   3.081   1.749 -0.3040  0.9802 -0.1255
 4887TIP3    H136296   3.056   3.021   1.799  1.1251 -2.7955 -2.6842
 4887TIP3    H236297   3.064   3.093   1.666 -0.0575  2.6812 -0.0579
 4888TIP3   OH236298   1.753   4.168   2.591 -0.0394  0.5142  0.1222
 4888TIP3    H136299   1.664   4.200   2.607 -0.5981 -0.7586 -0.3878
 4888TIP3    H236300   1.753   4.078   2.623  1.4543  0.8930  1.3233
 4889TIP3   OH236301   5.642   2.591   8.118 -0.3991  0.0731 -0.3561
 4889TIP3    H136302   5.699   2.526   8.077  2.5123  1.6397  0.8802
 4889TIP3    H236303   5.584   2.619   8.048  0.9349 -0.9953 -1.9923
 4890TIP3   OH236304   0.767   4.583   7.267  0.3802  0.1775  0.3063
 4890TIP3    H136305   0.822   4.620   7.198  0.5317  0.2548  0.4672
 4890TIP3    H236306   0.759   4.490   7.244  2.1257 -0.2567  1.2700
 4891TIP3   OH236307   6.096   3.223   0.998 -0.4491 -0.4181 -0.4208
 4891TIP3    H136308   6.091   3.167   1.075 -0.7698 -0.8031 -0.7183
 4891TIP3    H236309   6.008   3.259   0.989 -0.0007  0.9898  0.3901
 4892TIP3   OH236310   4.692   1.347   6.818 -0.3842  0.4933 -0.5841
 4892TIP3    H136311   4.625   1.279   6.817 -0.4825  0.5955 -0.8613
 4892TIP3    H236312   4.766   1.308   6.771 -0.3277  0.4607 -0.4676
 4893TIP3   OH236313   0.083   6.539   7.934  0.5133 -0.0836 -0.2544
 4893TIP3    H136314   0.155   6.591   7.969  0.1968 -0.1205  0.4702
 4893TIP3    H236315   0.119   6.451   7.926  0.6370 -0.0388 -0.1911
 4894TIP3   OH236316   6.389   5.918   0.446  0.4709 -0.4833  0.5004
 4894TIP3    H136317   6.358   5.967   0.370  0.7450 -1.1349 -0.0445
 4894TIP3    H236318   6.441   5.847   0.409 -0.2063 -1.3991  1.2529
 4895TIP3   OH236319   3.107   0.098   1.683 -0.0078  0.0481 -0.0952
 4895TIP3    H136320   3.166   0.035   1.640 -0.4216 -0.2580 -0.2229
 4895TIP3    H236321   3.030   0.100   1.626 -0.3484  0.0289  0.3662
 4896TIP3   OH236322   4.436   4.760   1.635 -0.0777 -0.2362  0.0481
 4896TIP3    H136323   4.506   4.813   1.595 -0.5816  0.1197 -0.3855
 4896TIP3    H236324   4.478   4.676   1.655  0.3852 -0.1535 -0.5286
 4897TIP3   OH236325   1.350   0.500   1.802 -0.3883 -0.2918  0.1577
 4897TIP3    H136326   1.345   0.441   1.878  0.0634 -1.5984 -0.7813
 4897TIP3    H236327   1.346   0.441   1.727 -0.9326  0.9874 -0.8470
 4898TIP3   OH236328   1.437   4.460   0.170  0.1375  0.2917 -0.4876
 4898TIP3    H136329   1.429   4.419   0.256  0.3922  1.8874  0.3336
 4898TIP3    H236330   1.356   4.437   0.124 -0.2796 -0.0611  0.4093
 4899TIP3   OH236331   5.442   2.573   2.524  0.0986  0.7379  0.1938
 4899TIP3    H136332   5.398   2.541   2.445  1.4179 -1.1944  0.1717
 4899TIP3    H236333   5.534   2.580   2.499  0.4122  0.8598  1.3552
 4900TIP3   OH236334   2.133   3.497   1.726 -0.8171  0.0109  0.2789
 4900TIP3    H136335   2.139   3.592   1.716  1.6404 -0.3159 -3.1202
 4900TIP3    H236336   2.043   3.476   1.702 -1.1697  1.4002  0.3152
 4901TIP3   OH236337   6.528   6.353   0.854  0.3548 -0.6171  0.0916
 4901TIP3    H136338   6.487   6.267   0.857  1.0531 -0.9218  2.0521
 4901TIP3    H236339   6.584   6.351   0.777 -0.9277 -1.2762 -0.8579
 4902TIP3   OH236340   1.743   0.421   7.251  0.2041 -0.4516  0.3832
 4902TIP3    H136341   1.738   0.326   7.267 -1.8382 -0.2418  1.3060
 4902TIP3    H236342   1.705   0.432   7.164  0.0598 -0.4591  0.4440
 4903TIP3   OH236343   2.214   5.607   0.977 -0.2259 -0.3676 -0.1193
 4903TIP3    H136344   2.186   5.699   0.982  1.4464  0.1977 -0.6877
 4903TIP3    H236345   2.135   5.560   0.949 -0.8894  1.0125 -0.6724
 4904TIP3   OH236346   0.861   4.243   2.422 -0.0366 -0.4215 -0.5108
 4904TIP3    H136347   0.945   4.289   2.420  0.8163 -1.9378 -0.4900
 4904TIP3    H236348   0.817   4.278   2.499  0.3270  0.7908 -0.8283
 4905TIP3   OH236349   1.711   4.847   2.093 -0.5476 -0.3216  0.1181
 4905TIP3    H136350   1.791   4.870   2.045  0.1190 -0.4986  1.1268
 4905TIP3    H236351   1.731   4.865   2.185 -1.6066 -0.5468  0.4121
 4906TIP3   OH236352   4.993   4.230   7.161 -0.6380  0.2846  0.3529
 4906TIP3    H136353   4.918   4.278   7.126  1.2415  2.4009 -1.0501
 4906TIP3    H236354   5.038   4.293   7.217  0.5392 -0.6478  0.5114
 4907TIP3   OH236355   4.820   2.924   0.413  0.4691  0.4388  0.2884
 4907TIP3    H136356   4.832   2.877   0.330 -0.5322  1.7055 -0.6107
 4907TIP3    H236357   4.895   2.983   0.419  1.0763 -0.3589  0.8133
 4908TIP3   OH236358   1.880   1.566   2.365  0.1470  0.2425  0.1717
 4908TIP3    H136359   1.929   1.502   2.417  0.0579  0.1864  0.1866
 4908TIP3    H236360   1.830   1.514   2.302  0.5780  0.3333 -0.2497
 4909TIP3   OH236361   0.761   3.162   6.911  0.0972 -0.5285 -0.0559
 4909TIP3    H136362   0.802   3.100   6.851  1.2346  0.3055 -0.1777
 4909TIP3    H236363   0.712   3.222   6.854  2.6974  1.4203 -0.4404
 4910TIP3   OH236364   2.085   4.878   7.210  0.1575 -0.0364  0.0755
 4910TIP3    H136365   2.034   4.827   7.146  0.5284  2.1272 -2.0828
 4910TIP3    H236366   2.026   4.949   7.236  0.4338 -0.2306  1.2606
 4911TIP3   OH236367   6.330   2.073   2.053  0.3676  0.2856 -0.3643
 4911TIP3    H136368   6.347   2.097   2.144  1.1210  0.8539 -0.6482
 4911TIP3    H236369   6.408   2.025   2.026  1.3463  2.4161 -1.5148
 4912TIP3   OH236370   1.510   1.054   7.372 -0.2854 -0.6823  0.1306
 4912TIP3    H136371   1.582   0.992   7.380  0.3660  0.2650  2.2486
 4912TIP3    H236372   1.447   1.027   7.439  0.0959  1.0168  1.2113
 4913TIP3   OH236373   2.611   4.942   2.551 -0.1420  0.1881 -0.0720
 4913TIP3    H136374   2.525   4.900   2.544 -0.0655 -0.2664  1.2881
 4913TIP3    H236375   2.596   5.016   2.610  0.5178 -0.2839  0.7080
 4914TIP3   OH236376   5.654   5.513   8.016  0.1013 -0.7771 -0.4171
 4914TIP3    H136377   5.742   5.477   8.026  0.5002  0.2343 -0.1642
 4914TIP3    H236378   5.666   5.589   7.959 -0.4659 -0.1285  0.3047
 4915TIP3   OH236379   6.178   3.337   2.845 -0.0508  0.0979  0.2690
 4915TIP3    H136380   6.255   3.348   2.900 -0.9051  0.5971  1.4146
 4915TIP3    H236381   6.201   3.267   2.784  1.3209  0.3049  0.5345
 4916TIP3   OH236382   5.715   0.147   1.295 -0.2255  0.5607 -0.9185
 4916TIP3    H136383   5.679   0.076   1.242  0.3436  1.2638 -2.2884
 4916TIP3    H236384   5.686   0.227   1.252 -0.6180  1.1822  0.4418
 4917TIP3   OH236385   2.741   5.077   0.212 -0.4610 -0.0220 -0.3791
 4917TIP3    H136386   2.673   5.034   0.159 -0.4017 -1.4497  0.6402
 4917TIP3    H236387   2.772   5.009   0.271 -0.3688  1.4434  1.3524
 4918TIP3   OH236388   1.418   3.612   8.119  0.0159  0.0257 -0.3741
 4918TIP3    H136389   1.451   3.586   8.205  1.1305 -1.8895 -1.3313
 4918TIP3    H236390   1.456   3.699   8.105  2.0575 -0.7628 -0.0477
 4919TIP3   OH236391   5.070   4.783   8.518 -0.4671  0.2121 -0.0362
 4919TIP3    H136392   5.162   4.780   8.494 -0.7255  0.0004 -1.0182
 4919TIP3    H236393   5.029   4.838   8.451 -0.7148  2.0792  1.5439
 4920TIP3   OH236394   2.671   0.876   0.525 -0.4932  0.0366  0.7931
 4920TIP3    H136395   2.699   0.966   0.512 -1.0411  0.1559  0.3949
 4920TIP3    H236396   2.714   0.827   0.455 -1.5042  0.2763 -0.0347
 4921TIP3   OH236397   4.469   1.359   0.547 -0.5626 -0.2384 -0.1505
 4921TIP3    H136398   4.538   1.403   0.499  0.0436 -0.1498  0.7736
 4921TIP3    H236399   4.491   1.373   0.639 -1.5814 -0.5654  0.1625
 4922TIP3   OH236400   6.321   1.393   0.068 -0.1167  0.0927  0.3567
 4922TIP3    H136401   6.260   1.349   0.010 -0.3693 -0.4684  1.0360
 4922TIP3    H236402   6.370   1.452   0.011 -2.2972  1.6863 -0.0030
 4923TIP3   OH236403   1.193   5.269   0.359  0.1238  0.9582  0.0304
 4923TIP3    H136404   1.255   5.245   0.428  1.2097 -1.0187 -1.5446
 4923TIP3    H236405   1.232   5.347   0.319  0.7178  0.7341  0.1531
 4924TIP3   OH236406   0.559   3.376   0.575 -0.1848 -0.3535  0.1705
 4924TIP3    H136407   0.561   3.310   0.644 -0.0048 -0.0512  0.4574
 4924TIP3    H236408   0.466   3.396   0.564 -0.3028 -1.1878 -0.4352
 4925TIP3   OH236409   4.462   6.042   2.802 -0.4248  0.2249 -0.9170
 4925TIP3    H136410   4.442   6.074   2.890 -3.2426 -1.4600 -0.8480
 4925TIP3    H236411   4.509   6.115   2.760 -0.1279  1.5352  1.5275
 4926TIP3   OH236412   1.790   5.014   7.072  0.6078 -0.7923 -0.3153
 4926TIP3    H136413   1.826   4.976   6.992  0.3964 -1.2378 -0.2029
 4926TIP3    H236414   1.709   4.967   7.087 -1.1723  1.6074 -1.7121
 4927TIP3   OH236415   3.463   2.843   2.146  0.0765  0.3874 -0.5601
 4927TIP3    H136416   3.394   2.906   2.164  1.4979  1.8705 -0.0635
 4927TIP3    H236417   3.518   2.885   2.080  0.1495 -1.0699 -1.4939
 4928TIP3   OH236418   6.288   0.770   6.663  0.9696  0.1426  0.5039
 4928TIP3    H136419   6.317   0.848   6.616  2.9695  0.4034  2.0650
 4928TIP3    H236420   6.206   0.797   6.705 -0.1079  0.3263 -1.5583
 4929TIP3   OH236421   5.757   1.515   6.550 -0.0620 -0.0934 -0.4379
 4929TIP3    H136422   5.670   1.508   6.513 -0.8410  0.0541  1.2567
 4929TIP3    H236423   5.784   1.605   6.532 -0.9578  0.3662  0.4214
 4930TIP3   OH236424   0.601   5.198   7.495 -0.2674  0.5999  0.0350
 4930TIP3    H136425   0.693   5.222   7.486 -0.6057  1.7300 -0.5910
 4930TIP3    H236426   0.585   5.138   7.422  0.4171 -1.0950  1.2256
 4931TIP3   OH236427   0.030   4.694   8.353 -0.2355 -0.0013 -0.1506
 4931TIP3    H136428   0.124   4.695   8.375 -0.1268 -0.1127 -0.6104
 4931TIP3    H236429   0.020   4.620   8.294 -0.4838  0.4409 -0.6732
 4932TIP3   OH236430   4.994   4.452   0.488  0.0671  0.8715 -0.4938
 4932TIP3    H136431   4.943   4.479   0.565 -0.3093 -0.6302 -0.1680
 4932TIP3    H236432   4.941   4.383   0.448  0.2318  1.6765 -2.1572
 4933TIP3   OH236433   6.496   3.886   1.139 -0.0380 -0.2997 -0.9115
 4933TIP3    H136434   6.413   3.883   1.091 -1.8654  0.0571  2.0291
 4933TIP3    H236435   6.499   3.973   1.179  2.1261 -0.0569 -1.4246
 4934TIP3   OH236436   5.449   1.365   1.105 -0.3552 -0.0535 -0.0786
 4934TIP3    H136437   5.464   1.419   1.183 -2.1476  0.4063 -0.0261
 4934TIP3    H236438   5.509   1.291   1.117  1.3274  1.3082  0.4053
 4935TIP3   OH236439   6.951   2.847   0.469 -1.4048  0.4384 -0.0258
 4935TIP3    H136440   6.924   2.903   0.542  1.4230  0.2482  1.2783
 4935TIP3    H236441   6.974   2.764   0.510 -1.1910 -0.1727 -1.3426
 4936TIP3   OH236442   1.249   2.119   7.737 -0.0219 -0.1676  0.1317
 4936TIP3    H136443   1.324   2.144   7.683  1.3282 -1.1079  1.4891
 4936TIP3    H236444   1.286   2.107   7.825 -1.8360 -0.3411  0.9117
 4937TIP3   OH236445   0.957   0.111   8.272  0.4214 -0.1218 -0.0663
 4937TIP3    H136446   0.983   0.175   8.338  0.5606  0.5628 -0.7750
 4937TIP3    H236447   1.012   0.035   8.289  2.6174  1.1199 -1.2268
 4938TIP3   OH236448   0.271   2.111   6.934 -0.4269  0.0190 -0.1425
 4938TIP3    H136449   0.263   2.016   6.934  0.1679 -0.0400  0.7431
 4938TIP3    H236450   0.190   2.142   6.894 -0.2140 -0.8840 -1.3528
 4939TIP3   OH236451   4.118   2.075   0.020 -0.2322 -0.4609 -0.3562
 4939TIP3    H136452   4.032   2.034   0.030 -0.7634  0.7266  0.1630
 4939TIP3    H236453   4.157   2.070   0.107 -1.2382  2.0626  0.3308
 4940TIP3   OH236454   6.268   3.975   2.618 -0.4283 -0.2495 -0.3455
 4940TIP3    H136455   6.243   3.893   2.660  1.4855 -0.1884  1.0276
 4940TIP3    H236456   6.346   3.954   2.567 -0.1887  0.6200 -0.3614
 4941TIP3   OH236457   0.127   6.189   0.355 -0.0616  0.5352 -0.3520
 4941TIP3    H136458   0.036   6.217   0.366  0.5671  1.9300  1.9302
 4941TIP3    H236459   0.144   6.200   0.261 -1.7622  1.8374 -0.5675
 4942TIP3   OH236460   3.076   2.329   8.186 -0.4471  0.5097  0.3574
 4942TIP3    H136461   3.032   2.274   8.122 -0.4960  3.7011 -2.6753
 4942TIP3    H236462   3.167   2.300   8.185 -0.9701 -1.2707  1.0029
 4943TIP3   OH236463   4.851   5.025   2.501  0.0600  0.6174 -0.6400
 4943TIP3    H136464   4.857   5.105   2.553 -1.3394  0.7983 -0.7149
 4943TIP3    H236465   4.858   4.954   2.564 -1.1149  0.8316 -0.2516
 4944TIP3   OH236466   2.937   2.003   2.201  0.0923  0.5987 -0.0321
 4944TIP3    H136467   2.962   1.968   2.115 -0.6332  0.2687 -0.1203
 4944TIP3    H236468   2.881   1.935   2.238  3.5583 -1.1878  2.4476
 4945TIP3   OH236469   6.331   4.785   7.180  0.1249  0.0358 -0.4239
 4945TIP3    H136470   6.355   4.811   7.091 -0.7308  0.3520 -0.5755
 4945TIP3    H236471   6.356   4.859   7.235  0.0136  0.1348 -0.5050
 4946TIP3   OH236472   2.554   1.868   2.898  0.2130  0.5052  0.2112
 4946TIP3    H136473   2.642   1.862   2.936  0.3568  1.5591  0.0796
 4946TIP3    H236474   2.519   1.950   2.932 -0.3165  0.6140 -0.5814
 4947TIP3   OH236475   4.210   0.426   0.629  0.6725 -0.1632 -0.1140
 4947TIP3    H136476   4.198   0.515   0.662  1.1400  0.6006 -1.8854
 4947TIP3    H236477   4.260   0.437   0.548 -1.3270 -1.8309 -1.6743
 4948TIP3   OH236478   2.752   1.240   6.789 -0.8441 -0.0475 -0.6382
 4948TIP3    H136479   2.728   1.168   6.847  0.2600 -0.5478 -0.7725
 4948TIP3    H236480   2.756   1.201   6.702  0.5169 -0.0268 -0.6071
 4949TIP3   OH236481   2.022   0.947   7.806  0.0287 -0.3626  0.7581
 4949TIP3    H136482   2.048   0.998   7.882  0.9824  0.8827 -0.3421
 4949TIP3    H236483   2.073   0.866   7.811  1.8405  0.7008  0.2837
 4950TIP3   OH236484   4.531   2.958   8.133  0.3646  0.1492 -0.0244
 4950TIP3    H136485   4.613   2.917   8.107  0.2056 -0.1223 -0.1030
 4950TIP3    H236486   4.463   2.905   8.091  0.0507 -0.8681  1.6827
 4951TIP3   OH236487   5.294   5.079   0.987  0.2515 -0.0007  0.4360
 4951TIP3    H136488   5.206   5.098   0.955  0.3248  1.7238  1.1241
 4951TIP3    H236489   5.331   5.020   0.921 -1.6794 -1.4738  0.5689
 4952TIP3   OH236490   2.049   2.170   0.526 -0.1028  0.0044  0.0296
 4952TIP3    H136491   1.987   2.112   0.569  0.2392 -0.7908 -0.5158
 4952TIP3    H236492   2.119   2.183   0.591  0.2927 -0.9888 -0.1854
 4953TIP3   OH236493   5.090   4.904   2.383  0.8752  0.1292 -0.0441
 4953TIP3    H136494   5.024   4.970   2.402  0.8581 -0.2331  1.2590
 4953TIP3    H236495   5.063   4.828   2.435  0.4065 -1.2349 -2.1480
 4954TIP3   OH236496   5.938   3.649   8.412  0.2315 -0.4016 -0.0732
 4954TIP3    H136497   5.955   3.603   8.330 -1.1214 -1.3266  0.1475
 4954TIP3    H236498   5.854   3.692   8.400  0.1517 -0.3053  0.7292
 4955TIP3   OH236499   3.510   4.985   8.306  0.1635  0.5097 -0.1821
 4955TIP3    H136500   3.568   5.051   8.344  0.6850  0.6705 -1.2301
 4955TIP3    H236501   3.467   5.029   8.233 -1.8848  0.6248  1.0234
 4956TIP3   OH236502   4.117   3.039   7.091  0.2044  0.1481  0.2984
 4956TIP3    H136503   4.194   2.999   7.132  0.0209 -1.4378 -0.7835
 4956TIP3    H236504   4.093   2.978   7.022 -1.0041  1.4778 -0.5138
 4957TIP3   OH236505   5.950   5.578   0.127  0.0579 -0.6860  0.7728
 4957TIP3    H136506   6.023   5.561   0.068 -1.4724 -1.1975 -1.0814
 4957TIP3    H236507   5.951   5.506   0.189  0.2545 -1.5294 -0.1783
 4958TIP3   OH236508   2.506   6.452   0.168  0.0546  0.8206  0.3421
 4958TIP3    H136509   2.502   6.536   0.213 -0.4822  0.8557  0.2315
 4958TIP3    H236510   2.430   6.404   0.200 -0.8327  1.1742 -1.1720
 4959TIP3   OH236511   0.744   3.013   0.852  0.3295 -0.0352  0.1396
 4959TIP3    H136512   0.717   3.031   0.942 -2.0058 -0.5722 -0.3925
 4959TIP3    H236513   0.669   3.039   0.799  1.0132 -1.2625 -1.5123
 4960TIP3   OH236514   6.675   1.896   8.033  0.1657 -0.8655 -0.1043
 4960TIP3    H136515   6.602   1.836   8.045  0.3481 -1.0243  0.2138
 4960TIP3    H236516   6.653   1.972   8.088  0.8151 -1.4287  0.9606
 4961TIP3   OH236517   1.141   5.721   0.271 -0.2368 -0.0077  0.0700
 4961TIP3    H136518   1.086   5.771   0.211  0.2961 -0.5877 -0.9121
 4961TIP3    H236519   1.229   5.758   0.259 -0.1949  0.1357  0.7821
 4962TIP3   OH236520   3.199   6.568   0.501  0.1437  0.1958  0.0620
 4962TIP3    H136521   3.197   6.639   0.565 -0.6150 -1.5832  2.1314
 4962TIP3    H236522   3.129   6.508   0.529  0.3683 -1.1114 -1.9324
 4963TIP3   OH236523   2.120   1.457   1.537  0.2998  0.4388 -0.4325
 4963TIP3    H136524   2.042   1.495   1.576 -0.2961  0.1789 -1.3478
 4963TIP3    H236525   2.109   1.471   1.443  0.8564 -0.5458 -0.6532
 4964TIP3   OH236526   2.738   5.005   1.930  0.0707 -0.2816 -0.2708
 4964TIP3    H136527   2.828   4.972   1.937  0.8817  1.9799  1.1126
 4964TIP3    H236528   2.689   4.956   1.997  0.5783 -0.6249 -0.1453
 4965TIP3   OH236529   4.393   5.347   8.473 -0.1561 -0.6469 -0.5794
 4965TIP3    H136530   4.405   5.262   8.431  1.6803 -0.3974 -0.6519
 4965TIP3    H236531   4.369   5.326   8.563 -0.8492 -1.2163 -0.8848
 4966TIP3   OH236532   2.134   3.996   8.371  0.4650  0.3769 -0.2659
 4966TIP3    H136533   2.104   4.021   8.459 -0.9055  0.9258 -0.8654
 4966TIP3    H236534   2.144   3.901   8.375  1.7848  0.5139  0.8616
 4967TIP3   OH236535   4.719   4.603   1.446 -0.1165  0.0126 -0.0719
 4967TIP3    H136536   4.802   4.643   1.471 -0.6049  0.3565  1.0744
 4967TIP3    H236537   4.668   4.674   1.408 -0.4897  0.1907  0.7428
 4968TIP3   OH236538   6.516   2.326   1.157 -0.4968 -0.2592 -0.1532
 4968TIP3    H136539   6.546   2.267   1.226  0.8696 -1.8433 -2.0239
 4968TIP3    H236540   6.428   2.295   1.135 -0.9393  0.2524  0.8247
 4969TIP3   OH236541   5.409   0.469   6.648  0.4862  0.4484  0.2040
 4969TIP3    H136542   5.338   0.484   6.711  0.0231  0.7476 -0.3758
 4969TIP3    H236543   5.366   0.476   6.562  1.5803  2.7794 -0.2445
 4970TIP3   OH236544   3.266   3.681   0.889  0.1755  0.1242 -0.7048
 4970TIP3    H136545   3.219   3.633   0.957 -0.5866  2.8541  0.8284
 4970TIP3    H236546   3.212   3.672   0.811 -0.3968 -0.6891 -0.2312
 4971TIP3   OH236547   3.301   2.565   1.311 -0.0409 -0.2368 -0.3775
 4971TIP3    H136548   3.271   2.476   1.327 -1.0791 -0.1615 -1.7165
 4971TIP3    H236549   3.224   2.611   1.278  0.8943  0.6996 -1.3691
 4972TIP3   OH236550   0.964   6.238   1.463  0.6109 -0.0637 -0.1178
 4972TIP3    H136551   1.010   6.176   1.407  1.4360  0.8649 -0.5049
 4972TIP3    H236552   0.887   6.265   1.413 -0.1428 -1.3051  0.3527
 4973TIP3   OH236553   6.199   6.065   6.894  0.0093 -0.7051 -0.2380
 4973TIP3    H136554   6.141   6.110   6.831  2.4058  0.6771 -1.6137
 4973TIP3    H236555   6.197   5.973   6.867 -0.1330 -0.3658 -1.4377
 4974TIP3   OH236556   1.668   5.956   0.018  0.0679 -0.3975  0.0538
 4974TIP3    H136557   1.582   5.928  -0.013 -0.0305 -1.0512  0.8747
 4974TIP3    H236558   1.719   5.874   0.022  1.2405  0.1570 -1.9152
 4975TIP3   OH236559   6.734   2.725   0.296  0.0458 -1.1587 -0.4212
 4975TIP3    H136560   6.713   2.785   0.225 -3.9656 -1.3249  0.3987
 4975TIP3    H236561   6.784   2.778   0.358 -2.4942  1.1779 -0.1925
 4976TIP3   OH236562   3.676   5.825   8.116 -0.2006 -0.0298 -0.0240
 4976TIP3    H136563   3.735   5.893   8.152 -0.8801  1.6974 -1.9952
 4976TIP3    H236564   3.592   5.843   8.157 -0.4439  0.5085 -0.7464
 4977TIP3   OH236565   4.694   3.195   2.671 -0.0968 -0.0150  0.0804
 4977TIP3    H136566   4.690   3.270   2.730  0.5524 -0.1578  0.3112
 4977TIP3    H236567   4.787   3.181   2.656 -0.2452  0.6287 -1.7554
 4978TIP3   OH236568   0.651   4.889   1.947  0.8261  0.1623 -0.1235
 4978TIP3    H136569   0.604   4.839   2.014  0.2274  2.1492  1.0319
 4978TIP3    H236570   0.667   4.826   1.877 -0.9050 -1.3387  0.7430
 4979TIP3   OH236571   0.480   3.648   7.789  0.2766  0.0492  0.3310
 4979TIP3    H136572   0.524   3.600   7.720 -0.3817  0.4315 -0.3672
 4979TIP3    H236573   0.514   3.611   7.870  0.0764 -1.3074 -0.1883
 4980TIP3   OH236574   4.414   0.835   6.541 -0.6884  0.0527  0.7757
 4980TIP3    H136575   4.463   0.875   6.613  1.7170  0.7598 -1.1164
 4980TIP3    H236576   4.462   0.754   6.522 -0.3512  0.6184 -0.9665
 4981TIP3   OH236577   1.039   6.793   1.174  0.0361  0.0899  0.5035
 4981TIP3    H136578   1.120   6.826   1.136  0.0530 -0.2392  0.2427
 4981TIP3    H236579   1.027   6.708   1.132  0.6802 -0.8327  2.0822
 4982TIP3   OH236580   2.657   5.097   0.859  0.1573  0.1995  0.1808
 4982TIP3    H136581   2.743   5.111   0.899 -0.1264  0.2289  0.7833
 4982TIP3    H236582   2.618   5.026   0.910 -1.2894  1.9814  1.6998
 4983TIP3   OH236583   0.798   5.401   7.790  0.6004  0.1586 -0.5151
 4983TIP3    H136584   0.864   5.347   7.834  1.1896  0.0914 -1.4489
 4983TIP3    H236585   0.772   5.465   7.856  0.8122 -0.4834  0.2093
 4984TIP3   OH236586   0.944   1.959   8.236 -0.0146  0.0156 -0.0173
 4984TIP3    H136587   0.989   1.920   8.161  0.3947  1.9258 -0.8307
 4984TIP3    H236588   0.860   1.989   8.201 -0.7087 -0.8968  0.8039
 4985TIP3   OH236589   1.722   1.400   8.272  0.0972  0.4084  0.3346
 4985TIP3    H136590   1.745   1.459   8.201 -1.2462 -0.8935 -1.2766
 4985TIP3    H236591   1.804   1.357   8.295  0.7508  1.6227  0.3471
 4986TIP3   OH236592   5.042   3.918   1.891 -0.3504 -0.0937  0.2463
 4986TIP3    H136593   5.075   3.855   1.826 -0.9571 -0.0135 -0.1428
 4986TIP3    H236594   5.081   3.889   1.974  0.2008 -0.3687 -0.0998
 4987TIP3   OH236595   2.481   3.041   1.406  0.3928  0.0742 -0.2280
 4987TIP3    H136596   2.513   3.080   1.487 -3.1377 -0.2187  1.5040
 4987TIP3    H236597   2.415   3.102   1.374 -0.9110 -1.5259 -0.7827
 4988TIP3   OH236598   0.646   3.768   0.929 -0.0992 -0.5125  0.7040
 4988TIP3    H136599   0.594   3.764   0.848 -0.4080 -0.2370  0.8843
 4988TIP3    H236600   0.723   3.714   0.911  1.2554  1.7710 -0.7806
 4989TIP3   OH236601   0.925   3.147   7.744  0.2092  0.1998  0.4965
 4989TIP3    H136602   0.981   3.070   7.758 -0.6942 -1.0653 -2.1678
 4989TIP3    H236603   0.837   3.118   7.769 -0.5335 -0.4867 -2.5276
 4990TIP3   OH236604   2.893   1.087   0.132  0.1690  0.5099 -0.3905
 4990TIP3    H136605   2.800   1.066   0.128  0.3179 -0.2576 -0.0145
 4990TIP3    H236606   2.926   1.064   0.045  0.1117  0.2785 -0.3504
 4991TIP3   OH236607   1.370   4.505   2.854  0.3767 -0.4231  0.1003
 4991TIP3    H136608   1.301   4.440   2.839 -1.0258  0.6680  1.5092
 4991TIP3    H236609   1.431   4.462   2.915 -1.1040 -0.1370  1.8849
 4992TIP3   OH236610   5.617   3.138   0.436  0.2297 -0.2611  0.0858
 4992TIP3    H136611   5.690   3.192   0.404  1.3689 -0.6576  1.9084
 4992TIP3    H236612   5.652   3.049   0.439 -1.4469 -1.1329 -2.3157
 4993TIP3   OH236613   4.422   1.729   8.042 -0.6540  0.1773  0.3328
 4993TIP3    H136614   4.474   1.760   8.116 -0.4857 -0.1979  0.3750
 4993TIP3    H236615   4.466   1.649   8.014  0.0545  0.9811 -0.9880
 4994TIP3   OH236616   6.814   0.368   2.289  0.0447 -0.1457 -0.5867
 4994TIP3    H136617   6.909   0.357   2.296 -0.0295 -3.0069 -2.3217
 4994TIP3    H236618   6.782   0.355   2.378  1.2761  1.2706  0.0961
 4995TIP3   OH236619   3.762   0.468   8.503  0.1565 -0.5939  0.2180
 4995TIP3    H136620   3.754   0.409   8.428  0.3493  0.4827 -0.6675
 4995TIP3    H236621   3.764   0.555   8.465  0.3674 -0.0308  1.4783
 4996TIP3   OH236622   4.406   6.767   2.090  0.7356  0.8211 -0.1596
 4996TIP3    H136623   4.417   6.710   2.166 -0.8030  3.0224  1.8673
 4996TIP3    H236624   4.474   6.834   2.101  0.2253  1.3966 -0.4653
 4997TIP3   OH236625   3.493   4.264   1.866 -0.4039 -0.3746  0.2870
 4997TIP3    H136626   3.421   4.265   1.802 -0.7639  0.3784  0.6951
 4997TIP3    H236627   3.571   4.283   1.814 -0.7185  0.4342  0.0935
 4998TIP3   OH236628   2.964   1.992   1.557 -0.8235  0.7134  0.5546
 4998TIP3    H136629   2.926   2.073   1.592 -1.6201  0.1989  0.9131
 4998TIP3    H236630   2.930   1.923   1.615  0.8835  0.2482  1.0584
 4999TIP3   OH236631   4.623   3.752   1.815 -0.2279  0.1578 -1.0533
 4999TIP3    H136632   4.609   3.795   1.730 -0.8491  0.7044 -0.6823
 4999TIP3    H236633   4.661   3.820   1.870 -4.2373  1.3518  0.5484
 5000TIP3   OH236634   6.490   5.255   1.657 -0.4558 -0.7282 -0.5126
 5000TIP3    H136635   6.561   5.293   1.605 -0.5239 -1.7075 -1.3618
 5000TIP3    H236636   6.501   5.160   1.647  0.6649 -1.0789  2.8248
 5001TIP3   OH236637   1.298   1.618   7.857 -0.1481  0.0907  0.4784
 5001TIP3    H136638   1.316   1.573   7.940 -2.1532  0.0989  0.9696
 5001TIP3    H236639   1.230   1.682   7.878 -0.0895  0.6953 -1.0163
 5002TIP3   OH236640   0.064   1.956   0.929  0.2718  0.0929 -0.4232
 5002TIP3    H136641   0.013   2.002   0.863  2.6286  2.4112 -0.7644
 5002TIP3    H236642   0.020   1.976   1.012 -0.2108  0.8507 -0.8554
 5003TIP3   OH236643   2.639   0.088   1.345  0.5498 -0.5781 -0.1867
 5003TIP3    H136644   2.571   0.154   1.334  2.0725  1.0704 -0.1280
 5003TIP3    H236645   2.686   0.114   1.424  1.1738 -1.7477 -0.1430
 5004TIP3   OH236646   5.302   2.406   2.716 -0.5555  0.1847  0.0165
 5004TIP3    H136647   5.257   2.451   2.786 -0.3928 -0.4042  0.5061
 5004TIP3    H236648   5.339   2.476   2.662  1.7520  0.7105  2.0776
 5005TIP3   OH236649   0.297   1.790   1.390 -0.6329 -0.0872  1.0400
 5005TIP3    H136650   0.286   1.805   1.296  1.2597  0.7051  0.8989
 5005TIP3    H236651   0.244   1.858   1.432 -0.0430  0.7296  0.4975
 5006TIP3   OH236652   6.615   3.661   7.038 -0.3624 -0.0160  0.0395
 5006TIP3    H136653   6.560   3.720   7.090 -1.5567 -0.2671 -0.8801
 5006TIP3    H236654   6.554   3.592   7.010  1.1842 -2.3076  1.9546
 5007TIP3   OH236655   5.759   4.938   1.940 -0.0287 -0.0624  0.1006
 5007TIP3    H136656   5.711   5.017   1.968 -1.8263 -1.1860  0.3687
 5007TIP3    H236657   5.838   4.938   1.994 -1.3383  0.1278  2.1221
 5008TIP3   OH236658   6.329   6.923   0.845 -0.1575  0.2581 -0.1908
 5008TIP3    H136659   6.279   6.996   0.883  1.4156  0.9066  0.7124
 5008TIP3    H236660   6.289   6.910   0.759  0.6811  3.4471 -1.2088
 5009TIP3   OH236661   0.709   1.161   1.064 -0.0809  0.5898 -0.2175
 5009TIP3    H136662   0.671   1.084   1.107 -0.9496  0.3557 -1.3286
 5009TIP3    H236663   0.633   1.208   1.029  0.4209  2.1104  0.6578
 5010TIP3   OH236664   1.342   3.182   2.276  0.3973 -0.0657  0.0647
 5010TIP3    H136665   1.263   3.172   2.329  0.6919 -0.0348  0.5221
 5010TIP3    H236666   1.360   3.276   2.278  1.0232 -0.1860  0.8399
 5011TIP3   OH236667   1.663   1.423   7.777  0.8311 -0.4282 -0.5578
 5011TIP3    H136668   1.741   1.432   7.723  0.0475  1.5534 -1.4601
 5011TIP3    H236669   1.593   1.463   7.726 -0.0884  0.9668  1.6071
 5012TIP3   OH236670   1.589   1.568   1.188 -0.3246 -0.7299  0.4060
 5012TIP3    H136671   1.664   1.509   1.179  1.4931  1.3535  0.9283
 5012TIP3    H236672   1.583   1.585   1.281 -0.6559  0.1023  0.2388
 5013TIP3   OH236673   0.330   0.179   0.890 -0.3487 -0.2257  0.2386
 5013TIP3    H136674   0.401   0.197   0.951 -0.6618 -2.3566  1.3481
 5013TIP3    H236675   0.255   0.157   0.946 -1.2254 -0.2877 -0.9137
 5014TIP3   OH236676   6.587   1.664   6.770 -0.3585  0.4757  0.9588
 5014TIP3    H136677   6.593   1.634   6.680 -1.1765 -0.2468  1.1282
 5014TIP3    H236678   6.617   1.590   6.823  0.2177  0.9298  1.2801
 5015TIP3   OH236679   6.175   4.795   1.047  0.1501  0.0459  0.5311
 5015TIP3    H136680   6.180   4.699   1.041 -0.7046  0.0150  0.2374
 5015TIP3    H236681   6.088   4.817   1.014 -0.5938  0.7326  2.7459
 5016TIP3   OH236682   3.516   0.078   8.314  0.0148 -0.4476 -0.5610
 5016TIP3    H136683   3.494   0.146   8.378 -0.1110 -0.9410 -0.0662
 5016TIP3    H236684   3.559   0.010   8.365 -0.6629 -1.1392 -0.8819
 5017TIP3   OH236685   3.320   6.299   0.684 -0.0367  0.2767 -0.4634
 5017TIP3    H136686   3.390   6.363   0.696  0.2393  0.2924 -1.9359
 5017TIP3    H236687   3.241   6.351   0.670 -0.1165  0.2728 -0.0300
 5018TIP3   OH236688   2.275   1.997   1.685 -0.3115 -0.6414  0.3569
 5018TIP3    H136689   2.188   2.030   1.706 -1.4012 -2.6186 -0.8230
 5018TIP3    H236690   2.275   1.988   1.590  0.6984 -1.9519  0.4640
 5019TIP3   OH236691   0.620   0.287   1.685 -0.4940 -0.2893  0.1534
 5019TIP3    H136692   0.570   0.260   1.762 -0.6949  0.8920  0.4437
 5019TIP3    H236693   0.712   0.274   1.711 -0.5579  0.1427  0.6152
 5020TIP3   OH236694   2.958   0.063   8.235 -0.7912  0.4308  0.1201
 5020TIP3    H136695   2.923   0.111   8.160  2.4627  1.5970 -0.7887
 5020TIP3    H236696   2.996  -0.016   8.198 -1.6069 -0.3882  0.9641
 5021TIP3   OH236697   2.732   6.843   2.118  0.6261  0.0632  0.0017
 5021TIP3    H136698   2.647   6.826   2.158  0.8599  0.6812  0.7714
 5021TIP3    H236699   2.796   6.819   2.185  1.1789 -2.5765 -1.3283
 5022TIP3   OH236700   4.681   4.203   1.693 -0.0157 -0.4148 -0.3792
 5022TIP3    H136701   4.747   4.135   1.684 -1.2412 -1.5606 -1.0473
 5022TIP3    H236702   4.598   4.156   1.704 -0.5414  0.9490  2.5002
 5023TIP3   OH236703   5.830   1.693   1.652  0.3569  0.6248 -0.2909
 5023TIP3    H136704   5.787   1.610   1.670  0.8486  0.4667  0.1755
 5023TIP3    H236705   5.792   1.722   1.568 -3.0013  2.0678  1.5340
 5024TIP3   OH236706   1.742   5.521   8.494  0.3177 -0.1897  0.0492
 5024TIP3    H136707   1.746   5.526   8.399 -0.9877  0.0569 -0.0107
 5024TIP3    H236708   1.832   5.504   8.521  1.0450  1.5064 -1.1144
 5025TIP3   OH236709   2.648   5.899   1.755  0.2835  0.6247 -0.2723
 5025TIP3    H136710   2.679   5.818   1.712  1.4744  0.3981  0.9406
 5025TIP3    H236711   2.605   5.948   1.685  1.3058 -0.1667 -1.5121
 5026TIP3   OH236712   6.243   1.781   1.425 -0.1975 -0.3426 -0.4930
 5026TIP3    H136713   6.185   1.707   1.440 -0.8992  0.0432 -1.1883
 5026TIP3    H236714   6.297   1.755   1.350 -2.3814  0.8661 -2.6447
 5027TIP3   OH236715   3.422   6.021   7.181 -0.4866 -0.3200  0.4334
 5027TIP3    H136716   3.329   6.036   7.164 -0.4272  0.0565  0.4444
 5027TIP3    H236717   3.463   6.107   7.170  0.1961 -0.8683 -1.8694
 5028TIP3   OH236718   2.700   2.686   8.008 -0.0676  0.1924  0.3200
 5028TIP3    H136719   2.712   2.665   7.916 -0.3148  0.1548  0.2952
 5028TIP3    H236720   2.767   2.752   8.026  0.2125 -0.0583  0.2069
 5029TIP3   OH236721   0.292   3.273   1.527 -0.1420 -0.1246  0.3085
 5029TIP3    H136722   0.245   3.234   1.453  0.3010  0.2284 -0.1668
 5029TIP3    H236723   0.374   3.304   1.489 -0.2360  0.7314  0.7938
 5030TIP3   OH236724   4.989   1.874   7.165 -0.4811  0.3497 -0.1482
 5030TIP3    H136725   4.898   1.850   7.181  0.2200 -3.6663 -1.0536
 5030TIP3    H236726   4.986   1.929   7.087 -2.1254  0.5973  0.0484
 5031TIP3   OH236727   4.170   3.128   1.535  0.2645  0.5530 -0.0730
 5031TIP3    H136728   4.199   3.132   1.626 -0.2100 -0.3177  0.1260
 5031TIP3    H236729   4.241   3.082   1.489  0.4317  0.8521 -0.1186
 5032TIP3   OH236730   1.993   4.250   2.473  0.0302  0.3125 -0.4974
 5032TIP3    H136731   2.034   4.274   2.556  1.0865 -2.2899 -0.1752
 5032TIP3    H236732   1.922   4.191   2.497 -0.3813  0.4270 -1.3917
 5033TIP3   OH236733   1.492   5.623   1.040  0.3107  0.5960  0.5517
 5033TIP3    H136734   1.451   5.539   1.057 -0.9549  1.1312  0.2597
 5033TIP3    H236735   1.446   5.684   1.097  1.0311  1.1387  0.5676
 5034TIP3   OH236736   6.660   0.849   7.803 -0.6633  0.1983 -0.5879
 5034TIP3    H136737   6.649   0.932   7.756  0.8556  1.4466  1.1124
 5034TIP3    H236738   6.681   0.785   7.735  1.8854  2.0235 -1.6493
 5035TIP3   OH236739   0.270   2.649   0.726  0.4405  0.6736 -0.1341
 5035TIP3    H136740   0.315   2.640   0.642 -0.7667 -0.0559 -0.7332
 5035TIP3    H236741   0.181   2.620   0.708  0.0388  0.9658  1.2983
 5036TIP3   OH236742   0.473   3.890   7.649  0.0093 -1.0163  0.1448
 5036TIP3    H136743   0.563   3.922   7.662  0.0575 -0.6978 -0.8730
 5036TIP3    H236744   0.468   3.811   7.702  1.5693 -2.2092 -1.3684
 5037TIP3   OH236745   4.579   1.373   2.696 -0.5754  0.1534 -0.4730
 5037TIP3    H136746   4.536   1.458   2.707 -0.2936  0.3962 -1.1564
 5037TIP3    H236747   4.527   1.329   2.628 -0.1639  0.1697 -0.8067
 5038TIP3   OH236748   0.319   3.822   1.217 -0.1573  0.1928  0.3395
 5038TIP3    H136749   0.360   3.859   1.139 -2.0921  1.1745 -0.2981
 5038TIP3    H236750   0.241   3.876   1.230 -0.0772 -0.1781  2.7727
 5039TIP3   OH236751   4.523   6.368   0.317 -0.1808  0.3020  0.6227
 5039TIP3    H136752   4.485   6.334   0.236 -0.1715 -0.0081  0.7477
 5039TIP3    H236753   4.448   6.399   0.368 -0.0185  3.0543 -0.6388
 5040TIP3   OH236754   6.095   4.475   0.081  0.0663  0.4224 -0.6557
 5040TIP3    H136755   6.110   4.395   0.030 -0.1923  0.5905 -0.9965
 5040TIP3    H236756   6.101   4.447   0.172 -1.5174 -0.2739 -0.7509
 5041TIP3   OH236757   0.886   3.368   2.660 -0.3665 -0.5131  0.5588
 5041TIP3    H136758   0.874   3.276   2.636 -2.2778 -0.0465 -0.5275
 5041TIP3    H236759   0.797   3.400   2.674  0.1826  1.4438 -0.1625
 5042TIP3   OH236760   5.959   0.640   8.252 -0.2440  0.6064 -0.0753
 5042TIP3    H136761   6.034   0.680   8.210 -0.5312 -0.0208 -1.2193
 5042TIP3    H236762   5.994   0.561   8.293 -0.0251  1.0503  0.6096
 5043TIP3   OH236763   4.239   1.466   0.723 -0.1258 -0.5111 -0.2434
 5043TIP3    H136764   4.331   1.451   0.743 -0.2441 -3.1732 -1.2166
 5043TIP3    H236765   4.224   1.418   0.641 -1.6893  2.4268 -1.8378
 5044TIP3   OH236766   5.690   5.423   0.823  0.1518  0.3556  0.1163
 5044TIP3    H136767   5.647   5.489   0.768 -1.1515 -1.4065 -1.1140
 5044TIP3    H236768   5.779   5.417   0.788 -0.4508 -0.2482 -1.4037
 5045TIP3   OH236769   1.648   3.136   8.500  0.1714  0.0105  0.6642
 5045TIP3    H136770   1.717   3.177   8.552  0.7091 -0.4073  0.2930
 5045TIP3    H236771   1.652   3.179   8.415  0.2726 -0.3259  0.4981
 5046TIP3   OH236772   2.304   4.755   0.889 -0.2553 -0.5294  0.4313
 5046TIP3    H136773   2.392   4.790   0.881  0.4168 -2.4318 -1.7018
 5046TIP3    H236774   2.311   4.687   0.957 -0.2001 -0.3577  0.5974
 5047TIP3   OH236775   0.292   4.952   6.421  0.3611 -0.4847  0.4398
 5047TIP3    H136776   0.263   4.887   6.485  0.2731 -1.2202 -0.3182
 5047TIP3    H236777   0.379   4.979   6.450  0.9892 -1.9819  0.0345
 5048TIP3   OH236778   4.525   6.488   7.699 -0.1322  0.5761 -0.1316
 5048TIP3    H136779   4.558   6.547   7.632  0.2997  0.3815 -0.0910
 5048TIP3    H236780   4.511   6.405   7.653 -0.8968  0.7499 -0.2267
 5049TIP3   OH236781   5.003   5.824   8.483  0.1999  0.6721  0.1136
 5049TIP3    H136782   4.967   5.897   8.533  0.8730  1.5806 -0.6860
 5049TIP3    H236783   4.957   5.827   8.400 -1.5123 -1.3471  0.9115
 5050TIP3   OH236784   2.162   1.086   1.808 -0.8958  0.0493 -0.3543
 5050TIP3    H136785   2.179   1.145   1.881 -0.7888  0.4442 -0.6920
 5050TIP3    H236786   2.220   1.012   1.822 -0.2950  0.4956 -0.4667
 5051TIP3   OH236787   5.726   5.972   8.311  0.0103  0.4699 -0.2017
 5051TIP3    H136788   5.665   5.899   8.320  1.8899 -0.9847  1.8628
 5051TIP3    H236789   5.795   5.940   8.254 -0.1844  1.4378 -1.0173
 5052TIP3   OH236790   2.344   1.077   1.445  0.3384  0.1603 -0.6761
 5052TIP3    H136791   2.358   1.008   1.510 -0.0497  0.2160 -0.5279
 5052TIP3    H236792   2.323   1.031   1.364  0.8352  0.0900 -0.7686
 5053TIP3   OH236793   4.945   1.598   8.077 -0.3484  0.1331  0.1406
 5053TIP3    H136794   5.000   1.614   8.154  0.3043 -1.0343 -0.0583
 5053TIP3    H236795   4.897   1.518   8.098  0.7499 -0.8980 -1.1335
 5054TIP3   OH236796   2.253   1.028   2.180 -0.1630  0.3211  0.3130
 5054TIP3    H136797   2.201   1.079   2.118  0.5227  1.4586  0.6458
 5054TIP3    H236798   2.251   0.939   2.145  0.1804  0.9304 -1.3521
 5055TIP3   OH236799   0.295   3.540   0.032  0.2763 -0.5696  0.2227
 5055TIP3    H136800   0.215   3.585   0.059  1.2547  1.0008  0.6244
 5055TIP3    H236801   0.276   3.448   0.048 -1.6349 -0.3081 -0.1939
 5056TIP3   OH236802   2.383   0.499   2.866  0.5656 -0.7384 -0.2467
 5056TIP3    H136803   2.407   0.423   2.920 -1.5794 -1.6798 -0.5240
 5056TIP3    H236804   2.300   0.475   2.825  0.1830  1.4827 -0.9417
 5057TIP3   OH236805   3.531   0.212   7.641  0.3051  0.1351 -0.5962
 5057TIP3    H136806   3.456   0.173   7.686 -0.1907  0.5832 -1.0245
 5057TIP3    H236807   3.602   0.151   7.656  0.2171  0.3753  1.0176
 5058TIP3   OH236808   6.162   5.678   1.477  0.1555  0.2618  0.1101
 5058TIP3    H136809   6.226   5.676   1.406  1.5510  2.0043  1.2120
 5058TIP3    H236810   6.158   5.587   1.508 -0.4801 -0.5335 -2.1054
 5059TIP3   OH236811   4.735   1.407   7.658  0.0346  0.5161  0.1018
 5059TIP3    H136812   4.780   1.388   7.576  1.8359  0.7584  0.9714
 5059TIP3    H236813   4.706   1.498   7.650 -0.5050  0.2929 -0.5552
 5060TIP3   OH236814   3.495   0.724   3.434 -0.7826 -0.4473  0.3329
 5060TIP3    H136815   3.591   0.724   3.443 -0.8488 -1.0696  1.1909
 5060TIP3    H236816   3.480   0.718   3.340  0.0085  1.2729  0.0550
 5061TIP3   OH236817   1.346   1.805   0.902  0.0723  0.1932 -0.0359
 5061TIP3    H136818   1.377   1.795   0.992 -1.1851 -1.7102  0.2450
 5061TIP3    H236819   1.383   1.889   0.873  0.6832  0.7516  2.1611
 5062TIP3   OH236820   0.177   2.153   8.522 -0.1871  0.6473  0.4115
 5062TIP3    H136821   0.235   2.119   8.590  0.7507  1.3341 -0.0139
 5062TIP3    H236822   0.127   2.223   8.566  1.2700  1.9178  0.1481
 5063TIP3   OH236823   6.065   4.984   7.964  0.0385 -0.2224 -0.0903
 5063TIP3    H136824   6.023   4.923   8.024 -1.3805  0.2515 -0.5420
 5063TIP3    H236825   6.122   5.037   8.019  0.1671 -0.9827  0.5324
 5064TIP3   OH236826   2.176   5.536   7.440  0.2124  0.1336 -0.0110
 5064TIP3    H136827   2.113   5.608   7.446 -0.7194 -0.7420  1.6173
 5064TIP3    H236828   2.173   5.510   7.348  0.7891  2.3148 -0.7053
 5065TIP3   OH236829   0.427   4.140   2.762  0.0801  0.5451 -0.2707
 5065TIP3    H136830   0.354   4.100   2.714  0.9075 -1.4499  0.0416
 5065TIP3    H236831   0.405   4.233   2.765 -1.5693  0.2583 -1.7142
 5066TIP3   OH236832   4.567   3.651   1.169 -0.6243 -0.3803 -0.0106
 5066TIP3    H136833   4.641   3.690   1.215 -0.1243 -0.4961 -0.6965
 5066TIP3    H236834   4.512   3.725   1.145 -0.1322 -0.1673 -0.5187
 5067TIP3   OH236835   3.036   6.532   0.900 -0.0009 -0.3883  0.6628
 5067TIP3    H136836   2.970   6.591   0.936 -0.6710  0.8549 -2.3008
 5067TIP3    H236837   3.117   6.556   0.945 -0.5339  1.8853  0.5364
 5068TIP3   OH236838   5.433   5.195   8.173  0.5411  0.8458 -0.2026
 5068TIP3    H136839   5.359   5.193   8.233 -0.6993 -2.2023 -1.6374
 5068TIP3    H236840   5.396   5.226   8.090  0.2330 -2.5823 -1.4905
 5069TIP3   OH236841   2.697   4.813   7.370 -0.0325  0.2073  0.1446
 5069TIP3    H136842   2.724   4.855   7.289  1.5876 -1.5914 -0.3350
 5069TIP3    H236843   2.745   4.860   7.438 -1.2060  1.5603  0.0792
 5070TIP3   OH236844   6.723   0.966   1.061 -0.3111  0.0281  0.3632
 5070TIP3    H136845   6.812   0.989   1.038  0.2192 -1.1331  1.1406
 5070TIP3    H236846   6.680   0.946   0.977  0.6646 -1.0739  0.1044
 5071TIP3   OH236847   2.225   4.428   0.902 -0.6200 -0.9673 -0.2570
 5071TIP3    H136848   2.217   4.352   0.959 -0.7619  0.2862  1.4803
 5071TIP3    H236849   2.157   4.488   0.933  0.4091  0.4465 -0.6225
 5072TIP3   OH236850   0.120   0.693   8.034 -1.0891  0.1971  0.3183
 5072TIP3    H136851   0.069   0.760   7.988 -1.2849  1.8550  2.7623
 5072TIP3    H236852   0.211   0.721   8.024 -1.0815  0.1806  0.3399
 5073TIP3   OH236853   3.611   0.782   2.443 -0.4244  0.3567 -0.2987
 5073TIP3    H136854   3.648   0.702   2.405  0.7792  1.1428 -0.8252
 5073TIP3    H236855   3.535   0.751   2.493 -0.9015 -0.9292 -1.7361
 5074TIP3   OH236856   5.244   0.521   6.865 -0.0108  0.2603  0.5239
 5074TIP3    H136857   5.153   0.503   6.891 -0.2267  0.9765  0.2935
 5074TIP3    H236858   5.246   0.616   6.851  0.7019  0.2057  0.2394
 5075TIP3   OH236859   5.941   1.297   7.720  0.7724 -0.0645 -0.1245
 5075TIP3    H136860   6.007   1.356   7.756 -0.9642  2.2674 -0.5613
 5075TIP3    H236861   5.899   1.259   7.798 -1.8845  3.7441  0.6026
 5076TIP3   OH236862   5.731   4.969   8.441  0.1661  0.0073 -0.1708
 5076TIP3    H136863   5.649   4.940   8.400  0.7279 -1.1523 -0.5180
 5076TIP3    H236864   5.713   4.965   8.535 -0.1111 -0.4567 -0.2394
 5077TIP3   OH236865   4.003   5.808   1.852 -0.0843  0.0343  0.1261
 5077TIP3    H136866   4.056   5.759   1.915  2.1953  0.7688 -1.0754
 5077TIP3    H236867   4.045   5.894   1.847 -1.2850  0.5972 -1.0631
 5078TIP3   OH236868   1.110   6.450   6.493 -0.5749 -0.4329 -0.8603
 5078TIP3    H136869   1.201   6.460   6.520 -1.0421 -0.3016  0.8330
 5078TIP3    H236870   1.080   6.539   6.476 -0.2671 -0.5190 -1.9076
 5079TIP3   OH236871   2.762   0.993   1.829 -0.3516 -0.1641  0.5902
 5079TIP3    H136872   2.823   1.065   1.848  1.0556 -0.7037 -1.5375
 5079TIP3    H236873   2.675   1.032   1.839  0.3573  1.5566  0.4695
 5080TIP3   OH236874   5.331   2.879   1.435  0.0904 -0.5608 -0.2656
 5080TIP3    H136875   5.315   2.929   1.355 -0.2795  1.0444  0.7650
 5080TIP3    H236876   5.397   2.815   1.411 -0.5930 -0.6293 -2.0496
 5081TIP3   OH236877   0.331   5.443   8.464  0.0182 -0.0973 -0.0099
 5081TIP3    H136878   0.289   5.410   8.385 -0.1488 -0.0177  0.0436
 5081TIP3    H236879   0.312   5.537   8.463 -0.5430 -0.2019  0.4597
 5082TIP3   OH236880   6.125   0.956   7.637 -0.1097 -0.4024  0.6047
 5082TIP3    H136881   6.150   0.894   7.568  0.1089  1.9186 -1.5397
 5082TIP3    H236882   6.032   0.975   7.619  0.4084  1.5591 -0.2347
 5083TIP3   OH236883   5.292   6.438   1.313  0.7695 -0.1935  0.2264
 5083TIP3    H136884   5.246   6.431   1.397  0.3286 -0.4930 -0.0368
 5083TIP3    H236885   5.294   6.532   1.295  0.3606 -0.1669  0.2975
 5084TIP3   OH236886   5.476   1.855   7.487 -0.1353  0.3320  0.0156
 5084TIP3    H136887   5.465   1.872   7.580 -0.3051  4.1180 -0.5541
 5084TIP3    H236888   5.539   1.783   7.483 -0.5887 -0.3677  3.0013
 5085TIP3   OH236889   3.035   2.058   8.029  0.4654 -0.0723 -0.4972
 5085TIP3    H136890   3.124   2.040   8.000  0.8825  0.8965  0.1356
 5085TIP3    H236891   3.017   1.991   8.096 -0.0128 -1.4725 -1.9780
 5086TIP3   OH236892   3.292   3.548   1.520 -0.0541  0.4546 -0.5897
 5086TIP3    H136893   3.332   3.518   1.439  0.8607  0.9145 -0.3264
 5086TIP3    H236894   3.358   3.605   1.560 -0.6462  0.5630  0.2757
 5087TIP3   OH236895   3.882   4.759   0.040  0.7121  0.4190 -0.6806
 5087TIP3    H136896   3.790   4.774   0.018  0.2256 -0.2919  0.7091
 5087TIP3    H236897   3.889   4.664   0.047  1.2705  0.5253  0.2975
 5088TIP3   OH236898   1.867   2.699   0.980  0.5477  0.0193  0.1915
 5088TIP3    H136899   1.860   2.693   0.885  1.8579 -0.3504  0.1091
 5088TIP3    H236900   1.951   2.741   0.996 -0.3644  1.5910  1.1766
 5089TIP3   OH236901   5.485   6.053   0.939  0.1804 -0.1834  0.4385
 5089TIP3    H136902   5.390   6.063   0.949 -0.1888 -2.5826 -0.0573
 5089TIP3    H236903   5.522   6.109   1.006 -1.6416 -0.3126  1.6326
 5090TIP3   OH236904   3.342   4.701   0.785  0.3090  0.4951 -0.3204
 5090TIP3    H136905   3.306   4.781   0.747 -1.1941 -1.2125 -2.8217
 5090TIP3    H236906   3.410   4.674   0.722 -0.7247 -1.2814 -0.7451
 5091TIP3   OH236907   0.509   1.329   1.282 -0.1358  0.1486 -0.2126
 5091TIP3    H136908   0.570   1.372   1.221  0.3004 -0.3218 -0.1176
 5091TIP3    H236909   0.431   1.384   1.280 -1.4362 -1.4822 -3.6934
 5092TIP3   OH236910   6.757   2.777   2.259 -0.3332 -0.3117 -0.0355
 5092TIP3    H136911   6.681   2.835   2.268 -0.2744 -0.3926  1.1737
 5092TIP3    H236912   6.728   2.709   2.198 -1.0099  0.0177 -0.0891
 5093TIP3   OH236913   0.845   2.361   7.376 -0.6330 -0.1130 -0.4261
 5093TIP3    H136914   0.890   2.401   7.302 -1.2048 -0.9607 -1.2564
 5093TIP3    H236915   0.793   2.291   7.337 -2.1510  0.4111  0.5819
 5094TIP3   OH236916   0.739   1.224   2.154 -0.2695 -0.1136 -0.4288
 5094TIP3    H136917   0.702   1.152   2.103  1.1657 -1.4075  0.2729
 5094TIP3    H236918   0.706   1.210   2.243 -1.8444  1.4694 -0.7243
 5095TIP3   OH236919   2.391   1.705   7.714  0.3929 -0.1411 -0.6211
 5095TIP3    H136920   2.421   1.617   7.735 -0.6495 -0.4685 -0.4507
 5095TIP3    H236921   2.346   1.735   7.794 -1.1899 -0.3283 -1.3993
 5096TIP3   OH236922   6.735   3.727   1.923 -0.2910  0.3617 -0.1327
 5096TIP3    H136923   6.746   3.705   2.015 -1.9664 -0.6490 -0.1359
 5096TIP3    H236924   6.645   3.758   1.916 -0.0994  0.7003 -1.3760
 5097TIP3   OH236925   3.863   3.528   1.284 -0.3344 -0.1859  0.0960
 5097TIP3    H136926   3.885   3.448   1.331 -2.2601 -0.3429  0.8223
 5097TIP3    H236927   3.926   3.592   1.315  0.3911 -1.0725  0.5136
 5098TIP3   OH236928   3.589   6.707   1.729 -0.5292  0.4451 -0.5517
 5098TIP3    H136929   3.644   6.714   1.807 -1.7468 -1.4981  0.5746
 5098TIP3    H236930   3.649   6.673   1.662 -0.1821 -1.3039  0.5518
 5099TIP3   OH236931   4.488   6.227   8.182 -0.2515  0.1131  0.0829
 5099TIP3    H136932   4.476   6.310   8.227 -1.2555  0.1017 -0.1432
 5099TIP3    H236933   4.487   6.249   8.089  0.7258 -0.0030  0.0326
 5100TIP3   OH236934   1.997   2.966   7.719  0.3911  0.6038 -0.5311
 5100TIP3    H136935   1.948   3.031   7.770  1.6976  2.0364 -1.0425
 5100TIP3    H236936   1.936   2.941   7.649 -0.3129  0.8912 -0.0396
 5101TIP3   OH236937   0.700   0.080   0.235  0.0647 -0.1471 -0.3250
 5101TIP3    H136938   0.625   0.103   0.289  0.2255  1.5570 -0.7884
 5101TIP3    H236939   0.759   0.033   0.294 -0.9757 -0.7540  0.2519
 5102TIP3   OH236940   3.142   3.871   0.378 -0.0250  0.0984 -0.1752
 5102TIP3    H136941   3.131   3.793   0.434 -2.5106  1.6887  1.8028
 5102TIP3    H236942   3.188   3.933   0.434 -2.3023  1.6264  0.1514
 5103TIP3   OH236943   4.262   4.258   1.706 -0.3453  0.3520 -0.3672
 5103TIP3    H136944   4.201   4.203   1.756  0.2520 -0.2741 -0.3128
 5103TIP3    H236945   4.337   4.201   1.689 -1.4919 -0.2957 -4.1066
 5104TIP3   OH236946   3.321   6.556   6.978 -0.1295  0.2818  0.0719
 5104TIP3    H136947   3.370   6.625   7.022 -1.1771 -0.0268  1.8049
 5104TIP3    H236948   3.370   6.539   6.898  0.6284  2.4092  0.0346
 5105TIP3   OH236949   6.018   4.118   0.939  0.1451 -0.4898  0.0533
 5105TIP3    H136950   5.966   4.182   0.988 -0.6352 -0.5611 -0.6546
 5105TIP3    H236951   6.047   4.166   0.861  0.4139 -0.7070  0.0192
 5106TIP3   OH236952   1.434   3.123   8.006 -0.3912 -0.0073  0.1276
 5106TIP3    H136953   1.338   3.121   8.004 -0.3757 -0.0698 -0.9972
 5106TIP3    H236954   1.460   3.030   8.007 -0.3406 -0.0423  2.7730
 5107TIP3   OH236955   1.853   6.713   1.017 -0.1074  0.5007 -0.4574
 5107TIP3    H136956   1.939   6.684   1.047  0.0074  0.9468 -0.3477
 5107TIP3    H236957   1.794   6.640   1.039  0.0755  0.5854  0.3480
 5108TIP3   OH236958   3.218   5.105   2.773  0.4473  0.2493 -0.3326
 5108TIP3    H136959   3.162   5.179   2.796 -1.1586 -0.7847 -0.7428
 5108TIP3    H236960   3.307   5.133   2.797 -0.3402  1.6103  1.1682
 5109TIP3   OH236961   6.747   5.860   0.807 -0.4043  0.5322 -0.0138
 5109TIP3    H136962   6.720   5.837   0.895 -1.9589  3.2170  0.3038
 5109TIP3    H236963   6.706   5.793   0.751  0.5862 -1.1887  1.2123
 5110TIP3   OH236964   2.845   0.581   2.316  0.2428  0.2622  0.2178
 5110TIP3    H136965   2.910   0.650   2.308 -0.0627  0.4842 -0.4442
 5110TIP3    H236966   2.828   0.574   2.410  1.0685  0.3337  0.3817
 5111TIP3   OH236967   2.087   4.924   1.457  0.2660 -0.4367  0.1818
 5111TIP3    H136968   2.045   4.984   1.395  1.3688 -1.7383 -1.9488
 5111TIP3    H236969   2.173   4.962   1.472  0.3489 -0.6142  0.1613
 5112TIP3   OH236970   0.435   0.068   0.016 -0.4679 -0.0102 -0.1657
 5112TIP3    H136971   0.392   0.056  -0.068 -1.1008 -0.0174  0.1521
 5112TIP3    H236972   0.378   0.129   0.064 -0.1555 -0.0631  0.2806
 5113TIP3   OH236973   0.622   2.063   1.572 -0.1868  0.0137  0.1565
 5113TIP3    H136974   0.603   1.970   1.584  1.0571 -0.0734  1.7714
 5113TIP3    H236975   0.581   2.085   1.488  0.7853 -2.3489 -1.0245
 5114TIP3   OH236976   4.761   2.517   0.367 -0.0642 -0.4096 -0.4043
 5114TIP3    H136977   4.804   2.489   0.286 -1.4003  1.1182 -1.7052
 5114TIP3    H236978   4.829   2.566   0.415  0.4311 -0.3914 -1.1155
 5115TIP3   OH236979   3.860   1.817   2.531 -0.0122 -0.2611  0.0066
 5115TIP3    H136980   3.800   1.794   2.602 -0.5614 -0.6648 -0.5897
 5115TIP3    H236981   3.805   1.861   2.466  0.6252  0.8049  0.1571
 5116TIP3   OH236982   6.555   0.733   2.626 -0.3287 -0.5823 -0.3124
 5116TIP3    H136983   6.594   0.802   2.679 -1.0899  0.0623 -0.5602
 5116TIP3    H236984   6.462   0.758   2.620 -0.7359 -1.9242  0.0589
 5117TIP3   OH236985   0.299   1.002   7.760  0.1386 -0.5886  0.3170
 5117TIP3    H136986   0.336   1.027   7.844 -0.1642  0.3185  0.1889
 5117TIP3    H236987   0.221   1.056   7.750  0.1201 -0.7441 -0.5033
 5118TIP3   OH236988   3.667   0.189   6.707 -0.5212  0.4553  0.3128
 5118TIP3    H136989   3.750   0.146   6.689 -1.4623 -0.7901 -1.2856
 5118TIP3    H236990   3.646   0.165   6.797  1.1808  1.4502  1.0288
 5119TIP3   OH236991   2.711   1.566   0.864 -0.2181  0.0489  0.3302
 5119TIP3    H136992   2.652   1.519   0.923  1.0789 -0.8012  0.9739
 5119TIP3    H236993   2.778   1.603   0.921  0.4045  0.2074 -0.4901
 5120TIP3   OH236994   3.856   1.866   0.392  0.4023 -0.4155  0.0301
 5120TIP3    H136995   3.848   1.955   0.426 -0.0731 -0.5699  0.3435
 5120TIP3    H236996   3.949   1.846   0.399  0.2315 -0.7299  2.0315
 5121TIP3   OH236997   0.957   6.887   0.072 -0.5767 -0.5750 -0.4662
 5121TIP3    H136998   1.013   6.863   0.146 -0.8388  1.6549  0.5420
 5121TIP3    H236999   0.874   6.843   0.089  0.0537 -1.8547 -0.6281
 5122TIP3   OH237000   3.702   5.892   2.811  0.5350  0.3443 -0.2075
 5122TIP3    H137001   3.656   5.949   2.749 -0.1577 -0.0092 -0.0272
 5122TIP3    H237002   3.788   5.879   2.771  0.7470  1.5876 -0.2051
 5123TIP3   OH237003   4.800   2.794   7.995  0.3521  0.1545 -0.3783
 5123TIP3    H137004   4.876   2.750   8.034  1.4633  1.0306 -1.4854
 5123TIP3    H237005   4.835   2.843   7.921 -1.2034  1.1071 -0.5451
 5124TIP3   OH237006   6.938   1.871   2.176 -0.2250  0.2576  0.0458
 5124TIP3    H137007   6.962   1.874   2.269  0.6964 -0.3272 -0.1635
 5124TIP3    H237008   6.862   1.929   2.169  0.3832  1.1888  0.9553
 5125TIP3   OH237009   6.426   5.656   7.437  0.1632 -0.0400 -0.2111
 5125TIP3    H137010   6.512   5.647   7.478  0.2860  0.3686 -0.3780
 5125TIP3    H237011   6.433   5.734   7.382 -0.1317 -0.3364 -0.6802
 5126TIP3   OH237012   1.393   6.064   0.994 -0.3000 -0.1247  0.0353
 5126TIP3    H137013   1.442   6.060   1.076  0.0054 -0.9601 -0.1792
 5126TIP3    H237014   1.337   5.987   0.996 -0.9936  0.3726 -0.1080
 5127TIP3   OH237015   5.434   6.780   7.994  0.1042  0.4429  0.8595
 5127TIP3    H137016   5.528   6.793   8.003  0.3304 -1.0090  0.8246
 5127TIP3    H237017   5.415   6.701   8.046 -0.7193 -0.5298 -0.8032
 5128TIP3   OH237018   6.745   5.186   2.279 -0.3353 -0.0283 -0.0558
 5128TIP3    H137019   6.777   5.104   2.241  0.5551  0.4562 -0.3725
 5128TIP3    H237020   6.793   5.195   2.361  2.2688  1.8902 -1.6238
 5129TIP3   OH237021   3.112   1.817   0.490  0.2026 -0.0347 -0.1619
 5129TIP3    H137022   3.092   1.894   0.437  0.1453  0.0141 -0.0694
 5129TIP3    H237023   3.182   1.846   0.549  0.5390 -0.1997 -0.4752
 5130TIP3   OH237024   6.698   3.029   1.557  0.0844  0.3845 -0.0708
 5130TIP3    H137025   6.735   2.985   1.634  1.5091  1.4688 -0.0950
 5130TIP3    H237026   6.604   3.037   1.577  0.5574  1.5179  2.0158
 5131TIP3   OH237027   6.676   3.143   7.960  0.2348 -0.2578 -0.2300
 5131TIP3    H137028   6.719   3.168   8.042  0.1828  1.5853 -0.7252
 5131TIP3    H237029   6.582   3.150   7.979  0.2231  0.2786 -0.4585
 5132TIP3   OH237030   5.940   0.212   6.817 -0.2438  0.1580  0.3175
 5132TIP3    H137031   5.848   0.189   6.805 -0.1682  0.2938 -0.5595
 5132TIP3    H237032   5.972   0.150   6.882 -0.3818 -1.3607 -1.0022
 5133TIP3   OH237033   0.754   1.015   1.743 -0.0262  0.2255 -0.7534
 5133TIP3    H137034   0.826   0.962   1.708 -0.0453 -0.5059  0.2618
 5133TIP3    H237035   0.676   0.981   1.700 -0.1703 -1.3026  0.6122
 5134TIP3   OH237036   4.568   1.880   1.523 -0.0517 -0.2491 -0.4247
 5134TIP3    H137037   4.605   1.810   1.578  1.2442 -0.2772 -1.2884
 5134TIP3    H237038   4.490   1.840   1.484 -2.4878  0.4905  3.1043
 5135TIP3   OH237039   3.075   5.694   1.778 -0.8636  0.2319 -0.1778
 5135TIP3    H137040   3.107   5.727   1.862 -0.9632 -1.4779  0.5792
 5135TIP3    H237041   3.153   5.661   1.734 -1.1383 -1.3507  0.4499
 5136TIP3   OH237042   3.777   4.298   0.552 -0.5456 -0.5580  0.2950
 5136TIP3    H137043   3.749   4.258   0.634 -4.8432  2.3762  0.6205
 5136TIP3    H237044   3.816   4.381   0.578 -2.8120  0.8414 -0.4893
 5137TIP3   OH237045   3.133   1.504   1.152  0.5884 -0.4411 -0.2474
 5137TIP3    H137046   3.145   1.599   1.147  0.4213 -0.2910  1.3741
 5137TIP3    H237047   3.038   1.493   1.163  0.6134 -0.7964 -0.3779
 5138TIP3   OH237048   1.881   2.435   1.077 -0.4356 -0.0613  0.1928
 5138TIP3    H137049   1.869   2.520   1.035  0.7750  0.3150  0.5559
 5138TIP3    H237050   1.875   2.372   1.005 -0.6103  0.3912 -0.1970
 5139TIP3   OH237051   0.585   4.878   0.388  0.0871  0.4132 -0.4245
 5139TIP3    H137052   0.629   4.869   0.473 -0.5490  0.7933 -0.0434
 5139TIP3    H237053   0.646   4.930   0.335  1.5401 -1.7690 -1.0068
 5140TIP3   OH237054   0.744   2.702   2.214  0.2972  0.2890  0.0935
 5140TIP3    H137055   0.813   2.768   2.213  1.1771 -0.6083 -0.3894
 5140TIP3    H237056   0.700   2.714   2.299  2.0977 -0.1428  1.1486
 5141TIP3   OH237057   5.258   4.625   1.470 -0.0785 -0.4550 -0.0121
 5141TIP3    H137058   5.289   4.681   1.541 -0.3542 -0.3674  0.0395
 5141TIP3    H237059   5.283   4.537   1.497 -2.6073 -0.8011  1.5815
 5142TIP3   OH237060   5.001   6.219   7.888 -0.2364 -0.3500  0.4734
 5142TIP3    H137061   4.935   6.176   7.943  0.1270 -0.4670  0.8195
 5142TIP3    H237062   5.035   6.289   7.943 -1.3135  0.8441 -0.3303
 5143TIP3   OH237063   3.572   3.520   1.937  0.0738  0.8199  0.5919
 5143TIP3    H137064   3.535   3.442   1.895 -0.0045  0.4887  1.2621
 5143TIP3    H237065   3.650   3.540   1.886  1.0805 -0.7401  1.4288
 5144TIP3   OH237066   3.354   1.254   7.874  0.2481  0.3057 -0.0375
 5144TIP3    H137067   3.343   1.167   7.835 -0.7885  0.3423  0.1645
 5144TIP3    H237068   3.404   1.303   7.808 -1.1107  0.2378 -1.1577
 5145TIP3   OH237069   4.063   3.482   1.670  0.2995  0.3291 -0.3119
 5145TIP3    H137070   4.107   3.424   1.608 -0.5719  2.4340 -3.1449
 5145TIP3    H237071   4.127   3.550   1.689  0.2950  0.1134  0.5281
 5146TIP3   OH237072   3.791   4.049   8.424  0.4791  0.0512 -0.0607
 5146TIP3    H137073   3.848   4.063   8.500  0.2772 -1.8752  0.5109
 5146TIP3    H237074   3.817   3.963   8.391 -1.9138 -0.7892  0.0833
 5147TIP3   OH237075   3.964   2.190   8.193  0.0309 -0.4294 -0.2214
 5147TIP3    H137076   3.958   2.099   8.163  3.1593 -0.8443  0.1538
 5147TIP3    H237077   3.902   2.194   8.266 -1.8499 -1.5538 -1.6301
 5148TIP3   OH237078   4.015   6.341   1.707  0.1281 -0.2037  0.0452
 5148TIP3    H137079   4.101   6.344   1.666 -0.1959 -0.6783 -0.6828
 5148TIP3    H237080   3.965   6.279   1.655 -1.1059  1.0947 -0.3987
 5149TIP3   OH237081   5.067   2.284   1.844  0.0625  0.0085 -0.1153
 5149TIP3    H137082   5.063   2.197   1.803  1.5844 -0.0847 -0.1256
 5149TIP3    H237083   5.097   2.342   1.774  0.6377  0.2390  0.3162
 5150TIP3   OH237084   0.886   0.409   7.746 -0.3967  0.3264 -0.1838
 5150TIP3    H137085   0.952   0.472   7.775  1.3084 -1.1977 -0.5082
 5150TIP3    H237086   0.812   0.422   7.805 -0.5363  3.2661 -0.8901
 5151TIP3   OH237087   3.465   0.950   1.827  0.2995 -0.5465  0.1463
 5151TIP3    H137088   3.407   0.874   1.822 -2.6558  1.5512 -0.3886
 5151TIP3    H237089   3.535   0.931   1.764 -0.5102 -2.6393 -0.1988
 5152TIP3   OH237090   0.024   1.437   2.011 -0.4747 -0.4484 -0.4330
 5152TIP3    H137091   0.027   1.487   1.929 -0.2008  0.0923 -0.0943
 5152TIP3    H237092   0.021   1.346   1.982  3.4787 -0.5452 -1.0961
 5153TIP3   OH237093   6.073   5.451   7.692  0.2379 -0.5821  0.1714
 5153TIP3    H137094   6.005   5.516   7.672  0.7358  0.1987  0.9784
 5153TIP3    H237095   6.151   5.503   7.711  0.8136 -1.4455  0.1972
 5154TIP3   OH237096   5.632   5.926   7.797  0.1169  0.7169  0.1586
 5154TIP3    H137097   5.565   5.910   7.864  0.8055 -0.5655  0.5780
 5154TIP3    H237098   5.584   5.968   7.725 -1.2754 -0.6690  0.2165
 5155TIP3   OH237099   6.149   6.560   0.369  0.5550 -0.0157 -0.1880
 5155TIP3    H137100   6.086   6.523   0.307  0.1910  2.0442 -1.1454
 5155TIP3    H237101   6.099   6.626   0.417  2.2481  3.0043 -2.2396
 5156TIP3   OH237102   2.126   3.981   0.950  0.0452 -0.3382 -0.2422
 5156TIP3    H137103   2.034   3.957   0.945 -0.8948  2.2071  2.4228
 5156TIP3    H237104   2.162   3.926   1.019  2.0099 -4.7197 -4.1352
 5157TIP3   OH237105   0.423   3.372   6.532 -0.5607 -0.1377 -0.2417
 5157TIP3    H137106   0.366   3.443   6.564 -1.8992 -1.0052 -0.6314
 5157TIP3    H237107   0.390   3.353   6.444  1.6338  0.6821 -1.3119
 5158TIP3   OH237108   3.104   5.311   1.238  0.2505 -0.1458 -0.0686
 5158TIP3    H137109   3.178   5.302   1.298  1.5586 -0.8676 -1.7201
 5158TIP3    H237110   3.065   5.224   1.234 -0.0256 -0.0267 -0.0521
 5159TIP3   OH237111   5.279   0.395   1.346  0.4229 -0.5858 -0.7441
 5159TIP3    H137112   5.280   0.426   1.436 -1.0515 -0.4770 -0.7438
 5159TIP3    H237113   5.294   0.475   1.294 -0.5801 -0.3222 -0.6470
 5160TIP3   OH237114   5.853   0.700   0.005 -0.3297  0.2777 -0.2166
 5160TIP3    H137115   5.897   0.779   0.036  0.8091  0.1870 -1.4790
 5160TIP3    H237116   5.888   0.686  -0.083 -2.5789 -0.0939 -1.1238
 5161TIP3   OH237117   4.760   4.535   0.869 -0.2471 -0.2291  0.6234
 5161TIP3    H137118   4.754   4.534   0.773 -0.9795  2.7863  0.5255
 5161TIP3    H237119   4.852   4.518   0.888 -0.3978 -2.6122 -0.4673
 5162TIP3   OH237120   2.173   2.169   1.223  0.7220 -0.2431 -0.3746
 5162TIP3    H137121   2.189   2.251   1.270 -1.0461  0.3406 -0.7107
 5162TIP3    H237122   2.224   2.177   1.143 -0.7395  1.3285 -1.2140
 5163TIP3   OH237123   1.519   1.597   8.370  0.4877  0.3924  0.1086
 5163TIP3    H137124   1.543   1.504   8.373  0.4895  0.3270 -1.1855
 5163TIP3    H237125   1.563   1.630   8.292  0.0263  1.3470  0.2451
 5164TIP3   OH237126   2.044   4.618   1.892 -0.1973 -0.3632 -0.8785
 5164TIP3    H137127   1.971   4.678   1.877  0.1074 -0.1915 -1.7496
 5164TIP3    H237128   2.005   4.531   1.890 -0.7900 -0.2012  1.2729
 5165TIP3   OH237129   3.981   4.071   7.779 -0.7149  0.1299 -0.3178
 5165TIP3    H137130   3.946   4.133   7.842 -0.4381  0.4057 -0.4302
 5165TIP3    H237131   3.905   4.038   7.732 -0.7326  1.8117 -1.5697
 5166TIP3   OH237132   1.339   1.400   0.302 -0.1540 -0.1077 -0.1011
 5166TIP3    H137133   1.267   1.387   0.364  0.8848 -0.4990  1.0633
 5166TIP3    H237134   1.393   1.321   0.310  2.2172  1.5485  1.5583
 5167TIP3   OH237135   5.111   5.802   2.805  0.0317  0.5718  0.2716
 5167TIP3    H137136   5.039   5.793   2.868 -1.5174 -0.2443 -1.5151
 5167TIP3    H237137   5.123   5.897   2.797 -0.8208  0.7225  0.6270
 5168TIP3   OH237138   1.622   3.905   1.255 -0.6190 -0.6590 -0.1734
 5168TIP3    H137139   1.558   3.880   1.322  1.0166 -1.8909  1.0033
 5168TIP3    H237140   1.569   3.932   1.180 -2.5037 -1.9953  0.6095
 5169TIP3   OH237141   5.606   4.126   1.371 -0.3745 -0.4002 -0.4633
 5169TIP3    H137142   5.544   4.054   1.356  0.7835 -1.1490 -2.0191
 5169TIP3    H237143   5.661   4.127   1.292 -0.1923  2.0705 -0.3838
 5170TIP3   OH237144   0.674   4.443   0.504  0.1273 -0.4712 -0.0454
 5170TIP3    H137145   0.654   4.512   0.442 -1.6069  1.5531  2.5773
 5170TIP3    H237146   0.770   4.445   0.513  0.0387  3.7574  2.0819
 5171TIP3   OH237147   6.153   2.447   0.130 -0.5245  0.2664 -0.0512
 5171TIP3    H137148   6.120   2.443   0.040 -1.6183 -3.1012  0.3776
 5171TIP3    H237149   6.077   2.471   0.182 -0.3431  0.3511  0.1751
 5172TIP3   OH237150   5.115   1.470   0.407 -0.3799  0.4265  0.1007
 5172TIP3    H137151   5.075   1.556   0.412 -1.2894  0.0694 -0.6390
 5172TIP3    H237152   5.073   1.429   0.331  2.4680  0.5716 -1.6818
 5173TIP3   OH237153   0.676   0.504   1.210  0.8145 -0.1542  0.0170
 5173TIP3    H137154   0.720   0.576   1.256 -0.1520 -0.2663  1.1739
 5173TIP3    H237155   0.588   0.538   1.191  0.1627 -1.1887  1.0671
 5174TIP3   OH237156   0.290   4.722   8.523  0.4997 -0.6005  0.1443
 5174TIP3    H137157   0.299   4.638   8.478  1.8396 -1.1555  1.3513
 5174TIP3    H237158   0.325   4.706   8.611 -3.3566  0.0358  1.9921
 5175TIP3   OH237159   3.281   4.467   0.911 -0.0525  0.2836  0.2140
 5175TIP3    H137160   3.286   4.547   0.858 -0.6820  0.1595 -0.0427
 5175TIP3    H237161   3.197   4.472   0.955  0.5710  0.4967  1.4071
 5176TIP3   OH237162   6.953   0.079   7.921 -0.0530  0.2998  0.1807
 5176TIP3    H137163   6.972  -0.012   7.898  0.0007  0.4314 -0.3080
 5176TIP3    H237164   6.998   0.093   8.004  3.3183  1.0392 -1.6064
 5177TIP3   OH237165   3.894   0.521   3.182  0.7999 -0.0548  0.1715
 5177TIP3    H137166   3.904   0.613   3.159  1.8502  0.7272  3.2317
 5177TIP3    H237167   3.977   0.481   3.156 -0.0538 -0.4743 -2.1496
 5178TIP3   OH237168   5.370   6.581   0.834 -0.0807  0.2495 -0.4593
 5178TIP3    H137169   5.350   6.648   0.899  1.2120 -0.6105  0.9170
 5178TIP3    H237170   5.453   6.609   0.796 -0.6343  0.5409 -1.4624
 5179TIP3   OH237171   6.922   4.137   0.039 -0.0877  0.0239  0.5489
 5179TIP3    H137172   6.846   4.147   0.096  0.3075 -0.2771  1.1491
 5179TIP3    H237173   6.971   4.219   0.049 -0.4359  0.3011  0.0019
 5180TIP3   OH237174   3.853   0.130   8.301  0.4102  0.0662  0.4250
 5180TIP3    H137175   3.867   0.064   8.233 -0.3557  0.6287 -0.2904
 5180TIP3    H237176   3.819   0.206   8.254  0.4453  0.6695  1.3603
 5181TIP3   OH237177   6.622   1.891   1.513 -0.4777 -0.1028 -0.5251
 5181TIP3    H137178   6.590   1.801   1.515  0.8556 -0.6404 -1.6863
 5181TIP3    H237179   6.630   1.916   1.605 -2.4631 -0.5354 -0.1829
 5182TIP3   OH237180   6.890   1.819   7.826  0.1174  0.2910 -0.2715
 5182TIP3    H137181   6.865   1.753   7.761  1.0893  0.1734 -0.5558
 5182TIP3    H237182   6.914   1.895   7.773 -1.0945  0.9243  0.0586
 5183TIP3   OH237183   6.599   1.009   0.766 -0.1852  0.2680  0.7669
 5183TIP3    H137184   6.632   1.078   0.709 -0.3213 -0.8901 -0.8001
 5183TIP3    H237185   6.504   1.023   0.769 -0.6199 -1.4326 -1.9213
 5184TIP3   OH237186   6.909   0.606   2.621  0.3009 -0.2698 -0.1974
 5184TIP3    H137187   6.907   0.702   2.624  0.1050 -0.1736 -2.2633
 5184TIP3    H237188   6.821   0.580   2.648  0.7181  0.0303  1.6167
 5185TIP3   OH237189   5.535   2.417   0.044 -0.7552 -0.0107  0.0186
 5185TIP3    H137190   5.589   2.457   0.111 -0.0586 -2.1601  0.8375
 5185TIP3    H237191   5.593   2.357  -0.003 -2.0183 -1.1778 -0.1493
 5186TIP3   OH237192   4.838   4.201   1.398  0.0241 -0.2553  0.6622
 5186TIP3    H137193   4.802   4.207   1.487  0.0997  1.7874  0.6010
 5186TIP3    H237194   4.770   4.240   1.342  0.6764  0.0003  0.0372
 5187TIP3   OH237195   0.928   4.995   0.728  0.9657  0.3613  0.2032
 5187TIP3    H137196   0.895   5.065   0.672  0.3618  0.2793  0.4507
 5187TIP3    H237197   1.022   4.993   0.711  0.5810 -0.9671 -2.3339
 5188TIP3   OH237198   6.454   0.087   1.986  0.0958  0.2089 -0.5518
 5188TIP3    H137199   6.502   0.004   1.981  2.0106  1.2951 -0.9473
 5188TIP3    H237200   6.504   0.147   1.931 -0.6811  1.9238  0.5481
 5189TIP3   OH237201   4.603   4.166   2.706 -0.2532 -0.6936  0.2580
 5189TIP3    H137202   4.672   4.102   2.691 -0.2788 -0.4255 -1.0415
 5189TIP3    H237203   4.644   4.251   2.693 -0.6747 -0.5064  0.1266
 5190TIP3   OH237204   2.501   3.452   7.857 -0.0900 -0.5211  0.4940
 5190TIP3    H137205   2.526   3.419   7.943 -1.5926  0.5313  1.3895
 5190TIP3    H237206   2.584   3.458   7.809  0.9936  0.0812  2.3108
 5191TIP3   OH237207   2.377   5.929   0.026  0.5020  0.0127  0.1685
 5191TIP3    H137208   2.382   5.856  -0.036  0.1114  1.1569 -1.2787
 5191TIP3    H237209   2.287   5.959   0.020  1.2819  2.3649 -1.4480
 5192TIP3   OH237210   2.708   0.452   1.280  0.0523  0.1645 -0.2674
 5192TIP3    H137211   2.763   0.518   1.237  1.0749 -0.3028  0.2850
 5192TIP3    H237212   2.770   0.395   1.324 -0.9344  0.1052  1.0935
 5193TIP3   OH237213   5.385   5.396   6.559 -0.1448  0.4483  0.7736
 5193TIP3    H137214   5.406   5.311   6.519  1.4723  0.9089  0.5589
 5193TIP3    H237215   5.433   5.396   6.642 -0.8216  0.8226  1.1696
 5194TIP3   OH237216   4.896   3.089   1.802  0.4184  0.6940 -0.0204
 5194TIP3    H137217   4.806   3.084   1.834  0.5542 -0.5240  0.2162
 5194TIP3    H237218   4.949   3.102   1.880  0.4910  1.1012 -0.1294
 5195TIP3   OH237219   2.078   1.011   0.456 -0.0546 -0.1119  1.4277
 5195TIP3    H137220   2.142   1.082   0.457  0.9096 -0.9160 -0.0747
 5195TIP3    H237221   1.993   1.055   0.451  0.5809  1.0146 -1.8630
 5196TIP3   OH237222   6.219   2.230   8.341 -0.3696  0.2024  0.2932
 5196TIP3    H137223   6.248   2.187   8.261 -1.3772  0.1834 -0.0638
 5196TIP3    H237224   6.269   2.186   8.411  1.1240  0.7696 -0.3636
 5197TIP3   OH237225   2.549   1.928   7.887 -0.5851  0.4722 -0.3006
 5197TIP3    H137226   2.609   1.855   7.899 -0.9703  0.2226  0.1040
 5197TIP3    H237227   2.581   1.972   7.808  0.3780  0.5808  0.1201
 5198TIP3   OH237228   6.037   6.628   8.225  0.1860 -0.0545 -0.2860
 5198TIP3    H137229   6.031   6.577   8.144  0.6548  0.3509 -0.5804
 5198TIP3    H237230   5.955   6.609   8.271  0.3825 -1.1457 -0.3464
 5199TIP3   OH237231   3.053   3.277   2.017  0.4480 -0.3180  0.4908
 5199TIP3    H137232   3.146   3.264   2.000  0.1167 -0.0807 -1.7229
 5199TIP3    H237233   3.045   3.370   2.038  0.6095 -0.1811 -0.0537
 5200TIP3   OH237234   4.657   2.464   2.120 -0.0211 -0.3360  0.0324
 5200TIP3    H137235   4.746   2.463   2.086 -0.3829 -0.1499 -0.9431
 5200TIP3    H237236   4.667   2.470   2.215  1.0068 -0.8416 -0.0397
 5201TIP3   OH237237   4.319   0.660   0.804 -0.7691  0.2789 -0.4439
 5201TIP3    H137238   4.228   0.667   0.832 -0.1024  0.8332  1.8538
 5201TIP3    H237239   4.326   0.720   0.729 -1.8617  1.8201  0.6090
 5202TIP3   OH237240   6.774   1.870   6.810 -0.6011 -0.3861 -0.6141
 5202TIP3    H137241   6.859   1.830   6.825  0.1820  0.6563 -1.9912
 5202TIP3    H237242   6.717   1.797   6.787  0.5363 -0.8683 -2.0597
 5203TIP3   OH237243   5.567   3.189   0.935  0.5639 -0.1963 -0.6309
 5203TIP3    H137244   5.592   3.097   0.934  0.6823 -0.1630 -1.0073
 5203TIP3    H237245   5.567   3.215   0.843 -0.7345 -0.1559 -0.6354
 5204TIP3   OH237246   4.063   0.289   1.069  0.1872 -0.1714  0.7227
 5204TIP3    H137247   4.027   0.212   1.112 -1.6634  0.6643  0.7698
 5204TIP3    H237248   4.128   0.255   1.008  1.2246 -1.5505  2.5153
 5205TIP3   OH237249   3.526   2.182   8.375  0.0700  0.1711  0.0792
 5205TIP3    H137250   3.442   2.137   8.375 -0.8938  1.8388  0.7929
 5205TIP3    H237251   3.584   2.125   8.325 -1.4714 -1.0385 -0.4358
 5206TIP3   OH237252   3.862   6.101   7.987 -0.0234 -0.1715 -0.6581
 5206TIP3    H137253   3.937   6.047   7.961  1.0441 -0.2348  2.1782
 5206TIP3    H237254   3.896   6.191   7.986  0.8421 -0.3477  2.5070
 5207TIP3   OH237255   4.980   3.535   2.097 -0.5983  0.1399 -1.0646
 5207TIP3    H137256   5.040   3.511   2.027  1.1240  0.4531  0.2393
 5207TIP3    H237257   5.008   3.623   2.124 -1.5752  0.2537 -0.3473
 5208TIP3   OH237258   0.499   6.148   2.581 -0.3106 -0.5345 -0.5643
 5208TIP3    H137259   0.472   6.231   2.540 -1.2027 -0.1104  0.8012
 5208TIP3    H237260   0.585   6.167   2.618  0.2397 -0.7451 -1.7031
 5209TIP3   OH237261   2.373   0.588   8.306  0.2411 -0.2733 -0.2163
 5209TIP3    H137262   2.400   0.513   8.253 -0.5752 -0.2612 -0.6632
 5209TIP3    H237263   2.356   0.552   8.392 -0.7277 -0.7129 -0.5864
 5210TIP3   OH237264   2.573   3.118   1.145  0.3813 -0.5447  0.2241
 5210TIP3    H137265   2.584   3.190   1.207 -0.5564 -0.4000  0.2478
 5210TIP3    H237266   2.509   3.151   1.082 -0.0819 -1.3654  0.2512
 5211TIP3   OH237267   3.014   5.361   0.662  0.1285  0.1081 -0.5442
 5211TIP3    H137268   3.075   5.343   0.590  1.3659  1.0934  0.2231
 5211TIP3    H237269   3.008   5.456   0.665 -0.5457  0.0506  0.1537
 5212TIP3   OH237270   6.774   5.832   0.265 -0.0081  0.3618 -0.0064
 5212TIP3    H137271   6.717   5.852   0.191  0.9710  0.9265 -0.6270
 5212TIP3    H237272   6.790   5.917   0.307 -0.0298  0.1347  0.4720
 5213TIP3   OH237273   3.013   0.425   2.134  0.8434  0.8720  0.5835
 5213TIP3    H137274   2.979   0.386   2.054  2.3810  1.6728 -0.5058
 5213TIP3    H237275   2.944   0.484   2.164  0.4969  1.0157 -0.4853
 5214TIP3   OH237276   2.153   4.900   7.868 -0.2935  0.7312 -0.0407
 5214TIP3    H137277   2.234   4.859   7.837 -0.1336  1.2392 -0.2941
 5214TIP3    H237278   2.108   4.830   7.916 -1.1051 -0.4469 -2.3779
 5215TIP3   OH237279   3.046   5.425   7.448  0.2171 -0.5085 -0.4366
 5215TIP3    H137280   3.112   5.493   7.434 -1.8269  1.4038 -1.5355
 5215TIP3    H237281   3.017   5.403   7.359  0.8945 -2.9567 -0.1054
 5216TIP3   OH237282   5.516   0.370   3.021 -0.4305 -0.2612 -0.2745
 5216TIP3    H137283   5.526   0.455   3.063  1.1328 -0.8080  0.5456
 5216TIP3    H237284   5.422   0.352   3.023 -0.9044  1.8580 -1.3418
 5217TIP3   OH237285   2.246   0.748   2.171 -0.7088 -0.3190  0.0216
 5217TIP3    H137286   2.211   0.729   2.258  1.2321  1.5931  1.3095
 5217TIP3    H237287   2.242   0.664   2.125 -0.5516 -1.7252  2.4006
 5218TIP3   OH237288   6.882   2.186   7.946  0.1357 -0.8300  0.1004
 5218TIP3    H137289   6.967   2.213   7.911  1.1608 -1.3555  2.0318
 5218TIP3    H237290   6.828   2.264   7.939  1.1824 -0.0906  0.0215
 5219TIP3   OH237291   4.905   4.803   1.738 -0.3941  0.3277 -0.0940
 5219TIP3    H137292   4.818   4.791   1.700 -1.0020  0.9113  1.0739
 5219TIP3    H237293   4.912   4.735   1.804  0.0802  0.2303 -0.2382
 5220TIP3   OH237294   1.539   4.730   7.787  0.2362 -0.0009  0.3268
 5220TIP3    H137295   1.511   4.652   7.833 -3.2177 -0.4343 -2.0913
 5220TIP3    H237296   1.542   4.798   7.854 -0.5367 -1.4029  1.8465
 5221TIP3   OH237297   3.754   1.015   2.268  0.2659 -0.3480  0.7698
 5221TIP3    H137298   3.746   1.050   2.179  0.2779  0.7349  1.1708
 5221TIP3    H237299   3.705   0.933   2.267 -0.4512  0.0770 -0.0151
 5222TIP3   OH237300   3.050   0.763   2.211 -0.4322 -0.2960 -0.3032
 5222TIP3    H137301   3.121   0.731   2.155  0.1391 -0.7544  0.6562
 5222TIP3    H237302   3.093   0.818   2.276 -0.8132 -1.3595  0.8849
 5223TIP3   OH237303   5.225   2.225   2.066 -0.2408 -0.3740  0.2491
 5223TIP3    H137304   5.195   2.253   1.980 -1.0570  0.7488  0.8825
 5223TIP3    H237305   5.177   2.280   2.128 -0.2455 -1.6888  1.4595
 5224TIP3   OH237306   2.259   5.031   0.071 -0.3234  0.0498 -0.4304
 5224TIP3    H137307   2.266   4.992   0.158 -1.9961  0.6702  0.0283
 5224TIP3    H237308   2.291   5.120   0.082  1.8172 -0.6019 -1.0635
 5225TIP3   OH237309   2.701   3.160   1.564  0.2858 -0.1253 -0.6424
 5225TIP3    H137310   2.794   3.143   1.577 -0.1390 -1.5576  0.7669
 5225TIP3    H237311   2.696   3.196   1.475  2.0035 -1.5781 -1.3928
 5226TIP3   OH237312   6.068   6.539   0.100 -0.7950 -0.6401 -0.2799
 5226TIP3    H137313   6.148   6.585   0.074  0.0921 -0.8088  1.9588
 5226TIP3    H237314   6.040   6.494   0.020  0.7944  0.1814 -1.3663
 5227TIP3   OH237315   5.344   0.319   1.730 -0.3699  0.3500  0.0088
 5227TIP3    H137316   5.396   0.257   1.680 -1.1932  0.1225 -0.5902
 5227TIP3    H237317   5.297   0.266   1.793 -0.1998  0.5030  0.2660
 5228TIP3   OH237318   1.645   4.178   7.532 -0.0618  0.1837  0.0251
 5228TIP3    H137319   1.668   4.101   7.479 -0.3104  0.4195 -0.4278
 5228TIP3    H237320   1.706   4.246   7.503  0.9607 -0.1588  1.2620
 5229TIP3   OH237321   5.437   6.061   1.387 -0.1082  0.3269 -0.0733
 5229TIP3    H137322   5.488   6.030   1.462 -0.2658 -0.8361 -0.4204
 5229TIP3    H237323   5.351   6.081   1.422  0.2658  1.3102  0.3273
 5230TIP3   OH237324   1.209   0.225   1.130  0.7867  0.4993 -0.3745
 5230TIP3    H137325   1.206   0.132   1.109  0.0268  0.5112 -0.3627
 5230TIP3    H237326   1.133   0.263   1.085  0.8558  1.0381 -0.0573
 5231TIP3   OH237327   0.035   4.466   1.651  0.5759  0.1545 -0.1773
 5231TIP3    H137328   0.040   4.492   1.559  1.6050 -0.6285 -0.3590
 5231TIP3    H237329  -0.040   4.406   1.656 -0.2710  1.1784 -0.2355
 5232TIP3   OH237330   5.537   4.640   6.920 -1.0621 -0.2196 -0.4383
 5232TIP3    H137331   5.507   4.727   6.947 -1.8255 -0.5810 -0.0733
 5232TIP3    H237332   5.465   4.582   6.945  0.6662 -1.4064  2.1481
 5233TIP3   OH237333   3.746   6.805   7.477  0.4162 -0.3058 -0.3100
 5233TIP3    H137334   3.769   6.873   7.413  1.3898 -0.8758 -0.5706
 5233TIP3    H237335   3.791   6.727   7.447 -1.5749 -1.3889 -0.6363
 5234TIP3   OH237336   2.833   4.348   1.422 -0.1625  0.4416  0.5996
 5234TIP3    H137337   2.831   4.284   1.351 -0.7949  1.1016  0.0061
 5234TIP3    H237338   2.876   4.303   1.495 -0.7426 -0.7078  0.2449
 5235TIP3   OH237339   1.878   4.803   2.338  0.2229 -0.1691  0.3799
 5235TIP3    H137340   1.786   4.778   2.340 -0.5300  2.3102 -0.2133
 5235TIP3    H237341   1.914   4.755   2.263 -0.4773 -1.3905  0.7938
 5236TIP3   OH237342   0.469   5.289   7.749  0.2375 -0.0247  0.0888
 5236TIP3    H137343   0.500   5.224   7.687  2.3743 -0.7243  1.7662
 5236TIP3    H237344   0.482   5.373   7.704  0.6759 -0.5630 -0.8192
 5237TIP3   OH237345   2.388   4.368   2.055  0.1195  0.2013 -0.2604
 5237TIP3    H137346   2.409   4.436   1.991 -0.7047  1.1668  0.4713
 5237TIP3    H237347   2.294   4.377   2.070  0.2141 -0.3251  0.7273
 5238TIP3   OH237348   0.382   2.681   7.059  0.3833 -0.2925 -0.0906
 5238TIP3    H137349   0.470   2.651   7.081  0.5638  0.2562 -0.0612
 5238TIP3    H237350   0.381   2.683   6.963 -1.0987 -4.8415 -0.4518
 5239TIP3   OH237351   5.268   0.579   1.840  0.0715 -0.3629 -0.2872
 5239TIP3    H137352   5.334   0.509   1.834  0.5981  0.0019  0.9284
 5239TIP3    H237353   5.318   0.660   1.827  0.2288  0.0388  2.3886
 5240TIP3   OH237354   5.504   6.328   7.122 -0.1958 -0.1357 -0.3696
 5240TIP3    H137355   5.549   6.397   7.075 -0.9463 -0.4066 -1.5345
 5240TIP3    H237356   5.414   6.332   7.091 -0.3801 -1.2679 -0.0567
 5241TIP3   OH237357   3.862   1.956   2.258  0.0228  0.4061 -0.5620
 5241TIP3    H137358   3.861   2.032   2.201  2.3854 -0.1954 -1.5260
 5241TIP3    H237359   3.951   1.921   2.251 -1.1794 -3.0293 -0.9632
 5242TIP3   OH237360   3.826   5.332   7.666 -0.0424 -0.0063 -0.1978
 5242TIP3    H137361   3.780   5.379   7.597 -1.0830 -0.0209  0.4713
 5242TIP3    H237362   3.900   5.291   7.621 -0.2202  0.6689 -1.1414
 5243TIP3   OH237363   6.403   6.409   2.711 -0.6262  0.6588 -0.3065
 5243TIP3    H137364   6.437   6.335   2.660 -0.3170  0.9997 -0.5987
 5243TIP3    H237365   6.478   6.437   2.764 -1.0252  0.1205  0.5598
 5244TIP3   OH237366   2.293   0.460   1.465 -0.4247  0.3539  0.4248
 5244TIP3    H137367   2.342   0.428   1.541 -0.0615 -0.6060 -0.1868
 5244TIP3    H237368   2.220   0.509   1.502  0.6548  1.2923  1.3619
 5245TIP3   OH237369   4.982   4.330   1.738 -0.2236 -0.7143 -0.4186
 5245TIP3    H137370   5.064   4.335   1.788 -0.6451 -0.6511  0.2838
 5245TIP3    H237371   4.970   4.237   1.721 -1.1114 -0.9739  1.3956
 5246TIP3   OH237372   2.688   1.139   0.425  0.2196 -0.3052 -0.3375
 5246TIP3    H137373   2.654   1.147   0.335  0.6834 -0.0149 -0.4957
 5246TIP3    H237374   2.701   1.230   0.453 -0.0464 -0.3931  0.0751
 5247TIP3   OH237375   5.309   6.710   1.602 -0.0589  0.1048  0.2113
 5247TIP3    H137376   5.265   6.783   1.648  0.7399  0.5799  0.2395
 5247TIP3    H237377   5.402   6.732   1.606  0.1250 -0.5027 -0.5207
 5248TIP3   OH237378   6.679   0.223   1.881  0.6571 -0.7629 -0.4132
 5248TIP3    H137379   6.714   0.135   1.893  2.4568 -0.2230 -1.3763
 5248TIP3    H237380   6.753   0.281   1.897 -0.6906  0.6732  1.0645
 5249TIP3   OH237381   5.507   4.650   0.709  0.3106 -0.3543 -0.0404
 5249TIP3    H137382   5.494   4.599   0.629  0.9226  0.8922 -0.9730
 5249TIP3    H237383   5.461   4.601   0.776 -0.6228 -1.1982 -1.2478
 5250TIP3   OH237384   0.829   4.142   7.612  0.2354 -0.2096  0.1054
 5250TIP3    H137385   0.823   4.089   7.533  2.2381 -1.8495  0.9708
 5250TIP3    H237386   0.816   4.080   7.684  0.1549  0.9409  1.1262
 5251TIP3   OH237387   4.432   6.263   1.802 -0.0509  0.3135 -0.2915
 5251TIP3    H137388   4.463   6.327   1.866 -1.0155  0.2102  0.2982
 5251TIP3    H237389   4.395   6.192   1.854  2.4636 -1.5587 -0.8822
 5252TIP3   OH237390   6.189   4.932   7.393  0.1083 -0.0088  0.2286
 5252TIP3    H137391   6.140   4.863   7.349 -1.3488  0.5946  0.8449
 5252TIP3    H237392   6.220   4.891   7.474  1.1339 -0.5508 -0.4172
 5253TIP3   OH237393   6.372   6.410   7.841  0.7345 -0.0176 -0.1865
 5253TIP3    H137394   6.404   6.367   7.762  2.9389 -1.6212  1.4762
 5253TIP3    H237395   6.328   6.341   7.890 -0.3654  0.8893  0.1563
 5254TIP3   OH237396   3.950   1.298   8.173  0.0763 -0.4536  0.0847
 5254TIP3    H137397   3.936   1.387   8.206 -2.9329 -0.6714 -0.3912
 5254TIP3    H237398   4.007   1.258   8.239 -0.7699  0.9871  1.7789
 5255TIP3   OH237399   0.681   1.423   0.123  0.0821 -0.1503  0.2088
 5255TIP3    H137400   0.595   1.465   0.120  0.2287  0.2283  1.0006
 5255TIP3    H237401   0.742   1.494   0.144  0.3309 -0.7364  1.5759
 5256TIP3   OH237402   6.254   6.121   2.559 -0.3213 -0.9543  0.3182
 5256TIP3    H137403   6.339   6.164   2.572 -0.6969  1.1085 -2.9991
 5256TIP3    H237404   6.277   6.029   2.546  1.1635 -0.8056  1.5229
 5257TIP3   OH237405   3.363   2.590   0.644 -0.7297 -0.0607  0.3372
 5257TIP3    H137406   3.431   2.647   0.679 -0.0462  1.2094 -2.6956
 5257TIP3    H237407   3.399   2.559   0.561 -2.0561 -3.1139  0.7751
 5258TIP3   OH237408   1.472   3.935   8.373  0.0658 -0.4452 -0.3545
 5258TIP3    H137409   1.555   3.908   8.336 -0.2848  0.5872 -1.9940
 5258TIP3    H237410   1.407   3.912   8.306 -0.6395  1.1408 -0.2632
 5259TIP3   OH237411   1.276   1.779   2.559  0.1999  0.6893  0.1864
 5259TIP3    H137412   1.331   1.821   2.493  1.2308  2.2315  1.9288
 5259TIP3    H237413   1.303   1.687   2.557  0.1162  0.6566 -1.5646
 5260TIP3   OH237414   4.314   6.522   1.406 -0.0269 -0.4409 -0.0291
 5260TIP3    H137415   4.292   6.584   1.336  0.9691  0.4390  0.4150
 5260TIP3    H237416   4.368   6.572   1.467 -0.7544 -1.2211  1.3226
 5261TIP3   OH237417   2.838   2.221   1.926 -0.5867  1.1320 -0.1637
 5261TIP3    H137418   2.749   2.222   1.961 -1.1021  0.8378 -1.4180
 5261TIP3    H237419   2.852   2.130   1.899  1.6172  0.1174  3.6598
 5262TIP3   OH237420   6.799   0.380   0.336 -0.1421 -0.0867  0.6254
 5262TIP3    H137421   6.787   0.474   0.323 -1.0922 -0.3907 -1.1110
 5262TIP3    H237422   6.710   0.346   0.346 -0.0158 -1.0341 -1.0161
 5263TIP3   OH237423   1.491   2.767   1.335 -0.5183  0.2111  0.4633
 5263TIP3    H137424   1.587   2.764   1.326 -0.5573  0.2456 -0.0172
 5263TIP3    H237425   1.473   2.718   1.415 -0.2601 -2.2030 -0.8323
 5264TIP3   OH237426   3.460   4.711   1.042 -0.3572 -0.1695 -0.6221
 5264TIP3    H137427   3.430   4.702   0.951 -0.3887  0.2724 -0.6552
 5264TIP3    H237428   3.411   4.785   1.076  0.6017  0.4842 -0.6384
 5265TIP3   OH237429   4.164   2.850   2.682 -0.0884 -0.1400 -0.5502
 5265TIP3    H137430   4.215   2.930   2.694 -0.2393 -0.2665  1.1322
 5265TIP3    H237431   4.074   2.876   2.701 -0.1621 -0.6628 -0.1564
 5266TIP3   OH237432   2.462   0.317   6.954  0.7492 -0.2115 -0.0914
 5266TIP3    H137433   2.471   0.403   6.996 -0.7429 -0.1404  0.1680
 5266TIP3    H237434   2.373   0.318   6.917  0.3464 -1.9625  0.7182
 5267TIP3   OH237435   0.127   3.193   7.796 -0.3749  0.2564 -0.0805
 5267TIP3    H137436   0.137   3.280   7.759 -0.1509  0.2908  0.0634
 5267TIP3    H237437   0.081   3.207   7.878  1.3775  0.4463  0.9031
 5268TIP3   OH237438   0.313   0.248   2.033  0.0249 -1.1600  0.2958
 5268TIP3    H137439   0.370   0.325   2.025 -1.1951 -0.2345  0.1288
 5268TIP3    H237440   0.224   0.283   2.025 -0.7327 -2.1857  3.0095
 5269TIP3   OH237441   4.935   6.524   1.119  0.0264  0.3220  0.6855
 5269TIP3    H137442   4.861   6.466   1.105  0.7994 -0.8447  1.2624
 5269TIP3    H237443   4.905   6.587   1.185 -0.4522 -0.1432  0.9195
 5270TIP3   OH237444   2.024   3.792   2.602 -0.0154 -0.2483 -0.3125
 5270TIP3    H137445   2.004   3.700   2.616 -1.6615 -0.0368 -1.0956
 5270TIP3    H237446   2.013   3.833   2.688  0.1449 -0.6696 -0.0897
 5271TIP3   OH237447   0.207   3.727   2.708  0.2993  0.0857  0.2299
 5271TIP3    H137448   0.174   3.687   2.788  1.5526 -0.4918  0.4840
 5271TIP3    H237449   0.291   3.684   2.693  0.8710  1.3822 -0.4588
 5272TIP3   OH237450   3.749   6.574   0.789 -0.3195  0.0929  0.1705
 5272TIP3    H137451   3.768   6.665   0.811 -0.1228 -0.0492  0.6032
 5272TIP3    H237452   3.758   6.527   0.872  1.8896 -0.7006 -0.4293
 5273TIP3   OH237453   0.888   3.277   7.143  0.6086 -0.1635  0.6470
 5273TIP3    H137454   0.982   3.281   7.127  0.2243 -0.3419 -2.2129
 5273TIP3    H237455   0.851   3.246   7.060 -1.9372 -0.6120  1.8479
 5274TIP3   OH237456   0.278   1.410   2.664  0.6368 -0.4882 -0.3218
 5274TIP3    H137457   0.199   1.366   2.696  0.0204 -0.6079 -1.9073
 5274TIP3    H237458   0.251   1.501   2.650  0.6662 -0.6068 -1.1980
 5275TIP3   OH237459   6.613   2.313   7.019  0.2378 -0.8680  0.6072
 5275TIP3    H137460   6.598   2.273   6.933 -0.9744  0.1488  0.3100
 5275TIP3    H237461   6.617   2.239   7.079 -0.8810 -1.5127 -0.0700
 5276TIP3   OH237462   4.587   5.799   8.516 -0.2187  0.7236 -0.3900
 5276TIP3    H137463   4.504   5.801   8.469 -0.3203  0.5151 -0.2227
 5276TIP3    H237464   4.611   5.706   8.518 -1.4521  0.3579  2.0946
 5277TIP3   OH237465   4.306   0.442   0.373  0.4621  0.1263  0.2813
 5277TIP3    H137466   4.369   0.484   0.314 -1.6013 -0.7978 -2.8150
 5277TIP3    H237467   4.299   0.352   0.341 -3.8407  0.6738 -0.9772
 5278TIP3   OH237468   0.539   3.081   2.677 -0.0802 -0.0462  0.4707
 5278TIP3    H137469   0.484   3.013   2.639  0.5049 -0.7043  0.7769
 5278TIP3    H237470   0.498   3.163   2.650 -0.5745 -0.5129 -0.2386
 5279TIP3   OH237471   0.422   5.437   1.943 -0.1865  0.0212 -0.0954
 5279TIP3    H137472   0.515   5.457   1.937 -0.5244  1.5117 -1.0402
 5279TIP3    H237473   0.411   5.355   1.895  0.4526  0.5768 -1.2442
 5280TIP3   OH237474   6.236   3.910   0.499  0.4551 -0.1341  0.1768
 5280TIP3    H137475   6.246   3.898   0.594 -0.0925  2.7016  0.6987
 5280TIP3    H237476   6.223   3.821   0.465  0.1219 -1.2082  2.8184
 5281TIP3   OH237477   1.196   0.037   1.502 -0.6005 -0.1842 -0.5712
 5281TIP3    H137478   1.199  -0.019   1.425  1.0985  0.6414 -1.1576
 5281TIP3    H237479   1.250  -0.008   1.567 -0.5284 -0.0143 -0.5105
 5282TIP3   OH237480   1.422   3.826   7.742  0.4422 -0.4272  0.2187
 5282TIP3    H137481   1.455   3.915   7.748 -0.0826 -0.1107 -1.1545
 5282TIP3    H237482   1.343   3.826   7.796 -0.6328  0.5142 -1.2579
 5283TIP3   OH237483   5.461   3.107   2.179  0.2318 -0.2586  0.1982
 5283TIP3    H137484   5.388   3.064   2.226  0.8261 -1.2204  0.2600
 5283TIP3    H237485   5.429   3.116   2.090 -0.1142 -0.3357  0.3087
 5284TIP3   OH237486   5.604   6.499   7.648  0.2948 -0.3570  0.0523
 5284TIP3    H137487   5.624   6.577   7.699  2.2097 -1.1379  0.6045
 5284TIP3    H237488   5.545   6.529   7.580  0.9502  1.5673  0.2669
 5285TIP3   OH237489   5.498   1.421   6.947  0.0360  0.1741 -0.0749
 5285TIP3    H137490   5.526   1.347   6.893 -1.9486  0.8845 -2.2567
 5285TIP3    H237491   5.544   1.409   7.030  1.8295 -2.0111 -1.2657
 5286TIP3   OH237492   4.115   2.644   0.038  0.6388  0.4172 -0.1452
 5286TIP3    H137493   4.088   2.559   0.074  0.1366  1.3084  1.7321
 5286TIP3    H237494   4.202   2.628   0.001  0.7430 -0.8173  0.5753
 5287TIP3   OH237495   3.594   6.281   2.839  0.6329  0.5881 -0.1448
 5287TIP3    H137496   3.622   6.201   2.795 -1.7267  0.3590 -1.3965
 5287TIP3    H237497   3.670   6.339   2.835  1.7523 -0.8723 -0.9631
 5288TIP3   OH237498   1.618   6.717   7.258 -0.2594 -0.0745  0.0840
 5288TIP3    H137499   1.663   6.657   7.198  0.6542  0.5047  0.1694
 5288TIP3    H237500   1.579   6.783   7.201 -0.1692 -0.0311  0.0729
 5289TIP3   OH237501   4.587   6.479   2.286 -0.1342  0.4526 -0.1576
 5289TIP3    H137502   4.571   6.387   2.309  0.9233  0.5869  1.2138
 5289TIP3    H237503   4.529   6.529   2.343  0.3554  0.6825  0.1478
 5290TIP3   OH237504   2.264   1.214   0.424 -0.6305 -0.4554 -0.1410
 5290TIP3    H137505   2.246   1.241   0.514 -3.0556  1.5955 -1.1125
 5290TIP3    H237506   2.329   1.277   0.393 -0.3359 -0.7159 -0.0595
 5291TIP3   OH237507   3.868   1.394   0.303 -0.5565 -0.7372 -0.4389
 5291TIP3    H137508   3.885   1.472   0.251  1.6052 -1.9936 -1.8021
 5291TIP3    H237509   3.936   1.395   0.371 -0.4175 -1.4714 -0.5556
 5292TIP3   OH237510   4.576   0.549   0.372 -0.3399 -0.4439 -0.8039
 5292TIP3    H137511   4.660   0.564   0.416 -0.8226 -3.5564  1.4571
 5292TIP3    H237512   4.535   0.635   0.370  2.1496  0.8598 -0.4150
 5293TIP3   OH237513   0.030   4.327   7.230  0.2222 -0.0568 -0.2903
 5293TIP3    H137514   0.032   4.256   7.294  0.5227  0.5663  0.4036
 5293TIP3    H237515   0.012   4.406   7.281  1.3791  0.5861 -0.8309
 5294TIP3   OH237516   3.554   3.210   1.877  0.1852  0.7855 -0.0865
 5294TIP3    H137517   3.638   3.210   1.830  0.6178 -3.2868  0.3585
 5294TIP3    H237518   3.548   3.123   1.914 -3.6437  1.4300  1.1594
 5295TIP3   OH237519   4.007   3.091   2.929  0.0853  0.1055 -0.2083
 5295TIP3    H137520   4.051   3.015   2.967 -2.2126 -1.2110  0.0325
 5295TIP3    H237521   3.963   3.133   3.002  0.3142  0.9613 -0.5491
 5296TIP3   OH237522   0.486   2.312   0.301 -0.6130 -0.0306  0.4287
 5296TIP3    H137523   0.534   2.297   0.220 -1.5646  1.6137 -0.4921
 5296TIP3    H237524   0.548   2.361   0.357 -0.3336 -0.2004  0.2695
 5297TIP3   OH237525   4.321   4.318   1.215 -0.5947 -0.2104 -0.3328
 5297TIP3    H137526   4.305   4.337   1.307  0.9402  0.4665 -0.1868
 5297TIP3    H237527   4.255   4.252   1.193  0.5628 -2.2723  1.9008
 5298TIP3   OH237528   0.839   3.578   0.176 -0.2034 -1.0593  0.0483
 5298TIP3    H137529   0.929   3.580   0.145 -0.0809 -0.3686  0.4239
 5298TIP3    H237530   0.837   3.642   0.247 -1.2279 -0.2937 -0.6315
 5299TIP3   OH237531   3.189   6.066   0.605  0.0033 -0.2715 -0.0326
 5299TIP3    H137532   3.133   6.088   0.681 -0.5141 -0.0627 -0.4658
 5299TIP3    H237533   3.255   6.135   0.604 -0.9992  0.7229 -0.7628
 5300TIP3   OH237534   1.023   5.051   8.377 -0.3305 -0.3223 -0.1819
 5300TIP3    H137535   1.112   5.076   8.399 -0.2565 -1.6649  1.1463
 5300TIP3    H237536   1.023   5.042   8.282  0.5721  0.9979 -0.3389
 5301TIP3   OH237537   0.563   5.585   1.542 -0.5185 -0.5488  0.3044
 5301TIP3    H137538   0.601   5.614   1.625  0.0656  0.4756 -0.3120
 5301TIP3    H237539   0.587   5.492   1.536  1.7151  0.0007  0.0586
 5302TIP3   OH237540   1.951   4.903   1.770  0.1028 -0.4425  0.7085
 5302TIP3    H137541   2.021   4.886   1.707  0.9602 -3.6078  2.3499
 5302TIP3    H237542   1.873   4.864   1.731  0.0640 -0.2144  0.5511
 5303TIP3   OH237543   6.143   4.197   1.593 -0.2759 -0.2402  0.5303
 5303TIP3    H137544   6.201   4.193   1.517  0.5720  0.6003  1.1095
 5303TIP3    H237545   6.182   4.264   1.649 -1.6208  0.0967  1.1010
 5304TIP3   OH237546   3.596   1.845   1.828 -0.1823  0.6250 -0.0760
 5304TIP3    H137547   3.557   1.908   1.888  1.1331  0.6651  0.7650
 5304TIP3    H237548   3.661   1.798   1.880 -0.7769 -1.1173 -0.7938
 5305TIP3   OH237549   1.467   6.914   2.335 -0.0119 -0.5871 -0.4902
 5305TIP3    H137550   1.459   6.992   2.390  0.1209 -0.1268 -1.1160
 5305TIP3    H237551   1.533   6.860   2.380 -0.0645 -0.3214 -0.0852
 5306TIP3   OH237552   0.125   0.317   2.314 -0.1746  0.4555 -0.2016
 5306TIP3    H137553   0.162   0.393   2.269 -0.5881  1.0135  0.3681
 5306TIP3    H237554   0.134   0.338   2.407  2.1406 -1.3694  0.0770
 5307TIP3   OH237555   1.637   1.298   7.368  0.3614  0.3563 -0.3504
 5307TIP3    H137556   1.701   1.287   7.439  0.0704 -0.2910 -0.1787
 5307TIP3    H237557   1.577   1.225   7.379 -0.6286  1.1604 -0.2900
 5308TIP3   OH237558   0.694   3.858   0.053 -0.2103  0.3454 -0.5067
 5308TIP3    H137559   0.645   3.914  -0.006 -0.5326 -0.0929 -0.6595
 5308TIP3    H237560   0.684   3.770   0.017  0.4997  0.2215 -0.4131
 5309TIP3   OH237561   6.469   2.892   7.946  0.5295  0.0215 -0.2296
 5309TIP3    H137562   6.436   2.840   8.019 -0.7469  1.2182  0.0886
 5309TIP3    H237563   6.442   2.843   7.868  1.4321 -0.9842  0.0590
 5310TIP3   OH237564   3.628   6.460   8.062 -0.3144 -0.2260  0.5129
 5310TIP3    H137565   3.611   6.367   8.051  0.6247 -0.1628 -2.1557
 5310TIP3    H237566   3.720   6.465   8.086 -0.3636  0.0171  0.6544
 5311TIP3   OH237567   6.335   6.677   7.924 -0.1969  0.6405 -0.8076
 5311TIP3    H137568   6.343   6.586   7.895 -0.5305  0.2437  0.2821
 5311TIP3    H237569   6.300   6.723   7.848 -3.5057 -0.8199 -0.3696
 5312TIP3   OH237570   6.881   6.835   7.030 -0.5985 -0.1575  0.1796
 5312TIP3    H137571   6.861   6.769   7.096 -0.8562 -0.5486 -0.2798
 5312TIP3    H237572   6.804   6.835   6.972 -1.0120  1.2067  0.6922
 5313TIP3   OH237573   3.130   4.136   7.998 -0.0353  0.2596  0.5851
 5313TIP3    H137574   3.112   4.141   7.904  0.1610 -1.6202  0.4200
 5313TIP3    H237575   3.223   4.158   8.006  0.6507 -2.2054 -0.0098
 5314TIP3   OH237576   3.304   0.307   1.677  0.3820 -0.2190  0.2727
 5314TIP3    H137577   3.236   0.245   1.703 -0.5330 -0.1267 -1.7541
 5314TIP3    H237578   3.299   0.310   1.582  0.8655  2.4193  0.2411
 5315TIP3   OH237579   2.332   1.455   8.211  0.2699 -0.2400 -0.3945
 5315TIP3    H137580   2.271   1.399   8.258 -0.8880  1.1751 -0.1578
 5315TIP3    H237581   2.373   1.508   8.279 -2.0198  2.4125 -0.9015
 5316TIP3   OH237582   1.443   5.898   1.745 -0.3460  0.3443 -0.1682
 5316TIP3    H137583   1.393   5.830   1.790 -2.0882  1.8369  0.2877
 5316TIP3    H237584   1.530   5.895   1.785 -0.4664 -1.3614  0.0611
 5317TIP3   OH237585   5.522   5.824   7.213 -0.0032 -0.0932  0.5651
 5317TIP3    H137586   5.577   5.815   7.136  1.0476  0.0134  1.2762
 5317TIP3    H237587   5.539   5.913   7.244 -0.0612 -0.2866  1.1665
 5318TIP3   OH237588   0.933   4.296   1.950 -0.2890 -0.1758 -0.1718
 5318TIP3    H137589   0.854   4.256   1.986 -0.1554 -0.2073  0.0881
 5318TIP3    H237590   0.997   4.224   1.946 -0.1795 -0.0834 -0.0945
 5319TIP3   OH237591   5.600   1.537   1.276 -0.1205 -0.0936 -0.4402
 5319TIP3    H137592   5.591   1.619   1.227  0.3640  0.4522  0.3685
 5319TIP3    H237593   5.620   1.564   1.365  0.5926 -1.1018 -0.2782
 5320TIP3   OH237594   6.458   3.435   0.271  0.9345  0.1805 -0.4438
 5320TIP3    H137595   6.422   3.430   0.183 -1.8132 -1.6150  0.6596
 5320TIP3    H237596   6.528   3.370   0.273  0.7896 -0.0010 -1.1988
 5321TIP3   OH237597   1.372   2.313   8.129 -0.3029 -0.2559  0.8898
 5321TIP3    H137598   1.437   2.354   8.187  1.4376  2.0581 -2.3526
 5321TIP3    H237599   1.329   2.387   8.086 -0.1194 -1.7425 -2.0888
 5322TIP3   OH237600   3.651   0.380   1.458  0.6086  0.3220  0.4203
 5322TIP3    H137601   3.622   0.295   1.492  1.0487 -0.0400 -0.0919
 5322TIP3    H237602   3.630   0.377   1.365 -1.0694  1.5148  0.7147
 5323TIP3   OH237603   0.399   5.583   8.001 -0.0684  0.2513 -0.5706
 5323TIP3    H137604   0.333   5.576   8.071  0.0222  0.0378 -0.5063
 5323TIP3    H237605   0.352   5.557   7.922 -0.3512  1.1246 -0.6992
 5324TIP3   OH237606   6.491   1.892   7.332 -0.5944 -0.0646 -0.3735
 5324TIP3    H137607   6.402   1.913   7.303  0.0224  2.1145 -0.8948
 5324TIP3    H237608   6.488   1.901   7.427 -1.5181 -2.6521 -0.0945
 5325TIP3   OH237609   0.957   2.457   1.415 -0.3509 -0.0849 -0.3720
 5325TIP3    H137610   1.002   2.513   1.478 -1.1212  0.6575 -0.4530
 5325TIP3    H237611   0.995   2.480   1.330 -0.7296  0.4053 -0.4172
 5326TIP3   OH237612   3.060   5.011   8.324  0.4125 -0.4192 -0.4677
 5326TIP3    H137613   3.115   5.085   8.298  0.3356 -1.1291 -2.9441
 5326TIP3    H237614   3.093   4.985   8.410 -0.3732  3.2131  1.1116
 5327TIP3   OH237615   2.678   2.303   0.451 -0.3705 -0.7460  0.9293
 5327TIP3    H137616   2.755   2.287   0.396 -0.7575 -2.8425  0.9016
 5327TIP3    H237617   2.688   2.393   0.481  0.4482  0.1015 -1.6218
 5328TIP3   OH237618   5.798   6.069   0.417  0.2596  0.9602  0.7111
 5328TIP3    H137619   5.725   6.118   0.379  1.0707  2.4599  1.0311
 5328TIP3    H237620   5.822   6.006   0.348  0.4629  2.3348 -0.5241
 5329TIP3   OH237621   0.735   0.538   7.170 -0.5064  0.0072  0.2471
 5329TIP3    H137622   0.691   0.461   7.205 -0.9596  0.4240  0.6088
 5329TIP3    H237623   0.770   0.582   7.248 -1.1490  0.7142  0.1457
 5330TIP3   OH237624   2.326   6.370   7.658 -0.2367  0.4266 -0.5683
 5330TIP3    H137625   2.325   6.462   7.687  2.5883  0.3983 -0.0992
 5330TIP3    H237626   2.334   6.375   7.562  2.7892  0.8453 -0.3981
 5331TIP3   OH237627   0.116   0.407   2.570  0.0747  0.2519 -0.2235
 5331TIP3    H137628   0.190   0.423   2.628 -0.1252 -0.2090  0.1593
 5331TIP3    H237629   0.055   0.478   2.590  0.3063  0.4947 -0.3700
 5332TIP3   OH237630   3.926   5.341   6.996 -0.0387 -0.1793  1.1950
 5332TIP3    H137631   4.016   5.351   6.964  0.0430  0.4407  1.5937
 5332TIP3    H237632   3.925   5.389   7.079 -0.7268 -0.2229  1.2201
 5333TIP3   OH237633   1.710   0.443   1.490 -0.0602 -0.0994 -0.5457
 5333TIP3    H137634   1.660   0.430   1.570  0.2299  0.7179 -0.2171
 5333TIP3    H237635   1.645   0.448   1.421 -0.3316 -0.5337 -0.3214
 5334TIP3   OH237636   4.670   6.582   8.126  0.0689  0.0567  0.0216
 5334TIP3    H137637   4.735   6.652   8.132  1.4241 -0.8085 -2.9424
 5334TIP3    H237638   4.721   6.501   8.133 -1.1081 -0.6689  0.6280
 5335TIP3   OH237639   3.369   6.539   8.062 -0.3864  0.2949 -0.1799
 5335TIP3    H137640   3.461   6.518   8.076 -0.2557  0.4898 -0.7044
 5335TIP3    H237641   3.344   6.589   8.139  0.4292  1.7550 -0.8250
 5336TIP3   OH237642   5.435   2.911   7.351  0.4155  0.2006  0.0530
 5336TIP3    H137643   5.339   2.916   7.343  0.3823 -0.7048 -0.1876
 5336TIP3    H237644   5.467   2.928   7.262  0.6924  4.2008  0.7107
 5337TIP3   OH237645   6.848   5.891   6.324  0.1184  0.0613  0.2812
 5337TIP3    H137646   6.824   5.936   6.243  1.7509  0.5231  0.0034
 5337TIP3    H237647   6.778   5.912   6.385 -1.5736 -0.9719 -1.2316
 5338TIP3   OH237648   1.608   1.157   1.100  0.2671 -0.0874 -0.4108
 5338TIP3    H137649   1.628   1.177   1.192  0.4034 -0.4214 -0.3678
 5338TIP3    H237650   1.530   1.102   1.104  0.0651  0.1904 -0.5151
 5339TIP3   OH237651   0.734   5.117   8.088  0.1863 -0.3117 -0.2146
 5339TIP3    H137652   0.816   5.121   8.038 -0.0771  0.7491 -0.5814
 5339TIP3    H237653   0.731   5.200   8.136  0.0543 -0.9850  0.9816
 5340TIP3   OH237654   4.060   1.772   0.889  0.1626  0.1262 -0.1780
 5340TIP3    H137655   4.087   1.846   0.836 -0.0046 -0.1467 -0.6457
 5340TIP3    H237656   3.968   1.757   0.867 -0.7737  1.7514  2.2242
 5341TIP3   OH237657   2.790   1.155   3.077 -0.2821 -0.3595  0.2788
 5341TIP3    H137658   2.748   1.216   3.015 -0.3097 -1.5719 -0.9521
 5341TIP3    H237659   2.795   1.204   3.159  2.0326  2.2726 -1.2693
 5342TIP3   OH237660   3.772   5.398   1.589  0.7688  0.4831  0.0149
 5342TIP3    H137661   3.861   5.429   1.604  0.5949  1.5876 -1.0514
 5342TIP3    H237662   3.763   5.395   1.494 -0.0588 -0.4490  0.1039
 5343TIP3   OH237663   5.168   0.800   7.757  0.4226 -0.2875  0.1174
 5343TIP3    H137664   5.106   0.809   7.685  0.3813  0.4481  0.2398
 5343TIP3    H237665   5.148   0.714   7.795  0.8014 -0.9203 -1.0674
 5344TIP3   OH237666   1.990   3.262   1.101  0.4903 -0.4948  0.1495
 5344TIP3    H137667   1.915   3.206   1.081 -1.0379  2.1569 -2.0681
 5344TIP3    H237668   1.964   3.349   1.072  3.3098  1.1509  2.1305
 5345TIP3   OH237669   6.839   1.692   7.139 -0.5302  0.4622  0.4035
 5345TIP3    H137670   6.908   1.626   7.134 -1.4087 -0.4047 -1.5173
 5345TIP3    H237671   6.885   1.776   7.137  0.5215 -0.0853  0.8934
 5346TIP3   OH237672   1.885   3.899   0.872 -0.8091  0.0575 -0.1956
 5346TIP3    H137673   1.877   3.979   0.820  2.2257 -0.6801 -2.0135
 5346TIP3    H237674   1.870   3.828   0.810  0.4576 -0.8091  0.4471
 5347TIP3   OH237675   5.909   6.460   2.479 -0.4718 -0.0265  0.6118
 5347TIP3    H137676   5.884   6.412   2.400 -1.6839 -1.7363  1.9597
 5347TIP3    H237677   5.896   6.552   2.456  1.3900 -0.2903 -1.8772
 5348TIP3   OH237678   5.398   0.237   8.441  0.5423 -0.0232 -0.7869
 5348TIP3    H137679   5.427   0.306   8.382 -0.0559  0.9963  0.0747
 5348TIP3    H237680   5.380   0.282   8.524 -0.3059 -1.1291 -0.3414
 5349TIP3   OH237681   6.903   2.077   7.269  0.2654  0.2849  0.1275
 5349TIP3    H137682   6.905   2.094   7.175  1.3113  1.7574  0.3743
 5349TIP3    H237683   6.907   2.165   7.309 -0.8749 -0.2629  1.5420
 5350TIP3   OH237684   6.248   6.094   1.860  0.1316 -0.4713 -0.0034
 5350TIP3    H137685   6.252   6.165   1.796  1.0108 -1.3804 -0.9973
 5350TIP3    H237686   6.338   6.064   1.868 -0.2774 -1.6982  0.1411
 5351TIP3   OH237687   5.571   6.748   1.657  0.2085  0.2686  0.0513
 5351TIP3    H137688   5.596   6.828   1.703  1.7568 -0.1233 -0.0490
 5351TIP3    H237689   5.638   6.684   1.680 -0.3204 -0.6517 -0.8317
 5352TIP3   OH237690   3.086   0.461   2.475 -0.0741 -0.1319 -0.4330
 5352TIP3    H137691   3.025   0.527   2.509 -0.3666 -0.3106 -0.6035
 5352TIP3    H237692   3.121   0.417   2.553 -0.8139 -0.6058 -0.3585
 5353TIP3   OH237693   4.327   5.161   0.782 -0.3257  0.1902  0.5477
 5353TIP3    H137694   4.297   5.250   0.767 -0.4242 -0.0025 -0.4893
 5353TIP3    H237695   4.403   5.170   0.840 -0.9944  0.8493  1.3430
 5354TIP3   OH237696   0.854   2.846   2.663  0.2792 -0.2586 -0.8918
 5354TIP3    H137697   0.776   2.827   2.715  0.6935  0.3062 -0.0197
 5354TIP3    H237698   0.914   2.774   2.682  0.4621 -0.0095 -0.5028
 5355TIP3   OH237699   0.310   5.049   7.153 -0.2250  0.1230  0.3342
 5355TIP3    H137700   0.291   5.021   7.063  3.0740  0.4345 -0.6253
 5355TIP3    H237701   0.267   5.134   7.161 -3.6424 -1.4483  0.4706
 5356TIP3   OH237702   6.378   1.658   1.198  0.6125 -0.4560  0.2033
 5356TIP3    H137703   6.341   1.728   1.144 -0.1008 -1.1404 -0.2164
 5356TIP3    H237704   6.445   1.618   1.143  0.2825 -0.7812  0.0294
 5357TIP3   OH237705   5.405   3.001   7.825 -0.1090 -0.6322  0.1261
 5357TIP3    H137706   5.422   2.918   7.781 -1.0596 -1.1081  0.6218
 5357TIP3    H237707   5.472   3.006   7.893 -0.6869 -1.5151  0.7769
 5358TIP3   OH237708   0.344   6.881   1.790 -0.0375  0.1207  0.3597
 5358TIP3    H137709   0.314   6.833   1.867  0.1831 -0.8326 -0.1253
 5358TIP3    H237710   0.440   6.873   1.792  0.1010  1.7542  1.0254
 5359TIP3   OH237711   0.174   1.813   0.238 -0.2392 -0.0036 -0.1405
 5359TIP3    H137712   0.222   1.888   0.203 -1.4468  1.3716  0.9983
 5359TIP3    H237713   0.222   1.788   0.317  0.5272 -0.8829 -0.8607
 5360TIP3   OH237714   5.312   3.204   1.365 -0.0106  0.3619 -0.5506
 5360TIP3    H137715   5.381   3.246   1.416 -1.2831  0.9792  0.7346
 5360TIP3    H237716   5.332   3.228   1.274  1.4239  0.5417 -0.2145
 5361TIP3   OH237717   4.021   4.693   8.226  0.1120 -0.0825 -0.1921
 5361TIP3    H137718   3.941   4.716   8.179  0.8177  1.5028 -0.6875
 5361TIP3    H237719   3.991   4.655   8.308 -1.1381 -0.0115 -0.6037
 5362TIP3   OH237720   1.617   1.616   0.882  0.1502 -0.1250 -0.2282
 5362TIP3    H137721   1.594   1.524   0.885 -0.8012  0.1003 -0.3961
 5362TIP3    H237722   1.542   1.659   0.840  1.3682  0.4692 -1.9527
 5363TIP3   OH237723   2.251   4.215   7.445 -0.1019 -0.0144  0.2301
 5363TIP3    H137724   2.342   4.230   7.418  0.3048 -1.5203  0.6724
 5363TIP3    H237725   2.204   4.198   7.364  0.0720  0.4601  0.0268
 5364TIP3   OH237726   5.096   2.784   7.251  0.0586  0.2949  0.3032
 5364TIP3    H137727   5.098   2.698   7.209 -2.0520  0.2894  0.1484
 5364TIP3    H237728   5.007   2.794   7.284  0.7469  1.6983  1.9147
 5365TIP3   OH237729   4.098   2.810   7.723  0.2650  0.2137  0.2716
 5365TIP3    H137730   4.077   2.738   7.663  0.5257 -0.5676  1.0836
 5365TIP3    H237731   4.135   2.878   7.667  0.1420 -0.3373 -0.5004
 5366TIP3   OH237732   5.985   6.847   1.209 -0.0081  0.4787 -0.0098
 5366TIP3    H137733   6.057   6.815   1.155  0.9733 -0.5938  1.8791
 5366TIP3    H237734   5.926   6.890   1.146  0.3929 -1.8604 -2.1466
 5367TIP3   OH237735   1.802   4.756   7.429  0.1096  0.0180 -0.1239
 5367TIP3    H137736   1.826   4.674   7.385 -0.1750  0.1848 -0.5918
 5367TIP3    H237737   1.818   4.824   7.364 -0.0770  0.2912  0.1150
 5368TIP3   OH237738   1.941   0.613   1.945  0.6031  0.1044 -0.2300
 5368TIP3    H137739   1.915   0.636   1.856  0.1901 -0.8112 -0.3595
 5368TIP3    H237740   1.859   0.614   1.995  0.9424  1.4288  0.3443
 5369TIP3   OH237741   1.735   2.663   1.334 -0.1599 -0.0846 -0.3004
 5369TIP3    H137742   1.784   2.708   1.403 -1.4969  0.6091  0.2273
 5369TIP3    H237743   1.768   2.573   1.337  0.7100  0.2326  0.3773
 5370TIP3   OH237744   0.086   4.128   7.394 -0.1432  0.8526  0.2237
 5370TIP3    H137745   0.178   4.129   7.423  0.4155  2.3469 -1.4367
 5370TIP3    H237746   0.048   4.053   7.440  1.9593  0.0384  0.7745
 5371TIP3   OH237747   6.058   4.959   1.531  0.3022 -0.0454  0.0269
 5371TIP3    H137748   5.966   4.986   1.530  0.3913  0.2618 -1.2862
 5371TIP3    H237749   6.103   5.027   1.581 -0.4624 -1.2526  2.4936
 5372TIP3   OH237750   0.849   2.383   1.748  0.8788 -0.2311 -0.3228
 5372TIP3    H137751   0.942   2.377   1.725  0.7876  0.9448 -1.0658
 5372TIP3    H237752   0.840   2.470   1.787 -0.1729  0.2373 -1.5555
 5373TIP3   OH237753   5.885   0.145   1.509  0.0163  0.0859 -0.1960
 5373TIP3    H137754   5.823   0.165   1.439 -0.0343  0.8791  0.0685
 5373TIP3    H237755   5.881   0.050   1.519 -0.9998  0.1107 -0.3250
 5374TIP3   OH237756   6.477   4.767   8.458  0.6186  0.4540 -0.1914
 5374TIP3    H137757   6.386   4.778   8.485  0.9987  2.1721  0.4900
 5374TIP3    H237758   6.528   4.772   8.539  1.4147  0.8549 -0.6998
 5375TIP3   OH237759   0.948   2.861   8.317 -0.8061 -0.4335  0.3762
 5375TIP3    H137760   0.963   2.788   8.257  0.2278  1.0706 -1.3114
 5375TIP3    H237761   1.028   2.914   8.312 -2.1530  1.7176  0.1718
 5376TIP3   OH237762   0.653   2.674   2.731  0.2093  0.0984 -0.0265
 5376TIP3    H137763   0.644   2.582   2.756 -0.8083  0.1773 -0.0736
 5376TIP3    H237764   0.579   2.718   2.774  0.0231  0.6956 -0.9337
 5377TIP3   OH237765   6.622   2.325   7.874  0.0843  0.5248 -0.0738
 5377TIP3    H137766   6.622   2.395   7.940  0.3410 -1.2442  1.9214
 5377TIP3    H237767   6.600   2.246   7.924  1.1827 -1.0502 -1.9619
 5378TIP3   OH237768   3.960   2.288   7.591  0.1445 -0.2916  0.3184
 5378TIP3    H137769   4.016   2.281   7.668  0.5091 -0.4584  0.0406
 5378TIP3    H237770   3.872   2.302   7.626  0.4497  0.6359  0.7485
 5379TIP3   OH237771   4.751   2.892   1.394  0.1212  0.4758  0.5506
 5379TIP3    H137772   4.843   2.875   1.416  0.7024 -0.4634 -2.2219
 5379TIP3    H237773   4.717   2.940   1.469  1.8940 -2.1154  3.2526
 5380TIP3   OH237774   1.009   3.606   8.396 -0.3311 -0.4706 -0.0827
 5380TIP3    H137775   0.993   3.684   8.448  0.5431  0.4185 -1.0856
 5380TIP3    H237776   1.043   3.542   8.458  1.1746  0.7317  0.3953
 5381TIP3   OH237777   1.146   3.994   0.930 -0.4730 -0.1354  0.4549
 5381TIP3    H137778   1.205   3.960   0.997  1.2131  0.3174 -0.7244
 5381TIP3    H237779   1.159   3.936   0.855 -1.6178 -0.0775  0.1929
 5382TIP3   OH237780   4.366   1.876   0.655  0.0042 -0.6817 -0.2169
 5382TIP3    H137781   4.410   1.950   0.696 -2.3970 -0.3150  1.9677
 5382TIP3    H237782   4.303   1.915   0.595  0.0962 -1.0285 -0.5414
 5383TIP3   OH237783   0.020   1.155   0.631  0.3964 -0.2429 -0.2727
 5383TIP3    H137784   0.022   1.070   0.586 -0.0308 -0.6623  0.4743
 5383TIP3    H237785   0.096   1.152   0.690 -0.1737 -0.5247  0.4687
 5384TIP3   OH237786   2.629   3.001   8.157 -0.1112 -0.3745 -0.4452
 5384TIP3    H137787   2.723   2.993   8.172 -0.2059 -1.0070 -0.1432
 5384TIP3    H237788   2.621   3.059   8.082  0.5221 -0.3810 -0.5221
 5385TIP3   OH237789   3.081   0.477   0.815 -0.2929 -0.1133 -0.3878
 5385TIP3    H137790   3.170   0.443   0.824 -0.8471 -2.4574 -2.5767
 5385TIP3    H237791   3.073   0.502   0.723 -2.2782 -1.2778 -0.5951
 5386TIP3   OH237792   0.019   3.053   7.080 -0.1361  0.3013 -0.1303
 5386TIP3    H137793  -0.022   3.057   7.166 -0.2872  2.6892 -0.2565
 5386TIP3    H237794   0.112   3.038   7.099 -0.5291 -2.0612  0.2680
 5387TIP3   OH237795   1.188   6.713   7.214  0.3796 -0.5157 -0.3970
 5387TIP3    H137796   1.117   6.775   7.233  0.9458 -0.2774  1.0598
 5387TIP3    H237797   1.144   6.631   7.194 -0.3456  0.0599 -1.2566
 5388TIP3   OH237798   4.098   0.991   0.213  0.0562  0.5352 -0.3302
 5388TIP3    H137799   4.041   0.967   0.140 -0.5774  1.0386 -0.0063
 5388TIP3    H237800   4.162   0.919   0.217 -0.4780  0.0188 -0.7706
 5389TIP3   OH237801   3.820   3.799   7.989 -0.0759 -0.1421  0.4107
 5389TIP3    H137802   3.822   3.753   7.905 -1.9019 -0.7741  0.6625
 5389TIP3    H237803   3.807   3.730   8.054 -1.3675  0.5790  0.9472
 5390TIP3   OH237804   6.201   5.117   1.700  0.5342  0.1737  0.6079
 5390TIP3    H137805   6.161   5.184   1.757  0.3385 -0.1788  0.8912
 5390TIP3    H237806   6.279   5.089   1.748 -0.2183 -0.9105  1.2399
 5391TIP3   OH237807   4.097   2.607   2.584 -0.4263 -0.4114 -0.5448
 5391TIP3    H137808   4.116   2.678   2.646 -0.6065 -1.3999  0.6868
 5391TIP3    H237809   4.010   2.576   2.609 -0.3645 -1.0462 -1.0895
 5392TIP3   OH237810   4.898   0.035   1.866  0.2268  0.2664 -0.2156
 5392TIP3    H137811   4.981   0.077   1.888 -0.3687  1.5426 -0.3198
 5392TIP3    H237812   4.880   0.061   1.776  0.2925 -1.0065 -0.6207
 5393TIP3   OH237813   6.555   5.958   2.581  0.0366  0.4454  0.4989
 5393TIP3    H137814   6.634   5.955   2.635  0.3085 -1.1456  0.0615
 5393TIP3    H237815   6.539   6.052   2.567  0.0288  0.9273  3.1860
 5394TIP3   OH237816   3.136   5.946   1.046  0.7088 -0.0687  0.2937
 5394TIP3    H137817   3.195   5.892   1.099  0.0092  0.4298  1.6365
 5394TIP3    H237818   3.048   5.915   1.068  0.3954  0.1363 -0.6162
 5395TIP3   OH237819   3.935   0.255   2.954  0.3574  0.0388 -0.5425
 5395TIP3    H137820   3.890   0.234   2.872  0.0877 -0.2194 -0.3338
 5395TIP3    H237821   3.874   0.227   3.023  0.6346  0.1303 -0.2537
 5396TIP3   OH237822   5.607   3.442   1.276 -0.0503 -0.1608  0.3776
 5396TIP3    H137823   5.584   3.370   1.334  1.6699 -0.3845  0.8444
 5396TIP3    H237824   5.690   3.415   1.237 -0.3304  0.7447 -0.9137
 5397TIP3   OH237825   0.268   2.099   2.833  0.3538  0.6707 -0.3938
 5397TIP3    H137826   0.314   2.017   2.815 -1.2706 -0.9991  2.3014
 5397TIP3    H237827   0.175   2.076   2.831 -0.1317  2.2752  1.0623
 5398TIP3   OH237828   5.572   0.639   7.071  0.5440  0.3070  0.8742
 5398TIP3    H137829   5.634   0.670   7.136  0.0758 -4.0280  3.8279
 5398TIP3    H237830   5.487   0.668   7.103  0.5779  2.0989 -0.5064
 5399TIP3   OH237831   2.796   2.605   7.432 -0.5736 -0.1189 -0.1119
 5399TIP3    H137832   2.775   2.631   7.521 -0.0629 -0.3720  0.0807
 5399TIP3    H237833   2.775   2.512   7.428 -3.0239  0.3807 -0.9822
 5400TIP3   OH237834   0.803   1.874   6.867 -0.1090 -0.2213  0.0923
 5400TIP3    H137835   0.842   1.941   6.923  1.0550  0.2074 -1.1516
 5400TIP3    H237836   0.784   1.801   6.925  1.3574  0.0792  0.9952
 5401TIP3   OH237837   2.399   1.318   1.947  0.0219 -0.5234  0.0920
 5401TIP3    H137838   2.401   1.396   1.891 -0.3814 -1.4586 -1.2871
 5401TIP3    H237839   2.445   1.344   2.026  0.1913  1.0116 -0.4780
 5402TIP3   OH237840   5.029   4.416   1.087 -0.5806 -0.1195 -0.5363
 5402TIP3    H137841   5.063   4.483   1.146  0.8244 -1.1505 -0.1273
 5402TIP3    H237842   5.103   4.392   1.032 -1.3455 -0.5983 -1.3958
 5403TIP3   OH237843   2.219   5.245   1.734 -0.0860  0.6914  0.2914
 5403TIP3    H137844   2.249   5.154   1.741 -1.0886  0.4522  1.9009
 5403TIP3    H237845   2.277   5.294   1.791  0.9681  1.2412 -1.1895
 5404TIP3   OH237846   6.590   6.270   8.340 -0.0940 -0.7286 -0.2607
 5404TIP3    H137847   6.637   6.331   8.283  2.4029 -1.0349  1.3189
 5404TIP3    H237848   6.563   6.323   8.414  0.6534 -1.1875  0.3529
 5405TIP3   OH237849   0.830   5.456   7.248  0.1201  0.6242 -0.3069
 5405TIP3    H137850   0.920   5.488   7.250  1.5923 -2.9853 -0.2204
 5405TIP3    H237851   0.809   5.437   7.339 -0.7918  1.5221 -0.3169
 5406TIP3   OH237852   4.056   6.428   1.959 -0.1011  0.0082  0.2033
 5406TIP3    H137853   4.127   6.489   1.942 -1.1864  1.5379  0.8717
 5406TIP3    H237854   4.030   6.397   1.872  0.2310  0.8062 -0.1908
 5407TIP3   OH237855   2.056   2.165   8.396  0.4667  0.1726 -0.4898
 5407TIP3    H137856   2.002   2.173   8.475 -0.2211 -2.1602 -0.6337
 5407TIP3    H237857   1.993   2.163   8.324  0.9567  0.4509 -0.9339
 5408TIP3   OH237858   6.510   5.655   1.608 -0.3308 -0.0395 -0.0449
 5408TIP3    H137859   6.542   5.722   1.547 -2.2221  0.7100 -0.3006
 5408TIP3    H237860   6.520   5.695   1.694  1.0186 -0.5227  0.0343
 5409TIP3   OH237861   6.441   0.442   1.283  0.2142 -0.0192 -0.5357
 5409TIP3    H137862   6.415   0.522   1.329 -0.0772 -0.2560 -0.2857
 5409TIP3    H237863   6.519   0.412   1.329 -1.2186 -1.3636  1.1150
 5410TIP3   OH237864   0.907   4.038   0.536  0.1509  0.1535  0.5654
 5410TIP3    H137865   0.918   4.097   0.461  0.6929 -1.1460 -0.4073
 5410TIP3    H237866   0.973   4.067   0.599 -0.8455  1.7771  0.9187
 5411TIP3   OH237867   1.022   3.255   2.011  0.0250 -0.4535  0.2316
 5411TIP3    H137868   0.928   3.238   2.012  0.1629 -1.2869 -0.1555
 5411TIP3    H237869   1.045   3.266   2.104 -0.6126  0.7951  0.2673
 5412TIP3   OH237870   6.224   4.520   0.914 -0.3667  0.1171 -0.5892
 5412TIP3    H137871   6.296   4.515   0.851  1.6901 -1.6171  1.6444
 5412TIP3    H237872   6.156   4.463   0.878  0.0151  0.5527 -2.0400
 5413TIP3   OH237873   5.955   5.946   8.143 -0.1844  0.0101  0.5120
 5413TIP3    H137874   5.998   6.004   8.081 -0.2295  0.0179  0.4888
 5413TIP3    H237875   6.028   5.903   8.190 -0.0420 -2.2857 -1.5989
 5414TIP3   OH237876   0.871   0.576   8.201 -0.3511 -0.0114 -0.1378
 5414TIP3    H137877   0.794   0.552   8.253 -1.3856  3.4583  0.2513
 5414TIP3    H237878   0.946   0.554   8.256 -1.3754  2.1117  2.3098
 5415TIP3   OH237879   1.819   1.040   0.960  0.1386 -0.3092 -0.0278
 5415TIP3    H137880   1.760   1.091   1.015 -0.0041  0.8473 -1.2310
 5415TIP3    H237881   1.779   0.953   0.957  0.4868 -0.6196  2.1951
 5416TIP3   OH237882   1.921   6.372   8.453 -0.1548  0.7172  0.3247
 5416TIP3    H137883   1.992   6.408   8.507  0.5092 -1.7381  1.2369
 5416TIP3    H237884   1.948   6.391   8.363  0.9995  0.9821  0.7035
 5417TIP3   OH237885   2.793   2.036   1.057  0.1829  0.2727  0.0231
 5417TIP3    H137886   2.783   1.945   1.029  0.1007 -0.0631  1.1092
 5417TIP3    H237887   2.745   2.041   1.140  1.1113  1.0293  0.5257
 5418TIP3   OH237888   0.661   0.045   7.845  0.1040 -0.1282  0.0197
 5418TIP3    H137889   0.692   0.062   7.934  0.8506  0.6257 -0.3768
 5418TIP3    H237890   0.714   0.102   7.789 -1.6199  0.7940 -0.7501
 5419TIP3   OH237891   6.331   3.058   0.926  0.4904  0.0087  0.4216
 5419TIP3    H137892   6.236   3.062   0.913  0.6270  0.9998 -0.3969
 5419TIP3    H237893   6.355   3.147   0.951  1.4003  0.1349 -0.8374
 5420TIP3   OH237894   2.896   1.348   2.089  0.0578  0.4720  0.2998
 5420TIP3    H137895   2.952   1.344   2.166 -1.5500 -0.6771  1.4948
 5420TIP3    H237896   2.817   1.299   2.114 -0.3463 -0.3304 -2.2356
 5421TIP3   OH237897   4.754   1.167   7.324 -0.2844  0.2475 -0.4304
 5421TIP3    H137898   4.690   1.208   7.383 -1.7057  0.4304 -2.0096
 5421TIP3    H237899   4.725   1.193   7.236  0.4560 -1.8128 -1.3305
 5422TIP3   OH237900   2.505   2.181   0.951  0.5150 -0.2147 -0.5613
 5422TIP3    H137901   2.431   2.241   0.962  1.7300  1.2255  0.2406
 5422TIP3    H237902   2.466   2.099   0.921 -1.6027 -0.0880  1.5777
 5423TIP3   OH237903   0.286   3.411   0.349  0.1926 -0.1380 -0.6204
 5423TIP3    H137904   0.304   3.497   0.311  1.2672 -0.4508 -0.8618
 5423TIP3    H237905   0.192   3.411   0.366  0.1251  0.9535 -0.9387
 5424TIP3   OH237906   2.548   4.415   1.266  0.3092 -0.0177  0.6308
 5424TIP3    H137907   2.588   4.367   1.339  1.3886 -0.2272 -0.0817
 5424TIP3    H237908   2.465   4.447   1.302  0.1128 -1.3878  1.4912
 5425TIP3   OH237909   6.421   4.714   1.364  0.0945 -0.0355  0.7326
 5425TIP3    H137910   6.394   4.778   1.430 -0.3741  0.8789 -0.3107
 5425TIP3    H237911   6.408   4.629   1.406 -2.7280  0.3978  0.9544
 5426TIP3   OH237912   3.091   1.618   1.448 -0.3807  0.6188 -0.0331
 5426TIP3    H137913   3.140   1.610   1.529 -0.5211  0.3827  0.0284
 5426TIP3    H237914   3.009   1.571   1.464  0.1496 -0.6126 -0.7709
 5427TIP3   OH237915   0.914   5.467   2.813 -0.3153 -0.5161 -0.4212
 5427TIP3    H137916   0.852   5.518   2.866  1.9751 -1.5257  3.6442
 5427TIP3    H237917   0.866   5.386   2.794 -1.4477  0.1424 -0.4942
 5428TIP3   OH237918   4.948   4.016   1.209 -0.1257 -0.5666  0.3448
 5428TIP3    H137919   4.947   4.061   1.294 -0.8077  1.6978 -0.7883
 5428TIP3    H237920   4.962   4.086   1.145  3.6286 -2.5677 -1.3047
 5429TIP3   OH237921   2.629   5.524   8.340 -0.0838  0.2284 -1.0122
 5429TIP3    H137922   2.682   5.480   8.273  0.6920  0.7202 -0.7451
 5429TIP3    H237923   2.658   5.615   8.336 -0.6057  0.4126 -0.5520
 5430TIP3   OH237924   4.001   6.131   2.609 -0.3344 -0.0679  0.0719
 5430TIP3    H137925   3.981   6.038   2.615  1.7569 -0.6389 -0.8082
 5430TIP3    H237926   3.968   6.168   2.691 -0.9907 -1.6152  0.5518
 5431TIP3   OH237927   5.599   4.958   8.178 -0.5640  0.2563  0.0311
 5431TIP3    H137928   5.562   5.042   8.204 -0.7676  0.5924 -1.2826
 5431TIP3    H237929   5.644   4.975   8.095  1.0077 -0.5325  0.6691
 5432TIP3   OH237930   2.703   6.545   7.126  0.1904  0.3317 -0.3598
 5432TIP3    H137931   2.793   6.521   7.103  0.1673  0.2337 -0.3507
 5432TIP3    H237932   2.652   6.466   7.107  0.2503  0.0746  0.5079
 5433TIP3   OH237933   2.338   3.993   8.144 -0.3484  0.4294 -0.7287
 5433TIP3    H137934   2.284   4.001   8.065 -0.8467 -0.3239 -0.4690
 5433TIP3    H237935   2.277   4.004   8.217  0.0616  0.8372 -0.4377
 5434TIP3   OH237936   4.542   2.699   1.321 -0.4633  0.3179 -0.2413
 5434TIP3    H137937   4.598   2.765   1.362 -0.0799  0.1056 -0.4223
 5434TIP3    H237938   4.566   2.617   1.364 -1.8205  0.4671  0.8869
 5435TIP3   OH237939   2.472   5.511   0.053 -0.0708  0.1640 -0.2373
 5435TIP3    H137940   2.443   5.601   0.034 -1.2556 -0.1928 -0.2199
 5435TIP3    H237941   2.523   5.486  -0.023  2.3881  1.6901  0.7976
 5436TIP3   OH237942   0.902   2.915   0.199  0.2288  0.1577  0.1961
 5436TIP3    H137943   0.994   2.907   0.172 -0.1927  0.5891 -1.4903
 5436TIP3    H237944   0.852   2.901   0.119 -1.2734 -1.6296  1.3754
 5437TIP3   OH237945   2.754   0.218   0.664  0.0105 -0.1765  0.1777
 5437TIP3    H137946   2.797   0.300   0.689 -0.9617 -0.1060  1.7514
 5437TIP3    H237947   2.697   0.197   0.738 -1.4188 -1.1338 -1.1341
 5438TIP3   OH237948   4.621   2.565   1.041 -0.1274 -0.0238 -0.0269
 5438TIP3    H137949   4.553   2.572   1.107 -1.0476 -2.1351 -0.6451
 5438TIP3    H237950   4.584   2.506   0.975  1.4180  0.6299 -1.5590
 5439TIP3   OH237951   3.112   5.825   0.027 -0.2795 -0.0894 -0.5450
 5439TIP3    H137952   3.154   5.876  -0.042  0.7280 -0.4294 -0.2090
 5439TIP3    H237953   3.036   5.877   0.053  1.3820  1.8992  0.6391
 5440TIP3   OH237954   4.470   2.247   7.688  0.0514  0.6849  0.0517
 5440TIP3    H137955   4.562   2.273   7.687 -0.2387  1.7583 -0.1295
 5440TIP3    H237956   4.467   2.171   7.745  0.7645  1.7797  1.6077
 5441TIP3   OH237957   3.553   2.095   0.681  0.5343 -0.3845 -0.3004
 5441TIP3    H137958   3.565   2.184   0.714 -0.7369  0.1560 -1.2325
 5441TIP3    H237959   3.532   2.106   0.588 -0.8870 -1.5584 -0.1562
 5442TIP3   OH237960   3.857   6.145   1.546  0.2399 -0.1941  0.7340
 5442TIP3    H137961   3.906   6.064   1.537 -0.2725 -0.4294 -0.0519
 5442TIP3    H237962   3.786   6.124   1.607 -0.9816 -0.8964 -0.8439
 5443TIP3   OH237963   0.681   0.378   7.517 -0.1162 -0.3350  0.3116
 5443TIP3    H137964   0.607   0.437   7.507 -0.8239 -1.1788  0.4412
 5443TIP3    H237965   0.726   0.409   7.596 -1.3543 -0.8487  1.2635
 5444TIP3   OH237966   3.442   0.573   1.651  0.8816  0.2720 -0.3825
 5444TIP3    H137967   3.424   0.604   1.740 -2.6069  1.3961 -1.3295
 5444TIP3    H237968   3.399   0.488   1.646 -0.3302  0.9181 -1.3936
 5445TIP3   OH237969   1.021   3.258   2.302 -0.2276 -0.6540 -0.0840
 5445TIP3    H137970   1.061   3.238   2.387  0.0106 -1.6383 -0.4057
 5445TIP3    H237971   1.005   3.352   2.304 -0.1244 -0.6443  1.0069
 5446TIP3   OH237972   5.021   3.680   2.444  0.3651  0.4432  0.0206
 5446TIP3    H137973   4.956   3.643   2.505  1.0465 -1.4509 -0.3258
 5446TIP3    H237974   5.103   3.636   2.467  1.3464  2.0860 -0.1831
 5447TIP3   OH237975   6.232   3.396   2.462  0.2000  0.0776  0.4302
 5447TIP3    H137976   6.140   3.409   2.485  0.5590 -0.1543  2.2055
 5447TIP3    H237977   6.256   3.313   2.505  1.2005  0.0727 -0.1060
 5448TIP3   OH237978   5.501   1.838   6.675 -0.2456 -0.1511 -0.1523
 5448TIP3    H137979   5.592   1.860   6.655  0.3109 -1.3548  0.8516
 5448TIP3    H237980   5.460   1.822   6.590  0.5872  0.0411 -0.5988
 5449TIP3   OH237981   6.556   4.390   1.425  0.3275  0.2146  0.0133
 5449TIP3    H137982   6.473   4.410   1.381  1.0994  0.0209 -1.5940
 5449TIP3    H237983   6.532   4.378   1.517 -1.5313 -0.5371 -0.5312
 5450TIP3   OH237984   3.206   4.479   7.610  0.5981 -0.2767 -0.3243
 5450TIP3    H137985   3.229   4.445   7.697 -2.6031  1.4557  1.3854
 5450TIP3    H237986   3.131   4.427   7.583 -0.8920  1.7067 -0.1915
 5451TIP3   OH237987   0.353   2.695   7.558 -0.7497 -0.0734 -0.2645
 5451TIP3    H137988   0.329   2.667   7.646 -0.5174  0.2755 -0.0866
 5451TIP3    H237989   0.374   2.788   7.567  0.8592 -0.3965 -0.3670
 5452TIP3   OH237990   2.753   1.759   1.086  0.1940  0.4081 -0.1795
 5452TIP3    H137991   2.671   1.711   1.099 -0.2162  1.2831  0.5405
 5452TIP3    H237992   2.784   1.779   1.175  0.8135  0.7098 -0.4550
 5453TIP3   OH237993   4.081   3.264   1.120 -0.2687  0.4005  0.2849
 5453TIP3    H137994   4.133   3.335   1.157  0.4280 -0.3645  0.8129
 5453TIP3    H237995   4.139   3.189   1.121 -0.8477 -0.0773 -0.6924
 5454TIP3   OH237996   3.804   2.081   1.871 -0.0925  0.3928  0.3815
 5454TIP3    H137997   3.869   2.100   1.803 -0.8714 -0.0341 -0.5077
 5454TIP3    H237998   3.805   1.985   1.878 -0.5987  0.3873  0.3881
 5455TIP3   OH237999   2.040   5.491   2.343 -0.1107 -0.0380  0.0412
 5455TIP3    H138000   1.961   5.524   2.300  0.3992 -0.0169 -0.9134
 5455TIP3    H238001   2.103   5.479   2.272  0.8071  0.1162  0.8027
 5456TIP3   OH238002   5.372   5.459   8.405  0.2123 -0.1844 -0.6682
 5456TIP3    H138003   5.419   5.528   8.358  0.0909 -0.5171 -1.2856
 5456TIP3    H238004   5.283   5.492   8.412 -0.0809 -0.6964 -1.8356
 5457TIP3   OH238005   4.723   2.495   2.398  0.1664 -0.2670 -0.5016
 5457TIP3    H138006   4.777   2.573   2.417 -1.1657  0.4947  0.3078
 5457TIP3    H238007   4.686   2.471   2.483 -1.2998 -0.3480 -1.1473
 5458TIP3   OH238008   0.693   4.738   2.529  0.1745  0.3107 -0.2827
 5458TIP3    H138009   0.700   4.832   2.516  1.3636  0.1156 -1.2434
 5458TIP3    H238010   0.782   4.705   2.517 -0.4306 -1.0861 -1.3249
 5459TIP3   OH238011   2.362   1.798   2.717 -0.1917  0.1937  0.7621
 5459TIP3    H138012   2.296   1.759   2.775  0.5653  1.0967  2.3066
 5459TIP3    H238013   2.431   1.829   2.777  0.6934  1.0570 -0.6483
 5460TIP3   OH238014   5.874   5.354   8.057  0.2576  0.3003 -0.2591
 5460TIP3    H138015   5.959   5.394   8.073  0.5763  0.4684 -2.1880
 5460TIP3    H238016   5.888   5.295   7.983 -0.9935 -0.7698  0.3168
 5461TIP3   OH238017   6.745   2.627   2.019 -0.0996  0.1380 -0.1653
 5461TIP3    H138018   6.812   2.634   1.950 -0.4195 -1.8239 -0.7327
 5461TIP3    H238019   6.669   2.591   1.974 -0.8727  0.4361  0.8874
 5462TIP3   OH238020   4.721   1.449   1.464  0.3075  0.2069  0.5782
 5462TIP3    H138021   4.802   1.500   1.458 -0.3915  1.1393 -2.3177
 5462TIP3    H238022   4.716   1.401   1.382 -1.6114 -0.5730  1.0966
 5463TIP3   OH238023   1.834   6.394   7.716  0.5670  0.0068 -0.4377
 5463TIP3    H138024   1.807   6.485   7.708  1.9392  0.5749  0.9129
 5463TIP3    H238025   1.881   6.375   7.635  2.1464  1.2002  0.1631
 5464TIP3   OH238026   2.580   2.428   1.103  0.1487  0.2406  0.1424
 5464TIP3    H138027   2.600   2.349   1.053 -0.7326  0.5654 -0.7584
 5464TIP3    H238028   2.546   2.395   1.187 -1.8414 -0.4236 -0.8482
 5465TIP3   OH238029   4.237   0.862   7.542  0.3742  0.1402  0.4603
 5465TIP3    H138030   4.215   0.913   7.465  0.1741  1.6806  1.5019
 5465TIP3    H238031   4.158   0.864   7.596 -0.4565 -3.1444 -0.3783
 5466TIP3   OH238032   0.177   6.848   0.027  0.7840  0.2219  0.0576
 5466TIP3    H138033   0.088   6.818   0.049 -1.0199  4.0846 -1.0465
 5466TIP3    H238034   0.174   6.867  -0.066  2.4263  1.4058  0.1964
 5467TIP3   OH238035   4.478   1.215   1.284  0.0103  0.1319 -0.3783
 5467TIP3    H138036   4.551   1.185   1.339 -0.6968  2.3597  1.9496
 5467TIP3    H238037   4.417   1.141   1.283  0.4833 -0.3180  1.1019
 5468TIP3   OH238038   4.593   0.728   8.067 -0.1847 -0.3478 -0.2788
 5468TIP3    H138039   4.620   0.740   8.158 -3.1386 -0.4994  0.7252
 5468TIP3    H238040   4.546   0.645   8.067 -0.6136 -0.1347 -1.8424
 5469TIP3   OH238041   0.585   4.318   0.991 -0.3113 -0.0164 -0.0861
 5469TIP3    H138042   0.506   4.317   1.045  0.4975  2.3030  1.3152
 5469TIP3    H238043   0.555   4.346   0.905 -1.3446 -1.8260 -0.3660
 5470TIP3   OH238044   5.185   1.968   7.312 -0.1744  0.1974 -0.3985
 5470TIP3    H138045   5.100   1.931   7.287 -0.3526  1.0978 -1.1625
 5470TIP3    H238046   5.205   2.031   7.243 -1.5705  4.2447  2.5166
 5471TIP3   OH238047   5.622   5.044   7.903 -0.0367  0.8005  0.2564
 5471TIP3    H138048   5.590   4.972   7.850  0.0668 -0.3980  1.7361
 5471TIP3    H238049   5.604   5.122   7.852 -0.2838 -0.2603 -1.3399
 5472TIP3   OH238050   3.826   2.434   1.723  0.0406  0.1624 -0.2023
 5472TIP3    H138051   3.782   2.413   1.805  1.0400 -2.7865 -0.2712
 5472TIP3    H238052   3.779   2.381   1.658  0.7493  0.6145 -1.0931
 5473TIP3   OH238053   0.994   2.644   6.504 -0.2599  0.1208  0.2237
 5473TIP3    H138054   0.930   2.715   6.496  1.4526  1.7994  0.6731
 5473TIP3    H238055   0.994   2.622   6.597 -1.1870 -0.9120  0.0038
 5474TIP3   OH238056   4.174   4.947   1.008  0.3328 -0.4504 -0.1528
 5474TIP3    H138057   4.175   5.026   1.062 -1.4001 -0.9612  0.7026
 5474TIP3    H238058   4.265   4.935   0.983  0.6371  1.8466 -0.3803
 5475TIP3   OH238059   1.659   0.116   7.880  0.4466 -0.2241 -0.0993
 5475TIP3    H138060   1.661   0.211   7.864 -0.6542  0.2202  1.9905
 5475TIP3    H238061   1.717   0.104   7.955  0.1787 -1.1228 -0.0323
 5476TIP3   OH238062   3.559   1.156   0.825 -0.0683  0.1575  0.1406
 5476TIP3    H138063   3.468   1.139   0.802 -0.3545  0.6159  0.8831
 5476TIP3    H238064   3.557   1.241   0.870  0.8227  0.5155 -0.4579
 5477TIP3   OH238065   0.386   3.727   7.453  0.0354  0.6215 -0.1514
 5477TIP3    H138066   0.413   3.785   7.524  1.1654 -0.6736  0.5400
 5477TIP3    H238067   0.308   3.768   7.417 -1.1476  0.8753  2.4393
 5478TIP3   OH238068   2.929   1.822   1.324 -0.6831 -0.0627  0.8615
 5478TIP3    H138069   2.988   1.752   1.350 -0.8851 -0.6806 -0.2738
 5478TIP3    H238070   2.927   1.882   1.399 -0.1547 -1.0351  1.6664
 5479TIP3   OH238071   2.200   0.754   7.928  0.4534  0.3384  0.2070
 5479TIP3    H138072   2.223   0.829   7.983  0.9776  0.7796 -0.6034
 5479TIP3    H238073   2.276   0.696   7.934 -1.0764 -1.6936  3.3157
 5480TIP3   OH238074   6.835   2.471   0.218 -0.4177 -0.1316  0.4866
 5480TIP3    H138075   6.900   2.536   0.191 -0.2534 -0.5771 -0.2316
 5480TIP3    H238076   6.753   2.519   0.221  0.2420  1.0595  3.8217
 5481TIP3   OH238077   1.583   1.727   8.114  0.2915  0.0711 -0.1842
 5481TIP3    H138078   1.490   1.711   8.103 -0.1355  0.3988  2.4100
 5481TIP3    H238079   1.592   1.822   8.110  0.5201  0.0411 -0.4075
 5482TIP3   OH238080   3.609   5.635   2.296 -0.3872  0.0324  0.7091
 5482TIP3    H138081   3.673   5.705   2.281 -0.8039  0.0265 -1.4164
 5482TIP3    H238082   3.551   5.670   2.364  1.9830 -0.1118  2.9970
 5483TIP3   OH238083   4.595   6.410   7.359 -0.0182  0.4380  0.2161
 5483TIP3    H138084   4.633   6.367   7.283 -1.0907  0.5205 -0.3826
 5483TIP3    H238085   4.666   6.414   7.423 -0.1159 -3.1952  0.7480
 5484TIP3   OH238086   4.036   4.737   1.271  0.4166 -0.4953 -0.3495
 5484TIP3    H138087   4.099   4.772   1.334 -1.9136  0.0483  1.8440
 5484TIP3    H238088   4.089   4.685   1.211  3.2936  2.0130 -0.2697
 5485TIP3   OH238089   3.418   0.106   1.044  0.4567 -0.0153  0.0676
 5485TIP3    H138090   3.447   0.057   1.121  1.9636  0.2256 -0.3083
 5485TIP3    H238091   3.480   0.081   0.976 -0.3526  0.4161 -0.8416
 5486TIP3   OH238092   0.264   6.159   2.746 -0.4724 -0.0765  0.0115
 5486TIP3    H138093   0.324   6.138   2.818  0.1122 -0.0145 -0.4515
 5486TIP3    H238094   0.318   6.155   2.667 -0.8224  1.0703 -0.3115
 5487TIP3   OH238095   6.141   2.546   1.352 -0.1338 -0.1943 -0.4718
 5487TIP3    H138096   6.123   2.455   1.327 -0.1525  0.0575 -1.4088
 5487TIP3    H238097   6.056   2.582   1.376  0.3044 -1.5694  4.0930
 5488TIP3   OH238098   4.409   0.415   7.685  0.3640  0.6423 -0.4292
 5488TIP3    H138099   4.476   0.482   7.699  1.7335 -0.6436 -0.5710
 5488TIP3    H238100   4.352   0.451   7.617  1.9417  1.0717 -1.5806
 5489TIP3   OH238101   3.708   0.712   8.376 -0.3970 -0.0617 -1.0772
 5489TIP3    H138102   3.722   0.755   8.291  0.7501 -0.9535 -1.3593
 5489TIP3    H238103   3.619   0.676   8.370 -0.8155  0.9755 -1.3986
 5490TIP3   OH238104   0.248   3.760   8.129  0.5225 -0.3610  0.3530
 5490TIP3    H138105   0.221   3.835   8.076 -2.1845  0.8716  3.2059
 5490TIP3    H238106   0.214   3.684   8.082 -3.5937  0.8130  1.0640
 5491TIP3   OH238107   5.118   2.341   0.258 -0.7556 -0.0724 -0.0030
 5491TIP3    H138108   5.192   2.305   0.306 -1.0590  0.8534  1.1983
 5491TIP3    H238109   5.155   2.410   0.204 -0.6154 -0.1961 -0.0652
 5492TIP3   OH238110   1.175   3.203   2.509  0.1252  0.4211 -0.5198
 5492TIP3    H138111   1.193   3.281   2.562 -1.0108  0.7278 -0.5588
 5492TIP3    H238112   1.206   3.130   2.562 -0.1463  0.7965  0.1664
 5493TIP3   OH238113   0.795   5.595   7.000 -0.0060  0.0515 -0.1660
 5493TIP3    H138114   0.828   5.684   6.990 -0.4193  0.2873  0.5110
 5493TIP3    H238115   0.794   5.580   7.095 -3.6088  0.7717  0.0476
 5494TIP3   OH238116   0.377   0.024   7.138  0.0628  0.6267 -0.5291
 5494TIP3    H138117   0.300   0.077   7.161  0.7983  0.2900  3.4006
 5494TIP3    H238118   0.340  -0.055   7.099 -1.9190 -0.4334  3.0563
 5495TIP3   OH238119   1.493   1.486   1.833  0.0025 -0.1574  0.1717
 5495TIP3    H138120   1.422   1.515   1.889  0.2161  0.3638  0.1792
 5495TIP3    H238121   1.572   1.518   1.876  0.1058  1.2779 -1.0111
 5496TIP3   OH238122   6.166   1.348   1.856 -0.4076 -0.9806  0.3376
 5496TIP3    H138123   6.158   1.422   1.796 -0.0966 -1.3498 -0.1628
 5496TIP3    H238124   6.080   1.306   1.853  0.1953 -2.2124 -1.4648
 5497TIP3   OH238125   2.064   2.794   0.421  0.4158  0.1309  0.2061
 5497TIP3    H138126   2.104   2.786   0.507  0.7475 -0.0638  0.0391
 5497TIP3    H238127   2.051   2.888   0.409  2.3088  0.3744 -0.3759
 5498TIP3   OH238128   6.100   3.180   0.579  0.2993  0.5225  0.6832
 5498TIP3    H138129   6.036   3.188   0.650  0.8766  1.6001  1.1054
 5498TIP3    H238130   6.098   3.265   0.535  2.0285  0.8670  1.2226
 5499TIP3   OH238131   1.613   1.317   0.489  0.1557 -0.5296 -0.7748
 5499TIP3    H138132   1.578   1.396   0.448 -1.7744 -0.4425  0.9164
 5499TIP3    H238133   1.578   1.245   0.437 -2.2706 -0.4230  0.5977
 5500TIP3   OH238134   2.439   2.707   2.580 -0.0380 -0.2487  0.4813
 5500TIP3    H138135   2.518   2.693   2.632 -0.1918 -1.6264  0.3878
 5500TIP3    H238136   2.391   2.775   2.626  0.4150 -0.5853  1.4720
 5501TIP3   OH238137   5.712   5.652   6.810  0.0933  0.2724  0.8487
 5501TIP3    H138138   5.651   5.718   6.778 -1.8006 -1.6843  0.1780
 5501TIP3    H238139   5.778   5.645   6.742 -0.9001 -0.0247 -0.1121
 5502TIP3   OH238140   1.488   2.120   8.477  0.5170 -0.4584 -0.4497
 5502TIP3    H138141   1.528   2.207   8.476  0.1655 -0.2838 -2.2068
 5502TIP3    H238142   1.446   2.114   8.563 -0.2842  1.4919 -0.6618
 5503TIP3   OH238143   4.314   3.117   1.158  0.4746  0.5100 -0.2656
 5503TIP3    H138144   4.359   3.079   1.082  0.9579 -1.1291  0.7630
 5503TIP3    H238145   4.374   3.100   1.231 -0.1761  1.6472  0.5529
 5504TIP3   OH238146   1.523   2.029   0.992  0.2982  0.3009  0.2115
 5504TIP3    H138147   1.508   2.118   1.025  1.1212  0.0563  1.3301
 5504TIP3    H238148   1.601   1.999   1.040  0.3475 -0.8294 -0.5361
 5505TIP3   OH238149   3.448   4.513   0.542 -0.0453  0.2283 -0.2752
 5505TIP3    H138150   3.402   4.593   0.516 -0.4579  0.3973  0.9198
 5505TIP3    H238151   3.415   4.446   0.482 -0.0230  0.8590 -1.0043
 5506TIP3   OH238152   5.825   4.916   0.702  0.2340 -0.3216 -0.4725
 5506TIP3    H138153   5.824   4.988   0.765 -2.1581  0.5378 -1.3539
 5506TIP3    H238154   5.903   4.932   0.648  1.4446 -0.1975  1.2529
 5507TIP3   OH238155   0.647   2.542   8.139 -0.4973  0.4988 -0.4447
 5507TIP3    H138156   0.647   2.488   8.060 -0.5175  2.2502 -1.6994
 5507TIP3    H238157   0.572   2.511   8.189  0.2508 -1.4948 -0.4552
 5508TIP3   OH238158   6.054   1.038   1.644 -0.2409 -0.2826  0.6784
 5508TIP3    H138159   6.078   0.953   1.681 -0.5265 -1.0004 -0.7266
 5508TIP3    H238160   6.024   1.018   1.555  2.6592  1.5983 -0.8551
 5509TIP3   OH238161   4.600   6.556   1.048 -0.2438  0.2838  0.3373
 5509TIP3    H138162   4.528   6.567   0.985  1.3425  1.1943 -1.4025
 5509TIP3    H238163   4.656   6.632   1.034 -0.1562  0.8968  3.4018
 5510TIP3   OH238164   5.131   6.521   0.409  0.0169  0.2512  0.1475
 5510TIP3    H138165   5.116   6.612   0.383  0.0905 -0.0795 -1.1013
 5510TIP3    H238166   5.218   6.522   0.450 -0.2297  0.8362  0.6816
 5511TIP3   OH238167   1.937   1.447   3.117  0.2649 -0.4341  0.4730
 5511TIP3    H138168   1.942   1.374   3.055  0.7444 -0.9800  1.1475
 5511TIP3    H238169   1.907   1.408   3.199  1.4248 -0.0483  1.1104
 5512TIP3   OH238170   6.513   5.442   2.435  0.0788  0.0024  0.3236
 5512TIP3    H138171   6.593   5.481   2.470  0.0017 -0.1945  0.7260
 5512TIP3    H238172   6.507   5.476   2.346 -1.0752  2.5511  1.2933
 5513TIP3   OH238173   5.840   4.189   7.551 -0.2118  0.2473  0.0227
 5513TIP3    H138174   5.756   4.143   7.550 -0.0576 -0.0313 -0.6142
 5513TIP3    H238175   5.896   4.136   7.607 -0.4842  0.4814  0.5212
 5514TIP3   OH238176   0.372   4.486   2.149  0.1286  0.6380 -0.0810
 5514TIP3    H138177   0.340   4.398   2.127  1.2112 -0.1149  1.1511
 5514TIP3    H238178   0.415   4.474   2.234 -0.1097  2.4714  0.3324
 5515TIP3   OH238179   3.764   0.730   2.092  0.2340 -0.0146 -0.3019
 5515TIP3    H138180   3.831   0.790   2.125  0.9213 -1.3147  0.7791
 5515TIP3    H238181   3.783   0.721   1.999 -0.9590  2.7571 -0.9173
 5516TIP3   OH238182   2.245   2.948   2.641 -0.5575  0.2097 -0.2410
 5516TIP3    H138183   2.175   2.958   2.576 -1.3094 -1.9573  0.1471
 5516TIP3    H238184   2.227   3.016   2.705 -1.2342  0.8432 -1.0658
 5517TIP3   OH238185   0.947   1.238   7.932 -0.5545 -0.2745 -0.1279
 5517TIP3    H138186   0.890   1.265   8.004 -0.3977 -0.8253  0.2166
 5517TIP3    H238187   0.888   1.212   7.862 -0.8872 -3.4942  1.1690
 5518TIP3   OH238188   3.763   0.694   7.575 -0.0852  0.3306 -0.1405
 5518TIP3    H138189   3.705   0.625   7.543 -0.0268 -0.4453  1.3520
 5518TIP3    H238190   3.771   0.755   7.501  0.5329 -1.6502 -1.7890
 5519TIP3   OH238191   0.098   6.178   1.056 -0.2450  0.2921  0.0670
 5519TIP3    H138192   0.012   6.203   1.021  0.3311  0.8846 -0.9687
 5519TIP3    H238193   0.129   6.109   0.998 -0.6012 -0.9204  1.2629
 5520TIP3   OH238194   1.935   0.490   2.236  0.2835  0.3397 -0.5568
 5520TIP3    H138195   1.873   0.494   2.163  0.5295 -0.3504 -0.8041
 5520TIP3    H238196   1.916   0.407   2.280  1.5910 -0.2991 -1.1442
 5521TIP3   OH238197   5.019   4.120   8.244 -0.1078  0.1367  0.1262
 5521TIP3    H138198   5.009   4.173   8.165 -2.4703  0.7516  0.7535
 5521TIP3    H238199   5.042   4.184   8.312 -0.6344  0.0217  0.4195
 5522TIP3   OH238200   6.606   4.844   8.239 -0.4387  0.0856  0.0677
 5522TIP3    H138201   6.661   4.781   8.192 -0.9428 -0.0655 -0.3424
 5522TIP3    H238202   6.575   4.797   8.316 -0.2540  0.0629  0.1268
 5523TIP3   OH238203   5.009   2.901   1.199  0.5021 -0.0588  0.5204
 5523TIP3    H138204   4.915   2.916   1.187  0.7974  2.0537  0.4222
 5523TIP3    H238205   5.015   2.811   1.231 -1.4297 -0.7430 -0.8357
 5524TIP3   OH238206   0.986   4.570   2.026 -0.1342 -0.0170  0.2917
 5524TIP3    H138207   0.959   4.479   2.017 -0.2428 -0.0564  0.9637
 5524TIP3    H238208   0.981   4.588   2.120  4.1176 -0.6355  0.8656
 5525TIP3   OH238209   4.802   6.594   1.690 -0.1505 -0.2111 -0.5842
 5525TIP3    H138210   4.792   6.514   1.639  1.9754 -0.2423 -1.0339
 5525TIP3    H238211   4.876   6.577   1.748 -1.7675  0.2389  1.8001
 5526TIP3   OH238212   2.189   6.259   8.476 -0.4477 -0.2382  0.0395
 5526TIP3    H138213   2.219   6.308   8.553  0.9541 -1.4847  0.3394
 5526TIP3    H238214   2.143   6.183   8.513  0.3089 -0.8882 -0.3101
 5527TIP3   OH238215   5.111   6.310   1.145 -0.1812 -0.4864 -0.8087
 5527TIP3    H138216   5.043   6.371   1.117 -1.0930 -0.4968  1.2216
 5527TIP3    H238217   5.165   6.360   1.207 -0.0256 -1.2890 -0.2800
 5528TIP3   OH238218   2.005   4.243   8.377  0.1182  0.0137 -0.6710
 5528TIP3    H138219   2.079   4.184   8.374  0.5402  0.2623  2.0360
 5528TIP3    H238220   1.937   4.200   8.325  0.7356 -2.3828  0.3904
 5529TIP3   OH238221   4.966   4.827   7.992  0.1926  0.2362 -0.0401
 5529TIP3    H138222   5.033   4.864   8.051  0.7919  0.7004 -0.9952
 5529TIP3    H238223   4.913   4.903   7.966  0.3000  0.1343 -0.5655
 5530TIP3   OH238224   1.529   6.926   0.916  0.5053 -0.0268 -0.4610
 5530TIP3    H138225   1.500   6.905   0.827  1.3911 -2.2091 -0.3212
 5530TIP3    H238226   1.511   6.846   0.966  2.3195  0.2229  0.7041
 5531TIP3   OH238227   2.182   0.772   3.126 -0.2988 -0.2580 -0.1181
 5531TIP3    H138228   2.120   0.759   3.055 -0.2350  2.0884 -0.6627
 5531TIP3    H238229   2.249   0.831   3.091 -0.5057  1.3519  1.9601
 5532TIP3   OH238230   2.359   2.367   1.351  0.1199 -0.5999 -0.1854
 5532TIP3    H138231   2.322   2.394   1.435  0.2250  0.2151 -0.3995
 5532TIP3    H238232   2.326   2.431   1.289 -1.5122 -2.2500 -1.1311
 5533TIP3   OH238233   1.596   2.304   7.351  0.7379  0.0825  0.4650
 5533TIP3    H138234   1.521   2.346   7.310  0.4937 -0.1618  0.6549
 5533TIP3    H238235   1.663   2.303   7.283  0.4589  0.0107  0.1883
 5534TIP3   OH238236   4.881   5.119   1.068  0.7266  0.3686  0.0100
 5534TIP3    H138237   4.919   5.040   1.108  1.8468 -0.1587 -1.9552
 5534TIP3    H238238   4.914   5.118   0.978 -0.7343  2.1180 -0.5944
 5535TIP3   OH238239   1.533   0.674   7.617  0.9786 -0.0053 -0.4503
 5535TIP3    H138240   1.567   0.699   7.703  0.4029 -0.0298 -0.2129
 5535TIP3    H238241   1.576   0.590   7.598 -1.9868 -2.2374  1.7291
 5536TIP3   OH238242   0.879   6.309   0.863  0.3232 -0.0154 -0.4132
 5536TIP3    H138243   0.808   6.362   0.828 -0.5752 -1.0792 -0.2359
 5536TIP3    H238244   0.838   6.227   0.889  0.9318  0.5671  2.9334
 5537TIP3   OH238245   2.615   1.608   2.647  0.3608 -0.2723  0.2958
 5537TIP3    H138246   2.544   1.634   2.705  1.2712  1.3809  0.7464
 5537TIP3    H238247   2.681   1.570   2.704  0.9497  0.6817  0.2772
 5538TIP3   OH238248   4.545   4.460   1.616 -0.0186  0.6481 -0.2547
 5538TIP3    H138249   4.596   4.492   1.541 -0.5805 -0.5659 -1.1735
 5538TIP3    H238250   4.595   4.386   1.650 -0.3277  0.5034 -0.1117
 5539TIP3   OH238251   2.988   0.350   7.745 -0.4905  0.1356 -0.1510
 5539TIP3    H138252   2.982   0.432   7.697  1.0918 -0.8181 -2.1325
 5539TIP3    H238253   2.897   0.318   7.749 -0.8868  1.1043 -0.9625
 5540TIP3   OH238254   6.317   1.157   2.652  0.0623 -0.2026  0.1585
 5540TIP3    H138255   6.346   1.246   2.672 -1.3801 -0.0077  1.5187
 5540TIP3    H238256   6.324   1.152   2.556 -0.2081  1.5075  0.0101
 5541TIP3   OH238257   6.591   5.703   0.420  0.0155  0.0469 -0.3862
 5541TIP3    H138258   6.590   5.616   0.381  0.4646 -0.0451 -0.2035
 5541TIP3    H238259   6.674   5.741   0.390  0.4724 -0.1090  0.6619
 5542TIP3   OH238260   6.769   1.677   2.722  0.2934 -0.3871  0.5517
 5542TIP3    H138261   6.778   1.713   2.634 -0.9108 -0.1141  0.5287
 5542TIP3    H238262   6.728   1.592   2.709 -1.0970  0.2029  0.9195
 5543TIP3   OH238263   5.292   0.490   7.816 -0.0850 -0.0855 -0.2057
 5543TIP3    H138264   5.376   0.475   7.861 -0.8676 -0.1174  1.2983
 5543TIP3    H238265   5.226   0.457   7.877 -1.2147 -0.0176 -1.3495
 5544TIP3   OH238266   5.439   5.481   1.304  0.3473  0.0286  0.0087
 5544TIP3    H138267   5.410   5.452   1.390 -1.5644  0.4376 -0.4568
 5544TIP3    H238268   5.443   5.401   1.252  2.6567 -0.3960  0.7272
 5545TIP3   OH238269   3.224   5.865   2.253 -0.5277  0.2210  0.4401
 5545TIP3    H138270   3.135   5.838   2.276 -0.3310 -0.6281  0.2608
 5545TIP3    H238271   3.258   5.907   2.331 -1.0942  0.5536  0.5061
 5546TIP3   OH238272   1.651   6.753   8.216  0.1167  0.7923  1.0736
 5546TIP3    H138273   1.627   6.696   8.142 -0.4932 -0.1275  1.9442
 5546TIP3    H238274   1.663   6.692   8.289  1.6854  1.5954  1.5086
 5547TIP3   OH238275   1.169   0.905   7.322  0.0967  0.1535  0.0310
 5547TIP3    H138276   1.149   0.998   7.317 -2.0881 -0.3070 -1.0155
 5547TIP3    H238277   1.255   0.896   7.281 -0.3753  1.5379 -1.3463
 5548TIP3   OH238278   4.119   6.412   8.510  0.3012 -0.2206 -0.2072
 5548TIP3    H138279   4.121   6.470   8.585 -2.3001  0.0533 -0.2890
 5548TIP3    H238280   4.120   6.324   8.548 -0.0790 -0.0875  0.1169
 5549TIP3   OH238281   2.547   3.878   2.281 -0.9083 -0.4421  0.5721
 5549TIP3    H138282   2.498   3.943   2.331 -0.5327  0.1442  0.1889
 5549TIP3    H238283   2.525   3.898   2.189 -1.7538 -1.6294  0.4929
 5550TIP3   OH238284   2.305   2.609   8.525  0.1974 -0.1463  0.1462
 5550TIP3    H138285   2.360   2.531   8.527 -1.4817 -1.3536  0.6373
 5550TIP3    H238286   2.329   2.656   8.605  0.8415 -0.4082  0.1177
 5551TIP3   OH238287   3.975   0.633   2.391  0.4565  0.0368  0.7122
 5551TIP3    H138288   3.981   0.710   2.336  0.3983 -0.1099  0.5002
 5551TIP3    H238289   3.935   0.566   2.335 -0.9919  0.3112  1.3516
 5552TIP3   OH238290   5.835   3.382   1.589 -0.4204  0.5522  0.3664
 5552TIP3    H138291   5.820   3.288   1.572 -0.4901  0.6646 -0.2287
 5552TIP3    H238292   5.774   3.403   1.660  0.1513 -0.0272  1.0419
 5553TIP3   OH238293   2.501   2.782   0.485 -0.5573  0.2847 -0.1870
 5553TIP3    H138294   2.547   2.761   0.404 -2.7367 -3.7583 -0.6787
 5553TIP3    H238295   2.568   2.777   0.553  0.7088  0.4029 -1.3817
 5554TIP3   OH238296   0.409   6.208   8.372 -0.8410  0.1496 -0.2840
 5554TIP3    H138297   0.363   6.238   8.293 -0.8086 -0.9387 -0.7369
 5554TIP3    H238298   0.483   6.157   8.338 -0.7533 -0.2210  0.4566
 5555TIP3   OH238299   3.670   6.903   7.731  0.0035  0.3767  0.5422
 5555TIP3    H138300   3.700   6.859   7.652 -0.3942  0.3479  0.4056
 5555TIP3    H238301   3.650   6.831   7.792 -0.1712  0.3872  0.4948
 5556TIP3   OH238302   5.125   1.210   8.374  0.4181  0.7192  0.4697
 5556TIP3    H138303   5.187   1.142   8.348  2.1681  2.4406 -0.0575
 5556TIP3    H238304   5.057   1.207   8.306  1.0425  0.2400 -0.1541
 5557TIP3   OH238305   0.200   1.662   8.162  0.4368  0.8306  0.0733
 5557TIP3    H138306   0.269   1.686   8.100  0.2825  1.9580  0.3178
 5557TIP3    H238307   0.231   1.696   8.246  0.7566 -0.8924  0.6927
 5558TIP3   OH238308   2.364   5.684   0.490  0.4074  0.7245  0.4385
 5558TIP3    H138309   2.273   5.701   0.514  0.4619 -0.0293  1.2198
 5558TIP3    H238310   2.408   5.667   0.573  1.2418  0.9657  0.0592
 5559TIP3   OH238311   1.365   0.751   1.900  0.3317  0.1719  0.1211
 5559TIP3    H138312   1.451   0.747   1.940 -0.3317 -1.0179  1.5043
 5559TIP3    H238313   1.343   0.660   1.880 -0.3986  0.5043 -0.7047
 5560TIP3   OH238314   5.996   0.662   1.167 -0.1966  0.0513  0.6062
 5560TIP3    H138315   5.960   0.675   1.255  2.1166 -0.2369  1.6594
 5560TIP3    H238316   6.065   0.596   1.178 -0.7677 -1.0390 -1.7018
 5561TIP3   OH238317   1.399   3.844   1.383 -0.1316 -0.3528  0.1294
 5561TIP3    H138318   1.317   3.877   1.345 -0.2076  0.5285  1.0140
 5561TIP3    H238319   1.392   3.749   1.376 -0.8201 -0.2645 -0.6284
 5562TIP3   OH238320   6.690   0.303   2.531 -0.6473 -0.2299 -0.3817
 5562TIP3    H138321   6.676   0.382   2.583 -0.3953  0.6009 -1.5467
 5562TIP3    H238322   6.765   0.261   2.572  1.3635  1.8707 -1.6745
 5563TIP3   OH238323   1.684   5.156   1.386  0.1867  0.1866  0.1202
 5563TIP3    H138324   1.710   5.154   1.478  0.2625  0.1215  0.0980
 5563TIP3    H238325   1.746   5.216   1.345 -1.2602  2.0672  0.5358
 5564TIP3   OH238326   2.665   6.838   0.772 -0.4946  0.5455 -0.1451
 5564TIP3    H138327   2.729   6.879   0.830 -0.2772 -0.7482  0.5532
 5564TIP3    H238328   2.655   6.901   0.700 -0.1518  1.7997  0.8622
 5565TIP3   OH238329   3.798   1.712   0.848  0.1959 -0.6447 -0.0587
 5565TIP3    H138330   3.729   1.663   0.803  0.2691 -0.0373 -0.8612
 5565TIP3    H238331   3.759   1.798   0.863  0.9432 -0.1349 -0.9667
 5566TIP3   OH238332   4.191   1.866   8.062  0.0581  0.3577 -0.1768
 5566TIP3    H138333   4.173   1.856   7.969  0.6204  0.7651 -0.3401
 5566TIP3    H238334   4.268   1.812   8.078  1.0303  1.6224 -0.3419
 5567TIP3   OH238335   1.726   2.824   1.669 -0.1651 -0.3423 -0.0331
 5567TIP3    H138336   1.787   2.758   1.702 -0.0437 -0.7886 -1.1090
 5567TIP3    H238337   1.733   2.897   1.731  0.1898 -1.0735  0.8023
 5568TIP3   OH238338   0.154   6.069   0.636 -0.0953  0.0688 -0.2034
 5568TIP3    H138339   0.105   6.040   0.560 -0.1145  1.9614 -0.9628
 5568TIP3    H238340   0.244   6.076   0.606 -0.0562  0.5519  0.0061
 5569TIP3   OH238341   3.246   1.411   0.200  0.2068  0.3700  0.2215
 5569TIP3    H138342   3.256   1.501   0.232  0.2915  0.3587  0.2276
 5569TIP3    H238343   3.157   1.407   0.166  0.2798  0.5246  0.0061
 5570TIP3   OH238344   6.065   4.886   1.824  0.1095 -0.3308 -0.2389
 5570TIP3    H138345   6.063   4.899   1.729 -0.3274  0.9265 -0.0697
 5570TIP3    H238346   6.070   4.974   1.860 -1.7728 -0.6761  0.9709
 5571TIP3   OH238347   3.695   3.312   1.457  0.2453  0.3530  0.0234
 5571TIP3    H138348   3.781   3.302   1.415  0.3579 -1.1956  0.5694
 5571TIP3    H238349   3.691   3.405   1.481  1.8390  0.4204  0.1284
 5572TIP3   OH238350   6.594   4.962   1.265  0.5264 -0.1072 -0.2608
 5572TIP3    H138351   6.627   5.006   1.344  1.1608 -1.6419  0.3664
 5572TIP3    H238352   6.503   4.940   1.287  0.2322  0.7592 -0.5455
 5573TIP3   OH238353   0.250   6.005   2.360  0.2771 -0.3172 -0.5283
 5573TIP3    H138354   0.211   6.059   2.428 -0.9708 -2.1853  0.3280
 5573TIP3    H238355   0.323   6.058   2.326 -0.5197  1.6183  0.6090
 5574TIP3   OH238356   6.823   2.027   1.360  0.1440  0.5338 -0.1930
 5574TIP3    H138357   6.889   1.980   1.411 -1.0828  0.2733  1.2364
 5574TIP3    H238358   6.740   1.993   1.393 -0.7197  1.6068 -1.2043
 5575TIP3   OH238359   3.005   6.303   7.822 -0.2924 -0.0969 -0.3807
 5575TIP3    H138360   2.956   6.226   7.795 -1.2903  1.0035 -1.8658
 5575TIP3    H238361   3.000   6.362   7.747  1.4571  0.9512  0.2569
 5576TIP3   OH238362   0.248   3.190   2.156  0.6068 -0.0459 -0.3454
 5576TIP3    H138363   0.184   3.260   2.167 -1.4990 -1.9194  0.1508
 5576TIP3    H238364   0.244   3.140   2.238  2.2283 -0.6201 -0.5810
 5577TIP3   OH238365   0.629   1.942   6.673 -0.3265 -0.2532  0.1176
 5577TIP3    H138366   0.705   1.919   6.726 -0.4332 -3.3104 -0.8268
 5577TIP3    H238367   0.555   1.904   6.720 -0.9984  0.8808 -0.0100
 5578TIP3   OH238368   0.181   0.475   1.616 -0.3795 -0.0437 -0.8266
 5578TIP3    H138369   0.161   0.514   1.531  0.4102 -0.6595 -1.3112
 5578TIP3    H238370   0.273   0.496   1.631 -0.6518  0.5548  0.1639
 5579TIP3   OH238371   5.880   3.237   0.773  0.0909 -0.0615  0.4697
 5579TIP3    H138372   5.850   3.161   0.823 -2.1705 -0.2772 -1.0741
 5579TIP3    H238373   5.801   3.288   0.758  1.3115  1.8350  0.1214
 5580TIP3   OH238374   2.127   1.246   2.037 -0.2574 -0.0316  0.0367
 5580TIP3    H138375   2.042   1.290   2.038 -0.2530  0.0611  2.5597
 5580TIP3    H238376   2.190   1.316   2.018 -0.6604 -0.0116 -1.3466
 5581TIP3   OH238377   6.621   2.923   6.581  0.2398  0.2544  0.3133
 5581TIP3    H138378   6.537   2.968   6.594  0.2267  0.5515 -0.7286
 5581TIP3    H238379   6.675   2.986   6.535  1.2932  0.3107  1.5704
 5582TIP3   OH238380   4.586   0.704   2.264 -0.0945 -0.0628 -1.0046
 5582TIP3    H138381   4.571   0.799   2.263 -0.0276 -0.0409 -2.4807
 5582TIP3    H238382   4.514   0.668   2.213 -0.3973 -0.8803 -0.0382
 5583TIP3   OH238383   3.639   3.845   2.347 -0.8869  0.0037 -0.1912
 5583TIP3    H138384   3.551   3.854   2.385 -1.4358 -1.5419 -1.0115
 5583TIP3    H238385   3.679   3.773   2.396 -0.0470  0.7158  0.1900
 5584TIP3   OH238386   3.212   5.498   8.394  0.3520 -0.5557  0.2114
 5584TIP3    H138387   3.147   5.528   8.330 -0.2443  0.1522  1.1367
 5584TIP3    H238388   3.295   5.500   8.345 -0.1654 -0.5773 -0.7027
 5585TIP3   OH238389   3.832   0.195   7.569 -0.0114 -0.5883 -0.8413
 5585TIP3    H138390   3.904   0.150   7.525  1.4160  1.1233 -0.3688
 5585TIP3    H238391   3.786   0.240   7.499 -1.3396 -2.5411 -1.2925
 5586TIP3   OH238392   5.008   3.118   0.970  0.6451  0.0534  0.0947
 5586TIP3    H138393   5.042   3.128   0.881  0.3021  0.1405 -0.0275
 5586TIP3    H238394   5.071   3.060   1.013 -0.0194 -1.2925 -0.6704
 5587TIP3   OH238395   1.142   2.990   1.034  0.0760 -0.2912  0.0220
 5587TIP3    H138396   1.107   2.976   0.946  0.8787 -0.1010 -0.3310
 5587TIP3    H238397   1.180   2.906   1.058 -0.3388 -0.4065  0.2779
 5588TIP3   OH238398   1.759   0.752   0.000  0.2302 -0.0243  0.0109
 5588TIP3    H138399   1.842   0.711   0.024  1.3325  1.2599 -1.3766
 5588TIP3    H238400   1.757   0.833   0.051 -0.9249 -0.7583  1.1719
 5589TIP3   OH238401   2.280   3.924   0.219  0.0692  0.7267  0.7542
 5589TIP3    H138402   2.331   3.987   0.170  0.3871  0.0800  0.2302
 5589TIP3    H238403   2.291   3.841   0.171 -0.1984  0.2380  1.5092
 5590TIP3   OH238404   5.567   3.167   7.216  0.1230 -0.1466  0.1914
 5590TIP3    H138405   5.572   3.073   7.233  1.1697 -0.0535  0.5249
 5590TIP3    H238406   5.555   3.174   7.121  0.6829 -0.6260  0.0752
 5591TIP3   OH238407   3.561   3.478   0.625  0.1339  0.0412  0.7839
 5591TIP3    H138408   3.567   3.570   0.599 -2.2453  0.2295  0.6692
 5591TIP3    H238409   3.534   3.481   0.717 -2.1193 -0.4390  0.2033
 5592TIP3   OH238410   1.945   6.714   8.395 -0.1976  0.6025 -0.0012
 5592TIP3    H138411   1.956   6.624   8.362  0.7888 -0.7554  3.5048
 5592TIP3    H238412   1.852   6.720   8.418 -0.1147  0.1563  0.4774
 5593TIP3   OH238413   1.806   2.687   0.453  0.0313 -0.3573 -0.1512
 5593TIP3    H138414   1.779   2.667   0.363  0.7863 -0.6997 -0.3118
 5593TIP3    H238415   1.899   2.709   0.446  0.1637 -0.6405  0.5815
 5594TIP3   OH238416   5.486   2.878   1.805 -0.4085 -0.2887 -0.0095
 5594TIP3    H138417   5.527   2.912   1.884  1.1610 -0.3995 -0.7448
 5594TIP3    H238418   5.460   2.956   1.755  1.1707 -0.1421 -0.6629
 5595TIP3   OH238419   1.631   2.338   7.637  0.1473  0.6854  0.0759
 5595TIP3    H138420   1.588   2.257   7.608  2.3004 -0.8845  0.9423
 5595TIP3    H238421   1.681   2.367   7.561  1.8796 -0.6595  0.6244
 5596TIP3   OH238422   0.031   1.144   8.440 -0.2006 -0.1688  0.1852
 5596TIP3    H138423   0.001   1.229   8.471 -0.5730  0.1085 -0.9163
 5596TIP3    H238424   0.109   1.162   8.389  0.0462 -0.5504  0.4230
 5597TIP3   OH238425   6.412   3.335   1.809  0.2095  0.1597  0.2783
 5597TIP3    H138426   6.418   3.299   1.898  2.2291  1.3966  0.7074
 5597TIP3    H238427   6.497   3.316   1.770 -0.4727  0.0845 -1.2528
 5598TIP3   OH238428   0.182   5.191   8.444  0.4332 -0.2592 -0.5267
 5598TIP3    H138429   0.230   5.109   8.458  2.0840  0.3455 -2.1849
 5598TIP3    H238430   0.205   5.216   8.355  0.2927  2.2159  0.0724
 5599TIP3   OH238431   4.395   1.274   2.005  0.0262 -0.2073 -0.1213
 5599TIP3    H138432   4.377   1.208   2.072 -0.5479 -0.8244 -0.8685
 5599TIP3    H238433   4.355   1.354   2.040  1.3247 -0.0512  1.1102
 5600TIP3   OH238434   1.270   2.546   8.046  0.1654 -0.1369  0.5015
 5600TIP3    H138435   1.244   2.567   7.956 -1.3435  0.5183  1.0632
 5600TIP3    H238436   1.333   2.614   8.069  2.7280 -1.8345 -0.9291
 5601TIP3   OH238437   6.211   4.180   7.281 -0.2246 -0.5557  0.4159
 5601TIP3    H138438   6.206   4.085   7.284 -0.4986 -0.5391  0.5078
 5601TIP3    H238439   6.305   4.199   7.281 -0.1342 -0.8765 -1.3808
 5602TIP3   OH238440   4.585   1.184   1.008 -0.5307  0.2273 -0.7041
 5602TIP3    H138441   4.542   1.208   1.090  0.0497 -0.7565 -0.0874
 5602TIP3    H238442   4.552   1.096   0.989  0.1793 -0.0007 -0.9168
 5603TIP3   OH238443   3.084   3.455   1.733  0.0257 -0.4829  1.1512
 5603TIP3    H138444   3.139   3.389   1.776 -0.6536 -1.1615  1.0084
 5603TIP3    H238445   3.137   3.486   1.660  0.1504 -1.2796  0.8919
 5604TIP3   OH238446   6.044   2.478   8.116 -0.1430 -0.1739 -0.5034
 5604TIP3    H138447   5.978   2.410   8.114 -1.3229  0.3889  4.7260
 5604TIP3    H238448   6.001   2.555   8.078 -0.1993 -1.1883 -2.6680
 5605TIP3   OH238449   1.976   4.773   7.648 -0.4205 -0.1055 -0.3632
 5605TIP3    H138450   1.914   4.779   7.575 -1.3006 -0.3152  0.3434
 5605TIP3    H238451   1.970   4.682   7.676 -0.9768  0.2489  0.7153
 5606TIP3   OH238452   0.726   1.041   8.007 -0.0825  0.3844 -0.0966
 5606TIP3    H138453   0.694   1.121   7.966  0.4513  1.2507  1.1186
 5606TIP3    H238454   0.666   1.026   8.080  0.3157  0.1578  0.1870
 5607TIP3   OH238455   2.569   1.470   1.072 -0.3840 -0.5330  0.4756
 5607TIP3    H138456   2.538   1.385   1.042  0.5015 -1.0718  1.0384
 5607TIP3    H238457   2.553   1.470   1.166 -1.4544  0.3999  0.3078
 5608TIP3   OH238458   4.429   2.896   1.762 -0.2075  0.0284 -0.7272
 5608TIP3    H138459   4.368   2.831   1.795 -0.5527  0.2956 -0.8355
 5608TIP3    H238460   4.514   2.852   1.763 -0.3522 -0.2392 -0.2854
 5609TIP3   OH238461   1.565   5.316   7.369 -0.2618 -0.2148  0.2955
 5609TIP3    H138462   1.499   5.384   7.376 -1.5072 -1.3330  0.0077
 5609TIP3    H238463   1.592   5.318   7.277 -0.3363 -0.1420  0.2756
 5610TIP3   OH238464   6.573   4.327   0.373 -0.4123  0.6942 -0.1190
 5610TIP3    H138465   6.527   4.258   0.421  0.1531 -0.0155 -0.5801
 5610TIP3    H238466   6.624   4.281   0.307  1.2684  1.4313  0.6110
 5611TIP3   OH238467   3.384   6.624   1.903 -0.0437  0.5548  0.4036
 5611TIP3    H138468   3.349   6.535   1.906 -2.5716  1.4562  0.3202
 5611TIP3    H238469   3.400   6.640   1.810  1.6544 -0.2001  0.5310
 5612TIP3   OH238470   5.417   0.915   2.264 -0.4898 -0.3662 -0.7994
 5612TIP3    H138471   5.419   0.834   2.315 -0.7515 -0.1582 -0.4532
 5612TIP3    H238472   5.333   0.912   2.219 -1.0677  0.2963  0.1896
 5613TIP3   OH238473   4.531   6.008   0.699 -0.6115  0.5660 -0.5579
 5613TIP3    H138474   4.487   5.929   0.668 -2.2979  1.4221 -0.4646
 5613TIP3    H238475   4.546   6.060   0.620 -1.5415  1.1140 -0.3911
 5614TIP3   OH238476   6.742   5.217   0.275 -0.4560 -0.8689 -0.5668
 5614TIP3    H138477   6.804   5.144   0.269 -0.8300 -1.2809  0.2936
 5614TIP3    H238478   6.657   5.175   0.291 -1.0362 -0.3354 -2.0442
 5615TIP3   OH238479   0.040   0.924   0.529 -0.4941  0.4086  0.2081
 5615TIP3    H138480  -0.015   0.856   0.567 -0.2790  0.0083 -0.1893
 5615TIP3    H238481   0.129   0.897   0.551 -0.3585  0.1203 -0.6520
 5616TIP3   OH238482   3.593   0.934   1.587 -1.4954 -0.7228  0.3004
 5616TIP3    H138483   3.573   0.859   1.530 -2.0813 -0.2038 -0.1840
 5616TIP3    H238484   3.569   1.011   1.536  0.2842 -0.1089  0.2945
 5617TIP3   OH238485   1.089   2.295   2.300  0.2911  0.2964 -0.3491
 5617TIP3    H138486   1.104   2.364   2.364 -1.7927 -1.6520  2.5161
 5617TIP3    H238487   1.129   2.217   2.339  0.3798 -0.6814 -2.2451
 5618TIP3   OH238488   1.593   5.373   1.758  0.3028  0.5628 -0.6974
 5618TIP3    H138489   1.564   5.291   1.717  2.2748 -0.3282 -0.3984
 5618TIP3    H238490   1.512   5.424   1.767 -1.1164 -1.5905 -0.2782
 5619TIP3   OH238491   5.188   3.742   0.130  0.2539 -0.5636 -0.0659
 5619TIP3    H138492   5.168   3.783   0.046  0.8986  1.7500  0.8435
 5619TIP3    H238493   5.111   3.760   0.184  0.4256 -0.8194  0.2702
 5620TIP3   OH238494   2.469   3.483   0.322  0.1821 -0.0161  0.0562
 5620TIP3    H138495   2.500   3.525   0.242  0.3029  1.1440  0.6864
 5620TIP3    H238496   2.472   3.553   0.388 -3.3303  0.0949  0.3017
 5621TIP3   OH238497   2.539   5.324   7.901  1.1113  0.3581  0.4794
 5621TIP3    H138498   2.582   5.374   7.971 -0.4783  0.6575  1.2927
 5621TIP3    H238499   2.448   5.353   7.903  0.3808 -1.7323  0.2006
 5622TIP3   OH238500   0.122   0.065   2.177 -0.6211  0.0790 -0.4733
 5622TIP3    H138501   0.132   0.060   2.272  1.8186 -0.9101 -0.7315
 5622TIP3    H238502   0.159   0.150   2.153 -2.3981  0.9127 -0.4847
 5623TIP3   OH238503   5.336   6.372   7.404 -0.5451 -0.2951 -0.5709
 5623TIP3    H138504   5.306   6.294   7.356 -0.6115 -0.5173 -0.1689
 5623TIP3    H238505   5.389   6.420   7.340 -1.9092  0.2136 -1.3644
 5624TIP3   OH238506   3.665   0.941   0.445  0.9552  0.3622  0.1146
 5624TIP3    H138507   3.666   1.023   0.494 -0.2851 -0.7760  2.2075
 5624TIP3    H238508   3.636   0.965   0.357  0.0297  2.0771  0.8523
 5625TIP3   OH238509   0.561   5.539   8.223 -0.0056 -0.2100  0.6130
 5625TIP3    H138510   0.505   5.526   8.146  1.6464 -0.3660 -0.6302
 5625TIP3    H238511   0.510   5.596   8.280 -1.0692  0.3927 -0.8594
 5626TIP3   OH238512   2.248   2.961   0.886  0.6638 -0.3980  0.2353
 5626TIP3    H138513   2.259   3.031   0.951 -1.3472 -0.0685  0.2856
 5626TIP3    H238514   2.164   2.980   0.844  1.1504 -1.5316 -1.3414
 5627TIP3   OH238515   0.479   4.607   0.358 -0.8517 -0.2175 -0.1530
 5627TIP3    H138516   0.456   4.699   0.361  1.5213  0.4760 -1.0578
 5627TIP3    H238517   0.425   4.566   0.426 -0.5633  2.1531  1.6144
 5628TIP3   OH238518   5.679   3.716   1.265 -0.1866  0.6251  0.0465
 5628TIP3    H138519   5.628   3.636   1.268  0.6230  0.0649 -0.6797
 5628TIP3    H238520   5.759   3.693   1.217  2.1547  0.6807  3.5461
 5629TIP3   OH238521   2.458   4.065   0.031  0.3681 -0.2064 -0.1256
 5629TIP3    H138522   2.472   4.158   0.047  1.0090 -0.1818 -0.7563
 5629TIP3    H238523   2.482   4.053  -0.061 -0.0530 -0.9287 -0.1491
 5630TIP3   OH238524   5.511   5.776   0.934  0.2860 -0.2349 -0.1852
 5630TIP3    H138525   5.495   5.870   0.942  0.5012 -0.2617  0.6049
 5630TIP3    H238526   5.500   5.742   1.023 -2.9504 -1.4733 -0.9280
 5631TIP3   OH238527   3.348   0.732   2.576  0.1345 -0.4122 -0.7679
 5631TIP3    H138528   3.282   0.793   2.542 -1.0611 -0.1033  1.8166
 5631TIP3    H238529   3.333   0.733   2.671  2.4818 -2.0051 -0.3190
 5632TIP3   OH238530   4.319   6.834   0.315  0.1119 -0.5960 -0.5137
 5632TIP3    H138531   4.395   6.786   0.348 -1.3477 -0.8333  2.9479
 5632TIP3    H238532   4.246   6.774   0.329 -0.9770  0.3826 -1.8554
 5633TIP3   OH238533   3.698   1.745   7.233 -0.2289  0.1260 -0.1974
 5633TIP3    H138534   3.745   1.806   7.176 -0.7231 -0.9704 -1.8418
 5633TIP3    H238535   3.613   1.786   7.247 -0.1945  0.2866 -0.4542
 5634TIP3   OH238536   6.279   0.344   8.077 -0.3988 -0.1955  0.3953
 5634TIP3    H138537   6.184   0.352   8.078 -0.5387 -0.1174 -3.2119
 5634TIP3    H238538   6.309   0.419   8.129 -2.2271 -0.3504  1.8080
 5635TIP3   OH238539   5.198   4.336   2.406 -0.0594  0.2501  0.0532
 5635TIP3    H138540   5.285   4.302   2.424 -0.5894 -1.7251 -0.7861
 5635TIP3    H238541   5.183   4.403   2.472  1.7239 -0.0349  0.7773
 5636TIP3   OH238542   3.397   2.924   7.835  0.4299 -0.5791 -0.1621
 5636TIP3    H138543   3.386   2.837   7.797 -0.6200  0.0537 -1.3752
 5636TIP3    H238544   3.482   2.954   7.803  2.1132 -2.1381  2.4066
 5637TIP3   OH238545   6.651   3.251   8.353  0.0813  0.4413 -0.5118
 5637TIP3    H138546   6.598   3.180   8.388  0.3660  0.2849 -0.3947
 5637TIP3    H238547   6.741   3.219   8.359  0.4811  1.7614  1.8664
 5638TIP3   OH238548   4.338   3.914   2.296 -0.5815  0.2660  0.5700
 5638TIP3    H138549   4.354   3.858   2.372  0.7535  0.5653  0.5343
 5638TIP3    H238550   4.306   3.996   2.332  2.0837  1.1881  1.0415
 5639TIP3   OH238551   5.072   3.394   7.532 -0.4856 -0.3810  0.6594
 5639TIP3    H138552   5.072   3.314   7.479 -2.1267 -0.3129  0.5233
 5639TIP3    H238553   5.153   3.439   7.506 -0.6432 -0.9184 -0.9084
 5640TIP3   OH238554   5.936   3.227   8.219 -0.0190 -0.0931 -0.3091
 5640TIP3    H138555   5.927   3.191   8.307  0.3765 -1.0287 -0.6384
 5640TIP3    H238556   5.857   3.281   8.207 -1.7337 -2.4947 -0.5320
 5641TIP3   OH238557   6.706   3.254   2.243 -0.0394  0.4529  0.0388
 5641TIP3    H138558   6.772   3.215   2.185  0.0467 -0.6286  0.8197
 5641TIP3    H238559   6.624   3.249   2.194 -0.0226 -0.7182  0.1122
 5642TIP3   OH238560   0.509   5.115   1.999  0.4352 -0.2442 -0.2390
 5642TIP3    H138561   0.556   5.057   1.939  0.2451 -0.1584 -0.4711
 5642TIP3    H238562   0.575   5.139   2.064  0.5650 -0.5672 -0.2486
 5643TIP3   OH238563   0.555   4.367   8.081 -0.3416 -0.1781  0.1811
 5643TIP3    H138564   0.594   4.409   8.158  0.4341  0.8045 -0.7076
 5643TIP3    H238565   0.467   4.344   8.108 -0.3888  0.9617  1.0982
 5644TIP3   OH238566   6.021   3.432   2.085  0.1711 -0.1495  0.1819
 5644TIP3    H138567   6.073   3.490   2.140  0.7891 -0.9071  0.4125
 5644TIP3    H238568   6.018   3.476   2.000 -1.7269  1.5983  1.0446
 5645TIP3   OH238569   6.521   2.373   0.376 -0.2561 -0.4966 -0.2536
 5645TIP3    H138570   6.608   2.337   0.361 -0.2842 -0.7288  0.1189
 5645TIP3    H238571   6.466   2.331   0.310  0.2362  0.9596 -1.6265
 5646TIP3   OH238572   0.806   6.876   0.668 -0.5703 -0.2644 -0.1138
 5646TIP3    H138573   0.820   6.807   0.734  0.0584 -0.3460 -0.3238
 5646TIP3    H238574   0.773   6.950   0.718 -2.7798 -1.1937 -0.0897
 5647TIP3   OH238575   5.831   1.778   6.453  0.5639 -0.1894 -0.1845
 5647TIP3    H138576   5.805   1.861   6.492  0.3152 -0.5501  0.4187
 5647TIP3    H238577   5.919   1.762   6.487  0.1869 -0.7082  0.5769
 5648TIP3   OH238578   6.630   4.953   1.683  0.0403  0.3579 -0.2042
 5648TIP3    H138579   6.632   4.871   1.635 -1.3734  1.2257 -1.8413
 5648TIP3    H238580   6.718   4.962   1.720  1.0668 -0.5672 -2.2836
 5649TIP3   OH238581   4.487   4.172   2.122 -0.1108  0.0416  0.1325
 5649TIP3    H138582   4.400   4.180   2.161  0.5364  0.3259  1.5754
 5649TIP3    H238583   4.473   4.122   2.042 -1.6411  0.3156  0.2085
 5650TIP3   OH238584   2.340   5.467   1.188  0.2818  0.6696 -0.6313
 5650TIP3    H138585   2.315   5.532   1.122  1.6083  1.6803 -0.1780
 5650TIP3    H238586   2.431   5.445   1.168  0.2250 -0.1531 -0.0494
 5651TIP3   OH238587   6.012   1.983   2.059  0.0703 -0.7823 -0.3697
 5651TIP3    H138588   6.006   1.896   2.020  0.7465 -0.3054 -1.5754
 5651TIP3    H238589   6.058   1.970   2.142 -1.5488 -1.8368  0.4058
 5652TIP3   OH238590   4.972   3.626   7.630  0.0273 -0.2890 -0.1230
 5652TIP3    H138591   4.989   3.535   7.603 -0.4971 -0.4839  0.1735
 5652TIP3    H238592   4.970   3.675   7.548  0.0555 -0.5950 -0.3094
 5653TIP3   OH238593   1.299   0.708   0.381 -0.2076 -0.3117 -0.5132
 5653TIP3    H138594   1.279   0.793   0.421  1.5725  0.5310 -1.3210
 5653TIP3    H238595   1.299   0.646   0.454 -1.1995  0.4109  0.1320
 5654TIP3   OH238596   1.942   1.830   2.296  0.0546  0.2110 -0.5064
 5654TIP3    H138597   1.868   1.889   2.281 -0.0085  0.0941 -0.6627
 5654TIP3    H238598   1.901   1.746   2.318  0.1419  0.3118  0.0811
 5655TIP3   OH238599   5.852   2.740   2.582 -0.0141  0.0090  0.7723
 5655TIP3    H138600   5.883   2.744   2.673 -1.9846 -3.4912  1.7730
 5655TIP3    H238601   5.931   2.723   2.531  0.7171 -1.7126  2.3416
 5656TIP3   OH238602   1.453   0.391   2.911 -0.6639 -0.3473 -0.4609
 5656TIP3    H138603   1.359   0.408   2.914 -0.8827 -1.3239 -1.0824
 5656TIP3    H238604   1.463   0.308   2.959  0.0002  0.1784  0.3275
 5657TIP3   OH238605   5.639   3.748   2.190 -0.6252  0.6126  0.2067
 5657TIP3    H138606   5.554   3.740   2.234 -0.7674  1.4558  0.1015
 5657TIP3    H238607   5.703   3.747   2.261 -0.7667  0.6899  0.3352
 5658TIP3   OH238608   3.625   2.476   0.922 -0.0988  0.2580 -0.1582
 5658TIP3    H138609   3.568   2.551   0.938  0.1482  0.2829  0.6694
 5658TIP3    H238610   3.584   2.405   0.972 -0.3617 -0.1803 -0.9798
 5659TIP3   OH238611   3.193   3.874   8.089 -0.0572  0.1549  0.1339
 5659TIP3    H138612   3.214   3.957   8.045 -0.2893 -0.6334 -1.4999
 5659TIP3    H238613   3.265   3.816   8.067 -0.3577 -0.3736  0.5169
 5660TIP3   OH238614   6.000   6.286   8.114  0.1298  0.4277  0.4691
 5660TIP3    H138615   6.050   6.351   8.065  0.0521  1.0052  1.1396
 5660TIP3    H238616   6.055   6.207   8.111  0.3370  0.5888 -0.1475
 5661TIP3   OH238617   1.221   5.837   0.967 -0.0941 -0.0933 -0.0467
 5661TIP3    H138618   1.164   5.867   0.896  0.7783 -1.9451 -1.5930
 5661TIP3    H238619   1.184   5.753   0.994  0.1265  0.1575  1.1223
 5662TIP3   OH238620   6.667   2.764   1.296  0.1327  0.2646 -0.2994
 5662TIP3    H138621   6.677   2.742   1.388  3.4662 -0.3008 -0.6714
 5662TIP3    H238622   6.685   2.858   1.292  1.9172 -0.0480 -0.5185
 5663TIP3   OH238623   5.323   0.443   7.193  0.1213 -0.2529  0.8559
 5663TIP3    H138624   5.255   0.385   7.226  0.2548 -0.4849  0.7273
 5663TIP3    H238625   5.370   0.472   7.271  1.0835 -1.6053  0.8198
 5664TIP3   OH238626   6.082   6.540   7.954  0.2215  0.7981  0.2086
 5664TIP3    H138627   6.033   6.534   7.872 -1.8488  0.0633  1.4384
 5664TIP3    H238628   6.163   6.585   7.930  0.2516 -0.4995 -2.4740
 5665TIP3   OH238629   3.266   4.571   2.313 -0.3836  0.3619 -0.6468
 5665TIP3    H138630   3.187   4.625   2.306  0.3261  1.3863 -1.1149
 5665TIP3    H238631   3.272   4.527   2.228  1.4209  3.0414 -2.0336
 5666TIP3   OH238632   3.889   1.052   6.573  0.2855 -0.1456  0.2805
 5666TIP3    H138633   3.890   1.145   6.597  0.7369 -0.2771  0.7891
 5666TIP3    H238634   3.851   1.050   6.485 -0.3136  0.4646  0.5170
 5667TIP3   OH238635   0.159   4.111   1.070 -0.0110  0.3315 -0.0226
 5667TIP3    H138636   0.227   4.101   1.004  1.2758 -0.9460  1.4329
 5667TIP3    H238637   0.096   4.041   1.050 -0.9092  1.4426 -1.2971
 5668TIP3   OH238638   4.389   4.921   0.689 -0.2935  0.6454  0.4278
 5668TIP3    H138639   4.485   4.920   0.695 -0.3035  0.8380  0.6148
 5668TIP3    H238640   4.364   5.008   0.718 -0.3728  1.4784 -1.8990
 5669TIP3   OH238641   5.705   3.482   0.860  0.2687 -0.3852  0.3558
 5669TIP3    H138642   5.645   3.467   0.787  0.7199 -0.4140 -0.0141
 5669TIP3    H238643   5.682   3.569   0.891 -0.7788 -0.8764  1.0020
 5670TIP3   OH238644   3.025   0.691   0.554 -0.4249  0.5638 -0.3253
 5670TIP3    H138645   3.104   0.682   0.607  0.5411  0.3297 -1.7377
 5670TIP3    H238646   2.994   0.779   0.573 -1.6132 -0.3773  2.5472
 5671TIP3   OH238647   0.848   3.556   2.025 -0.3676  0.2152 -0.1057
 5671TIP3    H138648   0.871   3.612   1.951  0.9842  0.8927  0.7734
 5671TIP3    H238649   0.930   3.548   2.075 -1.3057  0.0395  1.4713
 5672TIP3   OH238650   4.269   0.477   7.930  0.6580  0.0250 -0.1251
 5672TIP3    H138651   4.206   0.437   7.870  1.3912 -0.6012 -0.4782
 5672TIP3    H238652   4.341   0.507   7.874 -0.1439  2.4866  0.0154
 5673TIP3   OH238653   1.390   4.364   0.825 -0.5752  0.1379 -0.3282
 5673TIP3    H138654   1.399   4.366   0.920 -0.6027 -0.0510 -0.3218
 5673TIP3    H238655   1.325   4.432   0.805 -0.1312  0.5873 -0.2627
 5674TIP3   OH238656   1.568   1.095   7.682 -0.2780 -0.0855 -0.0340
 5674TIP3    H138657   1.641   1.077   7.622 -0.0761  3.1624 -0.9378
 5674TIP3    H238658   1.497   1.039   7.651  1.5438 -2.8768  0.4911
 5675TIP3   OH238659   1.371   0.418   2.400  0.0808  0.0673 -0.0014
 5675TIP3    H138660   1.298   0.359   2.418  0.0106  0.3659  0.7308
 5675TIP3    H238661   1.449   0.366   2.420  0.2047 -0.9150 -2.6297
 5676TIP3   OH238662   4.885   2.162   7.259 -0.5973 -0.5290  0.0338
 5676TIP3    H138663   4.865   2.074   7.291 -0.0868 -0.3978  0.7291
 5676TIP3    H238664   4.918   2.149   7.170  1.7050 -1.2819  0.9255
 5677TIP3   OH238665   4.971   3.794   2.209  0.4764  0.1029 -0.3554
 5677TIP3    H138666   4.921   3.868   2.243 -0.5323 -0.7005 -0.0308
 5677TIP3    H238667   5.005   3.751   2.287  1.2350  0.3227 -0.5519
 5678TIP3   OH238668   4.145   5.652   1.596  0.4446  0.1422  0.1711
 5678TIP3    H138669   4.128   5.573   1.647 -1.3238  2.1065  2.8964
 5678TIP3    H238670   4.235   5.677   1.621  1.3093 -1.3188 -1.2952
 5679TIP3   OH238671   3.117   5.258   1.935 -0.5693  0.0761 -0.3709
 5679TIP3    H138672   3.168   5.181   1.959 -0.7035 -0.5944 -2.0982
 5679TIP3    H238673   3.152   5.328   1.991  2.1503 -0.3824 -1.3546
 5680TIP3   OH238674   0.195   3.116   7.507 -0.0345  0.1761 -0.5566
 5680TIP3    H138675   0.233   3.050   7.448  1.4867  0.3020  0.2296
 5680TIP3    H238676   0.239   3.101   7.590 -1.0035  1.0341  0.1229
 5681TIP3   OH238677   6.894   2.871   6.441  0.2009  0.6220 -0.2225
 5681TIP3    H138678   6.889   2.795   6.383  1.7087 -0.0831  0.4988
 5681TIP3    H238679   6.867   2.945   6.387  1.6830  0.0185 -1.8963
 5682TIP3   OH238680   2.674   4.096   0.419 -0.0743  0.1145 -0.5796
 5682TIP3    H138681   2.714   4.149   0.487 -0.9524  1.0680 -0.7875
 5682TIP3    H238682   2.616   4.156   0.372  0.2565 -0.5871 -1.9651
 5683TIP3   OH238683   4.272   3.602   0.926 -0.4296  0.3172  0.1645
 5683TIP3    H138684   4.275   3.536   0.857 -3.5307  1.0953 -0.8927
 5683TIP3    H238685   4.346   3.660   0.908  0.6133 -1.2008 -0.6101
 5684TIP3   OH238686   2.222   2.440   7.152 -0.6386  0.7923  0.2689
 5684TIP3    H138687   2.251   2.486   7.073  1.8337 -0.6517  0.2428
 5684TIP3    H238688   2.192   2.354   7.120 -0.9992  0.7267  0.7679
 5685TIP3   OH238689   0.885   4.369   0.809 -0.0388  0.8547  0.5925
 5685TIP3    H138690   0.939   4.390   0.885 -0.0248  1.5983  0.3770
 5685TIP3    H238691   0.911   4.279   0.786  1.6862  1.4662  0.0079
 5686TIP3   OH238692   2.753   5.775   7.962  0.6882 -0.4430 -0.3877
 5686TIP3    H138693   2.710   5.710   8.018 -2.7819  1.5010 -0.5288
 5686TIP3    H238694   2.790   5.839   8.023  1.7409 -1.1146 -0.2984
 5687TIP3   OH238695   1.401   3.915   1.057  1.0934  0.6370 -0.0787
 5687TIP3    H138696   1.447   3.922   0.973  0.5964  1.6420 -0.2883
 5687TIP3    H238697   1.370   3.825   1.060  0.4968  0.7812 -1.3191
 5688TIP3   OH238698   2.323   2.731   2.046  0.1356 -0.4712  0.1212
 5688TIP3    H138699   2.318   2.784   2.126 -0.8541 -1.3404  0.6669
 5688TIP3    H238700   2.337   2.794   1.976  0.1070  0.3998  0.8863
 5689TIP3   OH238701   1.460   3.264   3.058 -0.5075  0.5167  1.0291
 5689TIP3    H138702   1.409   3.206   3.002  2.1244 -0.1245 -0.9127
 5689TIP3    H238703   1.538   3.213   3.081  0.4192  2.2198  1.8823
 5690TIP3   OH238704   1.081   1.974   7.565  0.0210  0.1906  0.6540
 5690TIP3    H138705   1.157   2.016   7.605  0.3190  0.3912 -0.0997
 5690TIP3    H238706   1.106   1.964   7.473 -0.5327 -0.5216  0.5796
 5691TIP3   OH238707   1.377   6.166   6.620 -0.3624 -0.1358  0.4888
 5691TIP3    H138708   1.358   6.136   6.532  1.2066 -1.2718  0.4861
 5691TIP3    H238709   1.353   6.259   6.620 -0.2216 -0.0733 -1.1789
 5692TIP3   OH238710   4.753   4.786   0.987  0.0128 -0.2867 -0.4782
 5692TIP3    H138711   4.736   4.738   0.906 -0.0326  0.0220 -0.6509
 5692TIP3    H238712   4.789   4.720   1.046  0.5692 -0.3938 -0.9273
 5693TIP3   OH238713   5.447   4.776   1.899  0.0433 -0.7284  0.0165
 5693TIP3    H138714   5.367   4.733   1.867 -0.6242  0.1778  0.4306
 5693TIP3    H238715   5.422   4.867   1.913  2.2542  0.7684 -4.0397
 5694TIP3   OH238716   1.174   1.100   2.401  0.0982 -0.2001 -0.0582
 5694TIP3    H138717   1.087   1.091   2.363  0.2612 -0.4115 -0.3866
 5694TIP3    H238718   1.164   1.164   2.472  0.0422  1.1381 -1.2463
 5695TIP3   OH238719   4.204   6.164   8.140  0.0100  0.3923 -1.0463
 5695TIP3    H138720   4.181   6.149   8.048  1.2194 -1.6494 -1.0903
 5695TIP3    H238721   4.296   6.139   8.146  0.3686  1.8933  0.4567
 5696TIP3   OH238722   1.812   2.498   7.250  0.1777 -0.6504 -0.0129
 5696TIP3    H138723   1.817   2.487   7.155  1.6126 -0.0019 -0.0320
 5696TIP3    H238724   1.900   2.481   7.282 -0.2170 -0.5815  1.1810
 5697TIP3   OH238725   5.368   3.097   1.671 -0.1900 -0.1276 -0.1981
 5697TIP3    H138726   5.428   3.160   1.632  2.0551 -1.4999  0.8600
 5697TIP3    H238727   5.320   3.061   1.596  0.9234  0.3686 -1.1868
 5698TIP3   OH238728   0.336   4.982   8.454  0.0292 -0.1247 -0.1815
 5698TIP3    H138729   0.339   4.887   8.467  0.9773 -0.0255  0.3783
 5698TIP3    H238730   0.370   4.995   8.366  0.6893 -0.2413  0.0551
 5699TIP3   OH238731   5.829   6.872   0.948  0.2371 -0.1964  0.0752
 5699TIP3    H138732   5.863   6.783   0.960 -0.6323 -0.2937  2.3976
 5699TIP3    H238733   5.739   6.859   0.918  0.3512 -0.0784 -0.3204
 5700TIP3   OH238734   3.039   4.480   7.887 -0.3111 -0.1019  0.2718
 5700TIP3    H138735   3.013   4.514   7.973 -0.7976  0.7584 -0.2034
 5700TIP3    H238736   3.129   4.451   7.899  0.3925  2.0301  0.5385
 5701TIP3   OH238737   2.726   5.400   0.092  1.3355 -0.4300  0.2489
 5701TIP3    H138738   2.647   5.455   0.094  1.5699 -0.0371 -0.8472
 5701TIP3    H238739   2.785   5.444   0.031  2.2705 -0.9173  0.7733
 5702TIP3   OH238740   0.914   6.059   2.430  0.6768  0.3041 -0.5749
 5702TIP3    H138741   0.897   6.149   2.402  1.2250  1.2834  2.0171
 5702TIP3    H238742   0.955   6.018   2.354 -0.3152  1.9642 -2.1038
 5703TIP3   OH238743   1.830   0.996   0.626 -0.0856 -0.4759 -0.1832
 5703TIP3    H138744   1.834   1.088   0.649  1.4937 -0.2182 -1.2942
 5703TIP3    H238745   1.906   0.957   0.669  0.6668 -0.7408 -1.6852
 5704TIP3   OH238746   5.601   4.763   7.180  0.5466 -0.5560 -0.2514
 5704TIP3    H138747   5.663   4.723   7.119  1.6858 -1.5595  1.4780
 5704TIP3    H238748   5.545   4.818   7.125  2.0441 -0.7534 -2.0666
 5705TIP3   OH238749   0.220   5.982   7.571  0.4487  0.0165 -0.6807
 5705TIP3    H138750   0.172   5.966   7.652 -1.4786  1.1866 -1.5272
 5705TIP3    H238751   0.204   5.905   7.517  1.1012 -0.4213 -0.2628
 5706TIP3   OH238752   1.597   0.618   1.734  0.1304  0.2697  1.3700
 5706TIP3    H138753   1.622   0.597   1.824 -1.0570 -1.8149  1.2838
 5706TIP3    H238754   1.505   0.591   1.729  0.4651 -0.6648 -0.7340
 5707TIP3   OH238755   2.540   1.900   2.529 -0.3335  0.2670  0.1615
 5707TIP3    H138756   2.554   1.982   2.577 -1.9505  0.1775  0.8415
 5707TIP3    H238757   2.489   1.845   2.590 -0.6540 -0.6303 -0.8905
 5708TIP3   OH238758   3.697   4.518   0.876  0.4109  0.3065 -0.2814
 5708TIP3    H138759   3.652   4.482   0.953  1.0996  0.4945  0.2163
 5708TIP3    H238760   3.711   4.442   0.820 -0.9738  0.3247 -0.6789
 5709TIP3   OH238761   5.788   5.005   1.471  0.2084  0.1997  0.0237
 5709TIP3    H138762   5.735   5.029   1.548  0.8773 -0.0688  0.5754
 5709TIP3    H238763   5.725   4.969   1.409 -0.6133  1.9762 -0.2406
 5710TIP3   OH238764   3.192   4.128   1.775  0.3351 -0.5693 -0.4396
 5710TIP3    H138765   3.196   4.176   1.692  0.2834 -0.3417 -0.3112
 5710TIP3    H238766   3.252   4.054   1.763  2.2682  0.8122  0.1745
 5711TIP3   OH238767   5.315   2.541   2.191  0.0412 -0.4520 -0.1778
 5711TIP3    H138768   5.236   2.593   2.202  0.5166 -0.0825  1.9502
 5711TIP3    H238769   5.338   2.551   2.099 -0.5116  2.2250 -0.0927
 5712TIP3   OH238770   2.719   4.563   8.287 -0.7414  0.0918 -0.4370
 5712TIP3    H138771   2.664   4.485   8.277 -0.4617 -0.3068  1.0132
 5712TIP3    H238772   2.790   4.535   8.344 -1.0189  1.5963  0.6841
 5713TIP3   OH238773   2.184   1.942   1.407  0.0152  0.7485 -0.1622
 5713TIP3    H138774   2.093   1.921   1.431  0.0139  1.5873  0.6302
 5713TIP3    H238775   2.176   2.016   1.347  0.0850 -0.5646 -1.8550
 5714TIP3   OH238776   6.149   0.688   7.530 -0.4181 -0.5457 -0.0426
 5714TIP3    H138777   6.197   0.653   7.605 -0.2998  0.0896  0.1805
 5714TIP3    H238778   6.205   0.669   7.454  0.0821 -0.0162  0.1876
 5715TIP3   OH238779   1.229   3.315   0.851  0.4390 -0.5750 -0.4487
 5715TIP3    H138780   1.162   3.285   0.790  0.3395 -1.3738  0.0318
 5715TIP3    H238781   1.303   3.338   0.796  0.5737 -1.8676 -0.8565
 5716TIP3   OH238782   4.839   4.745   2.194 -0.1987  0.1639  0.7883
 5716TIP3    H138783   4.778   4.711   2.129 -0.1463  1.9769 -0.2532
 5716TIP3    H238784   4.841   4.677   2.262 -1.9955 -0.7381  0.0079
 5717TIP3   OH238785   5.995   0.159   2.305  0.4979  0.2324 -0.2290
 5717TIP3    H138786   5.951   0.185   2.386 -0.8473 -0.5498 -0.6598
 5717TIP3    H238787   6.065   0.100   2.333 -1.2649 -1.7335  0.3040
 5718TIP3   OH238788   3.800   5.693   1.716  0.1717 -0.5687  0.4718
 5718TIP3    H138789   3.809   5.674   1.623 -2.1211  1.2831 -0.2243
 5718TIP3    H238790   3.884   5.731   1.741  0.9882 -1.5333 -0.7042
 5719TIP3   OH238791   0.721   0.949   1.453  0.5617 -0.0400 -0.0715
 5719TIP3    H138792   0.813   0.969   1.470  0.4809  0.0942  0.2131
 5719TIP3    H238793   0.675   1.030   1.475  0.6456  0.8579 -2.8475
 5720TIP3   OH238794   6.250   2.518   7.610  0.4195  0.0863  0.2197
 5720TIP3    H138795   6.178   2.502   7.671 -0.6196  1.1258 -0.6949
 5720TIP3    H238796   6.313   2.448   7.628 -0.3564 -0.2535  1.7227
 5721TIP3   OH238797   1.697   6.499   8.103  0.9147  0.0573 -0.0146
 5721TIP3    H138798   1.661   6.469   8.187 -0.9582  0.9026 -0.4768
 5721TIP3    H238799   1.684   6.424   8.044 -0.4729  0.4628 -0.2616
 5722TIP3   OH238800   1.945   2.880   1.419  0.2850  0.6036 -0.1800
 5722TIP3    H138801   1.861   2.889   1.375  0.4044  1.1953 -0.2948
 5722TIP3    H238802   2.006   2.928   1.364  0.4643  1.2207  0.5414
 5723TIP3   OH238803   3.517   4.691   2.361 -0.3801  0.5853 -0.2046
 5723TIP3    H138804   3.446   4.627   2.361  0.1490 -0.1687 -3.1144
 5723TIP3    H238805   3.569   4.669   2.439 -0.5109 -2.2568 -0.8033
 5724TIP3   OH238806   1.676   4.662   8.214 -0.4809  0.0044  0.1186
 5724TIP3    H138807   1.727   4.731   8.257  0.9630 -0.6343 -0.4959
 5724TIP3    H238808   1.602   4.647   8.272 -0.0069  1.0240  1.0210
 5725TIP3   OH238809   4.253   5.464   7.424 -0.3615 -0.1904  0.1675
 5725TIP3    H138810   4.158   5.473   7.437 -0.0834  0.3151  2.1663
 5725TIP3    H238811   4.286   5.554   7.423  0.2675 -0.3933  1.1410
 5726TIP3   OH238812   1.981   3.965   7.770  0.0463  0.3810 -0.5803
 5726TIP3    H138813   1.886   3.959   7.766 -0.0060  0.8879 -0.1467
 5726TIP3    H238814   2.004   4.022   7.696  0.0406  0.0042 -0.8742
 5727TIP3   OH238815   5.720   0.176   2.946 -0.0090 -0.0112 -0.2578
 5727TIP3    H138816   5.686   0.253   2.991  0.2520  0.2164 -0.4513
 5727TIP3    H238817   5.743   0.207   2.859  0.3182 -0.2530 -0.2611
 5728TIP3   OH238818   1.636   6.701   2.415 -0.5446  0.1290 -0.1295
 5728TIP3    H138819   1.621   6.680   2.323 -1.6142  3.6542 -0.9307
 5728TIP3    H238820   1.633   6.617   2.460  0.7739 -1.8327 -3.3425
 5729TIP3   OH238821   1.156   2.368   1.768 -0.1450  0.0357  0.2848
 5729TIP3    H138822   1.248   2.377   1.743  0.1011 -0.2926  1.0400
 5729TIP3    H238823   1.157   2.365   1.864 -0.8557 -0.8485  0.2820
 5730TIP3   OH238824   4.774   1.199   2.543  0.0212 -0.1231 -0.8059
 5730TIP3    H138825   4.744   1.241   2.623  1.1696 -1.0604  0.1727
 5730TIP3    H238826   4.740   1.109   2.549  0.3577 -0.2831 -1.2102
 5731TIP3   OH238827   6.101   1.406   0.702 -0.4376 -0.0068  0.3947
 5731TIP3    H138828   6.024   1.437   0.655 -0.3062 -0.6210 -0.2335
 5731TIP3    H238829   6.144   1.346   0.642  1.1008  1.0908  0.3217
 5732TIP3   OH238830   0.036   3.230   8.059  0.0685  0.1470 -0.4404
 5732TIP3    H138831   0.088   3.288   8.115  0.1583 -0.8694  0.5632
 5732TIP3    H238832   0.003   3.162   8.118 -0.6909 -0.3850 -1.4400
 5733TIP3   OH238833   0.869   6.620   7.757  0.0934 -0.4521 -0.3942
 5733TIP3    H138834   0.896   6.615   7.848  1.3316 -1.0746 -0.7661
 5733TIP3    H238835   0.815   6.542   7.743  1.6317 -1.5257 -0.6898
 5734TIP3   OH238836   2.771   1.741   6.849  0.0299 -0.0147 -0.4823
 5734TIP3    H138837   2.798   1.810   6.789  0.4897 -0.2319 -0.5250
 5734TIP3    H238838   2.805   1.770   6.934 -0.2537  0.0828 -0.4015
 5735TIP3   OH238839   2.327   1.682   1.460  0.1579 -0.5083 -0.2162
 5735TIP3    H138840   2.281   1.764   1.447  0.3339 -0.0523  1.6844
 5735TIP3    H238841   2.269   1.616   1.422 -1.7860  0.1235  1.4462
 5736TIP3   OH238842   0.255   2.295   7.332 -0.7561  0.1701 -0.0680
 5736TIP3    H138843   0.160   2.279   7.332 -0.9306  1.1370 -0.7685
 5736TIP3    H238844   0.265   2.383   7.297  0.3064  0.7584  1.5558
 5737TIP3   OH238845   0.527   2.248   7.796  0.5005 -0.3460  0.1105
 5737TIP3    H138846   0.607   2.274   7.841  0.0040 -0.8041  1.3106
 5737TIP3    H238847   0.535   2.285   7.708  2.0209 -0.4040  0.2103
 5738TIP3   OH238848   6.247   0.671   6.957 -0.2048  0.4413 -0.3835
 5738TIP3    H138849   6.190   0.597   6.977 -1.4479  1.0905 -1.3696
 5738TIP3    H238850   6.188   0.739   6.924  1.3358  0.1768 -4.3110
 5739TIP3   OH238851   5.993   2.450   8.448 -0.0857  0.1300 -0.0754
 5739TIP3    H138852   5.901   2.423   8.441  0.0654 -0.5703  0.5212
 5739TIP3    H238853   6.017   2.476   8.359 -0.3476 -1.3990 -0.6235
 5740TIP3   OH238854   1.327   4.960   7.903 -0.2843 -0.2726  0.1952
 5740TIP3    H138855   1.321   4.867   7.882  0.5084 -0.0956 -0.9741
 5740TIP3    H238856   1.420   4.975   7.917 -0.4693  0.2456  0.9120
 5741TIP3   OH238857   0.501   5.120   6.882  0.1875 -0.2990 -0.0225
 5741TIP3    H138858   0.439   5.048   6.890  1.3264 -1.2438  0.5749
 5741TIP3    H238859   0.457   5.194   6.925 -0.2988 -1.1054  0.9194
 5742TIP3   OH238860   0.051   0.265   8.345 -0.5939 -0.5964  0.3439
 5742TIP3    H138861   0.137   0.244   8.381 -0.8743 -2.4142  0.0303
 5742TIP3    H238862   0.031   0.352   8.380  2.2615  0.8656 -1.2055
 5743TIP3   OH238863   4.260   6.043   1.929 -0.2134 -0.4262 -0.0985
 5743TIP3    H138864   4.220   6.088   2.004  0.5427  3.6383 -1.8322
 5743TIP3    H238865   4.323   5.983   1.968 -0.7718  0.5545  2.5504
 5744TIP3   OH238866   6.389   2.925   0.232 -0.0525 -0.8705 -0.7534
 5744TIP3    H138867   6.362   2.845   0.277  0.3671 -0.6243 -0.0465
 5744TIP3    H238868   6.329   2.992   0.265  0.6202 -0.5735 -0.1069
 5745TIP3   OH238869   5.685   6.740   7.774 -0.3439  0.6673  0.6299
 5745TIP3    H138870   5.762   6.795   7.783 -0.1381  0.3603  0.7401
 5745TIP3    H238871   5.612   6.802   7.770 -0.2478  0.9056  2.0398
 5746TIP3   OH238872   0.117   5.243   7.093  0.0624 -0.9819 -0.4539
 5746TIP3    H138873   0.158   5.324   7.122  2.0146 -1.9373 -0.3881
 5746TIP3    H238874   0.150   5.230   7.004 -2.6952 -0.1681 -1.7395
 5747TIP3   OH238875   2.449   0.589   7.486 -0.1245 -0.3790 -0.7622
 5747TIP3    H138876   2.379   0.583   7.550  0.4811 -3.2903 -0.2592
 5747TIP3    H238877   2.427   0.524   7.419  0.2341  1.2672 -2.5990
 5748TIP3   OH238878   1.715   6.600   8.502 -0.1458 -0.1207  0.8151
 5748TIP3    H138879   1.733   6.519   8.549 -1.1330 -0.3484  0.8249
 5748TIP3    H238880   1.645   6.641   8.551 -1.3266 -0.4497 -0.5276
 5749TIP3   OH238881   2.745   6.940   6.839  0.2092  0.2490  0.5458
 5749TIP3    H138882   2.700   6.927   6.755  0.6539 -2.0198  0.5994
 5749TIP3    H238883   2.690   6.895   6.902  2.1951 -2.1770  0.6930
 5750TIP3   OH238884   6.760   2.029   8.421 -0.0250 -0.2771  0.2269
 5750TIP3    H138885   6.743   1.949   8.370  1.3209 -0.9036  0.7039
 5750TIP3    H238886   6.804   1.997   8.500 -1.4910  0.7336  1.5050
 5751TIP3   OH238887   3.852   6.547   1.636  0.4111 -0.0401 -0.4632
 5751TIP3    H138888   3.911   6.622   1.640  1.9984 -1.2519 -0.2736
 5751TIP3    H238889   3.900   6.476   1.678 -1.3524 -0.9880  0.0385
 5752TIP3   OH238890   0.345   4.072   7.473 -0.5225 -0.0660 -0.3180
 5752TIP3    H138891   0.369   4.024   7.553 -0.3052 -0.3780 -0.5683
 5752TIP3    H238892   0.413   4.048   7.410 -0.8089  0.0184 -0.6590
 5753TIP3   OH238893   1.438   4.697   2.584  0.1928 -0.4563 -0.1797
 5753TIP3    H138894   1.391   4.757   2.642 -1.5802  0.0252 -2.0018
 5753TIP3    H238895   1.462   4.623   2.640 -1.3902 -0.0094  1.1623
 5754TIP3   OH238896   2.201   3.876   7.445 -0.1616  0.6018 -0.0992
 5754TIP3    H138897   2.240   3.927   7.374  2.0468  0.0813  0.6669
 5754TIP3    H238898   2.235   3.916   7.525 -1.1669  0.0618  0.6170
 5755TIP3   OH238899   0.223   3.245   1.222  0.3077 -0.3315  0.4212
 5755TIP3    H138900   0.173   3.198   1.155  0.7689 -0.6416  0.2883
 5755TIP3    H238901   0.263   3.318   1.175  0.3154 -0.3250  0.4377
 5756TIP3   OH238902   2.801   4.954   7.926  0.2709 -0.8572  0.3623
 5756TIP3    H138903   2.707   4.968   7.924 -0.1793 -3.5611 -1.5253
 5756TIP3    H238904   2.821   4.940   8.019 -1.8678 -3.7242  0.5231
 5757TIP3   OH238905   3.120   4.304   0.033  0.1370  0.0396 -0.0850
 5757TIP3    H138906   3.176   4.302   0.111 -0.6866 -0.2927  0.5080
 5757TIP3    H238907   3.137   4.222  -0.012  1.2082  0.5723 -0.7008
 5758TIP3   OH238908   0.502   1.288   2.725  0.1519 -0.7434  0.3637
 5758TIP3    H138909   0.425   1.332   2.691 -0.7409 -3.0064 -0.7377
 5758TIP3    H238910   0.573   1.316   2.668  0.1315  1.0223  1.1262
 5759TIP3   OH238911   5.291   4.356   1.541 -0.0159  0.0594 -0.7369
 5759TIP3    H138912   5.338   4.281   1.578  0.1825  0.3753 -0.3492
 5759TIP3    H238913   5.245   4.320   1.465  0.3188 -0.3924 -0.7278
 5760TIP3   OH238914   4.726   5.811   2.473  0.0577 -0.2804  0.2856
 5760TIP3    H138915   4.650   5.753   2.482 -0.7560  0.7831  0.3922
 5760TIP3    H238916   4.754   5.828   2.563  0.4951 -0.7526  0.2430
 5761TIP3   OH238917   4.901   5.627   7.635  1.0233 -0.1181 -0.2176
 5761TIP3    H138918   4.906   5.651   7.728  0.4871 -2.4641  0.4932
 5761TIP3    H238919   4.992   5.632   7.605  1.2442  0.4346  0.5055
 5762TIP3   OH238920   5.323   3.054   6.961  0.1221  0.4451  0.4994
 5762TIP3    H138921   5.283   3.072   7.045  0.0311 -0.1392  0.5881
 5762TIP3    H238922   5.394   3.118   6.953  0.7657 -0.1243  1.4628
 5763TIP3   OH238923   0.786   2.433   7.645 -0.1651 -0.3034  0.3449
 5763TIP3    H138924   0.848   2.503   7.663  1.3409 -1.7401  1.1131
 5763TIP3    H238925   0.801   2.409   7.554 -2.5169  2.0133 -0.7563
 5764TIP3   OH238926   5.842   6.635   1.643 -0.5137  0.1178  0.2727
 5764TIP3    H138927   5.915   6.625   1.704 -0.4335 -2.6198 -0.1238
 5764TIP3    H238928   5.848   6.725   1.613  0.7519  0.9141  2.6410
 5765TIP3   OH238929   6.261   3.932   8.142  0.0573 -0.3482  0.4802
 5765TIP3    H138930   6.301   3.850   8.116 -0.0850  0.2777 -1.9274
 5765TIP3    H238931   6.167   3.916   8.135  0.0294 -0.0063  0.0253
 5766TIP3   OH238932   5.280   4.841   7.234  0.7879 -0.6427 -0.1169
 5766TIP3    H138933   5.280   4.923   7.184  0.6879 -0.6660 -0.1544
 5766TIP3    H238934   5.261   4.773   7.170 -0.8537 -0.5225  0.1987
 5767TIP3   OH238935   2.875   1.671   2.849 -0.4904 -0.5385  0.1001
 5767TIP3    H138936   2.838   1.715   2.926 -0.2755 -0.2404  0.0374
 5767TIP3    H238937   2.969   1.665   2.867 -0.5459 -1.1737  0.2006
 5768TIP3   OH238938   5.271   6.680   7.755  0.3391  0.2911  0.2150
 5768TIP3    H138939   5.201   6.644   7.809  0.6320 -2.0792 -0.8694
 5768TIP3    H238940   5.350   6.637   7.787  0.8274  0.5049 -0.6769
 5769TIP3   OH238941   1.861   2.568   8.176 -0.5413  0.2169 -0.2303
 5769TIP3    H138942   1.956   2.568   8.172 -0.4617  3.6626 -1.1460
 5769TIP3    H238943   1.841   2.567   8.270  0.2453 -2.2063 -0.0152
 5770TIP3   OH238944   0.472   5.963   1.988 -0.3003  0.4420  0.1061
 5770TIP3    H138945   0.481   6.046   1.943  0.7653  0.2035 -0.1484
 5770TIP3    H238946   0.378   5.952   2.001 -0.4820  1.4016 -0.3773
 5771TIP3   OH238947   1.956   0.421   6.659 -0.1603  0.0449 -0.2344
 5771TIP3    H138948   1.954   0.351   6.723 -1.4582  0.9587  0.7911
 5771TIP3    H238949   2.046   0.422   6.627  0.1555 -1.3470  0.5333
 5772TIP3   OH238950   4.188   4.930   2.160  0.6790 -0.2949  0.0912
 5772TIP3    H138951   4.194   4.859   2.224 -1.8485 -1.0713 -0.4112
 5772TIP3    H238952   4.116   4.905   2.103  1.6944  1.2451 -2.0039
 5773TIP3   OH238953   1.253   1.174   1.889  0.4566  0.6707 -0.8219
 5773TIP3    H138954   1.203   1.212   1.961  2.8089  0.7148  0.9295
 5773TIP3    H238955   1.334   1.144   1.930  0.8796 -1.5774 -3.0558
 5774TIP3   OH238956   4.800   2.000   2.327 -0.0257  0.3260 -0.0637
 5774TIP3    H138957   4.892   2.014   2.302  0.6663 -2.0341  0.7936
 5774TIP3    H238958   4.766   1.941   2.260 -1.2861  1.9590 -0.9340
 5775TIP3   OH238959   1.673   5.523   1.379  0.1818  0.2406  0.2790
 5775TIP3    H138960   1.667   5.562   1.466 -0.1858 -2.9958  1.8640
 5775TIP3    H238961   1.602   5.459   1.376  1.2192 -0.9236 -1.7275
 5776TIP3   OH238962   0.061   2.814   1.802  0.2417  0.3264  0.0140
 5776TIP3    H138963   0.082   2.899   1.764  1.2223 -0.3969 -1.1375
 5776TIP3    H238964   0.139   2.761   1.786 -1.3994 -1.6751 -2.0006
 5777TIP3   OH238965   1.139   2.371   8.462 -0.0575 -0.1849 -0.2966
 5777TIP3    H138966   1.135   2.383   8.557 -1.1919  1.0207 -0.4630
 5777TIP3    H238967   1.120   2.278   8.448 -3.0555  0.1930  0.5419
 5778TIP3   OH238968   6.202   3.709   1.289 -0.8100 -0.1048  0.1833
 5778TIP3    H138969   6.121   3.724   1.241  0.7523 -0.0645 -2.6699
 5778TIP3    H238970   6.246   3.639   1.240  0.8781 -0.1501  1.6572
 5779TIP3   OH238971   1.906   5.240   6.888 -0.0649 -0.1455  0.2810
 5779TIP3    H138972   1.983   5.183   6.880  0.1050  0.0609  0.4530
 5779TIP3    H238973   1.934   5.311   6.944 -0.3014  0.0750  0.1223
 5780TIP3   OH238974   2.188   2.440   2.917  0.2174 -0.1981 -0.4012
 5780TIP3    H138975   2.102   2.439   2.959  0.1892 -0.6543 -0.4635
 5780TIP3    H238976   2.233   2.364   2.952 -0.2680 -1.3352 -2.1108
 5781TIP3   OH238977   3.365   3.601   0.317 -0.0587 -0.0887 -0.2513
 5781TIP3    H138978   3.436   3.644   0.364  0.2415 -1.0920  0.2341
 5781TIP3    H238979   3.306   3.569   0.385  0.5966 -1.9234 -0.4941
 5782TIP3   OH238980   6.077   3.290   1.427  0.3543  0.4987 -0.2790
 5782TIP3    H138981   6.001   3.333   1.388 -0.4255 -0.6391 -0.0607
 5782TIP3    H238982   6.107   3.352   1.494 -0.0300  1.2033 -0.7443
 5783TIP3   OH238983   0.043   0.761   1.852 -0.3454  0.5025 -0.4057
 5783TIP3    H138984  -0.042   0.718   1.839 -1.1922  1.7059  0.8769
 5783TIP3    H238985   0.040   0.837   1.795 -0.5527  1.0743  0.3443
 5784TIP3   OH238986   3.237   1.323   1.340 -0.3920  0.2843  0.3666
 5784TIP3    H138987   3.298   1.367   1.399 -1.0980  0.0590  1.2925
 5784TIP3    H238988   3.199   1.394   1.288 -0.2934  0.5849  0.6931
 5785TIP3   OH238989   4.081   1.830   2.090  0.0975 -0.4492 -0.3018
 5785TIP3    H138990   4.171   1.859   2.104  0.0651 -0.8041  0.6976
 5785TIP3    H238991   4.080   1.740   2.123 -0.7703 -0.2533  0.2069
 5786TIP3   OH238992   5.793   6.576   0.281  0.1450 -0.6253 -0.2017
 5786TIP3    H138993   5.866   6.589   0.221  0.1915  0.2810  0.0302
 5786TIP3    H238994   5.830   6.526   0.354  1.1318  1.6061  0.9332
 5787TIP3   OH238995   4.629   0.028   0.274  0.5477 -0.1464  0.0709
 5787TIP3    H138996   4.654   0.120   0.275 -1.1531  0.4061 -1.6429
 5787TIP3    H238997   4.606   0.008   0.365  1.2517  1.0043  0.5176
 5788TIP3   OH238998   6.862   3.003   1.343 -0.2508  0.0715 -0.5797
 5788TIP3    H138999   6.823   3.020   1.428  0.4022  0.0936 -0.2817
 5788TIP3    H239000   6.870   3.089   1.302  1.3904  0.3445  0.2049
 5789TIP3   OH239001   2.782   3.848   0.473  0.4557  0.2762 -0.4344
 5789TIP3    H139002   2.726   3.925   0.463 -1.3077 -0.9590 -0.7403
 5789TIP3    H239003   2.862   3.881   0.513 -0.2135  2.2632 -0.6251
 5790TIP3   OH239004   4.321   5.906   1.352  0.0479 -0.8702  0.2078
 5790TIP3    H139005   4.312   5.827   1.406  0.5032  0.5384  2.5162
 5790TIP3    H239006   4.231   5.928   1.327 -0.6467  0.1631  3.1959
 5791TIP3   OH239007   4.132   1.381   0.170 -0.2734  0.5408 -0.1393
 5791TIP3    H139008   4.096   1.337   0.247  1.4086 -0.4647  0.1351
 5791TIP3    H239009   4.059   1.431   0.134 -1.9327 -1.4088  0.3320
 5792TIP3   OH239010   4.918   3.766   0.196 -0.2170  0.3843 -0.5386
 5792TIP3    H139011   4.870   3.729   0.122 -0.8963  1.9544 -0.9356
 5792TIP3    H239012   4.870   3.736   0.274 -1.8265  1.7816 -0.9212
 5793TIP3   OH239013   1.657   5.697   1.639 -0.2868  0.6166  0.0766
 5793TIP3    H139014   1.720   5.769   1.644 -0.6200  0.8704  0.7124
 5793TIP3    H239015   1.693   5.630   1.697 -0.8520  0.9664  0.8492
 5794TIP3   OH239016   3.119   0.236   8.413 -1.0804  0.2035 -0.4193
 5794TIP3    H139017   3.081   0.287   8.485 -1.1445  1.6991 -1.4704
 5794TIP3    H239018   3.045   0.216   8.356 -1.0417 -1.0469 -0.0758
 5795TIP3   OH239019   6.541   6.107   1.841  0.2079 -0.4427 -0.4241
 5795TIP3    H139020   6.532   6.113   1.936 -2.7271  3.2234 -0.6876
 5795TIP3    H239021   6.610   6.170   1.819 -1.2042  1.0339 -0.8084
 5796TIP3   OH239022   6.909   3.532   2.302 -0.4584 -0.5055 -0.3388
 5796TIP3    H139023   6.995   3.572   2.313  0.1724 -1.9053 -0.0096
 5796TIP3    H239024   6.853   3.604   2.272  0.4896  0.7514  0.7681
 5797TIP3   OH239025   3.076   2.585   7.475 -0.6943 -0.1703  0.1789
 5797TIP3    H139026   3.095   2.512   7.416 -0.0860 -0.1120  0.3051
 5797TIP3    H239027   2.989   2.615   7.447 -1.3179 -1.4399  0.6318
 5798TIP3   OH239028   6.850   6.815   1.513 -0.5513  0.1848  0.0875
 5798TIP3    H139029   6.833   6.904   1.543 -0.6994  0.6312 -1.2415
 5798TIP3    H239030   6.890   6.771   1.588 -0.2976  1.4240  0.6980
 5799TIP3   OH239031   3.828   0.150   7.844 -0.4200 -0.4451  0.1000
 5799TIP3    H139032   3.757   0.087   7.852  0.4033 -1.2893  0.9366
 5799TIP3    H239033   3.851   0.149   7.751 -1.0637 -0.6407 -0.0586
 5800TIP3   OH239034   1.802   1.931   7.890  0.0103  0.1027  0.4848
 5800TIP3    H139035   1.793   1.935   7.985  0.4071  0.4005  0.5141
 5800TIP3    H239036   1.720   1.894   7.859 -0.7170  1.3742  0.8233
 5801TIP3   OH239037   1.150   1.835   0.112 -0.1918 -0.3910  0.1565
 5801TIP3    H139038   1.197   1.813   0.032  0.3479 -1.6481  0.7912
 5801TIP3    H239039   1.188   1.919   0.140  1.9143 -1.4761  0.7782
 5802TIP3   OH239040   1.023   5.927   0.754  0.2566 -0.0317 -0.4925
 5802TIP3    H139041   1.032   6.021   0.769 -0.6277 -0.1880  1.2448
 5802TIP3    H239042   1.025   5.918   0.659 -0.5741  1.8583 -0.7344
 5803TIP3   OH239043   5.273   1.575   6.895  0.7481  0.4150  0.5288
 5803TIP3    H139044   5.321   1.528   6.963  0.8462  0.9241  0.8122
 5803TIP3    H239045   5.190   1.528   6.887  0.7821  0.2854  0.9143
 5804TIP3   OH239046   6.274   1.111   0.822 -0.2337  0.1376  0.6825
 5804TIP3    H139047   6.228   1.100   0.905  0.7956  0.0483  1.2540
 5804TIP3    H239048   6.333   1.185   0.837 -0.9114  0.9272 -0.3726
 5805TIP3   OH239049   3.327   3.089   2.213  0.2379  0.5704 -0.5998
 5805TIP3    H139050   3.263   3.129   2.154  0.2667  0.1440 -0.9231
 5805TIP3    H239051   3.316   3.137   2.295 -0.1061  0.8768 -0.8171
 5806TIP3   OH239052   1.755   1.969   1.136  0.1566 -0.0371 -0.9267
 5806TIP3    H139053   1.723   1.988   1.224  0.9544 -0.5641 -0.5126
 5806TIP3    H239054   1.850   1.980   1.142  0.7597 -3.8922 -0.6549
 5807TIP3   OH239055   4.491   1.559   2.206  0.0854 -0.3874 -0.3527
 5807TIP3    H139056   4.421   1.548   2.270  1.2687 -1.2445  0.8422
 5807TIP3    H239057   4.540   1.477   2.209  0.8810  0.0233 -1.4897
 5808TIP3   OH239058   3.954   1.298   2.433 -0.1637  0.4529  0.4876
 5808TIP3    H139059   3.865   1.301   2.398 -0.6494 -0.2200  1.6343
 5808TIP3    H239060   4.010   1.300   2.355 -1.1734  0.6605 -0.2527
 5809TIP3   OH239061   1.833   1.719   0.211  0.6233  0.3142 -0.1299
 5809TIP3    H139062   1.764   1.692   0.271 -1.1494  0.0265 -2.1837
 5809TIP3    H239063   1.833   1.653   0.142  3.8323 -0.3781  0.3409
 5810TIP3   OH239064   3.931   3.336   0.819  0.0350 -0.1787  0.9645
 5810TIP3    H139065   3.932   3.427   0.791 -1.4096  0.0399  1.5663
 5810TIP3    H239066   3.871   3.292   0.759 -0.2513 -0.4675  1.4561
 5811TIP3   OH239067   3.962   4.602   0.698 -1.0892 -0.0654  0.1770
 5811TIP3    H139068   3.967   4.645   0.784 -1.7536  0.2086  0.0854
 5811TIP3    H239069   4.027   4.647   0.645 -1.6978  0.7692  0.1165
 5812TIP3   OH239070   3.538   0.222   0.342  0.1589 -0.3106  0.0169
 5812TIP3    H139071   3.619   0.272   0.353  0.0351 -0.1367  0.1221
 5812TIP3    H239072   3.556   0.138   0.385  0.0922 -0.0705  0.5230
 5813TIP3   OH239073   1.063   4.403   7.155  0.8462 -0.3631 -0.1876
 5813TIP3    H139074   1.088   4.339   7.223 -0.5446 -0.5859  0.1381
 5813TIP3    H239075   1.111   4.375   7.077  1.5268 -0.8271  0.3820
 5814TIP3   OH239076   6.762   2.303   8.472 -0.3076  0.0524 -0.1360
 5814TIP3    H139077   6.848   2.342   8.481 -0.4549  0.0632  1.4085
 5814TIP3    H239078   6.779   2.209   8.466 -0.1590  0.0902 -0.2974
 5815TIP3   OH239079   5.904   0.452   1.398 -0.1315 -0.1708 -0.4347
 5815TIP3    H139080   5.960   0.517   1.441  1.0884 -1.5552  0.1550
 5815TIP3    H239081   5.943   0.368   1.422 -0.0986 -1.0595 -3.2968
 5816TIP3   OH239082   5.307   4.987   7.937 -0.0268 -0.3915  0.1904
 5816TIP3    H139083   5.375   5.051   7.956 -0.2348 -0.4862  1.2954
 5816TIP3    H239084   5.334   4.908   7.984  0.3836 -1.2510 -1.3805
 5817TIP3   OH239085   0.530   6.586   1.312 -0.2479 -0.2497  0.1846
 5817TIP3    H139086   0.611   6.633   1.291 -0.4033 -0.2419 -0.4166
 5817TIP3    H239087   0.477   6.650   1.359  0.1853 -0.3258  0.7859
 5818TIP3   OH239088   3.102   6.255   2.315 -0.2265 -0.2448 -0.1899
 5818TIP3    H139089   3.047   6.231   2.240 -2.4195 -0.0929  1.2725
 5818TIP3    H239090   3.104   6.176   2.368 -2.7918  0.9435  1.9001
 5819TIP3   OH239091   4.747   1.954   3.002 -0.4378  0.1026  0.4246
 5819TIP3    H139092   4.695   2.034   3.003 -1.2072 -0.3802  0.4779
 5819TIP3    H239093   4.719   1.906   3.081 -1.5219 -1.1495 -0.6716
 5820TIP3   OH239094   3.013   0.953   7.908  0.1249  0.2210  0.2583
 5820TIP3    H139095   3.094   0.988   7.945  0.0397  0.5760  0.1133
 5820TIP3    H239096   3.018   0.859   7.924  2.8982 -0.6380 -4.0657
 5821TIP3   OH239097   6.888   5.792   1.891  0.0635 -0.1866  0.2335
 5821TIP3    H139098   6.925   5.837   1.816 -1.3494 -0.7389 -0.8351
 5821TIP3    H239099   6.951   5.722   1.911  0.6902  0.2784 -0.0991
 5822TIP3   OH239100   0.702   1.299   8.383  0.5610 -0.0509  0.5670
 5822TIP3    H139101   0.620   1.329   8.343  0.6038  0.0587  0.5619
 5822TIP3    H239102   0.706   1.345   8.467 -1.6376 -3.3520  2.7251
 5823TIP3   OH239103   4.865   4.456   7.530  0.3011  0.4152  0.6047
 5823TIP3    H139104   4.940   4.494   7.485  1.3055 -1.3784  0.6764
 5823TIP3    H239105   4.817   4.410   7.460  1.0437 -1.1062  1.0502
 5824TIP3   OH239106   0.714   5.589   7.953  0.2400  0.0484 -0.1214
 5824TIP3    H139107   0.729   5.653   8.024  1.0527 -0.3431  0.0676
 5824TIP3    H239108   0.625   5.557   7.969 -0.3931  1.4990 -0.5203
 5825TIP3   OH239109   1.751   2.994   2.684 -0.1694  0.1914  0.0337
 5825TIP3    H139110   1.748   2.942   2.604  2.9819  2.7056 -1.9988
 5825TIP3    H239111   1.660   3.016   2.702 -1.3361 -3.2960 -0.7097
 5826TIP3   OH239112   0.095   5.707   7.431  0.2022  0.4083 -0.2168
 5826TIP3    H139113   0.184   5.683   7.455 -0.1003 -0.0575  0.4628
 5826TIP3    H239114   0.104   5.748   7.345  1.3462  2.4845  0.8278
 5827TIP3   OH239115   3.793   4.731   1.900 -0.4097  0.4980 -0.0603
 5827TIP3    H139116   3.796   4.685   1.817 -1.3446 -2.3737  1.3718
 5827TIP3    H239117   3.720   4.793   1.891  1.2613  2.3299 -2.2432
 5828TIP3   OH239118   1.962   6.753   7.101 -0.8596  0.0162 -0.7938
 5828TIP3    H139119   1.936   6.788   7.187 -1.5692  0.5625 -1.2145
 5828TIP3    H239120   1.906   6.676   7.089 -1.3455  0.4099 -1.1097
 5829TIP3   OH239121   3.065   6.590   7.011 -0.4220 -0.2201  0.8746
 5829TIP3    H139122   3.148   6.560   6.975 -0.9660 -0.9394  0.1831
 5829TIP3    H239123   3.087   6.667   7.064  0.4998  0.3902 -0.3622
 5830TIP3   OH239124   1.684   5.998   0.306 -0.3087  0.1669  0.6563
 5830TIP3    H139125   1.714   5.978   0.217  0.7972  0.5337  0.9363
 5830TIP3    H239126   1.633   6.078   0.297 -1.5865 -0.6672  0.1175
 5831TIP3   OH239127   6.540   1.941   0.926  0.0990 -0.6034 -0.1976
 5831TIP3    H139128   6.457   1.909   0.891 -0.9333  1.0869  0.5458
 5831TIP3    H239129   6.580   1.865   0.968 -1.0082 -1.4808 -0.6818
 5832TIP3   OH239130   3.957   2.405   6.807  0.5177  0.3649 -0.1637
 5832TIP3    H139131   4.021   2.334   6.817  0.6482  0.6095  0.8781
 5832TIP3    H239132   3.881   2.377   6.858  0.5104  0.8960  0.1256
 5833TIP3   OH239133   4.535   3.201   7.943 -0.4480 -0.4377  0.1297
 5833TIP3    H139134   4.576   3.119   7.916  0.3979  0.2106 -0.6078
 5833TIP3    H239135   4.577   3.223   8.025 -1.4965 -1.3133  0.9288
 5834TIP3   OH239136   0.482   6.518   7.481  0.0722 -0.6022  0.0405
 5834TIP3    H139137   0.446   6.513   7.569  0.9075 -0.2158  0.4086
 5834TIP3    H239138   0.542   6.444   7.475  1.4408  0.4264  0.4689
 5835TIP3   OH239139   5.628   2.636   8.399 -0.4867 -0.0517  0.1951
 5835TIP3    H139140   5.634   2.553   8.445  2.0240  0.3023  0.6469
 5835TIP3    H239141   5.646   2.615   8.307  0.8281  0.0452  0.4138
 5836TIP3   OH239142   1.817   5.167   1.622  0.0860  0.1987  0.0026
 5836TIP3    H139143   1.888   5.228   1.602 -0.7482  1.3255  0.3495
 5836TIP3    H239144   1.823   5.152   1.716 -1.3953  2.0270  0.4538
 5837TIP3   OH239145   1.561   4.021   0.282  0.0534  0.0119 -0.2026
 5837TIP3    H139146   1.638   4.066   0.247 -0.3141  0.0784 -0.9344
 5837TIP3    H239147   1.487   4.072   0.252 -0.3005 -0.2385  0.2267
 5838TIP3   OH239148   2.955   6.097   0.255  0.1560 -0.9623  0.0965
 5838TIP3    H139149   2.995   6.024   0.301 -0.1970 -1.2822 -0.0981
 5838TIP3    H239150   3.014   6.115   0.181  1.2602  0.2082  1.2135
 5839TIP3   OH239151   2.321   2.180   8.392  0.3109 -0.0071 -0.2073
 5839TIP3    H139152   2.338   2.274   8.380 -0.1114 -0.0585 -1.4466
 5839TIP3    H239153   2.226   2.173   8.389  0.3720 -0.5790 -1.1282
 5840TIP3   OH239154   2.287   4.852   2.215 -0.4096  0.0615  0.7475
 5840TIP3    H139155   2.269   4.934   2.168 -0.6971 -0.4373 -0.0307
 5840TIP3    H239156   2.201   4.809   2.221 -0.5449  0.5302  2.5530
 5841TIP3   OH239157   0.282   2.568   7.313 -0.3182  0.6157  0.3157
 5841TIP3    H139158   0.301   2.635   7.248  1.8992  0.7082  0.9680
 5841TIP3    H239159   0.277   2.615   7.396 -0.2232  0.1544  0.5888
 5842TIP3   OH239160   1.998   1.701   3.182  0.5484  0.0127  0.5738
 5842TIP3    H139161   1.997   1.754   3.103  3.5725 -1.5348 -0.6450
 5842TIP3    H239162   1.978   1.612   3.153 -1.1440 -0.1671  2.0636
 5843TIP3   OH239163   0.905   1.912   0.572 -0.0943  0.2970  0.2079
 5843TIP3    H139164   0.875   2.001   0.555 -0.4596  0.0924 -0.2558
 5843TIP3    H239165   0.949   1.916   0.657 -1.3278  0.6284  0.8382
 5844TIP3   OH239166   2.359   6.245   1.987 -0.0184 -0.1348 -0.2185
 5844TIP3    H139167   2.293   6.175   1.987 -1.5374  1.1970  1.5077
 5844TIP3    H239168   2.380   6.257   1.894 -1.0133 -1.6996 -0.6934
 5845TIP3   OH239169   5.263   0.402   2.792 -0.4218 -0.4995  0.6878
 5845TIP3    H139170   5.175   0.428   2.819 -0.8397 -0.3780 -0.7317
 5845TIP3    H239171   5.299   0.481   2.750 -0.0791 -0.9037  0.2177
 5846TIP3   OH239172   6.642   4.920   2.365  0.0241  0.3795  0.0495
 5846TIP3    H139173   6.573   4.985   2.353  1.0745  2.0188  2.1871
 5846TIP3    H239174   6.666   4.928   2.457  0.8930 -2.3943  0.1441
 5847TIP3   OH239175   6.931   6.740   2.854  0.2141 -0.4124  0.2242
 5847TIP3    H139176   6.928   6.836   2.849  1.2893 -0.4017 -0.6738
 5847TIP3    H239177   7.004   6.723   2.915 -1.9127 -0.6804  2.8774
 5848TIP3   OH239178   0.042   6.660   6.685  0.1280 -0.3555 -0.8432
 5848TIP3    H139179   0.102   6.735   6.686 -0.8140  0.4190  0.4516
 5848TIP3    H239180   0.095   6.587   6.654  1.8742  0.2039  0.6833
 5849TIP3   OH239181   4.606   2.192   2.675 -0.1867  0.2696 -0.1981
 5849TIP3    H139182   4.591   2.286   2.687  1.0831  0.2393  2.0911
 5849TIP3    H239183   4.590   2.154   2.761 -0.6782 -1.6457 -1.0826
 5850TIP3   OH239184   0.951   2.662   1.033  0.2980  0.1487 -0.7099
 5850TIP3    H139185   0.926   2.721   1.105  4.1143  3.1527 -1.4466
 5850TIP3    H239186   0.998   2.591   1.076  0.0957  0.4107 -0.0417
 5851TIP3   OH239187   0.638   5.416   0.007 -0.0200 -0.0498 -0.3419
 5851TIP3    H139188   0.587   5.454  -0.065 -0.2372  1.6604  0.6614
 5851TIP3    H239189   0.593   5.335   0.028 -0.6325  0.0033 -1.3559
 5852TIP3   OH239190   6.703   0.467   1.392 -0.1283 -0.1173  0.2865
 5852TIP3    H139191   6.695   0.435   1.482  2.0939 -1.5637  0.0554
 5852TIP3    H239192   6.703   0.562   1.400  0.2849 -0.2162  1.8721
 5853TIP3   OH239193   6.265   3.135   0.358  0.1781 -0.8155  0.0750
 5853TIP3    H139194   6.202   3.141   0.430  1.6107  0.7619  1.2698
 5853TIP3    H239195   6.229   3.193   0.290  0.0286 -0.4158  0.4889
 5854TIP3   OH239196   3.952   0.911   8.072 -0.4685 -0.2410 -0.0027
 5854TIP3    H139197   3.878   0.888   8.017  1.5723  0.4395 -3.3081
 5854TIP3    H239198   3.969   0.833   8.124 -1.9902 -1.2632 -0.9657
 5855TIP3   OH239199   1.885   5.805   1.033 -0.4744 -0.1537 -0.0714
 5855TIP3    H139200   1.857   5.877   1.089 -0.6861 -0.4034  0.1412
 5855TIP3    H239201   1.979   5.822   1.018 -0.9778  1.4287 -1.8786
 5856TIP3   OH239202   4.119   1.075   8.297 -0.5629  0.6807 -0.2171
 5856TIP3    H139203   4.110   1.030   8.381  0.8332  2.1932  0.8168
 5856TIP3    H239204   4.131   1.005   8.233  1.8381 -0.4804  1.3464
 5857TIP3   OH239205   2.857   2.745   2.114 -0.3204  0.2936  0.2053
 5857TIP3    H139206   2.945   2.761   2.081 -0.5906  1.7739  0.1193
 5857TIP3    H239207   2.824   2.673   2.061  0.2913  0.7263 -0.7914
 5858TIP3   OH239208   4.710   0.463   8.368  0.7478  0.1225 -0.3304
 5858TIP3    H139209   4.780   0.422   8.317  0.4051  0.0271 -0.7272
 5858TIP3    H239210   4.754   0.498   8.445  1.2969  0.4176 -0.7761
 5859TIP3   OH239211   1.809   2.274   1.811 -0.4661 -0.6487 -0.2263
 5859TIP3    H139212   1.789   2.324   1.890 -4.1395 -2.2425  0.0452
 5859TIP3    H239213   1.770   2.325   1.740 -1.6569 -1.6317 -0.3076
 5860TIP3   OH239214   6.574   0.586   0.315 -0.6722 -0.2201 -0.6512
 5860TIP3    H139215   6.542   0.675   0.301 -3.0887 -1.2684 -2.5111
 5860TIP3    H239216   6.551   0.539   0.234  2.3185 -2.0935 -0.5867
 5861TIP3   OH239217   2.505   6.639   0.672  0.2309  0.2106 -0.5829
 5861TIP3    H139218   2.529   6.623   0.580 -1.6541 -1.3394 -0.8668
 5861TIP3    H239219   2.577   6.691   0.706  1.1814  0.5149 -2.8396
 5862TIP3   OH239220   0.433   1.342   1.890 -0.3168  0.1717 -0.0901
 5862TIP3    H139221   0.524   1.320   1.910 -0.5739 -0.6767  0.2345
 5862TIP3    H239222   0.418   1.306   1.803 -1.7982 -4.7111  1.7825
 5863TIP3   OH239223   4.975   4.813   1.471 -0.3184  0.0448  0.3423
 5863TIP3    H139224   4.954   4.848   1.558 -1.6597  0.5958 -0.1837
 5863TIP3    H239225   5.064   4.778   1.481 -0.4784  0.0132  1.9514
 5864TIP3   OH239226   0.473   6.300   2.107 -0.1094 -0.1189  0.1621
 5864TIP3    H139227   0.511   6.258   2.185  2.1794  2.3377  0.5147
 5864TIP3    H239228   0.412   6.235   2.073  0.8239 -2.3915  2.4459
 5865TIP3   OH239229   3.960   6.689   1.368  0.0944  0.0683  0.6149
 5865TIP3    H139230   4.038   6.744   1.378  0.9192 -0.8108 -0.6182
 5865TIP3    H239231   3.974   6.616   1.428  0.2464 -0.1049  0.3717
 5866TIP3   OH239232   2.214   5.910   8.119 -0.1993  0.0703  0.6811
 5866TIP3    H139233   2.190   5.914   8.027  0.0044 -1.3076  0.5438
 5866TIP3    H239234   2.292   5.965   8.126 -0.6173  0.7300  0.1722
 5867TIP3   OH239235   5.961   6.803   7.226 -0.7756  0.0336  0.1214
 5867TIP3    H139236   5.905   6.728   7.245  0.0071 -0.4756  0.4672
 5867TIP3    H239237   6.049   6.776   7.253 -0.4619  1.0511  0.1979
 5868TIP3   OH239238   6.926   5.035   2.558 -0.3188 -0.2008 -0.2879
 5868TIP3    H139239   6.995   5.026   2.623 -1.6043  0.4933  1.2444
 5868TIP3    H239240   6.919   5.129   2.542 -0.3944 -0.3244 -1.0080
 5869TIP3   OH239241   3.617   3.583   8.384  0.0367  0.0992  0.4050
 5869TIP3    H139242   3.552   3.539   8.330  1.2188 -2.5192  0.9838
 5869TIP3    H239243   3.692   3.597   8.326  0.0590  0.4240  0.5057
 5870TIP3   OH239244   3.183   2.057   7.330  0.3932  0.1999  0.3692
 5870TIP3    H139245   3.158   2.128   7.270 -2.1002 -1.0458 -0.1848
 5870TIP3    H239246   3.118   1.988   7.314  2.6242 -2.1904  1.0016
 5871TIP3   OH239247   4.526   1.790   8.284 -0.4264 -0.1339 -0.2466
 5871TIP3    H139248   4.527   1.738   8.364 -1.1440 -0.6402 -0.5486
 5871TIP3    H239249   4.600   1.850   8.292 -0.2563 -0.4537  0.6089
 5872TIP3   OH239250   5.045   6.671   1.864 -0.0355 -0.7175  0.1962
 5872TIP3    H139251   5.063   6.717   1.946 -1.6876  1.3381 -0.5293
 5872TIP3    H239252   5.045   6.739   1.797  2.6909 -2.5145 -1.8459
 5873TIP3   OH239253   6.160   5.537   8.504 -0.4749 -0.1706  0.2083
 5873TIP3    H139254   6.128   5.460   8.457  0.6961 -0.7190  0.2889
 5873TIP3    H239255   6.254   5.524   8.510 -0.0519  1.9621 -1.0085
 5874TIP3   OH239256   1.397   6.778   8.431 -0.6399  0.2582  0.2719
 5874TIP3    H139257   1.439   6.734   8.357  0.4701  0.0851  0.9898
 5874TIP3    H239258   1.440   6.862   8.438  2.2803 -1.2643  3.2238
 5875TIP3   OH239259   6.684   1.427   8.374 -0.0642  0.2744  0.0323
 5875TIP3    H139260   6.745   1.420   8.447  0.2558 -0.7795 -0.3144
 5875TIP3    H239261   6.602   1.392   8.407 -0.4163  1.4288  0.4114
 5876TIP3   OH239262   6.302   6.645   8.509  0.0442  0.0768  0.5599
 5876TIP3    H139263   6.380   6.653   8.564  0.4152 -0.7110  0.1551
 5876TIP3    H239264   6.315   6.564   8.460  0.6007  1.6606 -2.0936
 5877TIP3   OH239265   1.667   3.939   1.651  0.1528  0.1648 -0.1927
 5877TIP3    H139266   1.657   3.844   1.641 -0.9613  0.1736  0.5703
 5877TIP3    H239267   1.761   3.954   1.654  0.3362 -1.0298  0.5597
 5878TIP3   OH239268   4.710   0.567   2.491  0.1411  0.0198  0.4596
 5878TIP3    H139269   4.652   0.491   2.485 -0.4723  0.4577  0.7457
 5878TIP3    H239270   4.652   0.642   2.478  1.1361  0.3927 -2.7251
 5879TIP3   OH239271   6.429   5.205   7.933  0.2181 -0.1360 -0.1903
 5879TIP3    H139272   6.468   5.118   7.919  0.5195  0.3281 -2.7059
 5879TIP3    H239273   6.503   5.265   7.923  0.2078  0.4377  2.4952
 5880TIP3   OH239274   5.609   4.685   8.244 -0.1916 -0.4263  0.1801
 5880TIP3    H139275   5.591   4.779   8.241  1.5446 -0.0661  0.1291
 5880TIP3    H239276   5.663   4.668   8.167  0.2015 -1.2982  0.6269
 5881TIP3   OH239277   0.258   6.861   1.391  0.2863 -0.5814  0.2804
 5881TIP3    H139278   0.222   6.915   1.461 -0.8210 -2.0661  0.9146
 5881TIP3    H239279   0.323   6.806   1.434  2.2466  0.9623 -0.5680
 5882TIP3   OH239280   0.704   4.662   8.407 -0.3887 -0.2280 -0.0674
 5882TIP3    H139281   0.708   4.667   8.502 -2.1719 -0.8277  0.0874
 5882TIP3    H239282   0.674   4.573   8.389  0.8789 -0.4438 -1.2582
 5883TIP3   OH239283   2.983   1.710   0.949 -0.2335 -0.8180  0.4170
 5883TIP3    H139284   2.910   1.747   0.998  0.6674  0.9242  0.5264
 5883TIP3    H239285   3.061   1.737   0.998  0.5687 -1.1369 -0.6435
 5884TIP3   OH239286   2.070   4.693   2.165 -0.7455  0.0632  0.1601
 5884TIP3    H139287   2.062   4.684   2.070 -1.0848  2.3013 -0.0640
 5884TIP3    H239288   2.065   4.603   2.198 -1.7531 -0.6662 -1.8436
 5885TIP3   OH239289   0.208   4.661   7.559 -0.2028  0.2399  0.0653
 5885TIP3    H139290   0.130   4.712   7.539 -0.8362 -0.1703  1.3487
 5885TIP3    H239291   0.189   4.620   7.644  1.4412  0.2087  0.4626
 5886TIP3   OH239292   5.885   3.891   1.062  0.6772  0.0263  0.5942
 5886TIP3    H139293   5.947   3.959   1.035  0.7508  0.7035  2.3093
 5886TIP3    H239294   5.910   3.871   1.152 -1.0498 -0.3011  1.0442
 5887TIP3   OH239295   3.015   4.578   0.971 -0.0735 -0.0784  0.1181
 5887TIP3    H139296   2.988   4.506   0.914  1.3164 -1.3647  0.9888
 5887TIP3    H239297   2.956   4.574   1.046 -0.2368 -0.0705 -0.0108
 5888TIP3   OH239298   4.620   3.214   2.081 -0.0748  0.1192 -0.3010
 5888TIP3    H139299   4.593   3.161   2.006 -1.0661  1.4564 -0.9380
 5888TIP3    H239300   4.562   3.291   2.079  1.0909  1.0883  0.7527
 5889TIP3   OH239301   1.276   0.329   0.799 -0.2557 -0.4135 -0.5287
 5889TIP3    H139302   1.303   0.401   0.742 -1.0191  0.1431 -0.2048
 5889TIP3    H239303   1.357   0.298   0.838  0.2958 -0.8863 -2.0054
 5890TIP3   OH239304   5.542   1.458   0.069 -0.0771  0.2835 -0.0006
 5890TIP3    H139305   5.451   1.429   0.065  0.4150 -1.4758  0.5598
 5890TIP3    H239306   5.547   1.530   0.007 -0.9149 -2.1995 -3.1983
 5891TIP3   OH239307   5.748   2.291   8.446 -0.2925  0.2308  0.1602
 5891TIP3    H139308   5.764   2.254   8.360 -1.7294  0.9983 -0.4811
 5891TIP3    H239309   5.805   2.243   8.505 -1.6650 -2.6316 -0.6805
 5892TIP3   OH239310   0.135   5.594   1.918  0.0215 -0.0423  0.2176
 5892TIP3    H139311   0.134   5.536   1.995 -2.3993  2.0469  1.9289
 5892TIP3    H239312   0.185   5.671   1.948  0.3874  0.1551 -0.8772
 5893TIP3   OH239313   3.361   0.947   2.092 -0.2542 -0.3056  0.3407
 5893TIP3    H139314   3.267   0.931   2.082 -0.5555  0.8903  1.0685
 5893TIP3    H239315   3.396   0.936   2.003 -1.1289 -0.4598 -0.0004
 5894TIP3   OH239316   5.345   4.197   7.734  0.4732 -0.1102 -0.5650
 5894TIP3    H139317   5.280   4.200   7.804 -0.7228  0.4674 -1.6619
 5894TIP3    H239318   5.309   4.135   7.670  0.5548  0.8473 -1.5733
 5895TIP3   OH239319   4.999   2.494   2.519 -0.2310  0.8794 -0.6795
 5895TIP3    H139320   4.958   2.495   2.606  1.3947 -1.4707  0.2001
 5895TIP3    H239321   5.030   2.583   2.506 -2.4732  1.8469  0.1195
 5896TIP3   OH239322   6.452   5.502   0.927 -0.0301  0.2770  0.6195
 5896TIP3    H139323   6.448   5.454   1.010  0.2868  2.8660  2.2529
 5896TIP3    H239324   6.425   5.591   0.950  0.2200  1.1306 -2.0577
 5897TIP3   OH239325   1.193   4.442   8.230  1.0359  0.1117  0.7646
 5897TIP3    H139326   1.209   4.496   8.153 -1.0716  0.2388  0.3583
 5897TIP3    H239327   1.098   4.437   8.237  1.1666 -0.5422  2.9227
 5898TIP3   OH239328   1.738   5.611   0.921  0.5865  0.1333  0.6566
 5898TIP3    H139329   1.657   5.637   0.966  0.2710  2.5647 -1.0433
 5898TIP3    H239330   1.802   5.677   0.947  1.7768 -1.1929  1.2025
 5899TIP3   OH239331   4.370   4.352   7.848 -0.0306 -0.0109  0.1341
 5899TIP3    H139332   4.404   4.288   7.786 -0.2142 -0.1726  0.1986
 5899TIP3    H239333   4.371   4.307   7.932 -0.5925 -0.0894  0.1045
 5900TIP3   OH239334   4.177   1.714   7.534  0.3086  0.1786 -0.2312
 5900TIP3    H139335   4.231   1.787   7.504  0.1372  0.8790  1.0820
 5900TIP3    H239336   4.090   1.732   7.498  0.6000 -0.1883 -1.1495
 5901TIP3   OH239337   1.140   1.183   7.287 -0.5748  0.2302  0.2083
 5901TIP3    H139338   1.198   1.259   7.285  0.0526 -0.2447  0.0131
 5901TIP3    H239339   1.081   1.196   7.213  1.2764 -0.7992 -1.5389
 5902TIP3   OH239340   2.770   1.581   7.902 -0.6541  0.1624 -0.4155
 5902TIP3    H139341   2.724   1.551   7.980  0.0926  0.5113  0.1737
 5902TIP3    H239342   2.774   1.505   7.845  1.1042 -0.8634  0.9897
 5903TIP3   OH239343   0.848   5.684   2.313 -0.1836  0.1014  0.4107
 5903TIP3    H139344   0.902   5.608   2.334 -1.1972 -1.0504 -0.9511
 5903TIP3    H239345   0.798   5.701   2.393  0.8421  0.0497  1.0848
 5904TIP3   OH239346   1.107   5.509   7.220  0.0261 -0.0826  0.1073
 5904TIP3    H139347   1.090   5.602   7.202 -0.2785 -0.2789 -0.6626
 5904TIP3    H239348   1.148   5.509   7.306  0.8161  0.8395 -0.2460
 5905TIP3   OH239349   1.428   3.649   0.759 -0.0991  1.6868 -0.0674
 5905TIP3    H139350   1.523   3.637   0.765 -0.3386  0.3357  2.2928
 5905TIP3    H239351   1.397   3.572   0.710  0.0098  2.1365 -0.8526
 5906TIP3   OH239352   2.766   0.518   7.532 -0.3974 -0.1619 -0.1235
 5906TIP3    H139353   2.707   0.588   7.560  0.2459 -0.1725  1.3550
 5906TIP3    H239354   2.732   0.439   7.575 -0.2948 -0.4890 -0.6376
 5907TIP3   OH239355   0.963   4.182   1.326  0.0923  0.5151  0.2252
 5907TIP3    H139356   0.929   4.154   1.241  1.1865  0.1939 -0.1172
 5907TIP3    H239357   1.005   4.266   1.309  1.2656 -0.0595  0.2128
 5908TIP3   OH239358   4.712   3.838   1.552  0.3973 -0.4773  0.4655
 5908TIP3    H139359   4.717   3.834   1.456 -0.2524 -0.2831  0.4206
 5908TIP3    H239360   4.804   3.834   1.580  0.5596 -1.3246 -0.1291
 5909TIP3   OH239361   6.447   6.622   7.122 -0.1549  0.4241  0.0185
 5909TIP3    H139362   6.370   6.677   7.111 -0.6039 -0.6080 -2.6688
 5909TIP3    H239363   6.421   6.537   7.088  1.0744 -1.0435  2.4260
 5910TIP3   OH239364   0.759   6.748   1.263 -0.3942 -0.4009 -0.0281
 5910TIP3    H139365   0.777   6.820   1.203 -0.4399  0.4596  0.9469
 5910TIP3    H239366   0.804   6.773   1.344 -2.0259 -0.4916  0.9600
 5911TIP3   OH239367   6.264   2.821   7.210  0.2991  0.0122  0.1313
 5911TIP3    H139368   6.205   2.877   7.159 -0.6112  1.1588  2.2863
 5911TIP3    H239369   6.235   2.732   7.192 -0.5827  0.4397 -0.6326
 5912TIP3   OH239370   3.108   3.700   2.846 -0.1891 -0.2058  0.0412
 5912TIP3    H139371   3.045   3.640   2.805 -1.9064  1.4584  0.0984
 5912TIP3    H239372   3.188   3.649   2.852 -1.2672 -2.1516 -0.8495
 5913TIP3   OH239373   0.171   0.168   8.119  0.0023  0.1561  0.3785
 5913TIP3    H139374   0.119   0.220   8.180  1.4970 -0.3475  2.2062
 5913TIP3    H239375   0.262   0.191   8.139  0.5629  0.6286 -2.3382
 5914TIP3   OH239376   4.747   6.235   0.796 -0.0540 -0.4154  0.1239
 5914TIP3    H139377   4.678   6.169   0.804 -2.0177  1.2380 -1.8508
 5914TIP3    H239378   4.745   6.260   0.704  1.3315  1.6668  0.5991
 5915TIP3   OH239379   0.738   5.713   8.434 -0.1119 -0.2347 -0.1908
 5915TIP3    H139380   0.743   5.633   8.487  2.7809 -0.2559 -0.3413
 5915TIP3    H239381   0.714   5.781   8.497  1.0487 -0.6326  0.7311
 5916TIP3   OH239382   4.841   1.622   0.834 -0.2613  0.5487 -0.3986
 5916TIP3    H139383   4.857   1.711   0.866  0.8233  0.6377 -1.1312
 5916TIP3    H239384   4.853   1.567   0.911  1.7698  0.8103 -0.4720
 5917TIP3   OH239385   2.268   0.955   6.768  0.1873  0.5458  0.0805
 5917TIP3    H139386   2.300   0.956   6.677 -0.0303  0.6678  0.0056
 5917TIP3    H239387   2.305   0.876   6.805  1.4927  1.2322  0.3162
 5918TIP3   OH239388   5.997   6.704   0.542 -0.1144  0.3615  0.2444
 5918TIP3    H139389   6.019   6.771   0.606 -0.7018 -0.9956  1.9622
 5918TIP3    H239390   5.910   6.728   0.510  0.8822  1.9928 -1.4301
 5919TIP3   OH239391   2.240   1.376   0.974 -0.5715 -0.5755 -0.3474
 5919TIP3    H139392   2.168   1.339   1.025  0.6469 -0.4807  1.5227
 5919TIP3    H239393   2.297   1.301   0.955 -0.3937 -0.4070 -0.4900
 5920TIP3   OH239394   6.126   5.201   7.446  0.2940 -0.4210 -0.1705
 5920TIP3    H139395   6.055   5.236   7.392  0.8117  0.9307 -0.0025
 5920TIP3    H239396   6.136   5.110   7.417 -0.6244 -0.2317 -1.1055
 5921TIP3   OH239397   6.922   2.522   8.210 -0.5788  0.4733  0.3634
 5921TIP3    H139398   6.901   2.441   8.256 -1.2563  1.0906  1.1848
 5921TIP3    H239399   6.839   2.570   8.209 -0.1950  1.1379 -0.1533
 5922TIP3   OH239400   1.595   3.536   7.905 -0.2502  0.6490 -0.1961
 5922TIP3    H139401   1.660   3.606   7.902 -0.0187  0.5974  2.0297
 5922TIP3    H239402   1.523   3.573   7.955  0.4402 -1.0477  2.2522
 5923TIP3   OH239403   6.316   5.268   0.380 -0.2488  0.6810  0.1224
 5923TIP3    H139404   6.352   5.342   0.428 -1.5807  2.5895 -1.6253
 5923TIP3    H239405   6.347   5.280   0.290  0.3509 -1.5064 -0.0161
 5924TIP3   OH239406   1.300   1.169   8.382 -0.7668  0.1475 -0.4299
 5924TIP3    H139407   1.265   1.154   8.470 -2.0213  0.3141 -0.8752
 5924TIP3    H239408   1.375   1.226   8.396 -1.3053  0.6612  0.4956
 5925TIP3   OH239409   3.463   0.535   0.715 -0.3292  0.1597  0.5308
 5925TIP3    H139410   3.522   0.500   0.781  0.1062  1.3012  0.7749
 5925TIP3    H239411   3.521   0.566   0.645 -0.7178  0.0498  0.1532
 5926TIP3   OH239412   5.336   6.308   0.064 -0.2090  0.0461 -0.0311
 5926TIP3    H139413   5.344   6.221   0.103 -2.1730  1.0117  2.8645
 5926TIP3    H239414   5.406   6.359   0.103  1.3011 -0.2635 -2.1563
 5927TIP3   OH239415   4.348   0.608   2.161 -0.3021  0.5290 -0.2267
 5927TIP3    H139416   4.261   0.568   2.160 -0.3788  0.7003 -0.6123
 5927TIP3    H239417   4.331   0.702   2.161 -0.1286  0.5847  1.4078
 5928TIP3   OH239418   3.997   3.975   8.143 -0.0809  0.2280 -0.7834
 5928TIP3    H139419   3.958   3.922   8.073  0.7627 -0.2795 -0.8849
 5928TIP3    H239420   4.041   3.911   8.200 -0.7371  0.6392  0.2017
 5929TIP3   OH239421   4.754   5.854   0.979 -0.0538 -0.2478  0.8257
 5929TIP3    H139422   4.706   5.936   0.967  3.2898  1.5402 -2.3004
 5929TIP3    H239423   4.747   5.809   0.895  1.0883 -1.4682  1.3490
 5930TIP3   OH239424   4.159   1.561   1.402 -0.0074 -0.3300 -0.4054
 5930TIP3    H139425   4.203   1.484   1.440 -0.6123 -0.6893 -0.4214
 5930TIP3    H239426   4.218   1.590   1.332  1.3924  0.6541  1.0882
 5931TIP3   OH239427   1.559   0.429   7.929  0.5478 -0.3932 -0.9748
 5931TIP3    H139428   1.512   0.362   7.979  1.2700 -0.8207 -0.8568
 5931TIP3    H239429   1.493   0.496   7.910 -0.0457 -0.8688 -0.6041
 5932TIP3   OH239430   2.890   5.605   1.443 -0.2731 -0.4744 -0.5035
 5932TIP3    H139431   2.909   5.532   1.501  0.9556  0.3206  0.1266
 5932TIP3    H239432   2.967   5.661   1.448 -0.4004 -0.0531 -2.4138
 5933TIP3   OH239433   5.126   3.509   1.842 -0.2699 -0.1015 -0.1505
 5933TIP3    H139434   5.216   3.480   1.831 -0.0970  0.8045 -1.4335
 5933TIP3    H239435   5.077   3.462   1.775 -0.8102 -0.7577  0.6835
 5934TIP3   OH239436   4.052   5.254   2.401  0.0055  0.5437  0.2371
 5934TIP3    H139437   4.058   5.165   2.436  0.4365  0.7211  0.6158
 5934TIP3    H239438   3.958   5.268   2.388  0.0244 -0.6820 -1.7039
 5935TIP3   OH239439   5.967   4.630   1.950 -0.0151 -0.2611  0.0317
 5935TIP3    H139440   6.015   4.707   1.920  0.6493 -0.6424  0.1080
 5935TIP3    H239441   5.884   4.635   1.903 -0.0609  0.6011  0.1777
 5936TIP3   OH239442   6.109   3.898   1.661 -0.3283  0.7009 -0.6690
 5936TIP3    H139443   6.146   3.944   1.737  0.9755 -0.7149 -0.3984
 5936TIP3    H239444   6.135   3.952   1.586  0.9328  0.5862 -0.3387
 5937TIP3   OH239445   5.849   6.933   1.834 -0.1186 -0.4889  0.5341
 5937TIP3    H139446   5.945   6.934   1.836  0.0575 -0.3103 -2.9007
 5937TIP3    H239447   5.826   6.841   1.848  0.6628 -0.8333 -0.3428
 5938TIP3   OH239448   0.292   1.219   8.306  0.2975 -0.5489 -0.0604
 5938TIP3    H139449   0.362   1.284   8.303 -0.9831  0.8274 -2.0071
 5938TIP3    H239450   0.236   1.239   8.232 -1.3533 -2.5677  0.5238
 5939TIP3   OH239451   1.708   6.534   6.238  0.0451  0.1651 -1.1633
 5939TIP3    H139452   1.783   6.532   6.298  0.7787  0.2527 -2.0469
 5939TIP3    H239453   1.632   6.522   6.294  0.8118 -1.5569 -0.4122
 5940TIP3   OH239454   1.765   1.687   0.624 -0.3009  0.3932  0.0150
 5940TIP3    H139455   1.810   1.604   0.636 -0.2007  0.3369 -0.6863
 5940TIP3    H239456   1.703   1.692   0.696  0.3867  0.1738  0.6266
 5941TIP3   OH239457   5.181   3.163   0.718 -0.2573 -0.3483 -0.6747
 5941TIP3    H139458   5.232   3.136   0.641  1.4942  0.8642 -0.0139
 5941TIP3    H239459   5.219   3.247   0.743 -0.5685 -0.8475  1.7011
 5942TIP3   OH239460   6.935   3.196   0.043 -0.6360  0.1849 -0.3649
 5942TIP3    H139461   6.995   3.158  -0.022 -0.8780 -0.9943  0.0661
 5942TIP3    H239462   6.985   3.265   0.086  0.1981 -0.3638 -0.4390
 5943TIP3   OH239463   1.267   1.368   0.820 -0.3922 -0.3805  0.0773
 5943TIP3    H139464   1.190   1.411   0.782  0.1651  0.2613 -0.3505
 5943TIP3    H239465   1.288   1.419   0.897 -0.6395 -0.8081  0.4332
 5944TIP3   OH239466   1.750   3.538   8.511  0.0432  0.1526  0.4866
 5944TIP3    H139467   1.832   3.542   8.461 -1.6245 -1.1418 -2.6954
 5944TIP3    H239468   1.713   3.626   8.504 -0.6725 -0.2565 -1.7076
 5945TIP3   OH239469   1.856   6.099   6.962 -0.0149  0.6292  0.0300
 5945TIP3    H139470   1.917   6.034   6.928  2.3663  1.4671  2.4223
 5945TIP3    H239471   1.873   6.102   7.056 -3.6139  1.1351  0.8456
 5946TIP3   OH239472   3.398   3.021   8.464  0.3530  0.0221 -0.4405
 5946TIP3    H139473   3.353   3.103   8.483  0.0465  0.3688 -2.4720
 5946TIP3    H239474   3.341   2.974   8.403  0.5864 -1.6651  0.5613
 5947TIP3   OH239475   3.434   0.240   3.018 -0.0670  0.3180 -0.4192
 5947TIP3    H139476   3.386   0.278   3.092  0.3908  0.9076 -0.4156
 5947TIP3    H239477   3.371   0.181   2.977 -1.5299  2.5810 -1.6493
 5948TIP3   OH239478   5.059   0.942   8.018 -0.6127  0.1899  0.3327
 5948TIP3    H139479   5.108   0.861   8.005  0.0329  0.5719  0.3938
 5948TIP3    H239480   5.026   0.964   7.930 -1.5761 -0.6204  0.4629
 5949TIP3   OH239481   2.653   2.274   0.105 -0.2032  0.3802 -0.7532
 5949TIP3    H139482   2.720   2.281   0.173  1.5275  0.9244 -2.4196
 5949TIP3    H239483   2.686   2.327   0.033 -1.5649 -0.8025 -2.3341
 5950TIP3   OH239484   6.281   0.765   2.486  0.1508 -0.4160  0.3703
 5950TIP3    H139485   6.233   0.813   2.553  0.3039 -1.2648  1.1019
 5950TIP3    H239486   6.221   0.763   2.411  0.4425  1.5674  0.0373
 5951TIP3   OH239487   2.286   2.147   7.839  0.1815 -0.1809 -0.5011
 5951TIP3    H139488   2.203   2.167   7.796 -0.8583 -0.0975  1.4527
 5951TIP3    H239489   2.330   2.087   7.779 -2.1538 -1.8171 -0.6835
 5952TIP3   OH239490   5.473   2.825   8.271 -0.2236  0.0718 -0.1309
 5952TIP3    H139491   5.445   2.782   8.191  0.5335  1.5905 -1.2603
 5952TIP3    H239492   5.536   2.764   8.310 -0.9652 -0.8978 -0.4026
 5953TIP3   OH239493   1.570   4.351   2.958 -0.5827 -0.1413  0.3516
 5953TIP3    H139494   1.645   4.306   2.996 -0.5246 -0.2181  0.1447
 5953TIP3    H239495   1.523   4.284   2.909  0.0772  0.2373 -0.8249
 5954TIP3   OH239496   4.971   0.683   0.264 -0.2800  0.3164 -0.2364
 5954TIP3    H139497   5.049   0.644   0.305 -0.6170  1.0932  1.2287
 5954TIP3    H239498   4.905   0.682   0.334 -0.6557  2.4153 -0.4990
 5955TIP3   OH239499   6.023   0.160   0.161 -0.2088 -0.2662  0.3029
 5955TIP3    H139500   6.022   0.161   0.065 -2.2312 -0.5162  0.2769
 5955TIP3    H239501   6.028   0.252   0.186 -0.7298 -0.1371 -0.0612
 5956TIP3   OH239502   1.349   3.005   0.466  0.0072  0.4984 -0.1284
 5956TIP3    H139503   1.410   2.932   0.454  0.9747  1.0103  1.4332
 5956TIP3    H239504   1.315   3.022   0.378  0.6449 -1.0544 -0.7164
 5957TIP3   OH239505   2.345   3.382   7.423  1.1903 -0.6761  0.1761
 5957TIP3    H139506   2.339   3.441   7.497  0.5192 -0.3166 -0.1564
 5957TIP3    H239507   2.254   3.357   7.404  1.4404 -1.5858  0.1353
 5958TIP3   OH239508   4.897   5.766   0.579 -0.3207 -0.3312 -0.0349
 5958TIP3    H139509   4.924   5.763   0.487 -0.4874 -1.2605 -0.0598
 5958TIP3    H239510   4.966   5.816   0.623  0.7527 -1.4891 -0.3328
 5959TIP3   OH239511   1.210   2.639   8.439 -0.2184  0.2557 -0.7585
 5959TIP3    H139512   1.191   2.546   8.451  0.9279  0.0792 -0.2295
 5959TIP3    H239513   1.148   2.667   8.371 -0.2835 -0.9898 -1.2419
 5960TIP3   OH239514   1.376   2.201   7.490 -0.0731  1.3744  0.5106
 5960TIP3    H139515   1.450   2.230   7.438  0.3195 -0.3256  0.0448
 5960TIP3    H239516   1.299   2.240   7.447  0.3423  0.9869 -0.6238
 5961TIP3   OH239517   2.098   4.474   8.113 -0.1938 -0.6974 -0.0035
 5961TIP3    H139518   2.093   4.530   8.191 -0.2626 -0.6664 -0.0300
 5961TIP3    H239519   2.104   4.535   8.040  2.3659 -0.7157  0.1117
 5962TIP3   OH239520   1.171   6.855   1.899  0.0892  0.3801  0.4844
 5962TIP3    H139521   1.239   6.854   1.832 -0.5229 -1.4333 -0.1741
 5962TIP3    H239522   1.214   6.895   1.975  1.3934  0.7045 -0.3757
 5963TIP3   OH239523   6.892   2.110   6.978 -0.5359 -0.1731 -0.3380
 5963TIP3    H139524   6.906   2.026   6.934  1.3545 -0.6658  1.0830
 5963TIP3    H239525   6.939   2.173   6.923 -0.0684 -0.4140 -0.2195
 5964TIP3   OH239526   0.309   2.983   1.263 -0.1422  0.1162  0.2061
 5964TIP3    H139527   0.296   3.056   1.204 -0.7684  0.1444  0.3757
 5964TIP3    H239528   0.387   2.938   1.230 -0.8906 -0.2826 -1.0651
 5965TIP3   OH239529   4.900   1.740   0.586  0.0435  0.5253 -0.0828
 5965TIP3    H139530   4.991   1.719   0.609  0.2641 -0.4889 -1.7236
 5965TIP3    H239531   4.848   1.687   0.646  0.5401  0.4790  0.3189
 5966TIP3   OH239532   3.796   1.011   0.818 -0.9888 -0.0649  0.0661
 5966TIP3    H139533   3.861   1.080   0.808 -0.2418 -0.8198 -0.4106
 5966TIP3    H239534   3.712   1.057   0.822 -0.5457  0.8354 -0.6735
 5967TIP3   OH239535   5.076   5.084   0.837 -0.1449 -0.0624 -0.0685
 5967TIP3    H139536   5.021   5.150   0.794 -0.6954 -0.1813  0.4324
 5967TIP3    H239537   5.037   5.000   0.811  0.1845 -0.1691 -0.2176
 5968TIP3   OH239538   0.095   1.188   7.722 -0.0138 -0.5848 -0.5765
 5968TIP3    H139539   0.058   1.133   7.653  0.7130 -0.1409 -1.3340
 5968TIP3    H239540   0.118   1.270   7.678 -1.9168  0.7269  0.6866
 5969TIP3   OH239541   1.991   0.597   7.620 -0.0073  0.4705 -0.6898
 5969TIP3    H139542   2.069   0.567   7.668  1.4117  2.3530 -1.6819
 5969TIP3    H239543   1.919   0.583   7.682  1.2386 -0.4576  0.6361
 5970TIP3   OH239544   3.814   2.129   0.472 -0.0801 -0.4009  0.1747
 5970TIP3    H139545   3.819   2.155   0.563 -0.4645 -1.3043  0.4636
 5970TIP3    H239546   3.721   2.135   0.450 -0.0232 -0.4456 -0.0812
 5971TIP3   OH239547   1.464   3.804   2.558 -0.0138 -0.0962 -0.3358
 5971TIP3    H139548   1.390   3.852   2.595  0.5928  0.6116 -0.0191
 5971TIP3    H239549   1.541   3.849   2.591  0.6239 -1.9324  0.8668
 5972TIP3   OH239550   5.042   3.215   1.419 -0.2051  0.1157  0.0773
 5972TIP3    H139551   5.137   3.221   1.420 -0.2593  1.3554 -0.4157
 5972TIP3    H239552   5.018   3.213   1.326 -0.5546 -3.3390  0.1050
 5973TIP3   OH239553   6.447   1.191   8.002 -0.2359  0.1963 -0.1047
 5973TIP3    H139554   6.511   1.125   8.026  0.3248  0.1291 -1.6575
 5973TIP3    H239555   6.424   1.170   7.911 -0.8298  1.5080 -0.2853
 5974TIP3   OH239556   4.865   4.142   2.544 -0.1249 -0.2296  0.4246
 5974TIP3    H139557   4.791   4.188   2.506  0.3507  0.0158 -0.2253
 5974TIP3    H239558   4.891   4.195   2.619  1.0014  1.1176 -0.8520
 5975TIP3   OH239559   1.464   1.970   1.357 -0.1336 -0.1289 -0.1460
 5975TIP3    H139560   1.525   2.036   1.390 -0.0954  0.1896 -0.8434
 5975TIP3    H239561   1.378   2.002   1.384 -0.0938  0.0564 -0.2376
 5976TIP3   OH239562   1.197   2.106   1.381 -0.5031 -0.2531 -0.0012
 5976TIP3    H139563   1.234   2.115   1.293  0.0874 -1.7880  0.0697
 5976TIP3    H239564   1.103   2.122   1.369 -0.5019 -0.9222 -1.0013
 5977TIP3   OH239565   2.011   0.628   8.132 -0.1203 -0.2894  0.2149
 5977TIP3    H139566   1.938   0.682   8.163  0.6493  0.8735  0.0496
 5977TIP3    H239567   2.065   0.687   8.080  1.5815 -0.8055  1.3004
 5978TIP3   OH239568   6.536   1.742   7.751  0.4920 -0.2450 -0.3964
 5978TIP3    H139569   6.605   1.689   7.791  0.9254  0.5469 -0.0651
 5978TIP3    H239570   6.567   1.832   7.759 -0.2204  0.0631 -0.9608
 5979TIP3   OH239571   0.508   5.142   0.607 -0.0073  0.5955  0.3473
 5979TIP3    H139572   0.540   5.118   0.694 -0.6791  0.9277  0.7007
 5979TIP3    H239573   0.579   5.192   0.568 -0.0900  1.3372  1.1189
 5980TIP3   OH239574   2.133   5.634   8.186 -0.0067  0.0995  0.1294
 5980TIP3    H139575   2.077   5.606   8.114 -1.2289 -1.7682  1.6795
 5980TIP3    H239576   2.096   5.717   8.214 -0.4334  0.1184 -0.4639
 5981TIP3   OH239577   4.905   1.362   6.643 -0.5553  0.3946  0.0483
 5981TIP3    H139578   4.970   1.429   6.621  1.0462 -1.1057 -0.0270
 5981TIP3    H239579   4.882   1.322   6.560 -0.7978  0.2134  0.2004
 5982TIP3   OH239580   0.727   0.752   0.857  0.0719 -0.9454  0.1114
 5982TIP3    H139581   0.714   0.745   0.763 -0.0448 -0.9697  0.1290
 5982TIP3    H239582   0.746   0.662   0.885  0.3014 -0.9066  0.0826
 5983TIP3   OH239583   5.142   5.909   0.670 -0.8991  0.2627 -0.0417
 5983TIP3    H139584   5.233   5.939   0.668 -0.3398 -1.3581 -1.3813
 5983TIP3    H239585   5.091   5.988   0.685  0.7225  1.2076  0.8130
 5984TIP3   OH239586   4.947   2.344   1.409 -0.6352 -0.1825 -0.0502
 5984TIP3    H139587   4.876   2.329   1.347  1.1733 -0.0269 -2.2857
 5984TIP3    H239588   4.965   2.258   1.446 -1.7093 -0.2864  0.2723
 5985TIP3   OH239589   3.974   5.138   7.538 -0.3179  0.2061 -0.5750
 5985TIP3    H139590   3.997   5.129   7.445  0.6052 -1.9472 -0.1842
 5985TIP3    H239591   3.996   5.054   7.577  1.9478  1.9185  2.2113
 5986TIP3   OH239592   0.014   0.733   8.308 -0.1734  0.5086  0.7337
 5986TIP3    H139593   0.024   0.706   8.217 -0.6907 -0.2984  0.9000
 5986TIP3    H239594   0.094   0.782   8.328 -0.5110  1.5721 -0.4435
 5987TIP3   OH239595   6.238   1.262   7.558 -0.5100 -0.4836  0.3562
 5987TIP3    H139596   6.270   1.309   7.481  1.2611 -0.0463  1.3002
 5987TIP3    H239597   6.176   1.199   7.523 -1.3517  1.0974 -1.1989
 5988TIP3   OH239598   4.784   3.923   0.666  0.2125 -1.1312  0.2877
 5988TIP3    H139599   4.857   3.976   0.634  0.5511 -0.7921  1.5645
 5988TIP3    H239600   4.706   3.973   0.641  0.5417  0.5815  2.3343
 5989TIP3   OH239601   0.386   2.648   0.122  0.3098  0.3662 -0.2323
 5989TIP3    H139602   0.479   2.661   0.142  0.2389 -0.5015  0.7623
 5989TIP3    H239603   0.385   2.617   0.032  0.9995  0.2525 -0.2062
 5990TIP3   OH239604   5.572   4.203   8.103  0.6143  0.1678  0.0238
 5990TIP3    H139605   5.478   4.192   8.090  0.2953 -0.6420  2.5409
 5990TIP3    H239606   5.606   4.226   8.016 -1.6087 -1.4259 -1.3577
 5991TIP3   OH239607   4.225   2.702   7.361 -0.3657  0.5723  0.4958
 5991TIP3    H139608   4.315   2.688   7.388 -0.2392 -0.2685 -0.3021
 5991TIP3    H239609   4.231   2.737   7.272 -0.8359  0.0078  0.2357
 5992TIP3   OH239610   5.207   1.821   1.312 -0.3335 -0.2707 -0.0779
 5992TIP3    H139611   5.183   1.790   1.400  0.2624  1.3765  0.7096
 5992TIP3    H239612   5.229   1.914   1.325  1.9983 -0.5395 -1.5500
 5993TIP3   OH239613   1.465   5.198   7.013 -0.6740 -0.3617 -0.1317
 5993TIP3    H139614   1.412   5.134   7.061 -0.8217  0.0729  0.2920
 5993TIP3    H239615   1.405   5.271   6.997 -0.6956 -0.6097 -1.2041
 5994TIP3   OH239616   6.346   0.640   7.312 -0.1011  0.8752 -0.1670
 5994TIP3    H139617   6.288   0.565   7.298  1.7726 -0.9028  1.0239
 5994TIP3    H239618   6.391   0.652   7.229 -0.4269  0.7044 -0.3695
 5995TIP3   OH239619   3.604   1.282   0.312 -0.0449  0.6023 -0.1368
 5995TIP3    H139620   3.551   1.276   0.391  0.5983 -2.5348  0.1811
 5995TIP3    H239621   3.694   1.267   0.342  0.1435 -1.2486 -1.4547
 5996TIP3   OH239622   3.465   0.583   8.323 -0.4944 -0.4541 -0.0795
 5996TIP3    H139623   3.437   0.577   8.231 -0.7407 -0.8608  0.0190
 5996TIP3    H239624   3.445   0.497   8.359 -3.1189  0.5515  1.1193
 5997TIP3   OH239625   1.863   5.218   8.227 -0.0716  0.2046  0.5046
 5997TIP3    H139626   1.900   5.305   8.248  1.6004 -0.2274 -0.4321
 5997TIP3    H239627   1.785   5.212   8.281 -0.7085  2.6389 -0.0057
 5998TIP3   OH239628   4.417   3.206   0.566 -0.0836 -0.0254  0.1027
 5998TIP3    H139629   4.442   3.115   0.550 -1.6077 -0.5692  0.5956
 5998TIP3    H239630   4.485   3.240   0.623  1.4331 -0.3094 -1.4532
 5999TIP3   OH239631   6.603   5.088   8.402  0.1034 -0.2833 -0.0432
 5999TIP3    H139632   6.574   4.996   8.397  1.1922 -0.6827  0.7109
 5999TIP3    H239633   6.659   5.091   8.479  1.4680  0.6269 -1.0303
 6000TIP3   OH239634   4.660   2.095   8.080  0.0867  0.0332  0.1772
 6000TIP3    H139635   4.685   2.045   8.159 -1.6838  0.2379  0.9227
 6000TIP3    H239636   4.684   2.185   8.101  2.0223 -0.2504 -0.6165
 6001TIP3   OH239637   6.917   3.421   6.904  0.0423 -0.2142  0.0514
 6001TIP3    H139638   6.861   3.478   6.852 -0.6342 -1.3001 -0.4530
 6001TIP3    H239639   6.964   3.368   6.839  0.6481 -0.2422  0.5074
 6002TIP3   OH239640   1.775   6.646   1.453 -0.2610  0.3028  0.4733
 6002TIP3    H139641   1.804   6.736   1.466 -0.2077  0.0632  2.3087
 6002TIP3    H239642   1.679   6.652   1.453 -0.2567  0.3728  0.4535
 6003TIP3   OH239643   1.003   6.455   1.072  0.1534 -0.0256  0.5824
 6003TIP3    H139644   0.963   6.379   1.114 -1.8173  0.4500 -0.2829
 6003TIP3    H239645   0.957   6.463   0.989  0.7496  1.7446  0.3719
 6004TIP3   OH239646   5.730   6.325   8.424  0.2086 -0.1492  0.1601
 6004TIP3    H139647   5.715   6.303   8.332 -1.9496  0.2788  0.3443
 6004TIP3    H239648   5.683   6.257   8.472  1.7522 -0.6651  0.9986
 6005TIP3   OH239649   4.452   6.486   8.299  0.1762 -0.1443  0.5972
 6005TIP3    H139650   4.446   6.533   8.382 -1.0155  0.2537  0.3065
 6005TIP3    H239651   4.518   6.533   8.249  0.0048  0.3739  0.8505
 6006TIP3   OH239652   5.443   1.147   8.440 -0.9914 -0.3435  0.2844
 6006TIP3    H139653   5.427   1.062   8.480  1.8273 -0.2687  1.7905
 6006TIP3    H239654   5.418   1.210   8.507 -2.0937  0.0280 -0.4462
 6007TIP3   OH239655   2.917   5.806   1.116 -0.1522 -0.0303 -0.3732
 6007TIP3    H139656   2.823   5.802   1.095 -0.3315 -0.2355  0.4348
 6007TIP3    H239657   2.943   5.715   1.125  0.0375  0.0437 -0.1954
 6008TIP3   OH239658   1.131   1.236   1.094 -0.4995 -0.0056 -0.1618
 6008TIP3    H139659   1.160   1.159   1.044 -1.8923 -0.7998  0.2152
 6008TIP3    H239660   1.188   1.306   1.063 -0.0890 -0.8821 -1.5060
 6009TIP3   OH239661   6.509   1.048   1.716  0.4189 -0.2432 -0.4640
 6009TIP3    H139662   6.595   1.078   1.746  0.1255  1.6845 -1.3912
 6009TIP3    H239663   6.473   1.122   1.668 -1.0334 -1.6257 -1.6399
 6010TIP3   OH239664   4.255   0.789   7.852  0.4668 -0.2568 -0.1491
 6010TIP3    H139665   4.345   0.813   7.829  0.1783  0.4865 -0.5688
 6010TIP3    H239666   4.201   0.859   7.813 -0.1670  0.2171  1.4938
 6011TIP3   OH239667   4.383   1.168   7.968  0.1482  0.7484  0.2756
 6011TIP3    H139668   4.294   1.144   7.994 -0.4768  1.3226 -1.1872
 6011TIP3    H239669   4.399   1.253   8.010  0.8682 -0.3153  2.2808
 6012TIP3   OH239670   4.682   5.718   2.194 -0.8382  0.1061  0.6551
 6012TIP3    H139671   4.760   5.683   2.237 -1.3465 -0.4897  1.1272
 6012TIP3    H239672   4.612   5.707   2.259 -1.1268  1.5400  0.6134
 6013TIP3   OH239673   6.429   4.917   7.808  0.0924 -0.5568  0.1906
 6013TIP3    H139674   6.418   4.926   7.903  0.1278 -0.5034  0.1899
 6013TIP3    H239675   6.340   4.902   7.775 -0.0916  0.5952  0.1107
 6014TIP3   OH239676   5.234   4.297   0.466  0.2113 -0.1693 -0.0616
 6014TIP3    H139677   5.196   4.374   0.424  1.8303 -0.2413 -1.8142
 6014TIP3    H239678   5.202   4.223   0.414 -1.3670 -0.7638  1.6323
 6015TIP3   OH239679   6.208   0.125   1.078  0.8405 -0.5048 -0.2312
 6015TIP3    H139680   6.295   0.156   1.103  0.3334  2.6097 -1.8317
 6015TIP3    H239681   6.152   0.148   1.152  1.1303 -1.2696  0.2343
 6016TIP3   OH239682   0.244   4.058   0.565 -0.2327  0.0603  0.2214
 6016TIP3    H139683   0.308   3.993   0.536  0.4104  1.2849 -1.2729
 6016TIP3    H239684   0.271   4.081   0.654  0.8936 -0.0745 -0.0752
 6017TIP3   OH239685   6.322   6.864   1.664 -0.1211 -0.1978  0.0136
 6017TIP3    H139686   6.298   6.826   1.579 -2.6729 -0.9318  0.9606
 6017TIP3    H239687   6.401   6.914   1.647  0.0320 -1.1831 -2.5705
 6018TIP3   OH239688   2.363   5.146   1.233  0.2217 -0.1464 -0.9614
 6018TIP3    H139689   2.351   5.217   1.170 -1.3116  0.5287  0.0260
 6018TIP3    H239690   2.298   5.081   1.208 -1.1943  0.6279  0.5459
 6019TIP3   OH239691   1.236   6.915   2.594 -0.3177 -0.5923  0.4210
 6019TIP3    H139692   1.215   7.008   2.599 -0.5838 -0.7296  3.0024
 6019TIP3    H239693   1.329   6.910   2.616 -0.7620 -1.0601  2.3313
 6020TIP3   OH239694   5.945   3.856   1.317  0.6935  0.5889 -0.6732
 6020TIP3    H139695   5.917   3.935   1.363 -1.2399  0.2251 -1.1700
 6020TIP3    H239696   5.963   3.793   1.387  1.6640  1.2506 -0.2985
 6021TIP3   OH239697   5.743   6.266   7.736  0.1528 -0.0231 -0.0260
 6021TIP3    H139698   5.678   6.321   7.692 -0.7982  0.2970  1.6767
 6021TIP3    H239699   5.694   6.187   7.760  0.9261 -0.6444 -0.4590
 6022TIP3   OH239700   3.495   0.105   0.070 -0.4056  0.3355 -0.0475
 6022TIP3    H139701   3.469   0.134   0.157 -1.3162  0.1231 -0.2383
 6022TIP3    H239702   3.429   0.040   0.045 -0.0088  0.1988 -0.7863
 6023TIP3   OH239703   2.258   1.634   7.026 -0.0280  0.0174 -0.2014
 6023TIP3    H139704   2.296   1.581   6.956 -0.0368 -1.4417  0.8716
 6023TIP3    H239705   2.224   1.571   7.089  0.5062  1.2738  1.4267
 6024TIP3   OH239706   5.674   1.670   7.809 -0.4383 -0.7442 -0.3297
 6024TIP3    H139707   5.757   1.713   7.829 -0.4614 -1.4301  1.3280
 6024TIP3    H239708   5.617   1.741   7.777  1.1017 -0.4561 -2.6987
 6025TIP3   OH239709   2.806   6.441   7.985 -0.6522  0.3062  0.1379
 6025TIP3    H139710   2.893   6.422   7.949 -0.8263 -0.9128  0.3296
 6025TIP3    H239711   2.819   6.521   8.036 -0.3330  1.9809 -2.3335
 6026TIP3   OH239712   4.088   6.656   7.266 -0.3930 -0.8114  0.0863
 6026TIP3    H139713   4.002   6.634   7.301  0.2330  0.2738  2.5210
 6026TIP3    H239714   4.137   6.690   7.341  1.2242  1.3439 -1.7978
 6027TIP3   OH239715   0.684   6.075   7.210 -0.4324  0.2408 -0.3009
 6027TIP3    H139716   0.645   6.136   7.147 -1.3885 -0.6091 -0.5586
 6027TIP3    H239717   0.763   6.043   7.167 -1.6425 -1.1747 -1.6048
 6028TIP3   OH239718   4.938   0.957   0.181  0.0351  0.1089 -0.3347
 6028TIP3    H139719   4.934   1.015   0.258 -3.3110 -1.5420  0.9694
 6028TIP3    H239720   4.956   0.871   0.218  0.7454 -0.3407 -1.7138
 6029TIP3   OH239721   2.471   5.180   2.939  0.2342 -0.7188  0.1996
 6029TIP3    H139722   2.399   5.215   2.991 -0.3527  1.1848 -1.7199
 6029TIP3    H239723   2.533   5.252   2.933  1.3055 -1.6309  0.0841
 6030TIP3   OH239724   3.799   0.104   1.850  0.0308 -0.0602 -0.3650
 6030TIP3    H139725   3.754   0.139   1.927 -1.4785 -2.4820 -0.0142
 6030TIP3    H239726   3.731   0.058   1.802  1.6987 -2.0024 -1.0038
 6031TIP3   OH239727   5.131   2.605   0.899  0.3921 -0.0828 -0.5136
 6031TIP3    H139728   5.225   2.615   0.884  1.0460 -3.1163  0.7539
 6031TIP3    H239729   5.120   2.620   0.993 -0.0290 -1.5586 -0.3048
 6032TIP3   OH239730   1.956   2.156   0.894 -0.7945  0.4023 -0.4333
 6032TIP3    H139731   1.946   2.061   0.895  0.9279  0.1189  2.5904
 6032TIP3    H239732   1.867   2.190   0.897 -1.4141 -1.1404 -0.3567
 6033TIP3   OH239733   3.539   3.377   0.281 -0.1752  0.3365  0.0912
 6033TIP3    H139734   3.456   3.406   0.317  1.0154  0.5489  2.9301
 6033TIP3    H239735   3.587   3.458   0.261 -0.1820  0.2217 -0.4155
 6034TIP3   OH239736   3.169   1.233   1.049  0.6186 -0.0533 -0.0239
 6034TIP3    H139737   3.121   1.185   1.116  0.5177  0.1624  0.0594
 6034TIP3    H239738   3.178   1.321   1.084  1.4306 -0.1926  0.1381
 6035TIP3   OH239739   1.733   3.013   1.870  0.7141  0.1903 -0.0043
 6035TIP3    H139740   1.676   3.069   1.922 -2.1152 -2.7487  0.3916
 6035TIP3    H239741   1.814   3.005   1.921  0.6143  2.5776  0.6070
 6036TIP3   OH239742   5.334   1.284   7.185 -0.0345  0.2528  0.1395
 6036TIP3    H139743   5.247   1.288   7.223  0.0668 -0.0167  0.4087
 6036TIP3    H239744   5.325   1.225   7.110  0.0405 -0.2711  0.5310
 6037TIP3   OH239745   1.108   6.463   1.490  0.1350 -0.3545  0.0099
 6037TIP3    H139746   1.184   6.434   1.541 -1.1686 -0.8110  1.7937
 6037TIP3    H239747   1.052   6.386   1.485 -0.1272 -0.0915 -1.4965
 6038TIP3   OH239748   1.511   0.655   3.009  0.3218  0.2105 -0.0246
 6038TIP3    H139749   1.520   0.564   2.980  0.7258  0.1658  0.2347
 6038TIP3    H239750   1.597   0.694   2.995  0.0004  0.7198 -0.6750
 6039TIP3   OH239751   6.496   1.616   0.362  0.1327 -0.1247  0.1297
 6039TIP3    H139752   6.521   1.694   0.412  1.8586 -0.2109 -0.5466
 6039TIP3    H239753   6.578   1.572   0.343 -0.6593 -1.1701 -1.0504
 6040TIP3   OH239754   1.484   1.195   7.112 -0.2438  0.3407 -0.4365
 6040TIP3    H139755   1.490   1.121   7.052 -0.2188  0.0051 -0.0264
 6040TIP3    H239756   1.488   1.156   7.199 -0.9019  0.7618 -0.2045
 6041TIP3   OH239757   2.210   0.820   1.908 -0.3530  0.0723 -0.0570
 6041TIP3    H139758   2.235   0.788   1.995  0.5518 -0.7654 -0.6078
 6041TIP3    H239759   2.162   0.748   1.868  1.1555 -0.4040 -1.0736
 6042TIP3   OH239760   6.221   2.524   2.330 -0.6043 -0.5522 -0.1031
 6042TIP3    H139761   6.193   2.449   2.383 -1.7340 -0.6668 -0.8411
 6042TIP3    H239762   6.251   2.486   2.248  1.0967 -0.3680  0.3983
 6043TIP3   OH239763   2.361   2.858   3.025 -0.4210  0.7943 -0.1792
 6043TIP3    H139764   2.404   2.895   2.948  0.0825  1.0782  0.2335
 6043TIP3    H239765   2.431   2.850   3.090 -0.3257 -1.5645 -0.4747
 6044TIP3   OH239766   5.057   1.390   6.875  0.2111  0.2044 -0.1726
 6044TIP3    H139767   5.092   1.306   6.906  4.5761  1.0480 -2.0222
 6044TIP3    H239768   4.991   1.365   6.811  1.1237 -1.8637 -0.4146
 6045TIP3   OH239769   6.093   6.222   1.542  0.2210 -0.3896  0.2805
 6045TIP3    H139770   6.087   6.206   1.448  1.0825  0.4358  0.0670
 6045TIP3    H239771   6.104   6.317   1.550  0.4031 -0.4719  1.1981
 6046TIP3   OH239772   5.733   4.284   6.773  0.2699 -0.0939  0.2698
 6046TIP3    H139773   5.666   4.345   6.742  1.0313  1.1429  0.9614
 6046TIP3    H239774   5.695   4.197   6.761 -2.9335  0.5559  3.8127
 6047TIP3   OH239775   0.210   2.975   8.209  0.1713 -0.0404  0.0899
 6047TIP3    H139776   0.183   2.883   8.215 -1.2221  0.3475  0.0332
 6047TIP3    H239777   0.247   2.982   8.121 -1.4739 -0.1295 -0.6463
 6048TIP3   OH239778   1.255   3.373   0.379  0.3757 -0.3926  0.3196
 6048TIP3    H139779   1.282   3.457   0.340 -0.4964 -0.8384 -1.3609
 6048TIP3    H239780   1.159   3.374   0.372  0.1823 -0.5666  2.4331
 6049TIP3   OH239781   2.179   2.418   7.907  0.2673  0.3624  0.3082
 6049TIP3    H139782   2.087   2.437   7.886  0.6161  1.4342 -0.3199
 6049TIP3    H239783   2.178   2.328   7.939 -1.1508  0.6763  1.2443
 6050TIP3   OH239784   4.552   5.336   7.858  0.3252 -0.0863  0.8139
 6050TIP3    H139785   4.564   5.329   7.953  0.1485  2.1902  1.0647
 6050TIP3    H239786   4.492   5.410   7.847  1.4989  0.6428 -1.1306
 6051TIP3   OH239787   0.719   5.103   0.233 -0.3799  0.5281  0.4869
 6051TIP3    H139788   0.759   5.149   0.160  0.2885 -0.1330  0.4205
 6051TIP3    H239789   0.626   5.096   0.209 -0.0171 -0.4531 -0.7326
 6052TIP3   OH239790   1.891   1.320   0.942  0.3759 -0.1212  0.3313
 6052TIP3    H139791   1.885   1.228   0.917  0.7345 -0.3302  1.0048
 6052TIP3    H239792   1.800   1.344   0.963  0.1852 -0.1444 -0.4329
 6053TIP3   OH239793   1.929   5.290   7.717  0.0165  0.0612  0.1995
 6053TIP3    H139794   2.021   5.293   7.741 -0.1230 -2.0520  1.2573
 6053TIP3    H239795   1.886   5.248   7.792 -1.4423 -1.0426 -1.1884
 6054TIP3   OH239796   4.165   1.417   7.987  0.1296  0.1474 -0.3517
 6054TIP3    H139797   4.176   1.324   7.971 -1.4619 -0.0507 -0.4669
 6054TIP3    H239798   4.159   1.456   7.899 -2.0520 -0.0657 -0.3637
 6055TIP3   OH239799   5.077   1.522   8.300 -0.6202 -0.5868 -0.2453
 6055TIP3    H139800   5.105   1.565   8.381  1.9734 -0.5305 -1.0695
 6055TIP3    H239801   5.031   1.443   8.330 -0.1815 -0.3107  1.2784
 6056TIP3   OH239802   0.059   0.380   0.529 -0.3065  0.2457  1.4132
 6056TIP3    H139803   0.019   0.441   0.592 -0.5808 -0.3806  1.8588
 6056TIP3    H239804   0.000   0.383   0.453 -0.2815  0.5846  1.4039
 6057TIP3   OH239805   0.102   5.244   1.460  0.5231  0.8026 -0.0887
 6057TIP3    H139806   0.078   5.290   1.541 -0.9125 -1.5613  0.9654
 6057TIP3    H239807   0.184   5.199   1.482  0.1193  0.1391  0.1003
 6058TIP3   OH239808   6.545   0.339   0.827  0.4492  0.5055  0.2964
 6058TIP3    H139809   6.498   0.382   0.755  0.0477 -0.4047 -0.0003
 6058TIP3    H239810   6.601   0.275   0.784 -1.5269 -1.7313  0.8669
 6059TIP3   OH239811   2.581   1.713   1.346  0.5784 -0.6121 -0.1333
 6059TIP3    H139812   2.560   1.620   1.341 -1.5314 -0.1792 -0.4975
 6059TIP3    H239813   2.507   1.751   1.393  2.1329  0.7091  1.3822
 6060TIP3   OH239814   1.115   4.187   0.689 -0.1568  0.3147  0.6815
 6060TIP3    H139815   1.181   4.195   0.619 -1.7043 -0.7737 -0.9846
 6060TIP3    H239816   1.166   4.167   0.768  1.6034  0.8807 -0.2635
 6061TIP3   OH239817   4.958   5.510   2.029 -0.5471 -0.0395  1.0256
 6061TIP3    H139818   4.936   5.417   2.039 -0.5367  0.0669  2.2490
 6061TIP3    H239819   5.045   5.519   2.069  1.6288 -0.3132 -3.1215
 6062TIP3   OH239820   5.586   5.734   1.508  0.0109  0.2502 -0.1393
 6062TIP3    H139821   5.548   5.661   1.557  1.3099  0.3706  1.1445
 6062TIP3    H239822   5.554   5.812   1.553 -0.1317  0.4103 -0.5253
 6063TIP3   OH239823   2.879   6.407   0.430 -0.3864  0.0516 -0.3773
 6063TIP3    H139824   2.874   6.473   0.500 -0.3393 -0.8872  0.5318
 6063TIP3    H239825   2.911   6.456   0.354  3.7492  0.3643  1.2867
 6064TIP3   OH239826   0.748   4.010   7.389 -0.1371  0.3809 -0.1027
 6064TIP3    H139827   0.717   3.921   7.409 -1.5365  0.8358 -0.1362
 6064TIP3    H239828   0.675   4.051   7.343 -0.2944  2.1662  1.5923
 6065TIP3   OH239829   6.761   1.618   1.392  0.5435 -0.6618  0.5280
 6065TIP3    H139830   6.805   1.677   1.331  1.1689 -1.0776  0.5700
 6065TIP3    H239831   6.675   1.602   1.352 -0.1913  1.3497  1.1824
 6066TIP3   OH239832   1.701   2.716   7.666 -0.0740 -0.6705 -0.3874
 6066TIP3    H139833   1.663   2.660   7.599 -0.4553 -1.8835  0.7978
 6066TIP3    H239834   1.794   2.720   7.644  0.1418 -2.5728  0.0143
 6067TIP3   OH239835   1.408   1.780   1.170 -0.5756 -0.6945  0.1946
 6067TIP3    H139836   1.480   1.719   1.157 -0.9670 -1.3753  1.0920
 6067TIP3    H239837   1.441   1.843   1.234 -0.4066 -0.3542 -0.2217
 6068TIP3   OH239838   6.892   5.238   1.985 -0.5691 -0.5492 -0.2975
 6068TIP3    H139839   6.868   5.281   2.067 -0.1321 -0.9590  0.0526
 6068TIP3    H239840   6.988   5.235   1.986 -0.5655 -0.6570 -0.7671
 6069TIP3   OH239841   6.776   0.756   0.531  0.3220 -0.1942 -0.3147
 6069TIP3    H139842   6.773   0.697   0.456  2.4447  1.9514 -2.2261
 6069TIP3    H239843   6.693   0.803   0.527  0.4826  0.0164 -1.4497
 6070TIP3   OH239844   5.604   0.037   7.254  0.0919 -0.6404  0.3604
 6070TIP3    H139845   5.627  -0.008   7.335 -1.2044 -1.8921  0.0638
 6070TIP3    H239846   5.513   0.014   7.238 -0.5915  1.9291  0.0425
 6071TIP3   OH239847   5.335   4.802   2.242  0.2147 -0.0915  0.2822
 6071TIP3    H139848   5.391   4.873   2.210  0.1019 -1.0962 -2.3875
 6071TIP3    H239849   5.263   4.847   2.287  1.3276  1.3554  0.7102
 6072TIP3   OH239850   2.951   3.084   1.496 -0.2791 -0.2758  0.4901
 6072TIP3    H139851   2.897   3.033   1.436 -1.3736  0.2591  1.0007
 6072TIP3    H239852   3.025   3.114   1.442 -0.6126 -0.8139 -0.2760
 6073TIP3   OH239853   6.482   0.624   1.923 -0.0500 -0.3238 -0.2483
 6073TIP3    H139854   6.556   0.599   1.978  1.1920  0.0865 -1.6774
 6073TIP3    H239855   6.419   0.663   1.984  1.6025  0.8604  0.7869
 6074TIP3   OH239856   0.297   2.433   0.943 -0.1194  0.7605 -0.1733
 6074TIP3    H139857   0.203   2.423   0.958 -0.3518  0.0811 -1.8201
 6074TIP3    H239858   0.305   2.514   0.893  0.1255  0.6541 -0.3131
 6075TIP3   OH239859   0.407   5.666   1.280  0.2337  0.1612  0.4539
 6075TIP3    H139860   0.453   5.714   1.212 -0.8762  1.2370  0.4381
 6075TIP3    H239861   0.468   5.666   1.354  0.8098  0.3421 -0.0073
 6076TIP3   OH239862   1.397   5.078   0.248  0.1028  0.0788 -0.2443
 6076TIP3    H139863   1.307   5.110   0.256 -0.0908 -0.3435 -0.7063
 6076TIP3    H239864   1.388   4.983   0.244  0.5973  0.0163  0.0618
 6077TIP3   OH239865   1.218   6.873   0.418 -0.0924 -0.5267 -0.0442
 6077TIP3    H139866   1.152   6.939   0.441  0.5481  0.3258 -0.6162
 6077TIP3    H239867   1.199   6.851   0.327  2.4928  2.3235 -1.4277
 6078TIP3   OH239868   6.116   0.138   7.659  0.9962 -0.1608 -0.0109
 6078TIP3    H139869   6.144   0.151   7.568  2.1054  2.7664  0.6280
 6078TIP3    H239870   6.071   0.219   7.682 -0.0630 -1.2104  1.8101
 6079TIP3   OH239871   3.391   5.723   7.210  0.3386 -0.1986  0.2640
 6079TIP3    H139872   3.399   5.815   7.236 -1.3817  0.2654 -0.6701
 6079TIP3    H239873   3.454   5.712   7.139 -0.8904  0.8927 -1.0588
 6080TIP3   OH239874   5.717   4.047   3.183  0.2714  0.1018 -0.0035
 6080TIP3    H139875   5.653   4.011   3.122  2.3448 -1.4283 -1.4048
 6080TIP3    H239876   5.676   4.036   3.269 -2.6862  2.2576 -0.9782
 6081TIP3   OH239877   4.059   0.709   1.908 -0.0775  0.0770 -0.2317
 6081TIP3    H139878   3.966   0.690   1.897 -0.1598  0.1274  0.3635
 6081TIP3    H239879   4.081   0.766   1.834 -0.6193  0.3992 -0.1463
 6082TIP3   OH239880   5.753   2.968   1.728 -0.6017  0.2467  0.2287
 6082TIP3    H139881   5.787   3.042   1.779 -2.1895  2.1941 -1.3613
 6082TIP3    H239882   5.688   2.927   1.786 -0.4307  0.7154  0.7673
 6083TIP3   OH239883   0.060   6.718   8.261  0.1037  0.1614 -0.0769
 6083TIP3    H139884   0.042   6.723   8.167  0.7826  1.0044 -0.1768
 6083TIP3    H239885  -0.026   6.711   8.302 -0.2043 -0.0514 -0.7561
 6084TIP3   OH239886   4.607   6.254   2.691 -0.4146 -0.2212  0.3717
 6084TIP3    H139887   4.582   6.344   2.712  0.5295  0.0806  0.2540
 6084TIP3    H239888   4.590   6.245   2.597  1.6948  0.6361 -0.1658
 6085TIP3   OH239889   1.829   5.000   0.500  0.8050 -0.0574 -0.1259
 6085TIP3    H139890   1.889   5.045   0.441 -0.2354  1.3858 -0.1317
 6085TIP3    H239891   1.833   5.049   0.582 -0.1225 -0.1174 -0.0288
 6086TIP3   OH239892   3.245   2.463   7.685  0.7170  0.1286 -0.4016
 6086TIP3    H139893   3.182   2.431   7.621 -0.8743 -0.8929  1.5723
 6086TIP3    H239894   3.212   2.550   7.709  0.9076  0.2077 -0.4241
 6087TIP3   OH239895   1.196   3.259   1.792  0.1732 -0.0022  0.0262
 6087TIP3    H139896   1.161   3.266   1.881  1.5957  0.0722  0.5933
 6087TIP3    H239897   1.120   3.276   1.736 -0.3972  1.7328  1.2245
 6088TIP3   OH239898   4.688   1.683   2.509  0.4842 -1.0430 -0.2457
 6088TIP3    H139899   4.639   1.705   2.588  1.7898 -1.4888  0.7237
 6088TIP3    H239900   4.778   1.709   2.529  0.8661 -1.3193 -1.5320
 6089TIP3   OH239901   2.866   6.419   6.930 -0.2582 -0.1234 -0.1796
 6089TIP3    H139902   2.938   6.473   6.960 -0.4091  0.1271 -0.2654
 6089TIP3    H239903   2.905   6.359   6.866  0.2791 -1.3430  1.2134
 6090TIP3   OH239904   2.428   0.841   1.720  0.5985  0.0150  0.3227
 6090TIP3    H139905   2.472   0.760   1.746  0.3597 -0.2249 -0.0068
 6090TIP3    H239906   2.370   0.861   1.793  1.5810  0.5850  0.9590
 6091TIP3   OH239907   3.454   5.442   1.247  0.3207  0.4821  0.3906
 6091TIP3    H139908   3.510   5.365   1.260 -1.4957 -0.6701  1.7148
 6091TIP3    H239909   3.442   5.446   1.152 -1.2772 -2.2122  0.3744
 6092TIP3   OH239910   5.638   6.338   6.793  0.1623 -0.1706 -0.3102
 6092TIP3    H139911   5.729   6.367   6.783 -0.6969  2.6375 -1.0721
 6092TIP3    H239912   5.595   6.412   6.837 -1.7335 -1.4898  0.1449
 6093TIP3   OH239913   6.047   3.238   7.210 -0.4048  0.6173  0.1243
 6093TIP3    H139914   6.081   3.264   7.124 -1.1504 -0.4344 -0.5191
 6093TIP3    H239915   5.978   3.175   7.190  0.1158 -0.4548  1.5411
 6094TIP3   OH239916   3.080   4.162   7.724 -0.3807  0.4981 -0.1731
 6094TIP3    H139917   3.095   4.098   7.655 -3.9719 -0.8689  0.0622
 6094TIP3    H239918   3.042   4.238   7.679  0.8021  1.1792 -0.0665
 6095TIP3   OH239919   3.060   6.594   7.862  0.0169 -0.3440  0.3948
 6095TIP3    H139920   3.008   6.638   7.794  0.4293 -0.3921  0.0480
 6095TIP3    H239921   3.144   6.577   7.821  0.0292 -1.0136  0.6970
 6096TIP3   OH239922   3.335   4.294   0.217  0.6373 -0.3722 -0.2787
 6096TIP3    H139923   3.419   4.315   0.258  0.6405 -0.5466 -0.1910
 6096TIP3    H239924   3.354   4.219   0.161  0.2996 -1.2023  0.6769
 6097TIP3   OH239925   1.129   6.649   8.156  0.0173  0.9072 -0.4353
 6097TIP3    H139926   1.136   6.733   8.204  0.1316  1.5796 -1.5970
 6097TIP3    H239927   1.220   6.622   8.144 -0.0171 -0.7544  2.1802
 6098TIP3   OH239928   0.533   5.329   1.122 -0.5676  0.4230 -0.8041
 6098TIP3    H139929   0.592   5.301   1.191 -0.6692 -1.3367 -1.3833
 6098TIP3    H239930   0.447   5.333   1.164 -0.2255  2.1848 -0.1678
 6099TIP3   OH239931   5.917   6.787   2.657  0.2479  0.3896 -0.6975
 6099TIP3    H139932   5.855   6.811   2.725  1.0528 -0.7966  0.5059
 6099TIP3    H239933   6.002   6.784   2.701  1.0514  1.1023 -2.0988
 6100TIP3   OH239934   4.444   0.099   7.452 -0.1969 -0.1732  0.5575
 6100TIP3    H139935   4.358   0.061   7.435 -0.2382  0.6104 -1.2518
 6100TIP3    H239936   4.447   0.109   7.547 -2.4026  0.4420  0.6292
 6101TIP3   OH239937   6.030   0.186   8.081  0.0948 -0.0471  0.2048
 6101TIP3    H139938   6.053   0.093   8.071  1.6449  0.1693  1.2807
 6101TIP3    H239939   5.997   0.192   8.171  0.5600  0.5233  0.3442
 6102TIP3   OH239940   4.090   1.213   2.065  0.0935 -0.3265  0.3459
 6102TIP3    H139941   4.117   1.249   1.981 -1.6365 -1.5384 -0.7751
 6102TIP3    H239942   4.164   1.161   2.094  0.1417 -1.1440 -1.1825
 6103TIP3   OH239943   6.748   0.731   1.438 -0.1592  0.1134 -0.2564
 6103TIP3    H139944   6.842   0.742   1.449 -0.3880  1.2561  0.7862
 6103TIP3    H239945   6.710   0.813   1.470 -1.5611 -0.6858  0.2190
 6104TIP3   OH239946   5.380   1.281   7.880  0.3463 -0.4317  0.0231
 6104TIP3    H139947   5.440   1.241   7.818  0.9213  1.4330 -0.6986
 6104TIP3    H239948   5.293   1.264   7.844  0.6733  0.6315 -1.3400
 6105TIP3   OH239949   1.389   4.111   7.464  0.0930 -0.0426 -0.6979
 6105TIP3    H139950   1.339   4.047   7.516  0.0594  1.2995  1.0223
 6105TIP3    H239951   1.469   4.126   7.514  0.5607  0.5181 -1.5817
 6106TIP3   OH239952   1.258   2.115   1.124 -0.0464 -0.6811  0.7289
 6106TIP3    H139953   1.330   2.056   1.101  0.0976  0.1276 -1.0502
 6106TIP3    H239954   1.204   2.120   1.044 -0.5026  0.9230  1.0916
 6107TIP3   OH239955   4.340   4.850   0.120 -0.1549  0.1714  0.2204
 6107TIP3    H139956   4.274   4.849   0.050  0.8820 -0.5518 -0.7959
 6107TIP3    H239957   4.289   4.861   0.200 -1.6146 -1.1892 -0.4404
 6108TIP3   OH239958   1.523   2.642   1.595  0.6567  0.2465 -0.4642
 6108TIP3    H139959   1.448   2.676   1.645  0.3312 -0.6682 -0.3227
 6108TIP3    H239960   1.589   2.711   1.602 -0.0981  0.9929 -0.4419
 6109TIP3   OH239961   4.011   0.669   1.316  0.4732 -0.2880 -0.7618
 6109TIP3    H139962   4.081   0.700   1.259  1.7440 -0.7745  0.4840
 6109TIP3    H239963   3.988   0.745   1.370  0.0735 -0.1438 -1.1323
 6110TIP3   OH239964   4.117   3.205   8.323  0.6268  0.2357 -0.3689
 6110TIP3    H139965   4.204   3.212   8.284  1.0923 -1.5226  0.2861
 6110TIP3    H239966   4.099   3.111   8.327 -0.5873  0.4890  1.0621
 6111TIP3   OH239967   3.982   4.136   7.181 -0.0170  0.2920 -0.0611
 6111TIP3    H139968   4.062   4.117   7.231  0.2943  0.4429 -0.5046
 6111TIP3    H239969   3.951   4.050   7.153  1.3872  0.3667 -2.0595
 6112TIP3   OH239970   4.543   1.431   0.799 -0.2206 -0.7549  0.1453
 6112TIP3    H139971   4.588   1.515   0.788 -0.1586 -0.9853 -1.7273
 6112TIP3    H239972   4.535   1.421   0.894  0.8442  0.7859  0.4536
 6113TIP3   OH239973   1.972   3.079   8.115 -0.0048 -0.0524  0.1725
 6113TIP3    H139974   2.050   3.027   8.137  0.7371  0.7860 -0.3776
 6113TIP3    H239975   1.957   3.133   8.193  0.9104  0.8844 -0.2759
 6114TIP3   OH239976   0.731   1.814   8.468 -0.3057  0.2342 -0.8068
 6114TIP3    H139977   0.810   1.770   8.438 -1.6366 -2.2283 -0.9277
 6114TIP3    H239978   0.712   1.879   8.400  1.0659  0.2292 -1.2267
 6115TIP3   OH239979   3.109   0.138   0.189  0.2222 -0.0824  0.2557
 6115TIP3    H139980   3.139   0.114   0.101  2.2262  0.1050  0.8463
 6115TIP3    H239981   3.176   0.197   0.222 -0.1197 -0.7276  2.2103
 6116TIP3   OH239982   0.136   3.731   7.295 -0.4407 -0.0261 -0.4103
 6116TIP3    H139983   0.105   3.816   7.263 -0.8772  0.2807  0.7626
 6116TIP3    H239984   0.079   3.667   7.253 -0.8976  0.3481 -0.3643
 6117TIP3   OH239985   0.971   1.031   8.131 -0.2133 -0.6250  0.2032
 6117TIP3    H139986   0.882   1.031   8.096 -0.6587 -0.9661  1.3004
 6117TIP3    H239987   0.966   1.086   8.210 -0.2482 -3.1580  2.0914
 6118TIP3   OH239988   0.218   1.171   1.963 -0.3992 -0.0907  0.3874
 6118TIP3    H139989   0.283   1.241   1.973  0.8814 -1.2730  0.7412
 6118TIP3    H239990   0.188   1.179   1.872  0.7543  0.0756 -0.0013
 6119TIP3   OH239991   1.131   2.485   7.083 -0.3757 -0.1804 -0.3778
 6119TIP3    H139992   1.212   2.492   7.033 -1.2919  0.3874 -1.8539
 6119TIP3    H239993   1.112   2.391   7.085  0.5208 -0.3602  0.3514
 6120TIP3   OH239994   1.129   1.705   1.089 -0.0918  0.4842 -0.0447
 6120TIP3    H139995   1.187   1.732   1.018 -0.7806  0.4535 -0.6308
 6120TIP3    H239996   1.067   1.777   1.098  0.3176  0.7315  0.9050
 6121TIP3   OH239997   4.805   1.739   8.490  0.2388  0.5818  0.4127
 6121TIP3    H139998   4.789   1.780   8.404 -1.6445 -0.0725  0.4028
 6121TIP3    H239999   4.860   1.663   8.470 -0.2536  0.3834 -0.2533
 6122TIP3   OH240000   0.649   6.020   8.264  0.0987  0.3027 -0.0172
 6122TIP3    H140001   0.619   5.946   8.211 -0.2815 -0.7258  1.5852
 6122TIP3    H240002   0.701   6.072   8.203 -0.1166 -0.9595 -1.3476
 6123TIP3   OH240003   6.883   2.004   0.169 -0.1361 -0.4639 -0.4482
 6123TIP3    H140004   6.803   2.024   0.219 -0.2638 -1.0160 -0.4293
 6123TIP3    H240005   6.904   1.914   0.193  0.6731 -0.2235 -0.2203
 6124TIP3   OH240006   6.286   3.602   1.938 -0.5857 -0.3201 -0.1283
 6124TIP3    H140007   6.334   3.526   1.906  0.9041  0.7626 -0.5778
 6124TIP3    H240008   6.301   3.602   2.032 -0.6599 -0.6174 -0.1153
 6125TIP3   OH240009   4.027   3.337   2.255  0.0304  0.2100  0.6066
 6125TIP3    H140010   4.099   3.321   2.316  0.1566  0.0171  0.4091
 6125TIP3    H240011   3.962   3.270   2.276  0.9121 -1.1413 -0.7736
 6126TIP3   OH240012   3.229   6.057   1.519 -0.0997  0.5888 -0.1343
 6126TIP3    H140013   3.228   6.061   1.423 -1.1624 -0.4894 -0.1940
 6126TIP3    H240014   3.158   5.996   1.541  1.4936 -0.8842  1.2337
 6127TIP3   OH240015   2.857   3.176   0.163  0.1207 -0.6034  0.1863
 6127TIP3    H140016   2.914   3.099   0.164  1.4936  0.2712 -2.1712
 6127TIP3    H240017   2.884   3.227   0.240  2.8073 -0.1044 -0.9779
 6128TIP3   OH240018   2.830   0.885   7.677  0.2400  0.0162 -0.8146
 6128TIP3    H140019   2.746   0.858   7.714  0.7968  0.6480  1.0566
 6128TIP3    H240020   2.880   0.917   7.752  1.5834  1.1404 -2.1161
 6129TIP3   OH240021   1.389   3.243   6.821  0.4267  0.3608 -0.6699
 6129TIP3    H140022   1.313   3.291   6.789 -0.8281 -1.6936 -0.9438
 6129TIP3    H240023   1.400   3.272   6.911  0.3586  1.8821 -1.1277
 6130TIP3   OH240024   5.883   6.522   7.748  0.0635 -0.0369  0.2806
 6130TIP3    H140025   5.799   6.553   7.782 -0.1916  0.8677 -1.0979
 6130TIP3    H240026   5.867   6.431   7.725 -0.3527 -0.0556  0.6282
 6131TIP3   OH240027   3.609   3.939   0.756  0.3003  0.7987 -0.4819
 6131TIP3    H140028   3.513   3.942   0.747  0.2852 -1.3159 -1.8601
 6131TIP3    H240029   3.635   4.031   0.764 -1.8074  1.4528 -0.3414
 6132TIP3   OH240030   6.622   0.135   8.105 -0.6398 -0.9317 -0.6109
 6132TIP3    H140031   6.631   0.185   8.024 -1.2040  0.1646 -0.0231
 6132TIP3    H240032   6.601   0.046   8.077 -1.9016 -0.3350 -1.6484
 6133TIP3   OH240033   0.847   0.668   0.067  0.4296  0.0267 -0.0214
 6133TIP3    H140034   0.887   0.734   0.011 -1.0614  2.2113  1.3257
 6133TIP3    H240035   0.757   0.661   0.036  1.2014 -3.7120 -2.0507
 6134TIP3   OH240036   0.327   4.680   8.059 -0.4446 -0.0839  0.3331
 6134TIP3    H140037   0.382   4.727   8.122 -0.7005  1.5191 -0.6014
 6134TIP3    H240038   0.388   4.646   7.994 -0.5115  1.7246 -0.7242
 6135TIP3   OH240039   0.249   5.033   0.730 -0.2248 -0.8689  0.5051
 6135TIP3    H140040   0.303   5.070   0.660  1.3734  0.1213  2.1493
 6135TIP3    H240041   0.238   4.941   0.706 -0.2112 -0.4356 -1.2927
 6136TIP3   OH240042   0.505   3.328   0.062 -0.1643 -0.3500  0.4704
 6136TIP3    H140043   0.467   3.247   0.096 -0.6577  0.0821  0.9814
 6136TIP3    H240044   0.479   3.331  -0.030 -1.1248 -0.2168  0.7375
 6137TIP3   OH240045   3.941   5.376   7.896  0.0685  0.2155 -0.0889
 6137TIP3    H140046   3.902   5.381   7.808  1.8272  2.1391 -0.8364
 6137TIP3    H240047   3.930   5.464   7.932 -0.4238 -0.4913  1.5738
 6138TIP3   OH240048   5.250   0.996   6.703  0.0112 -0.3684  0.1061
 6138TIP3    H140049   5.334   1.039   6.686 -0.9382  0.7206 -2.2855
 6138TIP3    H240050   5.208   0.991   6.617 -1.3015 -3.2874  0.7844
 6139TIP3   OH240051   2.331   1.207   7.914  0.0390 -0.1636  0.0632
 6139TIP3    H140052   2.245   1.247   7.924  0.1577 -0.2912  2.0737
 6139TIP3    H240053   2.367   1.205   8.003  2.3796  0.4485 -0.7863
 6140TIP3   OH240054   6.471   5.136   2.434 -0.6014 -0.4688  0.3189
 6140TIP3    H140055   6.470   5.225   2.397 -0.4093 -0.7296 -0.3340
 6140TIP3    H240056   6.482   5.149   2.528 -0.5487  0.2022  0.2241
 6141TIP3   OH240057   4.760   6.319   1.086 -0.4436 -0.1807 -0.7713
 6141TIP3    H140058   4.665   6.323   1.097 -0.5312  2.0506 -1.7343
 6141TIP3    H240059   4.773   6.318   0.991  0.5169 -1.6444 -0.6668
 6142TIP3   OH240060   4.828   2.540   1.210 -0.1908 -0.7584  0.5943
 6142TIP3    H140061   4.820   2.450   1.178  1.4335 -1.7048  2.5996
 6142TIP3    H240062   4.764   2.589   1.159 -0.8397 -2.9558 -0.8718
 6143TIP3   OH240063   6.897   0.870   7.934  0.0862  1.0041  0.3010
 6143TIP3    H140064   6.901   0.961   7.964  1.3756  1.2355 -0.5177
 6143TIP3    H240065   6.816   0.866   7.883  0.8385  2.1509 -1.0345
 6144TIP3   OH240066   4.628   5.986   2.264 -0.4706 -0.0494 -0.1444
 6144TIP3    H140067   4.719   5.993   2.233 -0.0585 -0.2212  0.9595
 6144TIP3    H240068   4.627   5.905   2.314 -1.4612 -0.4717 -0.8244
 6145TIP3   OH240069   6.647   6.802   6.890 -0.6824  0.2779 -0.6633
 6145TIP3    H140070   6.683   6.818   6.803 -0.1148  1.6095 -0.2159
 6145TIP3    H240071   6.555   6.825   6.883 -1.5517 -2.9340 -1.7591
 6146TIP3   OH240072   2.456   5.300   8.358  0.1354 -0.0227  0.1536
 6146TIP3    H140073   2.511   5.377   8.346 -0.1662  0.0974 -0.4886
 6146TIP3    H240074   2.519   5.228   8.367  0.4313  0.3562  1.2916
 6147TIP3   OH240075   3.592   1.560   0.706  0.0204  0.1394 -0.0049
 6147TIP3    H140076   3.561   1.470   0.709 -1.0608  0.4622 -0.9132
 6147TIP3    H240077   3.632   1.569   0.620  0.9367  0.2957  0.4168
 6148TIP3   OH240078   5.623   3.837   1.931  0.1535 -0.2857 -0.5391
 6148TIP3    H140079   5.711   3.869   1.909 -0.4245  0.7065 -1.4732
 6148TIP3    H240080   5.638   3.775   2.002  1.5126  0.6306  0.0178
 6149TIP3   OH240081   4.128   5.521   1.350  0.7261  0.5612 -0.1429
 6149TIP3    H140082   4.084   5.436   1.357  0.1388  0.7358 -1.4607
 6149TIP3    H240083   4.134   5.551   1.441  0.5009 -0.6603  0.3031
 6150TIP3   OH240084   0.509   3.816   2.524 -0.2559 -0.5363  0.3637
 6150TIP3    H140085   0.539   3.862   2.602 -3.6419  0.0863  1.4576
 6150TIP3    H240086   0.485   3.729   2.554 -0.1797 -0.8030 -0.3174
 6151TIP3   OH240087   5.430   4.924   0.395  0.1120 -0.0683 -0.1303
 6151TIP3    H140088   5.389   5.005   0.365 -0.0861 -0.3619 -0.6688
 6151TIP3    H240089   5.520   4.948   0.418 -0.2176  0.4880  0.6117
 6152TIP3   OH240090   1.643   6.318   7.902  0.5752  0.5605  0.5206
 6152TIP3    H140091   1.573   6.346   7.844 -0.8655 -2.4267  0.5806
 6152TIP3    H240092   1.722   6.320   7.848 -0.3817 -0.2142 -0.9862
 6153TIP3   OH240093   6.116   5.814   8.473 -0.0430  0.1236  0.3480
 6153TIP3    H140094   6.169   5.825   8.394  2.1145  1.4986  1.8673
 6153TIP3    H240095   6.118   5.720   8.491  2.4894  0.1734  0.6710
 6154TIP3   OH240096   2.141   3.100   0.406 -0.1165  0.0671 -0.2083
 6154TIP3    H140097   2.152   3.137   0.318  2.2385  0.8932  0.3714
 6154TIP3    H240098   2.090   3.166   0.453 -0.0497  0.3366 -0.5061
 6155TIP3   OH240099   1.215   4.620   8.033  0.1313 -0.7214 -0.3715
 6155TIP3    H140100   1.169   4.660   7.959  1.4037 -2.1041 -1.9931
 6155TIP3    H240101   1.308   4.635   8.014  0.4762 -0.1682  1.5364
 6156TIP3   OH240102   4.022   1.393   7.204  0.0630  0.5118 -0.2827
 6156TIP3    H140103   4.111   1.367   7.178  0.4653  0.9074  0.6375
 6156TIP3    H240104   3.967   1.367   7.131  0.8893 -0.0785 -0.7146
 6157TIP3   OH240105   3.573   4.500   1.157  0.0044  0.1472  0.3047
 6157TIP3    H140106   3.545   4.580   1.113  1.5207  0.4815 -0.1290
 6157TIP3    H240107   3.635   4.529   1.224 -1.6910 -0.4289  2.2074
 6158TIP3   OH240108   4.874   6.109   1.649  0.0740 -0.2010 -0.5936
 6158TIP3    H140109   4.961   6.071   1.658 -0.2514 -0.6869  0.8819
 6158TIP3    H240110   4.819   6.054   1.704 -1.3229 -0.3311 -2.0406
 6159TIP3   OH240111   5.539   5.667   7.449 -0.1112 -0.5309  0.3459
 6159TIP3    H140112   5.471   5.608   7.419 -0.5670 -0.3557  1.0136
 6159TIP3    H240113   5.547   5.732   7.379 -1.6404  0.2701  0.8927
 6160TIP3   OH240114   4.170   2.391   6.643 -0.1180 -0.0862 -0.2015
 6160TIP3    H140115   4.164   2.300   6.615 -1.2050 -0.1843  0.2616
 6160TIP3    H240116   4.080   2.413   6.669  0.0136  1.2916 -0.8370
 6161TIP3   OH240117   0.969   5.620   7.698  0.3388  0.1001 -0.0649
 6161TIP3    H140118   0.897   5.583   7.750  1.2031  0.4048  1.4068
 6161TIP3    H240119   0.938   5.707   7.672 -1.4140 -1.2214 -2.9336
 6162TIP3   OH240120   3.137   4.672   1.326 -0.2434  0.1103  0.8926
 6162TIP3    H140121   3.203   4.682   1.394  2.5925  0.0000 -1.6190
 6162TIP3    H240122   3.158   4.588   1.285 -1.0933  0.6786 -0.8061
 6163TIP3   OH240123   4.986   0.506   2.475  0.0296 -0.2958  0.2583
 6163TIP3    H140124   4.894   0.525   2.460 -0.1107 -1.2159 -0.0949
 6163TIP3    H240125   4.988   0.466   2.562  0.2519  0.8060  0.7672
 6164TIP3   OH240126   0.333   6.076   7.336 -0.2932 -0.4384  0.0992
 6164TIP3    H140127   0.406   6.113   7.385 -1.3472 -0.6869  1.9393
 6164TIP3    H240128   0.272   6.046   7.403 -0.8986 -2.6645 -1.3572
 6165TIP3   OH240129   3.813   5.415   1.309  0.3203  0.0150 -0.5923
 6165TIP3    H140130   3.846   5.458   1.231 -1.0133  0.6642 -0.8313
 6165TIP3    H240131   3.763   5.340   1.277  0.5754 -0.2761 -0.3141
 6166TIP3   OH240132   1.947   3.994   8.068 -0.1492 -0.3706  0.3813
 6166TIP3    H140133   1.997   3.940   8.006  0.3990 -1.5919  1.8163
 6166TIP3    H240134   2.007   4.066   8.090  0.2302 -0.7453  0.5967
 6167TIP3   OH240135   4.731   2.486   7.634 -0.8494 -0.2068 -0.0511
 6167TIP3    H140136   4.650   2.508   7.586 -0.8603 -0.9143 -0.3616
 6167TIP3    H240137   4.749   2.395   7.610  0.1755  0.0197 -0.1704
 6168TIP3   OH240138   3.462   5.008   1.936 -0.1122 -0.6469 -0.5260
 6168TIP3    H140139   3.469   4.931   1.992 -0.8639 -0.0642  0.3809
 6168TIP3    H240140   3.376   5.044   1.954  0.4533  0.7431 -0.5111
 6169TIP3   OH240141   6.012   2.689   1.798  0.0510 -0.4283 -0.0320
 6169TIP3    H140142   6.102   2.702   1.829  0.3902 -2.4946  0.0355
 6169TIP3    H240143   6.007   2.738   1.717  0.6154  1.2907  0.9218
 6170TIP3   OH240144   5.601   2.905   7.117  0.0480  0.2545 -0.1504
 6170TIP3    H140145   5.581   2.869   7.031 -0.2126  1.9434 -0.8384
 6170TIP3    H240146   5.688   2.944   7.107  0.4750 -0.4571  0.6675
 6171TIP3   OH240147   3.971   0.932   7.076  0.3379  0.1208 -0.8160
 6171TIP3    H140148   4.010   0.865   7.021  1.4779  0.4629 -0.4674
 6171TIP3    H240149   3.955   1.006   7.017  1.8676  0.6111 -0.6647
 6172TIP3   OH240150   2.263   6.545   1.869  0.0689 -0.4035 -0.2935
 6172TIP3    H140151   2.181   6.508   1.835 -1.8228  2.3141  0.9689
 6172TIP3    H240152   2.264   6.635   1.836  1.4104  0.3133  1.5505
 6173TIP3   OH240153   3.213   2.970   0.817  0.3778  0.3206  0.3713
 6173TIP3    H140154   3.135   3.023   0.833 -0.2525 -0.8229  1.2153
 6173TIP3    H240155   3.264   2.978   0.898  1.7884  2.0364 -0.5964
 6174TIP3   OH240156   2.378   5.743   7.556 -0.5523 -0.9599  0.1066
 6174TIP3    H140157   2.442   5.800   7.599  0.0846 -0.3873 -1.5363
 6174TIP3    H240158   2.360   5.675   7.620  0.7430 -0.4251  1.0804
 6175TIP3   OH240159   5.517   2.068   0.882  0.2710 -0.0655 -0.2444
 6175TIP3    H140160   5.466   2.139   0.921 -1.0536 -0.7982 -0.5654
 6175TIP3    H240161   5.548   2.103   0.799 -1.2342 -0.1630 -0.8744
 6176TIP3   OH240162   1.611   1.116   8.091 -0.6179  0.2444 -0.0680
 6176TIP3    H140163   1.563   1.040   8.123  0.0278  0.4274  1.4229
 6176TIP3    H240164   1.702   1.099   8.113 -0.4443  1.3812  0.1843
 6177TIP3   OH240165   4.136   3.893   2.593 -0.2404  0.1504 -0.0392
 6177TIP3    H140166   4.073   3.836   2.636 -1.4179  1.8111  0.5429
 6177TIP3    H240167   4.186   3.932   2.664  0.8452 -0.4400 -0.4520
 6178TIP3   OH240168   1.543   4.021   0.839  0.4503 -0.1684  0.0502
 6178TIP3    H140169   1.595   4.064   0.907 -0.2740  0.6020  0.1239
 6178TIP3    H240170   1.588   4.042   0.757  0.8180 -0.3589  0.1964
 6179TIP3   OH240171   2.341   6.311   8.260 -0.8667  0.0908 -0.6749
 6179TIP3    H140172   2.410   6.367   8.295 -0.7115  0.1351 -1.0475
 6179TIP3    H240173   2.287   6.290   8.336 -0.3484 -0.0842 -0.3505
 6180TIP3   OH240174   6.130   0.251   1.436 -0.5020  0.4636 -0.0908
 6180TIP3    H140175   6.200   0.188   1.424 -1.1386 -0.0407 -1.4138
 6180TIP3    H240176   6.062   0.204   1.484 -1.2316 -0.1161 -1.6059
 6181TIP3   OH240177   6.275   0.081   7.946 -0.4279  0.4691 -0.0403
 6181TIP3    H140178   6.221   0.104   7.871  0.9746  1.2633 -0.8566
 6181TIP3    H240179   6.266   0.155   8.006  0.9945  1.4049 -0.9167
 6182TIP3   OH240180   6.117   3.893   7.766 -0.0458  0.4322 -0.0863
 6182TIP3    H140181   6.057   3.819   7.779  0.4212 -0.0711 -0.7289
 6182TIP3    H240182   6.109   3.914   7.673 -0.9610  1.8929  0.2864
 6183TIP3   OH240183   6.553   1.621   7.450  0.8996 -0.3194 -0.4599
 6183TIP3    H140184   6.535   1.639   7.543  1.2424  1.6597 -0.7334
 6183TIP3    H240185   6.612   1.546   7.452 -0.2655 -1.2757  0.8341
 6184TIP3   OH240186   1.317   0.346   2.064 -0.3353 -0.1754 -0.4129
 6184TIP3    H140187   1.327   0.423   2.121  2.1824 -0.8369  0.1291
 6184TIP3    H240188   1.222   0.340   2.050 -0.6544  2.9517 -0.4165
 6185TIP3   OH240189   0.940   3.554   7.835  0.3724 -0.2755  0.3949
 6185TIP3    H140190   0.954   3.586   7.924  0.0304 -1.2055  0.7871
 6185TIP3    H240191   0.933   3.634   7.782  0.4411  0.2851  1.2152
 6186TIP3   OH240192   4.658   1.090   1.464 -0.0329  0.2346 -0.5397
 6186TIP3    H140193   4.746   1.128   1.454 -0.3202  0.3380 -3.4972
 6186TIP3    H240194   4.672   0.996   1.458  0.0442  0.1293  0.9571
 6187TIP3   OH240195   2.893   4.552   1.218 -0.7008 -0.2655 -0.5189
 6187TIP3    H140196   2.865   4.491   1.287 -0.3062  0.9728  0.7773
 6187TIP3    H240197   2.971   4.594   1.253 -0.2235  0.0696 -1.9340
 6188TIP3   OH240198   4.761   0.360   7.208  0.1403  0.3690  0.4434
 6188TIP3    H140199   4.715   0.402   7.135  1.0289 -1.4856 -1.2676
 6188TIP3    H240200   4.847   0.402   7.210  0.9015 -1.0094 -1.0420
 6189TIP3   OH240201   2.652   5.759   1.056  0.4951 -0.6158 -0.2435
 6189TIP3    H140202   2.626   5.689   0.998 -0.0233 -0.2687 -0.4348
 6189TIP3    H240203   2.592   5.753   1.130  0.2646 -0.2084 -0.3907
 6190TIP3   OH240204   1.430   6.077   7.792  0.0268  0.0451 -0.1794
 6190TIP3    H140205   1.379   6.014   7.741  0.3786 -0.1658 -0.2804
 6190TIP3    H240206   1.399   6.163   7.763  0.3276 -0.0715 -0.8708
 6191TIP3   OH240207   4.716   5.489   1.469 -0.2043 -0.0537  0.4548
 6191TIP3    H140208   4.669   5.414   1.431  0.4899  0.9207 -2.6024
 6191TIP3    H240209   4.655   5.526   1.532 -1.4318 -1.8906  0.4237
 6192TIP3   OH240210   6.601   6.468   7.617  0.4940  0.2370 -0.3099
 6192TIP3    H140211   6.622   6.559   7.636  4.4771 -0.4184 -0.8197
 6192TIP3    H240212   6.576   6.467   7.525  0.4689  0.7781 -0.3078
 6193TIP3   OH240213   1.083   2.001   0.835 -0.2804  0.1815 -0.2486
 6193TIP3    H140214   1.083   2.095   0.853  0.9601  0.2872 -0.6543
 6193TIP3    H240215   1.168   1.985   0.794 -0.3374 -1.1798  0.1107
 6194TIP3   OH240216   4.072   0.199   6.943 -1.1387  0.0098 -0.1416
 6194TIP3    H140217   4.139   0.267   6.949 -2.2275  1.2739 -1.4638
 6194TIP3    H240218   4.106   0.138   6.878  0.0848 -1.0626  1.4314
 6195TIP3   OH240219   1.718   4.901   8.362 -0.1946  0.9668 -0.5099
 6195TIP3    H140220   1.687   4.928   8.448  0.1553  3.2555 -1.0337
 6195TIP3    H240221   1.812   4.887   8.373 -0.2725  0.5295 -0.3755
 6196TIP3   OH240222   2.392   3.393   8.370 -0.0406  0.2984  0.2046
 6196TIP3    H140223   2.462   3.367   8.311 -0.3358 -0.5338  0.2175
 6196TIP3    H240224   2.350   3.311   8.397 -0.8728  0.7642  0.3827
 6197TIP3   OH240225   6.113   1.670   8.028  0.4086 -0.4567 -0.0491
 6197TIP3    H140226   6.147   1.706   8.110 -1.4077  1.7678 -0.1998
 6197TIP3    H240227   6.178   1.696   7.963  0.3168  0.4714  0.2205
 6198TIP3   OH240228   2.180   2.540   1.896  0.0667  0.5761 -1.0443
 6198TIP3    H140229   2.096   2.546   1.942  0.2525  0.2226 -0.6488
 6198TIP3    H240230   2.235   2.607   1.938  1.0367 -1.3778  1.0007
 6199TIP3   OH240231   3.630   6.182   8.070  0.0466  0.5653 -0.2608
 6199TIP3    H140232   3.705   6.128   8.045 -0.1334 -0.4913  1.3615
 6199TIP3    H240233   3.557   6.147   8.018  0.5310  1.2410 -1.4313
 6200TIP3   OH240234   3.964   0.934   0.491  0.3662 -0.1866 -0.5683
 6200TIP3    H140235   3.871   0.958   0.495  0.5682  0.4628  1.2471
 6200TIP3    H240236   3.972   0.882   0.411 -1.0024  2.0220 -2.2589
 6201TIP3   OH240237   5.239   5.648   1.188  0.3613 -0.2600  0.4181
 6201TIP3    H140238   5.309   5.587   1.211  0.6040 -0.2495 -0.2791
 6201TIP3    H240239   5.274   5.734   1.212  0.9798 -0.1530 -0.7985
 6202TIP3   OH240240   5.816   5.480   1.966 -0.2001 -0.0208 -0.0436
 6202TIP3    H140241   5.748   5.412   1.960 -0.5177  0.3271 -0.4889
 6202TIP3    H240242   5.882   5.453   1.902 -1.8648  1.7702 -2.6904
 6203TIP3   OH240243   3.551   0.946   7.655 -0.0391  0.0978  0.3598
 6203TIP3    H140244   3.640   0.978   7.635 -0.4258 -0.4359 -2.7647
 6203TIP3    H240245   3.565   0.862   7.700  1.0228  0.3464  0.5223
 6204TIP3   OH240246   5.204   2.412   6.470  0.0903  0.5197  0.1664
 6204TIP3    H140247   5.270   2.424   6.539 -0.0394 -1.1917  0.6502
 6204TIP3    H240248   5.254   2.410   6.389  0.4843  0.5778  0.4044
 6205TIP3   OH240249   2.052   1.425   7.534  0.5231  0.6075  1.0622
 6205TIP3    H140250   2.108   1.356   7.499  0.5589  0.7375  0.8646
 6205TIP3    H240251   2.108   1.503   7.533 -0.5064  1.4234 -1.8209
 6206TIP3   OH240252   6.916   3.728   7.795 -0.2019  0.5255 -0.0825
 6206TIP3    H140253   6.858   3.687   7.731 -0.3429 -1.1082  1.0368
 6206TIP3    H240254   6.878   3.814   7.811 -0.3952  0.8076 -1.8529
 6207TIP3   OH240255   3.147   5.330   8.084  0.2747  0.3658  0.2792
 6207TIP3    H140256   3.080   5.368   8.027  0.9130  0.9576 -0.0834
 6207TIP3    H240257   3.220   5.391   8.079  0.8533 -0.2913  0.6514
 6208TIP3   OH240258   0.314   0.487   0.267 -0.2099 -0.2003  0.1086
 6208TIP3    H140259   0.338   0.579   0.256  1.6870 -0.6051  0.5377
 6208TIP3    H240260   0.230   0.490   0.312  0.9110  1.3539  2.3048
 6209TIP3   OH240261   5.005   6.087   7.574  0.4264 -0.3099  0.5791
 6209TIP3    H140262   4.983   6.162   7.630 -0.8771 -0.3793  0.2009
 6209TIP3    H240263   5.051   6.125   7.500 -2.2675  0.5246 -0.8092
 6210TIP3   OH240264   3.622   0.386   8.004 -0.2532  0.1720 -0.0031
 6210TIP3    H140265   3.650   0.391   7.912  0.4113  0.0862  0.1910
 6210TIP3    H240266   3.531   0.356   8.000  0.4442 -2.0630 -0.5591
 6211TIP3   OH240267   1.023   0.390   0.655  0.5142  0.1576  0.1750
 6211TIP3    H140268   1.008   0.473   0.608  0.6910 -0.1999 -0.5251
 6211TIP3    H240269   1.114   0.395   0.684  0.4824  0.2646  0.2591
 6212TIP3   OH240270   1.636   4.564   8.518  0.1026  0.0922 -0.0412
 6212TIP3    H140271   1.591   4.628   8.463 -0.2518  0.1043  0.2610
 6212TIP3    H240272   1.571   4.538   8.583 -0.3094 -1.7836 -1.1279
 6213TIP3   OH240273   0.699   2.518   0.980  0.1857  0.1354  0.0057
 6213TIP3    H140274   0.643   2.587   0.946 -0.7448  0.3504  1.8105
 6213TIP3    H240275   0.776   2.564   1.013  0.4807  0.0850 -0.6234
 6214TIP3   OH240276   6.743   5.799   1.457 -0.2679 -0.1338  0.7842
 6214TIP3    H140277   6.777   5.719   1.416 -1.5590 -0.2571 -0.1035
 6214TIP3    H240278   6.817   5.833   1.507  0.5486 -1.4563  0.5414
 6215TIP3   OH240279   6.401   1.998   7.577  0.1044 -0.3070 -0.9006
 6215TIP3    H140280   6.362   1.950   7.650  1.6532  0.8353  0.7450
 6215TIP3    H240281   6.330   2.052   7.543 -0.1772  0.6556  1.0991
 6216TIP3   OH240282   2.132   6.115   1.768  0.0806 -0.2138  0.2964
 6216TIP3    H140283   2.190   6.074   1.705 -0.0932 -1.0465  0.6667
 6216TIP3    H240284   2.173   6.100   1.853  1.2372  2.4218  0.3069
 6217TIP3   OH240285   4.791   3.037   7.661  0.0298  0.7896  0.2298
 6217TIP3    H140286   4.831   3.123   7.665  0.3499  0.7051 -0.8209
 6217TIP3    H240287   4.697   3.055   7.655  0.0932  1.0627  0.0324
 6218TIP3   OH240288   6.230   6.785   1.069  0.1161  0.0199  0.0781
 6218TIP3    H140289   6.286   6.804   1.144 -0.2885 -1.0184  0.6538
 6218TIP3    H240290   6.265   6.840   0.998  0.9608  0.4476  0.8165
 6219TIP3   OH240291   6.250   5.669   7.661 -0.0904 -0.2851 -0.0397
 6219TIP3    H140292   6.278   5.646   7.572 -1.1046  2.7499 -1.2892
 6219TIP3    H240293   6.318   5.728   7.693 -1.1926  1.0602 -0.0682
 6220TIP3   OH240294   6.719   4.804   1.004  0.2098  0.4664  0.6548
 6220TIP3    H140295   6.756   4.716   0.992  0.0482  0.4729  0.0856
 6220TIP3    H240296   6.637   4.789   1.050 -0.1673  0.2472 -0.0683
 6221TIP3   OH240297   6.873   2.192   1.154 -0.1064  0.6255  0.5028
 6221TIP3    H140298   6.838   2.149   1.076  0.3652  0.2040  0.5203
 6221TIP3    H240299   6.850   2.133   1.226  0.2476  0.5611  0.5665
 6222TIP3   OH240300   3.956   5.210   8.189 -0.0535  0.1486 -0.0162
 6222TIP3    H140301   3.937   5.128   8.235  0.6524  0.2596  0.4925
 6222TIP3    H240302   3.945   5.189   8.097  1.2637 -0.8454  0.0232
 6223TIP3   OH240303   4.467   2.237   1.007  0.3031  0.0220 -0.0133
 6223TIP3    H140304   4.402   2.209   1.071  0.0635 -1.0763 -0.7198
 6223TIP3    H240305   4.423   2.305   0.956  0.2821  0.4464  0.5562
 6224TIP3   OH240306   4.440   5.235   1.165 -0.2359 -0.2372  0.1485
 6224TIP3    H140307   4.496   5.258   1.091 -1.4572  2.7757  0.0230
 6224TIP3    H240308   4.352   5.225   1.127 -0.5448 -0.6129  0.9310
 6225TIP3   OH240309   0.501   2.124   1.334 -0.1413  0.3774 -0.3603
 6225TIP3    H140310   0.500   2.038   1.292 -0.4397  0.2544 -0.1024
 6225TIP3    H240311   0.487   2.185   1.262  2.2992  0.3912 -0.9422
 6226TIP3   OH240312   0.010   6.764   1.757  0.0247 -0.6362  0.4077
 6226TIP3    H140313   0.019   6.852   1.795  0.0926 -0.4915  0.0578
 6226TIP3    H240314   0.082   6.714   1.797  0.3896 -0.3550  0.1148
 6227TIP3   OH240315   4.413   1.722   1.933 -0.0959 -0.2573 -0.1563
 6227TIP3    H140316   4.376   1.770   2.007  0.5149  2.8483 -1.6883
 6227TIP3    H240317   4.497   1.765   1.917  0.0889 -1.2833 -2.2085
 6228TIP3   OH240318   2.703   5.286   7.176  0.0830  0.1879 -0.1930
 6228TIP3    H140319   2.648   5.343   7.122  0.7952 -0.4470 -1.6293
 6228TIP3    H240320   2.791   5.296   7.139  0.0659 -2.6452 -1.2288
 6229TIP3   OH240321   6.348   2.415   2.045  0.4411 -0.8133 -0.4069
 6229TIP3    H140322   6.304   2.391   1.963  1.1136  0.0118 -1.0409
 6229TIP3    H240323   6.359   2.510   2.038  0.2951 -0.7053  0.7591
 6230TIP3   OH240324   6.456   4.930   0.865  0.0030 -0.3778  0.2046
 6230TIP3    H140325   6.429   4.846   0.828  0.9138 -0.2819 -0.7486
 6230TIP3    H240326   6.551   4.932   0.852 -0.0491  0.9497 -0.1319
 6231TIP3   OH240327   6.518   3.622   0.673 -0.6278 -0.2766  0.8112
 6231TIP3    H140328   6.448   3.595   0.733  0.2622 -1.6022  1.2978
 6231TIP3    H240329   6.599   3.609   0.722  0.0462 -0.0675 -0.2072
 6232TIP3   OH240330   4.073   0.502   2.936 -0.1230 -0.1117  0.0548
 6232TIP3    H140331   4.032   0.419   2.960 -0.6741 -0.2943 -1.4158
 6232TIP3    H240332   4.085   0.497   2.841  0.9244  1.0131  0.1028
 6233TIP3   OH240333   5.597   5.616   7.717 -0.4964  0.9230 -0.0586
 6233TIP3    H140334   5.602   5.709   7.738  2.4082  1.1967 -1.4691
 6233TIP3    H240335   5.579   5.613   7.623  1.3931  0.1758 -0.4420
 6234TIP3   OH240336   6.596   0.961   1.435  0.0757 -0.7954  0.3383
 6234TIP3    H140337   6.523   1.015   1.406  0.1923 -1.1044 -0.5896
 6234TIP3    H240338   6.623   0.999   1.518 -1.0739 -0.6173  0.6482
 6235TIP3   OH240339   3.499   1.263   1.775  0.2562 -0.1407  0.3294
 6235TIP3    H140340   3.517   1.203   1.847 -0.5084 -0.0539  0.6081
 6235TIP3    H240341   3.429   1.220   1.725  2.0100 -1.0762 -1.4537
 6236TIP3   OH240342   2.264   5.733   2.032  0.5989  0.5709 -0.1753
 6236TIP3    H140343   2.307   5.814   2.006  0.1288  1.3274  1.3076
 6236TIP3    H240344   2.227   5.752   2.118 -2.0078 -0.2868 -1.0254
 6237TIP3   OH240345   4.911   1.082   1.710  0.1801 -0.1461  0.0525
 6237TIP3    H140346   4.986   1.124   1.752  0.5807 -1.9267  1.2293
 6237TIP3    H240347   4.895   1.134   1.631  1.8232  1.0439  0.4582
 6238TIP3   OH240348   1.466   5.482   8.484 -0.0740  0.6241 -0.6475
 6238TIP3    H140349   1.562   5.492   8.483 -0.0518  0.8164  0.8162
 6238TIP3    H240350   1.451   5.407   8.542 -0.8649  1.9965  1.0288
 6239TIP3   OH240351   0.909   4.285   8.202 -0.0718  0.2505 -0.0708
 6239TIP3    H140352   0.840   4.220   8.186  0.3685 -0.5788  1.1821
 6239TIP3    H240353   0.988   4.233   8.216  0.7653  1.1735 -1.1512
 6240TIP3   OH240354   4.730   5.402   7.170  0.3968  0.2572 -0.4409
 6240TIP3    H140355   4.695   5.445   7.092 -0.2983  3.0500  1.2451
 6240TIP3    H240356   4.652   5.367   7.214  0.6226 -0.0925 -0.3177
 6241TIP3   OH240357   2.950   5.087   1.283 -0.3093  0.3031 -0.2687
 6241TIP3    H140358   2.925   4.995   1.276 -1.1259  0.4578  0.3396
 6241TIP3    H240359   2.931   5.110   1.375  1.1384  0.7238 -0.0541
 6242TIP3   OH240360   1.610   2.063   3.202 -0.1993 -0.4218 -0.4405
 6242TIP3    H140361   1.683   2.013   3.238  0.5790 -0.5284 -2.0706
 6242TIP3    H240362   1.615   2.148   3.246 -0.2140 -1.0172  0.7598
 6243TIP3   OH240363   4.353   5.833   2.214  0.1803  0.1036  0.1190
 6243TIP3    H140364   4.427   5.887   2.185  0.4294 -0.7483 -0.9128
 6243TIP3    H240365   4.316   5.881   2.288  0.3393  1.7346 -0.7986
 6244TIP3   OH240366   2.582   2.014   0.012 -0.1506 -0.0736 -0.4635
 6244TIP3    H140367   2.622   1.950   0.071 -0.9957 -1.4688 -1.3468
 6244TIP3    H240368   2.621   2.098   0.038  0.1989 -0.7703  1.4246
 6245TIP3   OH240369   4.164   5.709   2.068  0.6172  0.1312 -0.6378
 6245TIP3    H140370   4.244   5.759   2.082  1.0923 -0.1693 -2.1544
 6245TIP3    H240371   4.111   5.726   2.146  0.9221  2.6441 -0.9093
 6246TIP3   OH240372   2.541   4.353   8.474 -0.3586  0.1925 -0.6900
 6246TIP3    H140373   2.567   4.284   8.413  1.5992  1.7342 -1.7564
 6246TIP3    H240374   2.624   4.381   8.515 -1.3184  0.7766  0.9530
 6247TIP3   OH240375   0.905   1.634   0.494 -0.0447  0.2377 -1.1696
 6247TIP3    H140376   0.899   1.728   0.513 -0.3183 -0.1396  0.8049
 6247TIP3    H240377   0.925   1.630   0.400  4.8127  2.4402 -0.5304
 6248TIP3   OH240378   2.989   3.959   0.643 -0.2782 -0.3341  0.3167
 6248TIP3    H140379   3.005   3.867   0.665 -1.1749 -0.4949  0.3086
 6248TIP3    H240380   3.060   4.006   0.687  0.3524 -1.0501  0.0848
 6249TIP3   OH240381   6.321   4.775   1.653  0.4049  0.0247 -0.1442
 6249TIP3    H140382   6.237   4.780   1.698  0.5850 -0.3790  0.2433
 6249TIP3    H240383   6.326   4.856   1.602 -0.0950  0.1774  0.0486
 6250TIP3   OH240384   0.784   0.287   2.814  0.0601  0.2376  0.4701
 6250TIP3    H140385   0.690   0.292   2.831 -0.4174  0.8815 -1.9881
 6250TIP3    H240386   0.809   0.200   2.844 -0.7626  0.8869  3.3908
 6251TIP3   OH240387   6.239   1.668   1.812 -0.4165 -0.0806  0.3080
 6251TIP3    H140388   6.240   1.621   1.728 -0.5317  1.1774 -0.4304
 6251TIP3    H240389   6.324   1.713   1.815 -1.6942  2.6599 -0.8341
 6252TIP3   OH240390   3.274   1.745   1.859 -0.3134 -0.3831  0.0366
 6252TIP3    H140391   3.259   1.724   1.951  0.2738 -0.2909  0.1568
 6252TIP3    H240392   3.367   1.728   1.846 -0.2002  0.4615 -0.3126
 6253TIP3   OH240393   0.758   0.458   8.006 -0.3717 -0.2455  0.0396
 6253TIP3    H140394   0.794   0.522   8.068  0.0637 -0.4520  0.0088
 6253TIP3    H240395   0.813   0.381   8.017 -0.8898 -0.6129  0.0676
 6254TIP3   OH240396   0.707   3.801   6.922  0.5473 -0.1489  0.4853
 6254TIP3    H140397   0.657   3.816   7.002  0.8610 -0.1231  0.6763
 6254TIP3    H240398   0.766   3.729   6.942  0.9469  0.1572  0.4244
 6255TIP3   OH240399   2.999   0.102   0.574  0.1472  0.2040  0.2994
 6255TIP3    H140400   2.912   0.105   0.615 -0.4511  1.4466 -0.9913
 6255TIP3    H240401   2.998   0.173   0.511  1.8933 -0.1843 -0.2032
 6256TIP3   OH240402   2.042   2.251   7.079  0.0571 -0.6589 -0.4058
 6256TIP3    H140403   1.996   2.225   7.158 -0.9163  0.0204 -0.7239
 6256TIP3    H240404   1.972   2.279   7.019  0.7591 -1.3171 -1.5601
 6257TIP3   OH240405   2.906   0.287   1.399  0.3587  0.7437  0.3353
 6257TIP3    H140406   2.953   0.263   1.319  0.4719 -0.1365  0.6465
 6257TIP3    H240407   2.877   0.203   1.435  0.7519  1.0755  1.4751
 6258TIP3   OH240408   4.990   3.430   8.480 -0.1323 -0.3861 -0.7533
 6258TIP3    H140409   5.056   3.400   8.542  0.8286 -1.2595 -2.1135
 6258TIP3    H240410   5.033   3.499   8.430 -0.3089 -0.7960 -1.4941
 6259TIP3   OH240411   0.398   0.738   0.268 -0.4603 -0.1427  0.5096
 6259TIP3    H140412   0.370   0.825   0.241  0.1812 -0.0443  0.1247
 6259TIP3    H240413   0.402   0.741   0.363  0.9548  0.7069  0.4449
 6260TIP3   OH240414   6.045   3.581   1.857  0.2473  0.0037  0.4222
 6260TIP3    H140415   6.012   3.658   1.810 -2.3084  0.2677  2.4413
 6260TIP3    H240416   6.139   3.594   1.862 -0.1759  3.5432  1.4915
 6261TIP3   OH240417   1.388   4.128   1.295  0.5272 -0.3801 -0.3561
 6261TIP3    H140418   1.433   4.084   1.366  1.4455 -1.3276 -1.4864
 6261TIP3    H240419   1.316   4.070   1.271  0.0951  0.0316 -0.0809
 6262TIP3   OH240420   3.270   0.077   8.186 -0.3647 -0.5981  0.0079
 6262TIP3    H140421   3.351   0.067   8.236 -1.0079 -2.8324  0.7255
 6262TIP3    H240422   3.205   0.107   8.250 -0.2781  0.5479 -0.4227
 6263TIP3   OH240423   1.612   4.851   2.435  0.2088 -0.1249  0.4998
 6263TIP3    H140424   1.606   4.925   2.497  1.2265 -0.3758  0.9211
 6263TIP3    H240425   1.569   4.779   2.481  0.1246 -0.0649  0.5173
 6264TIP3   OH240426   5.877   1.144   7.475  0.4955 -0.0920 -0.0758
 6264TIP3    H140427   5.950   1.185   7.428  0.3167  0.7049  0.3304
 6264TIP3    H240428   5.877   1.186   7.561  0.7131 -1.4096  0.6047
 6265TIP3   OH240429   5.492   1.557   2.215  0.1473  0.0348  0.3119
 6265TIP3    H140430   5.540   1.625   2.261  0.1233  0.2543  0.0126
 6265TIP3    H240431   5.460   1.499   2.284 -1.0664  1.1125  0.6919
 6266TIP3   OH240432   6.606   0.918   1.991 -0.0493  0.3014 -0.3941
 6266TIP3    H140433   6.571   0.869   1.916  1.4663  1.8632 -2.2313
 6266TIP3    H240434   6.647   0.995   1.952  2.7456  0.1006  1.8330
 6267TIP3   OH240435   4.379   2.223   1.883 -0.0226 -0.1851 -0.4101
 6267TIP3    H140436   4.428   2.171   1.819 -0.7307 -0.5245 -0.6818
 6267TIP3    H240437   4.395   2.179   1.966  1.6529  0.7749 -0.1578
 6268TIP3   OH240438   4.538   2.957   2.007 -0.1231  0.3400 -0.3638
 6268TIP3    H140439   4.477   2.964   1.934  0.3396 -0.9783 -0.9153
 6268TIP3    H240440   4.490   2.907   2.074  0.0819 -0.0581 -0.5085
 6269TIP3   OH240441   6.101   5.984   7.145  0.1699 -0.0400 -0.8192
 6269TIP3    H140442   6.111   6.012   7.054 -2.4527 -1.3390 -1.5964
 6269TIP3    H240443   6.041   6.047   7.183 -3.4003 -2.5925 -1.7495
 6270TIP3   OH240444   0.691   4.735   7.499 -0.2124 -0.6121 -0.2981
 6270TIP3    H140445   0.694   4.692   7.414  1.7204 -0.2215 -0.4609
 6270TIP3    H240446   0.737   4.675   7.558  1.5525  0.6716 -0.3026
 6271TIP3   OH240447   2.389   6.310   1.716  0.6199  0.2695 -0.0244
 6271TIP3    H140448   2.404   6.402   1.740 -0.5003  0.7000 -0.9172
 6271TIP3    H240449   2.309   6.311   1.664 -0.5473 -1.4773  1.6080
 6272TIP3   OH240450   6.908   3.265   1.430 -0.0515 -0.7107  0.3465
 6272TIP3    H140451   6.879   3.298   1.345 -0.4942 -1.0137  0.3783
 6272TIP3    H240452   6.977   3.325   1.457  0.4953 -0.9440 -0.4925
 6273TIP3   OH240453   4.184   4.069   1.489 -0.5616  0.1287  0.1466
 6273TIP3    H140454   4.106   4.039   1.535 -0.5105  0.2376  0.3066
 6273TIP3    H240455   4.156   4.079   1.398 -0.6340 -0.1915  0.1346
 6274TIP3   OH240456   2.067   1.599   7.945 -0.9913 -0.7196 -0.3022
 6274TIP3    H140457   2.076   1.677   7.890  0.7315 -1.8710 -1.7300
 6274TIP3    H240458   2.085   1.631   8.034  1.7584  0.1887 -1.0959
 6275TIP3   OH240459   3.494   5.429   1.568 -0.5050 -0.5720  0.0594
 6275TIP3    H140460   3.583   5.423   1.604 -0.3864 -0.0969 -0.1466
 6275TIP3    H240461   3.507   5.461   1.479 -0.9911  1.2289  0.5916
 6276TIP3   OH240462   5.899   4.801   0.948  0.1825  0.1557 -0.4601
 6276TIP3    H140463   5.927   4.801   0.856  2.4483 -0.1299  0.1586
 6276TIP3    H240464   5.805   4.819   0.945  0.2043  0.1762 -2.8208
 6277TIP3   OH240465   4.151   1.830   0.350  0.2646 -0.4787 -0.4245
 6277TIP3    H140466   4.192   1.916   0.345  0.6185 -0.4687  1.6875
 6277TIP3    H240467   4.144   1.802   0.259  1.3406  1.2172 -1.0877
 6278TIP3   OH240468   4.202   6.337   2.768  0.3632 -0.1503  0.2073
 6278TIP3    H140469   4.131   6.273   2.781  0.1758  0.1289  0.5779
 6278TIP3    H240470   4.160   6.422   2.784  0.2787  0.1912 -1.5475
 6279TIP3   OH240471   0.877   0.738   7.320 -0.0405 -0.7811  0.0134
 6279TIP3    H140472   0.947   0.779   7.270  0.2594  0.8423  1.6549
 6279TIP3    H240473   0.806   0.802   7.321 -0.4878 -1.2658  0.6646
 6280TIP3   OH240474   5.106   4.213   1.334  0.4505  0.3474  0.5556
 6280TIP3    H140475   5.021   4.255   1.346  0.0518 -0.7446  1.8155
 6280TIP3    H240476   5.124   4.220   1.240 -0.8506  0.9224  0.3340
 6281TIP3   OH240477   4.247   5.216   7.303  0.5407 -0.5592 -0.3660
 6281TIP3    H140478   4.265   5.297   7.351 -1.0012  0.1569 -0.9553
 6281TIP3    H240479   4.332   5.189   7.269  1.2784  0.1555  0.8398
 6282TIP3   OH240480   5.498   6.096   0.437 -0.4442 -0.4596 -0.1567
 6282TIP3    H140481   5.526   6.009   0.411 -0.9727 -0.1806 -1.7498
 6282TIP3    H240482   5.429   6.080   0.502 -0.8471 -1.2444 -0.7627
 6283TIP3   OH240483   4.822   2.562   7.266 -0.3543  0.2573 -1.0348
 6283TIP3    H140484   4.795   2.588   7.178 -0.7121  0.9543 -0.7279
 6283TIP3    H240485   4.808   2.641   7.320 -0.6340 -0.3127 -0.2506
 6284TIP3   OH240486   5.751   4.802   1.257  0.2318 -0.1639  1.2322
 6284TIP3    H140487   5.691   4.826   1.186 -0.4975 -2.9027  0.8235
 6284TIP3    H240488   5.833   4.846   1.236 -1.0229  2.0769  0.7373
 6285TIP3   OH240489   4.295   3.669   1.689  0.0938 -0.4062  0.1144
 6285TIP3    H140490   4.336   3.656   1.774 -0.7091 -0.9085  0.4356
 6285TIP3    H240491   4.366   3.701   1.633  0.1832  2.0002  1.4691
 6286TIP3   OH240492   5.096   2.784   2.472 -0.3457  0.0521 -0.3147
 6286TIP3    H140493   5.119   2.803   2.563  1.1482  0.3049 -0.7217
 6286TIP3    H240494   5.179   2.786   2.425 -1.2145  0.9847 -1.8852
 6287TIP3   OH240495   2.864   6.731   1.021 -0.7105  0.6260  0.3040
 6287TIP3    H140496   2.846   6.764   1.109 -0.1007  0.4791  0.4890
 6287TIP3    H240497   2.882   6.809   0.969 -1.0633  0.7129  0.3091
 6288TIP3   OH240498   4.915   4.827   2.709  0.5498 -0.0182  0.0493
 6288TIP3    H140499   4.942   4.762   2.644  1.4211 -0.2850  0.6635
 6288TIP3    H240500   4.830   4.797   2.739 -0.1280  0.4017 -1.3506
 6289TIP3   OH240501   3.959   4.064   0.105  0.3506 -0.1779 -0.2903
 6289TIP3    H140502   3.950   4.094   0.196  2.3830  0.2935 -0.2022
 6289TIP3    H240503   4.032   4.002   0.107  0.0790 -0.5673 -1.5199
 6290TIP3   OH240504   4.610   1.980   0.096 -0.6343 -0.8745  1.4026
 6290TIP3    H140505   4.672   1.976   0.169  0.9775 -1.2707  0.0904
 6290TIP3    H240506   4.584   1.889   0.082  0.5057 -1.0618  0.3503
 6291TIP3   OH240507   6.096   0.414   0.608 -0.3079 -0.3474 -0.1315
 6291TIP3    H140508   6.113   0.336   0.556 -2.8916 -1.8513  1.0730
 6291TIP3    H240509   6.118   0.388   0.698  2.2642  1.5717 -0.0912
 6292TIP3   OH240510   5.488   0.820   7.370  0.5090  0.2839  0.4812
 6292TIP3    H140511   5.419   0.884   7.351 -1.9560 -2.3050  0.1055
 6292TIP3    H240512   5.526   0.799   7.285 -1.2263 -1.3730  0.0627
 6293TIP3   OH240513   5.152   4.443   2.169  0.1941  0.3642  0.2687
 6293TIP3    H140514   5.107   4.460   2.252 -0.3912 -0.0945  0.0521
 6293TIP3    H240515   5.228   4.389   2.194  0.5479  1.0034  0.6129
 6294TIP3   OH240516   3.844   3.335   8.315  0.3011 -0.6275 -0.1486
 6294TIP3    H140517   3.787   3.283   8.258 -1.5257  2.7141 -1.6564
 6294TIP3    H240518   3.846   3.286   8.398 -2.8084 -2.1320 -0.8180
 6295TIP3   OH240519   1.056   1.759   7.959  0.5232 -0.1215  0.3173
 6295TIP3    H140520   1.117   1.805   8.017  1.8058 -1.1022 -0.2031
 6295TIP3    H240521   1.041   1.675   8.002  1.1838 -0.7035 -0.5529
 6296TIP3   OH240522   2.075   2.397   1.435  0.4341 -0.2463 -0.1900
 6296TIP3    H140523   2.068   2.478   1.486  1.8278 -0.6627  0.7095
 6296TIP3    H240524   2.106   2.332   1.497  0.3666 -1.2268 -1.1525
 6297TIP3   OH240525   0.214   3.585   7.754  0.1130  0.0236 -0.0455
 6297TIP3    H140526   0.309   3.599   7.748  0.0601  0.0833 -0.7533
 6297TIP3    H240527   0.183   3.588   7.664 -0.6147  0.3525  0.2047
 6298TIP3   OH240528   3.786   2.977   0.655 -0.5598 -0.4379  0.0857
 6298TIP3    H140529   3.691   2.979   0.665 -0.6643  1.8549 -0.9314
 6298TIP3    H240530   3.808   3.057   0.608  1.8283 -1.2392 -0.3174
 6299TIP3   OH240531   2.701   1.544   3.286  0.2560  0.0698 -0.4634
 6299TIP3    H140532   2.705   1.504   3.200 -1.5857 -0.6191 -0.2707
 6299TIP3    H240533   2.779   1.511   3.332  0.0420 -1.3807 -1.1088
 6300TIP3   OH240534   5.572   6.669   1.074  0.2153  0.6464 -0.3801
 6300TIP3    H140535   5.635   6.601   1.050  1.5239  1.5413  0.3898
 6300TIP3    H240536   5.498   6.621   1.111  0.5047 -0.4266 -1.1658
 6301TIP3   OH240537   2.665   0.471   0.907 -0.2232  1.1641 -0.0634
 6301TIP3    H140538   2.744   0.484   0.960  0.8201  0.0613 -1.2782
 6301TIP3    H240539   2.629   0.559   0.895 -0.4275  1.4786  2.2997
 6302TIP3   OH240540   2.262   6.752   0.500  0.4178 -0.3983 -0.1532
 6302TIP3    H140541   2.334   6.812   0.479  1.3440 -1.0085  1.1134
 6302TIP3    H240542   2.203   6.804   0.554  0.0981 -0.0127 -0.8601
 6303TIP3   OH240543   2.501   6.840   7.749 -0.0428 -0.2195 -0.5082
 6303TIP3    H140544   2.480   6.903   7.681 -0.1525 -1.6204 -1.8336
 6303TIP3    H240545   2.557   6.888   7.811  2.0766  0.5079 -2.8187
 6304TIP3   OH240546   0.167   3.028   1.653  0.3299  0.5336  0.0077
 6304TIP3    H140547   0.142   3.011   1.562  0.5635  1.2617 -0.1987
 6304TIP3    H240548   0.231   3.099   1.647  0.9157  0.0695  0.6823
 6305TIP3   OH240549   1.522   4.843   0.643  0.3158 -0.7069  0.0744
 6305TIP3    H140550   1.439   4.865   0.685  1.4946  0.2484  2.0528
 6305TIP3    H240551   1.549   4.923   0.599  0.1575 -1.0386 -0.6354
 6306TIP3   OH240552   1.967   1.869   0.859 -0.6078 -0.0990  0.3713
 6306TIP3    H140553   1.903   1.815   0.905 -1.2675 -0.4542 -0.8964
 6306TIP3    H240554   1.963   1.838   0.768  1.4294 -0.1829  0.2577
 6307TIP3   OH240555   5.177   4.551   2.571 -0.0992  0.0182  0.2172
 6307TIP3    H140556   5.200   4.497   2.647  1.2702  0.1937 -0.0415
 6307TIP3    H240557   5.171   4.640   2.605 -2.2943 -0.2524  0.6315
 6308TIP3   OH240558   3.999   0.841   2.201 -0.3175  0.2983 -0.5225
 6308TIP3    H140559   4.087   0.854   2.165 -0.5596  3.1268 -0.2798
 6308TIP3    H240560   3.971   0.928   2.229 -1.7391 -1.0942  2.9249
 6309TIP3   OH240561   5.723   5.249   1.334  0.1747 -0.7926  0.3673
 6309TIP3    H140562   5.786   5.178   1.340  0.9735 -0.2804 -1.4797
 6309TIP3    H240563   5.732   5.282   1.245 -0.6425  1.2027  0.9765
 6310TIP3   OH240564   1.315   5.092   8.425 -0.4201  0.6338  0.2000
 6310TIP3    H140565   1.345   5.075   8.336 -1.1718 -1.3636  0.2811
 6310TIP3    H240566   1.316   5.187   8.433  0.5089  0.8189 -1.6358
 6311TIP3   OH240567   1.659   5.345   0.857  0.1805  0.7558 -0.0123
 6311TIP3    H140568   1.569   5.346   0.891 -0.6240  0.9957 -1.9973
 6311TIP3    H240569   1.681   5.437   0.844  0.0458  0.6450 -1.1229
 6312TIP3   OH240570   4.309   5.034   2.664 -0.0177 -0.0399  0.2781
 6312TIP3    H140571   4.339   5.114   2.708  1.7627 -0.0642 -0.8052
 6312TIP3    H240572   4.372   4.967   2.691 -0.5007 -0.6786 -0.1732
 6313TIP3   OH240573   1.082   0.576   8.378  0.6206 -0.3453 -0.2002
 6313TIP3    H140574   1.086   0.670   8.398 -0.4902 -0.4154  0.4106
 6313TIP3    H240575   1.111   0.534   8.459  1.4629 -0.5479 -0.5874
 6314TIP3   OH240576   4.384   2.970   1.414 -0.1874 -0.1832  0.4698
 6314TIP3    H140577   4.408   2.901   1.352 -1.0713  0.0665 -0.1695
 6314TIP3    H240578   4.458   2.975   1.474  0.5374 -0.6791 -0.3548
 6315TIP3   OH240579   4.985   0.814   0.707 -0.8590 -0.0672 -0.4259
 6315TIP3    H140580   4.993   0.855   0.793 -1.6536 -0.6061 -0.0786
 6315TIP3    H240581   4.988   0.720   0.725 -0.8349 -0.1807 -1.0105
 6316TIP3   OH240582   6.354   0.701   1.393 -0.1895  0.1744  0.1794
 6316TIP3    H140583   6.396   0.707   1.479 -0.1145  2.1975  0.0566
 6316TIP3    H240584   6.400   0.765   1.339 -2.2738  1.2456 -0.4394
 6317TIP3   OH240585   5.687   4.172   1.923  0.1326  0.3850 -0.4529
 6317TIP3    H140586   5.764   4.141   1.877 -1.0682 -0.1974 -2.1598
 6317TIP3    H240587   5.636   4.219   1.857 -1.0502  0.6277  0.5830
 6318TIP3   OH240588   3.537   0.317   2.572  0.4631 -0.0892  0.1247
 6318TIP3    H140589   3.451   0.275   2.579 -1.6286  3.1936 -2.7771
 6318TIP3    H240590   3.562   0.305   2.481  4.1406 -2.4540  1.2302
 6319TIP3   OH240591   2.010   2.543   0.177 -0.4092 -0.1518 -0.0342
 6319TIP3    H140592   2.077   2.604   0.147  1.3987 -1.3521  1.3298
 6319TIP3    H240593   2.037   2.458   0.142  0.2358 -1.0900  2.5344
 6320TIP3   OH240594   3.805   1.056   7.564  0.4002 -0.3224  0.1611
 6320TIP3    H140595   3.800   1.150   7.579  0.3304 -0.5350  1.5866
 6320TIP3    H240596   3.837   1.047   7.475  0.2899  1.0501 -0.0249
 6321TIP3   OH240597   5.477   4.860   1.390 -0.0913  0.0567 -0.2110
 6321TIP3    H140598   5.483   4.953   1.365  1.9671  0.2792  0.8813
 6321TIP3    H240599   5.396   4.854   1.441 -0.7124  1.0418 -1.0345
 6322TIP3   OH240600   2.476   4.120   3.056  0.0659  0.0673  0.1857
 6322TIP3    H140601   2.501   4.113   3.148 -0.8671  0.1684  0.4608
 6322TIP3    H240602   2.558   4.127   3.008  0.6421 -1.6464  0.8599
 6323TIP3   OH240603   3.971   4.498   8.471 -0.3018 -0.2095 -0.1536
 6323TIP3    H140604   3.878   4.479   8.459 -0.2738 -0.0095 -0.7309
 6323TIP3    H240605   4.011   4.414   8.493 -0.5373 -0.3850 -0.4042
 6324TIP3   OH240606   1.173   1.902   2.058  0.0065  0.2370  0.9664
 6324TIP3    H140607   1.238   1.912   1.989 -0.2723  0.4059  0.7242
 6324TIP3    H240608   1.110   1.973   2.043 -1.4020 -1.1544 -0.1124
 6325TIP3   OH240609   2.788   0.446   1.592  0.3526 -0.2017 -0.8164
 6325TIP3    H140610   2.820   0.532   1.618 -0.4285 -0.3740  0.8355
 6325TIP3    H240611   2.860   0.408   1.542  2.1093  0.0440  1.3660
 6326TIP3   OH240612   6.149   2.097   7.489 -0.2820  0.6123 -0.2614
 6326TIP3    H140613   6.095   2.176   7.483 -1.4246 -0.2541 -2.6818
 6326TIP3    H240614   6.094   2.034   7.537 -1.5591 -0.2395 -2.6461
 6327TIP3   OH240615   2.437   2.974   0.306 -0.0079  0.5572 -0.4173
 6327TIP3    H140616   2.476   2.976   0.218 -0.5400 -0.1497 -0.6849
 6327TIP3    H240617   2.444   3.063   0.338  2.1761  0.3806 -0.2854
 6328TIP3   OH240618   4.779   1.301   1.214  0.8152 -0.1526 -0.4771
 6328TIP3    H140619   4.717   1.281   1.143  0.2843  0.2092 -0.1253
 6328TIP3    H240620   4.840   1.228   1.214  1.6279  0.4639 -2.1824
 6329TIP3   OH240621   5.200   6.385   7.001  0.6876 -0.7484  0.4006
 6329TIP3    H140622   5.115   6.424   6.981  1.0598 -0.7655 -1.3700
 6329TIP3    H240623   5.179   6.302   7.044 -0.1527 -0.1029  1.2671
 6330TIP3   OH240624   1.850   3.938   7.418  0.2312  0.6471 -0.3158
 6330TIP3    H140625   1.887   3.852   7.398 -0.8225  0.1562 -0.1585
 6330TIP3    H240626   1.924   3.987   7.454  0.8544 -0.1617 -0.4556
 6331TIP3   OH240627   5.881   2.252   1.679 -0.0605  0.2791 -0.0568
 6331TIP3    H140628   5.886   2.165   1.720  0.3498  0.6820  0.7660
 6331TIP3    H240629   5.890   2.313   1.752  0.8753  1.0155 -0.7698
 6332TIP3   OH240630   4.330   2.519   1.153  0.0049 -0.2823  0.0233
 6332TIP3    H140631   4.258   2.493   1.211  0.1715 -0.9616 -0.0630
 6332TIP3    H240632   4.318   2.466   1.074  0.6458 -0.4730  0.0434
 6333TIP3   OH240633   5.331   6.842   0.983 -0.4570 -0.3633  0.4962
 6333TIP3    H140634   5.274   6.900   0.933  0.1852 -1.2760 -1.3612
 6333TIP3    H240635   5.271   6.794   1.041 -1.4746 -0.6112 -0.7297
 6334TIP3   OH240636   3.328   2.093   7.566 -0.4169 -0.0667 -0.1289
 6334TIP3    H140637   3.282   2.014   7.592 -2.1027  0.8856 -0.0636
 6334TIP3    H240638   3.305   2.105   7.473  0.4346 -0.0446 -0.3483
 6335TIP3   OH240639   0.601   2.367   2.080 -0.2532  0.1473  0.3302
 6335TIP3    H140640   0.613   2.371   1.985 -0.2779  1.7933  0.3570
 6335TIP3    H240641   0.628   2.279   2.104 -2.4596 -1.1437 -1.4861
 6336TIP3   OH240642   4.473   5.951   6.963 -0.0873  0.3950  0.1462
 6336TIP3    H140643   4.507   6.032   6.925 -1.0103  1.1651  0.9044
 6336TIP3    H240644   4.527   5.937   7.040  1.9487 -1.3007 -1.4570
 6337TIP3   OH240645   6.886   1.421   7.282 -0.0265 -0.2946 -0.0691
 6337TIP3    H140646   6.903   1.350   7.220 -0.2907  1.0372 -1.7376
 6337TIP3    H240647   6.967   1.471   7.284  0.1467 -0.5949  1.0710
 6338TIP3   OH240648   0.881   6.179   1.778 -0.1052  0.2962  0.2260
 6338TIP3    H140649   0.851   6.111   1.839  1.5303 -0.1549  0.5582
 6338TIP3    H240650   0.818   6.250   1.790 -1.7946 -1.0879 -0.0562
 6339TIP3   OH240651   5.293   2.749   2.717  0.0998  0.0054  0.4541
 6339TIP3    H140652   5.344   2.724   2.640 -2.0335  3.4808 -2.4316
 6339TIP3    H240653   5.341   2.823   2.754 -0.8041  0.8600 -0.0140
 6340TIP3   OH240654   5.303   1.507   1.435  0.2146 -0.5323  0.2199
 6340TIP3    H140655   5.322   1.600   1.431  0.5267 -0.6105 -0.3050
 6340TIP3    H240656   5.383   1.467   1.470  0.1773 -0.6279  0.1971
 6341TIP3   OH240657   6.209   5.171   8.118 -0.4733 -0.1753  0.7644
 6341TIP3    H140658   6.277   5.196   8.055 -0.1711 -0.4522  0.9784
 6341TIP3    H240659   6.251   5.182   8.203 -0.4849 -0.9816  0.8760
 6342TIP3   OH240660   2.918   3.933   0.056  0.3645  0.2564 -0.2809
 6342TIP3    H140661   2.960   3.879   0.123 -0.0747 -2.5605 -2.0857
 6342TIP3    H240662   2.990   3.969   0.005  0.6594  1.2445  0.7849
 6343TIP3   OH240663   0.271   4.968   7.783  0.6972  0.4904  0.2594
 6343TIP3    H140664   0.319   4.912   7.722  1.4770 -0.1909  1.4633
 6343TIP3    H240665   0.218   4.908   7.834  0.0646  1.0520  0.2780
 6344TIP3   OH240666   1.283   4.915   1.711  0.0586 -0.1058  0.3678
 6344TIP3    H140667   1.230   4.852   1.759  1.1164 -2.2554 -1.1225
 6344TIP3    H240668   1.258   4.903   1.620  1.1236  0.8103 -0.0700
 6345TIP3   OH240669   3.069   6.416   0.662  0.5188  0.0760 -0.0652
 6345TIP3    H140670   3.061   6.321   0.672 -0.3803 -0.1631 -2.4664
 6345TIP3    H240671   3.051   6.450   0.749  1.0762 -1.9489  0.9175
 6346TIP3   OH240672   5.560   0.496   1.684 -0.0393  0.2260  0.2749
 6346TIP3    H140673   5.517   0.414   1.706 -1.1513  0.3856 -1.1264
 6346TIP3    H240674   5.591   0.484   1.594 -2.0278  1.9737 -0.7363
 6347TIP3   OH240675   5.617   0.463   1.413 -0.4154 -0.7743  0.1390
 6347TIP3    H140676   5.712   0.452   1.420 -0.3307 -0.6476 -0.6976
 6347TIP3    H240677   5.591   0.405   1.341 -0.8777 -0.3225 -0.0660
 6348TIP3   OH240678   0.707   4.842   8.018  0.3885  0.6862 -0.1621
 6348TIP3    H140679   0.674   4.927   8.046 -0.4543  0.5851 -0.8316
 6348TIP3    H240680   0.647   4.779   8.058  0.9496  0.4054  0.2496
 6349TIP3   OH240681   1.986   4.237   2.890  0.9643  0.4148  0.5954
 6349TIP3    H140682   2.030   4.287   2.821 -1.6245  1.8295 -0.1646
 6349TIP3    H240683   1.941   4.304   2.942 -2.4859 -0.9834 -0.3294
 6350TIP3   OH240684   1.527   5.841   0.772 -0.1028 -0.3290 -0.3814
 6350TIP3    H140685   1.482   5.886   0.844 -0.2737 -0.0623 -0.6509
 6350TIP3    H240686   1.521   5.748   0.794 -0.4018 -0.2680 -0.1933
 6351TIP3   OH240687   1.679   6.494   1.039  0.0875  0.2497  0.0275
 6351TIP3    H140688   1.630   6.494   0.957  0.1958 -1.7329 -0.0672
 6351TIP3    H240689   1.613   6.510   1.107 -0.5309 -1.1778 -0.2044
 6352TIP3   OH240690   2.569   1.821   7.529 -0.3241 -0.3126  0.2487
 6352TIP3    H140691   2.526   1.796   7.610 -0.0688 -1.8080 -0.0392
 6352TIP3    H240692   2.662   1.805   7.545 -0.1389  0.5330  0.0536
 6353TIP3   OH240693   6.949   1.174   7.978 -0.3120 -0.7160 -0.0447
 6353TIP3    H140694   7.012   1.232   8.019  2.9442 -3.0062 -1.3578
 6353TIP3    H240695   6.968   1.180   7.884 -1.1846 -2.4400 -0.3762
 6354TIP3   OH240696   2.743   2.524   0.653 -0.2388  0.2804  0.1379
 6354TIP3    H140697   2.707   2.603   0.693 -1.9901 -0.9112  1.0395
 6354TIP3    H240698   2.780   2.474   0.726  3.3003  1.3648 -0.7246
 6355TIP3   OH240699   1.227   3.624   7.930  0.3586  0.1459  0.3397
 6355TIP3    H140700   1.293   3.605   7.997  1.1075 -0.1252 -0.4568
 6355TIP3    H240701   1.143   3.615   7.976  0.7740 -1.9583  0.8236
 6356TIP3   OH240702   3.062   5.782   7.620  0.2525 -0.1291 -0.1970
 6356TIP3    H140703   2.987   5.739   7.661  1.7201 -2.2962  0.3877
 6356TIP3    H240704   3.042   5.783   7.526  0.4210 -2.8766 -0.3481
 6357TIP3   OH240705   6.646   0.989   2.747 -0.5637  0.3489 -0.5287
 6357TIP3    H140706   6.554   0.997   2.773 -0.1802  1.6372  0.5249
 6357TIP3    H240707   6.682   1.076   2.761  0.9346 -0.2596 -0.4807
 6358TIP3   OH240708   0.096   0.066   0.547 -0.0930  0.2447 -0.3248
 6358TIP3    H140709   0.062   0.150   0.516  0.6823  0.3728 -0.8635
 6358TIP3    H240710   0.168   0.047   0.488  0.0975 -0.5283  0.1495
 6359TIP3   OH240711   6.352   1.395   7.358 -0.0577 -0.3911 -0.5532
 6359TIP3    H140712   6.323   1.383   7.267  0.0852  1.5357 -0.9045
 6359TIP3    H240713   6.429   1.451   7.351 -0.4219  0.3107  0.7864
 6360TIP3   OH240714   0.686   4.072   0.981  0.4378  0.1676 -0.5315
 6360TIP3    H140715   0.681   4.168   0.979 -0.1534  0.1819  0.5445
 6360TIP3    H240716   0.650   4.044   0.897  0.6830  0.8919 -0.8848
 6361TIP3   OH240717   6.478   6.109   0.638 -0.2075  0.7656  0.2365
 6361TIP3    H140718   6.552   6.155   0.598 -1.6230  2.1722 -0.9151
 6361TIP3    H240719   6.454   6.041   0.574 -0.4178  0.8676  0.2034
 6362TIP3   OH240720   3.163   6.316   1.060 -0.3736 -0.2490 -0.5012
 6362TIP3    H140721   3.175   6.298   1.153  0.3274 -2.4627 -0.9704
 6362TIP3    H240722   3.234   6.377   1.038 -0.3271 -0.0004  0.3191
 6363TIP3   OH240723   6.640   6.519   1.262 -0.7425  0.0301  1.1560
 6363TIP3    H140724   6.557   6.497   1.219 -0.6001  1.6742 -0.0625
 6363TIP3    H240725   6.691   6.564   1.194  1.9692 -2.5581  1.2289
 6364TIP3   OH240726   5.874   0.994   8.222  0.1734  0.3935  0.2860
 6364TIP3    H140727   5.798   1.023   8.270 -0.1021 -1.5879  1.1532
 6364TIP3    H240728   5.939   0.974   8.289  0.7566  0.1800 -0.3277
 6365TIP3   OH240729   1.407   6.576   8.144 -0.5606 -0.1531 -0.1652
 6365TIP3    H140730   1.426   6.586   8.051  1.5200 -1.5763  0.0313
 6365TIP3    H240731   1.388   6.482   8.154 -1.7577  0.1545  0.7178
 6366TIP3   OH240732   5.219   1.815   8.251 -0.5082  0.2666 -0.3927
 6366TIP3    H140733   5.280   1.888   8.238  0.6149 -0.6695 -0.4958
 6366TIP3    H240734   5.254   1.745   8.197 -1.4977 -0.4099 -0.1780
 6367TIP3   OH240735   3.753   0.445   7.772  0.0023  0.2192  0.3288
 6367TIP3    H140736   3.801   0.365   7.750 -1.2301 -0.0890 -1.4017
 6367TIP3    H240737   3.753   0.496   7.692  1.3559  2.3585  1.5791
 6368TIP3   OH240738   0.897   6.737   6.996  0.2122 -0.0243 -0.1843
 6368TIP3    H140739   0.974   6.679   6.993  0.0178 -0.2466 -1.5385
 6368TIP3    H240740   0.882   6.761   6.904 -0.7506  0.8055  0.1781
 6369TIP3   OH240741   4.983   2.997   0.673 -0.0706  0.1497 -0.3952
 6369TIP3    H140742   5.003   2.971   0.583 -0.9359 -0.5108 -0.4160
 6369TIP3    H240743   5.059   3.047   0.701  0.0254  0.7347 -1.6394
 6370TIP3   OH240744   0.452   6.801   2.247 -0.5038 -0.2243 -0.1500
 6370TIP3    H140745   0.514   6.735   2.217 -1.2010 -0.8102 -0.3090
 6370TIP3    H240746   0.463   6.802   2.343  0.1791  0.1166 -0.2233
 6371TIP3   OH240747   1.057   0.154   0.473  0.6023  0.2975  0.1722
 6371TIP3    H140748   1.010   0.237   0.486  0.5782  0.9210 -3.0999
 6371TIP3    H240749   0.989   0.092   0.449  0.9653  0.1483 -0.4834
 6372TIP3   OH240750   5.990   6.156   7.778  0.1144 -0.8546 -0.0323
 6372TIP3    H140751   6.006   6.172   7.685 -1.6625 -0.2387 -0.2765
 6372TIP3    H240752   5.897   6.175   7.789  0.3868 -0.5199  1.9664
 6373TIP3   OH240753   2.447   1.170   6.817  0.2101 -0.1140 -0.3389
 6373TIP3    H140754   2.533   1.147   6.853  0.7197  1.0841 -0.7386
 6373TIP3    H240755   2.395   1.090   6.826  1.9385 -1.4935 -1.8462
 6374TIP3   OH240756   1.774   1.104   2.683 -0.3543 -0.1979  0.2419
 6374TIP3    H140757   1.679   1.090   2.691 -0.1060 -0.9876  4.4180
 6374TIP3    H240758   1.813   1.023   2.718  1.7352  1.1821  1.3446
 6375TIP3   OH240759   2.378   1.446   6.845 -0.2448  0.0801 -0.0743
 6375TIP3    H140760   2.397   1.352   6.847 -0.0028  0.0708 -1.6211
 6375TIP3    H240761   2.461   1.487   6.821 -0.7047  0.5467 -0.9169
 6376TIP3   OH240762   1.429   1.207   2.323 -0.8653 -0.7465  0.1883
 6376TIP3    H140763   1.503   1.216   2.383 -0.5493 -0.5664 -0.2250
 6376TIP3    H240764   1.365   1.156   2.372  0.1502 -2.2858 -0.0020
 6377TIP3   OH240765   0.426   3.617   0.722  0.1831  0.2625  0.4248
 6377TIP3    H140766   0.340   3.592   0.756 -0.1137 -0.6737 -0.9830
 6377TIP3    H240767   0.485   3.550   0.755  0.2863  0.5928  0.9223
 6378TIP3   OH240768   3.731   0.245   2.753  0.5685 -0.1510  0.5882
 6378TIP3    H140769   3.651   0.258   2.703 -0.5916  0.2556  2.4248
 6378TIP3    H240770   3.733   0.150   2.770  0.8408 -0.2552  0.0035
 6379TIP3   OH240771   4.690   0.351   2.808  0.6074 -0.0945  0.6226
 6379TIP3    H140772   4.670   0.274   2.862  0.6397  0.9401  2.1714
 6379TIP3    H240773   4.650   0.331   2.723 -1.4399 -0.8496  1.6745
 6380TIP3   OH240774   6.889   2.295   1.452  0.4205 -0.8515  0.1773
 6380TIP3    H140775   6.846   2.217   1.416 -0.4092 -0.0609 -0.6113
 6380TIP3    H240776   6.853   2.368   1.401  2.1180 -0.0627  0.0159
 6381TIP3   OH240777   5.888   2.778   8.341  0.5808 -0.2188 -0.3258
 6381TIP3    H140778   5.902   2.764   8.247  1.1579  0.1206 -0.2944
 6381TIP3    H240779   5.795   2.761   8.354  0.3440  0.4546 -1.0860
 6382TIP3   OH240780   4.522   6.055   1.561  0.0216 -0.2031 -0.4684
 6382TIP3    H140781   4.582   6.022   1.628 -1.2273 -1.0893  0.2741
 6382TIP3    H240782   4.478   6.129   1.603  0.3742  0.2561 -0.9007
 6383TIP3   OH240783   6.848   6.704   8.016  0.3415 -0.1928 -0.1469
 6383TIP3    H140784   6.770   6.649   8.007 -1.8699  2.2592  2.0217
 6383TIP3    H240785   6.917   6.656   7.972 -1.1268 -5.1022  2.2114
 6384TIP3   OH240786   1.375   3.848   2.093  0.0718 -0.3835  0.0100
 6384TIP3    H140787   1.405   3.836   2.003 -0.3806 -0.3856 -0.1480
 6384TIP3    H240788   1.376   3.942   2.107  0.2346 -0.3898  0.0321
 6385TIP3   OH240789   2.293   4.492   1.369 -0.0671  0.2582  0.8427
 6385TIP3    H140790   2.278   4.407   1.411  1.7984 -0.2342  0.5773
 6385TIP3    H240791   2.234   4.491   1.293  0.0186 -0.8500  0.7657
 6386TIP3   OH240792   0.084   3.254   6.672 -0.0068  0.2657 -0.2813
 6386TIP3    H140793  -0.003   3.231   6.705  0.6656 -1.6762  0.2525
 6386TIP3    H240794   0.070   3.336   6.625 -2.3172 -0.4974 -1.0703
 6387TIP3   OH240795   2.907   4.413   0.343 -0.4383  0.0493  0.3571
 6387TIP3    H140796   2.866   4.370   0.267  2.5579  1.1780 -2.1085
 6387TIP3    H240797   2.959   4.344   0.384  0.7808  0.2004 -0.8626
 6388TIP3   OH240798   1.959   0.517   2.625 -0.3683  0.1350 -0.3827
 6388TIP3    H140799   2.031   0.456   2.637  0.4459  0.6753 -2.2098
 6388TIP3    H240800   1.898   0.472   2.567  0.2736  1.0204 -1.8030
 6389TIP3   OH240801   5.991   3.735   0.278 -0.0318  0.4099  0.8060
 6389TIP3    H140802   5.936   3.773   0.347  0.5204  0.6964  1.0965
 6389TIP3    H240803   5.984   3.796   0.205 -1.2482 -0.2886  0.2920
 6390TIP3   OH240804   6.113   0.573   1.838 -0.7515  0.4372  0.0574
 6390TIP3    H140805   6.035   0.557   1.891 -2.6371 -0.4122 -2.7368
 6390TIP3    H240806   6.132   0.488   1.798 -0.1188  1.2718 -1.4800
 6391TIP3   OH240807   6.442   3.708   8.467 -0.4396 -0.1574  0.0390
 6391TIP3    H140808   6.418   3.619   8.494  1.1739 -0.4238  0.7174
 6391TIP3    H240809   6.463   3.699   8.373  0.7177 -0.7419  0.3310
 6392TIP3   OH240810   1.780   4.699   1.814  0.0220  0.2614 -0.0191
 6392TIP3    H140811   1.739   4.768   1.762 -0.2336 -0.1825 -0.4179
 6392TIP3    H240812   1.706   4.648   1.847  0.2518 -0.6921 -0.9401
 6393TIP3   OH240813   0.435   4.389   0.045  0.2014  0.4240  0.6592
 6393TIP3    H140814   0.405   4.456   0.105 -1.9637 -0.8185  1.0722
 6393TIP3    H240815   0.430   4.307   0.095 -2.1624 -0.7290 -1.2654
 6394TIP3   OH240816   3.007   2.728   1.520 -0.3817  0.1866 -0.6204
 6394TIP3    H140817   3.071   2.799   1.524 -0.4516  0.3358 -1.9061
 6394TIP3    H240818   2.924   2.769   1.547 -0.3252  0.4652 -0.8746
 6395TIP3   OH240819   3.761   6.820   0.848  0.4268  0.1191  0.0988
 6395TIP3    H140820   3.772   6.895   0.789 -2.0432  0.8011  0.3986
 6395TIP3    H240821   3.756   6.860   0.935  0.1654 -0.5083  0.3694
 6396TIP3   OH240822   2.910   0.503   1.020 -0.1487  0.1296 -0.8009
 6396TIP3    H140823   2.948   0.571   1.076 -1.3365  0.2759 -0.1529
 6396TIP3    H240824   2.977   0.487   0.953  0.0544  2.1259 -1.1354
 6397TIP3   OH240825   4.300   5.917   2.458  0.5256  0.4794  0.0307
 6397TIP3    H140826   4.233   5.890   2.520  0.1215 -1.3485 -1.1180
 6397TIP3    H240827   4.332   6.000   2.491 -0.1977 -0.0739  2.2528
 6398TIP3   OH240828   6.077   2.449   7.801  0.3415  0.3989  0.3163
 6398TIP3    H140829   5.995   2.490   7.771 -0.0838 -0.9872 -0.5160
 6398TIP3    H240830   6.070   2.450   7.897  0.7666  3.0256  0.4021
 6399TIP3   OH240831   2.845   6.632   0.577  0.4512 -0.1533 -0.5247
 6399TIP3    H140832   2.877   6.666   0.493  0.8620  0.7955  0.0012
 6399TIP3    H240833   2.906   6.667   0.642 -0.0464 -0.6173  0.2104
 6400TIP3   OH240834   3.438   3.680   1.318 -0.4699  0.1478  0.4287
 6400TIP3    H140835   3.493   3.752   1.348  0.2137 -0.5250  0.8252
 6400TIP3    H240836   3.455   3.673   1.224  2.0368 -1.6125  0.9281
 6401TIP3   OH240837   3.560   3.285   0.006 -0.1758 -0.2554 -0.3576
 6401TIP3    H140838   3.547   3.361  -0.050 -1.3559 -0.4710 -0.3981
 6401TIP3    H240839   3.555   3.320   0.095  2.1821  0.1703 -0.3162
 6402TIP3   OH240840   4.347   6.071   8.431 -0.2716  1.0417  0.5210
 6402TIP3    H140841   4.325   6.110   8.346  0.1568  0.8315  0.3095
 6402TIP3    H240842   4.340   5.977   8.417 -0.1350  1.0047  0.6996
 6403TIP3   OH240843   1.547   0.689   1.442 -0.3066 -0.1404  0.3875
 6403TIP3    H140844   1.612   0.712   1.508  1.4750  2.4473 -2.0432
 6403TIP3    H240845   1.473   0.747   1.460  0.0616  0.3680  0.2597
 6404TIP3   OH240846   1.114   5.797   1.321 -0.1797 -1.2655  0.8171
 6404TIP3    H140847   1.198   5.844   1.323 -0.8164  0.0202 -0.5327
 6404TIP3    H240848   1.120   5.741   1.244 -0.5529 -1.1578  0.7067
 6405TIP3   OH240849   6.423   1.497   8.364 -0.3253  0.1549 -0.5381
 6405TIP3    H140850   6.364   1.450   8.305 -1.8108  0.6307  0.5139
 6405TIP3    H240851   6.437   1.582   8.322 -0.8874  0.2618 -0.5247
 6406TIP3   OH240852   5.554   6.426   1.327  0.6039  0.3188 -0.3566
 6406TIP3    H140853   5.459   6.428   1.336  0.5796 -0.6692 -0.2584
 6406TIP3    H240854   5.586   6.407   1.415  0.8667  0.2532 -0.4639
 6407TIP3   OH240855   5.417   5.622   0.198  0.5043  0.0114  0.2878
 6407TIP3    H140856   5.508   5.649   0.186  0.5641 -0.9958 -2.1502
 6407TIP3    H240857   5.366   5.689   0.153  0.2322 -0.7159 -0.5088
 6408TIP3   OH240858   3.739   4.855   7.283 -0.3179 -0.3881  0.1153
 6408TIP3    H140859   3.658   4.805   7.288  0.5518 -1.9018 -0.1357
 6408TIP3    H240860   3.732   4.906   7.203 -2.5210  2.3730  1.8772
 6409TIP3   OH240861   5.840   5.708   1.634 -0.1752  0.0012 -0.0907
 6409TIP3    H140862   5.830   5.617   1.662 -0.6518 -0.0951 -0.5624
 6409TIP3    H240863   5.756   5.730   1.594 -0.2940  0.8568  0.5937
 6410TIP3   OH240864   1.110   2.107   8.416  0.0732 -0.3110  0.2155
 6410TIP3    H140865   1.049   2.053   8.367  1.0556 -1.0475 -0.2380
 6410TIP3    H240866   1.123   2.060   8.499 -0.8337  0.4327  0.8054
 6411TIP3   OH240867   1.044   6.595   1.861  0.4352 -0.1788 -0.2780
 6411TIP3    H140868   1.090   6.672   1.828  0.3233  0.4125  0.8963
 6411TIP3    H240869   0.990   6.628   1.932  1.0516 -1.4756  0.8322
 6412TIP3   OH240870   4.523   6.724   0.473  0.3116  0.2560  0.4660
 6412TIP3    H140871   4.577   6.775   0.533 -1.8596  1.5110  1.4527
 6412TIP3    H240872   4.454   6.687   0.527 -0.3105 -0.6463 -0.8758
 6413TIP3   OH240873   2.914   1.298   3.302 -0.6004  0.0662  0.2999
 6413TIP3    H140874   2.972   1.350   3.247  0.4827  2.4374  3.3651
 6413TIP3    H240875   2.953   1.210   3.302  1.6257  0.9799  0.3078
 6414TIP3   OH240876   4.684   0.996   7.594  0.2300 -0.1248 -0.2175
 6414TIP3    H140877   4.657   1.088   7.586 -2.4915 -0.9423 -1.7497
 6414TIP3    H240878   4.641   0.952   7.521  2.2725 -2.5020 -0.1164
 6415TIP3   OH240879   3.110   5.396   1.695  0.4409 -0.3402 -0.3026
 6415TIP3    H140880   3.114   5.358   1.782 -0.6536  0.1457 -0.0312
 6415TIP3    H240881   3.092   5.489   1.710  1.9873  0.1030 -0.9911
 6416TIP3   OH240882   4.484   5.734   0.569  0.1308  0.6240  0.3875
 6416TIP3    H140883   4.479   5.728   0.474 -0.2824 -1.5312  0.4989
 6416TIP3    H240884   4.430   5.661   0.601  2.4815 -0.4305  2.2331
 6417TIP3   OH240885   1.612   0.505   0.046  0.4861  0.4484  0.1673
 6417TIP3    H140886   1.524   0.515   0.081 -0.1981  0.5747 -1.4980
 6417TIP3    H240887   1.633   0.591   0.010 -0.0287 -0.3721 -2.2749
 6418TIP3   OH240888   5.915   2.597   7.430 -0.0533  0.2967 -0.0147
 6418TIP3    H140889   6.003   2.584   7.394 -0.4939 -3.3432 -0.1469
 6418TIP3    H240890   5.862   2.620   7.354  0.2206 -0.8644 -0.5891
 6419TIP3   OH240891   6.760   4.675   8.492 -0.0015 -0.3695  0.1089
 6419TIP3    H140892   6.843   4.688   8.445  0.2769 -1.7895  0.1748
 6419TIP3    H240893   6.714   4.608   8.443 -0.1134 -1.2192  1.3330
 6420TIP3   OH240894   3.510   2.255   1.017  0.1296 -0.2169  0.6117
 6420TIP3    H140895   3.498   2.257   1.112  0.8384  0.6701  0.6936
 6420TIP3    H240896   3.484   2.167   0.991 -0.1089 -0.4507  1.6212
 6421TIP3   OH240897   1.719   3.786   7.647 -0.1491 -0.4511 -0.3046
 6421TIP3    H140898   1.631   3.814   7.669  0.5324  1.0198  0.7435
 6421TIP3    H240899   1.737   3.826   7.561 -0.4307 -0.6013 -0.4329
 6422TIP3   OH240900   6.636   2.108   7.215 -0.1784  0.1509  0.1987
 6422TIP3    H140901   6.575   2.038   7.239 -0.0445 -0.0416 -0.0185
 6422TIP3    H240902   6.707   2.102   7.279  0.1810 -0.3654 -0.2360
 6423TIP3   OH240903   3.332   1.994   0.318 -0.1043 -0.2832 -0.9663
 6423TIP3    H140904   3.387   2.047   0.259 -0.4838  1.4652  0.1617
 6423TIP3    H240905   3.244   2.027   0.305 -0.3692 -0.7043 -0.2941
 6424TIP3   OH240906   5.062   5.355   2.380  0.0526  0.1380  0.1577
 6424TIP3    H140907   5.101   5.309   2.306 -0.8666 -0.0568 -0.2215
 6424TIP3    H240908   5.129   5.417   2.408  0.7878 -0.4757 -0.1997
 6425TIP3   OH240909   1.538   4.323   8.096  0.1551  0.1971  0.2252
 6425TIP3    H140910   1.573   4.291   8.179 -0.3411 -1.7125 -0.2632
 6425TIP3    H240911   1.475   4.257   8.069 -2.1538  2.3659 -0.0944
 6426TIP3   OH240912   4.567   3.867   2.141 -0.0224  0.1147 -0.2300
 6426TIP3    H140913   4.490   3.907   2.182 -0.4482  0.0422 -0.9425
 6426TIP3    H240914   4.599   3.933   2.080  0.8627  0.3874  0.5133
 6427TIP3   OH240915   1.972   1.035   7.538  0.0515 -0.6080  0.0568
 6427TIP3    H140916   2.060   0.999   7.529  0.8790  0.8801  1.6406
 6427TIP3    H240917   1.954   1.032   7.632 -0.5982  1.2982  0.0366
 6428TIP3   OH240918   2.118   2.623   3.161 -0.4049  0.7081 -0.3193
 6428TIP3    H140919   2.099   2.590   3.249  0.2433  0.6746 -0.1834
 6428TIP3    H240920   2.036   2.615   3.114 -0.3604 -0.7606 -0.1838
 6429TIP3   OH240921   2.446   0.090   8.124  0.5233 -0.1685  0.0955
 6429TIP3    H140922   2.504   0.093   8.048  0.3026  1.7237 -0.0555
 6429TIP3    H240923   2.358   0.077   8.088  0.5610 -0.4615  0.1129
 6430TIP3   OH240924   6.728   3.383   7.804  0.2313 -0.0851  0.0223
 6430TIP3    H140925   6.775   3.398   7.722 -1.0873  0.3401 -0.6918
 6430TIP3    H240926   6.697   3.293   7.797  1.2819 -0.5000  0.6745
 6431TIP3   OH240927   1.454   5.057   1.861 -0.3216  0.0903  0.0204
 6431TIP3    H140928   1.410   5.135   1.897 -2.6106 -0.9408 -0.3380
 6431TIP3    H240929   1.392   5.023   1.796  2.0494 -0.2253 -2.2325
 6432TIP3   OH240930   0.135   4.891   0.965 -0.5172 -0.4739  0.0883
 6432TIP3    H140931   0.076   4.934   1.028  0.0530 -0.7261  0.8061
 6432TIP3    H240932   0.106   4.923   0.879 -0.6278  0.7062  0.5471
 6433TIP3   OH240933   1.956   3.516   1.028 -0.1951 -0.0133 -0.4287
 6433TIP3    H140934   2.030   3.573   1.009  0.5551 -0.7109  0.3410
 6433TIP3    H240935   1.884   3.577   1.048  0.1644  0.6677 -1.1619
 6434TIP3   OH240936   2.295   5.300   0.804 -0.0791  0.0297  0.6172
 6434TIP3    H140937   2.254   5.364   0.745 -0.6652 -0.8719  0.0070
 6434TIP3    H240938   2.385   5.331   0.815  0.0878  0.1573 -0.8838
 6435TIP3   OH240939   5.521   1.944   1.382  0.8327  0.3232 -0.6013
 6435TIP3    H140940   5.606   1.968   1.344  0.8393  1.9280  0.3262
 6435TIP3    H240941   5.457   1.968   1.316  1.0707 -0.6949 -1.2194
 6436TIP3   OH240942   5.213   2.140   0.703 -0.5384 -0.4152 -0.5845
 6436TIP3    H140943   5.252   2.213   0.752 -3.4462  0.3123  0.8722
 6436TIP3    H240944   5.286   2.102   0.654  1.3670  2.6182 -0.3462
 6437TIP3   OH240945   2.132   3.187   2.232  0.4587 -0.2465 -0.0162
 6437TIP3    H140946   2.069   3.116   2.249  0.0030  0.5071  1.5632
 6437TIP3    H240947   2.079   3.256   2.191  0.1844  0.4566  1.4718
 6438TIP3   OH240948   0.971   4.667   7.129 -0.4343  0.1831  0.3503
 6438TIP3    H140949   0.982   4.695   7.038 -0.4386 -0.2050  0.2298
 6438TIP3    H240950   0.992   4.574   7.128 -0.2347  0.2228  0.7853
 6439TIP3   OH240951   5.637   0.943   1.658 -0.2297  0.3707  0.6289
 6439TIP3    H140952   5.692   0.943   1.737 -0.0787  1.1436  0.5275
 6439TIP3    H240953   5.552   0.912   1.688 -0.6590  2.2479  1.4428
 6440TIP3   OH240954   3.433   1.997   1.976  0.0352  0.1097  0.6036
 6440TIP3    H140955   3.348   1.966   2.006 -0.4036  0.3360 -0.3895
 6440TIP3    H240956   3.421   2.091   1.965  0.2283  0.0433 -0.1671
 6441TIP3   OH240957   1.561   2.580   0.674  0.0858  0.0576 -0.1388
 6441TIP3    H140958   1.501   2.628   0.731 -1.0943 -1.5735  0.0748
 6441TIP3    H240959   1.646   2.585   0.717 -0.5006  0.0580  1.0387
 6442TIP3   OH240960   6.283   4.359   2.567  0.1825  0.3402 -0.2083
 6442TIP3    H140961   6.355   4.422   2.565  0.2616  0.2498 -1.7779
 6442TIP3    H240962   6.276   4.332   2.658  0.0718  2.6929  0.5434
 6443TIP3   OH240963   4.153   5.651   7.991 -0.1958 -0.3388  0.3702
 6443TIP3    H140964   4.226   5.650   7.929 -0.3401 -2.4273  0.1604
 6443TIP3    H240965   4.171   5.578   8.051 -1.6591 -0.3473  0.8485
 6444TIP3   OH240966   2.689   1.663   2.102 -0.1493  0.3840 -0.2619
 6444TIP3    H140967   2.653   1.637   2.017 -2.3291  1.1524  0.3343
 6444TIP3    H240968   2.621   1.637   2.165  0.9939  0.6647  1.1338
 6445TIP3   OH240969   0.840   3.439   8.104  0.4204 -0.3235  0.2269
 6445TIP3    H140970   0.800   3.394   8.030  0.2644  0.3010 -0.0792
 6445TIP3    H240971   0.864   3.370   8.165 -0.6099 -0.7476  0.1645
 6446TIP3   OH240972   1.462   0.894   8.089  0.1275 -0.7781 -0.1265
 6446TIP3    H140973   1.454   0.881   8.183 -1.5763  1.5281  0.1335
 6446TIP3    H240974   1.376   0.926   8.062  1.3644  1.3431 -1.9381
 6447TIP3   OH240975   0.292   3.189   6.847 -0.2047 -0.5697  0.2396
 6447TIP3    H140976   0.240   3.203   6.768  0.4642  0.8384  0.0105
 6447TIP3    H240977   0.289   3.273   6.892  2.9814  0.0847 -0.4989
 6448TIP3   OH240978   6.666   2.109   7.507 -0.0563  0.3179  0.1397
 6448TIP3    H140979   6.720   2.180   7.541  1.6691 -1.1874  0.7124
 6448TIP3    H240980   6.606   2.087   7.579 -1.1482  1.6497 -0.3167
 6449TIP3   OH240981   3.351   5.788   0.685  0.8815 -0.8292  0.3992
 6449TIP3    H140982   3.369   5.738   0.606  1.5640  0.0728 -0.0318
 6449TIP3    H240983   3.368   5.879   0.661  1.6029 -0.5873  1.7171
 6450TIP3   OH240984   5.622   5.688   1.225  0.0886 -0.9401  0.0070
 6450TIP3    H140985   5.599   5.607   1.271  1.2213 -0.7144  1.0292
 6450TIP3    H240986   5.611   5.757   1.291  2.9189 -0.7527  0.3871
 6451TIP3   OH240987   1.226   5.157   0.870 -0.0401  0.4929  0.2530
 6451TIP3    H140988   1.284   5.232   0.858 -0.0083  0.1176 -2.8147
 6451TIP3    H240989   1.160   5.187   0.933  0.9142  2.4778  0.3914
 6452TIP3   OH240990   2.885   5.209   1.522 -0.0462  0.1377 -0.4994
 6452TIP3    H140991   2.828   5.181   1.593  1.4883 -1.1796  0.2721
 6452TIP3    H240992   2.948   5.267   1.563  0.5699 -0.2571 -0.8714
 6453TIP3   OH240993   3.793   0.665   0.982  0.0915 -0.4296  0.0081
 6453TIP3    H140994   3.756   0.682   0.895  2.8308  0.6489 -1.0682
 6453TIP3    H240995   3.788   0.570   0.992 -0.2594 -0.5795 -1.3401
 6454TIP3   OH240996   5.187   1.160   2.056  0.0010 -0.0120  0.2312
 6454TIP3    H140997   5.196   1.185   2.148  2.2928 -0.7171  0.2654
 6454TIP3    H240998   5.177   1.065   2.058 -1.0804  0.0757 -0.2241
 6455TIP3   OH240999   3.713   3.039   1.585 -0.4113 -0.3892  0.1145
 6455TIP3    H141000   3.685   3.128   1.561  0.6851  0.4393  1.7232
 6455TIP3    H241001   3.799   3.029   1.544  0.0783 -0.1471  1.0418
 6456TIP3   OH241002   3.561   0.436   3.386  0.6349  0.4951  0.0237
 6456TIP3    H141003   3.533   0.493   3.458  0.9289  1.1112 -0.3350
 6456TIP3    H241004   3.480   0.412   3.341  0.3917 -0.3638  0.8882
 6457TIP3   OH241005   6.448   6.195   6.814  0.5403  0.2338 -0.4034
 6457TIP3    H141006   6.382   6.143   6.859 -0.4728  0.9592 -1.0235
 6457TIP3    H241007   6.529   6.144   6.822  0.3407  0.1663  1.9226
 6458TIP3   OH241008   6.320   3.617   0.434  0.1938 -0.1820 -0.3522
 6458TIP3    H141009   6.334   3.537   0.384 -3.6772 -1.4006  0.1538
 6458TIP3    H241010   6.391   3.619   0.498  1.1522 -2.4857 -1.2496
 6459TIP3   OH241011   3.294   5.706   0.203  0.2429 -0.5271 -0.4952
 6459TIP3    H141012   3.272   5.743   0.288 -1.8591 -0.1074 -1.1463
 6459TIP3    H241013   3.239   5.754   0.141  1.4187 -1.0948 -2.0460
 6460TIP3   OH241014   1.843   5.756   2.349  0.6008 -0.0635  0.2303
 6460TIP3    H141015   1.852   5.735   2.256 -0.6985  0.1192  0.0385
 6460TIP3    H241016   1.762   5.711   2.376  1.1370 -0.3951  1.3566
 6461TIP3   OH241017   1.197   3.424   1.210 -0.2113  0.9539 -0.2198
 6461TIP3    H141018   1.114   3.471   1.207 -1.1284 -0.5388  0.6654
 6461TIP3    H241019   1.173   3.333   1.223  1.5611  0.4066 -0.4881
 6462TIP3   OH241020   0.092   1.212   2.746 -0.2444  0.7134 -0.9128
 6462TIP3    H141021   0.157   1.182   2.810 -3.6068 -1.4140  1.9470
 6462TIP3    H241022   0.105   1.156   2.670  1.9971  1.2718 -1.0106
 6463TIP3   OH241023   5.795   6.634   8.360  0.0994  0.1129  0.4189
 6463TIP3    H141024   5.795   6.702   8.427 -0.7939  1.4152 -0.8311
 6463TIP3    H241025   5.718   6.581   8.379  1.0350 -0.8722  1.6522
 6464TIP3   OH241026   4.539   1.752   0.880 -0.5253  0.3846  0.2640
 6464TIP3    H141027   4.596   1.826   0.858 -1.1761  0.6844 -0.4445
 6464TIP3    H241028   4.457   1.772   0.836 -1.2687  0.0867  1.4769
 6465TIP3   OH241029   1.377   5.287   0.568 -0.0640  0.1146 -0.1175
 6465TIP3    H141030   1.454   5.231   0.568  0.1395  0.3871  0.2590
 6465TIP3    H241031   1.409   5.371   0.535 -0.0792  0.3781  0.5165
 6466TIP3   OH241032   1.813   6.051   8.136  0.0890  0.5287 -0.2009
 6466TIP3    H141033   1.874   6.118   8.108  1.3648 -0.9980 -1.2685
 6466TIP3    H241034   1.843   6.024   8.222 -0.0785  0.9318 -0.0184
 6467TIP3   OH241035   4.082   4.137   1.231 -0.6294  0.6395  0.2747
 6467TIP3    H141036   4.048   4.220   1.265  2.4139  2.0113  0.2981
 6467TIP3    H241037   4.046   4.131   1.143 -2.0536  1.2058  0.7823
 6468TIP3   OH241038   5.041   4.228   7.957 -0.1343 -0.1037  0.0405
 6468TIP3    H141039   4.990   4.277   7.892 -2.1791 -1.3691  0.5869
 6468TIP3    H241040   5.040   4.138   7.925  0.9451 -0.3280  0.6033
 6469TIP3   OH241041   3.231   2.401   7.174 -0.1212  0.3369 -0.5371
 6469TIP3    H141042   3.154   2.428   7.224 -0.4288 -4.2096  1.8570
 6469TIP3    H241043   3.202   2.325   7.124  2.1351  0.3021 -1.9343
 6470TIP3   OH241044   0.062   6.627   7.593  0.0133 -0.0320  0.2597
 6470TIP3    H141045   0.096   6.690   7.529 -1.5598  2.2301  1.4894
 6470TIP3    H241046  -0.032   6.624   7.575 -0.7298  1.6831  3.1089
 6471TIP3   OH241047   4.446   1.058   7.243 -0.0188 -0.0057  0.5743
 6471TIP3    H141048   4.400   1.097   7.170  0.0701  0.9724  1.0314
 6471TIP3    H241049   4.446   1.125   7.311 -0.1515 -0.9103  1.4951
 6472TIP3   OH241050   2.104   1.344   6.796 -0.2955 -0.6131 -0.1798
 6472TIP3    H141051   2.063   1.428   6.774 -0.7691 -0.1620  2.1692
 6472TIP3    H241052   2.195   1.366   6.813 -0.1159 -0.8241 -0.8268
 6473TIP3   OH241053   6.357   0.310   8.384  0.0263 -0.0579 -0.0758
 6473TIP3    H141054   6.394   0.222   8.376  1.1167  0.4753 -1.0800
 6473TIP3    H241055   6.432   0.366   8.404 -0.6870  0.6283  0.7748
 6474TIP3   OH241056   3.610   1.906   1.333  0.2872 -0.1526 -0.1102
 6474TIP3    H141057   3.539   1.963   1.305  0.6843  0.1899 -0.4198
 6474TIP3    H241058   3.620   1.843   1.262  0.4867 -0.0251 -0.1944
 6475TIP3   OH241059   4.254   6.543   7.675  0.8701  1.0171  0.9038
 6475TIP3    H141060   4.330   6.505   7.719 -0.1638 -2.0289  0.3283
 6475TIP3    H241061   4.181   6.527   7.735 -0.0868 -0.6679 -0.6202
 6476TIP3   OH241062   2.071   1.324   7.953  0.2479 -0.1080  0.3446
 6476TIP3    H141063   2.072   1.328   8.049  2.0642 -1.2769  0.4361
 6476TIP3    H241064   2.076   1.415   7.925  1.2276  0.2017  1.4234
 6477TIP3   OH241065   6.463   2.643   0.347  0.4198 -0.6973 -0.5296
 6477TIP3    H141066   6.543   2.689   0.321  0.8382 -1.6291 -0.9300
 6477TIP3    H241067   6.484   2.550   0.338 -0.2205 -1.0072  0.7842
 6478TIP3   OH241068   4.778   4.289   2.062  0.3313  0.3530  0.0668
 6478TIP3    H141069   4.864   4.251   2.045  0.1238  0.2669 -0.7985
 6478TIP3    H241070   4.716   4.221   2.036 -0.0153  0.6848  0.0160
 6479TIP3   OH241071   4.962   4.969   8.364  0.2179  0.3701 -0.2025
 6479TIP3    H141072   5.021   5.009   8.299 -0.9248  0.0267 -1.4920
 6479TIP3    H241073   4.897   4.923   8.312 -1.2981  0.8525  1.1850
 6480TIP3   OH241074   2.100   3.025   3.085 -0.6041  0.2546 -0.2486
 6480TIP3    H141075   2.155   3.093   3.125 -1.3066  0.4557  0.4095
 6480TIP3    H241076   2.160   2.953   3.069 -0.1244  0.4968  0.3956
 6481TIP3   OH241077   4.609   3.048   1.589  0.1333  0.2767 -0.4390
 6481TIP3    H141078   4.633   2.981   1.654 -0.2114  0.1567 -0.4361
 6481TIP3    H241079   4.559   3.113   1.639 -1.8563 -0.7879 -0.9388
 6482TIP3   OH241080   0.611   1.576   1.069 -0.5748  0.2497  0.5708
 6482TIP3    H141081   0.633   1.658   1.025 -1.0662  0.4421  0.6768
 6482TIP3    H241082   0.575   1.521   0.999 -0.7932  0.3405  0.6082
 6483TIP3   OH241083   4.773   0.127   8.206  0.7559 -0.2511 -0.3121
 6483TIP3    H141084   4.684   0.125   8.243 -0.3336 -0.1441 -2.7539
 6483TIP3    H241085   4.800   0.218   8.212  0.1770 -0.0520 -0.6784
 6484TIP3   OH241086   0.440   2.746   8.073  0.3415 -0.2767  0.1685
 6484TIP3    H141087   0.487   2.703   8.002  0.7619 -0.7996  0.7536
 6484TIP3    H241088   0.425   2.677   8.137  0.6724  0.3609  0.9456
 6485TIP3   OH241089   6.264   6.045   1.090  0.3410 -1.1492 -0.1397
 6485TIP3    H141090   6.208   6.096   1.032  0.1446 -1.3650 -0.1417
 6485TIP3    H241091   6.349   6.043   1.046  0.9244  0.8627  0.8020
 6486TIP3   OH241092   1.276   6.367   7.370  0.0797  0.4671 -0.3362
 6486TIP3    H141093   1.199   6.413   7.403 -0.1892 -0.8943  1.0569
 6486TIP3    H241094   1.240   6.291   7.324  0.5027 -1.7498  2.6917
 6487TIP3   OH241095   5.538   6.916   1.894  0.6552 -0.1325  0.3682
 6487TIP3    H141096   5.526   6.955   1.981 -1.6381  0.3449 -0.1067
 6487TIP3    H241097   5.585   6.834   1.912  0.9134  0.3156  1.9523
 6488TIP3   OH241098   6.321   2.859   7.497 -0.3659  0.1689  0.7848
 6488TIP3    H141099   6.339   2.953   7.491  0.4339 -0.0438 -0.7436
 6488TIP3    H241100   6.308   2.832   7.406  1.1180 -1.5182  1.0327
 6489TIP3   OH241101   3.253   5.599   7.424 -0.4525  0.2566  0.2054
 6489TIP3    H141102   3.290   5.630   7.342 -1.4085 -0.1742 -0.4047
 6489TIP3    H241103   3.181   5.659   7.443  0.3149  0.8864  1.2044
 6490TIP3   OH241104   6.722   3.315   0.233  0.2519 -0.4671  0.2995
 6490TIP3    H141105   6.719   3.387   0.170  0.5507 -0.7987 -0.1038
 6490TIP3    H241106   6.760   3.242   0.184 -2.7409 -1.8204 -0.2426
 6491TIP3   OH241107   6.850   6.932   1.153 -0.0138 -0.3689  0.3324
 6491TIP3    H141108   6.902   6.877   1.095 -2.2428 -2.0653 -0.1933
 6491TIP3    H241109   6.828   7.009   1.101  0.5041 -0.4493 -0.0106
 6492TIP3   OH241110   2.378   0.276   0.299  0.1409  0.0833 -0.2232
 6492TIP3    H141111   2.303   0.293   0.357 -0.0418  2.3654 -1.0213
 6492TIP3    H241112   2.448   0.330   0.335  0.7494 -0.3559 -0.7510
 6493TIP3   OH241113   3.638   1.124   2.491  0.3065  0.4697  0.4679
 6493TIP3    H141114   3.543   1.121   2.503  0.4125  1.9701  2.0413
 6493TIP3    H241115   3.655   1.058   2.424 -1.5724 -1.5972  1.8658
 6494TIP3   OH241116   1.841   1.165   7.816 -0.3923  0.2271  0.0619
 6494TIP3    H141117   1.879   1.077   7.811 -0.4968  0.2589 -1.8514
 6494TIP3    H241118   1.908   1.217   7.860 -1.2079 -1.1863  3.3552
 6495TIP3   OH241119   0.751   1.899   2.593 -0.4529  0.3412 -0.1559
 6495TIP3    H141120   0.689   1.970   2.577  1.0202  1.5101 -1.0097
 6495TIP3    H241121   0.724   1.828   2.536 -0.0935  1.4353 -1.7349
 6496TIP3   OH241122   2.836   5.307   6.907  0.4544 -0.3126 -0.2616
 6496TIP3    H141123   2.778   5.238   6.875  0.4007 -1.1869  1.6525
 6496TIP3    H241124   2.921   5.266   6.914  0.4187 -0.1960  0.9226
 6497TIP3   OH241125   4.068   6.720   1.105  0.8807 -0.3005 -0.2487
 6497TIP3    H141126   3.991   6.773   1.085  0.2002 -1.6836 -1.4510
 6497TIP3    H241127   4.051   6.688   1.194 -0.0425 -0.7540 -0.5752
 6498TIP3   OH241128   3.150   6.086   7.521  0.0555 -0.0456  0.2350
 6498TIP3    H141129   3.069   6.079   7.470  0.6545  0.2552 -0.7982
 6498TIP3    H241130   3.185   6.172   7.498  0.8314 -0.3080  0.4090
 6499TIP3   OH241131   2.695   0.706   8.268  0.1385 -0.5098 -0.2573
 6499TIP3    H141132   2.693   0.680   8.176  1.2084  2.1105 -1.1294
 6499TIP3    H241133   2.778   0.672   8.301  0.9239  0.5988 -1.0099
 6500TIP3   OH241134   1.658   3.256   1.971  0.0220 -0.0729 -0.0330
 6500TIP3    H141135   1.693   3.296   2.051 -0.0676 -2.6943  1.4238
 6500TIP3    H241136   1.640   3.330   1.914  2.0368  1.7911  1.5619
 6501TIP3   OH241137   3.184   0.219   2.336 -0.2167 -0.2367 -0.0718
 6501TIP3    H141138   3.112   0.195   2.394 -0.5844 -1.2382 -0.9079
 6501TIP3    H241139   3.258   0.166   2.364 -0.3528 -0.6120 -0.4090
 6502TIP3   OH241140   1.326   6.072   0.672 -0.5380 -0.2126 -0.1258
 6502TIP3    H141141   1.242   6.052   0.713 -1.4217  1.3106 -1.0807
 6502TIP3    H241142   1.358   5.988   0.638 -2.4429 -0.5805 -1.1161
 6503TIP3   OH241143   5.584   2.393   2.110 -0.2062  0.6729 -0.1816
 6503TIP3    H141144   5.511   2.412   2.051 -0.1491 -0.9472 -0.8297
 6503TIP3    H241145   5.542   2.381   2.196 -0.7957 -0.6740 -0.6299
 6504TIP3   OH241146   6.880   1.431   1.576  0.2069  0.0313 -0.3752
 6504TIP3    H141147   6.786   1.415   1.579  0.0618  0.9041  0.4422
 6504TIP3    H241148   6.892   1.489   1.501  0.2061 -0.7145 -0.9570
 6505TIP3   OH241149   2.004   2.625   1.571 -0.6110  0.9894  0.7275
 6505TIP3    H141150   1.938   2.609   1.639 -1.0561 -0.3316  0.0144
 6505TIP3    H241151   1.976   2.708   1.531 -3.0198 -0.4603 -0.8218
 6506TIP3   OH241152   2.451   1.161   8.156  0.0084  0.4759  0.0772
 6506TIP3    H141153   2.500   1.087   8.192  0.3033  0.2406 -0.7909
 6506TIP3    H241154   2.392   1.187   8.227 -1.0333 -1.4143 -0.0182
 6507TIP3   OH241155   3.580   6.665   1.113  0.0205 -0.4795 -0.0602
 6507TIP3    H141156   3.513   6.632   1.053  0.3247 -1.4264  0.0966
 6507TIP3    H241157   3.659   6.617   1.088 -0.2166 -2.2122  2.1996
 6508TIP3   OH241158   6.435   6.798   1.246 -0.2437 -0.4338 -0.1588
 6508TIP3    H141159   6.506   6.847   1.288 -1.7797  1.5998  0.2491
 6508TIP3    H241160   6.414   6.728   1.307 -0.3020  0.5304  0.9562
 6509TIP3   OH241161   0.143   2.963   0.258  0.0588 -0.0601  0.0385
 6509TIP3    H141162   0.107   2.974   0.170  0.6728  0.0560 -0.2029
 6509TIP3    H241163   0.073   2.920   0.307  0.4062 -2.0012 -1.0333
 6510TIP3   OH241164   2.579   3.054   0.068 -0.2220  0.0875  0.3127
 6510TIP3    H141165   2.662   3.076   0.111  0.2066 -0.1728 -0.3670
 6510TIP3    H241166   2.589   2.964   0.039 -0.7956  0.0109  0.3292
 6511TIP3   OH241167   6.715   6.745   2.714 -0.2951  0.0492 -0.0437
 6511TIP3    H141168   6.658   6.669   2.720 -0.6421  0.3620  0.7785
 6511TIP3    H241169   6.786   6.727   2.776 -0.6284  0.5925  0.5116
 6512TIP3   OH241170   4.696   1.056   0.447  0.3576  0.0337  0.1763
 6512TIP3    H141171   4.726   1.062   0.538  2.7643 -0.6733 -0.4829
 6512TIP3    H241172   4.773   1.079   0.395 -1.0573  0.7380 -1.7016
 6513TIP3   OH241173   5.250   3.108   7.262 -0.5958  0.1236  0.4477
 6513TIP3    H141174   5.165   3.102   7.305 -0.9569 -1.2276 -0.3809
 6513TIP3    H241175   5.309   3.144   7.328 -1.5627  0.0100  1.3883
 6514TIP3   OH241176   2.273   0.101   0.660  0.1793  0.6085 -0.3580
 6514TIP3    H141177   2.229   0.019   0.683  0.6693  0.3466 -0.3524
 6514TIP3    H241178   2.335   0.077   0.592 -1.3709  1.4048 -2.1490
 6515TIP3   OH241179   2.942   3.185   8.050 -0.1066 -0.0297 -0.0552
 6515TIP3    H141180   3.032   3.154   8.042  0.0261  0.0931  0.8479
 6515TIP3    H241181   2.940   3.266   7.998  0.7831  0.9023  1.3034
 6516TIP3   OH241182   4.305   4.196   8.309 -0.0236 -0.5094 -0.2755
 6516TIP3    H141183   4.210   4.199   8.299 -0.0929 -1.7469 -0.1240
 6516TIP3    H241184   4.336   4.278   8.270 -1.2850  0.8994  1.4918
 6517TIP3   OH241185   0.362   3.447   7.427  0.1191  0.2261  0.1797
 6517TIP3    H141186   0.377   3.366   7.377  0.9983  0.1435  0.5613
 6517TIP3    H241187   0.391   3.517   7.369 -0.5026  0.2709 -0.0923
 6518TIP3   OH241188   3.632   4.710   2.616  0.1420  0.4441  0.4356
 6518TIP3    H141189   3.561   4.746   2.668 -0.0218  0.8090 -0.0325
 6518TIP3    H241190   3.633   4.617   2.637 -0.3809  0.4627  0.5465
 6519TIP3   OH241191   0.720   1.229   0.397 -0.2856 -0.5013 -0.1282
 6519TIP3    H141192   0.752   1.300   0.342  1.4769 -0.7519  0.4860
 6519TIP3    H241193   0.625   1.241   0.401 -0.0956  1.3850 -0.6086
 6520TIP3   OH241194   0.016   3.828   1.413 -0.2009  0.3155  0.6311
 6520TIP3    H141195   0.056   3.915   1.418  0.9801 -0.1421 -0.6104
 6520TIP3    H241196  -0.045   3.834   1.340 -0.0698  0.0703  0.5036
 6521TIP3   OH241197   1.568   4.564   1.012  0.5323 -0.5499  0.1949
 6521TIP3    H141198   1.616   4.588   1.091  0.0612 -1.7074  0.8556
 6521TIP3    H241199   1.504   4.499   1.041 -1.3776  0.8416 -0.6680
 6522TIP3   OH241200   5.289   3.696   0.630 -0.0361 -0.3177  0.3683
 6522TIP3    H141201   5.215   3.635   0.636 -0.4472  0.0269 -0.8771
 6522TIP3    H241202   5.366   3.643   0.650 -0.5383 -0.8729  0.8548
 6523TIP3   OH241203   4.566   6.234   7.908 -0.2172  0.1306  0.1261
 6523TIP3    H141204   4.559   6.276   7.822 -1.3601  1.6619  0.9094
 6523TIP3    H241205   4.609   6.151   7.891  0.3156  0.7539 -1.8121
 6524TIP3   OH241206   3.703   6.526   8.477 -0.7868 -0.0058  0.1698
 6524TIP3    H141207   3.740   6.479   8.551  0.0873 -0.6826 -0.6756
 6524TIP3    H241208   3.702   6.462   8.406 -0.4564  0.9884 -0.7488
 6525TIP3   OH241209   5.664   2.589   1.891  0.1502 -0.4205 -0.1485
 6525TIP3    H141210   5.573   2.561   1.878 -0.2778 -0.5191  2.5414
 6525TIP3    H241211   5.660   2.652   1.963  2.0036  1.1320 -1.3058
 6526TIP3   OH241212   6.047   4.328   0.762 -0.6174 -0.1316 -0.1112
 6526TIP3    H141213   5.976   4.392   0.763 -0.3480  0.1680 -0.1778
 6526TIP3    H241214   6.062   4.311   0.669 -1.1654 -0.8271 -0.0851
 6527TIP3   OH241215   4.690   1.722   2.829  0.2140  0.1436 -0.1148
 6527TIP3    H141216   4.698   1.805   2.876 -0.3067  0.1695 -0.0688
 6527TIP3    H241217   4.773   1.677   2.845  0.2690  0.4049  0.3419
 6528TIP3   OH241218   2.786   3.754   2.319  0.3360  0.2140 -0.3200
 6528TIP3    H141219   2.696   3.787   2.312  0.0333 -0.7260 -1.1628
 6528TIP3    H241220   2.828   3.785   2.238  1.5076  2.6532  1.0974
 6529TIP3   OH241221   6.729   1.389   7.544  0.3007  0.4493 -0.7078
 6529TIP3    H141222   6.679   1.308   7.535  2.2941 -1.0806  0.9816
 6529TIP3    H241223   6.791   1.387   7.471  1.4073 -0.4452  0.2009
 6530TIP3   OH241224   6.792   3.670   1.632  0.3935  0.3458 -0.3102
 6530TIP3    H141225   6.759   3.671   1.722  0.4625 -0.3344 -0.2671
 6530TIP3    H241226   6.866   3.730   1.632  0.5873  0.1095  0.1692
 6531TIP3   OH241227   0.965   5.491   2.464 -0.3496  0.3648  0.1776
 6531TIP3    H141228   0.922   5.505   2.548 -1.7853 -0.6607 -0.3412
 6531TIP3    H241229   1.044   5.441   2.485  0.0160  1.2563  1.0258
 6532TIP3   OH241230   1.559   2.875   7.360 -0.3459 -0.1159  0.2399
 6532TIP3    H141231   1.634   2.903   7.306 -1.2107  0.8532 -0.5102
 6532TIP3    H241232   1.559   2.779   7.354 -1.0184 -0.0301 -2.4161
 6533TIP3   OH241233   1.886   3.617   1.657  0.1141 -0.1222  0.4629
 6533TIP3    H141234   1.876   3.697   1.606 -1.4471  1.0827  2.4937
 6533TIP3    H241235   1.802   3.573   1.651 -0.4107  0.4580  2.5108
 6534TIP3   OH241236   6.826   3.076   7.354 -0.3984 -0.1599 -1.0550
 6534TIP3    H141237   6.785   3.146   7.405 -0.1973  0.7790 -2.1470
 6534TIP3    H241238   6.875   3.025   7.418  0.5561  1.4952 -0.4196
 6535TIP3   OH241239   4.773   5.195   8.364  0.6078 -0.3313 -0.3281
 6535TIP3    H141240   4.751   5.237   8.447 -0.6653 -0.7527 -0.4233
 6535TIP3    H241241   4.814   5.112   8.389  0.4957 -0.3241 -0.1208
 6536TIP3   OH241242   3.695   4.823   1.445 -0.3058  0.4950 -0.3166
 6536TIP3    H141243   3.630   4.811   1.514  0.2982 -3.9922 -0.2494
 6536TIP3    H241244   3.766   4.872   1.488 -0.2777 -1.5139  2.1271
 6537TIP3   OH241245   5.458   0.715   1.420  0.1271 -0.1253  0.2200
 6537TIP3    H141246   5.381   0.707   1.476 -0.1730 -0.7082 -0.2641
 6537TIP3    H241247   5.514   0.641   1.444 -0.6707 -1.2597 -1.2418
 6538TIP3   OH241248   4.477   1.115   8.401  0.3197 -0.3982  0.1365
 6538TIP3    H141249   4.481   1.084   8.310 -2.1866  1.5201 -0.7502
 6538TIP3    H241250   4.569   1.128   8.426  1.0809 -0.9979 -2.1032
 6539TIP3   OH241251   4.546   0.828   7.812  0.2205 -0.5808  0.3803
 6539TIP3    H141252   4.575   0.912   7.777 -2.9343  0.6711  0.4633
 6539TIP3    H241253   4.596   0.817   7.893  0.8184  1.1074  0.2680
 6540TIP3   OH241254   2.105   4.388   2.074  0.1007  0.0687  0.4426
 6540TIP3    H141255   2.077   4.308   2.118 -2.2594  0.8962  0.5603
 6540TIP3    H241256   2.049   4.395   1.997  2.4733 -0.0398 -1.4251
 6541TIP3   OH241257   2.433   1.900   2.281 -0.1737 -0.3049  0.0022
 6541TIP3    H141258   2.490   1.875   2.354  0.1016 -0.6416 -0.3200
 6541TIP3    H241259   2.372   1.826   2.272  0.3477 -0.6745 -0.6578
 6542TIP3   OH241260   4.001   5.131   0.127  0.0277  0.3487 -0.1172
 6542TIP3    H141261   3.923   5.186   0.135 -0.0063  0.3625 -0.4991
 6542TIP3    H241262   4.073   5.187   0.156 -0.1317  0.2580  0.4585
 6543TIP3   OH241263   2.559   6.816   8.233 -0.0670  0.0081  0.4303
 6543TIP3    H141264   2.486   6.812   8.294 -1.1165 -0.5966 -0.8028
 6543TIP3    H241265   2.562   6.908   8.205 -0.1733  0.0965  0.7098
 6544TIP3   OH241266   1.996   6.366   0.802  0.1789 -0.4454  0.2535
 6544TIP3    H141267   2.030   6.290   0.755 -1.0391 -0.6883 -0.2783
 6544TIP3    H241268   1.945   6.414   0.737 -0.7855 -0.2994  1.0827
 6545TIP3   OH241269   6.037   4.899   0.216 -0.0114 -0.3039 -0.0247
 6545TIP3    H141270   6.033   4.980   0.267  0.1761 -0.5155  0.3350
 6545TIP3    H241271   6.072   4.834   0.278  1.1434 -0.3530 -0.7154
 6546TIP3   OH241272   6.379   4.383   1.138  0.0718 -0.5194 -0.5065
 6546TIP3    H141273   6.406   4.471   1.164  1.7477 -1.4126  0.9349
 6546TIP3    H241274   6.305   4.398   1.079  1.0358  1.8834 -1.2381
 6547TIP3   OH241275   4.784   2.788   0.769 -0.0453 -0.1624 -0.4752
 6547TIP3    H141276   4.839   2.861   0.741 -0.1330 -0.2099 -0.7814
 6547TIP3    H241277   4.824   2.710   0.730  3.0451 -1.0889  3.8678
 6548TIP3   OH241278   2.265   1.240   2.587  0.0971 -0.1022 -0.1597
 6548TIP3    H141279   2.276   1.289   2.506 -0.5740 -0.7309 -0.6403
 6548TIP3    H241280   2.351   1.243   2.629  0.7507 -0.6971 -1.4171
 6549TIP3   OH241281   1.040   4.029   8.271 -0.4962  0.4626  0.3106
 6549TIP3    H141282   0.950   4.002   8.287 -0.6121  0.1761 -0.7471
 6549TIP3    H241283   1.085   3.950   8.244  0.0862  0.6021  0.8505
 6550TIP3   OH241284   0.795   1.906   7.425 -0.1690 -0.0707 -0.0405
 6550TIP3    H141285   0.755   1.889   7.339  2.8185 -0.1354 -1.5409
 6550TIP3    H241286   0.785   2.000   7.438 -0.2231  0.0202 -0.7082
 6551TIP3   OH241287   1.979   5.423   8.020 -0.0715  0.7526 -0.1475
 6551TIP3    H141288   1.895   5.420   7.973 -0.5142  2.6465  0.4338
 6551TIP3    H241289   2.018   5.337   8.005 -1.5759  0.2454 -1.4268
 6552TIP3   OH241290   0.526   3.622   6.807 -0.4216  0.6678  0.0453
 6552TIP3    H141291   0.609   3.666   6.825 -0.3345  0.3650  0.4154
 6552TIP3    H241292   0.460   3.674   6.854 -0.0902 -0.5886  2.0313
 6553TIP3   OH241293   5.359   0.957   7.632  0.2710 -0.0030 -0.0955
 6553TIP3    H141294   5.302   1.033   7.650  0.0306  0.3737 -2.2514
 6553TIP3    H241295   5.307   0.882   7.660 -0.6660  0.4494 -0.5558
 6554TIP3   OH241296   2.014   5.735   7.322 -0.3616  0.1583 -0.0328
 6554TIP3    H141297   2.021   5.722   7.227  1.8019 -0.7583  0.1857
 6554TIP3    H241298   2.080   5.801   7.342 -0.2406 -0.2389  0.9247
 6555TIP3   OH241299   4.455   2.054   7.872 -0.0788  0.5907  0.0353
 6555TIP3    H141300   4.497   2.080   7.954  1.6033 -1.5548 -0.0533
 6555TIP3    H241301   4.377   2.005   7.899  0.0009  0.6382  0.3494
 6556TIP3   OH241302   6.920   3.282   0.738  0.7076 -0.1365 -0.0311
 6556TIP3    H141303   6.829   3.256   0.722  1.0119 -0.3496 -1.5425
 6556TIP3    H241304   6.933   3.265   0.832 -1.0162  0.6078  0.3815
 6557TIP3   OH241305   5.033   2.279   8.168 -0.2681  0.3372 -0.1407
 6557TIP3    H141306   5.001   2.189   8.170  0.7688 -0.0715 -0.7003
 6557TIP3    H241307   4.955   2.334   8.164 -0.8935 -0.5803 -0.6740
 6558TIP3   OH241308   4.032   4.452   7.817  0.5604 -0.5725 -0.4778
 6558TIP3    H141309   4.049   4.545   7.836 -0.8921 -0.8337  2.6815
 6558TIP3    H241310   4.114   4.408   7.838  1.9525  0.0471 -3.9087
 6559TIP3   OH241311   4.723   4.905   0.313  0.5831 -0.1781  0.4067
 6559TIP3    H141312   4.724   4.934   0.404  0.1299 -1.1573  0.7323
 6559TIP3    H241313   4.721   4.986   0.262  1.2430  0.3906  1.2491
 6560TIP3   OH241314   2.182   5.332   8.440 -0.1134  0.4614  0.0036
 6560TIP3    H141315   2.163   5.358   8.350  0.0143  1.5745  0.2909
 6560TIP3    H241316   2.271   5.296   8.436 -0.3697 -0.1483 -0.4290
 6561TIP3   OH241317   3.750   5.056   1.022  0.1593  0.3607 -0.1648
 6561TIP3    H141318   3.712   4.968   1.029 -1.4798  1.0764  0.5220
 6561TIP3    H241319   3.792   5.057   0.936 -0.8704 -0.7053 -0.7120
 6562TIP3   OH241320   6.481   3.080   8.463  0.6188 -0.4266  0.0145
 6562TIP3    H141321   6.400   3.028   8.466  0.9299 -1.0653 -1.4164
 6562TIP3    H241322   6.545   3.027   8.510 -0.0256  0.6305  2.2138
 6563TIP3   OH241323   6.018   6.657   0.968 -0.1297 -0.3987  0.2903
 6563TIP3    H141324   6.030   6.567   0.938 -1.9231 -0.2352 -1.0246
 6563TIP3    H241325   6.107   6.693   0.972  0.3782 -0.8785 -3.5312
 6564TIP3   OH241326   4.307   5.382   6.990 -0.1095 -0.2226 -0.1234
 6564TIP3    H141327   4.389   5.415   7.028  0.3933 -0.7522 -0.7322
 6564TIP3    H241328   4.246   5.455   6.999  0.8101  0.6675 -0.8939
 6565TIP3   OH241329   6.407   5.792   0.685  0.0861 -0.2017  0.2273
 6565TIP3    H141330   6.387   5.849   0.611 -0.2158  0.1860  0.5930
 6565TIP3    H241331   6.456   5.719   0.648 -1.0762 -0.6104 -0.5279
 6566TIP3   OH241332   4.823   3.445   0.477  0.4650 -0.4022  0.2124
 6566TIP3    H141333   4.766   3.493   0.416  0.8313 -0.3465 -0.0907
 6566TIP3    H241334   4.892   3.507   0.499 -1.7291  1.0340  3.8346
 6567TIP3   OH241335   4.789   2.207   7.612  0.0361 -0.0075 -0.2517
 6567TIP3    H141336   4.829   2.165   7.687 -0.1372 -1.3569 -0.8771
 6567TIP3    H241337   4.759   2.134   7.557 -0.8039  0.9442 -1.1038
 6568TIP3   OH241338   4.244   5.613   0.219  0.5258 -0.3935  0.1162
 6568TIP3    H141339   4.217   5.592   0.130 -0.0632  0.7559  0.0035
 6568TIP3    H241340   4.162   5.614   0.269  1.0068 -2.7281  1.0807
 6569TIP3   OH241341   2.623   5.669   1.557 -0.1409 -0.3652  0.1392
 6569TIP3    H141342   2.713   5.667   1.523  0.0805  0.5432  0.6387
 6569TIP3    H241343   2.616   5.591   1.611 -0.4500 -1.7726 -1.8032
 6570TIP3   OH241344   1.346   5.185   1.615 -0.8562 -0.2299  0.1325
 6570TIP3    H141345   1.348   5.098   1.653  0.6129 -0.2229  0.1315
 6570TIP3    H241346   1.364   5.171   1.522  0.6628  0.1345  0.3359
 6571TIP3   OH241347   4.083   0.923   1.157 -0.5525  0.2435  0.3934
 6571TIP3    H141348   4.080   1.011   1.121 -2.2593  0.8134  1.7896
 6571TIP3    H241349   4.037   0.869   1.093 -0.5782  0.5997  0.1106
 6572TIP3   OH241350   3.318   6.924   7.676 -0.6351 -0.3552  0.3628
 6572TIP3    H141351   3.268   6.924   7.758 -0.8879 -0.8928  0.2125
 6572TIP3    H241352   3.254   6.944   7.608 -0.1771  1.4218  0.4285
 6573TIP3   OH241353   4.730   5.340   8.110 -0.2269 -0.5767  0.1968
 6573TIP3    H141354   4.797   5.407   8.119  0.0387 -0.5033 -1.8942
 6573TIP3    H241355   4.714   5.310   8.200  0.3318  1.5751  1.0805
 6574TIP3   OH241356   2.711   4.913   1.529  0.2773 -0.1979  0.4371
 6574TIP3    H141357   2.737   4.958   1.448  0.7280 -0.5075  0.4055
 6574TIP3    H241358   2.623   4.881   1.511 -0.2649  1.1105  0.6436
 6575TIP3   OH241359   6.796   4.168   0.572  0.3198  0.5134 -0.3361
 6575TIP3    H141360   6.769   4.198   0.659 -1.3494  0.1098 -0.6650
 6575TIP3    H241361   6.789   4.246   0.517  1.0125  0.6827 -0.1897
 6576TIP3   OH241362   2.978   3.113   0.827 -0.4363 -0.2074  0.1127
 6576TIP3    H141363   2.942   3.156   0.750 -0.9143 -0.1343  0.3690
 6576TIP3    H241364   2.901   3.079   0.873 -0.2369  0.5940  1.0635
 6577TIP3   OH241365   5.153   6.388   8.049  0.2878 -0.1509  0.0327
 6577TIP3    H141366   5.137   6.458   8.112  0.0273 -0.6097  0.4797
 6577TIP3    H241367   5.243   6.401   8.021  0.3890  0.0813  0.4633
 6578TIP3   OH241368   1.395   2.427   0.056  0.0110 -0.2407 -0.1036
 6578TIP3    H141369   1.446   2.418  -0.024  0.8058 -1.7802  0.5437
 6578TIP3    H241370   1.304   2.423   0.026  0.2489  1.0192 -1.0997
 6579TIP3   OH241371   0.691   5.856   7.809 -0.7207  0.7430  0.0107
 6579TIP3    H141372   0.609   5.898   7.783 -1.6538 -1.1154 -0.2409
 6579TIP3    H241373   0.681   5.840   7.903  0.2688  2.3596  0.4341
 6580TIP3   OH241374   1.897   0.130   2.964 -0.4041 -0.0412  0.1181
 6580TIP3    H141375   1.833   0.108   2.896  0.1262 -1.0706 -0.0574
 6580TIP3    H241376   1.978   0.145   2.916  0.0145 -0.9367  0.5431
 6581TIP3   OH241377   1.751   4.452   0.840 -0.0894  0.0679 -0.0065
 6581TIP3    H141378   1.671   4.478   0.886 -0.1640  1.3439 -0.7842
 6581TIP3    H241379   1.742   4.492   0.753  1.0752 -0.3576 -0.3416
 6582TIP3   OH241380   4.876   1.231   6.398 -0.7237 -0.0628  0.4700
 6582TIP3    H141381   4.831   1.151   6.426 -0.3917 -0.5987 -0.4850
 6582TIP3    H241382   4.902   1.214   6.308 -1.7947  1.6362 -0.1956
 6583TIP3   OH241383   3.189   3.493   8.007  0.2500 -0.0750  0.9372
 6583TIP3    H141384   3.207   3.505   8.100  3.6478 -0.1726  0.3922
 6583TIP3    H241385   3.214   3.402   7.989  0.1551  0.1043 -0.1678
 6584TIP3   OH241386   2.477   4.831   7.152  0.2370  0.1802  0.1077
 6584TIP3    H141387   2.550   4.887   7.176 -0.3701  1.1127 -0.1981
 6584TIP3    H241388   2.457   4.782   7.232  1.5921 -0.5584  0.0234
 6585TIP3   OH241389   5.858   4.486   0.658 -0.3585 -0.3146  0.2245
 6585TIP3    H141390   5.778   4.524   0.694  0.0529  0.9083 -0.1031
 6585TIP3    H241391   5.875   4.537   0.578  2.7645  2.0831  2.1646
 6586TIP3   OH241392   6.867   0.858   2.645 -0.1207 -0.1501  0.8588
 6586TIP3    H141393   6.787   0.886   2.688 -1.1580 -1.5930 -0.0073
 6586TIP3    H241394   6.912   0.939   2.621 -1.4086  0.6932  1.2063
 6587TIP3   OH241395   1.974   3.274   2.013 -0.5903 -0.5207 -0.2717
 6587TIP3    H141396   1.956   3.361   1.978  0.8285 -0.3687 -0.6467
 6587TIP3    H241397   1.888   3.232   2.017 -1.6471  1.5953  1.8687
 6588TIP3   OH241398   4.570   1.111   0.203 -0.5880  0.4114 -0.6583
 6588TIP3    H141399   4.572   1.071   0.290 -0.4557 -1.0959 -1.3298
 6588TIP3    H241400   4.477   1.117   0.182 -0.5800 -0.8139 -1.1026
 6589TIP3   OH241401   0.868   3.827   0.347  0.2111  0.5414  0.1223
 6589TIP3    H141402   0.865   3.878   0.428  1.1752  1.1401 -0.2100
 6589TIP3    H241403   0.956   3.842   0.312  0.4925 -1.2498 -0.0473
 6590TIP3   OH241404   4.217   3.129   2.092 -0.6138  0.5493  0.5206
 6590TIP3    H141405   4.170   3.086   2.163 -0.1153 -0.4291  0.2775
 6590TIP3    H241406   4.268   3.197   2.135  0.1466 -0.4175  1.2058
 6591TIP3   OH241407   3.691   6.893   0.280  0.5616 -0.3090  0.3724
 6591TIP3    H141408   3.622   6.833   0.251  0.7768  0.0409 -0.9019
 6591TIP3    H241409   3.667   6.914   0.371 -0.7596 -0.5654  0.1103
 6592TIP3   OH241410   2.259   6.476   1.245  0.3730  0.0566  0.2577
 6592TIP3    H141411   2.189   6.539   1.258 -0.9665 -1.0396 -1.3259
 6592TIP3    H241412   2.323   6.521   1.190 -0.4088  0.1651 -0.5693
 6593TIP3   OH241413   5.811   3.567   7.454  0.3269 -0.6444  0.1776
 6593TIP3    H141414   5.768   3.482   7.463  1.6261 -1.2604  0.8069
 6593TIP3    H241415   5.746   3.622   7.410 -0.0092 -2.3584 -1.6038
 6594TIP3   OH241416   5.085   0.131   8.288 -0.1168  0.4161 -0.1297
 6594TIP3    H141417   5.043   0.067   8.231 -1.7602  1.6462 -0.3987
 6594TIP3    H241418   5.076   0.095   8.376 -0.5678  0.0410 -0.3261
 6595TIP3   OH241419   4.307   4.396   1.466  0.4264  0.2744  0.1531
 6595TIP3    H141420   4.240   4.356   1.521  2.5214 -0.6636  2.2230
 6595TIP3    H241421   4.371   4.432   1.528  0.1609  4.3308 -1.6658
 6596TIP3   OH241422   5.258   1.848   7.856  0.6585 -0.0191 -0.1881
 6596TIP3    H141423   5.215   1.877   7.775 -0.3092  0.2512  0.4165
 6596TIP3    H241424   5.250   1.753   7.854  1.7532 -0.1162 -1.0146
 6597TIP3   OH241425   3.941   5.062   1.297  0.1671  0.3264  0.0895
 6597TIP3    H141426   3.961   4.969   1.284  0.3614  0.1963  1.2026
 6597TIP3    H241427   3.874   5.081   1.232 -1.5801 -1.2006  1.3428
 6598TIP3   OH241428   5.910   1.729   6.837 -0.5419  0.5090  0.2402
 6598TIP3    H141429   5.877   1.818   6.822 -0.2109  0.5563 -0.2206
 6598TIP3    H241430   5.971   1.713   6.766 -1.4947 -0.5389 -0.3801
 6599TIP3   OH241431   0.134   3.535   8.005 -0.4548 -0.3545  0.3172
 6599TIP3    H141432   0.166   3.572   7.923 -1.5136  0.7852  0.3819
 6599TIP3    H241433   0.039   3.541   7.999 -0.5767 -1.0062  1.2972
 6600TIP3   OH241434   5.664   1.104   1.437  0.2756 -0.0696  0.3121
 6600TIP3    H141435   5.642   1.046   1.510  1.7033  0.5482  1.2849
 6600TIP3    H241436   5.757   1.123   1.449  0.5630 -0.0293 -1.7550
 6601TIP3   OH241437   5.791   0.428   2.261 -0.1828  0.0215 -0.1379
 6601TIP3    H141438   5.778   0.510   2.308 -1.4778 -0.2601  0.0204
 6601TIP3    H241439   5.856   0.381   2.314  0.1421  0.6834  0.0773
 6602TIP3   OH241440   4.104   0.005   0.095  0.2580  0.6748 -0.2400
 6602TIP3    H141441   4.120   0.049   0.011 -0.5281  1.6075  0.0835
 6602TIP3    H241442   4.187  -0.037   0.116  0.8197  1.4158 -0.9154
 6603TIP3   OH241443   2.657   6.207   2.353  0.3970  0.0483  0.2494
 6603TIP3    H141444   2.654   6.256   2.271  0.0091  0.4662  0.5110
 6603TIP3    H241445   2.569   6.170   2.361  0.2676  0.4617  0.7517
 6604TIP3   OH241446   0.545   1.321   0.926 -0.3239  0.2509 -0.0388
 6604TIP3    H141447   0.588   1.315   0.840 -1.4273  0.3938 -0.6151
 6604TIP3    H241448   0.458   1.286   0.912 -0.4399  0.0370  1.1025
 6605TIP3   OH241449   4.356   2.866   2.207 -0.1690  0.4368  0.4058
 6605TIP3    H141450   4.312   2.948   2.229  2.3235  1.7222  0.9580
 6605TIP3    H241451   4.401   2.841   2.288  0.2409 -0.7331 -0.1597
 6606TIP3   OH241452   5.274   1.428   2.018 -0.4560  0.1740 -0.2054
 6606TIP3    H141453   5.289   1.448   2.110  1.2166  1.6131 -0.7364
 6606TIP3    H241454   5.279   1.332   2.013  0.6701  0.1527  1.0044
 6607TIP3   OH241455   3.149   4.978   0.079  0.1203  0.1083  0.0394
 6607TIP3    H141456   3.123   4.927   0.155 -1.8853  1.8183  0.6176
 6607TIP3    H241457   3.169   5.065   0.114 -0.4341  0.8200 -1.3018
 6608TIP3   OH241458   6.692   4.002   0.989 -0.0129 -0.3019 -0.1692
 6608TIP3    H141459   6.784   3.976   0.983  0.2370  0.2583  0.9163
 6608TIP3    H241460   6.652   3.932   1.041 -0.7951 -1.8828 -2.7170
 6609TIP3   OH241461   3.682   1.043   1.981 -0.1325  0.3543  0.0940
 6609TIP3    H141462   3.599   1.011   1.945  0.5244 -0.1357 -1.0377
 6609TIP3    H241463   3.732   1.071   1.904  1.5286 -1.2162  0.5501
 6610TIP3   OH241464   5.529   5.761   8.397 -0.1103 -0.2175 -0.1757
 6610TIP3    H141465   5.453   5.785   8.450  0.6427 -0.0480  0.8670
 6610TIP3    H241466   5.558   5.676   8.433  0.8065  0.2175  0.1579
 6611TIP3   OH241467   1.084   2.318   7.637 -0.1847 -0.6408  0.2974
 6611TIP3    H141468   1.045   2.331   7.723  0.7851  1.2206  0.5204
 6611TIP3    H241469   1.136   2.238   7.645 -0.5252 -0.7727  1.2651
 6612TIP3   OH241470   3.852   0.857   1.515 -1.2192 -0.5221  0.0258
 6612TIP3    H141471   3.765   0.868   1.553 -1.6158 -0.1572 -0.9508
 6612TIP3    H241472   3.857   0.925   1.448 -0.5308 -1.1369 -0.5586
 6613TIP3   OH241473   3.512   1.123   1.418 -0.1259 -0.0337 -0.3008
 6613TIP3    H141474   3.535   1.129   1.325 -0.4844  3.3539 -0.3223
 6613TIP3    H241475   3.416   1.127   1.420 -0.1214 -0.0835  0.1809
 6614TIP3   OH241476   0.300   1.517   1.280 -0.4741 -0.3128 -0.5988
 6614TIP3    H141477   0.297   1.606   1.316  1.2316 -0.5651  0.2630
 6614TIP3    H241478   0.223   1.473   1.317 -0.4689  0.3449  0.2138
 6615TIP3   OH241479   5.783   5.219   0.598 -0.0831 -0.5254  0.1803
 6615TIP3    H141480   5.839   5.273   0.653 -1.5082  3.2705 -1.7307
 6615TIP3    H241481   5.694   5.238   0.629 -0.7808  0.2576 -2.1297
 6616TIP3   OH241482   4.281   5.852   7.723  0.0648 -0.2856  0.3494
 6616TIP3    H141483   4.321   5.872   7.808 -0.3335  2.1569  0.0506
 6616TIP3    H241484   4.354   5.852   7.661 -0.0701  2.5897  0.0489
 6617TIP3   OH241485   3.040   0.523   7.536  0.3421 -0.4522 -0.5560
 6617TIP3    H141486   2.945   0.510   7.533  0.1761  0.6929 -0.7038
 6617TIP3    H241487   3.071   0.499   7.448 -0.0340  0.6683 -1.0138
 6618TIP3   OH241488   0.346   2.880   7.765  0.1216 -0.1168  0.0156
 6618TIP3    H141489   0.428   2.843   7.797  0.4289  1.0256  0.6340
 6618TIP3    H241490   0.278   2.824   7.802  0.6291 -1.6400 -1.2765
 6619TIP3   OH241491   3.293   6.550   7.740  0.3682 -0.1058  0.1207
 6619TIP3    H141492   3.346   6.597   7.676  0.7133  1.3459  1.4185
 6619TIP3    H241493   3.351   6.483   7.775  0.6251  0.0231 -0.0557
 6620TIP3   OH241494   0.463   0.533   1.638 -0.7724 -0.3409 -0.3043
 6620TIP3    H141495   0.493   0.577   1.558 -0.4121  0.8651  0.4680
 6620TIP3    H241496   0.530   0.467   1.655  0.0132  0.4777 -0.1266
 6621TIP3   OH241497   4.130   4.330   0.341  0.5234 -0.1332  0.5244
 6621TIP3    H141498   4.074   4.289   0.275 -0.9332  2.6165 -0.1105
 6621TIP3    H241499   4.077   4.329   0.421 -0.1109  1.6015  0.1665
 6622TIP3   OH241500   6.592   2.876   0.084 -0.8403 -0.5447  0.0069
 6622TIP3    H141501   6.512   2.904   0.129 -2.3280 -0.7614 -2.3709
 6622TIP3    H241502   6.581   2.781   0.075 -0.2621 -0.5873 -0.2434
 6623TIP3   OH241503   3.131   0.519   1.816 -0.1002  0.4888 -0.6232
 6623TIP3    H141504   3.147   0.427   1.834  1.7376  0.6047 -1.4927
 6623TIP3    H241505   3.036   0.525   1.806 -0.4304 -0.9655  1.1243
 6624TIP3   OH241506   1.884   2.006   1.555 -0.2920 -0.1176  0.4295
 6624TIP3    H141507   1.851   1.938   1.614 -0.6637 -0.5238 -0.2405
 6624TIP3    H241508   1.940   2.060   1.611 -2.1395  0.6469  1.6098
 6625TIP3   OH241509   1.153   5.730   7.877 -0.1684  0.0327  0.2684
 6625TIP3    H141510   1.163   5.694   7.965  0.0783  0.7510  0.5406
 6625TIP3    H241511   1.116   5.658   7.826  1.6293 -1.0853  0.4493
 6626TIP3   OH241512   3.015   1.558   0.070 -0.1557 -0.8489 -0.1874
 6626TIP3    H141513   2.937   1.510   0.042 -0.1863 -1.0917  0.3190
 6626TIP3    H241514   3.067   1.565  -0.010 -0.2766 -1.4851 -0.3308
 6627TIP3   OH241515   1.514   6.563   7.631  0.2281 -0.5339  0.2142
 6627TIP3    H141516   1.464   6.622   7.575 -0.4416 -0.1398  1.2114
 6627TIP3    H241517   1.554   6.501   7.570 -1.6796 -1.0406 -0.5941
 6628TIP3   OH241518   0.453   6.181   1.819  0.3389  0.7909  0.2545
 6628TIP3    H141519   0.485   6.266   1.789  0.7773  0.1266 -1.2748
 6628TIP3    H241520   0.361   6.179   1.793  0.4331  0.6498 -0.0757
 6629TIP3   OH241521   3.730   5.687   2.981 -0.1636  0.2534 -0.0008
 6629TIP3    H141522   3.721   5.727   3.067 -0.7017  1.0648 -0.4250
 6629TIP3    H241523   3.711   5.757   2.919 -0.2508 -0.4371 -0.7799
 6630TIP3   OH241524   6.445   2.673   2.591  0.1518  0.0029 -0.1240
 6630TIP3    H141525   6.536   2.668   2.559  0.2204 -0.4726  0.1342
 6630TIP3    H241526   6.432   2.590   2.637  0.0849  0.7137  1.1874
 6631TIP3   OH241527   3.314   5.292   0.466  0.2773  0.9383  0.3127
 6631TIP3    H141528   3.337   5.361   0.529  0.9084  0.7248  0.3250
 6631TIP3    H241529   3.395   5.279   0.415 -0.0587  0.7157 -0.1682
 6632TIP3   OH241530   2.180   3.155   7.726 -0.4539 -0.2333 -0.3011
 6632TIP3    H141531   2.131   3.236   7.737 -0.8191 -0.4416 -0.3806
 6632TIP3    H241532   2.113   3.087   7.716 -0.1500 -0.4728 -0.7516
 6633TIP3   OH241533   4.492   3.733   0.843  0.2311 -0.6295  0.2191
 6633TIP3    H141534   4.507   3.824   0.871  0.7571 -1.1320  1.7034
 6633TIP3    H241535   4.528   3.729   0.755  0.3762  0.5597  0.2065
 6634TIP3   OH241536   5.547   1.144   0.754 -0.2538 -0.0570 -0.3468
 6634TIP3    H141537   5.626   1.120   0.802  0.9136 -1.1869 -2.6934
 6634TIP3    H241538   5.476   1.099   0.800  0.5295  0.3501  1.3319
 6635TIP3   OH241539   5.469   5.956   2.132  0.1611 -0.3535 -0.1164
 6635TIP3    H141540   5.504   6.044   2.118 -0.2928 -0.1997 -0.2926
 6635TIP3    H241541   5.497   5.932   2.220 -0.3029  0.2460  0.1998
 6636TIP3   OH241542   3.533   6.730   7.876  0.6345  0.0890 -0.3574
 6636TIP3    H141543   3.509   6.822   7.885  1.1078  0.2348 -0.5075
 6636TIP3    H241544   3.495   6.687   7.952  0.8950  0.5127  0.0199
 6637TIP3   OH241545   5.730   4.705   1.807 -0.3675 -0.0115  0.4006
 6637TIP3    H141546   5.745   4.788   1.852 -0.8890  0.5990 -0.5065
 6637TIP3    H241547   5.635   4.694   1.809 -0.3507 -0.2476 -0.0666
 6638TIP3   OH241548   4.341   4.863   0.410  0.3852 -0.2123 -0.4044
 6638TIP3    H141549   4.433   4.885   0.394  0.5226 -0.5524 -0.1014
 6638TIP3    H241550   4.324   4.896   0.498 -0.1027  0.8358 -0.8746
 6639TIP3   OH241551   3.109   1.319   7.920 -0.0656  0.3612 -0.0570
 6639TIP3    H141552   3.200   1.293   7.938 -0.4569 -0.6765  0.4921
 6639TIP3    H241553   3.117   1.404   7.879  1.0961  1.0211  1.4090
 6640TIP3   OH241554   0.486   6.344   1.101 -0.2240 -0.7343  0.0422
 6640TIP3    H141555   0.476   6.382   1.188  1.5776  0.4589 -0.2048
 6640TIP3    H241556   0.468   6.251   1.113  0.5196 -0.6892  1.8086
 6641TIP3   OH241557   5.099   0.853   2.831  0.0204  0.2017  0.3654
 6641TIP3    H141558   5.079   0.769   2.870  0.3046  0.1522  0.4108
 6641TIP3    H241559   5.170   0.834   2.769 -1.7586 -0.0929 -1.6950
 6642TIP3   OH241560   1.674   1.634   7.001  0.3901  0.1266 -0.0139
 6642TIP3    H141561   1.644   1.642   6.910 -0.0179  0.7716  0.1744
 6642TIP3    H241562   1.698   1.723   7.027  0.6541 -0.0786  0.4675
 6643TIP3   OH241563   2.710   1.189   0.735 -0.1504  0.1882 -0.1277
 6643TIP3    H141564   2.737   1.114   0.789 -1.9613  1.1302  2.2968
 6643TIP3    H241565   2.790   1.242   0.727  0.9042 -1.4357 -1.0315
 6644TIP3   OH241566   4.673   0.780   0.111  0.2402 -0.7764  0.0262
 6644TIP3    H141567   4.741   0.846   0.106  1.0807 -1.5813  0.5624
 6644TIP3    H241568   4.609   0.814   0.173  1.0182 -0.7800  0.8326
 6645TIP3   OH241569   6.176   4.022   1.919 -0.2529 -0.0413 -0.1132
 6645TIP3    H141570   6.194   4.115   1.925  1.4214 -0.3193 -0.3489
 6645TIP3    H241571   6.196   3.988   2.007  0.0326 -0.3268 -0.2900
 6646TIP3   OH241572   4.022   2.834   2.195  0.4335  1.0251  0.0571
 6646TIP3    H141573   4.032   2.893   2.270 -0.6834  1.1409  0.1350
 6646TIP3    H241574   4.076   2.758   2.217  0.6816  1.3623  0.6487
 6647TIP3   OH241575   4.848   3.820   0.925 -0.0900 -0.1352  0.6469
 6647TIP3    H141576   4.942   3.831   0.909  0.0489 -2.8181 -1.0468
 6647TIP3    H241577   4.806   3.854   0.846 -0.6124  1.1612  1.4465
 6648TIP3   OH241578   2.147   3.267   0.196 -0.6049 -0.6738  0.0213
 6648TIP3    H141579   2.107   3.354   0.194  2.1205  0.6985  1.0306
 6648TIP3    H241580   2.190   3.258   0.112 -1.2160 -1.2638 -0.2413
 6649TIP3   OH241581   2.205   0.268   8.089  0.7897  0.2387  0.1114
 6649TIP3    H141582   2.243   0.202   8.031  1.0251  0.7832 -0.3547
 6649TIP3    H241583   2.275   0.331   8.103  0.3492  0.7664 -0.0214
 6650TIP3   OH241584   5.764   4.372   0.065 -0.3260  0.0516 -0.1614
 6650TIP3    H141585   5.810   4.316   0.002  0.2763  1.4702 -1.0389
 6650TIP3    H241586   5.827   4.441   0.086 -0.8384  0.0991  1.3406
 6651TIP3   OH241587   6.927   6.281   2.274  0.0191  0.0719 -0.0494
 6651TIP3    H141588   6.927   6.359   2.218  0.3576  0.8951  1.0591
 6651TIP3    H241589   6.834   6.267   2.295  0.1370  1.8766  1.9801
 6652TIP3   OH241590   4.687   5.534   8.385  0.3313 -0.6273  0.0551
 6652TIP3    H141591   4.773   5.513   8.348  1.4402 -1.2661  2.7727
 6652TIP3    H241592   4.674   5.470   8.455 -2.0879 -0.1236  0.1594
 6653TIP3   OH241593   3.282   2.017   1.210 -0.1118 -0.2722  0.7143
 6653TIP3    H141594   3.274   2.020   1.305 -3.0238 -1.1075  0.5818
 6653TIP3    H241595   3.209   2.070   1.177  1.6178  1.1414 -1.1083
 6654TIP3   OH241596   0.138   4.434   0.811  0.5788  0.2344  0.7250
 6654TIP3    H141597   0.074   4.466   0.747  1.7645  1.2942  0.0260
 6654TIP3    H241598   0.138   4.500   0.880  1.6742  0.8531  0.1803
 6655TIP3   OH241599   1.646   4.927   1.703 -0.0098 -0.6006 -0.7383
 6655TIP3    H141600   1.700   5.000   1.671 -0.6689 -0.0913 -0.7109
 6655TIP3    H241601   1.579   4.969   1.757 -1.0866 -1.1094 -1.6344
 6656TIP3   OH241602   1.896   3.514   1.916 -0.0362 -0.0353  0.1756
 6656TIP3    H141603   1.978   3.545   1.955 -0.1327  1.0828 -0.4687
 6656TIP3    H241604   1.900   3.544   1.825  0.2649 -2.6931 -0.7861
 6657TIP3   OH241605   6.045   1.956   8.386  0.3828 -0.3168 -0.1900
 6657TIP3    H141606   6.038   1.884   8.450 -2.0119  2.0054  2.4492
 6657TIP3    H241607   6.139   1.974   8.382  0.8782 -2.4038  0.4319
 6658TIP3   OH241608   1.957   2.986   2.283 -0.5380 -0.0498  0.6967
 6658TIP3    H141609   1.965   3.000   2.377  0.3313  1.3010  0.4498
 6658TIP3    H241610   1.906   2.905   2.275 -1.2072  0.1696  2.3096
 6659TIP3   OH241611   1.329   1.052   6.710 -0.6659 -0.5751  0.8492
 6659TIP3    H141612   1.275   1.033   6.634  1.8546 -1.7535 -0.7713
 6659TIP3    H241613   1.345   1.147   6.706 -1.2458 -0.4902  0.4458
 6660TIP3   OH241614   0.199   0.078   1.595 -0.4376 -0.5000 -0.2400
 6660TIP3    H141615   0.253   0.032   1.660  2.0363  0.5684 -1.3823
 6660TIP3    H241616   0.137   0.129   1.647 -0.2037 -1.5911  1.1724
 6661TIP3   OH241617   2.986   3.444   8.334  0.3696 -0.2857  0.1792
 6661TIP3    H141618   3.005   3.530   8.371 -1.6185  1.9040 -3.3381
 6661TIP3    H241619   2.910   3.413   8.384  1.3276 -0.2480  1.7225
 6662TIP3   OH241620   5.403   1.786   0.781 -0.0750 -0.1687 -0.5230
 6662TIP3    H141621   5.456   1.706   0.768  0.3707  0.3331 -1.9165
 6662TIP3    H241622   5.464   1.858   0.764 -0.8618  0.4451 -0.8052
 6663TIP3   OH241623   5.820   4.430   1.530 -0.1309  0.4090  0.5271
 6663TIP3    H141624   5.796   4.518   1.502  0.0237 -0.0949 -1.2922
 6663TIP3    H241625   5.738   4.380   1.526  0.1469  0.0100 -0.3650
 6664TIP3   OH241626   3.771   4.093   7.618 -0.0458  0.3016  0.3515
 6664TIP3    H141627   3.701   4.144   7.658 -0.5568 -0.5716  0.6152
 6664TIP3    H241628   3.790   4.138   7.536 -0.6902  0.7481  0.4388
 6665TIP3   OH241629   2.164   2.716   2.844 -0.4412  0.6046 -0.3384
 6665TIP3    H141630   2.174   2.791   2.785 -0.8483  0.8113 -0.1483
 6665TIP3    H241631   2.075   2.723   2.878 -0.0306  0.8102  0.7432
 6666TIP3   OH241632   2.820   1.120   8.270  0.1349 -0.2142  0.0117
 6666TIP3    H141633   2.847   1.209   8.292  1.1739 -0.7773  1.1519
 6666TIP3    H241634   2.900   1.068   8.277 -0.7971 -1.5589  1.2094
 6667TIP3   OH241635   5.026   5.882   1.092  0.0535 -0.3303 -0.1399
 6667TIP3    H141636   5.059   5.792   1.099 -0.2285 -0.3971  0.4267
 6667TIP3    H241637   4.943   5.873   1.045 -1.2429 -0.7093  2.0894
 6668TIP3   OH241638   0.500   6.382   2.479  0.3136 -0.0972  0.8198
 6668TIP3    H141639   0.581   6.408   2.434  1.6237  0.2124  3.1802
 6668TIP3    H241640   0.445   6.461   2.476  0.6562  0.1266  0.3250
 6669TIP3   OH241641   1.970   3.457   2.366  0.1529  0.4214  0.6696
 6669TIP3    H141642   1.905   3.527   2.372  1.1019  1.4254 -0.3331
 6669TIP3    H241643   2.007   3.451   2.455 -0.1468  0.9788  0.8352
 6670TIP3   OH241644   4.597   6.015   0.138 -0.0929 -0.3960  0.7189
 6670TIP3    H141645   4.593   6.106   0.111  0.4397 -0.7050 -0.4440
 6670TIP3    H241646   4.590   5.965   0.057  1.0418 -1.3672  1.1843
 6671TIP3   OH241647   0.349   1.239   0.731 -0.3396  0.3020  0.2767
 6671TIP3    H141648   0.434   1.242   0.689 -0.9136 -0.8234 -1.0378
 6671TIP3    H241649   0.305   1.319   0.701 -1.3030 -1.1862 -2.6518
 6672TIP3   OH241650   0.627   1.679   0.484  0.0559  0.1313 -0.0663
 6672TIP3    H141651   0.700   1.630   0.522 -0.0846  0.1830  0.2771
 6672TIP3    H241652   0.647   1.683   0.391  1.8767  2.4523  0.3450
 6673TIP3   OH241653   1.476   6.775   6.492  0.4532  0.0284 -0.7366
 6673TIP3    H141654   1.398   6.780   6.547 -0.8608 -0.3412 -2.4814
 6673TIP3    H241655   1.504   6.683   6.498  1.8403  0.5094  1.2279
 6674TIP3   OH241656   1.411   6.685   1.010  0.1430  0.2241 -0.1914
 6674TIP3    H141657   1.435   6.630   1.085 -2.3903  0.5164  0.9241
 6674TIP3    H241658   1.394   6.622   0.940  1.5540 -0.1110 -0.2707
 6675TIP3   OH241659   1.371   2.470   7.305 -0.3216 -0.3364  0.4934
 6675TIP3    H141660   1.341   2.560   7.302  0.3259 -0.0821  1.3250
 6675TIP3    H241661   1.290   2.418   7.311 -0.6528  0.2954  1.8801
 6676TIP3   OH241662   2.113   1.925   1.942 -0.6352  0.1554  0.0460
 6676TIP3    H141663   2.045   1.987   1.966 -0.0963  1.5398 -1.7721
 6676TIP3    H241664   2.189   1.950   1.994 -0.3895  1.1310 -0.7547
 6677TIP3   OH241665   4.034   2.175   1.388  0.2150  0.0495  0.3923
 6677TIP3    H141666   4.076   2.095   1.419  0.1677 -0.0679  0.1484
 6677TIP3    H241667   4.092   2.245   1.419 -0.4279  0.0110  1.7429
 6678TIP3   OH241668   6.652   6.822   8.403 -0.0421  0.3487 -0.4464
 6678TIP3    H141669   6.687   6.903   8.364 -0.6679  0.0388 -1.7269
 6678TIP3    H241670   6.722   6.790   8.460  1.4149  0.2427 -2.2060
 6679TIP3   OH241671   3.530   5.358   0.305 -0.5616 -0.4501 -0.3487
 6679TIP3    H141672   3.608   5.338   0.253  0.9731  0.0174  1.6347
 6679TIP3    H241673   3.468   5.396   0.242  0.6168 -1.2617 -2.0710
 6680TIP3   OH241674   4.801   0.273   2.052 -0.1677 -0.5180 -0.0519
 6680TIP3    H141675   4.787   0.181   2.031 -0.9706 -0.7493  1.3832
 6680TIP3    H241676   4.716   0.304   2.082 -0.3615  1.1848 -2.0943
 6681TIP3   OH241677   0.119   0.097   7.179 -0.2043  0.0820 -0.0747
 6681TIP3    H141678   0.043   0.149   7.206 -0.6842 -1.1959  1.1761
 6681TIP3    H241679   0.081   0.013   7.150  0.5904  0.1782 -1.4898
 6682TIP3   OH241680   2.379   5.180   8.088 -0.1417  0.6461 -0.0486
 6682TIP3    H141681   2.384   5.237   8.164 -2.0238  2.1357 -0.9462
 6682TIP3    H241682   2.465   5.189   8.045 -0.0701  2.0997  0.3472
 6683TIP3   OH241683   5.428   1.068   0.516  0.8901  0.4902 -0.4602
 6683TIP3    H141684   5.338   1.051   0.544  1.3692 -1.4118  0.0476
 6683TIP3    H241685   5.470   1.106   0.593  1.2112 -1.2024  0.2423
 6684TIP3   OH241686   2.983   2.832   7.652 -0.2277 -0.0583  0.2216
 6684TIP3    H141687   2.983   2.905   7.714 -0.1377 -0.7145  1.0224
 6684TIP3    H241688   2.941   2.866   7.573  0.0934  0.9395  0.4745
 6685TIP3   OH241689   6.668   6.508   2.044  0.3747 -0.0641 -0.2042
 6685TIP3    H141690   6.731   6.478   1.978  0.6047 -0.4646  0.1878
 6685TIP3    H241691   6.582   6.487   2.006  0.4395  0.9525 -0.9682
 6686TIP3   OH241692   3.422   0.176   7.338  0.0701 -0.6560 -0.3201
 6686TIP3    H141693   3.403   0.122   7.262  1.1575 -0.9885 -0.3745
 6686TIP3    H241694   3.389   0.124   7.412 -1.3208 -0.1683 -0.5653
 6687TIP3   OH241695   1.412   4.656   1.674  0.4141 -0.1011 -0.4693
 6687TIP3    H141696   1.406   4.720   1.745  0.0568 -0.4969 -0.1352
 6687TIP3    H241697   1.489   4.682   1.624  2.0132 -1.1026  1.3615
 6688TIP3   OH241698   6.186   2.447   1.776  0.4969  0.1294  0.6787
 6688TIP3    H141699   6.229   2.414   1.697  0.6763  0.6717  0.5493
 6688TIP3    H241700   6.120   2.380   1.797  0.2985  0.0855 -0.0537
 6689TIP3   OH241701   4.473   3.717   1.453 -0.1529 -0.4835  0.3185
 6689TIP3    H141702   4.539   3.784   1.471 -0.5583 -0.0476  0.2183
 6689TIP3    H241703   4.502   3.676   1.371 -0.8776  0.8517 -0.6546
 6690TIP3   OH241704   1.937   2.275   2.391 -0.0602 -0.0055 -0.2898
 6690TIP3    H141705   2.012   2.229   2.353 -0.7104 -0.5925 -0.8870
 6690TIP3    H241706   1.860   2.231   2.354 -0.7140  0.0090  0.9888
 6691TIP3   OH241707   0.293   1.472   0.312 -0.2564  0.2278 -0.1716
 6691TIP3    H141708   0.205   1.437   0.299 -0.7439  1.3072  0.0704
 6691TIP3    H241709   0.286   1.526   0.391 -0.4447  3.5078 -2.2093
 6692TIP3   OH241710   4.765   6.445   0.203 -0.2792 -0.2646 -0.5084
 6692TIP3    H141711   4.687   6.425   0.255 -0.6604  0.7864 -0.6553
 6692TIP3    H241712   4.746   6.408   0.117  0.2501 -1.7943 -0.0029
 6693TIP3   OH241713   0.910   1.606   2.285  0.7822  0.3569 -0.4786
 6693TIP3    H141714   0.967   1.530   2.280  0.6340  0.2627 -0.7571
 6693TIP3    H241715   0.969   1.681   2.275  0.9977  0.3069  0.2983
 6694TIP3   OH241716   5.507   0.948   0.977 -0.0630  0.2286  0.4598
 6694TIP3    H141717   5.575   0.976   1.038  0.3656 -0.9635  0.5601
 6694TIP3    H241718   5.428   0.940   1.030 -0.1929  1.1733  0.4317
 6695TIP3   OH241719   0.613   2.084   2.155 -0.2209  0.0129 -0.1608
 6695TIP3    H141720   0.563   2.033   2.219 -0.1306  0.1853  0.0461
 6695TIP3    H241721   0.574   2.060   2.071 -0.7925  0.3056  0.0143
 6696TIP3   OH241722   4.411   4.131   8.056 -0.6566  0.2488  0.2241
 6696TIP3    H141723   4.487   4.126   8.114  0.5476  0.9266 -1.2230
 6696TIP3    H241724   4.337   4.143   8.115  0.3319 -0.4807  1.6893
 6697TIP3   OH241725   2.793   6.292   1.420  0.3587  0.0939 -0.3849
 6697TIP3    H141726   2.852   6.217   1.421  0.1874 -0.0359  0.3663
 6697TIP3    H241727   2.851   6.368   1.409  0.7023 -0.0062  0.6581
 6698TIP3   OH241728   3.129   6.818   0.642  0.6654  0.0325 -0.4401
 6698TIP3    H141729   3.084   6.900   0.621 -0.4128 -0.4446 -0.0283
 6698TIP3    H241730   3.173   6.836   0.725 -2.1941 -0.7255  1.3892
 6699TIP3   OH241731   3.240   1.972   2.218  0.1714  0.4351  0.0872
 6699TIP3    H141732   3.162   1.936   2.260 -0.2963 -1.1863 -2.0186
 6699TIP3    H241733   3.206   2.026   2.147  0.7759 -2.6292 -2.7821
 6700TIP3   OH241734   0.370   3.887   2.292 -0.3902 -0.8270 -0.1983
 6700TIP3    H141735   0.384   3.980   2.275  0.5059 -0.4534  2.2064
 6700TIP3    H241736   0.439   3.864   2.355 -1.2342 -2.8533  0.0464
 6701TIP3   OH241737   6.304   1.308   7.058 -0.2941 -0.2162  0.2061
 6701TIP3    H141738   6.211   1.301   7.038 -0.1767 -1.9938  0.1648
 6701TIP3    H241739   6.346   1.324   6.973 -0.6040  1.6279  0.3472
 6702TIP3   OH241740   4.063   5.006   2.550 -0.2505  0.5316 -0.0314
 6702TIP3    H141741   4.047   4.915   2.575  0.2758  0.2241 -0.7732
 6702TIP3    H241742   4.149   5.026   2.586 -0.8102  1.0902  1.0406
 6703TIP3   OH241743   0.529   2.321   1.078  0.2060 -0.5119  0.0441
 6703TIP3    H141744   0.451   2.330   1.025  0.2744 -2.9261 -0.5736
 6703TIP3    H241745   0.587   2.391   1.047 -0.9451  0.0956 -0.8226
 6704TIP3   OH241746   2.852   5.162   0.567 -0.4150  0.5856 -0.7446
 6704TIP3    H141747   2.895   5.237   0.609  1.3930  0.0990 -1.5939
 6704TIP3    H241748   2.773   5.198   0.528 -0.7661  1.5680  0.7823
 6705TIP3   OH241749   3.076   3.981   7.488 -0.0863 -0.3488 -0.2138
 6705TIP3    H141750   3.095   3.893   7.456  1.2678  0.5233 -1.9620
 6705TIP3    H241751   3.008   4.014   7.429  1.3471  0.7172 -1.3483
 6706TIP3   OH241752   4.984   6.457   2.537 -0.5075  0.5513  0.3485
 6706TIP3    H141753   4.926   6.404   2.482 -2.0587  1.1582  1.3363
 6706TIP3    H241754   5.056   6.398   2.559 -1.8652 -0.9805  0.9191
 6707TIP3   OH241755   4.696   5.712   0.761 -0.2303 -0.7009 -0.0785
 6707TIP3    H141756   4.643   5.754   0.693 -0.1336  0.9263  0.8067
 6707TIP3    H241757   4.784   5.708   0.723 -0.2234 -0.0077 -0.1553
 6708TIP3   OH241758   4.980   2.974   1.549  0.1022  0.0122 -0.3941
 6708TIP3    H141759   5.011   3.045   1.492  0.0151  0.4784  0.1367
 6708TIP3    H241760   4.940   3.018   1.624 -2.4633 -0.5299 -1.3375
 6709TIP3   OH241761   3.329   6.258   8.449  1.0801 -0.1073 -0.4242
 6709TIP3    H141762   3.401   6.198   8.470 -0.3449 -1.3625  1.2158
 6709TIP3    H241763   3.357   6.342   8.484  1.8780 -0.5049 -0.0685
 6710TIP3   OH241764   6.518   3.266   7.317 -0.4902 -0.2871 -0.8635
 6710TIP3    H141765   6.455   3.229   7.255 -1.2581  0.0509 -0.3061
 6710TIP3    H241766   6.596   3.283   7.265 -1.2545  0.3649 -1.8335
 6711TIP3   OH241767   5.781   0.465   6.965 -0.7422 -0.2225  0.4658
 6711TIP3    H141768   5.771   0.482   6.871 -0.5515 -1.1552  0.2743
 6711TIP3    H241769   5.723   0.530   7.006 -0.6058  0.3899 -0.2757
 6712TIP3   OH241770   2.247   1.871   8.404  0.2651  0.5637 -0.2033
 6712TIP3    H141771   2.265   1.959   8.371 -1.7682  1.0787 -0.0431
 6712TIP3    H241772   2.279   1.873   8.495 -0.2141  1.3129 -0.0397
 6713TIP3   OH241773   1.672   4.397   7.758 -0.1488 -0.1018  0.1956
 6713TIP3    H141774   1.705   4.409   7.847  0.1699 -1.4296  0.2806
 6713TIP3    H241775   1.578   4.385   7.768 -0.0892 -0.4177  0.3737
 6714TIP3   OH241776   4.990   0.126   1.040  0.6776  0.0909  0.2802
 6714TIP3    H141777   5.071   0.103   0.996  0.6338 -1.0255  0.7365
 6714TIP3    H241778   5.016   0.149   1.129  0.5912  0.7130  0.1503
 6715TIP3   OH241779   2.707   5.737   0.499 -0.1698  0.1895 -0.7633
 6715TIP3    H141780   2.799   5.762   0.500 -0.3542  0.9257 -1.3602
 6715TIP3    H241781   2.668   5.786   0.571 -0.1152 -0.0492 -0.5704
 6716TIP3   OH241782   3.261   6.610   1.293  0.3828 -0.1632  0.2489
 6716TIP3    H141783   3.297   6.601   1.381  1.8335  2.3935  0.0355
 6716TIP3    H241784   3.326   6.570   1.236  0.4528  0.0116  0.2052
 6717TIP3   OH241785   6.217   2.547   7.334  0.3790 -0.1840  0.1990
 6717TIP3    H141786   6.223   2.519   7.425 -0.5774  0.3816  0.4543
 6717TIP3    H241787   6.302   2.526   7.296  0.6370 -0.8188  1.1084
 6718TIP3   OH241788   6.901   6.568   0.410 -0.3374  0.1270 -0.2524
 6718TIP3    H141789   6.899   6.637   0.477  0.5115  0.2418 -0.3309
 6718TIP3    H241790   6.869   6.490   0.455 -0.7741  0.4409 -0.0080
 6719TIP3   OH241791   4.938   6.048   0.187  0.5226  0.7271  0.2171
 6719TIP3    H141792   4.851   6.084   0.204  0.9608  1.5828  0.6784
 6719TIP3    H241793   4.996   6.124   0.184  1.2583  0.1679 -0.1118
 6720TIP3   OH241794   0.240   4.775   0.670  0.1421 -0.1920 -0.1645
 6720TIP3    H141795   0.256   4.687   0.706  1.0441 -0.4372 -1.1128
 6720TIP3    H241796   0.254   4.765   0.576  0.6880  1.0731 -0.2322
 6721TIP3   OH241797   2.348   4.717   7.801  0.0524 -0.0627  0.2583
 6721TIP3    H141798   2.418   4.725   7.736 -0.5716  1.0563 -0.3015
 6721TIP3    H241799   2.391   4.681   7.878  0.7352 -1.8199 -0.8790
 6722TIP3   OH241800   0.372   6.796   7.650 -0.1387 -0.7874 -0.1618
 6722TIP3    H141801   0.451   6.811   7.598  0.0344 -0.3255  0.2235
 6722TIP3    H241802   0.326   6.879   7.648 -0.9531 -1.2475 -0.9295
 6723TIP3   OH241803   1.036   0.598   1.226 -0.4548  0.1687 -0.2071
 6723TIP3    H141804   1.053   0.580   1.133 -1.2113  1.0425 -0.5335
 6723TIP3    H241805   1.108   0.654   1.254  0.1373 -0.6396 -0.0713
 6724TIP3   OH241806   6.175   6.074   0.675  0.4379  0.4242 -0.1998
 6724TIP3    H141807   6.265   6.103   0.667  0.3310  0.9431  0.4446
 6724TIP3    H241808   6.147   6.058   0.584  1.9355 -2.1708 -0.3121
 6725TIP3   OH241809   1.835   6.766   0.438 -0.8065  0.0611 -0.0534
 6725TIP3    H141810   1.752   6.759   0.485 -0.0818 -0.9528  1.1436
 6725TIP3    H241811   1.902   6.752   0.506  0.4467  3.0006 -0.5460
 6726TIP3   OH241812   1.087   0.906   1.252  0.4021 -0.0037  0.4987
 6726TIP3    H141813   1.088   0.898   1.157 -1.3765  0.0907  0.4441
 6726TIP3    H241814   1.038   0.986   1.269 -0.8003 -0.9280  1.5244
 6727TIP3   OH241815   0.552   1.857   0.711  0.4147  0.0116 -1.0230
 6727TIP3    H141816   0.496   1.927   0.676 -0.4933  0.2404  0.7722
 6727TIP3    H241817   0.578   1.806   0.634 -1.8318  0.2157 -1.9873
 6728TIP3   OH241818   1.343   5.584   2.153 -0.1281 -0.4618  0.1640
 6728TIP3    H141819   1.344   5.679   2.168 -0.5708 -0.8414  3.2899
 6728TIP3    H241820   1.435   5.559   2.154  0.0852  0.0520 -2.1146
 6729TIP3   OH241821   1.378   1.011   1.161  0.1957 -0.3426  0.1881
 6729TIP3    H141822   1.396   1.023   1.254 -3.5889  1.3521  0.8870
 6729TIP3    H241823   1.383   0.917   1.147 -1.9174 -0.9803  2.8949
 6730TIP3   OH241824   5.451   5.814   7.999  0.3164 -0.3049 -0.5602
 6730TIP3    H141825   5.443   5.744   8.064  0.6200 -1.0304 -1.2797
 6730TIP3    H241826   5.424   5.893   8.045  0.9827 -0.7192  0.5903
 6731TIP3   OH241827   2.643   2.114   7.708 -0.2910  0.8728 -0.0827
 6731TIP3    H141828   2.722   2.065   7.730 -1.4148 -1.9404 -1.6905
 6731TIP3    H241829   2.631   2.175   7.780  0.4895 -2.2311  2.9657
 6732TIP3   OH241830   3.870   5.616   8.051 -0.1111 -0.1466  0.5477
 6732TIP3    H141831   3.961   5.640   8.037 -0.3360  0.5889  0.2628
 6732TIP3    H241832   3.823   5.699   8.054 -0.9955 -0.5454 -0.9498
 6733TIP3   OH241833   3.072   0.823   0.890 -0.0295 -0.2481  0.0061
 6733TIP3    H141834   2.988   0.786   0.864 -0.2732 -1.9155  2.6910
 6733TIP3    H241835   3.132   0.748   0.890  1.0981  0.6246 -0.4131
 6734TIP3   OH241836   3.032   4.602   8.162 -0.3899 -0.3737  0.0001
 6734TIP3    H141837   2.953   4.655   8.174 -0.6239 -0.6635 -0.2573
 6734TIP3    H241838   3.054   4.572   8.250 -0.9258 -0.8019 -0.0056
 6735TIP3   OH241839   3.175   4.672   2.646  0.3412 -0.3180  0.2224
 6735TIP3    H141840   3.102   4.611   2.643  0.0244  0.0048  0.9514
 6735TIP3    H241841   3.153   4.732   2.718 -0.4462  2.0187 -1.8190
 6736TIP3   OH241842   3.495   1.548   1.841 -0.2484  0.4506  0.2712
 6736TIP3    H141843   3.420   1.546   1.900  0.2741  0.6645  0.9584
 6736TIP3    H241844   3.494   1.462   1.798 -0.1812 -0.0165  1.1771
 6737TIP3   OH241845   3.969   0.667   7.914  0.1152  0.2028  0.4642
 6737TIP3    H141846   4.064   0.676   7.919  0.1207  0.8748 -0.4734
 6737TIP3    H241847   3.955   0.583   7.871  0.3330  0.6837 -0.5895
 6738TIP3   OH241848   2.068   2.186   7.692 -0.0060 -0.3232  0.1817
 6738TIP3    H141849   2.014   2.246   7.742  0.8000  1.7937 -1.3282
 6738TIP3    H241850   2.008   2.147   7.629  0.0626  1.8388 -1.3336
 6739TIP3   OH241851   3.706   5.529   1.906  0.0764 -0.1028  0.0063
 6739TIP3    H141852   3.768   5.561   1.840 -1.0122  0.2666 -0.8685
 6739TIP3    H241853   3.668   5.450   1.868  1.5824 -1.6215  1.4853
 6740TIP3   OH241854   6.787   5.139   1.387  0.2876 -0.3576  0.7594
 6740TIP3    H141855   6.744   5.221   1.413 -0.1602 -0.5026  0.4907
 6740TIP3    H241856   6.881   5.157   1.395  0.2081  0.3481  0.2047
 6741TIP3   OH241857   3.980   0.230   1.692 -0.4509 -0.5148 -0.1881
 6741TIP3    H141858   3.925   0.172   1.744 -0.2671 -1.1237 -0.6662
 6741TIP3    H241859   3.931   0.313   1.688 -0.9248 -0.7788  0.1087
 6742TIP3   OH241860   3.061   4.789   0.311 -0.3795 -0.1794  0.4679
 6742TIP3    H141861   3.025   4.718   0.259  0.1142 -0.8389  1.0193
 6742TIP3    H241862   3.000   4.798   0.385  0.5284 -1.2691  1.3799
 6743TIP3   OH241863   0.793   6.279   0.586  0.0383  0.3312  0.1035
 6743TIP3    H141864   0.733   6.304   0.516  0.6989  0.4923 -0.4085
 6743TIP3    H241865   0.789   6.183   0.588  0.9568  0.2566 -0.9980
 6744TIP3   OH241866   3.543   3.844   8.163 -0.0003 -0.7568 -0.2571
 6744TIP3    H141867   3.564   3.756   8.131  2.5329 -0.7161  1.0170
 6744TIP3    H241868   3.589   3.903   8.103 -0.1596 -0.3905 -0.0248
 6745TIP3   OH241869   2.052   1.821   7.784 -0.1592 -0.4184 -0.2393
 6745TIP3    H141870   1.969   1.868   7.797 -0.8145 -0.7269 -2.7441
 6745TIP3    H241871   2.117   1.873   7.831 -1.2961  1.5304 -0.7061
 6746TIP3   OH241872   5.624   6.832   7.494 -0.1788  0.0428 -0.0140
 6746TIP3    H141873   5.599   6.912   7.541  0.5525  0.5713 -0.5087
 6746TIP3    H241874   5.670   6.780   7.559  0.3135  0.5114  0.0214
 6747TIP3   OH241875   3.209   4.999   2.044  0.1259  0.6822 -0.1504
 6747TIP3    H141876   3.155   4.966   1.972  0.9937 -1.5087  0.1385
 6747TIP3    H241877   3.158   4.979   2.123  0.9423 -0.6163  0.0692
 6748TIP3   OH241878   0.450   4.809   2.235  0.4475  0.0068 -0.1945
 6748TIP3    H141879   0.523   4.748   2.221 -2.0469 -3.3992  0.5050
 6748TIP3    H241880   0.464   4.844   2.323  1.8435  0.3925 -0.5443
 6749TIP3   OH241881   0.908   1.994   1.544  0.0574 -0.0281  0.6348
 6749TIP3    H141882   0.814   2.010   1.538 -0.2063 -1.7983 -1.2699
 6749TIP3    H241883   0.947   2.057   1.483  0.0432  0.2826  0.9477
 6750TIP3   OH241884   4.326   0.641   1.110 -0.1328 -0.2620  0.7071
 6750TIP3    H141885   4.238   0.602   1.107  0.0186 -0.6515  1.1935
 6750TIP3    H241886   4.334   0.688   1.027 -1.0355  0.2878  0.9114
 6751TIP3   OH241887   5.412   4.664   2.747  0.7081 -0.2924  0.7080
 6751TIP3    H141888   5.486   4.720   2.723  0.6193 -1.0008 -1.4843
 6751TIP3    H241889   5.335   4.711   2.715  0.5309 -1.0403 -0.0270
 6752TIP3   OH241890   5.089   0.422   0.992 -0.0040 -0.3793  0.1368
 6752TIP3    H141891   5.006   0.381   1.020 -1.1036  0.4989 -1.6865
 6752TIP3    H241892   5.149   0.405   1.065 -1.9065 -0.6326  1.7364
 6753TIP3   OH241893   6.238   3.981   1.428  0.4151 -0.8829  0.3935
 6753TIP3    H141894   6.200   4.031   1.356  3.4744 -0.6494 -1.2031
 6753TIP3    H241895   6.228   3.890   1.402  1.7164 -0.7912 -0.4824
 6754TIP3   OH241896   1.706   3.108   3.061  0.1515 -0.3938  0.6516
 6754TIP3    H141897   1.745   3.022   3.079  1.3477  0.0618  0.2735
 6754TIP3    H241898   1.779   3.169   3.060 -0.6505  0.6040  0.6251
 6755TIP3   OH241899   0.889   6.903   0.399 -0.1076 -0.2635 -0.6483
 6755TIP3    H141900   0.921   6.814   0.406 -0.4338 -0.5788 -2.6943
 6755TIP3    H241901   0.843   6.918   0.482  0.3825 -1.7882 -0.0621
 6756TIP3   OH241902   2.087   5.273   0.180  0.8409  0.3246  0.1590
 6756TIP3    H141903   2.033   5.346   0.210 -1.1071 -0.7344 -0.5492
 6756TIP3    H241904   2.108   5.294   0.090 -1.1080 -0.6312 -0.5942
 6757TIP3   OH241905   5.542   0.057   7.676 -0.6389  0.2297 -0.3194
 6757TIP3    H141906   5.459   0.065   7.723 -0.0819  1.6938  0.4825
 6757TIP3    H241907   5.601   0.117   7.722  0.8793 -0.8020 -0.8490
 6758TIP3   OH241908   0.801   3.271   7.414  0.3376 -0.5168 -0.7787
 6758TIP3    H141909   0.842   3.244   7.332 -0.2550 -1.0442 -0.9102
 6758TIP3    H241910   0.843   3.218   7.481  1.0136  0.1054 -0.6953
 6759TIP3   OH241911   0.907   4.660   8.223 -0.1829 -0.4789 -0.3728
 6759TIP3    H141912   0.973   4.658   8.292 -0.0170 -0.7234 -0.5374
 6759TIP3    H241913   0.827   4.689   8.267  0.2576  0.7545 -0.3660
 6760TIP3   OH241914   1.505   3.226   1.169  0.1435  0.3445  0.2922
 6760TIP3    H141915   1.526   3.250   1.259 -1.7735 -1.9777  1.4804
 6760TIP3    H241916   1.419   3.183   1.175 -0.7670  1.3996 -2.8829
 6761TIP3   OH241917   5.941   4.804   7.156 -0.3712 -0.4637  0.2379
 6761TIP3    H141918   5.891   4.742   7.104  0.3433 -0.4218 -0.5112
 6761TIP3    H241919   5.983   4.862   7.092 -0.4348  0.3406  0.8941
 6762TIP3   OH241920   3.603   4.880   1.740 -0.2934  0.3803  0.0092
 6762TIP3    H141921   3.546   4.889   1.817 -0.9567  0.5258 -0.4973
 6762TIP3    H241922   3.644   4.967   1.731 -0.5354  0.4866 -0.0564
 6763TIP3   OH241923   5.885   2.770   2.036 -0.4859 -0.2499 -0.2857
 6763TIP3    H141924   5.895   2.718   1.957  3.2785  1.4450 -1.1309
 6763TIP3    H241925   5.891   2.707   2.108  1.9892 -1.2602 -1.2883
 6764TIP3   OH241926   2.165   0.300   0.491  0.8219 -0.2751  0.2617
 6764TIP3    H141927   2.194   0.306   0.582  2.1821  0.0053 -0.1679
 6764TIP3    H241928   2.102   0.372   0.481 -0.1674 -0.9718  1.2529
 6765TIP3   OH241929   0.296   4.196   0.834 -0.2236  0.0591  0.1451
 6765TIP3    H141930   0.359   4.249   0.785  0.0720 -2.0487 -1.9502
 6765TIP3    H241931   0.222   4.255   0.849  1.7293  2.2971  1.7773
 6766TIP3   OH241932   2.279   2.756   2.362 -0.1053 -0.0426  0.6370
 6766TIP3    H141933   2.325   2.731   2.441 -1.6827  0.7292  1.8533
 6766TIP3    H241934   2.227   2.679   2.338  0.0179 -0.1215  0.6263
 6767TIP3   OH241935   2.568   1.341   2.169 -0.0720  0.0837 -0.1644
 6767TIP3    H141936   2.568   1.408   2.238  0.5455 -1.8745  1.8274
 6767TIP3    H241937   2.631   1.276   2.199 -0.0643 -1.0452 -2.4350
 6768TIP3   OH241938   1.143   4.150   7.622 -0.6774 -0.3329  0.1650
 6768TIP3    H141939   1.083   4.221   7.645 -0.7243 -0.6681  1.1144
 6768TIP3    H241940   1.108   4.113   7.542 -1.4210 -0.1697  0.4131
 6769TIP3   OH241941   6.827   0.778   0.096  0.4105 -0.7772  0.0119
 6769TIP3    H141942   6.749   0.731   0.125  0.2415 -0.4364  0.1149
 6769TIP3    H241943   6.796   0.835   0.026  0.6036 -0.7858 -0.0811
 6770TIP3   OH241944   1.818   3.742   1.119  0.0380 -0.3828 -0.5069
 6770TIP3    H141945   1.846   3.792   1.042 -1.5246 -1.3442 -1.7729
 6770TIP3    H241946   1.740   3.787   1.150  0.6994  0.0393  0.5907
 6771TIP3   OH241947   3.172   5.907   0.368 -0.2164  0.3015 -0.1117
 6771TIP3    H141948   3.205   5.962   0.297 -1.3036 -0.4917 -1.2907
 6771TIP3    H241949   3.194   5.954   0.448 -1.4819  2.7027 -1.0734
 6772TIP3   OH241950   5.811   2.250   2.193  0.1689 -0.2825  0.7445
 6772TIP3    H141951   5.832   2.302   2.271 -0.9047  0.9699  0.2433
 6772TIP3    H241952   5.727   2.285   2.163  0.9394 -0.1743 -1.4448
 6773TIP3   OH241953   6.751   2.957   2.513  0.0271 -0.2728 -0.9290
 6773TIP3    H141954   6.732   2.874   2.556 -0.2056 -0.2956 -1.0762
 6773TIP3    H241955   6.765   2.933   2.421 -1.3830  0.0238 -1.2328
 6774TIP3   OH241956   1.139   4.552   7.614 -0.0458 -0.4533 -0.0926
 6774TIP3    H141957   1.044   4.541   7.617  0.0305 -1.6778 -1.1254
 6774TIP3    H241958   1.155   4.596   7.530  0.1469  2.1616  1.2233
 6775TIP3   OH241959   2.527   1.812   1.812 -0.1090  0.6088 -0.1158
 6775TIP3    H141960   2.511   1.719   1.794  0.3701  0.6581 -0.8621
 6775TIP3    H241961   2.443   1.854   1.795 -0.3258  0.3101  0.2141
 6776TIP3   OH241962   0.611   3.350   6.763  0.7883 -0.5617  0.4245
 6776TIP3    H141963   0.620   3.442   6.785 -0.7602 -0.7966  2.3523
 6776TIP3    H241964   0.568   3.350   6.677  0.4414  0.5370  0.5842
 6777TIP3   OH241965   4.865   3.279   0.706  0.1184  0.2077  0.3049
 6777TIP3    H141966   4.842   3.309   0.618  0.8119  1.2151  0.4484
 6777TIP3    H241967   4.898   3.190   0.693 -1.0820 -0.1689 -0.2647
 6778TIP3   OH241968   3.121   3.761   1.620 -0.1897 -0.5970  0.1773
 6778TIP3    H141969   3.136   3.774   1.714  0.2738 -0.0015  0.0288
 6778TIP3    H241970   3.183   3.693   1.595 -0.4011 -0.8441  0.3287
 6779TIP3   OH241971   6.886   0.535   0.703 -0.0829  0.3289 -0.0562
 6779TIP3    H141972   6.850   0.508   0.787  1.3670 -0.0054  0.4952
 6779TIP3    H241973   6.821   0.595   0.667 -1.0453 -0.0486  0.9791
 6780TIP3   OH241974   0.973   2.609   7.906 -0.2552 -0.5634  0.0817
 6780TIP3    H141975   1.023   2.656   7.839  2.3818 -0.8230  1.7044
 6780TIP3    H241976   0.909   2.673   7.936  0.0917  0.3565 -1.0363
 6781TIP3   OH241977   4.886   6.849   0.549  0.2167 -0.0095  0.1826
 6781TIP3    H141978   4.855   6.789   0.481  1.4347  1.6539 -1.9592
 6781TIP3    H241979   4.806   6.880   0.591 -0.7715  0.5928 -2.0036
 6782TIP3   OH241980   1.664   0.072   1.169 -0.2858 -0.6993  0.2072
 6782TIP3    H141981   1.692   0.085   1.079 -1.7780  2.4129  0.0863
 6782TIP3    H241982   1.574   0.104   1.172 -0.0342  0.0429  2.9440
 6783TIP3   OH241983   1.521   4.094   7.769 -0.6261 -0.5683 -0.1154
 6783TIP3    H141984   1.484   4.178   7.798 -1.2031 -0.4025 -1.2926
 6783TIP3    H241985   1.577   4.117   7.695  0.7152 -1.0087  0.7251
 6784TIP3   OH241986   2.928   3.097   1.168  0.7130  0.0417  0.4639
 6784TIP3    H141987   2.892   3.062   1.086  2.3722  0.6440 -0.5705
 6784TIP3    H241988   2.889   3.042   1.236  0.4023 -1.4219 -0.8285
 6785TIP3   OH241989   1.451   5.815   1.240  0.3447 -0.1742 -0.2196
 6785TIP3    H141990   1.546   5.806   1.244  0.1992 -2.5617 -0.5491
 6785TIP3    H241991   1.422   5.808   1.331  0.3976 -1.7296 -0.2815
 6786TIP3   OH241992   4.181   3.674   2.972  0.0078 -0.0262 -0.6260
 6786TIP3    H141993   4.265   3.714   2.954  0.2761 -0.1816  0.2437
 6786TIP3    H241994   4.143   3.726   3.043 -0.0761 -0.6908 -0.1662
 6787TIP3   OH241995   3.452   2.616   2.018 -0.0984  0.2874 -0.5384
 6787TIP3    H141996   3.486   2.690   2.069  1.4806 -0.8666  0.1502
 6787TIP3    H241997   3.457   2.646   1.927  0.0385  1.2235 -0.2321
 6788TIP3   OH241998   6.276   3.277   8.353 -0.2201 -0.1885  0.8282
 6788TIP3    H141999   6.230   3.211   8.302  0.1030 -0.1625  0.4979
 6788TIP3    H242000   6.350   3.231   8.393  1.8893  0.5474 -1.9110
 6789TIP3   OH242001   5.119   2.023   1.796  0.6354  0.2275  0.1048
 6789TIP3    H142002   5.200   1.995   1.839  0.3291 -0.1291  0.4576
 6789TIP3    H242003   5.074   1.941   1.773 -0.2473  0.4150  1.0981
 6790TIP3   OH242004   0.169   6.475   1.153 -0.1900  0.4928  0.6742
 6790TIP3    H142005   0.145   6.545   1.093  2.7151  0.5859 -0.5495
 6790TIP3    H242006   0.149   6.394   1.105  0.4895  0.5491  0.2899
 6791TIP3   OH242007   0.267   2.222   0.447 -0.2550  0.0412 -0.1851
 6791TIP3    H142008   0.200   2.220   0.378 -0.0044 -0.3025 -0.4194
 6791TIP3    H242009   0.349   2.236   0.399 -0.1039  0.0014  0.0640
 6792TIP3   OH242010   3.134   1.858   0.127 -0.0254  0.1070  0.2329
 6792TIP3    H142011   3.222   1.840   0.160 -0.0259  0.9779  0.7332
 6792TIP3    H242012   3.133   1.818   0.040  0.6716 -0.4026  0.4452
 6793TIP3   OH242013   4.858   6.523   6.773 -0.2493 -0.2050  0.2312
 6793TIP3    H142014   4.934   6.537   6.716  0.2861  3.2265  1.5559
 6793TIP3    H242015   4.872   6.436   6.811  2.3419 -0.1889 -0.5045
 6794TIP3   OH242016   0.907   0.035   1.581 -0.9494 -0.4863 -0.2182
 6794TIP3    H142017   0.986   0.011   1.532 -1.0358 -0.7501 -0.2314
 6794TIP3    H242018   0.914   0.130   1.594  0.0699 -0.7010  1.0162
 6795TIP3   OH242019   3.988   2.507   0.469  0.7944  0.0566 -0.8905
 6795TIP3    H142020   3.989   2.599   0.443 -1.0561 -0.1033 -1.6918
 6795TIP3    H242021   3.980   2.508   0.564 -1.1513  0.7805 -1.0254
 6796TIP3   OH242022   1.917   5.840   1.644 -0.4775  0.4492 -0.0089
 6796TIP3    H142023   1.886   5.920   1.688  1.6142  0.6802  1.1845
 6796TIP3    H242024   1.964   5.792   1.713  1.1932 -0.1620 -1.4973
 6797TIP3   OH242025   6.436   6.672   2.038 -0.0013 -0.2304 -0.3204
 6797TIP3    H142026   6.525   6.696   2.010 -0.6844  1.9500 -0.8401
 6797TIP3    H242027   6.426   6.714   2.123 -0.2139 -1.2838  0.1795
 6798TIP3   OH242028   3.246   1.428   1.960  0.4628 -0.2931 -0.2805
 6798TIP3    H142029   3.238   1.357   2.024  0.7724  0.0275  0.1183
 6798TIP3    H242030   3.168   1.482   1.975  1.4136  0.7790  1.0751
 6799TIP3   OH242031   4.235   3.916   7.781 -0.4747  0.2473 -0.4652
 6799TIP3    H142032   4.161   3.974   7.800  0.0813  1.3925 -1.6260
 6799TIP3    H242033   4.274   3.952   7.702 -1.7739 -3.3202 -3.0051
 6800TIP3   OH242034   4.421   5.317   8.117 -0.0090  0.6881  0.1492
 6800TIP3    H142035   4.429   5.224   8.135  0.1420  0.6913  0.0964
 6800TIP3    H242036   4.341   5.325   8.065  0.2826  0.5248 -0.3210
 6801TIP3   OH242037   2.163   3.889   0.615  0.3825 -0.0517  0.0638
 6801TIP3    H142038   2.199   3.965   0.661  0.2703 -0.5123  0.9191
 6801TIP3    H242039   2.124   3.926   0.536  1.2999  0.6517 -0.0814
 6802TIP3   OH242040   0.964   2.528   0.471 -0.2421 -0.5541 -0.4058
 6802TIP3    H142041   0.945   2.556   0.561  0.2883  0.8247 -0.7081
 6802TIP3    H242042   1.043   2.576   0.447 -1.6098  0.8156 -2.3960
 6803TIP3   OH242043   5.342   5.891   1.677 -0.1191 -0.0800  0.4784
 6803TIP3    H142044   5.326   5.962   1.614 -1.4418 -2.8821 -2.6560
 6803TIP3    H242045   5.256   5.870   1.713  0.2092 -0.3144  1.1463
 6804TIP3   OH242046   0.612   0.133   7.445  0.2919 -0.3347 -0.2850
 6804TIP3    H142047   0.626   0.226   7.464  0.3118  0.2955 -2.8954
 6804TIP3    H242048   0.643   0.123   7.355  0.3595 -2.9137 -0.0486
 6805TIP3   OH242049   5.818   0.744   1.889  0.2015 -0.1585 -0.1702
 6805TIP3    H142050   5.859   0.676   1.943  1.7919  0.9281  0.0511
 6805TIP3    H242051   5.847   0.826   1.927  0.8761  0.6486 -2.2946
 6806TIP3   OH242052   6.544   5.144   0.548 -0.4319 -0.1354  1.0985
 6806TIP3    H142053   6.507   5.180   0.628 -0.9513  2.2656 -0.1445
 6806TIP3    H242054   6.470   5.140   0.487  0.5819  1.2950 -0.2948
 6807TIP3   OH242055   1.083   6.505   7.074 -0.2396 -0.5179 -0.5810
 6807TIP3    H142056   1.123   6.527   6.990  1.0300  1.0542  0.3781
 6807TIP3    H242057   1.072   6.410   7.072  0.4060 -0.5802 -2.2272
 6808TIP3   OH242058   2.390   3.698   7.950 -0.2874  0.2202 -0.0843
 6808TIP3    H142059   2.337   3.727   7.876  0.7076  0.3319 -0.7648
 6808TIP3    H242060   2.430   3.616   7.920 -0.3073 -0.0210  0.5345
 6809TIP3   OH242061   0.131   4.853   7.314  0.1121  0.2247  0.0843
 6809TIP3    H142062   0.067   4.912   7.353  0.8229  0.5908  0.7199
 6809TIP3    H242063   0.204   4.910   7.289  0.2789 -0.2144 -0.4362
 6810TIP3   OH242064   6.545   6.426   0.391  0.9294 -0.0949  0.4051
 6810TIP3    H142065   6.603   6.416   0.467 -0.9651 -1.0146  1.8109
 6810TIP3    H242066   6.470   6.475   0.425 -0.7846 -2.0466 -0.3612
 6811TIP3   OH242067   6.768   3.928   7.220  0.1650 -0.1508  0.2306
 6811TIP3    H142068   6.811   3.875   7.153 -0.0726  0.0439 -0.0820
 6811TIP3    H242069   6.741   4.007   7.174  0.8995  0.4382  0.7923
 6812TIP3   OH242070   0.805   5.376   7.510 -0.0514  0.1847  0.6003
 6812TIP3    H142071   0.777   5.407   7.597 -1.6058  1.8738 -0.4259
 6812TIP3    H242072   0.887   5.330   7.527 -0.6930 -0.2306  3.0626
 6813TIP3   OH242073   1.125   1.457   2.215  0.1140  0.6415  0.2505
 6813TIP3    H142074   1.184   1.482   2.286  1.4129  2.5800 -1.3980
 6813TIP3    H242075   1.175   1.474   2.135 -1.2733 -1.4961 -1.1732
 6814TIP3   OH242076   3.868   5.444   2.184  0.1570  0.2824  0.3256
 6814TIP3    H142077   3.778   5.479   2.186  1.2035  3.2266  0.5470
 6814TIP3    H242078   3.912   5.489   2.257  1.6216 -1.7841  0.7890
 6815TIP3   OH242079   0.023   1.716   0.023  0.3238 -0.1815  0.1620
 6815TIP3    H142080   0.062   1.715   0.110 -0.4769 -0.3164  0.5248
 6815TIP3    H242081   0.062   1.793  -0.019 -0.9866  1.2658  1.4472
 6816TIP3   OH242082   5.582   4.754   0.066  0.5309 -0.0097 -0.1467
 6816TIP3    H142083   5.633   4.674   0.080 -0.9909 -1.1705 -0.8730
 6816TIP3    H242084   5.628   4.821   0.116  2.2377 -1.1802 -0.0564
 6817TIP3   OH242085   3.324   2.171   2.433 -0.2066 -0.4950 -0.6325
 6817TIP3    H142086   3.295   2.100   2.375  2.4835 -1.8754 -0.4209
 6817TIP3    H242087   3.344   2.244   2.374 -0.3236 -0.8535 -1.1184
 6818TIP3   OH242088   4.976   0.286   0.343  0.4623 -0.3339 -0.1594
 6818TIP3    H142089   4.890   0.253   0.370  0.4670  0.2229  0.5665
 6818TIP3    H242090   4.968   0.299   0.249 -1.1005  2.0977  0.2210
 6819TIP3   OH242091   1.476   1.910   2.427  0.5659  0.0070  0.0854
 6819TIP3    H142092   1.553   1.854   2.413  0.6308  0.3840 -1.2394
 6819TIP3    H242093   1.513   1.997   2.441  0.4784 -0.2786  2.4502
 6820TIP3   OH242094   0.354   2.006   0.161 -0.1008  0.1149 -0.3680
 6820TIP3    H142095   0.388   1.980   0.247 -0.6937  0.4534 -0.0215
 6820TIP3    H242096   0.431   2.040   0.115  0.2431 -0.1513 -0.0045
 6821TIP3   OH242097   5.154   1.674   7.278  0.2737  0.3168  0.0092
 6821TIP3    H142098   5.234   1.667   7.226  0.5759 -1.7242  0.6917
 6821TIP3    H242099   5.090   1.713   7.218  1.1710 -0.0770 -1.2374
 6822TIP3   OH242100   5.424   6.172   1.727 -0.7142 -0.6618  0.1912
 6822TIP3    H142101   5.338   6.149   1.761 -0.0548 -0.9592  1.7462
 6822TIP3    H242102   5.420   6.266   1.712 -1.6198 -0.8271 -0.7647
 6823TIP3   OH242103   3.851   5.964   0.336  0.0670 -0.0122  0.4734
 6823TIP3    H142104   3.764   5.983   0.373 -0.3989 -1.2925  0.0723
 6823TIP3    H242105   3.890   5.903   0.398  0.1606 -0.4532 -0.0190
 6824TIP3   OH242106   3.533   0.114   0.765 -0.2568 -0.6962 -0.4274
 6824TIP3    H142107   3.460   0.140   0.709 -0.7513  0.3700  0.6759
 6824TIP3    H242108   3.564   0.195   0.804 -0.0428 -1.4142  0.9728
 6825TIP3   OH242109   1.622   1.233   1.749 -0.7923  0.5119  0.0105
 6825TIP3    H142110   1.702   1.268   1.709  0.8053 -0.7141  1.8920
 6825TIP3    H242111   1.572   1.310   1.774  0.3663  1.3579 -0.1815
 6826TIP3   OH242112   1.784   4.753   0.395 -0.2718  0.4679  0.0890
 6826TIP3    H142113   1.799   4.840   0.432  0.8160  0.3131  0.0342
 6826TIP3    H242114   1.859   4.737   0.339 -0.5366 -0.4512 -0.0210
 6827TIP3   OH242115   1.415   5.367   0.979  0.1977 -0.0660 -0.4627
 6827TIP3    H142116   1.341   5.371   1.039  1.2675 -0.8909  0.9662
 6827TIP3    H242117   1.384   5.410   0.899 -1.3477  0.8119  0.5762
 6828TIP3   OH242118   4.285   6.200   2.502 -0.3865  0.3327 -0.4742
 6828TIP3    H142119   4.209   6.239   2.458 -0.9917 -0.1386  0.1389
 6828TIP3    H242120   4.276   6.227   2.593  1.5782  2.4154 -0.8154
 6829TIP3   OH242121   0.271   0.996   0.063 -0.3332 -0.6934 -0.0809
 6829TIP3    H142122   0.263   0.936  -0.012 -1.1760  1.2898 -1.6887
 6829TIP3    H242123   0.183   0.998   0.101  0.4474 -2.9231  2.0791
 6830TIP3   OH242124   2.347   1.250   2.310  0.4747 -0.0394  0.2816
 6830TIP3    H142125   2.436   1.271   2.279  0.6818  0.5773  1.2598
 6830TIP3    H242126   2.326   1.168   2.266  2.0636 -0.8983  1.0355
 6831TIP3   OH242127   4.250   2.081   0.271  0.3678 -0.5423  0.0135
 6831TIP3    H142128   4.340   2.088   0.304 -0.6607  2.0383  2.7938
 6831TIP3    H242129   4.195   2.098   0.348 -2.5499 -1.8749 -1.6050
 6832TIP3   OH242130   0.132   3.831   1.712  0.2020 -0.5715 -0.0671
 6832TIP3    H142131   0.068   3.886   1.756 -0.4751 -0.7943 -0.7437
 6832TIP3    H242132   0.154   3.762   1.775  1.0363  0.4262  0.7783
 6833TIP3   OH242133   5.948   5.325   1.501 -0.1417 -0.4758  0.2848
 6833TIP3    H142134   5.947   5.272   1.421 -2.4187  0.8123 -0.6440
 6833TIP3    H242135   5.872   5.384   1.492  1.9876  2.7149  1.3770
 6834TIP3   OH242136   3.358   3.373   2.101 -0.2024 -0.5296  0.0045
 6834TIP3    H142137   3.420   3.304   2.079  0.9164  0.5467 -0.3055
 6834TIP3    H242138   3.299   3.376   2.026 -1.8511 -2.7755  1.0546
 6835TIP3   OH242139   2.360   6.526   0.391 -0.6911 -0.5475  0.0137
 6835TIP3    H142140   2.318   6.607   0.423 -1.4137 -1.4467  1.4521
 6835TIP3    H242141   2.453   6.550   0.383 -1.1924  1.0479 -1.7706
 6836TIP3   OH242142   0.621   4.416   8.357 -0.4151 -0.0869  0.3695
 6836TIP3    H142143   0.689   4.349   8.364 -0.5454 -0.1551  1.0758
 6836TIP3    H242144   0.567   4.403   8.435 -1.1994  0.0106 -0.1521
 6837TIP3   OH242145   1.804   1.740   1.031  0.5995 -0.1852 -0.1330
 6837TIP3    H142146   1.729   1.689   0.999  0.4042 -0.0245  0.0639
 6837TIP3    H242147   1.765   1.821   1.065  0.9486  0.2851 -0.8249
 6838TIP3   OH242148   1.171   5.214   2.335  0.0533  0.4066  0.2572
 6838TIP3    H142149   1.246   5.196   2.392  1.8034  0.2753 -1.9607
 6838TIP3    H242150   1.094   5.191   2.388  1.5768  0.1377  2.4621
 6839TIP3   OH242151   6.135   6.416   1.115  0.5796 -0.0721 -0.3122
 6839TIP3    H142152   6.123   6.480   1.186  0.1947 -0.3808 -0.0952
 6839TIP3    H242153   6.097   6.335   1.149 -1.0908  0.1686 -1.4604
 6840TIP3   OH242154   2.356   0.820   8.188 -0.8153 -0.0344  0.0590
 6840TIP3    H142155   2.444   0.854   8.204 -1.5765  1.0973  2.2210
 6840TIP3    H242156   2.355   0.734   8.231 -0.3127 -0.8243 -1.4185
 6841TIP3   OH242157   3.029   4.070   2.005  0.3647  0.3325 -0.2925
 6841TIP3    H142158   3.077   4.094   1.926  0.6431  0.7849  0.0056
 6841TIP3    H242159   3.025   4.151   2.056  1.3885 -0.2470  0.7726
 6842TIP3   OH242160   3.481   3.518   0.890  0.7661  0.2119  0.0716
 6842TIP3    H142161   3.521   3.550   0.970  0.6728  2.4515 -0.6878
 6842TIP3    H242162   3.403   3.574   0.879  0.6840 -0.1577 -1.4560
 6843TIP3   OH242163   4.839   0.834   2.371  0.1895  0.2261  0.1265
 6843TIP3    H142164   4.801   0.746   2.375  0.4732 -0.0197 -1.6175
 6843TIP3    H242165   4.928   0.823   2.402 -0.3364  0.2871  1.7144
 6844TIP3   OH242166   4.686   5.517   0.952  0.3591  0.2858 -0.1865
 6844TIP3    H142167   4.599   5.522   0.993  0.1245 -3.2631  0.0245
 6844TIP3    H242168   4.684   5.585   0.884 -1.4868  2.1693  1.5857
 6845TIP3   OH242169   2.672   0.139   0.432  0.6513 -0.3088  0.1998
 6845TIP3    H142170   2.705   0.144   0.521  3.7103 -0.5261 -0.7962
 6845TIP3    H242171   2.681   0.227   0.397  2.6300 -0.8470 -0.8136
 6846TIP3   OH242172   6.366   3.345   1.267  0.7164 -0.1570 -0.1223
 6846TIP3    H142173   6.413   3.410   1.319 -1.4373 -0.4397  2.3826
 6846TIP3    H242174   6.389   3.261   1.307 -0.1502 -0.4870 -0.2937
 6847TIP3   OH242175   2.324   6.248   0.941  0.0603  0.4024  0.3533
 6847TIP3    H142176   2.248   6.204   0.979  0.4575 -0.6839 -0.0800
 6847TIP3    H242177   2.288   6.328   0.902 -0.8211  0.0466  0.4061
 6848TIP3   OH242178   0.843   4.371   1.675  0.3029 -0.1104  0.1178
 6848TIP3    H142179   0.881   4.359   1.762  1.4889  0.2082 -0.3408
 6848TIP3    H242180   0.790   4.292   1.661  1.0873 -0.7445  0.6337
 6849TIP3   OH242181   4.993   0.132   0.637 -0.4582 -0.4667 -0.0126
 6849TIP3    H142182   4.987   0.055   0.580  1.2490  1.3909 -2.9704
 6849TIP3    H242183   4.933   0.195   0.597  0.9436  0.9646  0.0626
 6850TIP3   OH242184   6.502   4.590   8.019 -0.2978 -0.3776 -0.3453
 6850TIP3    H142185   6.582   4.633   8.048 -0.9747  1.0357 -0.5011
 6850TIP3    H242186   6.442   4.598   8.094 -0.0297 -2.2216  0.1081
 6851TIP3   OH242187   1.281   6.778   0.154  0.5913  0.0750  0.2206
 6851TIP3    H142188   1.201   6.725   0.159  0.8189 -0.3169 -0.1632
 6851TIP3    H242189   1.314   6.762   0.066  0.4173  1.2358 -0.0607
 6852TIP3   OH242190   6.745   2.067   2.107  0.4070 -0.4314  0.7409
 6852TIP3    H142191   6.756   2.036   2.017 -0.6089  0.4589  0.2878
 6852TIP3    H242192   6.711   2.156   2.098  1.4231  0.1314  2.0079
 6853TIP3   OH242193   1.927   0.273   7.598  0.0180 -0.4618  0.4104
 6853TIP3    H142194   1.891   0.336   7.660 -2.2167 -0.0765 -1.1382
 6853TIP3    H242195   1.945   0.324   7.520 -0.8076 -1.5121 -0.5086
 6854TIP3   OH242196   5.801   0.814   7.128 -0.0433  0.0379  0.6695
 6854TIP3    H142197   5.778   0.837   7.218  0.7279 -1.2154  1.2186
 6854TIP3    H242198   5.879   0.758   7.137  1.0076  1.1620 -0.8666
 6855TIP3   OH242199   2.421   6.485   2.453  0.4093 -0.0995 -0.0588
 6855TIP3    H142200   2.345   6.439   2.489  0.3794  0.3337  0.4504
 6855TIP3    H242201   2.395   6.578   2.455  0.6657 -0.0115 -0.5833
 6856TIP3   OH242202   4.568   2.754   2.369 -0.1567  0.3729  0.2465
 6856TIP3    H142203   4.640   2.815   2.350  0.2937 -0.1521  0.2578
 6856TIP3    H242204   4.606   2.667   2.358 -0.4094  0.0590  1.6123
 6857TIP3   OH242205   3.741   3.708   0.786 -0.5977  0.2483  0.2140
 6857TIP3    H142206   3.710   3.798   0.771  1.1562  0.9112  0.2488
 6857TIP3    H242207   3.836   3.714   0.771  0.1103 -0.8471  3.5807
 6858TIP3   OH242208   3.620   1.838   0.071  0.0208 -0.2164  0.3856
 6858TIP3    H142209   3.683   1.814   0.003  0.2943  2.6872 -0.5336
 6858TIP3    H242210   3.641   1.781   0.145  1.6424 -1.4610 -0.9563
 6859TIP3   OH242211   5.040   1.255   7.280 -0.1973  0.1886  0.8138
 6859TIP3    H142212   4.959   1.203   7.276  0.8584 -1.4483 -0.8563
 6859TIP3    H242213   5.010   1.345   7.264 -1.5243 -0.6749 -2.4319
 6860TIP3   OH242214   4.792   6.480   7.522  0.0242 -0.0205 -0.1272
 6860TIP3    H142215   4.861   6.418   7.549 -0.4056 -0.7127 -0.5886
 6860TIP3    H242216   4.838   6.564   7.513  0.6206 -0.2674  0.4939
 6861TIP3   OH242217   6.560   0.210   0.323 -0.1222  0.4567  0.0659
 6861TIP3    H142218   6.468   0.233   0.339  0.1356  1.0773  0.7299
 6861TIP3    H242219   6.562   0.182   0.232 -0.9367  0.6275 -0.0170
 6862TIP3   OH242220   6.004   2.551   0.343 -0.0911 -0.0475  0.0304
 6862TIP3    H142221   6.038   2.623   0.290 -2.4299  1.5509  0.5299
 6862TIP3    H242222   6.061   2.549   0.420 -0.4354  1.8572  0.3827
 6863TIP3   OH242223   1.862   0.999   8.092 -0.5154 -0.3935  0.6491
 6863TIP3    H142224   1.878   0.929   8.155  0.8348 -2.6385 -2.0104
 6863TIP3    H242225   1.943   1.050   8.092 -1.0932  0.5743  1.7815
 6864TIP3   OH242226   0.409   3.354   2.018 -0.0696  0.4204  0.0495
 6864TIP3    H142227   0.360   3.284   2.060  0.4207  0.3415  0.5106
 6864TIP3    H242228   0.345   3.400   1.964 -0.0825 -1.3343 -1.5005
 6865TIP3   OH242229   1.191   6.342   8.088  0.3640 -0.2231 -0.3103
 6865TIP3    H142230   1.099   6.348   8.116  0.4793  1.4627 -0.2233
 6865TIP3    H242231   1.192   6.379   8.000  1.1255  0.7207  0.0854
 6866TIP3   OH242232   5.427   3.982   2.246  0.5103  0.6986  0.5045
 6866TIP3    H142233   5.364   3.912   2.227  2.3997 -0.8683 -0.2461
 6866TIP3    H242234   5.434   3.981   2.342  0.3199  0.0523  0.5192
 6867TIP3   OH242235   6.336   0.716   0.700  0.2045 -1.1265  0.1471
 6867TIP3    H142236   6.281   0.705   0.778 -2.0097  0.9817 -0.9826
 6867TIP3    H242237   6.317   0.804   0.669  1.1540 -1.7928 -2.6601
 6868TIP3   OH242238   3.127   5.275   0.277 -0.5837 -0.2543 -0.4279
 6868TIP3    H142239   3.195   5.286   0.210 -0.7661 -0.7658 -0.6951
 6868TIP3    H242240   3.176   5.268   0.359 -0.2163 -2.1245 -0.7709
 6869TIP3   OH242241   4.592   1.536   7.998  0.2268 -0.0371  0.5589
 6869TIP3    H142242   4.520   1.473   8.003 -0.2747  0.3121 -1.4583
 6869TIP3    H242243   4.659   1.500   8.057 -0.5250 -1.8127  0.3926
 6870TIP3   OH242244   3.201   6.664   7.361  0.0039 -0.1523  0.4454
 6870TIP3    H142245   3.291   6.690   7.377 -0.1148 -0.1009  1.0503
 6870TIP3    H242246   3.175   6.713   7.282  0.7967 -0.8980 -0.3036
 6871TIP3   OH242247   3.000   5.401   7.169  0.4503  0.4872  0.2898
 6871TIP3    H142248   3.080   5.453   7.175 -0.8108  2.6910 -0.8363
 6871TIP3    H242249   2.979   5.399   7.076 -0.8208 -0.0156  0.5613
 6872TIP3   OH242250   6.882   2.325   7.375 -0.2637 -0.0681  0.3777
 6872TIP3    H142251   6.848   2.386   7.310  1.6714 -0.0782 -0.7503
 6872TIP3    H242252   6.868   2.368   7.459 -2.1298  0.2992 -0.0805
 6873TIP3   OH242253   0.145   5.256   7.777 -0.1492  0.4541  0.1653
 6873TIP3    H142254   0.088   5.191   7.736 -0.2134  1.3999 -1.3345
 6873TIP3    H242255   0.226   5.209   7.796 -1.1394 -0.7289  1.6892
 6874TIP3   OH242256   2.014   5.464   7.017 -0.2704  0.3818 -0.3917
 6874TIP3    H142257   2.091   5.426   7.059 -0.9372 -1.0608 -0.4205
 6874TIP3    H242258   2.025   5.558   7.027  0.9703  0.1558  0.5301
 6875TIP3   OH242259   1.027   2.850   7.718 -0.4651  0.2244 -0.2192
 6875TIP3    H142260   1.118   2.875   7.702  0.2002 -1.7488  0.1706
 6875TIP3    H242261   0.996   2.820   7.633 -0.2909 -0.4006 -0.0683
 6876TIP3   OH242262   1.431   1.527   1.581 -0.2825  0.4409  0.2683
 6876TIP3    H142263   1.460   1.512   1.670 -0.2386  0.3566  0.2396
 6876TIP3    H242264   1.504   1.573   1.539 -0.6098  1.1769  0.4935
 6877TIP3   OH242265   6.715   1.727   0.093 -0.7421 -0.7544  0.3276
 6877TIP3    H142266   6.793   1.715   0.040 -1.5306  0.2723 -1.1259
 6877TIP3    H242267   6.748   1.738   0.182  0.7007 -1.1396 -0.1368
 6878TIP3   OH242268   6.258   1.789   7.706  0.2280 -0.1562 -0.2413
 6878TIP3    H142269   6.348   1.759   7.715  0.6088  0.9149 -0.4016
 6878TIP3    H242270   6.215   1.720   7.655  1.1830 -0.2535 -0.9413
 6879TIP3   OH242271   1.231   6.117   0.276  0.1925  0.4277 -0.0891
 6879TIP3    H142272   1.144   6.157   0.276 -0.1454 -0.2700 -0.4519
 6879TIP3    H242273   1.268   6.141   0.191  0.0268  0.0684 -0.2680
 6880TIP3   OH242274   4.333   3.525   6.990 -0.0651 -0.9106 -0.8077
 6880TIP3    H142275   4.424   3.513   6.963  1.5409  0.6548  3.1257
 6880TIP3    H242276   4.306   3.440   7.026  0.6693 -0.8307 -0.0354
 6881TIP3   OH242277   3.890   5.955   8.334  0.0385  0.2421  0.0307
 6881TIP3    H142278   3.945   6.031   8.314 -0.2872  0.3977 -0.2934
 6881TIP3    H242279   3.889   5.951   8.430  0.0783  0.6357  0.0511
 6882TIP3   OH242280   2.789   2.944   0.391 -0.3117  0.3040  0.4661
 6882TIP3    H142281   2.877   2.975   0.410 -0.2754  1.3433 -1.1277
 6882TIP3    H242282   2.733   2.990   0.454 -0.0105  2.0700 -0.4915
 6883TIP3   OH242283   4.242   5.789   7.285  0.2959 -0.0986 -0.0213
 6883TIP3    H142284   4.243   5.872   7.236  3.4637  0.5634  0.9219
 6883TIP3    H242285   4.176   5.803   7.354 -0.3389  1.0136 -0.8136
 6884TIP3   OH242286   6.127   4.679   0.366 -0.5783  0.1396  0.0042
 6884TIP3    H142287   6.162   4.596   0.332  0.8891  0.5906  0.3748
 6884TIP3    H242288   6.188   4.705   0.434 -1.6802  0.9480  0.7166
 6885TIP3   OH242289   3.720   3.898   1.687 -0.1842 -0.2942 -0.3981
 6885TIP3    H142290   3.653   3.966   1.689  1.3564  1.2866  0.5386
 6885TIP3    H242291   3.748   3.889   1.778  1.2475 -0.4931 -0.8319
 6886TIP3   OH242292   0.788   0.207   1.873 -0.2021  0.0223 -0.1242
 6886TIP3    H142293   0.848   0.135   1.891 -0.8890 -1.0550 -1.8656
 6886TIP3    H242294   0.706   0.180   1.915 -0.5012 -0.2939 -0.9023
 6887TIP3   OH242295   2.317   1.704   0.105  0.6189  0.2468 -0.4661
 6887TIP3    H142296   2.228   1.673   0.119  0.8378 -0.4088 -0.5010
 6887TIP3    H242297   2.345   1.734   0.192  0.5206  0.0369 -0.3608
 6888TIP3   OH242298   0.401   3.590   7.175  0.2173  0.3499 -0.5079
 6888TIP3    H142299   0.451   3.658   7.129  0.3477 -0.0604 -0.9801
 6888TIP3    H242300   0.317   3.630   7.194  0.8339  1.1829  0.6217
 6889TIP3   OH242301   2.370   0.917   7.557  0.0388 -0.4111  1.2594
 6889TIP3    H142302   2.293   0.861   7.556  0.9176 -1.6689  1.3257
 6889TIP3    H242303   2.357   0.976   7.631 -0.7357 -0.7637  1.4043
 6890TIP3   OH242304   6.200   4.887   8.290  0.2330  0.5917 -0.0933
 6890TIP3    H142305   6.106   4.900   8.275  0.2159  0.1101 -0.4326
 6890TIP3    H242306   6.207   4.870   8.384 -0.1856 -0.7171 -0.2858
 6891TIP3   OH242307   6.519   6.440   0.004 -0.0699  0.0119 -1.0858
 6891TIP3    H142308   6.572   6.486   0.069 -0.0892 -0.0824 -1.0026
 6891TIP3    H242309   6.458   6.387   0.056  0.5962 -0.8502 -1.1703
 6892TIP3   OH242310   6.368   1.612   7.927 -0.0590 -0.9479 -0.5512
 6892TIP3    H142311   6.420   1.578   7.999 -0.9469  0.0413  0.5974
 6892TIP3    H242312   6.419   1.686   7.894  0.1037 -1.0850 -0.6106
 6893TIP3   OH242313   5.860   6.535   7.262  0.0801 -0.2194 -0.6069
 6893TIP3    H142314   5.778   6.548   7.309  0.4855  1.0472 -0.2009
 6893TIP3    H242315   5.850   6.451   7.218 -1.5848  0.1014 -0.8891
 6894TIP3   OH242316   6.827   2.001   3.207  0.3084 -0.0586  0.0637
 6894TIP3    H142317   6.875   1.919   3.208  0.0081 -0.2465  2.0694
 6894TIP3    H242318   6.738   1.976   3.181  0.7899  0.0586 -1.9321
 6895TIP3   OH242319   6.499   0.620   7.060  0.1983 -0.5322 -0.0541
 6895TIP3    H142320   6.562   0.559   7.020  1.3998  0.6024  0.0410
 6895TIP3    H242321   6.430   0.629   6.995  0.5935 -1.0725 -0.5629
 6896TIP3   OH242322   6.081   2.906   0.487 -0.2263 -0.2067  0.1341
 6896TIP3    H142323   6.091   2.987   0.538  0.5555 -0.0269 -0.2795
 6896TIP3    H242324   6.082   2.936   0.396 -1.2316 -0.5598  0.0024
 6897TIP3   OH242325   5.858   4.720   1.545  0.0339 -0.1178  0.0119
 6897TIP3    H142326   5.854   4.814   1.529  0.0160  0.1931  1.6672
 6897TIP3    H242327   5.801   4.706   1.621 -0.3543 -1.5506 -0.5005
 6898TIP3   OH242328   6.393   6.282   6.561 -0.1993  0.4632 -0.5896
 6898TIP3    H142329   6.445   6.358   6.535  0.1681 -0.2232 -2.0006
 6898TIP3    H242330   6.416   6.266   6.652 -0.6037  2.2802 -0.1319
 6899TIP3   OH242331   2.848   2.431   7.917  0.1066 -0.0377  0.3083
 6899TIP3    H142332   2.858   2.350   7.867 -0.9219  0.0357 -0.0334
 6899TIP3    H242333   2.754   2.449   7.915 -0.0555 -0.2598  2.6085
 6900TIP3   OH242334   6.114   0.930   7.907 -0.7170 -0.1147  0.2132
 6900TIP3    H142335   6.150   0.921   7.819 -1.1416  1.3237 -0.1343
 6900TIP3    H242336   6.020   0.942   7.893 -0.4580  3.3141  0.5766
 6901TIP3   OH242337   3.356   4.009   8.295 -0.1918  0.7990 -0.4998
 6901TIP3    H142338   3.403   3.944   8.243 -0.7653 -0.9525  1.0522
 6901TIP3    H242339   3.397   4.092   8.272  1.2054 -0.2021 -1.8740
 6902TIP3   OH242340   2.982   3.157   0.468  0.6672 -1.0279 -0.4867
 6902TIP3    H142341   2.922   3.231   0.476  1.0216 -0.6912 -0.9345
 6902TIP3    H242342   3.052   3.176   0.532 -0.4187 -2.1317  1.0908
 6903TIP3   OH242343   2.573   0.958   1.083 -0.0048 -0.2922 -0.9159
 6903TIP3    H142344   2.485   0.920   1.086  0.1987 -0.7630 -0.7986
 6903TIP3    H242345   2.620   0.914   1.154  0.0200  0.7404 -0.2797
 6904TIP3   OH242346   0.343   4.640   0.977 -0.0301 -0.1510  0.0781
 6904TIP3    H142347   0.254   4.657   1.009 -0.6553 -0.7664 -1.2604
 6904TIP3    H242348   0.391   4.612   1.055 -1.6799 -2.2939  0.4269
 6905TIP3   OH242349   1.118   2.335   2.026  0.0303  0.1849  0.4747
 6905TIP3    H142350   1.072   2.253   2.007  1.0400 -0.3072  0.1177
 6905TIP3    H242351   1.120   2.340   2.122  0.3190 -0.4113  0.4991
 6906TIP3   OH242352   6.628   0.827   6.598 -0.1600  0.0213 -0.4924
 6906TIP3    H142353   6.674   0.771   6.661 -1.9993 -0.4908  0.4561
 6906TIP3    H242354   6.598   0.766   6.530  3.4759  0.7945 -3.0662
 6907TIP3   OH242355   4.550   0.004   7.966 -0.0234  0.2724 -0.5333
 6907TIP3    H142356   4.577  -0.016   8.056  0.7402 -0.6201 -0.9507
 6907TIP3    H242357   4.545  -0.081   7.923  1.0466  0.7860 -1.7312
 6908TIP3   OH242358   1.481   2.209   7.872  0.1682  0.2901  0.1101
 6908TIP3    H142359   1.501   2.246   7.958  1.6913 -0.4361  0.1147
 6908TIP3    H242360   1.504   2.278   7.810 -0.9425  0.8193  0.2810
 6909TIP3   OH242361   2.560   5.850   0.719 -0.1684  0.1661  0.0982
 6909TIP3    H142362   2.516   5.766   0.732  0.1140  0.1952  1.3443
 6909TIP3    H242363   2.500   5.914   0.755 -0.1720  0.4605 -0.4217
 6910TIP3   OH242364   5.760   2.114   1.918 -1.0706  0.0937  0.2473
 6910TIP3    H142365   5.728   2.038   1.870  0.5104 -0.1166 -0.5458
 6910TIP3    H242366   5.686   2.141   1.973 -1.5408 -2.2478  0.8671
 6911TIP3   OH242367   0.157   1.377   8.099 -0.3894  0.3460 -0.5211
 6911TIP3    H142368   0.158   1.441   8.028 -0.1232  0.5995 -0.2879
 6911TIP3    H242369   0.185   1.426   8.176  0.9538 -0.3124 -0.5583
 6912TIP3   OH242370   0.575   3.934   0.275  0.0566 -0.4406  0.7115
 6912TIP3    H142371   0.564   4.029   0.272 -1.9451 -0.6178 -2.1611
 6912TIP3    H242372   0.642   3.915   0.210 -0.1553 -1.0363  0.6563
 6913TIP3   OH242373   3.656   5.811   8.471 -0.1692 -0.2020  0.4013
 6913TIP3    H142374   3.587   5.851   8.418 -1.2225 -0.0726  1.8161
 6913TIP3    H242375   3.727   5.876   8.471 -0.6735  0.3602  0.2222
 6914TIP3   OH242376   5.410   0.980   1.378 -0.1605 -0.3856 -0.0819
 6914TIP3    H142377   5.497   1.018   1.366  0.4430 -1.5675  0.3469
 6914TIP3    H242378   5.425   0.885   1.372 -1.4423 -0.6003 -0.1276
 6915TIP3   OH242379   1.607   0.524   7.024  0.3064 -0.0796  0.5260
 6915TIP3    H142380   1.516   0.551   7.036  0.2382  0.2145 -0.5517
 6915TIP3    H242381   1.652   0.602   6.995  0.4566 -0.6956 -0.9861
 6916TIP3   OH242382   2.777   1.835   3.082 -0.0034 -0.0931  0.1164
 6916TIP3    H142383   2.847   1.899   3.097 -0.6631  1.0427 -1.3273
 6916TIP3    H242384   2.734   1.825   3.167  1.4347 -0.2593  0.8560
 6917TIP3   OH242385   4.586   1.213   1.697  0.2385  0.2719  0.1436
 6917TIP3    H142386   4.614   1.158   1.624  0.0131 -0.8369  0.8502
 6917TIP3    H242387   4.539   1.152   1.755 -0.0869  1.2419  0.9252
 6918TIP3   OH242388   4.084   5.259   1.471  0.2532  0.0006  0.3824
 6918TIP3    H142389   4.140   5.217   1.536  0.2290  1.3720  1.3294
 6918TIP3    H242390   4.025   5.189   1.442  1.7196 -1.1941  0.1521
 6919TIP3   OH242391   5.225   6.083   1.017 -0.3888 -0.7087 -0.6962
 6919TIP3    H142392   5.193   6.159   1.065  2.7731 -0.7621  1.7782
 6919TIP3    H242393   5.150   6.023   1.015 -1.5556  0.5493  1.5928
 6920TIP3   OH242394   3.541   5.876   0.874 -0.1613 -0.4182  0.7420
 6920TIP3    H142395   3.512   5.864   0.784  1.1279  1.4741  0.0193
 6920TIP3    H242396   3.483   5.942   0.910 -0.0047 -0.3937  0.9530
 6921TIP3   OH242397   1.794   6.060   0.819  0.5975  0.4023  0.0928
 6921TIP3    H142398   1.724   6.122   0.799  1.4908  0.9080 -1.6977
 6921TIP3    H242399   1.780   6.036   0.911 -2.0510  0.2573 -0.2962
 6922TIP3   OH242400   3.251   4.679   1.787 -0.4063  0.4941  0.2465
 6922TIP3    H142401   3.170   4.633   1.813  0.5803 -1.9343 -0.6511
 6922TIP3    H242402   3.315   4.653   1.853 -0.5828  3.4986  1.7453
 6923TIP3   OH242403   1.166   1.056   0.842 -0.2312  0.7999  0.0778
 6923TIP3    H142404   1.258   1.073   0.822  0.1567 -0.5844  0.6293
 6923TIP3    H242405   1.123   1.057   0.757  0.4725  0.4417 -0.2931
 6924TIP3   OH242406   3.789   3.505   2.322  0.8388 -0.6973  0.3883
 6924TIP3    H142407   3.876   3.469   2.308  0.6880 -1.3971  1.1741
 6924TIP3    H242408   3.741   3.436   2.369  0.5366  0.4892  1.9073
 6925TIP3   OH242409   1.547   2.417   8.339  0.7582 -0.4729  0.0360
 6925TIP3    H142410   1.636   2.404   8.372  1.3748 -1.1207 -1.7793
 6925TIP3    H242411   1.556   2.484   8.271 -0.0481 -0.8559 -0.4667
 6926TIP3   OH242412   2.634   2.782   8.506  0.2498 -0.1151  0.1118
 6926TIP3    H142413   2.662   2.733   8.584 -0.1991 -0.0282  0.3317
 6926TIP3    H242414   2.661   2.728   8.432  1.6065  0.2822  0.2949
 6927TIP3   OH242415   6.950   5.475   7.490  0.3561  0.6818  0.1860
 6927TIP3    H142416   6.986   5.552   7.446  2.4809 -2.0131 -3.3714
 6927TIP3    H242417   7.026   5.425   7.518 -0.8652 -1.1862  0.3497
 6928TIP3   OH242418   5.772   3.327   1.089  0.3103  0.1414 -0.3074
 6928TIP3    H142419   5.710   3.353   1.021  0.3692 -1.1230 -0.8653
 6928TIP3    H242420   5.775   3.231   1.084  1.5328  0.1181  0.3916
 6929TIP3   OH242421   4.891   1.543   1.130 -0.0656  0.7268  0.3655
 6929TIP3    H142422   4.860   1.455   1.152  1.0284  0.2515  0.0329
 6929TIP3    H242423   4.922   1.579   1.213  0.9984  0.1767  0.2167
 6930TIP3   OH242424   5.173   6.293   2.287  0.3545  0.4510  0.0458
 6930TIP3    H142425   5.227   6.362   2.248 -0.3991  0.6109 -0.7350
 6930TIP3    H242426   5.180   6.308   2.381  2.1964  0.0652  0.0216
 6931TIP3   OH242427   0.251   6.806   0.693 -0.2166  0.2581 -0.2465
 6931TIP3    H142428   0.293   6.826   0.777  1.0989  1.4850 -1.1347
 6931TIP3    H242429   0.158   6.821   0.709 -0.0583 -0.0243  1.1127
 6932TIP3   OH242430   5.659   3.426   8.385 -0.7779 -0.9216 -0.0399
 6932TIP3    H142431   5.647   3.482   8.461  0.5645  0.1451 -0.5794
 6932TIP3    H242432   5.621   3.475   8.312 -0.2140 -1.0165 -0.4021
 6933TIP3   OH242433   3.920   5.937   0.079  0.9784 -0.6483 -0.5696
 6933TIP3    H142434   4.007   5.899   0.091  0.7820 -1.3193 -1.1556
 6933TIP3    H242435   3.880   5.933   0.166  1.3259 -0.8542 -0.4160
 6934TIP3   OH242436   1.698   2.775   2.147 -0.2203  0.0193  0.2696
 6934TIP3    H142437   1.748   2.725   2.211 -0.4670 -0.6093 -0.0251
 6934TIP3    H242438   1.665   2.850   2.197 -0.7657 -0.6838  0.9896
 6935TIP3   OH242439   1.650   2.213   2.779 -0.7956 -0.5741  0.1491
 6935TIP3    H142440   1.661   2.299   2.821 -3.1073 -0.7827  1.3583
 6935TIP3    H242441   1.596   2.230   2.702  2.2145 -0.4256 -2.1399
 6936TIP3   OH242442   3.136   5.305   2.259  0.0502  0.4219 -1.1398
 6936TIP3    H142443   3.159   5.393   2.290  0.8655 -0.6846  1.7623
 6936TIP3    H242444   3.041   5.306   2.252 -0.5637  0.3732  3.6121
 6937TIP3   OH242445   5.048   4.500   0.782 -0.3463  0.2559  0.0473
 6937TIP3    H142446   5.105   4.485   0.707 -1.6571  1.5173 -1.2773
 6937TIP3    H242447   5.088   4.573   0.829 -0.0969  0.1896 -0.0632
 6938TIP3   OH242448   3.665   0.270   2.056 -0.0171 -0.1130  0.4164
 6938TIP3    H142449   3.730   0.244   2.122  0.6714 -1.3072 -0.6884
 6938TIP3    H242450   3.590   0.212   2.072 -0.6001  0.8535  1.3022
 6939TIP3   OH242451   3.808   0.671   1.779  0.1770  0.4460 -0.1039
 6939TIP3    H142452   3.795   0.582   1.747 -0.3899  0.2841  0.5704
 6939TIP3    H242453   3.828   0.722   1.700  0.9988 -0.3611 -0.4319
 6940TIP3   OH242454   3.790   4.745   0.354  0.4065  0.0191 -0.1530
 6940TIP3    H142455   3.776   4.673   0.292 -0.4438  0.1403 -0.1129
 6940TIP3    H242456   3.750   4.715   0.435  0.3558  0.3956 -0.0375
 6941TIP3   OH242457   4.112   1.693   0.127 -0.0824 -0.4099  0.5627
 6941TIP3    H142458   4.073   1.729   0.048  0.4918  0.1249  0.5162
 6941TIP3    H242459   4.163   1.618   0.097 -2.1905 -2.0374  0.7944
 6942TIP3   OH242460   2.473   2.565   2.879  0.0060  0.0682 -0.7248
 6942TIP3    H142461   2.528   2.630   2.834  2.0084 -0.3887  0.8832
 6942TIP3    H242462   2.532   2.492   2.896 -1.6126 -1.2318 -0.4871
 6943TIP3   OH242463   1.598   2.756   1.036  0.0291  0.2838 -0.5390
 6943TIP3    H142464   1.598   2.848   1.062 -0.8552  0.4608 -1.1104
 6943TIP3    H242465   1.689   2.729   1.043  0.5630  1.6254 -1.7415
 6944TIP3   OH242466   0.617   4.210   0.356 -0.5319 -0.1496 -0.0343
 6944TIP3    H142467   0.648   4.261   0.281 -1.7603  1.7160  0.6622
 6944TIP3    H242468   0.626   4.269   0.431 -0.8061 -1.4247  1.0505
 6945TIP3   OH242469   1.473   2.122   2.124 -0.1087 -0.0943 -0.1563
 6945TIP3    H142470   1.426   2.060   2.067  1.1990 -0.7637 -0.5466
 6945TIP3    H242471   1.561   2.085   2.132  0.5669  1.4719  0.0073
 6946TIP3   OH242472   1.158   1.680   7.562 -0.1332 -0.0537  0.2035
 6946TIP3    H142473   1.122   1.754   7.612  0.5639  0.2429  0.2804
 6946TIP3    H242474   1.084   1.644   7.515 -0.5820  0.3780  0.5717
 6947TIP3   OH242475   6.427   3.010   1.652  0.3462  0.0205 -0.3797
 6947TIP3    H142476   6.438   2.996   1.746 -0.8237 -0.2160 -0.2556
 6947TIP3    H242477   6.333   3.026   1.642  0.0850 -2.0498 -1.7623
 6948TIP3   OH242478   4.835   0.659   7.390  0.0184  0.0126 -0.0263
 6948TIP3    H142479   4.909   0.608   7.356  0.8405  0.8235  0.4807
 6948TIP3    H242480   4.780   0.596   7.435  0.2438 -0.6596 -0.6710
 6949TIP3   OH242481   4.200   5.574   0.559  0.0839  0.0199  0.3728
 6949TIP3    H142482   4.224   5.511   0.492  0.4673  0.3215  0.2187
 6949TIP3    H242483   4.105   5.574   0.561  0.0844 -1.0064  0.7949
 6950TIP3   OH242484   1.100   1.486   7.343  1.2177 -0.4321  0.1329
 6950TIP3    H142485   1.031   1.550   7.358  0.7535 -0.9184  0.1255
 6950TIP3    H242486   1.176   1.521   7.390  1.4882  0.9583 -1.2862
 6951TIP3   OH242487   6.608   2.600   1.708 -0.0609  0.2651 -0.4305
 6951TIP3    H142488   6.527   2.650   1.705 -1.1659 -1.4366 -0.3222
 6951TIP3    H242489   6.671   2.659   1.750 -1.3156  1.5060 -0.2159
 6952TIP3   OH242490   1.088   0.670   0.760 -0.6448  0.2200 -0.3924
 6952TIP3    H142491   1.026   0.702   0.694 -1.8150 -0.1769  0.4739
 6952TIP3    H242492   1.088   0.738   0.827  0.3215  0.4879 -0.6563
 6953TIP3   OH242493   1.657   5.933   1.924 -0.0194  0.5024  0.2294
 6953TIP3    H142494   1.613   6.001   1.974  0.2508  0.0494  1.1141
 6953TIP3    H242495   1.723   5.979   1.873  0.0187  0.9280  0.6546
 6954TIP3   OH242496   6.204   5.558   0.641  0.6987  0.0085 -0.3028
 6954TIP3    H142497   6.290   5.544   0.602  0.9907 -2.8900  1.1152
 6954TIP3    H242498   6.214   5.635   0.696  1.5234  1.4362 -2.3565
 6955TIP3   OH242499   6.497   5.413   1.395  0.1009  1.0131  0.2279
 6955TIP3    H142500   6.418   5.376   1.435  1.6840 -2.5787  0.3517
 6955TIP3    H242501   6.563   5.409   1.463  1.2680  0.7320 -0.8891
 6956TIP3   OH242502   5.976   1.905   7.316  0.5936  0.0011 -0.0382
 6956TIP3    H142503   5.948   1.988   7.277 -1.3538 -0.7428 -0.3039
 6956TIP3    H242504   6.063   1.890   7.277  0.9388  1.8194 -0.0806
 6957TIP3   OH242505   1.964   5.505   0.289  0.0021  0.2593  0.5799
 6957TIP3    H142506   1.906   5.580   0.293  0.2413  0.6698 -1.8638
 6957TIP3    H242507   2.051   5.543   0.272 -0.1426 -0.5260 -2.4579
 6958TIP3   OH242508   0.246   2.330   1.388  0.2068 -0.2557  0.2233
 6958TIP3    H142509   0.286   2.259   1.338  0.7697  0.6564 -0.6479
 6958TIP3    H242510   0.155   2.301   1.401 -0.1654 -0.2374 -1.9267
 6959TIP3   OH242511   6.190   3.561   2.247  0.1509 -0.7127  0.1883
 6959TIP3    H142512   6.228   3.486   2.294 -1.2116 -1.3973  0.2438
 6959TIP3    H242513   6.206   3.636   2.305  2.5001 -0.7258 -0.3587
 6960TIP3   OH242514   6.015   1.148   0.093  0.5547  0.0153  0.0837
 6960TIP3    H142515   5.984   1.230   0.054 -0.5919  0.6261  2.1288
 6960TIP3    H242516   5.991   1.154   0.186  1.4397 -2.1698  0.5355
 6961TIP3   OH242517   2.957   3.952   1.538 -0.2925  0.3479 -0.3999
 6961TIP3    H142518   2.894   3.963   1.609 -0.4566 -0.5994 -0.3969
 6961TIP3    H242519   3.022   3.891   1.572  1.1966  2.0467 -0.0389
 6962TIP3   OH242520   0.999   2.665   7.242  0.1131 -0.0056  0.5985
 6962TIP3    H142521   1.044   2.590   7.203 -0.0463  0.5290 -0.6477
 6962TIP3    H242522   0.927   2.684   7.181  0.6103  1.6312  0.4820
 6963TIP3   OH242523   2.510   4.935   1.717  0.2001  0.9935  0.2223
 6963TIP3    H142524   2.506   4.843   1.690 -0.5206  1.3940 -1.1137
 6963TIP3    H242525   2.601   4.959   1.703 -0.2836  1.4310 -2.9209
 6964TIP3   OH242526   5.997   6.376   8.388  0.1895  0.0386  0.5772
 6964TIP3    H142527   5.903   6.382   8.404  0.2955  1.3060  0.8145
 6964TIP3    H242528   6.003   6.339   8.300 -0.5821  1.3042 -0.0426
 6965TIP3   OH242529   6.420   0.580   8.180  0.0218 -0.1317 -0.0711
 6965TIP3    H142530   6.475   0.502   8.184  1.4315  0.8004 -0.6894
 6965TIP3    H242531   6.479   0.653   8.199 -1.1347  0.8587 -0.1277
 6966TIP3   OH242532   0.860   6.660   8.384 -0.1590 -0.0966  0.6327
 6966TIP3    H142533   0.846   6.566   8.373  1.3171 -0.0859 -2.3968
 6966TIP3    H242534   0.935   6.680   8.328 -0.7107  2.9857  0.8135
 6967TIP3   OH242535   6.704   4.469   1.203  0.6178 -0.2413 -0.0261
 6967TIP3    H142536   6.684   4.533   1.271 -1.1169 -1.1621  0.3671
 6967TIP3    H242537   6.698   4.384   1.247 -2.1376 -0.9733 -1.6022
 6968TIP3   OH242538   2.597   4.996   1.232  0.3258  0.0915 -0.3390
 6968TIP3    H142539   2.511   5.032   1.254  0.6782  0.8380 -0.1557
 6968TIP3    H242540   2.635   5.059   1.171  1.3908  0.6185  0.8258
 6969TIP3   OH242541   5.111   3.883   0.903  0.3548  0.0916 -0.4168
 6969TIP3    H142542   5.076   3.844   0.823 -0.4026 -1.7538  0.7354
 6969TIP3    H242543   5.127   3.974   0.881 -2.7814  0.4228 -1.7797
 6970TIP3   OH242544   6.452   2.961   1.166 -0.0448  0.1788 -0.1021
 6970TIP3    H142545   6.395   2.977   1.091  0.1903 -1.3384 -0.6466
 6970TIP3    H242546   6.414   2.885   1.209  2.0686 -1.5437 -1.0822
 6971TIP3   OH242547   5.222   3.530   8.383 -0.5646 -0.6173  0.1337
 6971TIP3    H142548   5.304   3.545   8.429  0.0381  0.2946 -1.1861
 6971TIP3    H242549   5.245   3.469   8.312 -0.5319  1.2132 -1.5000
 6972TIP3   OH242550   2.239   1.900   0.427 -0.2152  0.2811 -0.7218
 6972TIP3    H142551   2.277   1.928   0.344  0.6630  0.0235 -0.4130
 6972TIP3    H242552   2.279   1.958   0.492 -1.5758  1.0920 -0.5618
 6973TIP3   OH242553   1.839   6.702   0.713 -0.6288  0.0215 -0.0085
 6973TIP3    H142554   1.862   6.612   0.687  1.8952  0.4355  0.5023
 6973TIP3    H242555   1.840   6.700   0.808 -1.5065  0.4005  0.0157
 6974TIP3   OH242556   4.317   3.277   7.103 -0.0955  0.5469 -0.0214
 6974TIP3    H142557   4.377   3.224   7.155 -1.0066 -0.1106  0.3926
 6974TIP3    H242558   4.251   3.215   7.072  0.1045  1.0407 -1.4756
 6975TIP3   OH242559   5.007   3.730   1.179 -0.1239  0.0590 -0.2415
 6975TIP3    H142560   5.016   3.743   1.273 -0.3672 -0.0715 -0.1978
 6975TIP3    H242561   4.971   3.813   1.147  0.5724  0.3345 -0.3168
 6976TIP3   OH242562   2.535   5.748   0.290  0.6571 -0.3021  0.0696
 6976TIP3    H142563   2.464   5.728   0.351  0.7815 -0.9436  0.0133
 6976TIP3    H242564   2.615   5.734   0.341  0.7497  0.0247  0.0154
 6977TIP3   OH242565   2.616   4.490   0.413 -0.2115  0.7636  0.2759
 6977TIP3    H142566   2.538   4.491   0.468 -1.8737  0.3767 -1.9308
 6977TIP3    H242567   2.682   4.444   0.464 -1.4315  1.0302  2.1735
 6978TIP3   OH242568   2.351   3.588   0.629  0.1500  0.7390  0.0627
 6978TIP3    H142569   2.266   3.618   0.597  0.5708  1.2603 -0.5773
 6978TIP3    H242570   2.344   3.596   0.724 -1.1119 -0.8231  0.1443
 6979TIP3   OH242571   0.210   3.592   2.403 -0.6229  0.4385  0.4123
 6979TIP3    H142572   0.279   3.597   2.469 -0.0658 -1.3877  0.0187
 6979TIP3    H242573   0.256   3.602   2.320 -0.8923 -0.3396  0.1653
 6980TIP3   OH242574   4.326   1.786   7.117  0.0241 -0.5108  0.3632
 6980TIP3    H142575   4.304   1.875   7.089  0.8815  0.1618  1.7273
 6980TIP3    H242576   4.241   1.744   7.131 -0.4546 -0.6614 -2.3564
 6981TIP3   OH242577   3.137   1.589   0.761  0.2217 -0.0279 -0.1168
 6981TIP3    H142578   3.069   1.630   0.814 -0.8562  0.0683 -1.5375
 6981TIP3    H242579   3.184   1.663   0.721 -0.2444 -0.1321 -0.8611
 6982TIP3   OH242580   5.713   0.616   1.062 -0.6199  0.1088  0.1350
 6982TIP3    H142581   5.712   0.646   0.971  0.4140 -0.4158 -0.0672
 6982TIP3    H242582   5.806   0.608   1.084 -0.8560 -0.5220  0.9843
 6983TIP3   OH242583   1.810   0.673   6.484 -0.3499  0.6395 -0.0923
 6983TIP3    H142584   1.902   0.699   6.477 -0.0420 -0.1032  0.9671
 6983TIP3    H242585   1.765   0.728   6.420  0.9689  0.2705 -1.4002
 6984TIP3   OH242586   5.055   0.538   1.588 -0.2723  0.1781  0.3389
 6984TIP3    H142587   5.110   0.565   1.661 -0.2834  0.9744  0.0613
 6984TIP3    H242588   5.034   0.446   1.606  1.9343 -0.4496 -0.0357
 6985TIP3   OH242589   5.793   1.113   0.912 -0.2852  0.3167 -0.2827
 6985TIP3    H142590   5.863   1.055   0.944 -1.1351 -1.1222 -0.9460
 6985TIP3    H242591   5.743   1.136   0.990 -0.0572 -0.0143 -0.0361
 6986TIP3   OH242592   5.956   1.410   8.301 -0.4108 -0.0688  0.0397
 6986TIP3    H142593   5.934   1.499   8.275 -2.6947 -0.1554  1.4165
 6986TIP3    H242594   5.946   1.358   8.221  2.1795  0.9851 -1.1011
 6987TIP3   OH242595   0.815   4.437   1.154  0.0494 -0.2568  0.0560
 6987TIP3    H142596   0.907   4.452   1.134 -0.2257  0.9103 -0.4191
 6987TIP3    H242597   0.780   4.392   1.077 -0.2776  1.3613 -0.7819
 6988TIP3   OH242598   4.228   0.014   1.129  0.0225 -0.2012 -0.2488
 6988TIP3    H142599   4.225   0.009   1.224  0.2580  1.0105 -0.1655
 6988TIP3    H242600   4.178  -0.062   1.099 -0.0597 -0.5831  0.8324
 6989TIP3   OH242601   1.708   5.483   8.216 -0.6419  0.0248 -0.1571
 6989TIP3    H142602   1.698   5.388   8.208  1.0161 -0.1083 -1.1081
 6989TIP3    H242603   1.652   5.519   8.147  1.0412 -0.4367 -1.8428
 6990TIP3   OH242604   6.152   0.991   2.272  0.3763  0.2200  0.3041
 6990TIP3    H142605   6.231   1.023   2.316 -0.9919  3.5411  0.5942
 6990TIP3    H242606   6.164   1.018   2.181  0.6676 -1.6372 -0.2588
 6991TIP3   OH242607   0.046   1.440   0.664 -0.3164  0.2565  0.4830
 6991TIP3    H142608   0.036   1.345   0.674  0.4597  0.1906  0.6534
 6991TIP3    H242609  -0.011   1.461   0.589 -1.4174 -0.1512  1.1759
 6992TIP3   OH242610   6.807   0.643   7.624  0.1493  0.2003 -0.3019
 6992TIP3    H142611   6.736   0.580   7.619 -1.8072  2.2117  0.5087
 6992TIP3    H242612   6.797   0.697   7.545  0.0727  1.1780  0.3602
 6993TIP3   OH242613   4.938   2.907   8.256  0.5782  0.2021  0.6599
 6993TIP3    H142614   4.879   2.948   8.194  0.8627 -0.6297 -0.1929
 6993TIP3    H242615   4.977   2.979   8.305 -0.4771  0.8005  0.6228
 6994TIP3   OH242616   2.138   1.309   0.167  1.2328  0.0764 -0.0689
 6994TIP3    H142617   2.164   1.248   0.236 -1.4963 -1.0965  0.0498
 6994TIP3    H242618   2.129   1.393   0.212  1.8266 -0.1321  0.4582
 6995TIP3   OH242619   1.917   2.217   7.339 -0.2034  0.4179  0.1017
 6995TIP3    H142620   1.850   2.191   7.275 -0.9973  0.8120  0.7482
 6995TIP3    H242621   1.891   2.173   7.419  0.4677  0.3776  0.2967
 6996TIP3   OH242622   6.464   4.057   2.024  0.5621  0.1079 -0.6257
 6996TIP3    H142623   6.396   4.125   2.028 -1.5289 -1.7689 -1.9132
 6996TIP3    H242624   6.510   4.065   2.108 -2.2048  0.5496  0.9913
 6997TIP3   OH242625   1.088   5.430   1.496 -0.3604  0.2632  1.0122
 6997TIP3    H142626   1.055   5.479   1.421  0.3981  0.7584  0.9921
 6997TIP3    H242627   1.065   5.339   1.477  1.3226  0.1345 -0.6733
 6998TIP3   OH242628   1.968   6.401   7.235 -0.1071  0.0923  0.1273
 6998TIP3    H142629   1.921   6.437   7.160  0.5203  1.5482  0.4044
 6998TIP3    H242630   2.032   6.467   7.258  0.6646 -0.9434  1.0857
 6999TIP3   OH242631   5.831   4.473   7.544 -0.5718  0.2580  0.1832
 6999TIP3    H142632   5.895   4.493   7.476  0.8657  1.7401  1.8657
 6999TIP3    H242633   5.847   4.381   7.565  2.0703  0.9115  1.5058
 7000TIP3   OH242634   0.387   3.397   6.992 -0.1577 -0.6175 -0.5405
 7000TIP3    H142635   0.422   3.455   6.924  0.7126 -0.1381  0.2972
 7000TIP3    H242636   0.386   3.451   7.071  0.9613 -1.8149  0.3402
 7001TIP3   OH242637   3.252   0.467   0.551  0.1189 -0.1926 -0.0136
 7001TIP3    H142638   3.328   0.498   0.600  0.6085 -1.2852 -0.0539
 7001TIP3    H242639   3.265   0.501   0.463  0.1879  0.2314  0.1598
 7002TIP3   OH242640   2.505   0.989   7.805 -0.2856  0.3608 -0.4038
 7002TIP3    H142641   2.448   1.031   7.869 -0.1494  0.3118 -0.2510
 7002TIP3    H242642   2.591   1.028   7.820 -0.0145 -0.4399  0.1705
 7003TIP3   OH242643   3.321   1.406   0.842 -0.0857  0.0561 -0.3653
 7003TIP3    H142644   3.267   1.340   0.885  1.4861 -1.4993 -0.6774
 7003TIP3    H242645   3.258   1.468   0.806 -1.6177 -1.1423  0.1188
 7004TIP3   OH242646   1.316   2.773   1.121  0.0496  0.2508 -0.6090
 7004TIP3    H142647   1.407   2.757   1.149  0.3361  0.5857 -1.3218
 7004TIP3    H242648   1.265   2.762   1.201  0.1168 -4.3530 -0.8878
 7005TIP3   OH242649   0.452   1.058   2.295  0.5797  0.3649  0.0519
 7005TIP3    H142650   0.540   1.053   2.333  0.1509 -0.2014  0.9872
 7005TIP3    H242651   0.439   1.151   2.277  1.3021  0.4749  0.0382
 7006TIP3   OH242652   0.306   4.401   2.722 -0.6134 -0.4844  0.0021
 7006TIP3    H142653   0.256   4.455   2.783 -0.3101 -0.7682  0.5065
 7006TIP3    H242654   0.380   4.456   2.697 -0.7504 -0.3593 -0.1337
 7007TIP3   OH242655   5.289   5.808   0.065  0.3533 -0.1958 -0.3090
 7007TIP3    H142656   5.305   5.896   0.098  0.0201  0.4072 -1.7024
 7007TIP3    H242657   5.199   5.809   0.032  0.9163 -0.4857 -1.9814
 7008TIP3   OH242658   2.489   2.995   2.850  0.3994 -0.3629  0.5841
 7008TIP3    H142659   2.500   3.087   2.873  0.8220  0.0197 -1.0060
 7008TIP3    H242660   2.570   2.971   2.804 -0.3755 -1.0174 -0.5073
 7009TIP3   OH242661   0.361   1.763   0.433  0.0542 -0.0976 -0.1166
 7009TIP3    H142662   0.381   1.845   0.477  0.8662  0.3953 -1.3471
 7009TIP3    H242663   0.431   1.704   0.459  0.1096 -0.0461 -0.1494
 7010TIP3   OH242664   0.665   3.447   7.889 -0.1269  0.5390 -0.2855
 7010TIP3    H142665   0.757   3.454   7.863 -0.2829 -0.9073 -1.2982
 7010TIP3    H242666   0.620   3.411   7.812 -1.4936  0.9298  0.2973
 7011TIP3   OH242667   0.145   4.752   1.209 -0.1762 -0.4062  0.2180
 7011TIP3    H142668   0.096   4.799   1.276  0.8651 -1.4035  1.7521
 7011TIP3    H242669   0.170   4.820   1.146 -0.6757  0.6799  1.1481
 7012TIP3   OH242670   2.204   2.165   8.111  0.1478  0.4308 -0.1174
 7012TIP3    H142671   2.244   2.133   8.030  0.2056  2.9062 -1.1564
 7012TIP3    H242672   2.277   2.173   8.172  0.4718  0.6255 -0.5278
 7013TIP3   OH242673   6.724   5.443   1.831 -0.4725  0.3980  0.1104
 7013TIP3    H142674   6.782   5.423   1.905  1.4245 -0.5877 -1.5611
 7013TIP3    H242675   6.658   5.502   1.868  0.6743  0.3221  2.4702
 7014TIP3   OH242676   3.612   3.891   2.681  0.1245 -0.6809  0.3096
 7014TIP3    H142677   3.553   3.933   2.618 -0.6118 -0.1504  1.3306
 7014TIP3    H242678   3.623   3.802   2.647 -0.4862 -0.4918 -0.4207
 7015TIP3   OH242679   1.135   4.700   7.381  0.2988 -0.0530 -0.0309
 7015TIP3    H142680   1.080   4.680   7.305  1.6190 -1.5484 -0.6484
 7015TIP3    H242681   1.073   4.723   7.451 -1.1134 -1.8065 -0.6598
 7016TIP3   OH242682   2.535   3.004   0.782 -0.7001 -0.6797  0.5383
 7016TIP3    H142683   2.504   3.091   0.807 -0.8233 -0.6447  0.2608
 7016TIP3    H242684   2.459   2.961   0.744 -0.3104 -0.4368 -0.5581
 7017TIP3   OH242685   6.790   4.135   7.031 -0.6224  0.3844  0.0233
 7017TIP3    H142686   6.766   4.157   6.941 -0.1080 -0.5452 -0.3590
 7017TIP3    H242687   6.850   4.205   7.058 -1.0787  0.8722 -0.2170
 7018TIP3   OH242688   6.417   2.739   8.152 -0.1591 -0.5915  0.2100
 7018TIP3    H142689   6.505   2.707   8.170 -0.4100 -0.3514  2.1461
 7018TIP3    H242690   6.362   2.662   8.156  0.0228 -0.8581 -1.7580
 7019TIP3   OH242691   3.201   6.380   3.084 -0.4203  0.7102  0.0045
 7019TIP3    H142692   3.283   6.420   3.114 -0.9984  0.9934  1.2541
 7019TIP3    H242693   3.223   6.287   3.076  0.2308  0.8888 -0.4495
 7020TIP3   OH242694   2.951   6.367   0.088  0.3688  0.1082  0.6689
 7020TIP3    H142695   2.884   6.303   0.115  2.0750 -2.2932 -0.4270
 7020TIP3    H242696   2.996   6.325   0.015  2.0914  2.3121  0.3626
 7021TIP3   OH242697   1.980   5.507   0.851 -0.8719 -0.0045  0.1127
 7021TIP3    H142698   1.946   5.469   0.932 -0.6338 -0.4088  0.0276
 7021TIP3    H242699   1.911   5.566   0.821 -2.0237 -1.7048 -0.7000
 7022TIP3   OH242700   2.948   3.816   2.068  0.6569  0.0193 -0.6224
 7022TIP3    H142701   3.017   3.819   2.134 -0.5480 -1.0859  0.7942
 7022TIP3    H242702   2.947   3.903   2.030 -0.1220  1.5666  2.5427
 7023TIP3   OH242703   3.440   6.765   0.841  1.0195 -0.3322 -0.2001
 7023TIP3    H142704   3.534   6.774   0.857  0.8630  0.3272  0.4077
 7023TIP3    H242705   3.433   6.745   0.748  1.7888 -0.8895 -0.1450
 7024TIP3   OH242706   3.991   1.481   2.122 -0.4805 -0.7094  0.2566
 7024TIP3    H142707   3.952   1.505   2.038 -0.7917 -0.4605  0.4658
 7024TIP3    H242708   4.030   1.395   2.108  1.6855  0.3917 -0.8503
 7025TIP3   OH242709   5.717   3.251   7.636  0.0322 -0.4040  0.4713
 7025TIP3    H142710   5.633   3.260   7.591 -0.0548 -0.4430  0.6260
 7025TIP3    H242711   5.781   3.241   7.566  0.2006  1.7933  0.2306
 7026TIP3   OH242712   3.751   1.033   8.456 -0.5393  0.4417  0.6404
 7026TIP3    H142713   3.672   0.984   8.434 -0.3677  0.7903 -0.8134
 7026TIP3    H242714   3.823   0.978   8.423 -0.3261  1.4554 -0.6352
 7027TIP3   OH242715   6.850   3.999   2.142  0.0284 -0.6192  0.2898
 7027TIP3    H142716   6.887   4.050   2.215 -0.1734  1.3394 -0.9094
 7027TIP3    H242717   6.919   4.000   2.076  0.7676 -3.5737  0.8878
 7028TIP3   OH242718   3.242   5.543   2.608  0.3771 -0.1194 -0.0704
 7028TIP3    H142719   3.199   5.581   2.685 -1.5611 -4.6401  1.4537
 7028TIP3    H242720   3.326   5.512   2.640  0.7672  0.4095 -0.5613
 7029TIP3   OH242721   0.725   1.957   0.929 -0.1146  0.1957  0.2553
 7029TIP3    H142722   0.687   1.929   0.845 -0.5838 -0.7165  0.7599
 7029TIP3    H242723   0.809   1.996   0.905 -0.9051  1.3254 -0.7795
 7030TIP3   OH242724   3.095   4.843   2.864  0.3576  0.2549  0.2496
 7030TIP3    H142725   3.000   4.857   2.867  0.3292  0.0471  0.3705
 7030TIP3    H242726   3.131   4.928   2.841  0.0730  0.0680 -0.9324
 7031TIP3   OH242727   1.945   1.539   7.317  0.3641  0.0073  0.1177
 7031TIP3    H142728   1.986   1.541   7.404  0.1635 -0.5210  0.2261
 7031TIP3    H242729   1.988   1.468   7.271 -0.1735 -0.3168  0.1078
 7032TIP3   OH242730   4.814   6.095   0.515  0.2757 -0.0547  0.4049
 7032TIP3    H142731   4.804   6.002   0.496  0.3908 -0.1838  0.9605
 7032TIP3    H242732   4.727   6.132   0.503  0.4724 -0.0054 -1.0096
 7033TIP3   OH242733   6.488   3.569   1.413 -0.3566  0.4940 -0.6564
 7033TIP3    H142734   6.519   3.628   1.482 -2.4880  1.6583 -0.6306
 7033TIP3    H242735   6.416   3.616   1.371 -1.3472 -1.5933 -1.4469
 7034TIP3   OH242736   0.879   6.911   1.846 -0.5187 -0.5267 -0.7706
 7034TIP3    H142737   0.880   6.938   1.754 -0.3200  0.1504 -0.5780
 7034TIP3    H242738   0.970   6.886   1.864 -0.1686  0.9836 -0.3040
 7035TIP3   OH242739   5.350   0.174   7.434  0.6752 -0.2978  0.2937
 7035TIP3    H142740   5.341   0.080   7.452  0.0382 -0.3369 -0.2133
 7035TIP3    H242741   5.304   0.217   7.506  0.4203 -0.3897  0.1863
 7036TIP3   OH242742   4.788   1.357   8.100  0.2983 -0.1683  0.1535
 7036TIP3    H142743   4.870   1.310   8.088  0.3061  0.0132 -0.5644
 7036TIP3    H242744   4.727   1.318   8.037 -0.0113  0.0520  0.3091
 7037TIP3   OH242745   1.879   3.375   1.319 -0.5484 -0.0368 -0.3158
 7037TIP3    H142746   1.929   3.326   1.254 -1.5064 -2.2652  0.5102
 7037TIP3    H242747   1.923   3.356   1.402 -1.8434 -0.8346  0.2189
 7038TIP3   OH242748   2.969   2.613   0.499 -0.1152  0.5003 -0.3852
 7038TIP3    H142749   3.019   2.659   0.566 -2.2884  3.0174 -0.3090
 7038TIP3    H242750   2.903   2.563   0.548  0.1424 -0.0379 -0.5782
 7039TIP3   OH242751   5.358   3.218   1.106  0.2110 -0.2966 -0.1152
 7039TIP3    H142752   5.450   3.218   1.079  0.1829  1.4524 -0.3233
 7039TIP3    H242753   5.309   3.225   1.024 -0.0091  1.0718  0.1121
 7040TIP3   OH242754   0.716   4.751   0.589 -0.5293  0.0440  0.1756
 7040TIP3    H142755   0.667   4.703   0.656 -0.4544 -0.1925  0.0627
 7040TIP3    H242756   0.782   4.688   0.558 -1.0544 -0.1077 -0.6625
 7041TIP3   OH242757   1.250   6.111   1.852 -0.2205  0.1272  0.4085
 7041TIP3    H142758   1.312   6.139   1.919 -2.0025 -2.3052  3.3381
 7041TIP3    H242759   1.197   6.189   1.834  1.7150  1.4225  0.0988
 7042TIP3   OH242760   1.074   4.685   1.285 -0.3743  0.3048 -0.0757
 7042TIP3    H142761   1.023   4.698   1.205 -1.2989  0.9530  0.5931
 7042TIP3    H242762   1.032   4.610   1.327 -0.6844  0.7378  0.3986
 7043TIP3   OH242763   4.798   0.603   2.740 -0.2805  0.0923 -0.1429
 7043TIP3    H142764   4.794   0.607   2.644 -0.8242  0.4563 -0.1106
 7043TIP3    H242765   4.752   0.522   2.763 -1.0043  0.4957 -0.1464
 7044TIP3   OH242766   5.691   3.755   8.405  0.1968  0.6126 -0.3622
 7044TIP3    H142767   5.695   3.816   8.332  1.3000  0.8992 -0.0730
 7044TIP3    H242768   5.598   3.733   8.413  0.0055  0.9606 -1.5259
 7045TIP3   OH242769   6.833   1.589   7.676 -0.7246  0.3343  0.1753
 7045TIP3    H142770   6.798   1.526   7.614 -0.6515  0.9833 -0.5498
 7045TIP3    H242771   6.795   1.565   7.760  0.0982 -1.2836  0.1115
 7046TIP3   OH242772   6.719   6.702   7.202  0.2397  0.1614  0.1683
 7046TIP3    H142773   6.689   6.740   7.285  0.6269  2.1573 -0.5546
 7046TIP3    H242774   6.639   6.687   7.152  0.0475 -0.4639  0.6571
 7047TIP3   OH242775   0.687   2.947   7.832  0.4297 -0.2327  0.0075
 7047TIP3    H142776   0.676   2.884   7.760 -0.1868  0.7008 -0.7406
 7047TIP3    H242777   0.719   2.894   7.905  1.7769 -1.1049 -1.1393
 7048TIP3   OH242778   3.443   1.166   3.261 -0.2002 -0.5057  0.7542
 7048TIP3    H142779   3.517   1.137   3.209  0.7424  0.6756  1.3996
 7048TIP3    H242780   3.437   1.102   3.332 -0.4391 -1.1542  0.1684
 7049TIP3   OH242781   0.058   0.291   0.176  0.2015 -0.3446  0.0383
 7049TIP3    H142782   0.006   0.216   0.147 -0.2078 -0.4123  0.9002
 7049TIP3    H242783  -0.005   0.346   0.223  0.8281 -0.2221  0.7362
 7050TIP3   OH242784   2.562   1.289   0.016 -0.4365  0.2474 -0.2770
 7050TIP3    H142785   2.488   1.314  -0.039  1.1437  0.1688 -2.6260
 7050TIP3    H242786   2.583   1.199  -0.011  0.7003  0.3856  0.0766
 7051TIP3   OH242787   0.644   0.710   0.602  0.2174 -0.5632 -0.0816
 7051TIP3    H142788   0.598   0.635   0.640 -0.1820 -0.6136 -0.6544
 7051TIP3    H242789   0.575   0.766   0.568  0.5342 -0.1171  0.0065
 7052TIP3   OH242790   2.288   1.299   8.443  0.5335  0.7018 -0.0786
 7052TIP3    H142791   2.247   1.310   8.528  0.4550 -3.9263  0.7108
 7052TIP3    H242792   2.215   1.284   8.383  0.7500 -0.2841 -0.1026
 7053TIP3   OH242793   5.116   4.523   8.279  0.5305 -0.2920 -0.3193
 7053TIP3    H142794   5.185   4.583   8.253 -0.7242  2.2077  1.6263
 7053TIP3    H242795   5.042   4.543   8.221 -0.0703  0.4887  0.6836
 7054TIP3   OH242796   4.882   3.544   7.272  0.3259  0.6892  0.1558
 7054TIP3    H142797   4.918   3.630   7.292  1.3040  0.0123  1.4671
 7054TIP3    H242798   4.958   3.489   7.254 -0.2184 -0.1227  0.2571
 7055TIP3   OH242799   4.261   3.132   1.834  0.1668 -0.4025 -0.4781
 7055TIP3    H142800   4.247   3.049   1.789 -0.3246 -0.8225  0.4073
 7055TIP3    H242801   4.244   3.112   1.926 -2.2757  1.1802 -0.4826
 7056TIP3   OH242802   2.804   4.063   1.338 -0.8498  0.4076  0.2205
 7056TIP3    H142803   2.713   4.068   1.368 -0.9519 -1.4981  0.3710
 7056TIP3    H242804   2.850   4.017   1.408  0.1843  1.1540  0.0442
 7057TIP3   OH242805   0.559   2.656   7.372 -0.1496  0.1955  0.0483
 7057TIP3    H142806   0.568   2.579   7.315  0.4207  0.6342 -0.4649
 7057TIP3    H242807   0.489   2.632   7.433 -0.2208 -0.5951 -0.3273
 7058TIP3   OH242808   5.269   5.412   0.349  0.5237 -0.2645 -0.4399
 7058TIP3    H142809   5.339   5.465   0.313  1.9950 -0.0927  2.3793
 7058TIP3    H242810   5.205   5.476   0.383  1.8939 -0.1369  2.1927
 7059TIP3   OH242811   6.354   6.150   7.167 -0.4338  0.2621 -0.1845
 7059TIP3    H142812   6.288   6.094   7.127 -0.0717  0.7851 -1.5953
 7059TIP3    H242813   6.356   6.228   7.110  1.5686  0.1314 -0.3610
 7060TIP3   OH242814   3.046   6.912   2.037 -0.2432  0.4984 -0.4345
 7060TIP3    H142815   3.006   6.953   1.961  0.1721 -0.3811 -1.1431
 7060TIP3    H242816   3.059   6.984   2.099 -3.2658  0.7623  0.0134
 7061TIP3   OH242817   3.041   4.284   2.423  1.1453 -0.3253  0.3623
 7061TIP3    H142818   3.065   4.201   2.463 -0.2575 -1.6238 -1.3250
 7061TIP3    H242819   3.040   4.346   2.496  0.8934 -2.0852  1.9358
 7062TIP3   OH242820   0.565   0.985   8.219  0.1975 -0.2619 -0.0204
 7062TIP3    H142821   0.559   1.047   8.291  0.4417  0.3109 -0.4822
 7062TIP3    H242822   0.621   0.915   8.251 -0.0375 -0.2228  0.4857
 7063TIP3   OH242823   0.015   4.541   8.126  0.3176  0.0560 -0.1510
 7063TIP3    H142824  -0.006   4.449   8.112 -0.1328  0.0372  0.5847
 7063TIP3    H242825   0.096   4.555   8.077  0.5292 -0.7966 -0.0581
 7064TIP3   OH242826   1.247   3.631   2.430  0.3186 -0.2406  0.4092
 7064TIP3    H142827   1.229   3.603   2.520 -0.4682 -0.4562  0.1885
 7064TIP3    H242828   1.283   3.719   2.439 -1.5906  0.5260  0.8199
 7065TIP3   OH242829   0.700   0.477   0.387 -0.0384  0.6665  0.0754
 7065TIP3    H142830   0.650   0.547   0.429 -1.7187 -0.4487 -0.0084
 7065TIP3    H242831   0.656   0.397   0.413  0.8181 -0.2659 -1.2416
 7066TIP3   OH242832   2.696   5.691   0.053  0.1216  0.1601 -0.5288
 7066TIP3    H142833   2.634   5.692   0.126  0.1120 -1.0448 -0.5076
 7066TIP3    H242834   2.764   5.752   0.079 -0.1170  0.0914  0.2830
 7067TIP3   OH242835   4.025   1.823   1.686 -0.4652  0.1159  0.6495
 7067TIP3    H142836   4.038   1.918   1.693  0.7428 -0.0323  0.6697
 7067TIP3    H242837   3.947   1.814   1.631  0.1772  1.1227 -0.5019
 7068TIP3   OH242838   1.533   6.481   6.457  0.0195 -0.2519 -0.1196
 7068TIP3    H142839   1.603   6.474   6.523  0.8123  1.0322 -0.7846
 7068TIP3    H242840   1.454   6.453   6.503  0.7251 -0.3768  1.0727
 7069TIP3   OH242841   0.649   6.346   0.362  0.7032  0.8305  0.0706
 7069TIP3    H142842   0.677   6.322   0.274 -1.1705  0.5656 -0.4889
 7069TIP3    H242843   0.562   6.307   0.371  0.5735  1.4463  1.7831
 7070TIP3   OH242844   1.703   3.684   2.916 -0.2826 -0.4358  0.3824
 7070TIP3    H142845   1.665   3.641   2.992  1.0266 -1.1651  0.6533
 7070TIP3    H242846   1.753   3.615   2.871 -0.0568  0.2565 -0.4746
 7071TIP3   OH242847   1.059   5.814   7.453 -0.3002  0.2774  0.2100
 7071TIP3    H142848   0.987   5.868   7.483 -1.3164 -1.0151  0.2111
 7071TIP3    H242849   1.022   5.761   7.382  0.6226 -0.4811  0.2624
 7072TIP3   OH242850   1.576   3.931   2.954 -0.1783  0.4584  0.1709
 7072TIP3    H142851   1.485   3.944   2.930 -0.7096 -1.4630  0.9540
 7072TIP3    H242852   1.592   3.838   2.938  1.2450  0.4638  1.3373
 7073TIP3   OH242853   3.598   2.191   1.715  0.4225 -0.1544  0.0758
 7073TIP3    H142854   3.587   2.267   1.772  0.1070 -0.4779  0.4522
 7073TIP3    H242855   3.670   2.142   1.754  0.8530  0.1233 -0.3609
 7074TIP3   OH242856   1.320   2.733   1.794  0.0087  1.1595  0.0111
 7074TIP3    H142857   1.241   2.696   1.834 -0.1366  1.7345  0.2659
 7074TIP3    H242858   1.316   2.826   1.816  1.5428  0.9387  1.3644
 7075TIP3   OH242859   5.081   4.558   7.823 -0.2895  0.4497  0.6946
 7075TIP3    H142860   5.020   4.487   7.839 -0.6974  0.4115 -0.8608
 7075TIP3    H242861   5.042   4.634   7.866 -0.6855  0.1142  0.9328
 7076TIP3   OH242862   6.078   1.771   6.601  0.4116 -0.3881  0.2968
 7076TIP3    H142863   6.112   1.845   6.651  0.1563 -0.7845  1.0825
 7076TIP3    H242864   6.144   1.702   6.611 -0.0427 -0.7591  0.8260
 7077TIP3   OH242865   6.717   1.197   0.596  0.8930 -0.4015  0.0055
 7077TIP3    H142866   6.805   1.166   0.574  0.4426 -1.7338  0.0132
 7077TIP3    H242867   6.707   1.278   0.546  2.1341 -0.1964  0.0525
 7078TIP3   OH242868   0.692   0.278   8.473  0.1065 -0.3558 -0.1135
 7078TIP3    H142869   0.602   0.245   8.470 -0.1078  0.2668 -1.3009
 7078TIP3    H242870   0.688   0.363   8.430  0.9731  0.4545  1.3231
 7079TIP3   OH242871   6.443   3.497   6.927 -1.1915 -0.2872  0.5777
 7079TIP3    H142872   6.407   3.550   6.856  0.1255 -1.5701 -1.1168
 7079TIP3    H242873   6.414   3.408   6.908  0.2099 -0.8432  0.9233
 7080TIP3   OH242874   3.310   5.890   7.690  0.2180  0.6031 -0.1989
 7080TIP3    H142875   3.234   5.840   7.661 -0.2643  0.6261  1.0029
 7080TIP3    H242876   3.322   5.957   7.622  0.6786 -0.9004 -1.6723
 7081TIP3   OH242877   4.781   4.270   0.416  0.1690  0.3125 -0.6199
 7081TIP3    H142878   4.718   4.218   0.465 -0.7523  0.9306 -1.1208
 7081TIP3    H242879   4.731   4.345   0.384  1.3507  1.2541 -0.3437
 7082TIP3   OH242880   5.703   5.832   7.038 -0.3941 -0.4191 -0.1187
 7082TIP3    H142881   5.738   5.896   6.977  1.4656 -0.4771  0.8321
 7082TIP3    H242882   5.685   5.755   6.984  0.7118 -0.2881 -0.7082
 7083TIP3   OH242883   0.962   5.486   8.380 -0.3302 -0.2214 -0.7689
 7083TIP3    H142884   0.944   5.575   8.348 -0.5523  0.7340  1.7802
 7083TIP3    H242885   0.978   5.497   8.474 -1.1373 -2.9972 -0.2178
 7084TIP3   OH242886   3.164   4.748   7.192  0.0873  0.4658 -0.9350
 7084TIP3    H142887   3.111   4.705   7.125 -2.5351  1.8159  0.1309
 7084TIP3    H242888   3.119   4.729   7.275  1.7210  1.0666  0.1435
 7085TIP3   OH242889   6.940   3.922   0.699  0.5335 -0.0451 -0.0420
 7085TIP3    H142890   6.922   4.012   0.671  1.1325 -0.3549 -1.5028
 7085TIP3    H242891   6.863   3.873   0.671  1.8207 -0.6741 -2.9106
 7086TIP3   OH242892   2.474   1.057   0.685 -0.2717 -0.0308 -0.3367
 7086TIP3    H142893   2.548   1.118   0.688  0.9628 -1.4791  0.6671
 7086TIP3    H242894   2.501   0.991   0.621 -1.2506  0.0632 -0.8581
 7087TIP3   OH242895   6.733   2.990   7.727 -0.3462  0.3128  0.2541
 7087TIP3    H142896   6.714   3.025   7.814 -1.5316  1.4792 -0.4402
 7087TIP3    H242897   6.704   3.058   7.667 -0.1596 -0.7516 -1.0852
 7088TIP3   OH242898   4.488   5.796   7.463 -0.1226  0.8275  0.1659
 7088TIP3    H142899   4.420   5.814   7.397 -0.3277 -0.4663 -0.0037
 7088TIP3    H242900   4.570   5.819   7.420 -0.0229 -1.9669 -1.4253
 7089TIP3   OH242901   2.673   6.297   1.811 -0.3443 -0.1132  0.1836
 7089TIP3    H142902   2.714   6.374   1.772  1.0019  0.5428  2.6475
 7089TIP3    H242903   2.584   6.296   1.775 -0.2453  2.3237 -0.2996
 7090TIP3   OH242904   2.214   1.512   2.255 -0.3204 -0.0771 -0.0992
 7090TIP3    H142905   2.154   1.567   2.306  1.0556  1.0295  0.3893
 7090TIP3    H242906   2.196   1.423   2.284 -1.4381  0.2735  0.3285
 7091TIP3   OH242907   3.320   5.438   0.697 -0.1203 -0.2401  0.2070
 7091TIP3    H142908   3.348   5.368   0.756 -0.7674  0.6470  1.5839
 7091TIP3    H242909   3.275   5.501   0.752  0.3828  1.2637 -1.0177
 7092TIP3   OH242910   4.436   1.486   1.654 -0.7025  0.0038  0.2653
 7092TIP3    H142911   4.392   1.449   1.578 -1.2647 -0.1199  0.6470
 7092TIP3    H242912   4.383   1.562   1.678 -0.1412  0.4515  0.1233
 7093TIP3   OH242913   5.908   3.567   1.099 -0.4560 -0.3249  0.1074
 7093TIP3    H142914   5.902   3.610   1.014  2.1366 -0.7670 -0.3810
 7093TIP3    H242915   5.882   3.476   1.081  0.9128 -0.6333 -0.4614
 7094TIP3   OH242916   2.851   0.116   7.536 -0.3756 -0.5583 -0.0296
 7094TIP3    H142917   2.832   0.028   7.569  2.3605 -0.3554  2.4639
 7094TIP3    H242918   2.811   0.174   7.601 -1.6461  0.1185 -1.3479
 7095TIP3   OH242919   3.858   1.700   7.786 -0.6673  0.3992  0.1826
 7095TIP3    H142920   3.780   1.692   7.731 -1.7599 -0.5786  1.7867
 7095TIP3    H242921   3.825   1.732   7.870  0.6528 -0.1180  0.9276
 7096TIP3   OH242922   0.245   6.438   1.636  0.0845 -0.7110  0.1351
 7096TIP3    H142923   0.209   6.497   1.570  0.4086 -0.1840  0.4199
 7096TIP3    H242924   0.226   6.480   1.720  2.7556  0.4469  0.2557
 7097TIP3   OH242925   5.334   1.222   0.232 -0.1382 -0.4081  0.4368
 7097TIP3    H142926   5.292   1.247   0.314 -0.1412 -0.9003  0.5903
 7097TIP3    H242927   5.322   1.298   0.175  1.4641  0.6851  1.4587
 7098TIP3   OH242928   4.213   5.960   0.271 -0.4493  0.1771  0.0558
 7098TIP3    H142929   4.165   5.996   0.346 -0.4761  0.7334 -0.2286
 7098TIP3    H242930   4.275   5.898   0.310 -1.5475 -0.7426  0.4167
 7099TIP3   OH242931   4.153   5.997   0.546  0.0734 -0.1925  0.0101
 7099TIP3    H142932   4.210   6.005   0.622  0.0061 -0.1340  0.0547
 7099TIP3    H242933   4.103   6.079   0.545  1.7909  0.9196 -1.5094
 7100TIP3   OH242934   5.327   3.160   1.934 -0.0693  0.0245  0.5551
 7100TIP3    H142935   5.332   3.130   1.843  1.9659 -2.2804  1.3312
 7100TIP3    H242936   5.243   3.128   1.965 -1.0542  1.3332 -0.6231
 7101TIP3   OH242937   0.039   2.858   7.467  0.9906  0.4537 -0.3990
 7101TIP3    H142938   0.120   2.856   7.416  2.1993 -0.2160  1.4251
 7101TIP3    H242939   0.066   2.891   7.553 -0.4753 -0.6761  0.5402
 7102TIP3   OH242940   4.305   3.722   0.539  0.2761  0.2876 -0.3018
 7102TIP3    H142941   4.345   3.653   0.592  0.2645 -0.1591 -0.8566
 7102TIP3    H242942   4.338   3.706   0.450  0.6457  1.2913 -0.3525
 7103TIP3   OH242943   4.511   2.000   7.448 -0.7265  0.3335  0.1377
 7103TIP3    H142944   4.500   1.945   7.526  1.7460  0.7500  0.8658
 7103TIP3    H242945   4.598   1.979   7.416 -0.8570  1.7461 -1.2562
 7104TIP3   OH242946   0.974   3.824   0.042 -0.5306  0.1733 -0.5539
 7104TIP3    H142947   0.884   3.854   0.057 -0.8097 -0.5659 -0.6864
 7104TIP3    H242948   1.027   3.878   0.099 -1.3076 -0.9369  1.3256
 7105TIP3   OH242949   4.324   0.223   1.354  0.2081 -0.6709 -0.2651
 7105TIP3    H142950   4.278   0.280   1.416 -1.7756  0.1037 -2.3311
 7105TIP3    H242951   4.321   0.270   1.271  1.9902 -2.0835 -1.1999
 7106TIP3   OH242952   2.352   5.159   2.328 -0.5583 -0.3425 -0.1285
 7106TIP3    H142953   2.321   5.186   2.241  1.1616  1.8243 -0.1725
 7106TIP3    H242954   2.445   5.142   2.315 -0.5569 -1.3122  1.0473
 7107TIP3   OH242955   1.154   3.959   1.294 -0.8189  0.0698 -0.2112
 7107TIP3    H142956   1.086   4.007   1.247 -1.9047  0.3267  1.5360
 7107TIP3    H242957   1.128   3.964   1.386 -1.2637 -4.2524  0.1031
 7108TIP3   OH242958   6.094   0.978   2.657  0.3171 -0.1255  0.1637
 7108TIP3    H142959   6.035   1.009   2.725  0.7871 -1.5801  1.3002
 7108TIP3    H242960   6.170   1.036   2.663 -0.0676  0.3839  0.1790
 7109TIP3   OH242961   1.237   4.584   0.737 -0.0283  0.2883 -0.1821
 7109TIP3    H142962   1.289   4.633   0.801  0.1495  0.2934 -0.3292
 7109TIP3    H242963   1.148   4.618   0.748 -0.0793 -0.0180  0.3606
 7110TIP3   OH242964   4.283   5.254   1.661 -0.2340 -0.1227  0.0819
 7110TIP3    H142965   4.321   5.319   1.720 -1.1538 -0.2276  0.8357
 7110TIP3    H242966   4.315   5.170   1.694 -0.5617 -0.1656  0.3002
 7111TIP3   OH242967   6.355   1.651   6.385  0.9735  0.3161 -0.9499
 7111TIP3    H142968   6.312   1.596   6.450  1.2283  1.3887  0.1781
 7111TIP3    H242969   6.449   1.635   6.397  1.1199  1.8483  0.2400
 7112TIP3   OH242970   0.225   6.321   7.906  0.7603  0.2739  0.5604
 7112TIP3    H142971   0.280   6.376   7.850  0.9119 -0.3887  0.0459
 7112TIP3    H242972   0.225   6.235   7.863 -1.0784  0.3842  0.2685
 7113TIP3   OH242973   0.673   6.893   1.560  0.2512  0.3725  0.1327
 7113TIP3    H142974   0.638   6.967   1.511  1.6184  0.8459 -0.1655
 7113TIP3    H242975   0.756   6.925   1.597 -1.1528  0.4047  3.6832
 7114TIP3   OH242976   4.672   4.302   1.165 -0.2680  0.0862 -0.4313
 7114TIP3    H142977   4.617   4.377   1.144  1.9545  2.2744  0.9960
 7114TIP3    H242978   4.690   4.261   1.081  0.5842  2.7771 -1.6535
 7115TIP3   OH242979   0.982   2.294   0.997 -0.0185 -0.1524  0.3991
 7115TIP3    H142980   0.914   2.259   1.055 -2.3921  2.8763 -0.2700
 7115TIP3    H242981   1.032   2.354   1.053  0.5449 -0.5395  0.3151
 7116TIP3   OH242982   0.913   5.496   1.980 -0.0880 -0.6446 -0.2307
 7116TIP3    H142983   0.995   5.475   2.024 -0.0595 -3.4833 -1.4080
 7116TIP3    H242984   0.939   5.541   1.899  0.0669  1.1755  0.7866
 7117TIP3   OH242985   0.470   2.734   1.226  0.3136  0.0893  0.0454
 7117TIP3    H142986   0.399   2.672   1.207  0.1196  0.3816 -0.1890
 7117TIP3    H242987   0.521   2.691   1.294 -0.0284 -0.1695  0.1427
 7118TIP3   OH242988   3.797   2.447   2.069  0.5133 -0.4992  0.0814
 7118TIP3    H142989   3.851   2.521   2.040 -1.8662  2.1720  2.0019
 7118TIP3    H242990   3.772   2.468   2.159 -1.7865 -2.7409  0.0881
 7119TIP3   OH242991   4.956   2.127   0.155 -1.0693 -0.2918  0.3810
 7119TIP3    H142992   4.958   2.153   0.063  0.5868 -0.7994  0.2503
 7119TIP3    H242993   4.993   2.201   0.202  0.8348 -1.1585  0.3132
 7120TIP3   OH242994   1.044   0.271   2.001  0.4775 -0.5870  0.7023
 7120TIP3    H142995   0.983   0.331   1.957  1.3938  0.2933  0.5966
 7120TIP3    H242996   0.988   0.203   2.039 -0.6043  0.4450  1.0016
 7121TIP3   OH242997   0.276   2.251   7.611  0.6977  0.4413  0.5000
 7121TIP3    H142998   0.278   2.257   7.516  1.3039  2.8091  0.5920
 7121TIP3    H242999   0.364   2.221   7.635  0.6091  0.0424  0.3346
 7122TIP3   OH243000   6.314   2.583   6.630  0.0034  0.3620 -0.4146
 7122TIP3    H143001   6.393   2.585   6.684  0.4857 -0.5330 -1.0517
 7122TIP3    H243002   6.339   2.533   6.552 -0.8025  1.2531 -1.2766
 7123TIP3   OH243003   2.817   2.983   7.836 -0.2624  0.0496  0.0861
 7123TIP3    H143004   2.887   3.029   7.882 -0.3384  1.3510 -1.0606
 7123TIP3    H243005   2.737   3.025   7.867 -0.4213 -0.1876 -0.0055
 7124TIP3   OH243006   2.396   6.086   2.283 -0.1743 -0.2818 -0.6697
 7124TIP3    H143007   2.312   6.040   2.282  0.0692 -0.7280 -1.1290
 7124TIP3    H243008   2.380   6.168   2.236 -0.8456  0.5543  0.9494
 7125TIP3   OH243009   4.084   5.943   1.196 -0.0849  0.2027  0.0176
 7125TIP3    H143010   4.032   5.942   1.276  0.4316  0.7886  0.3717
 7125TIP3    H243011   4.036   6.000   1.136  0.3529  1.0984  0.4972
 7126TIP3   OH243012   3.827   4.257   7.371  0.3765  0.4349  0.3444
 7126TIP3    H143013   3.855   4.205   7.295  0.2532 -0.6374  1.0079
 7126TIP3    H243014   3.774   4.327   7.334  0.6467  0.1621 -0.5949
 7127TIP3   OH243015   1.663   2.123   1.429 -0.6843 -0.0484 -0.6525
 7127TIP3    H143016   1.740   2.077   1.463 -0.7549  0.4782  0.2700
 7127TIP3    H243017   1.695   2.211   1.409 -1.2188  0.4712  0.6252
 7128TIP3   OH243018   3.772   5.814   2.408 -0.5780 -0.1680 -0.1975
 7128TIP3    H143019   3.821   5.837   2.487  0.2524 -0.5130 -0.5997
 7128TIP3    H243020   3.711   5.887   2.395 -0.1667  0.2725  0.3098
 7129TIP3   OH243021   5.474   5.125   1.406  0.2065 -0.2792 -0.1299
 7129TIP3    H143022   5.549   5.171   1.369 -0.8524  0.2724 -1.6783
 7129TIP3    H243023   5.462   5.163   1.493  0.9191  0.5392 -0.3854
 7130TIP3   OH243024   4.960   2.865   7.780  0.4354 -0.6525  0.1568
 7130TIP3    H143025   4.901   2.928   7.738  1.6168  0.2067 -0.2856
 7130TIP3    H243026   5.021   2.920   7.829  1.6126 -1.4458 -0.3968
 7131TIP3   OH243027   6.295   4.482   1.454 -0.0996  0.3764 -0.5364
 7131TIP3    H143028   6.236   4.495   1.528 -0.6851  0.7893 -1.0623
 7131TIP3    H243029   6.242   4.500   1.377  0.4809 -0.1130 -1.0711
 7132TIP3   OH243030   6.350   4.618   7.787 -0.1575 -0.6573  0.1340
 7132TIP3    H143031   6.392   4.626   7.872  1.3693 -0.6838 -0.5984
 7132TIP3    H243032   6.421   4.621   7.723 -1.3648  1.1078 -1.2681
 7133TIP3   OH243033   4.101   4.137   1.885 -0.6267 -0.2766  0.4794
 7133TIP3    H143034   4.042   4.065   1.864  0.6813 -2.4126  3.3699
 7133TIP3    H243035   4.063   4.177   1.963 -0.5569  1.2804 -0.2468
 7134TIP3   OH243036   1.548   4.197   0.025 -0.0371 -0.3694 -0.1088
 7134TIP3    H143037   1.569   4.273   0.080  0.3825 -1.3557  1.1399
 7134TIP3    H243038   1.492   4.233  -0.044  0.7546  1.2114  0.0057
 7135TIP3   OH243039   0.813   6.468   3.001 -0.4080  0.0449 -0.6364
 7135TIP3    H143040   0.841   6.542   2.947  0.6672 -0.2700 -0.5364
 7135TIP3    H243041   0.726   6.446   2.967 -0.5133  0.9963 -1.0306
 7136TIP3   OH243042   1.090   1.356   1.702  0.1900 -0.3170 -0.0594
 7136TIP3    H143043   1.138   1.295   1.757 -2.1153 -0.6770  1.6981
 7136TIP3    H243044   0.998   1.331   1.713 -0.5467  1.1289 -2.2378
 7137TIP3   OH243045   3.049   6.184   0.821 -0.5460  0.2310 -0.0526
 7137TIP3    H143046   3.058   6.231   0.904  1.0083  0.5419 -0.3623
 7137TIP3    H243047   2.984   6.116   0.838  1.7974 -1.5978  2.3090
 7138TIP3   OH243048   6.067   4.173   7.812 -0.1663  0.0421  0.3666
 7138TIP3    H143049   6.113   4.202   7.733  1.4874  1.1328  1.6787
 7138TIP3    H243050   6.095   4.082   7.823 -1.5728 -0.6120 -1.0752
 7139TIP3   OH243051   1.011   0.333   8.078 -0.7222  0.6344 -0.2076
 7139TIP3    H143052   1.064   0.404   8.116 -0.8958  0.5904  0.1160
 7139TIP3    H243053   0.990   0.277   8.152 -0.7563  0.3499 -0.4315
 7140TIP3   OH243054   2.638   5.956   1.300 -1.0884  0.0555  0.5538
 7140TIP3    H143055   2.557   5.909   1.283 -0.6982 -0.7862  0.9417
 7140TIP3    H243056   2.661   5.996   1.216 -1.3533 -0.5733  0.1752
 7141TIP3   OH243057   5.627   4.919   1.038  0.3134  0.0427  0.1534
 7141TIP3    H143058   5.541   4.946   1.008  0.4935 -0.5446 -0.9170
 7141TIP3    H243059   5.683   4.996   1.023  0.3475 -0.1611 -0.7977
 7142TIP3   OH243060   2.666   1.508   6.817 -0.0647  0.4516  0.1672
 7142TIP3    H143061   2.729   1.436   6.809  1.0926  1.5180 -0.6259
 7142TIP3    H243062   2.720   1.586   6.823 -1.2586  1.2067  2.2150
 7143TIP3   OH243063   5.325   2.294   0.963 -0.4013 -0.4295  0.2851
 7143TIP3    H143064   5.262   2.236   1.006  0.3872  0.2042  2.4499
 7143TIP3    H243065   5.320   2.376   1.013  1.1537  0.0853 -0.3494
 7144TIP3   OH243066   1.614   1.736   1.963  0.0380 -0.3901 -0.4843
 7144TIP3    H143067   1.575   1.775   2.041 -0.8724  2.4466 -2.1691
 7144TIP3    H243068   1.705   1.720   1.987  0.4668  2.7633  0.5437
 7145TIP3   OH243069   5.690   4.833   7.417 -0.1419  0.4436  0.3187
 7145TIP3    H143070   5.659   4.776   7.347 -0.0548  0.0834  0.5682
 7145TIP3    H243071   5.739   4.902   7.372  0.3239 -0.0532  0.0499
 7146TIP3   OH243072   2.237   6.181   1.280 -0.0929 -0.0721 -0.0406
 7146TIP3    H143073   2.275   6.268   1.270  2.3695 -1.1951 -1.5516
 7146TIP3    H243074   2.169   6.177   1.212  0.4933  0.3504 -0.6717
 7147TIP3   OH243075   4.504   4.352   0.669  0.0516  0.0509 -0.6173
 7147TIP3    H143076   4.497   4.333   0.762  0.3301  1.0476 -0.3823
 7147TIP3    H243077   4.437   4.418   0.652  1.7475  1.9058 -0.5168
 7148TIP3   OH243078   3.062   0.617   6.881 -0.2690 -0.3446 -0.4635
 7148TIP3    H143079   3.134   0.556   6.862  0.1141 -0.3126  0.8104
 7148TIP3    H243080   2.990   0.586   6.827  0.3450 -1.0920 -0.8765
 7149LIG     O143081   5.458   1.435   6.106 -0.2802  0.1615  0.0168
 7149LIG     O243082   5.293   1.267   6.142  0.0335  0.2390 -0.6031
 7149LIG     O343083   5.161   1.357   5.958  0.3309 -0.2737  0.3655
 7149LIG     O443084   5.531   1.291   6.392 -0.3134  0.4793  0.0405
 7149LIG     O543085   5.446   1.554   6.447 -0.5471 -0.2829 -0.2130
 7149LIG     O643086   5.294   1.022   5.969  0.4751  0.1449  1.1255
 7149LIG     O743087   5.095   1.083   6.186 -0.2712 -0.3420 -0.4332
 7149LIG     O843088   4.869   1.215   6.111  0.0248  0.2883 -0.0760
 7149LIG     O943089   5.506   1.070   6.196 -0.4436 -0.2344 -0.4488
 7149LIG    O1043090   5.276   1.628   6.068 -0.3486  0.5265 -0.5150
 7149LIG    O1143091   4.851   1.483   6.110  0.2198  0.7030 -0.2071
 7149LIG     C143092   5.428   1.305   6.168 -0.3261 -0.5736 -0.6879
 7149LIG     C243093   5.413   1.336   6.316  0.5372 -0.5947  0.5086
 7149LIG     C343094   5.398   1.489   6.323 -0.6487 -0.1208  0.1610
 7149LIG     C443095   5.467   1.542   6.202  0.0299  0.0551  0.0287
 7149LIG     C543096   5.267   1.268   6.001  0.3482  0.0476 -0.5237
 7149LIG     C643097   5.207   1.135   5.967  0.4119  0.3703 -0.0602
 7149LIG     C743098   5.073   1.107   6.044  0.3058  0.4391  0.2586
 7149LIG     C843099   4.979   1.219   6.020  0.3855  0.3179  0.3308
 7149LIG     C943100   5.048   1.347   6.043  0.0696  0.3630 -0.1271
 7149LIG    C1043101   5.528   1.194   6.131 -0.8904 -0.4127  0.0107
 7149LIG    C1143102   5.397   1.664   6.129  0.4579  0.3780 -0.3321
 7149LIG    C1243103   4.960   1.469   6.018  0.2768  0.6335  0.3710
 7149LIG     H143104   5.329   1.280   6.360 -0.8139 -0.5668 -1.8400
 7149LIG     H243105   5.292   1.518   6.308 -0.3534 -0.2998 -2.8180
 7149LIG     H343106   5.574   1.561   6.216  0.0102  0.0970  0.1249
 7149LIG     H443107   5.353   1.289   5.934 -0.8986 -0.7545 -2.4394
 7149LIG     H543108   5.179   1.143   5.860  0.4875 -0.3407 -0.1380
 7149LIG     H643109   5.024   1.021   5.994 -1.0491  0.5152  1.3827
 7149LIG     H743110   4.943   1.204   5.916 -1.6909 -2.5046  1.3335
 7149LIG     H843111   5.085   1.345   6.148  0.4600 -0.2155 -0.2735
 7149LIG     H943112   5.522   1.174   6.022  0.3256  0.5190 -0.2640
 7149LIG    H1043113   5.630   1.233   6.153 -0.6258  0.4320 -2.3595
 7149LIG    H1143114   5.383   1.744   6.204 -0.6731  0.5579 -0.7217
 7149LIG    H1243115   5.472   1.692   6.052  3.2083 -1.2052  1.5808
 7149LIG    H1343116   5.021   1.562   6.016 -1.1449  1.5890 -1.2074
 7149LIG    H1443117   4.931   1.462   5.911  2.5517  1.6925 -0.3658
 7149LIG    H1543118   5.513   1.267   6.483 -0.3409 -2.5436 -0.6555
 7149LIG    H1643119   5.428   1.484   6.511 -0.6466 -0.6619 -0.6518
 7149LIG    H1743120   5.346   1.022   6.050  2.4876 -0.8948 -0.0662
 7149LIG    H1843121   5.015   1.043   6.220 -1.4490  0.6770 -1.8776
 7149LIG    H1943122   4.812   1.289   6.091 -0.8624 -0.7984 -1.8318
 7149LIG    H2043123   5.577   1.008   6.182  1.4169  1.9737 -1.4272
 7149LIG    H2143124   5.294   1.544   6.024 -0.8674  0.0175  0.2259
 7149LIG    H2243125   4.883   1.521   6.192  2.3936 -1.4091  0.0420
   6.95263   6.95263   8.52623
