Title
43125
    1CHL1    C3    1   4.788   3.464   6.103  1.0156  0.4675 -0.3986
    1CHL1    H3    2   4.678   3.476   6.101  0.5913 -2.4950  0.0070
    1CHL1    O3    3   4.835   3.463   6.237  0.8014 -0.2976  0.3020
    1CHL1   H3'    4   4.764   3.499   6.291  1.1459  0.4412  0.2646
    1CHL1    C4    5   4.835   3.333   6.028 -0.1086 -0.6338  0.8740
    1CHL1   H4A    6   4.944   3.317   6.042  0.1949 -1.7893 -2.0864
    1CHL1   H4B    7   4.776   3.249   6.071  0.5505 -2.6323 -1.8586
    1CHL1    C5    8   4.816   3.332   5.875  0.5349 -0.8583 -0.3168
    1CHL1    C6    9   4.743   3.231   5.821  0.3066  0.3514  0.5146
    1CHL1    H6   10   4.704   3.152   5.888  0.3553  1.6450  2.1334
    1CHL1    C7   11   4.718   3.218   5.671 -0.1962  1.0252  0.2380
    1CHL1   H7A   12   4.743   3.114   5.639 -1.3293  0.5944  0.6785
    1CHL1   H7B   13   4.610   3.228   5.648 -0.1627  2.7714  0.6783
    1CHL1    C8   14   4.797   3.316   5.592 -0.1722 -0.3998  0.0680
    1CHL1    H8   15   4.901   3.276   5.586 -0.4775 -1.3665  1.0257
    1CHL1   C14   16   4.736   3.327   5.458 -0.1566  0.4068  0.0415
    1CHL1   H14   17   4.640   3.380   5.476 -0.8363 -1.0091  0.7385
    1CHL1   C15   18   4.696   3.202   5.375  0.5565 -0.1555  0.4955
    1CHL1  H15A   19   4.791   3.145   5.359 -1.0553 -2.4982 -1.4478
    1CHL1  H15B   20   4.624   3.128   5.415 -1.9063 -0.1533 -3.4029
    1CHL1   C16   21   4.653   3.264   5.238  1.1234 -0.4931 -0.2384
    1CHL1  H16A   22   4.707   3.208   5.159 -0.3084 -0.0171 -1.6060
    1CHL1  H16B   23   4.545   3.246   5.216  1.5536 -1.3140 -1.7855
    1CHL1   C17   24   4.701   3.411   5.237 -0.1892 -0.3918  0.3520
    1CHL1   H17   25   4.617   3.473   5.274  0.3803  0.5956  0.0350
    1CHL1   C13   26   4.799   3.414   5.357  0.4457 -0.6385 -0.4747
    1CHL1   C18   27   4.936   3.358   5.306 -0.2550  0.0326  0.2997
    1CHL1  H18A   28   4.990   3.443   5.258 -1.3893 -0.0340 -1.1778
    1CHL1  H18B   29   5.000   3.312   5.384  1.5150  3.3927  1.0395
    1CHL1  H18C   30   4.927   3.279   5.228  0.4219  0.8549 -0.6464
    1CHL1   C12   31   4.817   3.553   5.418  0.1091 -0.4039  0.0129
    1CHL1  H12A   32   4.879   3.622   5.357  2.2237 -0.8698  1.5282
    1CHL1  H12B   33   4.720   3.605   5.420  0.8468  0.9894  0.6725
    1CHL1   C11   34   4.872   3.555   5.560 -0.9610 -0.0635 -0.0116
    1CHL1  H11A   35   4.982   3.536   5.559 -1.1087 -0.9554 -1.5419
    1CHL1  H11B   36   4.865   3.661   5.593 -0.4626 -0.4754  1.5215
    1CHL1    C9   37   4.809   3.454   5.654 -0.3450 -0.5593 -0.0604
    1CHL1    H9   38   4.703   3.486   5.663  0.4425  1.7126  3.2495
    1CHL1   C10   39   4.872   3.450   5.798 -0.0195 -0.5663  0.4954
    1CHL1   C19   40   5.025   3.435   5.798 -0.2244  0.1489  0.2625
    1CHL1  H19A   41   5.069   3.527   5.754  0.0484  1.0491  2.2827
    1CHL1  H19B   42   5.075   3.417   5.896  1.1499  1.6848 -0.0979
    1CHL1  H19C   43   5.049   3.345   5.738 -0.4554 -0.4427  1.0364
    1CHL1    C1   44   4.831   3.582   5.871  0.0419  0.8447 -0.5234
    1CHL1   H1A   45   4.887   3.670   5.830 -0.9362  1.4202 -0.6551
    1CHL1   H1B   46   4.725   3.609   5.853 -0.7195 -1.0295  0.8768
    1CHL1    C2   47   4.838   3.584   6.025  0.2454  1.0100  0.0332
    1CHL1   H2A   48   4.778   3.672   6.058 -1.5165 -0.1603  0.0673
    1CHL1   H2B   49   4.946   3.596   6.047  1.2505 -1.3403 -2.9103
    1CHL1   C20   50   4.744   3.462   5.095 -0.0545  0.2006  0.6652
    1CHL1   H20   51   4.824   3.393   5.062 -0.2305 -0.1376  0.9390
    1CHL1   C21   52   4.816   3.600   5.092  0.0315  0.7536  0.0323
    1CHL1  H21A   53   4.759   3.685   5.135 -1.1365  0.1651 -0.3082
    1CHL1  H21B   54   4.843   3.627   4.987 -0.8115 -0.7099 -0.5945
    1CHL1  H21C   55   4.915   3.580   5.139 -0.3317 -0.9166  0.1337
    1CHL1   C22   56   4.632   3.459   4.990 -0.3858  0.0895 -0.1747
    1CHL1  H22A   57   4.573   3.364   4.994 -0.7930  0.3768  1.1862
    1CHL1  H22B   58   4.565   3.546   5.006 -0.6341 -0.0059 -0.6860
    1CHL1   C23   59   4.680   3.466   4.845 -0.3517 -0.5597 -0.1691
    1CHL1  H23A   60   4.718   3.569   4.830 -0.1586 -0.0992  2.8508
    1CHL1  H23B   61   4.766   3.396   4.834 -0.5610 -0.7711 -0.4653
    1CHL1   C24   62   4.565   3.444   4.742 -0.2899 -0.0226 -0.3517
    1CHL1  H24A   63   4.533   3.338   4.740 -1.9878  0.4278  0.4073
    1CHL1  H24B   64   4.472   3.503   4.761  0.0936  0.8505 -1.0721
    1CHL1   C25   65   4.616   3.484   4.599  0.1072  0.4946 -0.8579
    1CHL1   H25   66   4.661   3.585   4.591 -1.4665  1.2129 -1.0653
    1CHL1   C26   67   4.723   3.377   4.560 -0.4559  0.7225 -0.1531
    1CHL1  H26A   68   4.756   3.402   4.456  1.5209  1.3141  0.5726
    1CHL1  H26B   69   4.817   3.390   4.617 -0.9010  1.3915  0.4361
    1CHL1  H26C   70   4.679   3.275   4.571 -1.3687  1.0755 -0.4574
    1CHL1   C27   71   4.502   3.489   4.507  0.1641  0.4057  0.3711
    1CHL1  H27A   72   4.440   3.579   4.528 -1.0756 -0.7307  1.8495
    1CHL1  H27B   73   4.535   3.497   4.401  3.2850 -1.2806  1.1057
    1CHL1  H27C   74   4.451   3.392   4.527  0.8386 -0.0269 -0.0042
    2CHL1    C3   75   5.234   3.034   6.081 -0.4731  0.5402 -0.3574
    2CHL1    H3   76   5.127   3.042   6.107 -0.5475 -2.2720  0.5980
    2CHL1    O3   77   5.302   3.049   6.204 -0.5558 -0.5302 -0.0830
    2CHL1   H3'   78   5.327   3.141   6.213  0.5517 -0.6834 -1.2119
    2CHL1    C4   79   5.273   2.898   6.035  0.8879 -0.1816 -0.3054
    2CHL1   H4A   80   5.382   2.883   6.022  0.9984  0.0788  0.3121
    2CHL1   H4B   81   5.231   2.829   6.111  1.4570 -0.4754 -0.2520
    2CHL1    C5   82   5.192   2.880   5.902 -0.0792  0.1702 -0.0269
    2CHL1    C6   83   5.092   2.791   5.899  0.3258 -0.4210  0.8109
    2CHL1    H6   84   5.077   2.735   5.992 -0.8006  0.0070  0.9092
    2CHL1    C7   85   5.002   2.771   5.777 -0.6458 -0.0829 -0.6182
    2CHL1   H7A   86   4.978   2.663   5.771 -1.8142  0.1222  0.1121
    2CHL1   H7B   87   4.905   2.819   5.801 -0.4551  0.1762 -0.3635
    2CHL1    C8   88   5.075   2.824   5.645 -0.9077 -0.3806 -0.7009
    2CHL1    H8   89   5.159   2.759   5.612  0.6139  0.9388  0.3953
    2CHL1   C14   90   4.976   2.824   5.533  0.0260  1.1024 -0.4743
    2CHL1   H14   91   4.897   2.896   5.563 -0.3393  1.7155 -2.7409
    2CHL1   C15   92   4.903   2.693   5.499  0.7830  0.0721  0.1227
    2CHL1  H15A   93   4.982   2.619   5.475 -1.2878 -2.3303  0.1636
    2CHL1  H15B   94   4.831   2.660   5.577  0.2229  1.2141  0.1055
    2CHL1   C16   95   4.837   2.721   5.368 -0.2752  0.0320  0.6733
    2CHL1  H16A   96   4.861   2.645   5.291  2.5470  1.7023 -0.2266
    2CHL1  H16B   97   4.727   2.733   5.384 -0.3252  1.8288 -0.6241
    2CHL1   C17   98   4.900   2.858   5.309  0.0242 -0.3649 -0.6384
    2CHL1   H17   99   4.829   2.941   5.331  0.4194 -0.5226  1.4614
    2CHL1   C13  100   5.028   2.879   5.402  0.2760 -0.5726 -0.0246
    2CHL1   C18  101   5.159   2.808   5.344  0.3026  0.3761  0.2790
    2CHL1  H18A  102   5.200   2.860   5.255  0.0548 -1.1982 -0.7971
    2CHL1  H18B  103   5.240   2.789   5.418 -0.0834  0.8951  0.8528
    2CHL1  H18C  104   5.141   2.705   5.308  1.8620  0.5989 -1.2429
    2CHL1   C12  105   5.059   3.027   5.429 -0.0904  0.3078 -1.0443
    2CHL1  H12A  106   5.100   3.088   5.345 -0.5241  1.2449 -0.5840
    2CHL1  H12B  107   4.967   3.079   5.464  0.1591  1.5991 -2.2072
    2CHL1   C11  108   5.166   3.037   5.539  0.4150 -0.0433 -0.2110
    2CHL1  H11A  109   5.263   3.002   5.497 -0.2284 -0.7716 -1.1256
    2CHL1  H11B  110   5.181   3.146   5.557 -0.5328  0.1732 -0.6508
    2CHL1    C9  111   5.128   2.969   5.667  0.2116  0.5782 -0.0894
    2CHL1    H9  112   5.036   3.022   5.700 -1.2061 -1.5168 -0.4900
    2CHL1   C10  113   5.225   2.985   5.794  0.9846  0.0603  0.5925
    2CHL1   C19  114   5.369   2.951   5.752  0.2315  0.4757  0.2284
    2CHL1  H19A  115   5.444   2.954   5.834 -1.4213 -3.7277  2.1872
    2CHL1  H19B  116   5.364   2.846   5.717  2.1731  0.8705 -1.3709
    2CHL1  H19C  117   5.408   3.023   5.677 -0.6198  2.3198  1.4769
    2CHL1    C1  118   5.216   3.129   5.848 -0.4713  0.2863 -0.6802
    2CHL1   H1A  119   5.255   3.204   5.776  1.5557 -1.7710 -1.8844
    2CHL1   H1B  120   5.111   3.155   5.875 -0.5986 -0.0576 -0.8373
    2CHL1    C2  121   5.287   3.149   5.983  0.0660 -0.1610  0.3392
    2CHL1   H2A  122   5.275   3.252   6.022 -1.3532 -0.5819  1.0890
    2CHL1   H2B  123   5.394   3.125   5.965  0.0728 -1.1142  1.4962
    2CHL1   C20  124   4.925   2.855   5.155 -0.1330  0.5449  0.3873
    2CHL1   H20  125   5.001   2.773   5.144 -0.2767  0.4400  0.1735
    2CHL1   C21  126   4.979   2.985   5.099  0.7093 -0.4688  0.2228
    2CHL1  H21A  127   4.904   3.056   5.140  0.9014  1.3203 -2.2846
    2CHL1  H21B  128   4.979   2.982   4.988  0.9358 -1.9723  0.2379
    2CHL1  H21C  129   5.084   3.011   5.126  0.0458  0.2612  2.2907
    2CHL1   C22  130   4.794   2.823   5.075 -0.0276 -0.3308 -0.7705
    2CHL1  H22A  131   4.735   2.745   5.129 -0.4507  0.1974 -0.4661
    2CHL1  H22B  132   4.737   2.917   5.069 -0.6733 -0.2880  3.2225
    2CHL1   C23  133   4.812   2.772   4.928  0.5864  0.1038 -1.1459
    2CHL1  H23A  134   4.715   2.773   4.875 -1.5510 -1.5201  2.3792
    2CHL1  H23B  135   4.868   2.841   4.861 -0.3915  2.2213  0.1053
    2CHL1   C24  136   4.867   2.631   4.922  0.4207  0.2685  0.5137
    2CHL1  H24A  137   4.977   2.625   4.934  0.7660  2.8113 -0.6381
    2CHL1  H24B  138   4.826   2.570   5.005  1.6450 -0.8419  0.3311
    2CHL1   C25  139   4.840   2.559   4.795  0.7775 -0.0575 -0.4276
    2CHL1   H25  140   4.857   2.638   4.719  0.0404 -1.1245 -1.7427
    2CHL1   C26  141   4.946   2.444   4.768 -0.1581 -0.5875 -0.3667
    2CHL1  H26A  142   5.047   2.491   4.768 -0.1914 -0.4787  1.3018
    2CHL1  H26B  143   4.948   2.372   4.853 -0.4727  0.3305  0.4294
    2CHL1  H26C  144   4.920   2.391   4.673 -3.0450  1.1816 -0.6719
    2CHL1   C27  145   4.694   2.506   4.766 -0.2644  0.3462 -0.3550
    2CHL1  H27A  146   4.687   2.442   4.676 -1.4089 -0.4865  0.2881
    2CHL1  H27B  147   4.656   2.450   4.855 -2.8842  2.0244 -0.3068
    2CHL1  H27C  148   4.615   2.584   4.763 -1.5471 -0.4086  4.3505
    3CHL1    C3  149   0.198   2.619   6.122  0.3449 -0.7384  1.0512
    3CHL1    H3  150   0.097   2.609   6.076  2.0649 -0.6555 -3.1238
    3CHL1    O3  151   0.187   2.579   6.250  0.2488 -0.7726 -0.4339
    3CHL1   H3'  152   0.220   2.489   6.252  0.7962 -0.5682  0.7134
    3CHL1    C4  153   0.292   2.520   6.042  0.0890 -0.1652 -0.2788
    3CHL1   H4A  154   0.388   2.536   6.095  1.2060  2.2048 -2.7668
    3CHL1   H4B  155   0.271   2.414   6.067  0.8672 -0.1013  0.7118
    3CHL1    C5  156   0.307   2.553   5.898  0.0759  0.5129 -0.3658
    3CHL1    C6  157   0.275   2.463   5.806 -0.1606  0.2827 -0.5071
    3CHL1    H6  158   0.237   2.362   5.827  2.7502 -0.7115  0.4239
    3CHL1    C7  159   0.285   2.488   5.661 -0.6653  0.1362  0.4563
    3CHL1   H7A  160   0.343   2.403   5.620 -1.5171 -1.0583  1.6451
    3CHL1   H7B  161   0.188   2.485   5.607 -0.4671 -1.1044  0.1478
    3CHL1    C8  162   0.372   2.611   5.629 -0.1927 -0.7284  0.5578
    3CHL1    H8  163   0.478   2.582   5.645 -0.1256 -0.9963 -0.3234
    3CHL1   C14  164   0.349   2.646   5.478  0.4692 -0.2540 -0.1464
    3CHL1   H14  165   0.242   2.676   5.473  1.1671  2.5413 -5.5002
    3CHL1   C15  166   0.370   2.535   5.374 -0.0535 -0.3432  0.1934
    3CHL1  H15A  167   0.464   2.484   5.404 -0.2198 -0.1599  1.0731
    3CHL1  H15B  168   0.276   2.475   5.383  0.0603 -0.9451 -2.1014
    3CHL1   C16  169   0.375   2.615   5.239 -0.9593  0.0249  0.7674
    3CHL1  H16A  170   0.466   2.575   5.190 -1.1117 -0.2423  0.6992
    3CHL1  H16B  171   0.279   2.591   5.188 -1.2482 -3.3101  2.5927
    3CHL1   C17  172   0.376   2.767   5.278  0.0700 -0.1207 -0.0302
    3CHL1   H17  173   0.271   2.804   5.288  0.2144 -0.0533  1.4477
    3CHL1   C13  174   0.424   2.768   5.427 -0.1545  0.4155 -1.1363
    3CHL1   C18  175   0.581   2.749   5.430  0.7089 -0.2654 -0.3738
    3CHL1  H18A  176   0.612   2.723   5.534 -1.9898 -0.2302  0.5142
    3CHL1  H18B  177   0.593   2.672   5.350 -0.9004  2.0419 -3.0259
    3CHL1  H18C  178   0.645   2.837   5.408 -0.5527  0.9398  0.6183
    3CHL1   C12  179   0.388   2.884   5.520  0.4950  0.2538 -0.0152
    3CHL1  H12A  180   0.441   2.974   5.484 -0.5862  0.2294 -1.7570
    3CHL1  H12B  181   0.279   2.902   5.511  0.5821  0.7086 -0.1557
    3CHL1   C11  182   0.412   2.854   5.673 -0.2369  0.5171  0.6986
    3CHL1  H11A  183   0.523   2.850   5.684  0.0861  1.6725 -1.4607
    3CHL1  H11B  184   0.367   2.933   5.737  0.1450 -0.9871  2.9349
    3CHL1    C9  185   0.336   2.725   5.712  0.2962  0.5361 -0.3693
    3CHL1    H9  186   0.229   2.746   5.692  0.2221 -0.3998 -1.0096
    3CHL1   C10  187   0.355   2.696   5.866  0.5110  0.2894  0.4208
    3CHL1   C19  188   0.508   2.705   5.912 -0.1454 -0.1276  0.0502
    3CHL1  H19A  189   0.540   2.689   6.017  1.7936  2.2607 -0.0676
    3CHL1  H19B  190   0.567   2.632   5.853  0.5400  0.9559 -0.6343
    3CHL1  H19C  191   0.554   2.804   5.895  3.1930 -1.3046  1.3901
    3CHL1    C1  192   0.270   2.796   5.953 -0.3250 -0.4510 -0.5832
    3CHL1   H1A  193   0.332   2.888   5.954 -0.1373 -0.5058  2.2011
    3CHL1   H1B  194   0.171   2.809   5.904 -0.9926  5.1916  1.4805
    3CHL1    C2  195   0.253   2.757   6.100  0.7884 -0.1144 -0.4994
    3CHL1   H2A  196   0.186   2.832   6.148  0.8717  0.0586 -0.6492
    3CHL1   H2B  197   0.353   2.765   6.148  0.8926  2.7169 -1.0150
    3CHL1   C20  198   0.441   2.874   5.183 -0.3617 -0.4218 -0.0279
    3CHL1   H20  199   0.542   2.904   5.216 -1.3857  1.3786  1.6532
    3CHL1   C21  200   0.347   2.996   5.195  0.3166  0.2163  0.2866
    3CHL1  H21A  201   0.259   2.987   5.129 -0.9346  1.6707  1.6847
    3CHL1  H21B  202   0.394   3.096   5.180  1.7725  0.0533  3.1292
    3CHL1  H21C  203   0.310   3.021   5.296  0.5323  4.4803 -0.5046
    3CHL1   C22  204   0.455   2.842   5.036  0.0957  1.0973 -0.7596
    3CHL1  H22A  205   0.511   2.745   5.032 -0.2674  0.8224  0.5237
    3CHL1  H22B  206   0.356   2.826   4.988 -1.2679  1.8230  1.6597
    3CHL1   C23  207   0.545   2.934   4.962 -0.1506 -0.5801  0.2160
    3CHL1  H23A  208   0.476   3.015   4.931  0.5062 -0.3315 -0.6471
    3CHL1  H23B  209   0.634   2.965   5.022 -0.3557  0.9112 -0.2099
    3CHL1   C24  210   0.588   2.880   4.820 -0.2744 -0.6467  0.1029
    3CHL1  H24A  211   0.617   2.776   4.848 -1.0555 -0.3753  2.0992
    3CHL1  H24B  212   0.509   2.862   4.745  0.4048 -3.1720 -0.0789
    3CHL1   C25  213   0.699   2.964   4.759 -0.3680  0.0543 -0.1025
    3CHL1   H25  214   0.786   2.979   4.826 -0.0976  0.1874 -0.4824
    3CHL1   C26  215   0.752   2.884   4.631  0.0262  0.0674 -0.6884
    3CHL1  H26A  216   0.781   2.778   4.652 -2.5661 -0.6313 -0.2791
    3CHL1  H26B  217   0.672   2.874   4.554 -0.6587 -0.2006  0.0493
    3CHL1  H26C  218   0.840   2.937   4.588 -0.2049 -0.1825 -1.4930
    3CHL1   C27  219   0.649   3.099   4.711  0.6819  0.5441 -0.3513
    3CHL1  H27A  220   0.721   3.159   4.652 -1.3440  2.2397 -1.2145
    3CHL1  H27B  221   0.566   3.084   4.638  0.2944  1.4396 -0.1052
    3CHL1  H27C  222   0.620   3.154   4.803  1.4599  0.3534  0.0145
    4CHL1    C3  223   5.695   3.635   6.008 -0.4632  0.3023 -0.5781
    4CHL1    H3  224   5.793   3.611   5.961  0.1244  2.7007 -0.7178
    4CHL1    O3  225   5.695   3.692   6.138 -0.8031  0.4832  0.3980
    4CHL1   H3'  226   5.764   3.759   6.140 -0.8323  0.4879  1.3977
    4CHL1    C4  227   5.614   3.727   5.907  0.0251  0.6700  0.0397
    4CHL1   H4A  228   5.515   3.730   5.958  1.1146 -1.0579  2.4266
    4CHL1   H4B  229   5.660   3.827   5.894  0.0729  0.4292 -2.1043
    4CHL1    C5  230   5.597   3.657   5.773  0.0165 -0.4222 -0.5340
    4CHL1    C6  231   5.637   3.724   5.662  0.5278  0.2060 -0.1799
    4CHL1    H6  232   5.671   3.829   5.665 -2.3959  1.2815 -1.2402
    4CHL1    C7  233   5.620   3.667   5.524  0.5642 -0.2719  0.8306
    4CHL1   H7A  234   5.595   3.750   5.455  1.3858  1.3738  2.4404
    4CHL1   H7B  235   5.719   3.633   5.485  0.3206  0.3154 -0.3621
    4CHL1    C8  236   5.531   3.535   5.520 -0.3672 -0.2928 -0.0221
    4CHL1    H8  237   5.427   3.573   5.527  0.4381  2.5180 -1.7331
    4CHL1   C14  238   5.559   3.469   5.381  0.4678  0.0659 -0.6369
    4CHL1   H14  239   5.666   3.442   5.395  0.0673 -0.2113  2.6556
    4CHL1   C15  240   5.546   3.548   5.257  0.0950  0.2109  0.4578
    4CHL1  H15A  241   5.451   3.606   5.254 -0.2857 -0.3601  1.1197
    4CHL1  H15B  242   5.636   3.608   5.236  0.9989 -0.7808  1.3353
    4CHL1   C16  243   5.530   3.438   5.153  0.3986  0.2312 -0.3534
    4CHL1  H16A  244   5.443   3.474   5.095 -1.3014 -0.7463  1.4320
    4CHL1  H16B  245   5.625   3.436   5.096  0.4653  3.0117 -0.4527
    4CHL1   C17  246   5.512   3.300   5.227 -0.1268 -0.3822  0.2954
    4CHL1   H17  247   5.611   3.256   5.251 -0.7833 -1.7869  0.6042
    4CHL1   C13  248   5.473   3.339   5.369  0.2212  0.2282  0.2194
    4CHL1   C18  249   5.323   3.365   5.348 -0.0880 -0.3943  0.0039
    4CHL1  H18A  250   5.274   3.407   5.439  0.6218  1.0624 -0.2477
    4CHL1  H18B  251   5.302   3.436   5.265  1.9344 -0.8990 -1.0077
    4CHL1  H18C  252   5.268   3.271   5.328  0.4001 -0.2196 -2.5291
    4CHL1   C12  253   5.514   3.241   5.486  0.4966  0.2886  0.5068
    4CHL1  H12A  254   5.451   3.151   5.469 -0.6762  0.9792  1.1001
    4CHL1  H12B  255   5.621   3.218   5.467  0.4334  1.0664 -0.9109
    4CHL1   C11  256   5.499   3.304   5.620 -0.3236  0.9250  0.2880
    4CHL1  H11A  257   5.392   3.302   5.649 -0.6697 -0.3088 -0.9722
    4CHL1  H11B  258   5.548   3.227   5.683 -0.3356 -0.0520 -0.8483
    4CHL1    C9  259   5.566   3.441   5.638  0.0720  0.1161  0.1433
    4CHL1    H9  260   5.676   3.426   5.630  0.2620 -0.8002  3.1700
    4CHL1   C10  261   5.542   3.509   5.768 -0.1157 -0.2782  0.0056
    4CHL1   C19  262   5.390   3.520   5.794 -0.6041  0.2332  0.0367
    4CHL1  H19A  263   5.359   3.590   5.875 -0.6209 -0.2499  0.4485
    4CHL1  H19B  264   5.326   3.546   5.706 -1.1688  0.9176  0.6378
    4CHL1  H19C  265   5.354   3.418   5.817  0.1278 -0.4719 -1.7497
    4CHL1    C1  266   5.597   3.431   5.882 -0.1689  0.7545  0.2191
    4CHL1   H1A  267   5.540   3.337   5.897  0.6612  0.6413  3.2530
    4CHL1   H1B  268   5.698   3.397   5.851 -0.6309 -1.7288  1.1853
    4CHL1    C2  269   5.618   3.494   6.015  0.0409  0.0146  0.0495
    4CHL1   H2A  270   5.680   3.423   6.074  2.7387  2.7134  0.7478
    4CHL1   H2B  271   5.521   3.516   6.064  0.1951  1.8052 -0.3538
    4CHL1   C20  272   5.426   3.211   5.142 -0.0190  0.7768  0.1566
    4CHL1   H20  273   5.328   3.262   5.126  0.5257  1.9850  0.5409
    4CHL1   C21  274   5.400   3.084   5.224  0.0374  0.0127  0.2614
    4CHL1  H21A  275   5.496   3.030   5.237  1.3576  1.6427 -1.9555
    4CHL1  H21B  276   5.335   3.013   5.169  0.8898 -0.7998  0.2739
    4CHL1  H21C  277   5.345   3.097   5.319 -1.7244  1.0199 -0.8402
    4CHL1   C22  278   5.490   3.169   5.003 -0.5183 -0.5483 -0.5262
    4CHL1  H22A  279   5.589   3.123   5.021 -1.1740 -2.6506 -1.8721
    4CHL1  H22B  280   5.431   3.085   4.961 -0.5443 -0.6447 -0.3026
    4CHL1   C23  281   5.487   3.276   4.898 -0.7295 -0.1559  0.1424
    4CHL1  H23A  282   5.388   3.326   4.890 -0.2399  0.6428 -1.4078
    4CHL1  H23B  283   5.568   3.345   4.931 -1.4123  0.2659  0.9770
    4CHL1   C24  284   5.530   3.236   4.747 -0.6861  0.2645 -0.3479
    4CHL1  H24A  285   5.638   3.212   4.738 -0.7035  0.6305 -1.9820
    4CHL1  H24B  286   5.477   3.140   4.729  1.4735 -1.2654  1.0031
    4CHL1   C25  287   5.497   3.343   4.643 -0.3077 -0.1090  0.5179
    4CHL1   H25  288   5.391   3.367   4.667  0.0188 -0.8952  2.9635
    4CHL1   C26  289   5.585   3.464   4.666 -0.0201 -0.0434 -0.1314
    4CHL1  H26A  290   5.585   3.534   4.579 -0.5440  0.5979  0.3685
    4CHL1  H26B  291   5.541   3.526   4.748 -3.0625 -1.3014 -0.6835
    4CHL1  H26C  292   5.691   3.436   4.681 -0.8898 -3.1378  0.7891
    4CHL1   C27  293   5.507   3.284   4.506 -0.2102 -0.3929  0.2852
    4CHL1  H27A  294   5.615   3.262   4.490 -0.3724  0.8272 -3.4157
    4CHL1  H27B  295   5.447   3.191   4.495 -0.4578 -0.2584  0.5025
    4CHL1  H27C  296   5.462   3.352   4.431 -0.8977 -3.2876 -2.1114
    5CHL1    C3  297   6.132   3.638   5.649 -0.4694 -0.0290  0.1063
    5CHL1    H3  298   6.194   3.549   5.624 -1.0189 -0.0667 -1.1968
    5CHL1    O3  299   6.101   3.638   5.791 -0.3206 -0.0947 -0.1166
    5CHL1   H3'  300   6.025   3.696   5.797 -2.0540 -2.0919 -1.3241
    5CHL1    C4  301   6.206   3.766   5.622 -0.0676  0.2507 -0.5608
    5CHL1   H4A  302   6.149   3.853   5.663 -0.4064 -0.3184  0.2094
    5CHL1   H4B  303   6.296   3.762   5.688 -0.7855 -0.3943  0.4104
    5CHL1    C5  304   6.237   3.798   5.484 -0.4842 -0.2732  0.5924
    5CHL1    C6  305   6.365   3.827   5.436 -0.2955  0.2579 -0.1107
    5CHL1    H6  306   6.449   3.818   5.506  1.5243 -0.7379 -2.3066
    5CHL1    C7  307   6.392   3.876   5.299  0.4403  0.0098  0.1299
    5CHL1   H7A  308   6.442   3.975   5.304  1.2367 -0.4495  3.0217
    5CHL1   H7B  309   6.456   3.806   5.242 -0.0782  1.3346 -2.1969
    5CHL1    C8  310   6.265   3.910   5.215 -0.0346  0.0070  0.1329
    5CHL1    H8  311   6.220   4.006   5.250  0.3095  0.8243 -1.5601
    5CHL1   C14  312   6.298   3.919   5.068 -0.0799  0.4701  0.3094
    5CHL1   H14  313   6.348   3.825   5.035  1.9814  2.5017 -2.9624
    5CHL1   C15  314   6.402   4.023   5.041 -0.1438  0.6096  0.4136
    5CHL1  H15A  315   6.394   4.123   5.088 -0.7229 -0.5596  2.9201
    5CHL1  H15B  316   6.505   3.986   5.061  0.1054  1.4874  0.7962
    5CHL1   C16  317   6.391   4.033   4.885 -0.1093  0.4189 -0.4797
    5CHL1  H16A  318   6.391   4.140   4.856  1.3859  0.5834  0.0092
    5CHL1  H16B  319   6.472   3.977   4.833  0.3197  0.5117  0.0794
    5CHL1   C17  320   6.253   3.963   4.840 -0.3503 -0.5146 -0.0467
    5CHL1   H17  321   6.272   3.863   4.796 -1.6493 -0.6279 -0.3890
    5CHL1   C13  322   6.182   3.949   4.970 -0.1791 -0.3362 -0.2440
    5CHL1   C18  323   6.115   4.080   5.011 -0.3598  0.2753 -0.0271
    5CHL1  H18A  324   6.180   4.170   5.011 -2.1326  1.6391  1.5793
    5CHL1  H18B  325   6.033   4.108   4.943  0.1058  3.6805  0.6501
    5CHL1  H18C  326   6.072   4.070   5.113  1.2978  0.4918  0.7441
    5CHL1   C12  327   6.082   3.834   4.980 -0.2906 -0.3979 -0.3087
    5CHL1  H12A  328   5.986   3.850   4.926 -0.0835  0.2650 -0.4794
    5CHL1  H12B  329   6.140   3.742   4.957 -1.0365 -1.0444  0.3236
    5CHL1   C11  330   6.047   3.802   5.130 -0.5425 -0.2393 -0.0985
    5CHL1  H11A  331   5.972   3.881   5.150 -2.0888 -1.9018  1.0204
    5CHL1  H11B  332   5.975   3.717   5.137 -0.9620  0.1680  0.8161
    5CHL1    C9  333   6.162   3.797   5.238  0.8521 -0.3862  0.2351
    5CHL1    H9  334   6.222   3.706   5.219 -0.5204 -1.8919  2.6120
    5CHL1   C10  335   6.117   3.790   5.391 -0.1594  0.0013  0.6464
    5CHL1   C19  336   6.019   3.908   5.413  0.2448  1.0929  0.0911
    5CHL1  H19A  337   5.923   3.884   5.364 -0.3811 -0.5191  1.9654
    5CHL1  H19B  338   5.985   3.900   5.518 -2.8803  1.1639 -0.8394
    5CHL1  H19C  339   6.038   4.015   5.393 -0.9548  1.0451 -1.4808
    5CHL1    C1  340   6.048   3.648   5.409  0.5427  0.1588 -0.3477
    5CHL1   H1A  341   5.957   3.646   5.345  0.0725  2.3428  0.1638
    5CHL1   H1B  342   6.115   3.564   5.380  0.7913  0.4893 -0.7435
    5CHL1    C2  343   6.002   3.633   5.560  0.3402 -0.1032 -0.0055
    5CHL1   H2A  344   5.963   3.529   5.557  0.5047 -0.1686  0.1508
    5CHL1   H2B  345   5.921   3.696   5.602  1.9838  1.4788  0.9423
    5CHL1   C20  346   6.185   4.048   4.728 -0.8074 -0.2913 -0.0549
    5CHL1   H20  347   6.160   4.150   4.764  2.6690  0.4661  0.5693
    5CHL1   C21  348   6.054   3.989   4.691  0.2112 -0.2293 -0.1460
    5CHL1  H21A  349   5.979   3.998   4.772  1.0207  2.4555  0.4233
    5CHL1  H21B  350   6.053   3.886   4.649 -0.2574 -0.4028  0.2856
    5CHL1  H21C  351   6.012   4.049   4.607  0.0608 -0.1557 -0.0187
    5CHL1   C22  352   6.264   4.081   4.600  0.6042  0.0540 -0.9739
    5CHL1  H22A  353   6.196   4.129   4.526 -3.3033 -1.0071  1.6239
    5CHL1  H22B  354   6.341   4.159   4.618 -0.2809  0.7459 -0.0782
    5CHL1   C23  355   6.327   3.955   4.531  0.0403 -0.1452 -0.5781
    5CHL1  H23A  356   6.401   3.898   4.591 -0.3991  0.3624  0.4539
    5CHL1  H23B  357   6.244   3.888   4.498  0.2083  0.1504 -1.6489
    5CHL1   C24  358   6.391   3.994   4.397 -0.0559 -1.0175 -0.2764
    5CHL1  H24A  359   6.322   4.066   4.347  0.2834 -0.4876  0.0028
    5CHL1  H24B  360   6.487   4.049   4.408 -0.7395  0.1183  0.2128
    5CHL1   C25  361   6.433   3.877   4.309 -0.3601 -0.1887 -0.4148
    5CHL1   H25  362   6.352   3.804   4.332 -0.1800  0.5158  3.0423
    5CHL1   C26  363   6.424   3.920   4.158  0.1325 -0.3714 -0.2292
    5CHL1  H26A  364   6.481   4.012   4.132 -0.5069  0.1598  0.2065
    5CHL1  H26B  365   6.450   3.837   4.089 -0.6595 -0.4867 -0.3943
    5CHL1  H26C  366   6.321   3.954   4.137  0.4102  0.6728  0.0475
    5CHL1   C27  367   6.566   3.814   4.354  0.0406  0.3401  0.6799
    5CHL1  H27A  368   6.586   3.721   4.296 -3.2147  0.2072 -0.4345
    5CHL1  H27B  369   6.645   3.892   4.357 -1.5187  1.9803  0.3203
    5CHL1  H27C  370   6.551   3.772   4.455 -0.9377  1.4581  1.0225
    6CHL1    C3  371   6.391   1.263   6.130 -0.3851 -0.2650  0.6208
    6CHL1    H3  372   6.287   1.245   6.096  0.2011 -0.3044 -1.2202
    6CHL1    O3  373   6.398   1.335   6.248 -0.4688  0.1800 -0.2845
    6CHL1   H3'  374   6.488   1.370   6.246 -0.8058  1.0728 -1.3367
    6CHL1    C4  375   6.468   1.125   6.130 -0.7484  0.0961 -0.0530
    6CHL1   H4A  376   6.576   1.137   6.153  0.1175 -4.0031 -1.1599
    6CHL1   H4B  377   6.433   1.062   6.215  0.3295 -0.0696  0.2797
    6CHL1    C5  378   6.456   1.057   5.989  0.5067  0.6680 -0.4223
    6CHL1    C6  379   6.401   0.936   5.979 -0.0512 -0.0592 -0.0334
    6CHL1    H6  380   6.363   0.878   6.064  1.6775 -2.6789 -0.9138
    6CHL1    C7  381   6.404   0.853   5.854  0.6011  0.4383 -0.3918
    6CHL1   H7A  382   6.443   0.752   5.881 -1.1885 -0.4431 -0.9146
    6CHL1   H7B  383   6.303   0.829   5.814 -1.7310  2.7803  3.4268
    6CHL1    C8  384   6.496   0.918   5.745  0.0994  0.4644  0.5601
    6CHL1    H8  385   6.599   0.898   5.781 -0.0031  2.1565  1.9598
    6CHL1   C14  386   6.470   0.843   5.616  0.1300 -0.5740 -0.2579
    6CHL1   H14  387   6.368   0.876   5.587  0.7066  2.4902  0.8257
    6CHL1   C15  388   6.459   0.689   5.614  0.2187  0.2576  0.0479
    6CHL1  H15A  389   6.553   0.653   5.662 -0.3944  0.5668  1.5376
    6CHL1  H15B  390   6.368   0.644   5.659 -0.5987  0.6576 -1.1413
    6CHL1   C16  391   6.458   0.664   5.457  0.2921 -0.5197 -0.0627
    6CHL1  H16A  392   6.534   0.585   5.440  0.4235 -1.1857  3.0610
    6CHL1  H16B  393   6.368   0.613   5.418  0.7657 -3.8422  2.7052
    6CHL1   C17  394   6.492   0.798   5.387  0.0420  0.1399  0.0493
    6CHL1   H17  395   6.397   0.851   5.362 -0.2465  0.0478  0.9108
    6CHL1   C13  396   6.551   0.894   5.495  0.7052  0.0311  0.0339
    6CHL1   C18  397   6.692   0.848   5.536  0.0305 -0.4533  0.2853
    6CHL1  H18A  398   6.701   0.740   5.561 -0.1695 -0.7330 -0.7838
    6CHL1  H18B  399   6.753   0.858   5.444 -1.3383 -2.2222 -0.8920
    6CHL1  H18C  400   6.735   0.919   5.610 -0.7195  0.7516 -0.4048
    6CHL1   C12  401   6.532   1.048   5.487  0.4663 -0.3881 -0.3280
    6CHL1  H12A  402   6.602   1.076   5.405  1.8237 -0.7769  0.6644
    6CHL1  H12B  403   6.429   1.063   5.449  1.5436  0.0184 -3.4454
    6CHL1   C11  404   6.558   1.128   5.614  1.0621  0.1667  0.5621
    6CHL1  H11A  405   6.667   1.137   5.633  0.7002  3.7446  1.6071
    6CHL1  H11B  406   6.528   1.232   5.591  3.0225  0.8725  1.0626
    6CHL1    C9  407   6.486   1.069   5.734 -0.3293  0.5196 -0.1474
    6CHL1    H9  408   6.380   1.092   5.711 -0.3049  1.5999  0.7037
    6CHL1   C10  409   6.509   1.142   5.873 -0.5060  0.2881 -0.9581
    6CHL1   C19  410   6.662   1.158   5.880  0.3943  0.6168  0.4197
    6CHL1  H19A  411   6.720   1.067   5.854  0.7097  0.8317  0.3770
    6CHL1  H19B  412   6.699   1.234   5.808 -0.3756  0.6894  0.0896
    6CHL1  H19C  413   6.689   1.196   5.981 -1.8292  3.1353  0.1764
    6CHL1    C1  414   6.442   1.280   5.879 -0.2614  0.6312 -0.1816
    6CHL1   H1A  415   6.481   1.348   5.800  0.9767 -1.7150 -1.7188
    6CHL1   H1B  416   6.336   1.257   5.858 -0.5072  2.5940 -1.4820
    6CHL1    C2  417   6.452   1.355   6.011  0.9571  0.7278 -0.7193
    6CHL1   H2A  418   6.403   1.454   6.007  2.3516  1.6338  1.9281
    6CHL1   H2B  419   6.560   1.376   6.027  0.7748  0.5761  0.8684
    6CHL1   C20  420   6.561   0.764   5.250 -0.3059  0.3484  0.1380
    6CHL1   H20  421   6.658   0.718   5.280 -0.3495  0.6211  0.7081
    6CHL1   C21  422   6.586   0.902   5.187 -0.1351 -0.0342  0.2810
    6CHL1  H21A  423   6.495   0.955   5.152  0.7605  0.2314 -1.7984
    6CHL1  H21B  424   6.643   0.900   5.092 -0.1016  2.4739  0.2000
    6CHL1  H21C  425   6.651   0.964   5.252 -1.4054  0.9260  0.6770
    6CHL1   C22  426   6.494   0.671   5.149 -0.2382  0.2208 -0.0802
    6CHL1  H22A  427   6.482   0.567   5.187  1.5104 -0.1842 -0.5758
    6CHL1  H22B  428   6.392   0.711   5.128  0.6079  3.1577  0.8623
    6CHL1   C23  429   6.573   0.641   5.015 -0.2756  0.0260  0.0594
    6CHL1  H23A  430   6.565   0.738   4.962 -0.3685  0.0069  0.0375
    6CHL1  H23B  431   6.675   0.607   5.043  0.3636  0.2947 -1.7962
    6CHL1   C24  432   6.514   0.531   4.923 -0.4444 -0.2085  0.0557
    6CHL1  H24A  433   6.529   0.436   4.977 -2.2460 -0.4820  0.1620
    6CHL1  H24B  434   6.405   0.554   4.919  0.2717  4.0819  0.3386
    6CHL1   C25  435   6.578   0.516   4.776 -0.0654 -0.2696  0.4081
    6CHL1   H25  436   6.555   0.602   4.710  0.3530 -0.0910  0.4918
    6CHL1   C26  437   6.726   0.502   4.796  0.0344  0.2119  0.2183
    6CHL1  H26A  438   6.746   0.434   4.882 -3.0486 -0.2211  0.7163
    6CHL1  H26B  439   6.779   0.465   4.705 -1.2025 -0.2346 -0.3347
    6CHL1  H26C  440   6.767   0.600   4.828 -2.1130  1.7497 -1.4354
    6CHL1   C27  441   6.520   0.396   4.702  0.0406  0.1845  0.0321
    6CHL1  H27A  442   6.410   0.394   4.715  0.1610  1.0334  1.3913
    6CHL1  H27B  443   6.546   0.391   4.594 -0.9409 -1.6378 -0.1630
    6CHL1  H27C  444   6.563   0.303   4.746  1.3287  0.0737 -1.4002
    7CHL1    C3  445   1.575   0.458   7.019  0.2012 -0.0806  0.5423
    7CHL1    H3  446   1.493   0.384   7.029 -0.3287  0.2377 -1.1455
    7CHL1    O3  447   1.632   0.496   7.141 -0.2762 -0.6386 -0.2885
    7CHL1   H3'  448   1.684   0.572   7.115 -0.9532  0.4420  1.3028
    7CHL1    C4  449   1.690   0.387   6.942  0.2572  0.3185  0.1232
    7CHL1   H4A  450   1.775   0.457   6.950 -0.7356  1.8715 -1.9790
    7CHL1   H4B  451   1.709   0.291   6.996 -0.2562 -0.3015 -0.7616
    7CHL1    C5  452   1.647   0.364   6.796 -0.3120  0.3993  0.4328
    7CHL1    C6  453   1.662   0.247   6.731 -0.1723  0.8734 -0.1479
    7CHL1    H6  454   1.710   0.163   6.785 -0.8413  0.9481  0.5812
    7CHL1    C7  455   1.629   0.210   6.592  0.3386 -0.0094  0.0870
    7CHL1   H7A  456   1.711   0.162   6.534  1.4830  0.6225  1.1328
    7CHL1   H7B  457   1.539   0.146   6.595 -0.3612  0.9904  1.5818
    7CHL1    C8  458   1.583   0.334   6.511 -0.4832  0.7189  0.0379
    7CHL1    H8  459   1.679   0.378   6.478  0.1893 -0.9670 -0.3193
    7CHL1   C14  460   1.503   0.282   6.384  0.5162 -0.8658 -0.2364
    7CHL1   H14  461   1.411   0.230   6.419 -0.3058  1.0647  0.6662
    7CHL1   C15  462   1.566   0.173   6.305  0.1726  0.4651  1.1511
    7CHL1  H15A  463   1.673   0.197   6.294  0.5391 -1.1609  0.8656
    7CHL1  H15B  464   1.551   0.067   6.335 -1.9380  0.3777 -0.0184
    7CHL1   C16  465   1.494   0.187   6.164  0.3141 -0.0637 -0.7192
    7CHL1  H16A  466   1.565   0.192   6.079  1.8392  0.0993  0.5137
    7CHL1  H16B  467   1.425   0.102   6.145  0.2177 -0.3748  0.8673
    7CHL1   C17  468   1.396   0.314   6.172 -0.7334 -0.1952 -0.0006
    7CHL1   H17  469   1.298   0.271   6.203  0.7813 -2.8837  1.3283
    7CHL1   C13  470   1.462   0.397   6.289  0.1838  0.6873  0.2505
    7CHL1   C18  471   1.588   0.468   6.230 -0.2886 -1.1441  0.2687
    7CHL1  H18A  472   1.651   0.527   6.300 -0.3737 -0.6829 -0.0444
    7CHL1  H18B  473   1.665   0.396   6.195  2.5891  1.3472  1.0337
    7CHL1  H18C  474   1.550   0.538   6.153 -2.2678 -0.3280  1.8724
    7CHL1   C12  475   1.375   0.493   6.375  0.1477  0.1236  0.6571
    7CHL1  H12A  476   1.343   0.577   6.309  1.8971 -0.2720 -0.7831
    7CHL1  H12B  477   1.290   0.439   6.420 -1.5897  2.9258  0.9972
    7CHL1   C11  478   1.458   0.553   6.493 -0.0496 -0.1675  0.6431
    7CHL1  H11A  479   1.548   0.612   6.465  0.4996 -0.0395  2.5307
    7CHL1  H11B  480   1.391   0.620   6.550  0.7411  0.4510  0.8666
    7CHL1    C9  481   1.503   0.436   6.586 -0.2352 -0.0298 -0.2900
    7CHL1    H9  482   1.414   0.379   6.622  1.1024 -1.1078  1.5088
    7CHL1   C10  483   1.567   0.483   6.721  0.5291  0.2752  0.0150
    7CHL1   C19  484   1.678   0.584   6.693 -0.3644  0.3661 -0.0253
    7CHL1  H19A  485   1.646   0.689   6.678 -0.2105  0.7589  2.0529
    7CHL1  H19B  486   1.741   0.603   6.782  0.7471  0.2822 -0.7706
    7CHL1  H19C  487   1.726   0.562   6.595 -0.2346 -2.0045  0.4959
    7CHL1    C1  488   1.452   0.544   6.810 -0.9575  0.0878  0.0715
    7CHL1   H1A  489   1.409   0.637   6.768  1.2865  0.9271 -0.5502
    7CHL1   H1B  490   1.373   0.469   6.830 -0.3041 -0.4815  0.6180
    7CHL1    C2  491   1.517   0.583   6.951  0.8973 -0.4598 -0.2265
    7CHL1   H2A  492   1.428   0.611   7.013 -0.5848 -2.7703 -1.1756
    7CHL1   H2B  493   1.581   0.674   6.948 -1.6760  1.4408 -1.4251
    7CHL1   C20  494   1.372   0.372   6.031 -0.5905  0.1347 -0.5840
    7CHL1   H20  495   1.475   0.391   5.994  0.0779 -0.1712  1.0396
    7CHL1   C21  496   1.285   0.498   6.037  0.5820  0.2500 -0.0467
    7CHL1  H21A  497   1.259   0.536   5.936 -0.4062  0.2446  0.1943
    7CHL1  H21B  498   1.342   0.577   6.091 -0.2002  2.2124 -1.9671
    7CHL1  H21C  499   1.195   0.461   6.091  1.2948  0.2708  1.2193
    7CHL1   C22  500   1.302   0.272   5.940  0.1614 -0.2714 -0.8660
    7CHL1  H22A  501   1.366   0.183   5.959  1.0245  0.8276  1.7304
    7CHL1  H22B  502   1.205   0.242   5.984  0.7467  0.6476  1.1299
    7CHL1   C23  503   1.291   0.284   5.789 -0.5545 -0.1988 -0.1775
    7CHL1  H23A  504   1.245   0.194   5.744 -1.3685 -0.1040  0.4363
    7CHL1  H23B  505   1.223   0.371   5.777 -1.1784 -0.4015  1.5432
    7CHL1   C24  506   1.428   0.304   5.714 -0.2298 -0.3347 -0.0398
    7CHL1  H24A  507   1.411   0.345   5.613  3.6712  0.2326 -0.6340
    7CHL1  H24B  508   1.500   0.375   5.761  0.6620 -0.2468 -1.4684
    7CHL1   C25  509   1.509   0.171   5.692 -0.3122  0.1150 -0.3313
    7CHL1   H25  510   1.460   0.088   5.747  1.6807 -0.1559  1.1504
    7CHL1   C26  511   1.515   0.137   5.544 -0.1447  0.7380  0.0709
    7CHL1  H26A  512   1.574   0.045   5.528 -0.1679  0.7977 -0.3744
    7CHL1  H26B  513   1.416   0.109   5.502  0.6267 -0.9842 -0.6673
    7CHL1  H26C  514   1.570   0.219   5.493  0.8387  0.0339 -0.0236
    7CHL1   C27  515   1.653   0.178   5.745  0.1798  0.0369 -0.2356
    7CHL1  H27A  516   1.712   0.240   5.674 -1.3051 -0.5255 -2.0443
    7CHL1  H27B  517   1.641   0.217   5.849 -1.1075  0.0826 -0.3845
    7CHL1  H27C  518   1.700   0.078   5.752  0.9400  0.4790  1.9058
    8CHL1    C3  519   5.565   1.809   5.982  0.3367 -0.0500 -0.5568
    8CHL1    H3  520   5.675   1.824   5.996  0.2890  0.7252 -0.9184
    8CHL1    O3  521   5.503   1.738   6.090  0.1732 -0.2622  0.5195
    8CHL1   H3'  522   5.505   1.644   6.069  0.5030  0.0546 -1.0234
    8CHL1    C4  523   5.514   1.953   5.983  0.0533  0.6260  0.2890
    8CHL1   H4A  524   5.403   1.949   5.975  0.1022  0.5572 -0.4141
    8CHL1   H4B  525   5.526   1.998   6.084  1.4154  1.0068 -0.0298
    8CHL1    C5  526   5.576   2.036   5.870  0.1976  0.1972 -0.2630
    8CHL1    C6  527   5.647   2.147   5.903 -0.0116  0.3094 -0.6213
    8CHL1    H6  528   5.638   2.186   6.006 -0.9156  0.4727 -0.7597
    8CHL1    C7  529   5.730   2.219   5.804  0.1871 -0.4991  0.1122
    8CHL1   H7A  530   5.710   2.328   5.811  1.8775  0.1254 -3.0620
    8CHL1   H7B  531   5.839   2.206   5.818  0.2740 -1.5807 -1.3239
    8CHL1    C8  532   5.692   2.180   5.656  0.4519 -0.6296  0.0031
    8CHL1    H8  533   5.588   2.218   5.641  0.0523 -1.4049  0.7420
    8CHL1   C14  534   5.790   2.241   5.559 -0.3231 -0.1373 -0.1033
    8CHL1   H14  535   5.886   2.194   5.590  1.3378  2.3443 -1.1455
    8CHL1   C15  536   5.818   2.392   5.568 -0.2775  0.0435  0.1782
    8CHL1  H15A  537   5.719   2.442   5.570 -1.2317 -1.7077 -0.9367
    8CHL1  H15B  538   5.882   2.405   5.658  2.7110 -1.3786 -1.6135
    8CHL1   C16  539   5.897   2.412   5.438 -0.3486 -0.3509 -0.7676
    8CHL1  H16A  540   5.857   2.502   5.388  1.1028  0.3383 -0.7422
    8CHL1  H16B  541   6.003   2.432   5.467 -0.2571  1.1017 -2.0007
    8CHL1   C17  542   5.883   2.290   5.350  0.4662 -0.2048 -0.2584
    8CHL1   H17  543   5.971   2.224   5.366 -0.6936 -1.3489  2.0877
    8CHL1   C13  544   5.765   2.207   5.411 -0.2910  0.5796  0.0787
    8CHL1   C18  545   5.630   2.264   5.361 -0.5647 -0.0879  0.1060
    8CHL1  H18A  546   5.616   2.371   5.386 -1.6333  0.4396 -2.4108
    8CHL1  H18B  547   5.620   2.250   5.251  0.5978  0.7437 -0.1262
    8CHL1  H18C  548   5.545   2.210   5.407  0.3114 -0.6016  1.1680
    8CHL1   C12  549   5.789   2.056   5.398 -0.7370  1.1153 -0.4019
    8CHL1  H12A  550   5.786   2.019   5.293 -0.4915  1.0794 -0.3974
    8CHL1  H12B  551   5.893   2.047   5.436 -0.1259 -0.1743 -2.2491
    8CHL1   C11  552   5.685   1.987   5.490 -0.1464 -0.1855 -0.3070
    8CHL1  H11A  553   5.585   1.996   5.443 -0.0189  0.9226 -0.4016
    8CHL1  H11B  554   5.706   1.878   5.490 -0.8531 -0.3321  0.6117
    8CHL1    C9  555   5.689   2.033   5.637 -0.0695  0.1021 -0.2060
    8CHL1    H9  556   5.787   1.994   5.672  0.1602  0.5427 -0.3524
    8CHL1   C10  557   5.581   1.971   5.729 -0.0137 -0.8444 -0.5944
    8CHL1   C19  558   5.439   1.984   5.665  0.1995  0.6660  0.2378
    8CHL1  H19A  559   5.432   1.936   5.565 -4.0386  0.7724  0.3052
    8CHL1  H19B  560   5.365   1.934   5.731  1.0728 -1.6022 -0.4147
    8CHL1  H19C  561   5.404   2.087   5.641  1.6611  0.8912 -1.0567
    8CHL1    C1  562   5.609   1.816   5.748  0.8859  0.6508  1.0476
    8CHL1   H1A  563   5.586   1.765   5.652  0.8194  2.2976  0.1435
    8CHL1   H1B  564   5.719   1.811   5.763  1.3179  2.7071 -0.8746
    8CHL1    C2  565   5.540   1.742   5.853  0.2123 -0.1222  0.0186
    8CHL1   H2A  566   5.578   1.638   5.861  0.3906 -0.1946 -1.3944
    8CHL1   H2B  567   5.432   1.746   5.827  0.7263  0.8140 -2.2208
    8CHL1   C20  568   5.880   2.326   5.204 -0.1292  0.4356 -0.1788
    8CHL1   H20  569   5.786   2.383   5.188 -0.7205 -0.3562  0.3939
    8CHL1   C21  570   5.870   2.201   5.113 -0.1973 -0.1242 -0.0547
    8CHL1  H21A  571   5.772   2.152   5.131 -0.5113 -0.6326 -2.7664
    8CHL1  H21B  572   5.951   2.128   5.134  0.2463  0.5804  0.7638
    8CHL1  H21C  573   5.882   2.233   5.007  1.2537  2.5460  0.8073
    8CHL1   C22  574   6.004   2.403   5.170 -0.1673  0.0472 -0.3595
    8CHL1  H22A  575   6.032   2.486   5.239  2.2831  2.0764 -3.5373
    8CHL1  H22B  576   6.082   2.325   5.162  1.0961  1.1013  0.9926
    8CHL1   C23  577   5.990   2.475   5.035 -0.2069  0.4329  0.4285
    8CHL1  H23A  578   5.960   2.402   4.957  0.0932 -2.7455  3.0683
    8CHL1  H23B  579   5.907   2.549   5.042 -1.0335 -0.4585  0.3058
    8CHL1   C24  580   6.122   2.531   4.984  0.0792  0.1492  0.3292
    8CHL1  H24A  581   6.164   2.597   5.063  0.7309 -0.0416  0.1421
    8CHL1  H24B  582   6.186   2.443   4.962 -0.2218 -0.3898  1.5521
    8CHL1   C25  583   6.119   2.609   4.849 -0.1732  1.1591 -0.7512
    8CHL1   H25  584   6.225   2.627   4.820 -0.4723  0.1492 -2.6045
    8CHL1   C26  585   6.061   2.519   4.733  0.6471  0.6135 -0.0430
    8CHL1  H26A  586   6.073   2.560   4.631  0.4876 -1.1852 -0.8221
    8CHL1  H26B  587   6.113   2.420   4.732  0.2808  0.3982  0.8895
    8CHL1  H26C  588   5.952   2.502   4.747  0.8642 -0.6879  0.1978
    8CHL1   C27  589   6.051   2.749   4.864  0.2044  0.3016  0.1456
    8CHL1  H27A  590   6.058   2.799   4.765 -0.8435 -0.8738 -0.5535
    8CHL1  H27B  591   5.941   2.739   4.870  0.2047  0.0023 -0.2722
    8CHL1  H27C  592   6.086   2.802   4.955  1.4511  0.1903 -0.2481
    9CHL1    C3  593   5.101   0.865   6.195  0.0990  1.0179 -0.0482
    9CHL1    H3  594   4.996   0.830   6.187 -0.1533  1.4360  1.2197
    9CHL1    O3  595   5.140   0.867   6.331 -0.1018 -0.1071  0.7594
    9CHL1   H3'  596   5.233   0.892   6.327 -0.8596  3.2106  1.4275
    9CHL1    C4  597   5.194   0.764   6.118 -0.1259 -0.2638  0.4850
    9CHL1   H4A  598   5.298   0.796   6.141 -0.7103  1.5569  0.7409
    9CHL1   H4B  599   5.192   0.656   6.143 -0.4836 -1.0974 -2.6993
    9CHL1    C5  600   5.163   0.772   5.970 -0.2368 -0.0792 -0.3613
    9CHL1    C6  601   5.132   0.667   5.892  0.1082 -0.5531  0.3809
    9CHL1    H6  602   5.117   0.569   5.939 -2.4470  0.7792  2.6290
    9CHL1    C7  603   5.107   0.664   5.743 -0.3986 -0.6312  0.4049
    9CHL1   H7A  604   5.156   0.575   5.700  0.0443  0.0104 -0.4534
    9CHL1   H7B  605   4.997   0.670   5.725 -0.1670  1.3862 -0.6885
    9CHL1    C8  606   5.165   0.796   5.680 -0.0441  0.2406 -0.4100
    9CHL1    H8  607   5.275   0.787   5.671  0.7335  4.0194  2.6757
    9CHL1   C14  608   5.107   0.803   5.545 -0.4268  1.3610 -0.2325
    9CHL1   H14  609   4.996   0.801   5.551 -0.3914 -1.6863  1.2353
    9CHL1   C15  610   5.127   0.673   5.462 -0.4898 -0.6058  0.8441
    9CHL1  H15A  611   5.229   0.629   5.463  1.1398  2.7857 -0.4473
    9CHL1  H15B  612   5.061   0.590   5.496 -0.0744 -0.7239  1.3608
    9CHL1   C16  613   5.093   0.723   5.319 -0.2089  0.9892  0.0216
    9CHL1  H16A  614   5.171   0.681   5.252  1.0170  4.1505 -0.6857
    9CHL1  H16B  615   4.997   0.691   5.274  0.0843  1.2088 -0.7685
    9CHL1   C17  616   5.098   0.881   5.326  0.3028  0.3705  0.5199
    9CHL1   H17  617   4.991   0.911   5.326 -0.0829 -0.8076 -1.2388
    9CHL1   C13  618   5.158   0.920   5.465  0.7750 -0.2348 -0.0419
    9CHL1   C18  619   5.310   0.912   5.460 -0.5729  0.5408 -0.8235
    9CHL1  H18A  620   5.349   0.927   5.563  0.1107  0.3572 -1.0495
    9CHL1  H18B  621   5.354   0.818   5.422  0.1392  0.0103  1.2462
    9CHL1  H18C  622   5.355   0.996   5.403 -1.7901  2.6101  1.0956
    9CHL1   C12  623   5.096   1.041   5.542 -0.1986 -0.0887  0.6781
    9CHL1  H12A  624   5.138   1.133   5.496 -0.0345 -0.4889  0.0180
    9CHL1  H12B  625   4.986   1.049   5.536  0.0279  3.2475 -2.3689
    9CHL1   C11  626   5.131   1.049   5.691 -0.0631  0.8861  0.6126
    9CHL1  H11A  627   5.235   1.088   5.701 -0.1330  1.0004  0.9043
    9CHL1  H11B  628   5.067   1.131   5.729 -0.6955  0.6995 -0.0380
    9CHL1    C9  629   5.115   0.916   5.764  0.0800  0.1175 -0.1890
    9CHL1    H9  630   5.005   0.905   5.775 -0.0471  1.1958 -0.2202
    9CHL1   C10  631   5.171   0.908   5.914 -0.0248 -0.2876  0.1233
    9CHL1   C19  632   5.322   0.942   5.906 -0.4827 -0.6153 -0.1476
    9CHL1  H19A  633   5.340   1.043   5.864  1.9759 -1.3272 -0.9839
    9CHL1  H19B  634   5.382   0.937   6.000  3.1845 -0.1244 -2.2633
    9CHL1  H19C  635   5.382   0.880   5.836 -0.8066 -0.0250 -0.9496
    9CHL1    C1  636   5.092   1.018   5.999  0.2746 -0.1168  0.3945
    9CHL1   H1A  637   5.113   1.122   5.967 -0.4827  1.2146  3.7760
    9CHL1   H1B  638   4.987   1.000   5.965  0.7067  0.1246 -1.1161
    9CHL1    C2  639   5.113   1.008   6.143  0.7220  0.1623 -0.5310
    9CHL1   H2A  640   5.038   1.060   6.206  2.8190  0.0506  2.2008
    9CHL1   H2B  641   5.207   1.049   6.184 -1.1835  1.8797  2.4760
    9CHL1   C20  642   5.171   0.951   5.204  0.2556  0.5421  0.4765
    9CHL1   H20  643   5.277   0.918   5.203 -0.2861 -1.4492  2.2686
    9CHL1   C21  644   5.161   1.103   5.211 -0.0564  0.3062  0.2629
    9CHL1  H21A  645   5.213   1.145   5.122 -2.8069  1.6539 -0.8318
    9CHL1  H21B  646   5.199   1.151   5.304  1.7637 -1.5496  0.5417
    9CHL1  H21C  647   5.053   1.126   5.207 -0.2046 -0.5208 -0.5661
    9CHL1   C22  648   5.130   0.904   5.061 -0.3170 -0.5239 -0.0202
    9CHL1  H22A  649   5.191   0.947   4.979  0.1601  0.8150  0.9963
    9CHL1  H22B  650   5.146   0.794   5.057 -2.4385 -0.8537 -0.6069
    9CHL1   C23  651   4.980   0.919   5.029  0.5258  0.6491  0.6394
    9CHL1  H23A  652   4.911   0.863   5.097 -0.4631  1.1704  0.0864
    9CHL1  H23B  653   4.949   1.025   5.034  0.2014  0.5385  0.9945
    9CHL1   C24  654   4.946   0.882   4.881 -0.2621  0.2760 -0.3544
    9CHL1  H24A  655   5.011   0.949   4.820  2.0033 -0.6123  0.9453
    9CHL1  H24B  656   5.001   0.787   4.864 -1.1658  0.0466 -2.3236
    9CHL1   C25  657   4.796   0.881   4.834 -0.0552  0.4081  0.0400
    9CHL1   H25  658   4.744   0.807   4.900  1.1682  1.1730  1.9449
    9CHL1   C26  659   4.731   1.010   4.871 -0.2198 -0.4261  0.3393
    9CHL1  H26A  660   4.621   0.996   4.878 -0.0596 -1.9276  0.0220
    9CHL1  H26B  661   4.768   1.045   4.970  0.6717  0.2829 -0.2261
    9CHL1  H26C  662   4.750   1.081   4.788 -0.4501 -0.2012  0.4747
    9CHL1   C27  663   4.773   0.849   4.685  0.6079 -0.0992 -0.0009
    9CHL1  H27A  664   4.666   0.824   4.670  0.7769 -1.3198  0.7053
    9CHL1  H27B  665   4.800   0.931   4.616  0.3534 -0.6777 -0.8054
    9CHL1  H27C  666   4.821   0.752   4.658 -0.8152 -1.1587  1.1355
   10CHL1    C3  667   1.578   3.747   6.431  0.4637  0.0483  0.5563
   10CHL1    H3  668   1.668   3.813   6.439  0.5232  0.0351 -0.0067
   10CHL1    O3  669   1.525   3.742   6.559  0.0190  0.6203  0.3663
   10CHL1   H3'  670   1.453   3.679   6.558  0.0969  0.5198 -0.9971
   10CHL1    C4  671   1.475   3.813   6.334 -0.4746  0.2509  0.2308
   10CHL1   H4A  672   1.375   3.765   6.330 -0.3273  0.0559 -2.1069
   10CHL1   H4B  673   1.466   3.923   6.353  0.6139  0.5062 -0.6463
   10CHL1    C5  674   1.539   3.810   6.198 -0.1122  0.1185  0.1151
   10CHL1    C6  675   1.576   3.920   6.130 -0.1247  0.3364  0.7706
   10CHL1    H6  676   1.545   4.015   6.175 -0.7193  0.8758 -0.6970
   10CHL1    C7  677   1.646   3.924   5.996 -0.4495  0.7284  0.2562
   10CHL1   H7A  678   1.596   3.996   5.928  0.3538  0.2178 -0.8901
   10CHL1   H7B  679   1.747   3.960   6.024  0.1690  0.6108 -1.7324
   10CHL1    C8  680   1.665   3.782   5.931  0.9356  0.9135  0.3910
   10CHL1    H8  681   1.562   3.770   5.892  1.2486  1.8000 -0.7660
   10CHL1   C14  682   1.765   3.776   5.819  0.0697 -0.1121  0.3312
   10CHL1   H14  683   1.867   3.788   5.862  0.1301  0.6587 -0.0107
   10CHL1   C15  684   1.755   3.882   5.712 -1.1182 -0.1185 -0.1347
   10CHL1  H15A  685   1.652   3.879   5.672 -0.8025  0.6871 -1.0370
   10CHL1  H15B  686   1.788   3.977   5.759  1.6670 -0.9737 -0.1217
   10CHL1   C16  687   1.863   3.829   5.610  0.1668  0.5249  0.0003
   10CHL1  H16A  688   1.811   3.854   5.515 -1.2485 -1.1098  0.2988
   10CHL1  H16B  689   1.965   3.870   5.599 -0.5115  1.6181 -3.2459
   10CHL1   C17  690   1.874   3.674   5.637 -0.4364 -0.5286 -0.5808
   10CHL1   H17  691   1.977   3.670   5.678 -0.6153 -0.8512 -0.1585
   10CHL1   C13  692   1.769   3.637   5.744 -0.2427 -0.4715  0.0225
   10CHL1   C18  693   1.631   3.606   5.688  0.6412 -0.1490 -0.0762
   10CHL1  H18A  694   1.549   3.608   5.763  1.4832 -1.1723  0.8918
   10CHL1  H18B  695   1.601   3.681   5.612  0.2226  0.0798  0.3084
   10CHL1  H18C  696   1.620   3.505   5.643 -2.7606  0.1194 -0.1137
   10CHL1   C12  697   1.824   3.538   5.849 -0.0843 -0.4778 -0.8653
   10CHL1  H12A  698   1.861   3.437   5.820 -0.0796 -1.2061  1.4366
   10CHL1  H12B  699   1.915   3.592   5.885 -0.5449  0.3648 -0.9559
   10CHL1   C11  700   1.727   3.534   5.971 -0.2048 -0.3766  0.7811
   10CHL1  H11A  701   1.646   3.468   5.932  1.2504 -1.7169 -0.0996
   10CHL1  H11B  702   1.782   3.476   6.048  2.7588  0.1621 -0.7937
   10CHL1    C9  703   1.691   3.679   6.030 -0.3308  1.2834 -0.6849
   10CHL1    H9  704   1.791   3.709   6.068 -0.2228  0.0096  0.1108
   10CHL1   C10  705   1.591   3.671   6.151  0.3869  0.0510 -0.5592
   10CHL1   C19  706   1.468   3.589   6.108  0.1516  0.2113  0.8732
   10CHL1  H19A  707   1.494   3.495   6.055  1.0066 -0.6373  2.7103
   10CHL1  H19B  708   1.401   3.564   6.193 -1.2125  0.8385  0.0231
   10CHL1  H19C  709   1.413   3.649   6.033  0.1367  0.3646  1.0065
   10CHL1    C1  710   1.675   3.606   6.263 -0.6565  0.7839 -0.5614
   10CHL1   H1A  711   1.688   3.497   6.246 -2.4391  0.1682  1.5961
   10CHL1   H1B  712   1.778   3.646   6.266 -0.0116 -0.8061 -0.4520
   10CHL1    C2  713   1.611   3.604   6.400  0.2429  0.2060 -0.4766
   10CHL1   H2A  714   1.675   3.557   6.477 -1.0419 -0.2287  0.3643
   10CHL1   H2B  715   1.514   3.551   6.405 -0.5852  1.6460 -0.6133
   10CHL1   C20  716   1.869   3.583   5.514 -0.6346  0.1294 -0.3912
   10CHL1   H20  717   1.772   3.598   5.462 -0.2967 -0.4883 -1.2279
   10CHL1   C21  718   1.880   3.440   5.554 -0.7712 -0.0951  0.3172
   10CHL1  H21A  719   1.879   3.373   5.466 -1.9497 -1.6689  1.4792
   10CHL1  H21B  720   1.794   3.400   5.612 -0.1832 -2.7083 -0.4902
   10CHL1  H21C  721   1.981   3.424   5.597  0.1842 -1.1381 -2.1751
   10CHL1   C22  722   1.963   3.613   5.400  0.4132  0.1225 -0.6410
   10CHL1  H22A  723   1.978   3.723   5.407  1.4083 -0.0040 -0.6475
   10CHL1  H22B  724   2.061   3.561   5.412  0.2310 -0.4624 -1.5825
   10CHL1   C23  725   1.901   3.594   5.264  0.7147  0.9889  0.1220
   10CHL1  H23A  726   1.874   3.486   5.260  3.0401  0.3534  0.5026
   10CHL1  H23B  727   1.810   3.655   5.244  0.3737 -0.0380 -1.7183
   10CHL1   C24  728   2.001   3.624   5.141 -0.1850 -0.2753 -0.3887
   10CHL1  H24A  729   2.026   3.727   5.175 -4.6022  1.0888 -0.7046
   10CHL1  H24B  730   2.077   3.545   5.161  0.0253  0.4014  1.6839
   10CHL1   C25  731   1.940   3.636   5.005 -0.7765  0.1422  0.5685
   10CHL1   H25  732   2.029   3.651   4.941 -0.3360  2.8804  1.6959
   10CHL1   C26  733   1.863   3.510   4.960 -1.0114  0.0544  0.3130
   10CHL1  H26A  734   1.925   3.418   4.969 -1.4798 -0.4781 -1.4835
   10CHL1  H26B  735   1.782   3.493   5.034  0.7995 -1.2650  2.0983
   10CHL1  H26C  736   1.819   3.528   4.860 -0.3510  1.0083  0.1807
   10CHL1   C27  737   1.850   3.757   4.989 -0.6925 -0.4424 -0.5725
   10CHL1  H27A  738   1.901   3.850   5.021 -2.3300  0.6178 -0.8822
   10CHL1  H27B  739   1.808   3.772   4.887 -1.8494 -1.8171 -0.3327
   10CHL1  H27C  740   1.766   3.754   5.062 -0.0198 -0.0879  0.2242
   11CHL1    C3  741   4.653   0.237   6.715  0.2021 -0.0815  0.4283
   11CHL1    H3  742   4.723   0.153   6.698 -1.0945 -1.1025 -0.0313
   11CHL1    O3  743   4.638   0.257   6.854  0.3235 -0.0166  0.4122
   11CHL1   H3'  744   4.562   0.315   6.853  0.9671  0.8297 -0.5924
   11CHL1    C4  745   4.702   0.366   6.649 -0.1258  0.3304 -0.2770
   11CHL1   H4A  746   4.638   0.454   6.671  0.8674  0.7759  0.9879
   11CHL1   H4B  747   4.795   0.400   6.700 -1.1349  1.9929  0.5515
   11CHL1    C5  748   4.721   0.355   6.497 -0.0120  0.4837 -0.1852
   11CHL1    C6  749   4.834   0.394   6.433  0.5844 -0.1060  0.1349
   11CHL1    H6  750   4.907   0.438   6.503 -1.0636 -0.2507  2.0625
   11CHL1    C7  751   4.844   0.407   6.284  0.2256  0.3288 -0.5384
   11CHL1   H7A  752   4.895   0.503   6.260  0.8088  0.1260 -0.1319
   11CHL1   H7B  753   4.910   0.328   6.242 -1.2193 -0.7987 -0.7762
   11CHL1    C8  754   4.704   0.390   6.209  0.5104  0.2480 -1.1403
   11CHL1    H8  755   4.644   0.483   6.222 -1.1245 -0.8551 -0.5748
   11CHL1   C14  756   4.730   0.354   6.060 -0.0450 -0.4622 -0.4623
   11CHL1   H14  757   4.781   0.255   6.060 -1.3008 -1.1729  2.1907
   11CHL1   C15  758   4.819   0.454   5.977  0.5390  0.6995  0.0090
   11CHL1  H15A  759   4.808   0.563   5.994  1.9663  0.7645  0.6558
   11CHL1  H15B  760   4.922   0.426   6.009  0.3284 -0.3205 -0.1754
   11CHL1   C16  761   4.788   0.408   5.836  0.2078 -0.4247  0.3443
   11CHL1  H16A  762   4.762   0.497   5.774 -0.3118  0.0169  1.1679
   11CHL1  H16B  763   4.875   0.363   5.783  0.9802  0.8892  0.4466
   11CHL1   C17  764   4.665   0.312   5.841  0.4326  0.3372  0.5736
   11CHL1   H17  765   4.712   0.212   5.844 -0.4050 -0.4802 -4.5685
   11CHL1   C13  766   4.601   0.333   5.979 -0.1884  0.5736  0.1202
   11CHL1   C18  767   4.520   0.474   5.970 -0.0052  0.3341  0.4121
   11CHL1  H18A  768   4.489   0.510   6.070 -3.1209 -1.2127  0.1140
   11CHL1  H18B  769   4.585   0.550   5.920 -1.0893  0.0653 -1.5145
   11CHL1  H18C  770   4.422   0.455   5.922 -0.9605  1.1702  1.9766
   11CHL1   C12  771   4.515   0.215   6.032 -0.3404 -0.4357  0.0724
   11CHL1  H12A  772   4.413   0.223   5.989  0.4064  3.0889 -1.3524
   11CHL1  H12B  773   4.554   0.111   6.036  1.2943  0.1765  0.8985
   11CHL1   C11  774   4.496   0.245   6.186 -0.4541 -0.3302 -0.0822
   11CHL1  H11A  775   4.425   0.330   6.189  1.3581  1.2181  1.0616
   11CHL1  H11B  776   4.446   0.163   6.242 -1.4051  0.1507 -0.2050
   11CHL1    C9  777   4.622   0.282   6.278 -0.6540 -0.1623  0.9198
   11CHL1    H9  778   4.688   0.193   6.277 -0.0760  0.2504  1.3600
   11CHL1   C10  779   4.587   0.308   6.428 -0.3461  0.2309  0.0729
   11CHL1   C19  780   4.478   0.417   6.439 -0.0152 -0.1328  0.1939
   11CHL1  H19A  781   4.381   0.367   6.418 -0.8007  1.2958  0.2332
   11CHL1  H19B  782   4.464   0.460   6.540  0.7230 -1.8430  1.0530
   11CHL1  H19C  783   4.499   0.501   6.369 -2.5957 -0.6462 -1.3541
   11CHL1    C1  784   4.531   0.182   6.499  0.9383  0.6341  0.6613
   11CHL1   H1A  785   4.427   0.175   6.462  0.6992  2.1786  0.9817
   11CHL1   H1B  786   4.587   0.091   6.467 -1.5800 -0.7909  0.0515
   11CHL1    C2  787   4.519   0.201   6.646  0.7274  0.8575  0.3437
   11CHL1   H2A  788   4.475   0.108   6.690  1.2478  0.5249  0.1745
   11CHL1   H2B  789   4.442   0.277   6.672  0.1656 -0.1789  1.9009
   11CHL1   C20  790   4.581   0.314   5.710 -0.5038  0.3518  0.2906
   11CHL1   H20  791   4.516   0.403   5.715  0.2948  0.8728  2.6209
   11CHL1   C21  792   4.507   0.179   5.706  0.4752 -0.5990  0.7386
   11CHL1  H21A  793   4.430   0.161   5.784 -2.1073  1.4983 -1.1329
   11CHL1  H21B  794   4.582   0.098   5.696  1.4722  0.4354 -0.4145
   11CHL1  H21C  795   4.437   0.192   5.620 -1.0266 -0.4997  1.9307
   11CHL1   C22  796   4.671   0.335   5.588  1.0362  0.0690  0.5862
   11CHL1  H22A  797   4.717   0.435   5.579 -1.3903  1.1059 -2.1179
   11CHL1  H22B  798   4.751   0.258   5.600 -0.6647 -1.5470  2.4239
   11CHL1   C23  799   4.598   0.312   5.452  0.0406  0.0366  0.2019
   11CHL1  H23A  800   4.545   0.214   5.442  1.1342 -0.7546  1.7056
   11CHL1  H23B  801   4.521   0.386   5.423 -0.5604 -0.4339  0.5682
   11CHL1   C24  802   4.698   0.319   5.335  0.6977 -0.1494  0.8032
   11CHL1  H24A  803   4.768   0.404   5.352 -0.2618  0.7969  0.1596
   11CHL1  H24B  804   4.754   0.223   5.340 -1.0349 -1.5013 -2.4952
   11CHL1   C25  805   4.623   0.348   5.191 -1.3161  0.1051 -0.0665
   11CHL1   H25  806   4.563   0.441   5.202 -0.6377  0.5803 -0.3406
   11CHL1   C26  807   4.742   0.379   5.098 -0.0158 -0.1339  0.2398
   11CHL1  H26A  808   4.818   0.298   5.093  0.8555  0.7323 -1.1757
   11CHL1  H26B  809   4.700   0.407   5.000  0.0322  0.9386  0.5174
   11CHL1  H26C  810   4.799   0.465   5.138  1.7142 -0.6690 -0.9916
   11CHL1   C27  811   4.545   0.224   5.145 -0.1130  0.3138  0.0237
   11CHL1  H27A  812   4.532   0.231   5.035  0.9548  0.0652 -0.1342
   11CHL1  H27B  813   4.601   0.130   5.166 -0.5040  0.0872  0.0543
   11CHL1  H27C  814   4.441   0.221   5.185 -1.3838  1.5369 -2.9177
   12CHL1    C3  815   6.165   6.792   6.145 -1.0557  0.9697 -0.1706
   12CHL1    H3  816   6.138   6.688   6.175  1.0551  0.4885  0.2209
   12CHL1    O3  817   6.176   6.877   6.253 -0.5373 -0.4267 -0.1227
   12CHL1   H3'  818   6.092   6.922   6.267 -1.4134 -1.9553 -0.2684
   12CHL1    C4  819   6.301   6.776   6.078 -0.3805 -0.2415 -0.0185
   12CHL1   H4A  820   6.325   6.881   6.048 -1.5687 -0.0728 -0.4328
   12CHL1   H4B  821   6.370   6.743   6.159 -0.5448  0.3320  0.3655
   12CHL1    C5  822   6.295   6.685   5.961 -0.7414  0.4056  0.3992
   12CHL1    C6  823   6.382   6.583   5.957  0.8905 -0.0340 -0.7860
   12CHL1    H6  824   6.451   6.563   6.041 -1.3888  0.5412  1.3576
   12CHL1    C7  825   6.374   6.474   5.854  0.1525 -0.4134  0.0976
   12CHL1   H7A  826   6.479   6.445   5.830 -0.2645 -2.5934  0.6722
   12CHL1   H7B  827   6.323   6.385   5.896 -0.7780 -1.3676 -2.8095
   12CHL1    C8  828   6.298   6.512   5.722  0.6127 -0.0907  0.0949
   12CHL1    H8  829   6.365   6.580   5.665  1.1541 -1.3191 -0.7636
   12CHL1   C14  830   6.280   6.388   5.644  0.1241  0.2761  0.4514
   12CHL1   H14  831   6.227   6.312   5.706 -0.7797 -1.4037 -2.2185
   12CHL1   C15  832   6.402   6.313   5.595 -0.4157  0.0698 -0.0108
   12CHL1  H15A  833   6.472   6.391   5.557  0.6118 -1.0224 -0.4257
   12CHL1  H15B  834   6.464   6.254   5.667 -2.0546 -1.6625  0.0529
   12CHL1   C16  835   6.355   6.234   5.476  0.3021  0.4174  0.5342
   12CHL1  H16A  836   6.410   6.270   5.386  1.0157 -0.4827  0.5983
   12CHL1  H16B  837   6.363   6.123   5.478  0.9673  0.4265 -0.7398
   12CHL1   C17  838   6.208   6.265   5.461 -0.5289 -0.2187 -0.6892
   12CHL1   H17  839   6.158   6.204   5.540 -1.6858  0.0580 -1.1930
   12CHL1   C13  840   6.194   6.407   5.518 -0.6683  0.1392 -0.0094
   12CHL1   C18  841   6.250   6.510   5.419  0.4503 -0.0203 -0.0747
   12CHL1  H18A  842   6.239   6.613   5.459 -1.9369 -0.0306 -0.5789
   12CHL1  H18B  843   6.360   6.500   5.404  0.1124 -0.7024 -2.5604
   12CHL1  H18C  844   6.204   6.497   5.319  0.3174  1.4329 -0.2341
   12CHL1   C12  845   6.056   6.465   5.564 -0.6687 -1.2603  0.1787
   12CHL1  H12A  846   5.991   6.477   5.475 -0.8688 -1.3107  0.3169
   12CHL1  H12B  847   6.005   6.383   5.619 -2.0408  0.1654  1.0837
   12CHL1   C11  848   6.062   6.588   5.656 -0.4346  0.1905  1.1180
   12CHL1  H11A  849   6.082   6.674   5.589 -0.4406 -0.3721  0.3828
   12CHL1  H11B  850   5.964   6.609   5.704 -0.8363 -1.0478  0.8809
   12CHL1    C9  851   6.162   6.568   5.772 -0.8245 -0.3082 -0.0759
   12CHL1    H9  852   6.120   6.492   5.841 -0.4365 -0.4699 -0.0144
   12CHL1   C10  853   6.190   6.695   5.853  1.0019  0.4558 -0.2793
   12CHL1   C19  854   6.253   6.806   5.776  0.4398 -0.8692  0.2108
   12CHL1  H19A  855   6.353   6.787   5.732 -0.0868  0.1926 -1.5087
   12CHL1  H19B  856   6.179   6.834   5.698 -0.7689 -0.3932  1.4877
   12CHL1  H19C  857   6.274   6.896   5.838  1.9591 -1.0532  0.0153
   12CHL1    C1  858   6.057   6.739   5.923  0.4828 -0.2510  0.4013
   12CHL1   H1A  859   5.977   6.766   5.851  0.1526  1.1797  1.2498
   12CHL1   H1B  860   6.027   6.649   5.979 -0.2862  0.2123  0.7449
   12CHL1    C2  861   6.079   6.845   6.036  0.2381  0.3384 -0.3803
   12CHL1   H2A  862   5.981   6.867   6.085  1.7639  2.9516  1.8057
   12CHL1   H2B  863   6.117   6.938   5.989  0.9495 -0.0230 -0.5374
   12CHL1   C20  864   6.146   6.230   5.326  0.1682  0.0507  0.1731
   12CHL1   H20  865   6.059   6.298   5.314 -0.7752 -1.1433  0.0094
   12CHL1   C21  866   6.093   6.080   5.336 -0.0187 -0.4962 -1.0115
   12CHL1  H21A  867   6.032   6.065   5.428 -0.8285 -4.5243 -2.0101
   12CHL1  H21B  868   6.179   6.010   5.329 -0.2584 -0.9866  0.5707
   12CHL1  H21C  869   6.022   6.052   5.256  0.1146 -0.6619 -1.0713
   12CHL1   C22  870   6.233   6.247   5.202 -0.3003  0.0969  0.8279
   12CHL1  H22A  871   6.286   6.345   5.207 -1.6764  0.9085  0.1095
   12CHL1  H22B  872   6.300   6.159   5.201  1.0608  1.0150 -2.4305
   12CHL1   C23  873   6.155   6.237   5.074 -0.4189 -0.3421  0.0842
   12CHL1  H23A  874   6.226   6.257   4.991 -0.1772 -0.0341  0.3658
   12CHL1  H23B  875   6.120   6.132   5.058 -1.2559 -0.0861  0.1718
   12CHL1   C24  876   6.047   6.341   5.050 -0.7202  0.1577  0.2074
   12CHL1  H24A  877   5.956   6.302   5.101  0.1394 -1.7914  0.3433
   12CHL1  H24B  878   6.074   6.434   5.105  3.7271  0.3647 -1.8979
   12CHL1   C25  879   6.002   6.349   4.898 -0.6813 -0.2917 -0.2919
   12CHL1   H25  880   6.086   6.382   4.833 -0.3601 -1.3461 -0.4246
   12CHL1   C26  881   5.951   6.214   4.841  0.7352 -0.2123 -0.0429
   12CHL1  H26A  882   6.032   6.138   4.843  0.8392 -0.0826  0.6672
   12CHL1  H26B  883   5.868   6.171   4.900 -1.1820 -1.6082 -3.4767
   12CHL1  H26C  884   5.920   6.222   4.734  1.6424  0.0839 -0.2917
   12CHL1   C27  885   5.884   6.453   4.894  0.2637  0.0625 -0.4635
   12CHL1  H27A  886   5.909   6.539   4.961 -1.5078  1.7784 -1.8728
   12CHL1  H27B  887   5.864   6.473   4.787 -0.3485  1.6622 -0.0803
   12CHL1  H27C  888   5.793   6.410   4.940  0.8031 -0.9306 -0.2960
   13CHL1    C3  889   5.533   6.714   6.080 -0.3634 -1.0440 -0.2950
   13CHL1    H3  890   5.584   6.615   6.083  1.3563 -0.2148  3.1078
   13CHL1    O3  891   5.550   6.775   6.210  0.2489  0.1008 -0.2718
   13CHL1   H3'  892   5.498   6.721   6.270  1.8801 -0.4923  0.6511
   13CHL1    C4  893   5.598   6.798   5.959 -0.5781  1.1438 -0.5562
   13CHL1   H4A  894   5.543   6.894   5.972  0.8675  1.6263  3.0415
   13CHL1   H4B  895   5.704   6.815   5.985 -0.4607  2.9328 -2.0173
   13CHL1    C5  896   5.569   6.748   5.821 -0.0225  0.7342 -0.0606
   13CHL1    C6  897   5.668   6.723   5.737 -0.5503 -0.4607 -0.2828
   13CHL1    H6  898   5.766   6.743   5.781 -0.9786  0.2897  0.3535
   13CHL1    C7  899   5.655   6.684   5.596  0.0683 -0.1730 -0.2131
   13CHL1   H7A  900   5.718   6.741   5.525  0.1439  1.9843  1.4842
   13CHL1   H7B  901   5.686   6.578   5.586  0.1374 -0.2456  0.6584
   13CHL1    C8  902   5.507   6.672   5.543 -0.5708  0.4172 -0.3269
   13CHL1    H8  903   5.477   6.767   5.495 -0.8196  0.1194 -0.7733
   13CHL1   C14  904   5.497   6.569   5.427 -0.5182 -0.4301 -0.1878
   13CHL1   H14  905   5.528   6.471   5.468  5.4034  1.1669 -0.0130
   13CHL1   C15  906   5.602   6.587   5.315  0.2332  0.0743  0.1659
   13CHL1  H15A  907   5.616   6.696   5.298 -0.7058  0.3761  1.2186
   13CHL1  H15B  908   5.698   6.542   5.349 -0.8172 -2.0047  0.5401
   13CHL1   C16  909   5.525   6.507   5.208 -0.3107 -0.1507  0.1362
   13CHL1  H16A  910   5.493   6.583   5.134 -1.3482 -0.9535 -0.2688
   13CHL1  H16B  911   5.577   6.431   5.145 -1.6199 -1.3034  0.4119
   13CHL1   C17  912   5.387   6.459   5.258  0.1958  0.2598  0.8925
   13CHL1   H17  913   5.405   6.354   5.287 -0.0172 -0.1431 -0.3860
   13CHL1   C13  914   5.355   6.557   5.370  1.4168  0.0456  0.2039
   13CHL1   C18  915   5.307   6.698   5.307  0.0165  0.4116 -0.2271
   13CHL1  H18A  916   5.385   6.740   5.240 -0.0180  2.5822  1.0007
   13CHL1  H18B  917   5.214   6.682   5.250  1.0164  0.7925 -2.0448
   13CHL1  H18C  918   5.294   6.766   5.394  3.2506  1.4830 -0.4225
   13CHL1   C12  919   5.263   6.508   5.482  0.3360  0.1096 -0.5050
   13CHL1  H12A  920   5.160   6.529   5.447  0.5769  0.4769 -1.0118
   13CHL1  H12B  921   5.271   6.398   5.499 -1.3624 -0.4970 -3.0338
   13CHL1   C11  922   5.269   6.598   5.607  0.1798  0.3231 -0.5432
   13CHL1  H11A  923   5.212   6.688   5.578 -0.3969 -0.5695 -2.3200
   13CHL1  H11B  924   5.215   6.540   5.684  0.0414 -0.6089 -1.3251
   13CHL1    C9  925   5.414   6.629   5.658  0.6061 -0.0311  0.4057
   13CHL1    H9  926   5.449   6.528   5.687 -1.3830 -0.9929 -0.3472
   13CHL1   C10  927   5.423   6.711   5.788 -0.9006 -0.4251 -0.2906
   13CHL1   C19  928   5.338   6.842   5.771 -0.0813 -0.6049 -0.0732
   13CHL1  H19A  929   5.358   6.900   5.864  1.1093 -2.7551  1.0705
   13CHL1  H19B  930   5.377   6.889   5.678  1.3921 -0.8457  0.3997
   13CHL1  H19C  931   5.231   6.814   5.762 -0.3226 -0.5166  2.0461
   13CHL1    C1  932   5.362   6.625   5.910 -0.5652 -0.4459 -0.2378
   13CHL1   H1A  933   5.252   6.635   5.905 -0.7669  1.1782  3.7792
   13CHL1   H1B  934   5.408   6.524   5.901  3.1507  1.0753 -0.1236
   13CHL1    C2  935   5.390   6.685   6.053  0.2886  0.2823  0.3569
   13CHL1   H2A  936   5.338   6.621   6.128 -3.0399  1.1322 -1.0041
   13CHL1   H2B  937   5.334   6.781   6.051  0.5144  0.4101  0.2346
   13CHL1   C20  938   5.283   6.443   5.146  0.5405 -0.2247 -0.6086
   13CHL1   H20  939   5.253   6.542   5.105  1.7370  1.3877  2.1342
   13CHL1   C21  940   5.146   6.399   5.202  0.4822  0.1455 -0.5397
   13CHL1  H21A  941   5.083   6.473   5.255  0.7664 -1.9445  3.0563
   13CHL1  H21B  942   5.166   6.308   5.263  1.5614  0.4755 -0.3813
   13CHL1  H21C  943   5.079   6.355   5.124 -0.8450 -1.3942  1.3873
   13CHL1   C22  944   5.332   6.357   5.025  1.0023  0.7286 -0.1281
   13CHL1  H22A  945   5.434   6.383   4.990  1.6092 -1.5614 -0.2540
   13CHL1  H22B  946   5.331   6.256   5.071 -1.9200  0.5711 -0.3555
   13CHL1   C23  947   5.243   6.359   4.903  0.5334  1.0481 -0.2873
   13CHL1  H23A  948   5.151   6.299   4.919  0.7284  1.2280  1.9011
   13CHL1  H23B  949   5.212   6.464   4.885  2.0262  1.2828 -1.7416
   13CHL1   C24  950   5.315   6.288   4.781 -1.0006  0.2868 -1.1953
   13CHL1  H24A  951   5.405   6.346   4.750  0.4101 -1.9095 -1.3910
   13CHL1  H24B  952   5.344   6.183   4.804 -0.2969  0.6864 -0.1553
   13CHL1   C25  953   5.223   6.265   4.655  0.3805 -0.0282 -0.4594
   13CHL1   H25  954   5.133   6.209   4.686  0.0298  0.5342 -0.4405
   13CHL1   C26  955   5.176   6.396   4.591  0.2407  0.3485  0.6385
   13CHL1  H26A  956   5.259   6.458   4.552 -1.4345  0.2947 -3.4857
   13CHL1  H26B  957   5.109   6.379   4.504  0.5742  0.5626  0.3370
   13CHL1  H26C  958   5.128   6.463   4.666 -0.6560  0.1069  0.2929
   13CHL1   C27  959   5.292   6.174   4.549  0.6027  0.4648 -0.6046
   13CHL1  H27A  960   5.377   6.224   4.497  2.0112 -2.4378 -1.2872
   13CHL1  H27B  961   5.321   6.077   4.594 -2.7328 -0.4630 -0.1952
   13CHL1  H27C  962   5.213   6.163   4.471 -0.5247  0.1258  0.5655
   14CHL1    C3  963   3.711   4.893   6.342 -0.2460 -0.3386  0.0861
   14CHL1    H3  964   3.765   4.796   6.333  0.2045  0.0850 -2.5692
   14CHL1    O3  965   3.693   4.924   6.480  0.0716 -0.4286 -0.4908
   14CHL1   H3'  966   3.637   5.001   6.482  1.3097  0.7037 -3.7423
   14CHL1    C4  967   3.792   5.000   6.277  0.6899 -0.0459  0.2263
   14CHL1   H4A  968   3.759   5.099   6.313  0.6037  0.0530 -0.1175
   14CHL1   H4B  969   3.894   4.975   6.313  1.7203  2.4651 -0.7022
   14CHL1    C5  970   3.785   5.014   6.123  0.5277  0.3019  0.3137
   14CHL1    C6  971   3.903   5.035   6.058  0.5784 -0.1275  0.1504
   14CHL1    H6  972   3.995   5.054   6.116  2.4380 -0.4966 -2.5169
   14CHL1    C7  973   3.917   5.048   5.909 -0.4068 -0.3761 -0.0457
   14CHL1   H7A  974   3.985   5.130   5.878 -2.2427  1.4318  0.4685
   14CHL1   H7B  975   3.948   4.950   5.868  2.7726  0.0877  0.9974
   14CHL1    C8  976   3.778   5.059   5.834  0.4709 -0.2429  0.0950
   14CHL1    H8  977   3.752   5.167   5.839  0.6540 -0.1661 -0.5237
   14CHL1   C14  978   3.792   5.025   5.688  0.5657  0.0435 -0.1122
   14CHL1   H14  979   3.801   4.914   5.676 -0.3269 -0.3106  2.1443
   14CHL1   C15  980   3.911   5.089   5.610 -0.2339 -0.1241 -0.1712
   14CHL1  H15A  981   3.910   5.199   5.627  0.5811 -0.2236  0.5455
   14CHL1  H15B  982   3.997   5.023   5.634 -0.1612 -1.1276 -2.8694
   14CHL1   C16  983   3.882   5.065   5.464 -0.1260  0.0539  0.1440
   14CHL1  H16A  984   3.862   5.162   5.412 -1.2354 -0.0310  0.3885
   14CHL1  H16B  985   3.942   4.992   5.406 -0.6604  0.8435 -1.4815
   14CHL1   C17  986   3.731   5.004   5.457 -0.3635 -0.2924 -0.5423
   14CHL1   H17  987   3.741   4.894   5.468 -0.0527 -0.1457  0.9419
   14CHL1   C13  988   3.673   5.041   5.596  0.1058  0.0863  0.0880
   14CHL1   C18  989   3.637   5.192   5.593 -0.9724  0.0093  0.3188
   14CHL1  H18A  990   3.534   5.209   5.556 -1.4736  0.4375  1.7995
   14CHL1  H18B  991   3.629   5.228   5.698 -0.0132  2.7186 -0.4449
   14CHL1  H18C  992   3.711   5.251   5.535  0.4552 -1.8461  0.1555
   14CHL1   C12  993   3.550   4.968   5.662 -0.5364  0.5527  0.3126
   14CHL1  H12A  994   3.453   4.994   5.614 -0.7308 -3.2505 -1.7119
   14CHL1  H12B  995   3.575   4.863   5.637  1.1213  1.2275 -1.0755
   14CHL1   C11  996   3.529   4.998   5.812  0.1404 -0.1762  0.1183
   14CHL1  H11A  997   3.498   5.104   5.820  0.6504  0.1688 -1.8962
   14CHL1  H11B  998   3.446   4.933   5.848 -0.5106  0.3493 -0.4072
   14CHL1    C9  999   3.662   4.973   5.896 -0.3896 -0.0247  0.6908
   14CHL1    H9 1000   3.686   4.865   5.885 -2.4748 -0.5127  0.5342
   14CHL1   C10 1001   3.649   4.987   6.048 -0.1806 -0.3424 -0.1335
   14CHL1   C19 1002   3.553   5.119   6.068  0.3211 -0.8203 -0.6418
   14CHL1  H19A 1003   3.597   5.214   6.032 -0.5959 -0.9191 -2.0829
   14CHL1  H19B 1004   3.451   5.103   6.027 -0.3209  0.8715  0.2048
   14CHL1  H19C 1005   3.540   5.139   6.177  3.4871 -0.8100 -0.1807
   14CHL1    C1 1006   3.579   4.868   6.116  0.8381  0.0711  0.9973
   14CHL1   H1A 1007   3.477   4.857   6.075  1.1493  1.9314 -0.4409
   14CHL1   H1B 1008   3.634   4.774   6.092 -0.0952  0.2037 -1.9214
   14CHL1    C2 1009   3.574   4.881   6.276 -0.5236  0.0514 -0.3489
   14CHL1   H2A 1010   3.511   4.797   6.311 -3.0981  1.8078 -0.4927
   14CHL1   H2B 1011   3.512   4.968   6.307 -0.1286  1.0577 -2.1765
   14CHL1   C20 1012   3.654   5.033   5.334  1.5122 -0.0969  0.3304
   14CHL1   H20 1013   3.630   5.141   5.322  0.3553 -0.3641  0.1529
   14CHL1   C21 1014   3.518   4.958   5.337  1.0666  0.3791 -0.0088
   14CHL1  H21A 1015   3.499   4.919   5.234  0.7415 -0.0570  0.2153
   14CHL1  H21B 1016   3.431   5.023   5.358 -0.4744 -1.8385  0.7676
   14CHL1  H21C 1017   3.504   4.877   5.411  0.5397  0.3939 -0.0888
   14CHL1   C22 1018   3.733   4.988   5.205  0.0525 -0.5666 -0.3364
   14CHL1  H22A 1019   3.660   5.002   5.122 -0.7345  1.9801  0.6889
   14CHL1  H22B 1020   3.818   5.058   5.196  0.7004 -1.1472  1.0514
   14CHL1   C23 1021   3.787   4.848   5.196  0.3026  0.5151 -0.4782
   14CHL1  H23A 1022   3.813   4.797   5.291 -0.5609  0.5660 -0.2099
   14CHL1  H23B 1023   3.699   4.792   5.157  1.8364  0.3475 -4.1278
   14CHL1   C24 1024   3.897   4.842   5.094  0.4891 -0.0291  0.6282
   14CHL1  H24A 1025   3.990   4.891   5.128  1.4942 -0.2564 -1.5955
   14CHL1  H24B 1026   3.922   4.734   5.084 -1.7018 -0.5492  0.1262
   14CHL1   C25 1027   3.867   4.884   4.942 -0.3402 -0.1093 -0.5737
   14CHL1   H25 1028   3.870   4.994   4.934 -0.8065 -0.2210 -2.8332
   14CHL1   C26 1029   3.978   4.828   4.852  0.2009 -0.7227 -0.2879
   14CHL1  H26A 1030   3.961   4.718   4.858 -0.7663 -0.6808 -1.8013
   14CHL1  H26B 1031   3.958   4.859   4.747 -1.9644 -1.2001 -0.0648
   14CHL1  H26C 1032   4.071   4.866   4.899 -1.3513  1.4543  1.2326
   14CHL1   C27 1033   3.733   4.826   4.903 -0.2597  0.4727 -0.6110
   14CHL1  H27A 1034   3.722   4.718   4.927 -0.1847  0.7088  0.5378
   14CHL1  H27B 1035   3.647   4.891   4.929 -0.0031  0.6848 -0.2846
   14CHL1  H27C 1036   3.730   4.827   4.792 -0.5795 -0.3553 -0.6201
   15CHL1    C3 1037   4.534   4.275   6.188  0.4048  0.1096  0.4984
   15CHL1    H3 1038   4.490   4.174   6.176 -1.8410  1.2089 -1.6571
   15CHL1    O3 1039   4.539   4.300   6.329  0.6233  0.2097 -0.0384
   15CHL1   H3' 1040   4.459   4.261   6.363 -0.0058  0.1474 -1.5325
   15CHL1    C4 1041   4.673   4.284   6.133 -0.0026 -0.2281 -0.1881
   15CHL1   H4A 1042   4.722   4.380   6.158  1.1771 -1.1280  1.1247
   15CHL1   H4B 1043   4.738   4.209   6.182  0.2940 -0.3941 -0.8161
   15CHL1    C5 1044   4.680   4.254   5.981 -0.7249 -0.3732  0.2597
   15CHL1    C6 1045   4.742   4.149   5.929  0.7867  0.2670 -0.2427
   15CHL1    H6 1046   4.794   4.078   5.995  2.0669  1.0960 -0.3366
   15CHL1    C7 1047   4.749   4.124   5.785  0.0922  0.1442 -0.1039
   15CHL1   H7A 1048   4.855   4.091   5.772  1.6878  3.0254  3.6637
   15CHL1   H7B 1049   4.675   4.045   5.763  0.9396 -0.8384  0.4414
   15CHL1    C8 1050   4.716   4.244   5.700  0.1974  0.8971  0.0766
   15CHL1    H8 1051   4.801   4.315   5.702  0.4467  0.5952  0.4493
   15CHL1   C14 1052   4.701   4.211   5.552 -0.4334  0.7991  0.2562
   15CHL1   H14 1053   4.614   4.142   5.545 -0.3436  0.5429  1.4144
   15CHL1   C15 1054   4.814   4.134   5.467  0.8234 -0.0352 -0.5993
   15CHL1  H15A 1055   4.914   4.165   5.505 -0.7531  2.4298  1.9365
   15CHL1  H15B 1056   4.793   4.027   5.491 -0.6660  0.2568 -0.5007
   15CHL1   C16 1057   4.784   4.163   5.320 -0.5001 -0.1429 -0.3809
   15CHL1  H16A 1058   4.869   4.217   5.273 -0.0044 -1.3259 -0.8939
   15CHL1  H16B 1059   4.760   4.070   5.264  0.4109 -0.5906 -0.0569
   15CHL1   C17 1060   4.670   4.266   5.325  0.7904  0.1281  0.2882
   15CHL1   H17 1061   4.579   4.204   5.339 -0.2759  1.6982  0.5948
   15CHL1   C13 1062   4.672   4.332   5.464  0.6888  0.1902 -0.1421
   15CHL1   C18 1063   4.782   4.437   5.472 -0.1060  0.4827  0.7128
   15CHL1  H18A 1064   4.751   4.519   5.405  0.0617  0.9100  1.1523
   15CHL1  H18B 1065   4.806   4.473   5.574 -0.8996 -0.3423  1.2109
   15CHL1  H18C 1066   4.874   4.395   5.426 -2.4066 -1.9264 -2.0579
   15CHL1   C12 1067   4.535   4.386   5.518  0.5489 -0.1766  0.0751
   15CHL1  H12A 1068   4.501   4.472   5.457  1.2844  1.3124  1.6865
   15CHL1  H12B 1069   4.462   4.303   5.514  1.2756 -0.8684  0.9136
   15CHL1   C11 1070   4.538   4.424   5.661 -0.0705  0.0110 -0.2635
   15CHL1  H11A 1071   4.603   4.512   5.684  1.6466 -1.3010  0.1362
   15CHL1  H11B 1072   4.444   4.473   5.695  0.5396  1.0435 -0.0123
   15CHL1    C9 1073   4.592   4.318   5.752 -0.3026  0.4861  0.0794
   15CHL1    H9 1074   4.519   4.235   5.748 -0.1674  0.3358  0.6115
   15CHL1   C10 1075   4.598   4.357   5.909 -0.1417 -0.1377  0.0637
   15CHL1   C19 1076   4.668   4.492   5.915  0.3029 -0.1626 -0.4769
   15CHL1  H19A 1077   4.755   4.496   5.845  0.3453  0.5967 -0.3905
   15CHL1  H19B 1078   4.599   4.573   5.884 -0.2607 -1.7350 -3.8690
   15CHL1  H19C 1079   4.724   4.515   6.008  1.1575  1.1660 -1.2928
   15CHL1    C1 1080   4.454   4.357   5.963 -0.2841  0.4285 -0.9349
   15CHL1   H1A 1081   4.398   4.437   5.909 -0.0923  0.0675 -1.6761
   15CHL1   H1B 1082   4.421   4.253   5.946  0.4700 -0.2179  1.1897
   15CHL1    C2 1083   4.449   4.376   6.118 -0.5557  0.3000 -0.0395
   15CHL1   H2A 1084   4.346   4.366   6.159 -1.1034 -2.5935 -1.8893
   15CHL1   H2B 1085   4.484   4.479   6.140  0.4030  0.4341 -2.0361
   15CHL1   C20 1086   4.641   4.347   5.204 -0.1774 -0.0974 -0.1906
   15CHL1   H20 1087   4.565   4.424   5.230  0.7447  0.4510  1.0023
   15CHL1   C21 1088   4.585   4.255   5.103  0.8940  0.0425 -0.4507
   15CHL1  H21A 1089   4.491   4.202   5.129 -1.8694  3.8133 -1.9801
   15CHL1  H21B 1090   4.662   4.180   5.073 -1.1175 -1.7771 -1.3152
   15CHL1  H21C 1091   4.556   4.314   5.014 -0.2589  1.9835  1.1119
   15CHL1   C22 1092   4.776   4.417   5.141  0.6903 -0.2074 -0.0603
   15CHL1  H22A 1093   4.812   4.497   5.209 -2.1190  1.6923 -0.6225
   15CHL1  H22B 1094   4.861   4.348   5.124 -0.1417 -1.5252  0.8840
   15CHL1   C23 1095   4.743   4.488   5.006  0.4378 -0.1503  0.2740
   15CHL1  H23A 1096   4.725   4.407   4.932 -1.6067 -0.1276  0.6853
   15CHL1  H23B 1097   4.641   4.532   5.015  1.1880  1.3485  2.2085
   15CHL1   C24 1098   4.849   4.590   4.964 -0.1589  0.3542  0.2531
   15CHL1  H24A 1099   4.856   4.674   5.037 -0.2784 -0.0629  0.7516
   15CHL1  H24B 1100   4.944   4.533   4.966 -0.2969 -0.0352 -1.7661
   15CHL1   C25 1101   4.809   4.649   4.828 -0.4716 -0.1458 -0.0261
   15CHL1   H25 1102   4.711   4.700   4.833 -0.7381 -0.1263 -3.1381
   15CHL1   C26 1103   4.917   4.752   4.793  0.3303  0.7275  0.4359
   15CHL1  H26A 1104   5.021   4.714   4.782  0.8068  1.0729  3.0855
   15CHL1  H26B 1105   4.890   4.802   4.698  0.8124  0.8979  0.3895
   15CHL1  H26C 1106   4.913   4.813   4.886  2.7924 -1.6765  2.2911
   15CHL1   C27 1107   4.794   4.546   4.722  0.2336  0.2049  0.1646
   15CHL1  H27A 1108   4.712   4.473   4.743 -0.7487  1.0475 -0.6408
   15CHL1  H27B 1109   4.769   4.586   4.621 -1.2764  2.0334  1.2043
   15CHL1  H27C 1110   4.892   4.495   4.712  1.5207  2.8329 -1.5512
   16CHL1    C3 1111   3.842   0.748   6.741 -0.3203 -0.5419  0.4207
   16CHL1    H3 1112   3.942   0.731   6.695 -0.0068 -2.0418  1.5834
   16CHL1    O3 1113   3.849   0.740   6.878  0.2975 -0.1880 -0.0804
   16CHL1   H3' 1114   3.907   0.806   6.918 -0.7453  1.2345 -0.8261
   16CHL1    C4 1115   3.798   0.892   6.693  0.4142 -0.6331  0.2938
   16CHL1   H4A 1116   3.705   0.909   6.751  0.7717 -2.7902  1.6203
   16CHL1   H4B 1117   3.872   0.966   6.731 -1.3677  0.5994  1.5102
   16CHL1    C5 1118   3.777   0.900   6.539 -0.1909 -0.2084 -0.6498
   16CHL1    C6 1119   3.827   1.002   6.467 -0.2351 -0.3831  0.3049
   16CHL1    H6 1120   3.869   1.089   6.520 -1.0245  1.5821 -2.1107
   16CHL1    C7 1121   3.804   1.021   6.317  0.1128  0.1992 -0.4025
   16CHL1   H7A 1122   3.790   1.128   6.289  1.7843  0.3038 -0.9435
   16CHL1   H7B 1123   3.898   0.998   6.264  0.5141  2.0661 -0.5790
   16CHL1    C8 1124   3.688   0.931   6.260 -0.0792 -0.6692  0.6301
   16CHL1    H8 1125   3.591   0.978   6.286 -1.2004 -2.3446 -0.3281
   16CHL1   C14 1126   3.698   0.919   6.110  0.0653  0.2221  0.3425
   16CHL1   H14 1127   3.794   0.868   6.086  1.1835  2.7787 -1.0356
   16CHL1   C15 1128   3.730   1.049   6.026  0.0934  0.5941 -0.2673
   16CHL1  H15A 1129   3.688   1.139   6.075  2.1540  1.6471 -0.3291
   16CHL1  H15B 1130   3.838   1.062   6.003  0.3016 -2.1676 -1.1626
   16CHL1   C16 1131   3.667   1.017   5.888  0.4062  0.0076  0.5718
   16CHL1  H16A 1132   3.571   1.072   5.883 -0.0217 -0.6193  1.4724
   16CHL1  H16B 1133   3.737   1.041   5.805 -1.0037 -1.6950 -1.1961
   16CHL1   C17 1134   3.633   0.870   5.889 -0.4687  0.4640 -0.5875
   16CHL1   H17 1135   3.730   0.821   5.864  0.2338  1.6933 -0.3451
   16CHL1   C13 1136   3.592   0.838   6.033 -0.2691  0.0293  0.3222
   16CHL1   C18 1137   3.452   0.905   6.055 -0.5005  0.3722 -0.5228
   16CHL1  H18A 1138   3.454   1.014   6.032  0.2068  0.1401 -1.6316
   16CHL1  H18B 1139   3.367   0.862   5.998 -1.6043  2.6762 -0.7365
   16CHL1  H18C 1140   3.423   0.886   6.161  1.7930 -1.9493 -0.2083
   16CHL1   C12 1141   3.613   0.699   6.090  0.2365  0.4694  0.0213
   16CHL1  H12A 1142   3.534   0.629   6.054 -1.1572  2.3201 -0.6537
   16CHL1  H12B 1143   3.714   0.661   6.067  0.8912  1.7023  0.7402
   16CHL1   C11 1144   3.598   0.696   6.245  0.1970  1.1549  0.6492
   16CHL1  H11A 1145   3.491   0.713   6.271  0.2170  0.7838  0.9841
   16CHL1  H11B 1146   3.624   0.592   6.276 -0.7523  0.6452 -0.2185
   16CHL1    C9 1147   3.689   0.795   6.322 -0.7564 -0.1489  0.7208
   16CHL1    H9 1148   3.794   0.766   6.302 -0.8067  0.0661  0.1390
   16CHL1   C10 1149   3.679   0.794   6.476  0.2320  0.1967 -0.7927
   16CHL1   C19 1150   3.540   0.827   6.520  0.2980  0.5200 -0.3071
   16CHL1  H19A 1151   3.502   0.916   6.466 -0.8760  0.0198 -0.3217
   16CHL1  H19B 1152   3.476   0.737   6.507  1.1604 -0.5578  2.2841
   16CHL1  H19C 1153   3.525   0.862   6.624 -2.4020  2.3498 -1.2144
   16CHL1    C1 1154   3.716   0.648   6.530 -0.0611  0.0361 -0.7147
   16CHL1   H1A 1155   3.635   0.577   6.504  0.4902 -1.2561  0.9704
   16CHL1   H1B 1156   3.807   0.618   6.475 -0.5435  0.5136 -1.8098
   16CHL1    C2 1157   3.747   0.638   6.683 -0.6563  0.0182 -0.4167
   16CHL1   H2A 1158   3.780   0.539   6.721 -0.3075  1.9787  5.4428
   16CHL1   H2B 1159   3.645   0.643   6.729 -1.3009 -1.7543 -1.5562
   16CHL1   C20 1160   3.537   0.834   5.775  0.5584  0.1846  0.1032
   16CHL1   H20 1161   3.445   0.896   5.781 -0.8444 -1.4878 -2.4827
   16CHL1   C21 1162   3.484   0.692   5.792 -0.0555  0.2761  0.4404
   16CHL1  H21A 1163   3.426   0.663   5.702 -0.9666  2.3659  0.3086
   16CHL1  H21B 1164   3.417   0.695   5.880 -1.1944 -0.6893 -0.3595
   16CHL1  H21C 1165   3.577   0.634   5.813  0.9229  1.3763 -0.6949
   16CHL1   C22 1166   3.601   0.851   5.641 -0.0046  0.0085  0.2455
   16CHL1  H22A 1167   3.623   0.956   5.613 -1.8304 -0.6203 -4.4622
   16CHL1  H22B 1168   3.693   0.789   5.645 -0.1383 -0.2033  0.0856
   16CHL1   C23 1169   3.511   0.817   5.518  0.4487 -0.4429  0.6144
   16CHL1  H23A 1170   3.481   0.712   5.497  0.2411 -0.5330  1.3540
   16CHL1  H23B 1171   3.420   0.876   5.542 -0.0801 -1.2331  0.5637
   16CHL1   C24 1172   3.578   0.885   5.387  0.7382  0.6777  0.3803
   16CHL1  H24A 1173   3.590   0.989   5.423  1.2721  1.0105 -0.7279
   16CHL1  H24B 1174   3.683   0.852   5.370  0.4930 -0.0581  0.2611
   16CHL1   C25 1175   3.510   0.858   5.251 -0.3047 -0.5174 -0.0297
   16CHL1   H25 1176   3.488   0.749   5.242  0.0134 -0.6436  0.6269
   16CHL1   C26 1177   3.383   0.936   5.231 -0.2059 -0.4428 -0.3069
   16CHL1  H26A 1178   3.314   0.925   5.318  0.0035  0.5661 -0.0067
   16CHL1  H26B 1179   3.410   1.042   5.215  1.1918 -1.0424 -2.2203
   16CHL1  H26C 1180   3.334   0.896   5.140  0.2099  0.2453 -0.8444
   16CHL1   C27 1181   3.608   0.895   5.135 -0.3531 -0.1220  0.3782
   16CHL1  H27A 1182   3.652   0.996   5.147  0.4670  0.1730 -3.6592
   16CHL1  H27B 1183   3.691   0.821   5.132 -2.0258 -2.0570 -1.0803
   16CHL1  H27C 1184   3.553   0.890   5.039  0.5197 -0.4281 -0.1199
   17CHL1    C3 1185   5.809   5.599   6.399  0.4987 -0.1801 -0.6672
   17CHL1    H3 1186   5.901   5.567   6.344  1.9648 -0.7152  1.9511
   17CHL1    O3 1187   5.831   5.617   6.540 -0.6596 -0.7173 -0.3185
   17CHL1   H3' 1188   5.750   5.649   6.581  0.1345  0.6805  0.2234
   17CHL1    C4 1189   5.776   5.739   6.343  0.2208 -0.1980  0.0580
   17CHL1   H4A 1190   5.693   5.784   6.401 -0.3922 -0.3820 -0.6597
   17CHL1   H4B 1191   5.869   5.796   6.363  0.9893 -1.1182 -0.8070
   17CHL1    C5 1192   5.727   5.738   6.196 -0.3771 -0.5647  0.2072
   17CHL1    C6 1193   5.766   5.826   6.102 -0.4471  0.4744  0.7336
   17CHL1    H6 1194   5.842   5.904   6.118 -0.9116  1.3237 -0.9842
   17CHL1    C7 1195   5.707   5.831   5.962 -0.4838 -0.0707  0.5388
   17CHL1   H7A 1196   5.657   5.929   5.944 -0.6250  0.4702  3.4355
   17CHL1   H7B 1197   5.786   5.811   5.886 -0.5055  0.6669  0.3078
   17CHL1    C8 1198   5.586   5.734   5.935 -0.5838 -0.2316  0.2154
   17CHL1    H8 1199   5.489   5.782   5.962 -0.5422 -0.4803  0.8257
   17CHL1   C14 1200   5.575   5.708   5.782 -0.1807  0.0362  0.3066
   17CHL1   H14 1201   5.661   5.641   5.762 -0.6727 -0.5904  0.2501
   17CHL1   C15 1202   5.572   5.826   5.685 -0.1143  0.7248 -0.0628
   17CHL1  H15A 1203   5.505   5.910   5.716  1.6356  1.2232  2.6996
   17CHL1  H15B 1204   5.669   5.874   5.658  0.3842 -0.4328 -0.3883
   17CHL1   C16 1205   5.509   5.780   5.551  0.2109  0.1502 -0.0016
   17CHL1  H16A 1206   5.422   5.844   5.525 -1.2334 -0.4956  2.8300
   17CHL1  H16B 1207   5.580   5.765   5.467 -1.6902 -2.1657 -1.3310
   17CHL1   C17 1208   5.458   5.634   5.589 -0.0096 -0.1441 -0.2595
   17CHL1   H17 1209   5.532   5.557   5.562  0.7376 -0.1647  1.6601
   17CHL1   C13 1210   5.451   5.630   5.744  0.0937  0.3912  1.0622
   17CHL1   C18 1211   5.321   5.702   5.788  0.0145 -0.0929  0.4313
   17CHL1  H18A 1212   5.312   5.803   5.741 -1.0012 -0.8858 -1.1774
   17CHL1  H18B 1213   5.228   5.660   5.744 -0.1357  1.8436 -1.2966
   17CHL1  H18C 1214   5.323   5.712   5.898  1.8001  1.8727  0.2788
   17CHL1   C12 1215   5.454   5.492   5.821 -0.2163  0.6750  0.1424
   17CHL1  H12A 1216   5.357   5.438   5.810  0.2158 -0.6014  1.9595
   17CHL1  H12B 1217   5.537   5.435   5.775  1.7433  3.1457  0.4256
   17CHL1   C11 1218   5.476   5.506   5.970 -0.3960 -0.4324  0.1436
   17CHL1  H11A 1219   5.384   5.544   6.018  0.2014  2.6304 -0.8867
   17CHL1  H11B 1220   5.497   5.406   6.013 -0.5338 -0.9457 -0.9499
   17CHL1    C9 1221   5.598   5.609   6.011 -1.0740  0.0309  0.0997
   17CHL1    H9 1222   5.695   5.563   5.981 -0.8941  0.4386  0.0375
   17CHL1   C10 1223   5.619   5.629   6.168  0.1417 -0.1847 -0.1284
   17CHL1   C19 1224   5.481   5.674   6.226 -0.1933  0.6380 -0.0375
   17CHL1  H19A 1225   5.442   5.766   6.177 -2.1850  0.8323  1.7503
   17CHL1  H19B 1226   5.404   5.597   6.205 -0.5132  1.2262 -1.0992
   17CHL1  H19C 1227   5.480   5.688   6.336 -2.2549 -0.4851  0.1353
   17CHL1    C1 1228   5.661   5.500   6.231 -0.0930 -0.3379  0.2018
   17CHL1   H1A 1229   5.584   5.424   6.209 -1.0645  0.6109  0.2111
   17CHL1   H1B 1230   5.754   5.464   6.181  0.6065  2.4029 -0.6975
   17CHL1    C2 1231   5.687   5.505   6.383 -0.2474  0.1287 -0.7429
   17CHL1   H2A 1232   5.705   5.400   6.417 -0.9254 -0.1735 -1.3024
   17CHL1   H2B 1233   5.596   5.544   6.432 -0.2765 -1.9554  1.0221
   17CHL1   C20 1234   5.330   5.598   5.507 -0.0311 -1.0885  0.1682
   17CHL1   H20 1235   5.247   5.670   5.520 -2.0123 -2.7071 -2.3491
   17CHL1   C21 1236   5.274   5.461   5.537  0.2781 -0.3347 -0.2777
   17CHL1  H21A 1237   5.351   5.392   5.577 -1.5614 -1.7022  1.0694
   17CHL1  H21B 1238   5.239   5.403   5.449 -1.2989 -0.6087  0.5001
   17CHL1  H21C 1239   5.196   5.468   5.616 -0.2025  0.3132 -0.7927
   17CHL1   C22 1240   5.370   5.603   5.357 -0.5166  0.3950 -0.1338
   17CHL1  H22A 1241   5.428   5.689   5.317  1.9874 -2.1517 -2.3654
   17CHL1  H22B 1242   5.415   5.504   5.337 -2.1649 -0.9205  2.1379
   17CHL1   C23 1243   5.248   5.606   5.263 -0.1327  1.0136  0.1999
   17CHL1  H23A 1244   5.189   5.514   5.282 -1.1386  1.2878 -1.3772
   17CHL1  H23B 1245   5.195   5.700   5.288  0.8403  1.2791  1.4048
   17CHL1   C24 1246   5.269   5.607   5.106  0.1078 -0.0284 -0.2830
   17CHL1  H24A 1247   5.302   5.710   5.079  0.6140 -0.0864  0.0970
   17CHL1  H24B 1248   5.354   5.540   5.081  0.2005 -0.1727  0.4126
   17CHL1   C25 1249   5.138   5.559   5.037 -0.5099 -0.5085 -0.1874
   17CHL1   H25 1250   5.127   5.452   5.064 -2.1572 -0.0648  1.0728
   17CHL1   C26 1251   5.021   5.648   5.084  0.3254  0.3528  0.2305
   17CHL1  H26A 1252   4.941   5.642   5.006  0.1900 -2.4859  0.5214
   17CHL1  H26B 1253   4.990   5.631   5.189 -1.6263  1.5660 -0.0941
   17CHL1  H26C 1254   5.054   5.754   5.073  0.8252  0.2427  0.6556
   17CHL1   C27 1255   5.155   5.549   4.887 -0.0822 -0.7302  0.4912
   17CHL1  H27A 1256   5.184   5.647   4.842 -0.8509 -1.0702 -0.8120
   17CHL1  H27B 1257   5.221   5.466   4.852 -0.2553 -0.7625  0.2331
   17CHL1  H27C 1258   5.060   5.536   4.831 -0.3805  0.6105  0.6645
   18CHL1    C3 1259   3.522   0.168   6.583  0.3760  0.1371  0.3785
   18CHL1    H3 1260   3.441   0.244   6.580 -1.4491 -1.6653 -4.0635
   18CHL1    O3 1261   3.536   0.119   6.718 -0.1135  0.3894 -0.4778
   18CHL1   H3' 1262   3.617   0.067   6.714 -0.3626 -0.0175 -0.2851
   18CHL1    C4 1263   3.482   0.051   6.490 -0.3388 -0.0512  0.4934
   18CHL1   H4A 1264   3.567  -0.020   6.505 -1.0596 -1.5016 -1.7581
   18CHL1   H4B 1265   3.393  -0.003   6.529  1.1750 -1.8534  1.6576
   18CHL1    C5 1266   3.482   0.098   6.349 -0.0960  0.2184  0.1795
   18CHL1    C6 1267   3.379   0.067   6.272  0.1023  0.2166  0.1964
   18CHL1    H6 1268   3.292   0.015   6.314 -0.6521  0.0653 -1.4579
   18CHL1    C7 1269   3.364   0.103   6.124 -0.5379 -0.0051  0.6280
   18CHL1   H7A 1270   3.328   0.014   6.067  1.3540 -1.5660  1.7249
   18CHL1   H7B 1271   3.289   0.184   6.118 -1.6021 -1.0505 -1.4429
   18CHL1    C8 1272   3.501   0.139   6.060  0.3050  0.1408  0.1602
   18CHL1    H8 1273   3.562   0.046   6.051 -1.0682 -0.6391 -1.8038
   18CHL1   C14 1274   3.476   0.206   5.925  0.3101  0.0788 -0.1123
   18CHL1   H14 1275   3.419   0.298   5.946 -1.8188 -1.8862  3.6010
   18CHL1   C15 1276   3.398   0.128   5.813 -0.4014 -0.3838  0.2816
   18CHL1  H15A 1277   3.425   0.020   5.807 -2.6263 -0.9115 -1.8635
   18CHL1  H15B 1278   3.288   0.135   5.829 -0.6362 -1.5772 -0.6571
   18CHL1   C16 1279   3.444   0.198   5.687 -0.4048  0.3507 -0.2071
   18CHL1  H16A 1280   3.495   0.125   5.621  1.9552  2.3595 -0.7566
   18CHL1  H16B 1281   3.358   0.249   5.637  0.4987  0.3055 -1.8872
   18CHL1   C17 1282   3.548   0.309   5.732 -0.0511  0.1722  0.4609
   18CHL1   H17 1283   3.479   0.394   5.753 -0.5301  0.2114 -1.1501
   18CHL1   C13 1284   3.605   0.253   5.861 -0.2186 -0.8215 -0.2279
   18CHL1   C18 1285   3.705   0.141   5.827 -0.6101  0.2743  0.1003
   18CHL1  H18A 1286   3.717   0.066   5.908  2.7842 -0.0793 -0.6166
   18CHL1  H18B 1287   3.685   0.086   5.733 -0.8121 -1.2857  1.0147
   18CHL1  H18C 1288   3.807   0.178   5.805 -0.9106  2.3713  1.9061
   18CHL1   C12 1289   3.677   0.354   5.955 -0.0276  0.0011 -0.1473
   18CHL1  H12A 1290   3.766   0.400   5.909 -0.0293  0.6618  0.4881
   18CHL1  H12B 1291   3.596   0.431   5.960 -1.0208 -1.0693  0.6967
   18CHL1   C11 1292   3.705   0.282   6.081  0.8900  0.1593  0.1469
   18CHL1  H11A 1293   3.781   0.202   6.068  0.3881  0.0490 -2.8536
   18CHL1  H11B 1294   3.742   0.366   6.144  2.9382 -0.4251 -0.1945
   18CHL1    C9 1295   3.582   0.230   6.149  0.7343  0.2404 -0.2675
   18CHL1    H9 1296   3.511   0.315   6.157 -0.5748 -0.5908 -2.3006
   18CHL1   C10 1297   3.606   0.174   6.298  0.5064 -0.2143 -0.4276
   18CHL1   C19 1298   3.727   0.078   6.298  0.3674 -0.0622 -0.0314
   18CHL1  H19A 1299   3.822   0.121   6.258 -0.5430  0.6922 -1.4805
   18CHL1  H19B 1300   3.730   0.020   6.393  0.1148  0.9482  0.6044
   18CHL1  H19C 1301   3.711  -0.004   6.224 -0.1068 -0.8020  0.8742
   18CHL1    C1 1302   3.640   0.283   6.393 -0.6213  0.2336 -0.2612
   18CHL1   H1A 1303   3.735   0.335   6.368 -0.4667 -0.8677 -2.1451
   18CHL1   H1B 1304   3.560   0.360   6.389 -2.0333 -1.2421 -2.7984
   18CHL1    C2 1305   3.651   0.234   6.540 -0.1776  0.6090  0.5050
   18CHL1   H2A 1306   3.678   0.319   6.605  0.5973 -0.5318  1.7182
   18CHL1   H2B 1307   3.728   0.156   6.553 -0.9342 -1.1100 -3.6945
   18CHL1   C20 1308   3.637   0.347   5.614  0.4136 -0.0087  0.0394
   18CHL1   H20 1309   3.690   0.255   5.580  1.2574  0.5628 -0.2318
   18CHL1   C21 1310   3.753   0.445   5.646  0.3233 -0.3046 -0.5719
   18CHL1  H21A 1311   3.826   0.404   5.718  2.1057  1.2879 -1.3778
   18CHL1  H21B 1312   3.721   0.547   5.679 -1.1585 -0.8553 -0.2275
   18CHL1  H21C 1313   3.810   0.462   5.553  0.0463  0.7746 -0.5610
   18CHL1   C22 1314   3.547   0.397   5.495  0.4564  0.5751  0.1034
   18CHL1  H22A 1315   3.448   0.347   5.492 -0.2580  2.0035 -0.9251
   18CHL1  H22B 1316   3.538   0.507   5.504  0.3718  0.6797 -1.1641
   18CHL1   C23 1317   3.624   0.373   5.364 -0.2164  0.1766  0.0914
   18CHL1  H23A 1318   3.719   0.428   5.374 -1.7926  2.9054  1.1185
   18CHL1  H23B 1319   3.639   0.263   5.361 -2.5425 -0.2071  0.5901
   18CHL1   C24 1320   3.547   0.427   5.237 -0.2130  0.2591  0.1373
   18CHL1  H24A 1321   3.437   0.409   5.236 -1.1072  4.5838 -1.6650
   18CHL1  H24B 1322   3.552   0.537   5.243  0.7493  0.2326 -0.1184
   18CHL1   C25 1323   3.617   0.380   5.112 -0.4400 -0.1672 -0.4938
   18CHL1   H25 1324   3.568   0.454   5.045 -1.4889 -0.3493  0.0464
   18CHL1   C26 1325   3.770   0.406   5.118  0.0017 -0.7329  0.0481
   18CHL1  H26A 1326   3.778   0.505   5.168 -2.2137 -0.5299  0.0965
   18CHL1  H26B 1327   3.815   0.326   5.181  1.3472  2.2889  3.2257
   18CHL1  H26C 1328   3.817   0.410   5.018 -0.0604 -2.6124 -0.0967
   18CHL1   C27 1329   3.580   0.245   5.068 -0.9840 -0.6243 -0.4518
   18CHL1  H27A 1330   3.472   0.234   5.041 -0.9513 -0.2849 -0.7396
   18CHL1  H27B 1331   3.639   0.224   4.976  0.8847  2.2145 -0.0342
   18CHL1  H27C 1332   3.611   0.166   5.140 -0.4196 -1.3028 -1.4156
   19CHL1    C3 1333   3.703   6.617   6.337 -0.2707 -0.6902 -0.4641
   19CHL1    H3 1334   3.696   6.728   6.331  0.9545 -0.6335 -1.2693
   19CHL1    O3 1335   3.689   6.571   6.477  0.0527 -0.0289  0.5121
   19CHL1   H3' 1336   3.772   6.577   6.525 -0.1639 -0.0268  0.8937
   19CHL1    C4 1337   3.595   6.550   6.258  0.1353  0.2421  0.6928
   19CHL1   H4A 1338   3.601   6.439   6.266  0.4784  0.1678 -0.3649
   19CHL1   H4B 1339   3.497   6.578   6.303  0.1069 -1.6407  1.9197
   19CHL1    C5 1340   3.619   6.591   6.108 -0.2260  0.6257  0.2025
   19CHL1    C6 1341   3.516   6.644   6.039 -0.2975 -0.0515  0.2152
   19CHL1    H6 1342   3.413   6.659   6.075 -1.7708  1.4265 -4.0690
   19CHL1    C7 1343   3.528   6.684   5.896 -0.3731  0.2918 -0.3950
   19CHL1   H7A 1344   3.434   6.654   5.845 -0.2310 -0.8056 -0.0539
   19CHL1   H7B 1345   3.532   6.795   5.892  1.9598  0.2287 -2.1900
   19CHL1    C8 1346   3.645   6.613   5.831 -0.3306 -0.5244 -0.2380
   19CHL1    H8 1347   3.617   6.506   5.821 -0.4295 -0.4011 -1.3896
   19CHL1   C14 1348   3.666   6.667   5.690 -0.3452 -0.2495 -0.1636
   19CHL1   H14 1349   3.701   6.773   5.697  2.1697 -0.8418 -1.9384
   19CHL1   C15 1350   3.541   6.668   5.599 -0.0295 -0.4558 -0.2923
   19CHL1  H15A 1351   3.483   6.573   5.597 -1.6507  0.3968  1.7961
   19CHL1  H15B 1352   3.476   6.756   5.622  1.6237  0.7090  0.1061
   19CHL1   C16 1353   3.599   6.697   5.459 -0.1557  1.3598  0.2879
   19CHL1  H16A 1354   3.557   6.628   5.383  1.8946  1.1774 -0.7489
   19CHL1  H16B 1355   3.585   6.803   5.427 -0.0616  0.5885 -2.6189
   19CHL1   C17 1356   3.755   6.668   5.469 -1.0219 -0.7674 -0.0208
   19CHL1   H17 1357   3.811   6.763   5.478  2.4494 -2.7197  0.9293
   19CHL1   C13 1358   3.775   6.602   5.608 -0.6976 -0.0708  0.3193
   19CHL1   C18 1359   3.761   6.448   5.597  0.3720  0.2875  0.4028
   19CHL1  H18A 1360   3.747   6.409   5.700  0.1512  2.5643  1.3070
   19CHL1  H18B 1361   3.678   6.432   5.525  2.0180 -1.3418 -1.2281
   19CHL1  H18C 1362   3.850   6.406   5.545 -0.8409  0.3868 -1.8714
   19CHL1   C12 1363   3.902   6.640   5.690 -0.4864 -0.5758  1.6156
   19CHL1  H12A 1364   3.996   6.604   5.643 -0.6735  1.3428 -0.3777
   19CHL1  H12B 1365   3.926   6.748   5.696 -0.3047 -0.5031  0.0099
   19CHL1   C11 1366   3.902   6.591   5.833  0.0534 -0.3074  0.2959
   19CHL1  H11A 1367   3.914   6.480   5.833 -2.2757 -0.6512  2.8097
   19CHL1  H11B 1368   3.990   6.637   5.881  1.0578 -1.9026  0.0389
   19CHL1    C9 1369   3.775   6.635   5.910  0.2626 -0.2639 -0.0423
   19CHL1    H9 1370   3.786   6.741   5.939  0.8194 -0.2333 -0.3636
   19CHL1   C10 1371   3.756   6.563   6.051 -0.1129 -0.0792 -0.2001
   19CHL1   C19 1372   3.756   6.406   6.031 -0.4292 -0.2896  0.1286
   19CHL1  H19A 1373   3.668   6.378   5.970 -0.5515  0.5813 -0.1085
   19CHL1  H19B 1374   3.848   6.371   5.979 -2.0601 -1.8714 -1.8790
   19CHL1  H19C 1375   3.753   6.351   6.128 -1.6530  1.2176  0.9924
   19CHL1    C1 1376   3.864   6.609   6.147  0.4077 -0.5823 -0.1768
   19CHL1   H1A 1377   3.956   6.557   6.115 -0.7324 -1.1115 -2.8839
   19CHL1   H1B 1378   3.879   6.719   6.147  0.8472 -0.6399  0.1531
   19CHL1    C2 1379   3.836   6.570   6.290 -0.2531 -0.6267 -0.0507
   19CHL1   H2A 1380   3.918   6.611   6.352 -0.7520 -1.9783  1.6191
   19CHL1   H2B 1381   3.850   6.460   6.293 -0.7126 -0.6911 -0.1861
   19CHL1   C20 1382   3.808   6.598   5.341 -0.3672  0.4701 -0.4033
   19CHL1   H20 1383   3.760   6.499   5.334 -2.1342  1.0767  1.8077
   19CHL1   C21 1384   3.962   6.577   5.347  0.3356 -0.6929  0.4800
   19CHL1  H21A 1385   4.007   6.672   5.383 -0.6888  0.7031 -1.6931
   19CHL1  H21B 1386   3.994   6.553   5.243  0.1791  2.1538 -0.3027
   19CHL1  H21C 1387   3.995   6.498   5.418 -1.2250 -1.7357  0.0783
   19CHL1   C22 1388   3.767   6.684   5.213  0.0257 -0.3869 -0.6049
   19CHL1  H22A 1389   3.667   6.731   5.223  0.0245 -0.4455 -0.3533
   19CHL1  H22B 1390   3.835   6.772   5.206 -1.6267  1.3739  2.9398
   19CHL1   C23 1391   3.777   6.611   5.077 -0.6596  0.0660 -0.1183
   19CHL1  H23A 1392   3.870   6.551   5.073 -0.4925  0.3973 -1.4616
   19CHL1  H23B 1393   3.701   6.530   5.071  0.9745 -1.5011 -0.3322
   19CHL1   C24 1394   3.765   6.696   4.950 -0.2282 -0.2690 -0.1812
   19CHL1  H24A 1395   3.856   6.756   4.930  0.8859 -1.0985  1.9710
   19CHL1  H24B 1396   3.754   6.619   4.871 -2.4145  0.0443 -0.2534
   19CHL1   C25 1397   3.641   6.778   4.937 -0.2816 -0.2387  0.1688
   19CHL1   H25 1398   3.624   6.846   5.023  2.3419 -0.2988  0.7955
   19CHL1   C26 1399   3.663   6.878   4.820 -0.4247  0.2153 -0.5054
   19CHL1  H26A 1400   3.673   6.824   4.723  1.5964  0.6539 -0.5831
   19CHL1  H26B 1401   3.574   6.944   4.822 -2.0063 -1.8407  1.3760
   19CHL1  H26C 1402   3.763   6.926   4.821  0.6858 -2.0071 -0.3264
   19CHL1   C27 1403   3.507   6.711   4.925 -0.8463  1.0424  0.2688
   19CHL1  H27A 1404   3.489   6.661   5.023  0.0861 -0.1056 -0.1180
   19CHL1  H27B 1405   3.433   6.790   4.900  0.0706  1.4487 -1.2609
   19CHL1  H27C 1406   3.500   6.637   4.842  0.2547  1.1967  0.0312
   20CHL1    C3 1407   2.222   6.237   6.226  0.0883 -0.2736  0.1096
   20CHL1    H3 1408   2.201   6.128   6.216 -2.3523  0.0553  1.1186
   20CHL1    O3 1409   2.216   6.269   6.359 -0.1095 -0.6112  0.0497
   20CHL1   H3' 1410   2.274   6.212   6.411 -0.2262 -0.5309  0.2694
   20CHL1    C4 1411   2.361   6.266   6.163 -0.5440  0.2912  0.1053
   20CHL1   H4A 1412   2.391   6.372   6.178  1.2391 -0.3728  1.6783
   20CHL1   H4B 1413   2.438   6.204   6.214 -0.3104  0.4637 -0.0401
   20CHL1    C5 1414   2.364   6.235   6.015  0.6428  0.1380  0.0864
   20CHL1    C6 1415   2.455   6.153   5.955 -0.2500 -1.1972  0.1386
   20CHL1    H6 1416   2.523   6.093   6.016 -0.5136 -3.1185 -1.3706
   20CHL1    C7 1417   2.469   6.128   5.808 -0.0330 -0.2241  0.3722
   20CHL1   H7A 1418   2.574   6.139   5.774 -0.4412  1.6622 -0.3977
   20CHL1   H7B 1419   2.424   6.029   5.783 -0.2616  0.3376 -1.6192
   20CHL1    C8 1420   2.389   6.241   5.728  0.0156  0.2488 -0.0888
   20CHL1    H8 1421   2.445   6.336   5.733  0.4539 -0.0467  3.0786
   20CHL1   C14 1422   2.381   6.206   5.578 -0.3117  0.3000 -0.6498
   20CHL1   H14 1423   2.332   6.107   5.571  2.6312 -1.2406 -0.6884
   20CHL1   C15 1424   2.516   6.183   5.510  0.2667  0.8235  0.0907
   20CHL1  H15A 1425   2.584   6.262   5.549  0.3710  1.2488 -0.9200
   20CHL1  H15B 1426   2.559   6.082   5.530  0.0573  1.0806  1.9645
   20CHL1   C16 1427   2.485   6.202   5.359  0.3309  0.2204 -0.3166
   20CHL1  H16A 1428   2.559   6.275   5.319  1.3450 -0.3400  0.5043
   20CHL1  H16B 1429   2.496   6.109   5.299 -1.6651  0.1686 -0.6768
   20CHL1   C17 1430   2.338   6.256   5.353 -0.9848 -0.3442  0.2472
   20CHL1   H17 1431   2.273   6.167   5.342  0.7249 -1.6897  0.5502
   20CHL1   C13 1432   2.301   6.307   5.501  0.0881 -0.1650 -0.2837
   20CHL1   C18 1433   2.348   6.455   5.522  0.3317 -0.0325 -1.2428
   20CHL1  H18A 1434   2.343   6.495   5.625 -3.2039  1.9147 -2.0111
   20CHL1  H18B 1435   2.456   6.475   5.500  0.2487 -0.4803 -2.0824
   20CHL1  H18C 1436   2.286   6.528   5.465 -2.2135 -0.7384  0.4845
   20CHL1   C12 1437   2.154   6.291   5.546  0.0183  0.4875  0.3733
   20CHL1  H12A 1438   2.092   6.357   5.482 -0.3937  0.6761  0.9574
   20CHL1  H12B 1439   2.123   6.187   5.523  1.8428 -0.0169  0.0349
   20CHL1   C11 1440   2.144   6.323   5.689 -0.6057  0.1331 -0.3144
   20CHL1  H11A 1441   2.132   6.432   5.706  0.6833  0.0931  1.0983
   20CHL1  H11B 1442   2.049   6.286   5.731  0.9700 -1.4973  2.0620
   20CHL1    C9 1443   2.250   6.255   5.786 -0.4008 -0.2825  0.5124
   20CHL1    H9 1444   2.208   6.153   5.781 -0.9375 -0.0569 -4.0172
   20CHL1   C10 1445   2.254   6.309   5.932 -0.3476 -0.1612  0.3034
   20CHL1   C19 1446   2.291   6.456   5.925 -1.0321 -0.5509  0.0495
   20CHL1  H19A 1447   2.391   6.473   5.879 -2.5304  2.0670 -2.5972
   20CHL1  H19B 1448   2.212   6.521   5.882  0.2958  2.6265  2.0285
   20CHL1  H19C 1449   2.298   6.499   6.027 -3.1170 -1.1677  0.4997
   20CHL1    C1 1450   2.112   6.296   5.998  0.6007  0.3488  0.4839
   20CHL1   H1A 1451   2.041   6.363   5.946  0.1461  0.3868  1.1480
   20CHL1   H1B 1452   2.077   6.193   5.974  1.6611  0.1967 -0.5057
   20CHL1    C2 1453   2.110   6.317   6.154 -0.6112 -0.1864  0.3435
   20CHL1   H2A 1454   2.019   6.281   6.208  1.5349 -2.9663  2.3853
   20CHL1   H2B 1455   2.108   6.427   6.173 -0.9119  0.2308 -1.8388
   20CHL1   C20 1456   2.317   6.357   5.234  0.2354  0.2327 -0.4286
   20CHL1   H20 1457   2.372   6.451   5.255  0.2639 -0.1593  1.3824
   20CHL1   C21 1458   2.169   6.395   5.222 -0.4126 -0.2887  0.5723
   20CHL1  H21A 1459   2.149   6.498   5.258 -0.9511  0.1843 -0.9969
   20CHL1  H21B 1460   2.099   6.320   5.266 -0.1558 -0.7124  0.2588
   20CHL1  H21C 1461   2.136   6.399   5.116 -1.9962  1.8236  1.0657
   20CHL1   C22 1462   2.367   6.296   5.096 -0.0808  0.7091  0.4227
   20CHL1  H22A 1463   2.463   6.241   5.093  0.3901  1.5281  0.1874
   20CHL1  H22B 1464   2.293   6.220   5.062 -1.2249  0.5877  2.9620
   20CHL1   C23 1465   2.365   6.397   4.985 -0.3420  0.3014  0.0465
   20CHL1  H23A 1466   2.260   6.422   4.961 -0.5791 -1.4927 -0.9164
   20CHL1  H23B 1467   2.421   6.484   5.026 -0.1756 -0.8340  2.4280
   20CHL1   C24 1468   2.420   6.353   4.852  0.5120 -0.1115 -0.2628
   20CHL1  H24A 1469   2.531   6.355   4.860  0.4328  0.2314  0.9493
   20CHL1  H24B 1470   2.388   6.248   4.835 -1.8542  0.0025  2.5814
   20CHL1   C25 1471   2.388   6.449   4.736 -0.2913 -0.2200  0.6834
   20CHL1   H25 1472   2.279   6.447   4.715 -0.7795  1.6087  2.6893
   20CHL1   C26 1473   2.418   6.601   4.763 -0.1953 -0.1605 -0.2764
   20CHL1  H26A 1474   2.373   6.662   4.682  1.6219  1.7100  0.0371
   20CHL1  H26B 1475   2.373   6.631   4.860 -0.6659  2.3959 -1.2064
   20CHL1  H26C 1476   2.526   6.629   4.763 -0.6953  1.9107 -1.0203
   20CHL1   C27 1477   2.465   6.409   4.607 -0.5479 -0.3632 -0.4068
   20CHL1  H27A 1478   2.464   6.299   4.602  2.2793 -0.7667  3.2218
   20CHL1  H27B 1479   2.438   6.479   4.525 -2.1961 -0.8584 -0.3210
   20CHL1  H27C 1480   2.569   6.441   4.630 -0.8287 -0.1625  0.6389
   21CHL1    C3 1481   2.049   1.146   6.483  0.4259 -0.0459  0.0774
   21CHL1    H3 1482   2.006   1.044   6.475 -0.7871  0.2913  1.7356
   21CHL1    O3 1483   2.076   1.181   6.617  0.1125  0.2856 -0.2591
   21CHL1   H3' 1484   2.063   1.276   6.611  1.1725  0.4302 -0.4250
   21CHL1    C4 1485   2.181   1.139   6.406 -0.8259  0.4330 -0.4829
   21CHL1   H4A 1486   2.231   1.238   6.407 -3.0924  1.6504 -0.6307
   21CHL1   H4B 1487   2.251   1.070   6.458 -0.4192  1.2890  0.1325
   21CHL1    C5 1488   2.168   1.094   6.259 -0.2963 -0.4054 -0.3465
   21CHL1    C6 1489   2.228   0.979   6.217 -0.7231 -0.2196 -0.3067
   21CHL1    H6 1490   2.295   0.914   6.275  0.1742 -0.7036 -1.8023
   21CHL1    C7 1491   2.215   0.934   6.073  0.6776 -0.2486  0.0312
   21CHL1   H7A 1492   2.315   0.905   6.033  0.8615 -2.8538  2.0716
   21CHL1   H7B 1493   2.165   0.835   6.064  3.5290 -1.7232 -1.1774
   21CHL1    C8 1494   2.141   1.040   5.982 -0.0090  0.1438  0.5865
   21CHL1    H8 1495   2.222   1.109   5.950 -1.3579  2.4878  1.9341
   21CHL1   C14 1496   2.080   0.966   5.862 -0.7395 -0.1270  0.7896
   21CHL1   H14 1497   2.005   0.900   5.909 -0.8502  0.3121  1.2332
   21CHL1   C15 1498   2.168   0.852   5.788  0.2637  0.8185  0.5840
   21CHL1  H15A 1499   2.269   0.899   5.786  0.2243  0.9369 -2.4816
   21CHL1  H15B 1500   2.159   0.754   5.839  1.4280  1.2602  1.7121
   21CHL1   C16 1501   2.111   0.859   5.645  0.1853  0.3959  0.0162
   21CHL1  H16A 1502   2.190   0.898   5.577  0.4237 -0.8573 -0.4447
   21CHL1  H16B 1503   2.075   0.766   5.597 -0.6187  1.9808 -2.6192
   21CHL1   C17 1504   1.990   0.963   5.646  0.6133 -0.1008 -0.1123
   21CHL1   H17 1505   1.912   0.903   5.697  0.8189  0.4668  0.8976
   21CHL1   C13 1506   2.026   1.059   5.750 -0.5550 -0.0118  1.2204
   21CHL1   C18 1507   2.142   1.152   5.701  0.4064  0.2763  0.5975
   21CHL1  H18A 1508   2.178   1.226   5.776 -0.3487  0.4481  0.7994
   21CHL1  H18B 1509   2.225   1.090   5.662  2.2221  2.9063 -0.0407
   21CHL1  H18C 1510   2.099   1.213   5.618  0.5818  1.0485  1.0544
   21CHL1   C12 1511   1.908   1.143   5.814  0.1340  0.1872 -0.2615
   21CHL1  H12A 1512   1.874   1.220   5.741  0.9040  1.3265  0.5376
   21CHL1  H12B 1513   1.834   1.068   5.847 -1.1231  0.2889 -2.6023
   21CHL1   C11 1514   1.956   1.215   5.942 -0.2367 -0.1246  0.2109
   21CHL1  H11A 1515   2.017   1.305   5.919  0.1651 -0.4643 -0.0708
   21CHL1  H11B 1516   1.865   1.246   5.998  0.3632  0.8397  0.6634
   21CHL1    C9 1517   2.028   1.120   6.048 -0.3092 -0.2437 -0.0543
   21CHL1    H9 1518   1.945   1.048   6.065  0.6346 -1.6370 -1.0912
   21CHL1   C10 1519   2.073   1.183   6.177  0.6207  0.1754 -0.0679
   21CHL1   C19 1520   2.141   1.317   6.144 -0.1060 -0.7978  0.2604
   21CHL1  H19A 1521   2.212   1.359   6.218 -0.2572  0.9926 -0.5597
   21CHL1  H19B 1522   2.206   1.299   6.056 -1.2080 -2.8870 -0.1942
   21CHL1  H19C 1523   2.073   1.405   6.132 -1.6012 -1.9692 -0.1524
   21CHL1    C1 1524   1.944   1.216   6.258  0.0313  0.1255  0.4073
   21CHL1   H1A 1525   1.898   1.307   6.215 -2.3451 -1.9103 -1.7320
   21CHL1   H1B 1526   1.880   1.126   6.244  1.2645 -0.3244 -3.4032
   21CHL1    C2 1527   1.958   1.244   6.412  0.7076 -0.6284 -0.3848
   21CHL1   H2A 1528   1.859   1.242   6.463  0.5674 -0.7081 -0.6613
   21CHL1   H2B 1529   2.008   1.342   6.426 -0.8856 -0.1768  3.6727
   21CHL1   C20 1530   1.942   1.020   5.516  0.1339 -0.4351 -0.3859
   21CHL1   H20 1531   1.909   1.125   5.526  0.8830 -0.2330  0.0701
   21CHL1   C21 1532   1.824   0.938   5.461  0.6130  0.7174  0.8328
   21CHL1  H21A 1533   1.851   0.831   5.451  0.1157  0.7499 -1.4111
   21CHL1  H21B 1534   1.800   0.959   5.355  1.9689  0.1764  0.3834
   21CHL1  H21C 1535   1.743   0.947   5.536  1.6046 -1.7293  2.3029
   21CHL1   C22 1536   2.043   1.032   5.401  0.0006  0.1751 -0.9522
   21CHL1  H22A 1537   2.139   1.063   5.445  0.3385  1.0148 -2.2348
   21CHL1  H22B 1538   2.056   0.926   5.371  0.5907  0.2134 -0.8350
   21CHL1   C23 1539   2.018   1.109   5.275  0.9283  0.1363 -0.9788
   21CHL1  H23A 1540   1.951   1.055   5.204  0.8162 -1.3369  0.2105
   21CHL1  H23B 1541   1.962   1.203   5.297 -0.2335 -0.8812  0.6478
   21CHL1   C24 1542   2.144   1.134   5.197  0.1052 -0.3594 -1.0165
   21CHL1  H24A 1543   2.197   1.208   5.260  0.8552 -2.0683  0.4706
   21CHL1  H24B 1544   2.204   1.041   5.207 -0.5524 -0.5679  1.6050
   21CHL1   C25 1545   2.128   1.181   5.053 -0.0208  0.2028 -0.6045
   21CHL1   H25 1546   2.227   1.216   5.018  0.4384  1.8111  2.0598
   21CHL1   C26 1547   2.081   1.067   4.964  0.4468  0.6725 -0.5842
   21CHL1  H26A 1548   2.072   1.091   4.856 -0.3253  1.6552 -0.3077
   21CHL1  H26B 1549   2.153   0.982   4.975 -2.6170 -2.1359 -0.5621
   21CHL1  H26C 1550   1.980   1.025   4.985  2.3296 -3.4261  1.6387
   21CHL1   C27 1551   2.024   1.295   5.050  0.1377 -0.2738 -0.2806
   21CHL1  H27A 1552   2.014   1.318   4.942 -1.6777  2.0606  0.2951
   21CHL1  H27B 1553   1.923   1.255   5.073 -0.2101  0.1207 -1.0950
   21CHL1  H27C 1554   2.065   1.382   5.107 -1.5204 -0.1742  0.8542
   22CHL1    C3 1555   1.560   2.635   6.450 -0.0152 -0.2349  0.3936
   22CHL1    H3 1556   1.509   2.536   6.446 -1.1188  0.0805  3.5853
   22CHL1    O3 1557   1.569   2.662   6.588 -0.5686  0.1985  0.1539
   22CHL1   H3' 1558   1.477   2.683   6.604 -0.7991  2.4798 -3.1528
   22CHL1    C4 1559   1.698   2.616   6.388  0.1413 -0.5612 -0.2173
   22CHL1   H4A 1560   1.758   2.708   6.405  0.2746 -0.4192 -1.3879
   22CHL1   H4B 1561   1.748   2.534   6.444  1.2202  0.9757  1.1919
   22CHL1    C5 1562   1.695   2.585   6.241  0.0056  0.1153  0.5054
   22CHL1    C6 1563   1.762   2.483   6.189  0.3734 -0.5364 -0.0710
   22CHL1    H6 1564   1.826   2.425   6.256 -1.1282 -2.4734 -0.2318
   22CHL1    C7 1565   1.762   2.445   6.042  0.4981  0.2789  0.4922
   22CHL1   H7A 1566   1.862   2.409   6.011 -0.3801 -1.3213 -0.6039
   22CHL1   H7B 1567   1.689   2.365   6.018 -0.4845  1.6377 -1.2267
   22CHL1    C8 1568   1.720   2.568   5.957  0.7450 -0.1787  0.0607
   22CHL1    H8 1569   1.802   2.643   5.955  1.3172 -0.6790  2.1537
   22CHL1   C14 1570   1.700   2.522   5.813 -0.0570 -0.0560 -0.7746
   22CHL1   H14 1571   1.619   2.446   5.806  0.0820 -0.1594 -1.3032
   22CHL1   C15 1572   1.817   2.450   5.756 -0.2640 -0.1555 -0.1268
   22CHL1  H15A 1573   1.910   2.503   5.788  0.3340 -0.2282 -1.6559
   22CHL1  H15B 1574   1.829   2.344   5.786 -0.1110  0.3657  1.7661
   22CHL1   C16 1575   1.796   2.466   5.600  0.3390  0.0195 -0.7346
   22CHL1  H16A 1576   1.880   2.526   5.561 -0.9209  0.4801 -2.8650
   22CHL1  H16B 1577   1.787   2.370   5.545  0.0546 -0.9553  0.9238
   22CHL1   C17 1578   1.665   2.553   5.592  0.5885  0.0428  0.2153
   22CHL1   H17 1579   1.583   2.478   5.589 -1.1419  1.8002  0.9371
   22CHL1   C13 1580   1.658   2.642   5.722 -0.2305 -0.1771  0.2773
   22CHL1   C18 1581   1.765   2.752   5.712 -0.4848 -0.0531  0.0440
   22CHL1  H18A 1582   1.779   2.793   5.815 -0.1213  1.2378 -0.4998
   22CHL1  H18B 1583   1.863   2.720   5.670 -1.8445 -0.5091 -3.0140
   22CHL1  H18C 1584   1.720   2.823   5.640  0.6848 -0.3637 -1.0265
   22CHL1   C12 1585   1.516   2.693   5.774 -0.7347  0.0008  0.4072
   22CHL1  H12A 1586   1.484   2.775   5.705  2.4641 -0.2437 -1.6139
   22CHL1  H12B 1587   1.434   2.620   5.760  0.9345 -1.8388 -0.2551
   22CHL1   C11 1588   1.524   2.735   5.922  0.3951  0.7655 -0.5747
   22CHL1  H11A 1589   1.576   2.833   5.919 -1.2146  1.6223 -2.1994
   22CHL1  H11B 1590   1.425   2.768   5.960  0.3589 -0.8363  0.8316
   22CHL1    C9 1591   1.589   2.630   6.018  0.0078  1.1811  0.5019
   22CHL1    H9 1592   1.521   2.543   6.014  1.2803  0.1634 -2.6294
   22CHL1   C10 1593   1.606   2.684   6.161 -0.2585 -0.4743  0.4716
   22CHL1   C19 1594   1.687   2.826   6.164  0.8188 -0.4729  0.4563
   22CHL1  H19A 1595   1.708   2.869   6.265  2.0020 -2.0427  0.9264
   22CHL1  H19B 1596   1.786   2.822   6.114  0.4963  1.5220 -0.4064
   22CHL1  H19C 1597   1.633   2.899   6.101  1.3134 -1.8568 -1.6870
   22CHL1    C1 1598   1.471   2.701   6.236 -0.0318  0.1912 -0.6592
   22CHL1   H1A 1599   1.423   2.784   6.178  0.0595  2.1017  1.8252
   22CHL1   H1B 1600   1.407   2.611   6.243  1.1585 -0.6712 -0.6331
   22CHL1    C2 1601   1.479   2.737   6.383 -0.0452 -0.0429  0.2600
   22CHL1   H2A 1602   1.381   2.755   6.431 -0.0633  0.6277 -0.0220
   22CHL1   H2B 1603   1.523   2.839   6.384 -0.8650  0.3306 -0.5584
   22CHL1   C20 1604   1.648   2.629   5.461 -0.4485 -0.0644 -0.0479
   22CHL1   H20 1605   1.733   2.701   5.454  0.6632 -1.0686  2.3194
   22CHL1   C21 1606   1.517   2.708   5.438  0.9668  0.3087 -0.7017
   22CHL1  H21A 1607   1.439   2.659   5.500  0.8743 -0.7557 -1.6271
   22CHL1  H21B 1608   1.498   2.711   5.329 -0.3002  0.8270 -0.4750
   22CHL1  H21C 1609   1.527   2.814   5.468 -0.4292 -0.3658  2.6000
   22CHL1   C22 1610   1.669   2.532   5.339  1.0078  0.5656  0.6284
   22CHL1  H22A 1611   1.685   2.598   5.252  1.9090  0.1730  0.4875
   22CHL1  H22B 1612   1.753   2.462   5.357  0.1883 -0.5260  0.3550
   22CHL1   C23 1613   1.542   2.439   5.304  0.5999 -0.1230  1.0866
   22CHL1  H23A 1614   1.515   2.374   5.390 -0.1186 -1.0402  0.1868
   22CHL1  H23B 1615   1.463   2.512   5.276  0.7315 -0.7881 -1.2834
   22CHL1   C24 1616   1.571   2.342   5.189  0.1404  0.7112 -0.0072
   22CHL1  H24A 1617   1.633   2.265   5.240 -1.0138  0.1988  0.6597
   22CHL1  H24B 1618   1.474   2.304   5.150  0.1400  0.6898  0.0152
   22CHL1   C25 1619   1.655   2.389   5.066 -0.1861  0.2347 -0.4399
   22CHL1   H25 1620   1.743   2.435   5.117 -0.4986 -1.1121  1.4165
   22CHL1   C26 1621   1.700   2.273   4.981  0.3809 -0.3809 -0.0280
   22CHL1  H26A 1622   1.620   2.237   4.913  0.8812 -0.9570 -0.3246
   22CHL1  H26B 1623   1.781   2.313   4.915 -0.8533  2.1534 -0.1041
   22CHL1  H26C 1624   1.729   2.183   5.040 -1.9815 -0.8245  0.5272
   22CHL1   C27 1625   1.583   2.493   4.987 -0.2947  0.6504  0.7582
   22CHL1  H27A 1626   1.650   2.516   4.901  0.9041 -1.5279  1.0348
   22CHL1  H27B 1627   1.485   2.461   4.946 -0.2038  0.8781  0.3561
   22CHL1  H27C 1628   1.578   2.588   5.045 -0.6231  2.2771 -1.7888
   23CHL1    C3 1629   2.556   0.763   6.466 -0.1846  0.0687 -0.8368
   23CHL1    H3 1630   2.478   0.836   6.437 -0.9773 -0.0908  0.7469
   23CHL1    O3 1631   2.564   0.782   6.610 -0.3796 -0.0437  0.3617
   23CHL1   H3' 1632   2.647   0.744   6.639  0.6095  0.3054 -1.8430
   23CHL1    C4 1633   2.521   0.620   6.439  0.7201 -0.2475 -0.0667
   23CHL1   H4A 1634   2.609   0.559   6.468  0.3822 -1.1106 -0.8004
   23CHL1   H4B 1635   2.434   0.594   6.503  2.9975  1.0234  3.8931
   23CHL1    C5 1636   2.500   0.598   6.289 -0.4135  0.2939 -0.0647
   23CHL1    C6 1637   2.387   0.555   6.240  0.5707 -0.8374  0.4939
   23CHL1    H6 1638   2.301   0.524   6.302 -1.2750  0.0162 -1.5260
   23CHL1    C7 1639   2.368   0.543   6.089  0.2369 -0.0553  0.1645
   23CHL1   H7A 1640   2.331   0.441   6.066  0.7589 -0.1648 -0.1973
   23CHL1   H7B 1641   2.282   0.605   6.055 -1.3622 -1.8969  0.6459
   23CHL1    C8 1642   2.490   0.568   5.997 -0.6245  0.0148 -0.3278
   23CHL1    H8 1643   2.556   0.479   6.000  0.6483  0.9594  1.5632
   23CHL1   C14 1644   2.463   0.596   5.847  0.3345 -0.3902 -0.8309
   23CHL1   H14 1645   2.404   0.690   5.854  0.9913 -0.0570  0.6692
   23CHL1   C15 1646   2.368   0.495   5.772 -0.0202 -0.7256 -0.0990
   23CHL1  H15A 1647   2.413   0.393   5.775  1.9705  0.1412  1.4958
   23CHL1  H15B 1648   2.271   0.484   5.824  0.4220  0.2905  0.9718
   23CHL1   C16 1649   2.376   0.544   5.628 -0.0395 -0.4820  0.7149
   23CHL1  H16A 1650   2.375   0.455   5.561  0.6808 -1.4026  1.9031
   23CHL1  H16B 1651   2.287   0.601   5.593 -0.0394 -0.7588  0.2596
   23CHL1   C17 1652   2.501   0.635   5.616 -0.5341 -0.5604  0.7343
   23CHL1   H17 1653   2.455   0.736   5.624 -0.4624 -0.5453  0.9610
   23CHL1   C13 1654   2.577   0.623   5.751 -0.0103  0.0629 -0.5580
   23CHL1   C18 1655   2.661   0.499   5.753 -0.5186  0.3945 -0.1233
   23CHL1  H18A 1656   2.704   0.479   5.854 -1.5859 -1.5062  0.0018
   23CHL1  H18B 1657   2.606   0.404   5.740  0.1306 -0.2939  1.7450
   23CHL1  H18C 1658   2.742   0.504   5.677 -0.6192  2.6554 -0.1648
   23CHL1   C12 1659   2.653   0.740   5.804  0.0238  0.1856 -0.4147
   23CHL1  H12A 1660   2.748   0.748   5.746  0.4945  0.3126  0.3496
   23CHL1  H12B 1661   2.594   0.832   5.786 -0.1852  0.4571  1.4342
   23CHL1   C11 1662   2.690   0.724   5.954 -0.4687  0.5266  0.1440
   23CHL1  H11A 1663   2.781   0.662   5.959  0.4405  1.8156  0.0624
   23CHL1  H11B 1664   2.725   0.824   5.988 -0.9784  1.2596 -1.3679
   23CHL1    C9 1665   2.574   0.684   6.051  0.5156  0.8882  0.7242
   23CHL1    H9 1666   2.498   0.765   6.052  0.9710  1.3338  0.0551
   23CHL1   C10 1667   2.612   0.654   6.197 -0.0487 -0.3958  0.6360
   23CHL1   C19 1668   2.731   0.547   6.207  0.5334  0.0370  0.0374
   23CHL1  H19A 1669   2.686   0.455   6.163  0.5262  0.2885 -0.4813
   23CHL1  H19B 1670   2.824   0.576   6.155  1.3707 -2.2239  0.1368
   23CHL1  H19C 1671   2.764   0.522   6.310  1.9144 -1.4894 -0.7370
   23CHL1    C1 1672   2.669   0.782   6.255 -0.0102 -0.1066 -0.2400
   23CHL1   H1A 1673   2.765   0.811   6.208 -1.4330  0.7595 -2.8094
   23CHL1   H1B 1674   2.598   0.864   6.231 -0.8703 -0.8308 -0.2053
   23CHL1    C2 1675   2.692   0.784   6.405  0.0283 -0.3768 -0.5528
   23CHL1   H2A 1676   2.736   0.883   6.433 -0.7920 -0.0539 -0.3891
   23CHL1   H2B 1677   2.769   0.711   6.438  0.0705 -1.2325 -2.4141
   23CHL1   C20 1678   2.581   0.609   5.480  0.2882 -0.0637 -0.2166
   23CHL1   H20 1679   2.616   0.503   5.480 -2.0357 -0.9038 -1.6502
   23CHL1   C21 1680   2.701   0.706   5.472 -0.1814 -0.0807 -0.1403
   23CHL1  H21A 1681   2.778   0.671   5.543  1.1351  1.5943 -0.6896
   23CHL1  H21B 1682   2.657   0.807   5.491 -1.3143 -0.6387  0.3169
   23CHL1  H21C 1683   2.748   0.708   5.372 -2.0918  1.0923 -1.0785
   23CHL1   C22 1684   2.495   0.610   5.357 -0.0394  0.4519  0.5867
   23CHL1  H22A 1685   2.545   0.582   5.262  2.8726  3.4861  1.0447
   23CHL1  H22B 1686   2.418   0.533   5.381 -2.7030  1.8487 -2.7810
   23CHL1   C23 1687   2.419   0.739   5.324  0.1035  0.4095  0.2552
   23CHL1  H23A 1688   2.359   0.769   5.413  1.0942  1.0672  0.7212
   23CHL1  H23B 1689   2.493   0.820   5.307  0.9987 -0.0695  1.6689
   23CHL1   C24 1690   2.322   0.731   5.206  0.0210  0.3647 -0.4670
   23CHL1  H24A 1691   2.262   0.639   5.221  0.8205 -0.0888  0.0160
   23CHL1  H24B 1692   2.251   0.816   5.206 -0.4692 -0.0327 -1.0643
   23CHL1   C25 1693   2.396   0.726   5.071  0.3958 -0.3410 -0.3749
   23CHL1   H25 1694   2.459   0.635   5.067 -2.2420 -2.2700 -3.6852
   23CHL1   C26 1695   2.294   0.704   4.958  0.2866  0.4353  0.0779
   23CHL1  H26A 1696   2.220   0.622   4.971  0.9704 -0.1720  0.1853
   23CHL1  H26B 1697   2.232   0.796   4.945  0.5451  0.7777  1.1841
   23CHL1  H26C 1698   2.343   0.694   4.859 -0.4853 -0.6216 -0.2078
   23CHL1   C27 1699   2.485   0.850   5.044  0.3896  0.7253  0.7447
   23CHL1  H27A 1700   2.573   0.856   5.112  1.1593 -2.0267  0.1082
   23CHL1  H27B 1701   2.510   0.841   4.936 -1.1263  1.0558  0.3461
   23CHL1  H27C 1702   2.439   0.951   5.039  0.2905  0.6412 -0.4062
   24CHL1    C3 1703   2.765   5.936   6.039  0.1764  0.0262  0.6523
   24CHL1    H3 1704   2.743   6.038   6.000  0.7402 -0.7096 -1.7748
   24CHL1    O3 1705   2.701   5.908   6.167  0.0965 -0.4757  0.0276
   24CHL1   H3' 1706   2.718   5.814   6.172  0.5062 -0.4926 -1.2842
   24CHL1    C4 1707   2.714   5.836   5.938  0.0789  0.4891  0.8670
   24CHL1   H4A 1708   2.723   5.731   5.974 -0.6188 -0.7611 -2.2790
   24CHL1   H4B 1709   2.604   5.852   5.939 -0.1223 -0.8090  1.4854
   24CHL1    C5 1710   2.781   5.858   5.804 -0.4032  0.4751  0.7412
   24CHL1    C6 1711   2.712   5.888   5.692 -0.1422  0.1952  0.4538
   24CHL1    H6 1712   2.603   5.894   5.703 -0.2727  2.2020 -1.3067
   24CHL1    C7 1713   2.768   5.908   5.556  0.3445 -0.5905 -0.0450
   24CHL1   H7A 1714   2.687   5.861   5.496 -1.0683  2.2575 -0.5133
   24CHL1   H7B 1715   2.780   6.014   5.527  2.6865 -0.2911  1.7615
   24CHL1    C8 1716   2.908   5.843   5.553  0.0298  0.6411  0.2866
   24CHL1    H8 1717   2.891   5.734   5.566 -3.8175  0.9119 -1.2114
   24CHL1   C14 1718   2.966   5.885   5.423  0.2754  0.2167  0.4145
   24CHL1   H14 1719   2.966   5.997   5.425 -1.5405  0.2888 -1.0296
   24CHL1   C15 1720   2.890   5.866   5.291  0.4041  0.5070  0.4353
   24CHL1  H15A 1721   2.863   5.759   5.276 -0.9297  1.2376 -3.8421
   24CHL1  H15B 1722   2.804   5.934   5.276 -1.1440 -1.3993  0.2948
   24CHL1   C16 1723   2.995   5.897   5.178 -0.4008 -0.2240 -0.1811
   24CHL1  H16A 1724   2.999   5.827   5.091  2.1171  0.5502 -0.7827
   24CHL1  H16B 1725   2.972   5.995   5.131 -0.0042 -0.3075 -0.5625
   24CHL1   C17 1726   3.133   5.905   5.251 -0.4049 -0.3838 -0.0659
   24CHL1   H17 1727   3.154   6.014   5.257 -0.8061 -0.0940 -2.8508
   24CHL1   C13 1728   3.110   5.847   5.388 -0.0876 -0.1584 -0.0908
   24CHL1   C18 1729   3.121   5.687   5.370  0.2921  0.1761  0.3500
   24CHL1  H18A 1730   3.060   5.644   5.287  1.3531 -2.5863  0.8850
   24CHL1  H18B 1731   3.228   5.655   5.367  0.3938  0.5042 -1.9187
   24CHL1  H18C 1732   3.086   5.634   5.461  0.7566 -0.9652 -0.1135
   24CHL1   C12 1733   3.207   5.902   5.505  0.3082 -0.5615 -0.3198
   24CHL1  H12A 1734   3.314   5.872   5.503  0.3530 -0.7201  1.7157
   24CHL1  H12B 1735   3.205   6.013   5.502  2.6123 -0.3774  1.5791
   24CHL1   C11 1736   3.150   5.855   5.639  0.0534 -0.5649 -0.4199
   24CHL1  H11A 1737   3.159   5.744   5.638  3.4133 -0.4250  1.3671
   24CHL1  H11B 1738   3.210   5.891   5.724 -2.3323  0.0712  1.0978
   24CHL1    C9 1739   2.993   5.892   5.667 -0.1670  0.1903  0.2009
   24CHL1    H9 1740   2.994   6.003   5.666 -0.4954  0.1880 -0.5118
   24CHL1   C10 1741   2.939   5.847   5.805  0.1755  0.0493  0.6209
   24CHL1   C19 1742   2.984   5.702   5.835 -0.6080 -0.5348  0.0521
   24CHL1  H19A 1743   2.932   5.652   5.920 -1.9784  1.5152  0.4999
   24CHL1  H19B 1744   2.962   5.646   5.742 -1.8896  1.6928 -1.0680
   24CHL1  H19C 1745   3.094   5.705   5.841 -0.5387  0.1948 -1.2484
   24CHL1    C1 1746   2.990   5.943   5.919 -0.5146 -0.1955 -0.6372
   24CHL1   H1A 1747   3.099   5.928   5.931 -0.5753 -2.1587 -2.0349
   24CHL1   H1B 1748   2.986   6.049   5.885  1.3026  0.3660  0.7483
   24CHL1    C2 1749   2.920   5.929   6.051 -0.3635  0.0504  0.6628
   24CHL1   H2A 1750   2.959   6.006   6.121 -1.0659 -1.3959  2.7553
   24CHL1   H2B 1751   2.940   5.829   6.095  1.4991 -0.1348 -0.5232
   24CHL1   C20 1752   3.252   5.845   5.164  0.0274 -0.5230 -0.9687
   24CHL1   H20 1753   3.230   5.738   5.147 -0.4293 -0.5435 -0.3054
   24CHL1   C21 1754   3.391   5.872   5.241 -0.2021  0.1516  0.5266
   24CHL1  H21A 1755   3.417   5.805   5.325 -2.1710  0.8631  1.7775
   24CHL1  H21B 1756   3.400   5.979   5.272  1.0253 -0.6157  3.0194
   24CHL1  H21C 1757   3.482   5.856   5.179 -0.7790  0.4535 -0.4295
   24CHL1   C22 1758   3.263   5.911   5.019  0.4225  0.4987 -0.0256
   24CHL1  H22A 1759   3.166   5.907   4.965  0.3017  0.7178  0.1696
   24CHL1  H22B 1760   3.293   6.018   5.024 -0.1074  0.7620 -1.8721
   24CHL1   C23 1761   3.367   5.845   4.925 -0.3095 -0.0690  0.0464
   24CHL1  H23A 1762   3.469   5.852   4.968  0.0453  0.9163 -0.8983
   24CHL1  H23B 1763   3.330   5.741   4.911  0.6176 -0.6549  1.6680
   24CHL1   C24 1764   3.367   5.925   4.796  0.4431  0.4764  0.7660
   24CHL1  H24A 1765   3.263   5.916   4.758 -0.5623  0.2557  3.3625
   24CHL1  H24B 1766   3.380   6.029   4.832 -1.1392  1.2350 -0.7068
   24CHL1   C25 1767   3.477   5.880   4.699 -0.3314  0.2426  0.0002
   24CHL1   H25 1768   3.468   5.771   4.683  2.5337 -0.1101  0.2325
   24CHL1   C26 1769   3.457   5.963   4.576 -0.7348  0.0691 -0.3111
   24CHL1  H26A 1770   3.488   6.068   4.594  0.7230 -0.6763  1.8407
   24CHL1  H26B 1771   3.515   5.919   4.491  0.5264 -3.5797  2.1540
   24CHL1  H26C 1772   3.350   5.957   4.546 -0.1289 -0.6784 -2.5552
   24CHL1   C27 1773   3.622   5.905   4.761 -0.0402  0.2913 -0.3661
   24CHL1  H27A 1774   3.693   5.918   4.676 -0.0113 -1.6930 -0.6925
   24CHL1  H27B 1775   3.621   5.992   4.831  1.8689 -0.0283  0.1124
   24CHL1  H27C 1776   3.666   5.822   4.819  1.9387  1.2476 -0.4289
   25CHL1    C3 1777   6.054   2.272   6.092 -0.0936 -0.2000 -0.1196
   25CHL1    H3 1778   5.950   2.283   6.052  1.0955  0.0675 -3.5118
   25CHL1    O3 1779   6.058   2.243   6.229 -0.2923 -0.0043 -0.0856
   25CHL1   H3' 1780   6.011   2.163   6.251 -2.5727  1.7762  2.0763
   25CHL1    C4 1781   6.124   2.150   6.025 -1.0506  1.3922  0.1221
   25CHL1   H4A 1782   6.215   2.130   6.086 -1.2841 -0.6996 -0.1404
   25CHL1   H4B 1783   6.052   2.065   6.027  1.6489 -1.1110 -0.8841
   25CHL1    C5 1784   6.155   2.169   5.878 -0.2883 -0.0926  0.4231
   25CHL1    C6 1785   6.124   2.071   5.790  0.1090  0.4777 -0.3319
   25CHL1    H6 1786   6.073   1.980   5.825  0.3176  0.9401  1.2573
   25CHL1    C7 1787   6.164   2.082   5.650 -0.0335 -0.8698  0.2387
   25CHL1   H7A 1788   6.215   1.988   5.618  3.3830  1.4251 -1.8161
   25CHL1   H7B 1789   6.080   2.109   5.583  0.8063 -1.5495 -1.1551
   25CHL1    C8 1790   6.273   2.192   5.621  0.4301 -0.5770 -0.9029
   25CHL1    H8 1791   6.370   2.149   5.655  1.8102  2.4369 -0.7101
   25CHL1   C14 1792   6.290   2.215   5.473 -0.8049 -0.1307  0.3230
   25CHL1   H14 1793   6.186   2.249   5.451 -0.4128  1.0096  0.1647
   25CHL1   C15 1794   6.317   2.093   5.382 -0.3433 -0.5413  0.3176
   25CHL1  H15A 1795   6.400   2.030   5.421 -1.0644  0.2109  3.3961
   25CHL1  H15B 1796   6.221   2.038   5.376 -1.1488  0.9208 -0.9888
   25CHL1   C16 1797   6.349   2.153   5.248 -0.2380  0.1824  0.8265
   25CHL1  H16A 1798   6.439   2.102   5.207  0.1812  1.6723 -0.2231
   25CHL1  H16B 1799   6.263   2.129   5.182  0.8087  1.1561 -0.9787
   25CHL1   C17 1800   6.369   2.307   5.275  0.6990  0.1935 -0.0377
   25CHL1   H17 1801   6.268   2.350   5.258  1.0677  0.9350 -0.4001
   25CHL1   C13 1802   6.385   2.323   5.425 -0.0114 -0.2927 -1.2323
   25CHL1   C18 1803   6.525   2.280   5.465  0.3851  0.0806 -0.1499
   25CHL1  H18A 1804   6.535   2.284   5.575 -3.5766  0.3055  0.3667
   25CHL1  H18B 1805   6.563   2.181   5.433  1.9079  0.4313  0.4795
   25CHL1  H18C 1806   6.593   2.357   5.422 -1.0617  0.1107 -2.6122
   25CHL1   C12 1807   6.340   2.454   5.498 -0.3872 -0.1166 -0.1089
   25CHL1  H12A 1808   6.404   2.544   5.485  0.0556 -0.5506 -1.0999
   25CHL1  H12B 1809   6.238   2.473   5.460 -0.1481  0.2056 -0.6120
   25CHL1   C11 1810   6.337   2.437   5.650 -0.3390  0.3888 -0.1088
   25CHL1  H11A 1811   6.434   2.408   5.695 -1.2594 -2.8050  0.0740
   25CHL1  H11B 1812   6.286   2.526   5.692 -0.4339 -0.1745  1.0163
   25CHL1    C9 1813   6.239   2.322   5.692 -0.9864 -0.0476  0.2782
   25CHL1    H9 1814   6.143   2.362   5.654 -0.5176  0.8176 -0.0029
   25CHL1   C10 1815   6.220   2.304   5.849 -0.2159  0.1613  0.2227
   25CHL1   C19 1816   6.366   2.296   5.914 -0.2362 -0.4630 -0.3255
   25CHL1  H19A 1817   6.428   2.215   5.870  1.3081  1.1135 -1.1892
   25CHL1  H19B 1818   6.416   2.393   5.891  1.6090 -1.6895 -1.9035
   25CHL1  H19C 1819   6.361   2.301   6.025  0.3276  1.3315 -0.3473
   25CHL1    C1 1820   6.135   2.415   5.909  0.5392 -0.1904 -0.4901
   25CHL1   H1A 1821   6.161   2.518   5.875 -0.8436  0.3174 -0.0868
   25CHL1   H1B 1822   6.030   2.412   5.873  0.0343 -0.3250  0.9164
   25CHL1    C2 1823   6.121   2.408   6.067  0.3051  0.0968  0.8816
   25CHL1   H2A 1824   6.049   2.486   6.102 -3.4742 -2.8496  0.3940
   25CHL1   H2B 1825   6.222   2.414   6.113  0.6018  1.2390  0.1269
   25CHL1   C20 1826   6.480   2.359   5.188  0.0413 -0.8706 -0.0257
   25CHL1   H20 1827   6.579   2.316   5.214 -0.3891 -3.7518 -2.5724
   25CHL1   C21 1828   6.486   2.515   5.206  0.6908  0.3595  0.1215
   25CHL1  H21A 1829   6.508   2.555   5.307 -1.9733  0.7307  0.6092
   25CHL1  H21B 1830   6.389   2.545   5.163  0.6513  0.0166 -0.0297
   25CHL1  H21C 1831   6.568   2.552   5.141 -0.9155  1.9709 -1.0817
   25CHL1   C22 1832   6.463   2.327   5.034 -0.5160  0.0726  0.1617
   25CHL1  H22A 1833   6.409   2.232   5.018  0.7701 -0.6559  0.0351
   25CHL1  H22B 1834   6.411   2.413   4.986  0.7107  1.3361  1.0036
   25CHL1   C23 1835   6.600   2.314   4.955  0.4387  0.1535  0.1907
   25CHL1  H23A 1836   6.643   2.416   4.955 -0.0821  0.4269  2.0891
   25CHL1  H23B 1837   6.663   2.246   5.017 -0.1780  0.2645  0.9711
   25CHL1   C24 1838   6.578   2.264   4.811 -0.0597  0.4716  0.1697
   25CHL1  H24A 1839   6.684   2.261   4.778 -0.5297  1.6855 -1.6044
   25CHL1  H24B 1840   6.520   2.170   4.803  0.0471  0.1001  2.9738
   25CHL1   C25 1841   6.498   2.359   4.720  0.6029 -0.3949 -0.0330
   25CHL1   H25 1842   6.395   2.379   4.759  0.4572 -0.0490 -0.5854
   25CHL1   C26 1843   6.568   2.495   4.705 -0.2336 -0.4790 -0.5991
   25CHL1  H26A 1844   6.553   2.544   4.803  0.3220 -0.7670 -0.3685
   25CHL1  H26B 1845   6.668   2.501   4.657 -0.0297 -1.1383 -0.2729
   25CHL1  H26C 1846   6.499   2.553   4.640  0.9607  0.4495 -1.0852
   25CHL1   C27 1847   6.484   2.299   4.584 -0.1442 -0.3323  1.2844
   25CHL1  H27A 1848   6.578   2.278   4.528  0.1330  0.6398  1.3681
   25CHL1  H27B 1849   6.434   2.202   4.605 -0.4115 -0.2039  1.2518
   25CHL1  H27C 1850   6.408   2.346   4.518  2.6483  3.0329  0.1214
   26CHL1    C3 1851   4.695   5.334   2.959  0.2084 -0.1840  0.8927
   26CHL1    H3 1852   4.618   5.268   3.004 -0.1618 -1.7823 -1.8869
   26CHL1    O3 1853   4.687   5.332   2.814  0.7881  0.1564  0.4054
   26CHL1   H3' 1854   4.773   5.368   2.791  0.4181  3.2320  3.1113
   26CHL1    C4 1855   4.680   5.481   3.004 -0.0616 -0.2156  0.4880
   26CHL1   H4A 1856   4.742   5.542   2.935  1.3375 -2.0444  0.0396
   26CHL1   H4B 1857   4.574   5.514   3.000 -0.3043 -1.0493 -1.1076
   26CHL1    C5 1858   4.720   5.500   3.151  0.2153 -0.1454 -0.1054
   26CHL1    C6 1859   4.640   5.555   3.241 -0.5765 -0.0386 -0.5457
   26CHL1    H6 1860   4.549   5.612   3.218  0.0267  1.4619  0.6009
   26CHL1    C7 1861   4.678   5.575   3.384  0.2934  0.7509  0.0452
   26CHL1   H7A 1862   4.641   5.673   3.420 -0.7755  0.3216  0.1432
   26CHL1   H7B 1863   4.636   5.507   3.462  2.5269  1.9354  2.4277
   26CHL1    C8 1864   4.833   5.571   3.418 -0.2584  0.6477  0.2724
   26CHL1    H8 1865   4.875   5.666   3.378  1.4793 -0.5117 -0.7766
   26CHL1   C14 1866   4.852   5.543   3.568 -0.7754  0.0517  0.3067
   26CHL1   H14 1867   4.812   5.441   3.582 -0.3840  0.0203  1.2899
   26CHL1   C15 1868   4.786   5.641   3.667  1.0113 -0.5238  0.5560
   26CHL1  H15A 1869   4.812   5.746   3.642 -0.1652  0.2262  2.2833
   26CHL1  H15B 1870   4.675   5.643   3.664  1.0354  0.6723 -0.7893
   26CHL1   C16 1871   4.851   5.605   3.798  0.7052  0.6675  0.7680
   26CHL1  H16A 1872   4.872   5.689   3.868 -0.5610  1.7673 -0.1297
   26CHL1  H16B 1873   4.785   5.545   3.864  0.5704  1.3010  1.2201
   26CHL1   C17 1874   4.971   5.509   3.766 -0.5320  0.3997  0.7473
   26CHL1   H17 1875   4.936   5.404   3.780  0.9731  0.2972  5.2093
   26CHL1   C13 1876   4.994   5.531   3.612 -0.1161 -0.6944  0.2654
   26CHL1   C18 1877   5.064   5.669   3.589  0.2073 -0.4272  0.3325
   26CHL1  H18A 1878   5.030   5.738   3.670 -1.0092 -0.3940 -0.1903
   26CHL1  H18B 1879   5.175   5.663   3.595  0.4055  1.8080 -0.4293
   26CHL1  H18C 1880   5.031   5.713   3.493 -1.6027  0.8056  1.4571
   26CHL1   C12 1881   5.046   5.405   3.540 -0.4049  0.5856  0.6904
   26CHL1  H12A 1882   5.144   5.377   3.583 -0.6239 -1.3949 -0.0223
   26CHL1  H12B 1883   4.988   5.311   3.553  1.9644 -1.2680 -1.3379
   26CHL1   C11 1884   5.040   5.426   3.386 -0.0291  0.0072 -0.1663
   26CHL1  H11A 1885   5.101   5.515   3.359 -0.5989 -0.0900 -1.8902
   26CHL1  H11B 1886   5.076   5.334   3.336  2.4488  0.3828  0.7836
   26CHL1    C9 1887   4.892   5.451   3.339  0.3936  0.3113 -0.2820
   26CHL1    H9 1888   4.828   5.365   3.370  0.9091 -0.4138 -1.1787
   26CHL1   C10 1889   4.859   5.446   3.186  0.0382  0.0414  0.6421
   26CHL1   C19 1890   4.969   5.530   3.105 -0.5407 -0.4099 -0.1324
   26CHL1  H19A 1891   4.936   5.635   3.123 -2.0109 -0.7390 -0.8436
   26CHL1  H19B 1892   5.071   5.523   3.150  0.4004 -0.0554 -2.1082
   26CHL1  H19C 1893   4.971   5.502   2.998  0.5589 -1.1657  0.0607
   26CHL1    C1 1894   4.866   5.296   3.144 -0.5014  0.2232  0.2852
   26CHL1   H1A 1895   4.970   5.256   3.154 -0.3241  0.3262 -0.9320
   26CHL1   H1B 1896   4.804   5.235   3.212  1.1464 -1.7614  0.1122
   26CHL1    C2 1897   4.827   5.277   2.996  0.6323 -0.2144  0.9381
   26CHL1   H2A 1898   4.828   5.170   2.967  1.0490 -0.4418  1.7769
   26CHL1   H2B 1899   4.906   5.323   2.932  0.1980 -0.6000  0.1107
   26CHL1   C20 1900   5.081   5.533   3.858  1.3292 -0.3578 -0.4977
   26CHL1   H20 1901   5.113   5.639   3.848  0.7867 -0.2573 -1.2133
   26CHL1   C21 1902   5.201   5.439   3.829 -0.6705 -0.0586 -0.4906
   26CHL1  H21A 1903   5.176   5.332   3.846  0.6172  0.1419  3.9748
   26CHL1  H21B 1904   5.286   5.448   3.901  0.5159  0.6823 -1.9426
   26CHL1  H21C 1905   5.236   5.459   3.726 -1.7057 -0.6119 -0.9682
   26CHL1   C22 1906   5.040   5.516   4.010 -0.0871  1.1696 -0.5815
   26CHL1  H22A 1907   4.976   5.605   4.027 -0.1220  0.9732  0.3701
   26CHL1  H22B 1908   4.986   5.420   4.025  1.3803  0.4760  0.5505
   26CHL1   C23 1909   5.158   5.537   4.107 -0.1492  0.7430 -0.3171
   26CHL1  H23A 1910   5.225   5.450   4.090  1.4899  2.0423 -0.7848
   26CHL1  H23B 1911   5.201   5.632   4.069 -0.9318  0.6987 -1.3573
   26CHL1   C24 1912   5.129   5.539   4.251  0.0469 -0.2097 -0.5376
   26CHL1  H24A 1913   5.054   5.619   4.263  1.8184  1.3495  0.6936
   26CHL1  H24B 1914   5.083   5.443   4.284 -1.2496  1.3556  2.6648
   26CHL1   C25 1915   5.237   5.567   4.354 -0.5119  0.7750  0.8581
   26CHL1   H25 1916   5.265   5.672   4.332  0.4760  0.5263  0.8552
   26CHL1   C26 1917   5.194   5.541   4.497 -0.2063  0.1003  0.2400
   26CHL1  H26A 1918   5.111   5.611   4.520  0.1171  0.3885  0.5523
   26CHL1  H26B 1919   5.157   5.438   4.520 -2.2765 -0.0455 -3.0636
   26CHL1  H26C 1920   5.280   5.567   4.562  2.3840 -2.8472 -1.6935
   26CHL1   C27 1921   5.370   5.488   4.323  0.0881  0.2969 -0.2570
   26CHL1  H27A 1922   5.406   5.511   4.221  1.2623  1.2867  0.3538
   26CHL1  H27B 1923   5.442   5.510   4.405 -0.3850 -2.0288  0.8611
   26CHL1  H27C 1924   5.345   5.380   4.325  2.8800 -0.4288 -1.1448
   27CHL1    C3 1925   2.794   4.761   6.027 -0.0756  0.2755  0.5318
   27CHL1    H3 1926   2.838   4.664   6.059 -1.0213  0.3454  2.1334
   27CHL1    O3 1927   2.729   4.805   6.142 -0.0551  0.4278  0.6040
   27CHL1   H3' 1928   2.698   4.893   6.123 -0.3597  0.7283  2.3338
   27CHL1    C4 1929   2.901   4.860   5.992 -1.1694  0.2482 -0.3560
   27CHL1   H4A 1930   2.866   4.960   5.961 -0.6715 -0.1785 -2.4935
   27CHL1   H4B 1931   2.973   4.874   6.076  0.5768  0.4889 -1.8212
   27CHL1    C5 1932   2.966   4.805   5.864  0.3632 -0.3152 -1.1992
   27CHL1    C6 1933   3.095   4.771   5.872  0.0066 -0.1539  0.6859
   27CHL1    H6 1934   3.162   4.785   5.958  2.6823 -0.5366 -1.2187
   27CHL1    C7 1935   3.172   4.720   5.740 -0.3404  0.8300  0.9223
   27CHL1   H7A 1936   3.268   4.772   5.720 -0.0479  0.1982  0.6561
   27CHL1   H7B 1937   3.201   4.615   5.763 -0.1431  0.2681 -1.5570
   27CHL1    C8 1938   3.087   4.724   5.607  0.2378 -0.8321  0.9219
   27CHL1    H8 1939   3.094   4.830   5.573 -0.2350 -0.8884  0.6391
   27CHL1   C14 1940   3.140   4.638   5.492  0.2573 -0.0670  1.0308
   27CHL1   H14 1941   3.136   4.533   5.527  0.9576 -0.3005  0.4309
   27CHL1   C15 1942   3.284   4.664   5.449  0.0215 -0.4125 -0.0690
   27CHL1  H15A 1943   3.299   4.772   5.468  2.4553 -0.4262 -1.5001
   27CHL1  H15B 1944   3.358   4.617   5.518 -1.2973 -0.0949  1.6084
   27CHL1   C16 1945   3.295   4.630   5.298  0.5716  0.0036  0.3076
   27CHL1  H16A 1946   3.321   4.726   5.249 -1.4762  1.8013  2.4977
   27CHL1  H16B 1947   3.378   4.558   5.281  0.1119 -0.7384  1.1215
   27CHL1   C17 1948   3.156   4.572   5.259  0.0958 -0.3578  0.1643
   27CHL1   H17 1949   3.155   4.467   5.294 -0.7694 -0.3153  0.2885
   27CHL1   C13 1950   3.060   4.643   5.360  0.1346 -0.4754 -0.1071
   27CHL1   C18 1951   3.053   4.791   5.306 -0.7516  0.2458 -0.0274
   27CHL1  H18A 1952   3.146   4.850   5.288 -1.9083  1.5357 -2.1340
   27CHL1  H18B 1953   3.013   4.791   5.203  0.7841 -1.8433 -0.7073
   27CHL1  H18C 1954   2.991   4.855   5.371  1.3021  3.4440 -1.0084
   27CHL1   C12 1955   2.919   4.582   5.393 -0.7971  0.4738  0.3778
   27CHL1  H12A 1956   2.848   4.588   5.308 -1.5399 -0.2236  0.9410
   27CHL1  H12B 1957   2.944   4.477   5.420  1.4994  1.0189  0.5512
   27CHL1   C11 1958   2.845   4.657   5.513 -0.5144 -0.3248 -0.6815
   27CHL1  H11A 1959   2.812   4.754   5.471  0.9699 -0.5202 -2.4392
   27CHL1  H11B 1960   2.753   4.600   5.536  0.2184 -2.0068 -1.7269
   27CHL1    C9 1961   2.942   4.685   5.637  0.3262 -0.3056 -0.1680
   27CHL1    H9 1962   2.942   4.581   5.676 -1.8416 -0.4071 -0.2984
   27CHL1   C10 1963   2.883   4.780   5.741  0.5143 -0.7220 -0.2865
   27CHL1   C19 1964   2.842   4.916   5.679 -0.5357 -0.3490 -0.4346
   27CHL1  H19A 1965   2.928   4.973   5.638 -0.2900 -0.2249  0.2459
   27CHL1  H19B 1966   2.769   4.912   5.595 -1.8974  1.6279  0.5732
   27CHL1  H19C 1967   2.797   4.986   5.753  0.2359  0.4395 -0.7005
   27CHL1    C1 1968   2.749   4.706   5.792  0.0369  0.5154 -0.9424
   27CHL1   H1A 1969   2.659   4.697   5.728 -0.3190 -1.7267 -0.1930
   27CHL1   H1B 1970   2.793   4.604   5.798 -1.6578 -0.2025 -0.3176
   27CHL1    C2 1971   2.692   4.756   5.920  0.2549 -0.5453  0.6341
   27CHL1   H2A 1972   2.602   4.700   5.953 -0.6571  0.3679 -0.2063
   27CHL1   H2B 1973   2.659   4.862   5.922  1.4985 -0.1626  2.0845
   27CHL1   C20 1974   3.130   4.573   5.106  0.0545 -0.3704 -0.2845
   27CHL1   H20 1975   3.111   4.678   5.076 -1.1557 -0.8322 -1.1904
   27CHL1   C21 1976   3.001   4.496   5.078 -0.4218  0.3324  0.2469
   27CHL1  H21A 1977   2.987   4.476   4.969 -1.3878  1.3611  0.1573
   27CHL1  H21B 1978   2.908   4.543   5.116 -0.2699  0.8497 -0.0213
   27CHL1  H21C 1979   3.010   4.398   5.130  1.5552 -0.0049 -0.6417
   27CHL1   C22 1980   3.248   4.518   5.024 -0.5902 -0.0918 -0.7574
   27CHL1  H22A 1981   3.340   4.569   5.059 -0.5074  0.3714 -1.6178
   27CHL1  H22B 1982   3.249   4.411   5.054 -0.8872  0.1384  0.1222
   27CHL1   C23 1983   3.244   4.551   4.875 -0.1324  0.0869  0.0743
   27CHL1  H23A 1984   3.170   4.486   4.823  1.4046  1.4079 -4.2551
   27CHL1  H23B 1985   3.207   4.654   4.857  0.7535  0.2976 -0.5944
   27CHL1   C24 1986   3.378   4.525   4.801 -0.2597 -0.1284 -0.2032
   27CHL1  H24A 1987   3.455   4.586   4.853  0.1295 -1.1375  0.4550
   27CHL1  H24B 1988   3.418   4.422   4.813  0.1902 -0.0528 -1.0249
   27CHL1   C25 1989   3.380   4.545   4.647  0.6067  0.1210 -0.2564
   27CHL1   H25 1990   3.485   4.532   4.616  0.4355 -1.3208 -0.2971
   27CHL1   C26 1991   3.308   4.439   4.564 -0.4700 -0.2812 -1.0697
   27CHL1  H26A 1992   3.324   4.453   4.455  1.0924  0.5591 -0.7545
   27CHL1  H26B 1993   3.328   4.335   4.599 -0.4081 -0.4434 -1.5858
   27CHL1  H26C 1994   3.197   4.448   4.574 -0.2174  1.5739  0.6084
   27CHL1   C27 1995   3.329   4.683   4.608  0.3267 -1.0760  0.4110
   27CHL1  H27A 1996   3.225   4.717   4.628  0.6662  1.3160 -1.3774
   27CHL1  H27B 1997   3.393   4.762   4.653 -0.5431 -0.6632  0.9612
   27CHL1  H27C 1998   3.346   4.690   4.499 -2.4791  2.3007  0.0204
   28CHL1    C3 1999   1.903   5.196   6.188 -0.6888 -0.4497  0.1310
   28CHL1    H3 2000   1.949   5.096   6.178 -1.6773 -0.9524  0.4146
   28CHL1    O3 2001   1.862   5.206   6.325  0.4993 -0.5627 -0.1580
   28CHL1   H3' 2002   1.883   5.295   6.353 -1.9688 -0.0239  0.2526
   28CHL1    C4 2003   1.991   5.316   6.157 -0.3547 -0.1616 -0.0432
   28CHL1   H4A 2004   1.952   5.413   6.195  0.0533 -0.2199  0.5234
   28CHL1   H4B 2005   2.081   5.320   6.221 -2.2966  0.9897  2.8133
   28CHL1    C5 2006   2.025   5.317   6.008 -0.2566 -0.1694  0.2846
   28CHL1    C6 2007   2.154   5.325   5.968 -0.2427 -0.4778  0.2545
   28CHL1    H6 2008   2.235   5.318   6.042  0.6099  0.3823 -0.5651
   28CHL1    C7 2009   2.198   5.345   5.822 -0.2053  0.3486 -1.6535
   28CHL1   H7A 2010   2.261   5.436   5.815  0.4295  0.1514  0.5202
   28CHL1   H7B 2011   2.255   5.254   5.793  1.0861  0.5371  0.1569
   28CHL1    C8 2012   2.080   5.360   5.728  0.4319 -0.4050  0.1977
   28CHL1    H8 2013   2.057   5.469   5.730 -1.0156 -0.7031  0.3104
   28CHL1   C14 2014   2.129   5.329   5.586 -0.1969  0.9130  0.4138
   28CHL1   H14 2015   2.158   5.222   5.589  2.9713  1.6906  0.6116
   28CHL1   C15 2016   2.257   5.398   5.530  0.5110 -0.3267  0.1246
   28CHL1  H15A 2017   2.242   5.506   5.549 -2.9038 -1.0111  2.1686
   28CHL1  H15B 2018   2.349   5.369   5.585  0.2942 -1.2903  0.0119
   28CHL1   C16 2019   2.249   5.358   5.381 -0.0811  0.1300  0.3877
   28CHL1  H16A 2020   2.272   5.450   5.323  3.0045 -1.3480 -0.9479
   28CHL1  H16B 2021   2.326   5.282   5.355  1.4077  1.9343 -0.6867
   28CHL1   C17 2022   2.103   5.306   5.358 -0.5636 -0.4468 -0.0927
   28CHL1   H17 2023   2.109   5.195   5.371 -1.1535 -0.5225 -0.4419
   28CHL1   C13 2024   2.021   5.342   5.478  0.3224  0.0005 -0.1570
   28CHL1   C18 2025   1.966   5.486   5.466 -0.4900 -0.0848 -0.1834
   28CHL1  H18A 2026   2.048   5.557   5.443  0.0203 -0.1884  1.2116
   28CHL1  H18B 2027   1.884   5.490   5.390  0.7369  1.1465 -1.4904
   28CHL1  H18C 2028   1.922   5.508   5.566  3.6551 -2.0084  2.3531
   28CHL1   C12 2029   1.903   5.244   5.510 -0.4390 -0.5103  0.0802
   28CHL1  H12A 2030   1.826   5.253   5.431  0.6537 -0.9460 -1.0683
   28CHL1  H12B 2031   1.944   5.140   5.503  2.3644  0.3787  1.5717
   28CHL1   C11 2032   1.850   5.263   5.652 -0.3635 -0.3968 -0.1735
   28CHL1  H11A 2033   1.801   5.362   5.657  1.7815  0.6688  1.7889
   28CHL1  H11B 2034   1.767   5.194   5.681 -1.7632  1.4721  0.4686
   28CHL1    C9 2035   1.964   5.270   5.763 -0.3861  0.5695  0.3564
   28CHL1    H9 2036   2.013   5.170   5.762  1.8330  1.5973  0.1449
   28CHL1   C10 2037   1.913   5.306   5.902  0.0287 -0.0677  0.9361
   28CHL1   C19 2038   1.836   5.446   5.903  0.2086 -0.3589  0.2058
   28CHL1  H19A 2039   1.879   5.524   5.837 -3.1190  1.7331  0.3104
   28CHL1  H19B 2040   1.742   5.428   5.847  1.3076  0.6037 -2.1014
   28CHL1  H19C 2041   1.819   5.474   6.009  0.6922 -3.7696  1.3153
   28CHL1    C1 2042   1.817   5.197   5.948  0.2526  1.4005 -0.5266
   28CHL1   H1A 2043   1.730   5.188   5.879  0.0744  0.2121 -0.1679
   28CHL1   H1B 2044   1.872   5.101   5.941  0.8193  1.7752 -1.3415
   28CHL1    C2 2045   1.779   5.210   6.101 -0.6647 -0.4586 -0.4413
   28CHL1   H2A 2046   1.714   5.126   6.133  2.4426 -3.3336 -1.0910
   28CHL1   H2B 2047   1.733   5.311   6.114  1.1045  0.1598  1.5680
   28CHL1   C20 2048   2.047   5.331   5.212  0.2302 -0.4539  0.5281
   28CHL1   H20 2049   2.057   5.439   5.188  1.3425 -0.4633  0.9219
   28CHL1   C21 2050   1.898   5.305   5.190  0.1085  0.3115  0.2833
   28CHL1  H21A 2051   1.875   5.196   5.198 -2.1884  0.6983 -0.3474
   28CHL1  H21B 2052   1.861   5.330   5.089 -1.1794 -3.4948 -0.3714
   28CHL1  H21C 2053   1.824   5.355   5.256 -0.4516  0.1760 -0.2419
   28CHL1   C22 2054   2.122   5.256   5.102  0.2365  0.4222 -0.2687
   28CHL1  H22A 2055   2.228   5.282   5.121 -0.7974  2.7297  3.4048
   28CHL1  H22B 2056   2.110   5.148   5.124 -0.8070  0.9904  2.2517
   28CHL1   C23 2057   2.090   5.263   4.945 -0.3114 -0.5001 -1.0515
   28CHL1  H23A 2058   2.166   5.207   4.886  1.6011 -0.5448  1.2852
   28CHL1  H23B 2059   1.994   5.208   4.944 -0.3309 -0.6411  1.4475
   28CHL1   C24 2060   2.083   5.407   4.894  0.0946  0.6873  0.2120
   28CHL1  H24A 2061   2.026   5.471   4.964  1.5682  0.3858  1.7531
   28CHL1  H24B 2062   2.187   5.442   4.878 -0.0840  1.5183  0.8321
   28CHL1   C25 2063   2.010   5.415   4.751 -0.6406 -0.6142 -0.0401
   28CHL1   H25 2064   2.069   5.343   4.690 -1.7917 -0.7876 -0.9736
   28CHL1   C26 2065   1.873   5.354   4.756  0.1431  0.3547  0.7153
   28CHL1  H26A 2066   1.809   5.416   4.823 -2.3298  1.4178 -2.3428
   28CHL1  H26B 2067   1.841   5.365   4.650  0.7085  4.0603  0.7781
   28CHL1  H26C 2068   1.867   5.247   4.781 -3.4034 -0.3693 -2.2502
   28CHL1   C27 2069   2.020   5.554   4.688 -0.4142 -0.0564  0.8635
   28CHL1  H27A 2070   1.961   5.580   4.597 -0.2722 -0.7007  0.5862
   28CHL1  H27B 2071   2.004   5.635   4.764 -0.5571  0.9988 -0.2552
   28CHL1  H27C 2072   2.117   5.571   4.638 -1.5559 -0.5260 -1.6656
   29CHL1    C3 2073   6.600   5.325   2.610 -0.4191  0.3909 -0.5541
   29CHL1    H3 2074   6.592   5.398   2.693 -0.5685  0.1418 -0.3443
   29CHL1    O3 2075   6.565   5.375   2.484  0.1579 -0.0308  0.2118
   29CHL1   H3' 2076   6.622   5.330   2.420 -1.1450 -0.0009 -1.0223
   29CHL1    C4 2077   6.746   5.268   2.602 -0.0766  0.3058  0.0991
   29CHL1   H4A 2078   6.735   5.199   2.516  1.3098  1.8634 -1.3993
   29CHL1   H4B 2079   6.822   5.341   2.566  0.9693 -0.4436  0.7381
   29CHL1    C5 2080   6.789   5.205   2.731  0.7978  0.1250  0.4225
   29CHL1    C6 2081   6.900   5.243   2.794 -0.0112 -0.2251 -0.2052
   29CHL1    H6 2082   6.965   5.320   2.749 -0.3212  0.5502  0.6427
   29CHL1    C7 2083   6.942   5.194   2.928 -0.4821  0.0110 -0.1299
   29CHL1   H7A 2084   7.051   5.173   2.934 -0.4741  0.4896  2.4335
   29CHL1   H7B 2085   6.923   5.273   3.003  1.2075 -0.2893  0.6684
   29CHL1    C8 2086   6.880   5.066   2.978  0.0112 -0.1410 -1.2734
   29CHL1    H8 2087   6.920   4.979   2.922 -2.8029 -3.1922  1.0068
   29CHL1   C14 2088   6.899   5.039   3.127 -0.6935 -0.4733 -0.0949
   29CHL1   H14 2089   6.850   5.117   3.189  0.9842  0.6517 -0.1225
   29CHL1   C15 2090   7.044   5.038   3.174  0.1528 -0.1321  0.5588
   29CHL1  H15A 2091   7.116   4.977   3.117  0.3657  0.7754 -0.1543
   29CHL1  H15B 2092   7.097   5.135   3.174  0.5456 -0.2299  3.7790
   29CHL1   C16 2093   7.030   4.980   3.317  0.3007 -0.9264 -0.7479
   29CHL1  H16A 2094   7.112   4.909   3.341 -1.0604 -2.5628 -0.7743
   29CHL1  H16B 2095   7.022   5.053   3.401  0.1143 -1.8030  0.0076
   29CHL1   C17 2096   6.888   4.905   3.317 -0.3233  0.7328  0.4004
   29CHL1   H17 2097   6.815   4.971   3.370 -1.0039  1.1941 -1.0428
   29CHL1   C13 2098   6.830   4.909   3.176  0.7808 -0.1306 -0.0840
   29CHL1   C18 2099   6.889   4.788   3.099  0.0714  0.3817 -0.6944
   29CHL1  H18A 2100   7.000   4.797   3.099  0.1119  0.2211  1.4880
   29CHL1  H18B 2101   6.851   4.698   3.153  1.4149  0.6189  0.7186
   29CHL1  H18C 2102   6.858   4.795   2.992  2.1161  0.5200 -1.3161
   29CHL1   C12 2103   6.679   4.927   3.163  0.8156 -0.3976  0.5780
   29CHL1  H12A 2104   6.621   4.837   3.192  1.7554 -0.7022  1.5663
   29CHL1  H12B 2105   6.639   5.004   3.233  0.5695  1.5310 -1.5488
   29CHL1   C11 2106   6.643   4.963   3.015 -0.6949 -0.4209 -0.0766
   29CHL1  H11A 2107   6.652   4.875   2.948  1.7918 -0.3717  0.0932
   29CHL1  H11B 2108   6.537   4.998   3.012  0.0629  1.9675 -1.6545
   29CHL1    C9 2109   6.731   5.075   2.945 -0.6319 -0.5082 -0.7749
   29CHL1    H9 2110   6.710   5.173   2.993  2.1516  0.8935 -2.2074
   29CHL1   C10 2111   6.695   5.100   2.789  0.8911 -0.6875  0.3715
   29CHL1   C19 2112   6.719   4.967   2.715  0.2526  0.3680 -0.4615
   29CHL1  H19A 2113   6.807   4.911   2.754 -0.8802 -0.2364  1.3548
   29CHL1  H19B 2114   6.633   4.898   2.725  1.0680 -0.5291  0.6146
   29CHL1  H19C 2115   6.740   4.977   2.606 -0.6756  2.2637 -0.5156
   29CHL1    C1 2116   6.549   5.147   2.787  0.0788 -0.3375  0.1429
   29CHL1   H1A 2117   6.488   5.055   2.802 -1.7097  0.4169 -1.9452
   29CHL1   H1B 2118   6.518   5.224   2.861  1.1040  1.1538 -0.9333
   29CHL1    C2 2119   6.509   5.212   2.647 -0.1197 -0.3528  0.2439
   29CHL1   H2A 2120   6.404   5.246   2.660 -0.6451 -1.3823 -1.0433
   29CHL1   H2B 2121   6.504   5.133   2.569  0.7913 -0.9914  0.8023
   29CHL1   C20 2122   6.890   4.776   3.395  0.5254 -0.4455 -0.1824
   29CHL1   H20 2123   6.955   4.704   3.341  1.6344 -0.2907  0.8855
   29CHL1   C21 2124   6.749   4.724   3.408  0.0707 -0.4720 -0.1008
   29CHL1  H21A 2125   6.683   4.794   3.463 -1.5461 -0.5684 -1.7963
   29CHL1  H21B 2126   6.749   4.627   3.462 -0.7437  1.7014  4.1985
   29CHL1  H21C 2127   6.707   4.706   3.306 -0.0984 -1.6073  0.1562
   29CHL1   C22 2128   6.941   4.786   3.540  0.0186 -0.2686 -0.6194
   29CHL1  H22A 2129   7.038   4.841   3.542  0.6712 -1.3963  0.9467
   29CHL1  H22B 2130   6.873   4.852   3.597  0.1723 -1.0001  0.4319
   29CHL1   C23 2131   6.977   4.658   3.602  0.9418 -0.0029  0.7766
   29CHL1  H23A 2132   6.904   4.578   3.576 -1.0688  1.8852  0.3642
   29CHL1  H23B 2133   7.081   4.638   3.569  0.5260 -2.4027  0.7402
   29CHL1   C24 2134   6.996   4.665   3.751 -0.4756 -0.2079 -0.2665
   29CHL1  H24A 2135   7.064   4.749   3.777 -0.9852 -0.6244  2.7871
   29CHL1  H24B 2136   6.905   4.701   3.804 -0.0545  1.4405 -0.5970
   29CHL1   C25 2137   7.044   4.532   3.818  0.1435  0.0843 -0.0677
   29CHL1   H25 2138   7.142   4.497   3.780 -1.1924 -1.6574 -2.1481
   29CHL1   C26 2139   7.069   4.551   3.971  0.5461 -0.3037 -0.3310
   29CHL1  H26A 2140   7.118   4.461   4.015  1.2481 -1.3862 -3.0831
   29CHL1  H26B 2141   7.136   4.638   3.984  1.1497 -0.9328  1.0118
   29CHL1  H26C 2142   6.973   4.565   4.024 -0.2565 -2.0836 -1.1938
   29CHL1   C27 2143   6.944   4.417   3.792  0.8449 -0.0604 -0.5728
   29CHL1  H27A 2144   6.839   4.451   3.807  1.1304  1.3899 -1.6817
   29CHL1  H27B 2145   6.947   4.380   3.687 -0.4149 -3.2346  0.3915
   29CHL1  H27C 2146   6.958   4.331   3.860 -0.5936 -2.4841 -3.1268
   30CHL1    C3 2147   0.852   4.532   3.035 -0.3453  0.3438  0.2376
   30CHL1    H3 2148   0.806   4.435   3.062 -1.4857  0.3815 -1.4224
   30CHL1    O3 2149   0.793   4.561   2.908 -0.3447  0.0388 -0.0009
   30CHL1   H3' 2150   0.824   4.651   2.895  3.3723 -1.1387 -0.3284
   30CHL1    C4 2151   0.817   4.638   3.137  0.0964 -0.2354 -0.4630
   30CHL1   H4A 2152   0.856   4.738   3.109 -0.2995  0.7276  2.1050
   30CHL1   H4B 2153   0.708   4.652   3.155  0.1553  0.7752 -0.8127
   30CHL1    C5 2154   0.880   4.598   3.274  0.3204  0.6062  0.8509
   30CHL1    C6 2155   0.802   4.585   3.379  0.1160  0.0192 -0.3618
   30CHL1    H6 2156   0.694   4.573   3.362  0.3254 -1.8198 -0.6031
   30CHL1    C7 2157   0.848   4.570   3.527  0.1522  0.2008  0.5821
   30CHL1   H7A 2158   0.787   4.635   3.593  0.6990  1.2655  0.0710
   30CHL1   H7B 2159   0.839   4.471   3.576 -0.4295  0.6627  1.4507
   30CHL1    C8 2160   0.998   4.607   3.534 -0.3069 -0.5082 -0.0253
   30CHL1    H8 2161   0.997   4.718   3.539  1.5405 -0.5233  2.1890
   30CHL1   C14 2162   1.056   4.558   3.671 -0.8154  0.0698  0.1899
   30CHL1   H14 2163   1.054   4.447   3.664  0.6133 -0.0212  0.9365
   30CHL1   C15 2164   0.984   4.588   3.804 -0.0442  0.3303 -0.0112
   30CHL1  H15A 2165   0.948   4.693   3.810 -0.2984  0.2250  0.3254
   30CHL1  H15B 2166   0.898   4.518   3.815  1.8263 -2.5642 -2.1338
   30CHL1   C16 2167   1.104   4.572   3.909  0.0208 -0.0694  0.8742
   30CHL1  H16A 2168   1.106   4.678   3.941  0.2941 -0.1636  1.1685
   30CHL1  H16B 2169   1.070   4.504   3.990 -1.8704 -1.0480 -0.6518
   30CHL1   C17 2170   1.226   4.533   3.833 -0.5306 -0.4661  0.4741
   30CHL1   H17 2171   1.219   4.425   3.811  2.8940 -0.2226 -2.5070
   30CHL1   C13 2172   1.204   4.587   3.693 -0.6959 -0.1634 -0.2250
   30CHL1   C18 2173   1.229   4.745   3.694  0.2669 -0.0939 -0.2906
   30CHL1  H18A 2174   1.335   4.769   3.718  0.7607 -0.7991 -1.6182
   30CHL1  H18B 2175   1.207   4.784   3.593 -0.9790  1.1542  0.4288
   30CHL1  H18C 2176   1.161   4.792   3.768 -0.3794 -0.6436 -0.5212
   30CHL1   C12 2177   1.286   4.523   3.576  0.0619  0.3333 -0.0230
   30CHL1  H12A 2178   1.393   4.553   3.584  0.4176 -1.0905  0.8449
   30CHL1  H12B 2179   1.272   4.413   3.585 -4.8649  0.6751 -0.8185
   30CHL1   C11 2180   1.238   4.577   3.435  0.2682  0.2157 -0.2011
   30CHL1  H11A 2181   1.280   4.677   3.413  0.6954  0.3698  1.2355
   30CHL1  H11B 2182   1.290   4.507   3.367  1.5879  0.0635  0.9199
   30CHL1    C9 2183   1.088   4.563   3.411 -0.3367 -0.5312  0.1509
   30CHL1    H9 2184   1.069   4.454   3.417  0.2332 -0.6394  0.1038
   30CHL1   C10 2185   1.032   4.604   3.270 -0.1910 -0.1303 -0.0899
   30CHL1   C19 2186   1.085   4.750   3.234  0.0186 -0.1011  0.4403
   30CHL1  H19A 2187   1.195   4.764   3.235  0.0958 -0.2040 -1.6378
   30CHL1  H19B 2188   1.054   4.783   3.132 -0.4176  1.5334  1.0802
   30CHL1  H19C 2189   1.046   4.827   3.304 -2.3378  0.3482 -1.2258
   30CHL1    C1 2190   1.080   4.503   3.159  0.1863  0.1700  0.0779
   30CHL1   H1A 2191   1.191   4.500   3.158  0.3353  2.7434  0.9825
   30CHL1   H1B 2192   1.035   4.410   3.201  1.1407 -0.8104 -0.9987
   30CHL1    C2 2193   1.009   4.515   3.017  0.1340  0.1493  0.3242
   30CHL1   H2A 2194   1.020   4.424   2.953 -0.7814  1.0002 -1.0866
   30CHL1   H2B 2195   1.053   4.600   2.961  2.5209 -1.4438 -0.3754
   30CHL1   C20 2196   1.344   4.570   3.917 -0.0773  0.5069 -0.0253
   30CHL1   H20 2197   1.353   4.681   3.923 -1.3228  0.5407  1.7704
   30CHL1   C21 2198   1.467   4.524   3.837 -0.2644 -0.7169  0.0460
   30CHL1  H21A 2199   1.455   4.420   3.798 -0.0292 -0.8739  0.3774
   30CHL1  H21B 2200   1.565   4.546   3.886 -0.9798 -0.3769  1.3678
   30CHL1  H21C 2201   1.466   4.589   3.747 -1.4653 -0.7923 -0.0106
   30CHL1   C22 2202   1.353   4.506   4.062  0.0472 -0.0170  1.0188
   30CHL1  H22A 2203   1.260   4.512   4.122  0.1091  0.6385  1.0586
   30CHL1  H22B 2204   1.377   4.398   4.051 -2.9970 -0.6169 -1.1061
   30CHL1   C23 2205   1.464   4.561   4.153 -0.0538 -0.2720  0.0771
   30CHL1  H23A 2206   1.564   4.540   4.108  0.2437 -2.4882  1.6149
   30CHL1  H23B 2207   1.453   4.669   4.177  0.7296 -0.3067  0.6061
   30CHL1   C24 2208   1.473   4.477   4.280  0.5744  0.1744  0.2407
   30CHL1  H24A 2209   1.378   4.490   4.337  0.8380  1.0904  0.4931
   30CHL1  H24B 2210   1.503   4.374   4.251  1.2151  0.5285 -0.3922
   30CHL1   C25 2211   1.590   4.510   4.377 -0.0717  1.0215 -0.1114
   30CHL1   H25 2212   1.682   4.488   4.318 -0.1364  1.2794 -0.3068
   30CHL1   C26 2213   1.599   4.660   4.424 -0.1883  0.6495 -0.0728
   30CHL1  H26A 2214   1.682   4.667   4.497  2.1983 -2.6335 -2.1908
   30CHL1  H26B 2215   1.611   4.725   4.335 -0.4368 -0.2604 -0.7879
   30CHL1  H26C 2216   1.503   4.699   4.464 -0.6066 -1.2621  0.8836
   30CHL1   C27 2217   1.592   4.422   4.503  0.1923  0.0256  0.0391
   30CHL1  H27A 2218   1.684   4.438   4.563  1.2381 -0.2582 -1.4577
   30CHL1  H27B 2219   1.505   4.457   4.564  0.1999  0.9732 -0.4623
   30CHL1  H27C 2220   1.580   4.313   4.486 -2.1761  0.1469  0.5842
   31CHL1    C3 2221   1.418   4.036   3.009  0.1648  0.2846 -0.1135
   31CHL1    H3 2222   1.324   4.051   3.067 -0.4377  0.2337 -1.0559
   31CHL1    O3 2223   1.374   4.005   2.874  0.3109  0.5055  0.1403
   31CHL1   H3' 2224   1.449   3.966   2.829  1.0807 -1.7360  3.0712
   31CHL1    C4 2225   1.493   4.165   3.009  0.7967  0.3138  0.2470
   31CHL1   H4A 2226   1.574   4.148   2.935  0.1263  0.5264 -0.5526
   31CHL1   H4B 2227   1.425   4.231   2.952 -1.2184 -0.0559  2.1128
   31CHL1    C5 2228   1.540   4.206   3.141  0.1504  0.2066  0.2917
   31CHL1    C6 2229   1.513   4.327   3.187 -0.1614  0.5797 -0.2609
   31CHL1    H6 2230   1.452   4.402   3.135  1.9128  3.1063  0.7059
   31CHL1    C7 2231   1.587   4.376   3.309 -0.1920 -0.2922 -0.8054
   31CHL1   H7A 2232   1.637   4.469   3.273  2.8303 -1.7831 -0.7234
   31CHL1   H7B 2233   1.499   4.390   3.376  0.7344 -1.2556  0.6751
   31CHL1    C8 2234   1.689   4.291   3.380 -0.5081  0.1525 -0.1497
   31CHL1    H8 2235   1.785   4.300   3.325 -0.6042  3.2920  0.0216
   31CHL1   C14 2236   1.713   4.318   3.527  0.4665  0.9998  0.3006
   31CHL1   H14 2237   1.616   4.303   3.580  1.2721 -0.6552  1.3635
   31CHL1   C15 2238   1.770   4.459   3.557  0.1601 -0.2011 -0.3057
   31CHL1  H15A 2239   1.859   4.486   3.496 -0.3064  0.4998 -0.6894
   31CHL1  H15B 2240   1.702   4.546   3.552  0.6316  0.1074 -2.0024
   31CHL1   C16 2241   1.814   4.440   3.705  0.0498  0.8324 -0.2010
   31CHL1  H16A 2242   1.910   4.494   3.719  0.3702  0.7439 -1.8604
   31CHL1  H16B 2243   1.738   4.480   3.776  0.9671  2.2294  0.0485
   31CHL1   C17 2244   1.805   4.293   3.738  0.3205  0.1483 -0.5895
   31CHL1   H17 2245   1.709   4.274   3.791  0.9192  0.8077  0.7704
   31CHL1   C13 2246   1.805   4.224   3.601 -0.6319 -0.3806 -0.2521
   31CHL1   C18 2247   1.949   4.229   3.554 -0.3913  0.0895  0.2562
   31CHL1  H18A 2248   1.945   4.222   3.443 -4.4846  2.1647  0.0747
   31CHL1  H18B 2249   2.000   4.325   3.579  0.6982  0.0212 -1.5054
   31CHL1  H18C 2250   2.011   4.146   3.595  0.4009  1.0893  1.1563
   31CHL1   C12 2251   1.745   4.080   3.593 -0.5521 -0.0177 -0.4415
   31CHL1  H12A 2252   1.818   4.007   3.636 -0.1176  1.5203  1.5932
   31CHL1  H12B 2253   1.647   4.077   3.644 -0.6837  2.0316 -0.5066
   31CHL1   C11 2254   1.733   4.046   3.444  0.1008 -0.4532  0.1691
   31CHL1  H11A 2255   1.840   4.043   3.413  0.7716  1.1089  2.1208
   31CHL1  H11B 2256   1.690   3.944   3.435  1.0070 -0.8735  0.4360
   31CHL1    C9 2257   1.650   4.142   3.362 -0.0935 -0.2682  0.0834
   31CHL1    H9 2258   1.547   4.142   3.405 -1.6405  1.1666 -3.2689
   31CHL1   C10 2259   1.627   4.104   3.215  0.2161  0.5348 -0.1492
   31CHL1   C19 2260   1.762   4.103   3.142 -0.0085  0.0782  0.3055
   31CHL1  H19A 2261   1.837   4.042   3.196  1.2250 -0.7967 -2.2275
   31CHL1  H19B 2262   1.750   4.061   3.040 -1.2671  0.2206  0.3786
   31CHL1  H19C 2263   1.805   4.204   3.122  1.5636 -0.8440 -1.2359
   31CHL1    C1 2264   1.559   3.960   3.202  0.1638 -0.8594  0.8695
   31CHL1   H1A 2265   1.637   3.889   3.236  2.6033  1.7438  1.1458
   31CHL1   H1B 2266   1.468   3.959   3.267 -0.8009 -0.6857 -0.4273
   31CHL1    C2 2267   1.508   3.926   3.058  0.5333 -0.0668  0.2482
   31CHL1   H2A 2268   1.457   3.829   3.077  0.5701 -0.0231  0.5791
   31CHL1   H2B 2269   1.585   3.904   2.980  0.6081  2.7149 -0.5473
   31CHL1   C20 2270   1.912   4.246   3.842 -0.1016  0.5020  0.2335
   31CHL1   H20 2271   2.016   4.272   3.814 -0.0731  0.2094  0.0609
   31CHL1   C21 2272   1.903   4.093   3.865  0.2617 -0.0585  0.4638
   31CHL1  H21A 2273   1.948   4.045   3.775  0.7441  2.0570 -0.4855
   31CHL1  H21B 2274   1.799   4.056   3.870  0.2978 -0.5218 -1.5237
   31CHL1  H21C 2275   1.962   4.069   3.957  3.1551  0.1959 -1.1950
   31CHL1   C22 2276   1.887   4.327   3.972  0.5415  0.1574  0.1069
   31CHL1  H22A 2277   1.916   4.433   3.962  1.9670 -0.1886  0.3655
   31CHL1  H22B 2278   1.780   4.314   3.999  0.4406 -0.0190 -0.3674
   31CHL1   C23 2279   1.969   4.284   4.090  0.3917  0.1772 -0.0484
   31CHL1  H23A 2280   1.932   4.192   4.138  1.7527  0.0551  0.8051
   31CHL1  H23B 2281   2.068   4.255   4.049  0.0739 -0.9050 -0.0826
   31CHL1   C24 2282   1.965   4.387   4.201  0.0542 -0.3201 -0.3109
   31CHL1  H24A 2283   1.992   4.482   4.149  2.4919 -1.8582 -2.0851
   31CHL1  H24B 2284   1.862   4.405   4.239  1.1342  4.2685  1.1404
   31CHL1   C25 2285   2.067   4.357   4.325 -0.5932 -0.4741 -0.6002
   31CHL1   H25 2286   2.168   4.368   4.281  0.8211 -0.9049  2.3109
   31CHL1   C26 2287   2.062   4.467   4.431  0.8981 -0.1906  0.0016
   31CHL1  H26A 2288   2.158   4.488   4.483  1.3641  0.1042 -0.9526
   31CHL1  H26B 2289   2.043   4.567   4.388 -1.5526 -0.2380  0.8023
   31CHL1  H26C 2290   1.987   4.440   4.509  0.4579  0.1100 -0.3183
   31CHL1   C27 2291   2.053   4.219   4.387 -0.1690  0.6279 -0.7454
   31CHL1  H27A 2292   2.129   4.200   4.466 -1.2352  2.0285  0.6751
   31CHL1  H27B 2293   1.951   4.197   4.424  0.0996 -1.1501 -0.9379
   31CHL1  H27C 2294   2.069   4.144   4.306 -1.9881  0.4986 -1.0187
   32CHL1    C3 2295   0.489   6.007   3.012  0.0464  0.0883 -0.1817
   32CHL1    H3 2296   0.425   6.088   2.970  0.0845 -1.0825 -2.6840
   32CHL1    O3 2297   0.532   5.941   2.900  0.2872  0.6682  0.0195
   32CHL1   H3' 2298   0.589   5.869   2.928 -0.8726  0.5228  2.1963
   32CHL1    C4 2299   0.617   6.058   3.086 -0.0614 -0.3226  0.4188
   32CHL1   H4A 2300   0.670   5.961   3.100 -3.7947 -2.7232 -0.6155
   32CHL1   H4B 2301   0.677   6.118   3.015 -1.2871 -1.7091 -1.9021
   32CHL1    C5 2302   0.595   6.123   3.223  0.3625  0.5984 -0.0233
   32CHL1    C6 2303   0.639   6.241   3.260  0.4189 -0.3368 -0.7083
   32CHL1    H6 2304   0.697   6.309   3.195 -1.2105  5.4491  3.0675
   32CHL1    C7 2305   0.620   6.296   3.402  0.1845  0.0826  0.8320
   32CHL1   H7A 2306   0.714   6.349   3.431  0.5835  0.5841 -1.1917
   32CHL1   H7B 2307   0.553   6.384   3.394 -0.2448 -0.4266 -2.2275
   32CHL1    C8 2308   0.558   6.205   3.504  1.1421 -0.1156  0.2924
   32CHL1    H8 2309   0.631   6.140   3.558  0.6115 -0.5369  0.5097
   32CHL1   C14 2310   0.498   6.288   3.616 -0.3495  0.1704 -0.5196
   32CHL1   H14 2311   0.411   6.341   3.571 -1.0781 -1.1318 -0.7060
   32CHL1   C15 2312   0.584   6.397   3.682  0.1656  0.1251  0.4789
   32CHL1  H15A 2313   0.685   6.371   3.722  0.4136  1.3506  0.7064
   32CHL1  H15B 2314   0.596   6.493   3.627 -0.7877  1.4310  2.4169
   32CHL1   C16 2315   0.497   6.432   3.808 -0.5753  0.5490 -0.1986
   32CHL1  H16A 2316   0.551   6.442   3.905 -0.4390 -1.8153  0.0175
   32CHL1  H16B 2317   0.440   6.526   3.793 -1.1485  0.1232 -0.7336
   32CHL1   C17 2318   0.392   6.322   3.823 -0.0467 -0.3091  0.1063
   32CHL1   H17 2319   0.298   6.356   3.773 -0.8687 -0.7379  1.3147
   32CHL1   C13 2320   0.428   6.205   3.734 -0.3727 -0.8634  0.7404
   32CHL1   C18 2321   0.520   6.106   3.813  0.4588  0.7749 -0.2414
   32CHL1  H18A 2322   0.594   6.156   3.880  2.0584 -2.9642  1.0902
   32CHL1  H18B 2323   0.446   6.040   3.864 -0.7892  0.2356 -2.6114
   32CHL1  H18C 2324   0.574   6.042   3.740 -0.0644 -1.0902  0.9354
   32CHL1   C12 2325   0.316   6.125   3.664 -0.0368 -0.5392  0.2193
   32CHL1  H12A 2326   0.265   6.059   3.738  0.7225  0.4400  1.6637
   32CHL1  H12B 2327   0.245   6.197   3.618 -0.0268  1.2624  2.7877
   32CHL1   C11 2328   0.372   6.041   3.545 -0.2136  0.0913 -0.9160
   32CHL1  H11A 2329   0.442   5.964   3.584 -0.4837  0.1511 -0.2890
   32CHL1  H11B 2330   0.290   5.984   3.497  1.5831 -2.1301 -1.5156
   32CHL1    C9 2331   0.450   6.121   3.440 -0.1994 -0.3895  0.3960
   32CHL1    H9 2332   0.377   6.190   3.394 -0.4081 -0.5566  0.4762
   32CHL1   C10 2333   0.506   6.035   3.321  0.2597  0.4196  0.0863
   32CHL1   C19 2334   0.576   5.906   3.374 -0.8411 -0.6829  0.0283
   32CHL1  H19A 2335   0.646   5.939   3.454 -2.6918 -1.3512  2.0191
   32CHL1  H19B 2336   0.500   5.847   3.429 -2.7915  1.0379 -0.6766
   32CHL1  H19C 2337   0.637   5.857   3.294 -3.0734 -1.0232 -1.5556
   32CHL1    C1 2338   0.379   5.979   3.236 -0.3446  0.2442  0.3006
   32CHL1   H1A 2339   0.317   5.915   3.303  1.8778  0.0947  2.3880
   32CHL1   H1B 2340   0.319   6.071   3.217  1.1200  1.5223  1.4819
   32CHL1    C2 2341   0.410   5.914   3.102  0.3496 -0.0821  0.1237
   32CHL1   H2A 2342   0.315   5.885   3.051  0.7050  0.5079 -0.8853
   32CHL1   H2B 2343   0.469   5.822   3.121 -0.2888  0.0068  2.9758
   32CHL1   C20 2344   0.343   6.291   3.968 -0.8478 -0.8784 -0.3553
   32CHL1   H20 2345   0.427   6.249   4.027 -1.5818 -0.5780  0.9473
   32CHL1   C21 2346   0.236   6.192   3.981 -0.8072 -0.1960  0.4228
   32CHL1  H21A 2347   0.268   6.091   3.945  1.6739  0.1506  1.4626
   32CHL1  H21B 2348   0.153   6.231   3.919 -0.2347  2.0714  1.0024
   32CHL1  H21C 2349   0.209   6.173   4.087 -1.5508  0.8241  0.4255
   32CHL1   C22 2350   0.300   6.411   4.049  0.2536  0.1336  0.8833
   32CHL1  H22A 2351   0.359   6.504   4.034  0.3435  0.2295  1.7691
   32CHL1  H22B 2352   0.212   6.445   3.989  0.5783 -1.9195 -0.8725
   32CHL1   C23 2353   0.258   6.398   4.200  0.2031 -0.5593 -0.5540
   32CHL1  H23A 2354   0.239   6.504   4.228  1.0236 -0.2105 -1.2761
   32CHL1  H23B 2355   0.163   6.342   4.211  0.7598 -1.2948  0.5720
   32CHL1   C24 2356   0.370   6.341   4.293  0.6554  0.0687  0.2540
   32CHL1  H24A 2357   0.391   6.241   4.249 -2.1558 -0.1073 -0.9107
   32CHL1  H24B 2358   0.461   6.403   4.282  0.0511  0.7679 -0.9136
   32CHL1   C25 2359   0.334   6.332   4.440 -0.3315 -0.3187 -1.0278
   32CHL1   H25 2360   0.428   6.282   4.473 -0.8886 -2.4157 -2.4244
   32CHL1   C26 2361   0.309   6.468   4.503  0.1832  0.4232  0.6829
   32CHL1  H26A 2362   0.297   6.461   4.613 -1.1088  0.5421  0.5647
   32CHL1  H26B 2363   0.389   6.539   4.473  0.0270 -1.0562 -3.9874
   32CHL1  H26C 2364   0.216   6.505   4.455  0.1468 -1.0538 -0.4703
   32CHL1   C27 2365   0.220   6.238   4.459  1.0290  0.4640 -0.0671
   32CHL1  H27A 2366   0.126   6.272   4.412  0.4241 -1.0386  0.0058
   32CHL1  H27B 2367   0.244   6.133   4.430  1.6142 -0.0138  1.9584
   32CHL1  H27C 2368   0.196   6.240   4.568 -0.6403  1.3108 -0.4240
   33CHL1    C3 2369   4.184   4.070   3.024 -0.5783 -0.2868  0.1728
   33CHL1    H3 2370   4.194   3.963   3.049  2.6266 -0.1749 -0.2465
   33CHL1    O3 2371   4.174   4.091   2.885 -0.5988  0.2148 -0.7419
   33CHL1   H3' 2372   4.096   4.147   2.871 -0.9710  0.3210  1.3925
   33CHL1    C4 2373   4.060   4.134   3.094 -0.2768 -0.7408  0.3057
   33CHL1   H4A 2374   4.060   4.233   3.043  0.6881 -0.1904  1.3187
   33CHL1   H4B 2375   3.971   4.073   3.066 -1.3648  0.6016  0.7194
   33CHL1    C5 2376   4.076   4.139   3.241  0.4537 -0.0606  0.5594
   33CHL1    C6 2377   3.979   4.078   3.318 -0.1815  0.5701  0.2694
   33CHL1    H6 2378   3.886   4.051   3.266 -1.4268  3.5723  0.7418
   33CHL1    C7 2379   3.968   4.085   3.468 -0.2568 -0.1408  0.3744
   33CHL1   H7A 2380   3.864   4.117   3.492 -0.6106 -1.0508  0.0917
   33CHL1   H7B 2381   3.979   3.984   3.511  0.5057 -0.2249 -0.0011
   33CHL1    C8 2382   4.076   4.171   3.527 -0.3581 -0.3953 -1.2660
   33CHL1    H8 2383   4.033   4.274   3.523 -2.0537 -0.8199  2.2040
   33CHL1   C14 2384   4.091   4.131   3.678 -0.6853 -0.0813  0.1254
   33CHL1   H14 2385   4.135   4.029   3.685 -0.5753 -0.0574 -0.2021
   33CHL1   C15 2386   3.965   4.130   3.762 -0.1214 -0.6361 -0.1133
   33CHL1  H15A 2387   3.912   4.227   3.749  1.5132  0.2080 -0.8733
   33CHL1  H15B 2388   3.894   4.046   3.751  0.2073 -1.1625  1.4311
   33CHL1   C16 2389   4.020   4.133   3.905  0.2449  0.6210 -0.1368
   33CHL1  H16A 2390   3.966   4.199   3.975  3.5671 -1.1337  4.6461
   33CHL1  H16B 2391   4.015   4.028   3.941  0.9902  0.2821 -0.9550
   33CHL1   C17 2392   4.168   4.170   3.894 -0.4992  0.1772  1.0172
   33CHL1   H17 2393   4.234   4.081   3.899  1.7888  1.7052 -0.1324
   33CHL1   C13 2394   4.185   4.221   3.748 -0.0126  0.1078 -0.0901
   33CHL1   C18 2395   4.141   4.368   3.748 -0.5470  0.2604 -0.0979
   33CHL1  H18A 2396   4.229   4.422   3.789 -0.9094  0.9512 -0.2043
   33CHL1  H18B 2397   4.125   4.418   3.650 -0.4492 -0.7105 -0.6251
   33CHL1  H18C 2398   4.048   4.400   3.800 -1.0811 -1.3319 -0.0274
   33CHL1   C12 2399   4.323   4.203   3.679  0.6906 -0.2202 -0.3015
   33CHL1  H12A 2400   4.403   4.262   3.727 -0.6880  2.6357 -1.2921
   33CHL1  H12B 2401   4.355   4.097   3.677  2.5184  0.2973  0.2095
   33CHL1   C11 2402   4.317   4.245   3.532  0.4743  0.1856  0.0222
   33CHL1  H11A 2403   4.298   4.354   3.539  1.4175  0.3385  0.2463
   33CHL1  H11B 2404   4.419   4.222   3.496  1.0475  0.9096  1.1186
   33CHL1    C9 2405   4.205   4.166   3.449 -0.1143  0.4058  0.1112
   33CHL1    H9 2406   4.242   4.061   3.454 -1.2771 -0.0481 -0.5073
   33CHL1   C10 2407   4.196   4.210   3.297  0.9812 -0.0489 -0.2011
   33CHL1   C19 2408   4.187   4.369   3.281  0.2187 -0.1683  0.2879
   33CHL1  H19A 2409   4.279   4.417   3.322  1.3050 -1.0942 -0.9728
   33CHL1  H19B 2410   4.164   4.383   3.174 -0.5426 -1.6432  0.2370
   33CHL1  H19C 2411   4.104   4.409   3.343 -0.2975  0.2685 -0.6587
   33CHL1    C1 2412   4.321   4.153   3.225  0.5784 -0.4459  0.3077
   33CHL1   H1A 2413   4.408   4.218   3.249 -0.7738  1.9603 -0.9208
   33CHL1   H1B 2414   4.331   4.044   3.244 -0.2003 -0.3589  1.2462
   33CHL1    C2 2415   4.316   4.139   3.070 -0.1403 -0.1822 -0.2520
   33CHL1   H2A 2416   4.398   4.074   3.033  0.6791  0.7957 -0.2084
   33CHL1   H2B 2417   4.326   4.243   3.030  2.2957  0.6752  2.2868
   33CHL1   C20 2418   4.215   4.258   4.009 -0.5354 -0.1087  0.2818
   33CHL1   H20 2419   4.146   4.345   4.001 -0.5675 -0.3072 -2.4404
   33CHL1   C21 2420   4.361   4.304   3.996  0.6370  0.9288  0.4651
   33CHL1  H21A 2421   4.381   4.354   4.093  1.7513 -0.6753  1.1052
   33CHL1  H21B 2422   4.387   4.369   3.910 -0.9298  0.5449 -0.3438
   33CHL1  H21C 2423   4.420   4.211   3.979  0.9284  1.4185 -1.4242
   33CHL1   C22 2424   4.196   4.195   4.146 -0.1107 -0.2115 -0.1391
   33CHL1  H22A 2425   4.246   4.256   4.224 -1.0875 -2.3155  2.2353
   33CHL1  H22B 2426   4.091   4.171   4.170  0.2813 -2.2840 -0.2501
   33CHL1   C23 2427   4.248   4.044   4.163  0.0890 -0.2286  0.8176
   33CHL1  H23A 2428   4.170   3.966   4.150 -2.6582  2.4484  0.2684
   33CHL1  H23B 2429   4.338   4.032   4.098 -0.5841  3.6263 -1.1328
   33CHL1   C24 2430   4.300   4.034   4.306  0.3603  0.1677  0.1094
   33CHL1  H24A 2431   4.384   4.106   4.311 -0.5362  1.2341  0.3918
   33CHL1  H24B 2432   4.228   4.081   4.376  1.2592  1.1799  0.3810
   33CHL1   C25 2433   4.337   3.896   4.360 -0.1172  0.0322  0.0910
   33CHL1   H25 2434   4.406   3.856   4.283 -0.3677 -1.0608  0.4147
   33CHL1   C26 2435   4.408   3.913   4.502  0.1563  0.3244  0.0548
   33CHL1  H26A 2436   4.499   3.975   4.488 -0.6967  1.5067 -0.4677
   33CHL1  H26B 2437   4.339   3.968   4.570 -0.3329 -2.1701  1.6918
   33CHL1  H26C 2438   4.433   3.821   4.558 -1.9593  0.8220  1.9514
   33CHL1   C27 2439   4.210   3.806   4.361  0.6824  0.4247 -0.4165
   33CHL1  H27A 2440   4.229   3.719   4.428 -0.2110 -0.1045 -0.8323
   33CHL1  H27B 2441   4.130   3.857   4.419 -1.4888 -1.7445 -1.3192
   33CHL1  H27C 2442   4.162   3.778   4.265  0.3229  1.1276 -0.4461
   34CHL1    C3 2443   2.123   6.604   3.237  0.4922 -0.7841  0.2605
   34CHL1    H3 2444   2.027   6.577   3.286 -0.6960 -0.0533 -1.5767
   34CHL1    O3 2445   2.128   6.583   3.096 -0.3395  0.2296 -0.0063
   34CHL1   H3' 2446   2.207   6.629   3.067  0.8290 -1.5021  0.2863
   34CHL1    C4 2447   2.144   6.754   3.270  0.0408 -0.7077  0.0122
   34CHL1   H4A 2448   2.236   6.781   3.214 -0.2874 -0.9837 -0.6595
   34CHL1   H4B 2449   2.066   6.820   3.226  0.8830  0.4946  0.2666
   34CHL1    C5 2450   2.159   6.777   3.417 -0.4580 -0.0377 -1.0418
   34CHL1    C6 2451   2.086   6.861   3.490  0.2567 -0.7193  0.4596
   34CHL1    H6 2452   2.025   6.924   3.424 -0.2522  0.1888  1.7580
   34CHL1    C7 2453   2.086   6.893   3.633 -0.1197 -0.5767  0.6274
   34CHL1   H7A 2454   2.091   7.001   3.661 -1.1122 -0.2864 -0.2811
   34CHL1   H7B 2455   1.996   6.846   3.677  1.1155 -3.0847  0.6690
   34CHL1    C8 2456   2.209   6.834   3.699 -0.2002 -0.1567 -0.8396
   34CHL1    H8 2457   2.301   6.891   3.674 -0.2342  1.5095  2.3954
   34CHL1   C14 2458   2.198   6.844   3.851 -0.0251  0.0866 -0.0780
   34CHL1   H14 2459   2.115   6.770   3.853  0.2354 -0.4795 -3.5747
   34CHL1   C15 2460   2.148   6.970   3.921  0.2489 -0.7216  0.6626
   34CHL1  H15A 2461   2.190   7.068   3.891 -0.1830 -0.3928  1.1103
   34CHL1  H15B 2462   2.038   6.981   3.910  0.1563  0.8689  2.6589
   34CHL1   C16 2463   2.167   6.936   4.068  0.0169 -0.2892 -1.0507
   34CHL1  H16A 2464   2.226   7.021   4.108  2.9915 -2.5869 -0.2300
   34CHL1  H16B 2465   2.072   6.919   4.124  0.7933 -2.2175 -0.2394
   34CHL1   C17 2466   2.258   6.810   4.079  0.4157 -0.2829  0.2908
   34CHL1   H17 2467   2.187   6.728   4.100 -0.8481  0.6042 -0.3976
   34CHL1   C13 2468   2.312   6.796   3.935 -0.6021  0.7536  0.2389
   34CHL1   C18 2469   2.432   6.888   3.916 -0.1394 -0.8967  0.8677
   34CHL1  H18A 2470   2.404   6.992   3.944 -0.9777 -0.0037 -2.6874
   34CHL1  H18B 2471   2.522   6.849   3.968  0.8067  0.7626  0.5713
   34CHL1  H18C 2472   2.460   6.911   3.811  0.3284  2.9171  1.6588
   34CHL1   C12 2473   2.342   6.648   3.884 -0.6893 -0.5212 -0.4055
   34CHL1  H12A 2474   2.443   6.630   3.926 -1.0675 -1.8963 -0.0311
   34CHL1  H12B 2475   2.269   6.575   3.926  1.1199 -2.0225  0.2602
   34CHL1   C11 2476   2.362   6.633   3.727 -0.0713  0.0330  0.2725
   34CHL1  H11A 2477   2.446   6.703   3.710  1.8589 -1.8499  1.5141
   34CHL1  H11B 2478   2.395   6.528   3.708 -1.5122 -0.7049  1.5782
   34CHL1    C9 2479   2.239   6.689   3.646 -0.1154 -0.7722 -1.0875
   34CHL1    H9 2480   2.150   6.625   3.663  0.1567 -1.6273 -2.7312
   34CHL1   C10 2481   2.257   6.681   3.494  0.1647 -0.3283 -0.1054
   34CHL1   C19 2482   2.404   6.722   3.456  1.2612 -0.1046  0.4152
   34CHL1  H19A 2483   2.479   6.657   3.506 -0.6913 -2.0479  0.9564
   34CHL1  H19B 2484   2.417   6.698   3.348 -0.2222  0.3937  0.1042
   34CHL1  H19C 2485   2.435   6.826   3.481  0.3670  1.5055 -4.2349
   34CHL1    C1 2486   2.219   6.532   3.460 -0.0156  0.5411  0.6512
   34CHL1   H1A 2487   2.273   6.458   3.523 -1.8277  0.7537  2.5630
   34CHL1   H1B 2488   2.117   6.511   3.499 -0.3732  0.4649 -0.2990
   34CHL1    C2 2489   2.217   6.502   3.308 -0.1140 -0.4433  0.1996
   34CHL1   H2A 2490   2.187   6.398   3.283  1.3810 -0.6450 -0.8304
   34CHL1   H2B 2491   2.314   6.524   3.260 -0.0741 -0.1402  0.4154
   34CHL1   C20 2492   2.358   6.821   4.204  0.3162  0.8915  0.4060
   34CHL1   H20 2493   2.430   6.905   4.201  0.6877  0.6706  2.1295
   34CHL1   C21 2494   2.437   6.686   4.210  0.5291 -0.3290 -0.5263
   34CHL1  H21A 2495   2.524   6.706   4.145  0.2187  1.1545 -0.5215
   34CHL1  H21B 2496   2.373   6.600   4.180  2.0269 -2.0522  1.0236
   34CHL1  H21C 2497   2.479   6.659   4.309 -2.4710 -1.2439  0.6272
   34CHL1   C22 2498   2.282   6.848   4.337  0.1486  0.0104 -0.0047
   34CHL1  H22A 2499   2.367   6.845   4.408  0.1415 -0.3631 -0.0081
   34CHL1  H22B 2500   2.241   6.951   4.342 -1.5634 -0.5070 -1.9350
   34CHL1   C23 2501   2.158   6.755   4.377 -0.5658 -0.0574  0.9002
   34CHL1  H23A 2502   2.073   6.769   4.307 -0.9901  0.5037  1.5147
   34CHL1  H23B 2503   2.199   6.652   4.370  0.5335  0.4686 -0.9841
   34CHL1   C24 2504   2.094   6.771   4.519 -0.1441  0.0715  0.6275
   34CHL1  H24A 2505   2.163   6.749   4.603  0.3200 -0.4939  0.0985
   34CHL1  H24B 2506   2.050   6.873   4.531  2.2914  1.4241 -1.1012
   34CHL1   C25 2507   1.972   6.673   4.533 -0.3183  0.3199 -0.3074
   34CHL1   H25 2508   2.002   6.580   4.481  0.0852 -1.4386  2.7872
   34CHL1   C26 2509   1.949   6.645   4.680 -0.8603  1.2152  0.0991
   34CHL1  H26A 2510   1.872   6.564   4.685  1.4581 -1.0281  1.4496
   34CHL1  H26B 2511   2.033   6.595   4.733 -1.1194 -2.0292 -2.2087
   34CHL1  H26C 2512   1.914   6.734   4.737  1.3759  1.3411  1.4014
   34CHL1   C27 2513   1.840   6.724   4.472 -0.3060  0.6780 -0.1431
   34CHL1  H27A 2514   1.763   6.644   4.469  0.5111 -0.1586  0.3914
   34CHL1  H27B 2515   1.791   6.815   4.512  0.4847  0.3910  1.5576
   34CHL1  H27C 2516   1.865   6.743   4.366 -0.7805 -1.5301 -0.7134
   35CHL1    C3 2517   5.210   0.119   3.097 -0.1531  0.0867 -0.7286
   35CHL1    H3 2518   5.260   0.217   3.108  0.6521 -0.4607  0.8056
   35CHL1    O3 2519   5.182   0.091   2.961  0.1854 -0.3696  0.6412
   35CHL1   H3' 2520   5.125   0.162   2.930 -0.1739 -1.1670 -0.6013
   35CHL1    C4 2521   5.303   0.002   3.134 -0.1216  0.0054 -0.0491
   35CHL1   H4A 2522   5.245  -0.086   3.096 -1.7843  0.7385  0.7115
   35CHL1   H4B 2523   5.395   0.016   3.074 -0.2911  2.1699  0.1325
   35CHL1    C5 2524   5.336   0.001   3.275  0.2493 -0.5363 -0.1448
   35CHL1    C6 2525   5.463  -0.001   3.325 -0.1497  0.1801  0.1195
   35CHL1    H6 2526   5.551  -0.008   3.258  0.8176 -3.5787  1.4811
   35CHL1    C7 2527   5.485  -0.002   3.479  0.1157  0.4963  0.1044
   35CHL1   H7A 2528   5.569  -0.068   3.512 -0.7230 -0.2471  0.7963
   35CHL1   H7B 2529   5.529   0.094   3.515  3.0649  0.2181 -2.3143
   35CHL1    C8 2530   5.361  -0.053   3.559 -0.0555 -0.6250 -0.2748
   35CHL1    H8 2531   5.366  -0.159   3.527  2.1740 -0.4564 -0.6690
   35CHL1   C14 2532   5.387  -0.033   3.712 -0.1908  0.4945 -0.7741
   35CHL1   H14 2533   5.407   0.075   3.728  1.4354 -0.0394  1.1906
   35CHL1   C15 2534   5.512  -0.110   3.765 -1.3238  0.0464 -0.0750
   35CHL1  H15A 2535   5.503  -0.217   3.737 -0.2523 -0.4132  1.1974
   35CHL1  H15B 2536   5.608  -0.072   3.724 -0.2500 -2.5283 -0.1677
   35CHL1   C16 2537   5.499  -0.099   3.913 -0.3359 -0.0107 -0.9704
   35CHL1  H16A 2538   5.511  -0.200   3.958 -0.3072  0.8218  1.0113
   35CHL1  H16B 2539   5.568  -0.025   3.960 -0.4655  0.7130 -1.8863
   35CHL1   C17 2540   5.348  -0.040   3.943 -0.6261  0.2187  0.3758
   35CHL1   H17 2541   5.358   0.071   3.951  0.7630  0.1344  0.1625
   35CHL1   C13 2542   5.271  -0.061   3.811 -0.1592 -0.4410 -0.1965
   35CHL1   C18 2543   5.228  -0.210   3.791 -1.3996 -0.3404  0.3747
   35CHL1  H18A 2544   5.212  -0.227   3.682  1.1216  1.6825 -0.4209
   35CHL1  H18B 2545   5.311  -0.273   3.829 -0.0508  0.2357 -1.4317
   35CHL1  H18C 2546   5.139  -0.226   3.855 -2.0290 -0.1525 -0.4371
   35CHL1   C12 2547   5.166   0.041   3.772  0.9615 -0.5862  0.2764
   35CHL1  H12A 2548   5.072   0.027   3.828 -0.6923  0.5458 -2.0276
   35CHL1  H12B 2549   5.192   0.148   3.789 -2.1392  0.6771 -2.0254
   35CHL1   C11 2550   5.124   0.023   3.625 -0.5872 -0.0336 -0.1823
   35CHL1  H11A 2551   5.076  -0.077   3.620  0.0773 -0.5270  2.1877
   35CHL1  H11B 2552   5.056   0.108   3.603 -0.9830  0.2819  2.0508
   35CHL1    C9 2553   5.239   0.030   3.523 -0.5647 -0.3365 -0.2440
   35CHL1    H9 2554   5.275   0.135   3.531  2.1680 -1.2566  0.4703
   35CHL1   C10 2555   5.211   0.009   3.367  0.1082  0.0606 -0.4957
   35CHL1   C19 2556   5.123  -0.118   3.345  0.1385  0.2342 -0.7654
   35CHL1  H19A 2557   5.179  -0.204   3.387  1.3231  0.4910 -1.7567
   35CHL1  H19B 2558   5.032  -0.089   3.401  0.8137  1.6089 -0.3275
   35CHL1  H19C 2559   5.099  -0.149   3.241 -1.7989 -1.7823  0.2074
   35CHL1    C1 2560   5.115   0.128   3.322 -0.3895 -0.4244  0.5191
   35CHL1   H1A 2561   5.024   0.115   3.385 -0.0839  0.9057  1.2665
   35CHL1   H1B 2562   5.160   0.225   3.352 -0.6054 -0.2285  0.2095
   35CHL1    C2 2563   5.082   0.119   3.177 -0.1892 -0.1478 -0.0059
   35CHL1   H2A 2564   5.022   0.207   3.145  1.1064  1.0248  0.6873
   35CHL1   H2B 2565   5.028   0.027   3.148 -0.9267 -0.0958  1.1474
   35CHL1   C20 2566   5.289  -0.081   4.079  0.4995  0.1181  0.0160
   35CHL1   H20 2567   5.265  -0.190   4.076  1.6603 -0.1543 -0.0323
   35CHL1   C21 2568   5.157  -0.001   4.101  0.3123 -0.1868 -0.9849
   35CHL1  H21A 2569   5.183   0.107   4.090 -1.2025  0.2400 -0.5808
   35CHL1  H21B 2570   5.113  -0.005   4.203 -1.4544 -2.2890 -1.7600
   35CHL1  H21C 2571   5.086  -0.037   4.024 -1.6789  3.6251 -1.1654
   35CHL1   C22 2572   5.388  -0.070   4.198 -0.3435 -0.0485 -0.2208
   35CHL1  H22A 2573   5.470  -0.144   4.181 -1.0590 -0.7246 -0.8037
   35CHL1  H22B 2574   5.433   0.032   4.198 -1.2425  0.3579 -0.8108
   35CHL1   C23 2575   5.323  -0.105   4.331 -0.1503 -0.9573  0.5134
   35CHL1  H23A 2576   5.247  -0.029   4.356  0.1773 -0.8880  1.3210
   35CHL1  H23B 2577   5.268  -0.200   4.311 -0.4615 -0.3302 -1.9965
   35CHL1   C24 2578   5.419  -0.135   4.435  0.6397 -0.1098  0.2940
   35CHL1  H24A 2579   5.496  -0.199   4.387  0.4532 -1.0941  1.2578
   35CHL1  H24B 2580   5.468  -0.042   4.471 -0.7439  0.7855 -0.0565
   35CHL1   C25 2581   5.367  -0.217   4.558  0.5541 -0.5383 -0.0485
   35CHL1   H25 2582   5.344  -0.318   4.518  1.8062 -1.1322  0.6828
   35CHL1   C26 2583   5.470  -0.236   4.668  0.3998 -1.3246 -0.1145
   35CHL1  H26A 2584   5.500  -0.133   4.698 -0.9842 -0.6324 -1.0087
   35CHL1  H26B 2585   5.423  -0.293   4.751 -0.6078 -1.0529 -0.4844
   35CHL1  H26C 2586   5.556  -0.295   4.629  3.2476  1.2424  1.7758
   35CHL1   C27 2587   5.247  -0.145   4.622 -0.3667  0.1614 -0.1974
   35CHL1  H27A 2588   5.177  -0.129   4.538  0.8758  0.5869 -1.1970
   35CHL1  H27B 2589   5.209  -0.213   4.701  1.8838  0.4104  1.2007
   35CHL1  H27C 2590   5.270  -0.042   4.659 -1.7787  0.5647 -0.4110
   36CHL1    C3 2591   1.867   0.924   3.601  0.3401 -0.5454  0.0767
   36CHL1    H3 2592   1.829   0.821   3.615 -1.4278 -0.0807 -0.9679
   36CHL1    O3 2593   1.865   0.963   3.463 -0.3434 -0.2746 -0.1217
   36CHL1   H3' 2594   1.870   1.059   3.470 -2.8623 -0.1767  2.1256
   36CHL1    C4 2595   1.788   1.030   3.678 -0.5231  0.7153 -0.2522
   36CHL1   H4A 2596   1.832   1.131   3.661 -1.0389  1.1450  0.8851
   36CHL1   H4B 2597   1.683   1.023   3.644  0.0297 -1.3932 -1.7090
   36CHL1    C5 2598   1.794   1.004   3.825 -0.0524 -0.1490 -0.4540
   36CHL1    C6 2599   1.679   0.982   3.894 -0.2057 -0.1648 -0.4967
   36CHL1    H6 2600   1.585   0.990   3.838  0.1698  1.5981 -0.9464
   36CHL1    C7 2601   1.669   0.948   4.041  0.0301  0.0976  0.8353
   36CHL1   H7A 2602   1.590   1.008   4.091 -0.4821 -0.2031  0.4051
   36CHL1   H7B 2603   1.640   0.840   4.044  0.0178  0.0793  0.1238
   36CHL1    C8 2604   1.801   0.967   4.117 -0.2391 -0.4941 -0.1420
   36CHL1    H8 2605   1.800   1.076   4.141  0.3972  0.5753 -4.2016
   36CHL1   C14 2606   1.803   0.879   4.244  0.2691  0.3279  0.6387
   36CHL1   H14 2607   1.824   0.779   4.200 -0.4398  1.3774 -2.2664
   36CHL1   C15 2608   1.671   0.850   4.324 -0.8115 -0.0946  0.2234
   36CHL1  H15A 2609   1.603   0.935   4.342 -0.5315  0.0299  0.7167
   36CHL1  H15B 2610   1.620   0.780   4.254  1.9172 -0.0915 -1.9624
   36CHL1   C16 2611   1.718   0.792   4.454 -0.0627 -0.4394  0.5126
   36CHL1  H16A 2612   1.673   0.851   4.536  3.0350 -0.0548  2.0604
   36CHL1  H16B 2613   1.667   0.694   4.470  1.2804 -1.0457  1.3025
   36CHL1   C17 2614   1.874   0.793   4.450  0.0259 -0.5952  0.7085
   36CHL1   H17 2615   1.900   0.689   4.421 -1.2553 -1.6598  3.0141
   36CHL1   C13 2616   1.919   0.896   4.338  0.0224 -0.4084  0.3499
   36CHL1   C18 2617   1.905   1.044   4.402  0.7892 -0.8223 -0.4254
   36CHL1  H18A 2618   1.911   1.119   4.320 -0.6122 -0.2599 -0.0419
   36CHL1  H18B 2619   1.808   1.070   4.450  1.8588  1.4618  0.6263
   36CHL1  H18C 2620   1.982   1.072   4.477 -2.1232 -0.6559  2.7533
   36CHL1   C12 2621   2.047   0.883   4.258 -0.3012  0.4372 -1.2084
   36CHL1  H12A 2622   2.139   0.900   4.318 -1.2578 -1.7300  1.0185
   36CHL1  H12B 2623   2.059   0.777   4.226  0.8521 -0.1224  0.8665
   36CHL1   C11 2624   2.049   0.967   4.128  0.6072 -0.3527 -0.0146
   36CHL1  H11A 2625   2.056   1.074   4.158 -4.0895 -0.1028  0.9460
   36CHL1  H11B 2626   2.139   0.941   4.068  0.2140 -2.5511  0.2766
   36CHL1    C9 2627   1.927   0.941   4.038 -0.3711  0.0290 -0.3668
   36CHL1    H9 2628   1.927   0.830   4.025  1.7986 -0.5238  3.1199
   36CHL1   C10 2629   1.939   0.993   3.894 -0.1925  0.4221 -0.9125
   36CHL1   C19 2630   2.010   1.128   3.892  0.1839 -0.4032 -0.1086
   36CHL1  H19A 2631   2.013   1.169   3.789  3.8056  0.1425  0.0911
   36CHL1  H19B 2632   1.939   1.195   3.945 -1.7568 -0.3768 -2.5574
   36CHL1  H19C 2633   2.109   1.129   3.941  0.0576 -0.1593  0.1470
   36CHL1    C1 2634   2.016   0.892   3.808  0.9895  0.3545 -0.2206
   36CHL1   H1A 2635   2.124   0.894   3.836  1.0222  0.5364 -0.3564
   36CHL1   H1B 2636   1.974   0.791   3.829  2.2917 -0.2915 -0.5723
   36CHL1    C2 2637   2.011   0.921   3.656 -0.0993  0.1982 -0.6112
   36CHL1   H2A 2638   2.072   0.839   3.611  0.9598  0.5253  0.1854
   36CHL1   H2B 2639   2.055   1.022   3.644 -3.0076  1.6895  0.5171
   36CHL1   C20 2640   1.935   0.805   4.589  0.8387  0.4590 -0.7088
   36CHL1   H20 2641   1.931   0.909   4.628  1.1826  0.2020  0.0230
   36CHL1   C21 2642   2.086   0.772   4.585  0.6960 -0.2432 -0.1792
   36CHL1  H21A 2643   2.137   0.858   4.536  3.0043 -1.3854  0.0923
   36CHL1  H21B 2644   2.110   0.679   4.530 -0.0825 -0.0118 -0.9158
   36CHL1  H21C 2645   2.130   0.788   4.686 -1.9611  2.7880  0.6597
   36CHL1   C22 2646   1.870   0.715   4.699  0.1507 -0.2630  0.0594
   36CHL1  H22A 2647   1.764   0.748   4.708  0.4438  1.5707 -2.2742
   36CHL1  H22B 2648   1.879   0.613   4.657 -0.8432 -0.3993  0.1599
   36CHL1   C23 2649   1.933   0.724   4.837 -0.4678 -0.5329  0.4267
   36CHL1  H23A 2650   2.036   0.683   4.832 -0.0311  0.6356 -0.6156
   36CHL1  H23B 2651   1.939   0.830   4.868 -1.6979  1.1768 -4.2981
   36CHL1   C24 2652   1.841   0.634   4.926  0.4295  0.0418 -0.2337
   36CHL1  H24A 2653   1.732   0.652   4.924 -0.1422 -2.9277  0.0037
   36CHL1  H24B 2654   1.836   0.538   4.869 -2.0266 -2.7916  4.1998
   36CHL1   C25 2655   1.885   0.626   5.073 -0.3157  0.3603 -0.0068
   36CHL1   H25 2656   1.990   0.591   5.076 -0.0487  1.0569 -0.8113
   36CHL1   C26 2657   1.887   0.768   5.139 -0.2906 -0.1888  0.5831
   36CHL1  H26A 2658   1.908   0.761   5.248  0.5472 -0.1000  0.4351
   36CHL1  H26B 2659   1.956   0.842   5.094 -1.9479  1.2654  0.3161
   36CHL1  H26C 2660   1.784   0.809   5.130 -0.4049 -0.1016  2.0814
   36CHL1   C27 2661   1.802   0.530   5.158 -0.6465  0.3955 -0.4871
   36CHL1  H27A 2662   1.817   0.421   5.142 -0.7129  0.4115 -0.6604
   36CHL1  H27B 2663   1.808   0.551   5.267  3.1036 -0.0465 -0.5027
   36CHL1  H27C 2664   1.695   0.544   5.131 -0.7717 -2.0897 -1.5742
   37CHL1    C3 2665   2.984   4.230   2.910 -0.6946  0.4747  0.4939
   37CHL1    H3 2666   3.031   4.133   2.883  0.8492  1.4224 -0.3654
   37CHL1    O3 2667   2.912   4.275   2.796  0.1080 -0.3924 -0.0717
   37CHL1   H3' 2668   2.851   4.343   2.828 -2.6501 -2.3358 -0.8188
   37CHL1    C4 2669   2.891   4.192   3.030  0.9576 -0.5274 -0.4670
   37CHL1   H4A 2670   2.853   4.290   3.065  0.8442 -0.2628 -1.3076
   37CHL1   H4B 2671   2.811   4.125   2.992 -0.4219  0.1623  1.1164
   37CHL1    C5 2672   2.982   4.137   3.138 -0.3450 -0.7888 -0.5332
   37CHL1    C6 2673   2.961   4.015   3.193 -0.4009 -0.9863  0.1083
   37CHL1    H6 2674   2.889   3.949   3.143 -1.5232 -0.0832  0.4733
   37CHL1    C7 2675   3.033   3.951   3.307  1.2098  0.7386 -0.6051
   37CHL1   H7A 2676   2.958   3.909   3.377  1.9281  0.6553  0.1397
   37CHL1   H7B 2677   3.109   3.877   3.274 -0.1813 -0.9236 -0.2282
   37CHL1    C8 2678   3.102   4.067   3.391 -0.4853  0.0065  0.6078
   37CHL1    H8 2679   3.023   4.124   3.444  0.9921  1.9197  0.8735
   37CHL1   C14 2680   3.205   4.007   3.491  0.4316 -0.0131  0.8091
   37CHL1   H14 2681   3.286   3.966   3.427  0.3660  1.2676 -0.1311
   37CHL1   C15 2682   3.146   3.890   3.576 -0.3726 -0.6568 -0.5253
   37CHL1  H15A 2683   3.036   3.904   3.586 -0.4714 -1.7406 -0.0232
   37CHL1  H15B 2684   3.157   3.794   3.521 -1.9146  0.1668 -2.4219
   37CHL1   C16 2685   3.225   3.891   3.711 -0.4815  0.2662  0.7698
   37CHL1  H16A 2686   3.162   3.923   3.797  1.0350 -0.4026  2.1856
   37CHL1  H16B 2687   3.272   3.792   3.732  1.1289  1.1169  1.3986
   37CHL1   C17 2688   3.332   4.010   3.680  0.4750  0.1196 -0.3065
   37CHL1   H17 2689   3.407   3.949   3.626  0.1195 -0.1028 -0.5571
   37CHL1   C13 2690   3.269   4.108   3.578 -0.2107  0.5079  0.3383
   37CHL1   C18 2691   3.170   4.186   3.659 -0.0330  0.4253  0.2060
   37CHL1  H18A 2692   3.224   4.258   3.724  1.3312 -1.6036  1.4195
   37CHL1  H18B 2693   3.127   4.253   3.581 -0.2017  0.4313  0.3044
   37CHL1  H18C 2694   3.082   4.134   3.703 -0.1024 -2.3326 -2.8340
   37CHL1   C12 2695   3.354   4.198   3.488 -0.5096 -0.0587  0.0839
   37CHL1  H12A 2696   3.412   4.276   3.541  1.0819 -0.9928 -0.2275
   37CHL1  H12B 2697   3.430   4.142   3.430 -1.4639  0.0028 -1.2650
   37CHL1   C11 2698   3.267   4.263   3.385  0.2267  0.4377  1.0200
   37CHL1  H11A 2699   3.200   4.341   3.427 -0.9875  0.9144 -1.5971
   37CHL1  H11B 2700   3.319   4.328   3.311 -2.1968 -0.3346 -1.5322
   37CHL1    C9 2701   3.180   4.162   3.301  0.3744  0.2285  0.2817
   37CHL1    H9 2702   3.237   4.091   3.236 -0.5833 -1.0037  0.7414
   37CHL1   C10 2703   3.094   4.230   3.192 -0.6309  0.3046 -0.8117
   37CHL1   C19 2704   3.012   4.347   3.253 -0.6224 -0.7372 -0.6936
   37CHL1  H19A 2705   2.941   4.315   3.332  1.4979 -1.3086  1.1161
   37CHL1  H19B 2706   3.075   4.428   3.296 -1.9999 -0.9389  1.8962
   37CHL1  H19C 2707   2.951   4.396   3.175 -2.1025 -2.2306 -0.5354
   37CHL1    C1 2708   3.178   4.281   3.065  0.1045 -0.2758  0.2199
   37CHL1   H1A 2709   3.254   4.357   3.092  0.2157 -0.5550  0.7077
   37CHL1   H1B 2710   3.228   4.186   3.035  1.6003  0.4439  0.3484
   37CHL1    C2 2711   3.094   4.333   2.947  0.6650  0.4150  0.1344
   37CHL1   H2A 2712   3.163   4.347   2.861  1.1738  1.4518  0.6919
   37CHL1   H2B 2713   3.053   4.433   2.974  2.9286  0.5875  3.5059
   37CHL1   C20 2714   3.406   4.055   3.807  0.0294  0.6223 -0.0032
   37CHL1   H20 2715   3.345   4.114   3.879  2.2498 -0.2727  2.7628
   37CHL1   C21 2716   3.527   4.143   3.763  0.4670  0.4229 -0.0469
   37CHL1  H21A 2717   3.594   4.163   3.850  0.3729 -0.7852  0.3265
   37CHL1  H21B 2718   3.488   4.242   3.733  0.2796  0.3694  0.0240
   37CHL1  H21C 2719   3.567   4.098   3.669 -2.9977 -0.9833 -0.9762
   37CHL1   C22 2720   3.454   3.936   3.895 -0.1285 -0.7180 -0.4021
   37CHL1  H22A 2721   3.376   3.876   3.948 -0.4952  1.2381  1.4168
   37CHL1  H22B 2722   3.504   3.866   3.825  0.4485 -0.5897 -0.1238
   37CHL1   C23 2723   3.559   3.972   3.999  0.3508  0.1067  0.0905
   37CHL1  H23A 2724   3.653   3.989   3.942 -1.4668 -0.0310 -3.1949
   37CHL1  H23B 2725   3.526   4.065   4.048  1.3533  0.8340 -0.5775
   37CHL1   C24 2726   3.565   3.865   4.112 -0.2687  0.4323 -0.2643
   37CHL1  H24A 2727   3.469   3.852   4.167  0.5480  0.2472  1.1490
   37CHL1  H24B 2728   3.591   3.766   4.068 -0.9576  0.1853 -0.1263
   37CHL1   C25 2729   3.672   3.891   4.215  0.1651  0.6859  0.6237
   37CHL1   H25 2730   3.644   3.994   4.245  0.9748  1.6721 -1.7975
   37CHL1   C26 2731   3.663   3.798   4.338 -0.2263  0.5175  0.2391
   37CHL1  H26A 2732   3.744   3.808   4.412 -0.8918 -2.7057  1.5995
   37CHL1  H26B 2733   3.569   3.823   4.391 -0.1971  2.9262 -0.7196
   37CHL1  H26C 2734   3.667   3.690   4.311 -1.2347  0.2179  1.2559
   37CHL1   C27 2735   3.806   3.893   4.145  0.2647  0.2276 -0.0160
   37CHL1  H27A 2736   3.879   3.903   4.229  0.7281  1.5746 -0.5515
   37CHL1  H27B 2737   3.827   3.804   4.082  3.9924 -0.7963  2.3264
   37CHL1  H27C 2738   3.827   3.982   4.081 -1.8695  1.5398  1.0021
   38CHL1    C3 2739   6.033   6.148   2.352 -0.9295 -0.5071 -0.0700
   38CHL1    H3 2740   6.094   6.059   2.323  1.0913  0.9428 -0.4598
   38CHL1    O3 2741   5.980   6.208   2.230  0.5395  0.8600  0.0098
   38CHL1   H3' 2742   5.916   6.268   2.267  0.5167 -0.2297  1.8754
   38CHL1    C4 2743   5.925   6.093   2.444 -0.2604 -0.0395 -1.1028
   38CHL1   H4A 2744   5.852   6.170   2.478 -0.1192  0.3340 -1.6197
   38CHL1   H4B 2745   5.858   6.019   2.395  0.3250 -1.5992  0.3861
   38CHL1    C5 2746   5.980   6.030   2.571 -0.3113  0.9062  0.2557
   38CHL1    C6 2747   5.956   5.896   2.598 -0.3029 -0.1251 -0.2193
   38CHL1    H6 2748   5.878   5.842   2.543 -2.6313  1.1922  1.5717
   38CHL1    C7 2749   6.014   5.836   2.722 -0.1140 -0.6349  0.0199
   38CHL1   H7A 2750   5.925   5.796   2.774 -1.8245  0.0802 -2.1595
   38CHL1   H7B 2751   6.079   5.759   2.676  0.8789  0.2975 -0.1789
   38CHL1    C8 2752   6.079   5.939   2.821 -0.1361 -0.1714  0.0422
   38CHL1    H8 2753   5.999   5.999   2.869  0.5410 -0.1343  1.1489
   38CHL1   C14 2754   6.159   5.862   2.926 -0.2980 -0.3406 -0.8187
   38CHL1   H14 2755   6.255   5.836   2.876  1.1073 -0.0417  1.5655
   38CHL1   C15 2756   6.091   5.744   2.989  0.6350  0.0696  0.3024
   38CHL1  H15A 2757   5.987   5.776   3.010  0.8423 -0.3683  2.1746
   38CHL1  H15B 2758   6.096   5.653   2.926 -0.9172 -1.5344  2.3768
   38CHL1   C16 2759   6.167   5.718   3.122 -0.5331 -0.6340 -0.4590
   38CHL1  H16A 2760   6.095   5.722   3.207  1.5589  0.3514  1.3527
   38CHL1  H16B 2761   6.204   5.614   3.136 -4.6528 -1.9540  2.9794
   38CHL1   C17 2762   6.274   5.834   3.135  0.2999 -0.5268 -0.8857
   38CHL1   H17 2763   6.364   5.796   3.082 -0.7718 -1.0995 -2.3760
   38CHL1   C13 2764   6.219   5.951   3.041 -0.2253  1.2342 -0.8580
   38CHL1   C18 2765   6.109   6.023   3.125 -0.2505  0.5612 -0.1424
   38CHL1  H18A 2766   6.044   6.084   3.059  1.8091  0.6222 -2.2472
   38CHL1  H18B 2767   6.042   5.949   3.175 -1.8084  1.6830 -0.4687
   38CHL1  H18C 2768   6.161   6.090   3.196  0.3765  1.2640 -1.2507
   38CHL1   C12 2769   6.307   6.059   2.977 -0.4414  0.7033 -0.3578
   38CHL1  H12A 2770   6.355   6.123   3.054  0.8471  0.7703 -1.1778
   38CHL1  H12B 2771   6.386   5.997   2.929 -0.5339 -0.0641  0.4540
   38CHL1   C11 2772   6.237   6.141   2.870  0.0933 -0.2945 -0.6193
   38CHL1  H11A 2773   6.176   6.220   2.919  1.2356  0.7170 -0.7976
   38CHL1  H11B 2774   6.323   6.195   2.826  0.7517  0.7704  1.8387
   38CHL1    C9 2775   6.157   6.054   2.759  0.1393  0.2156  0.1864
   38CHL1    H9 2776   6.234   5.996   2.703  0.0308 -1.4676  1.6653
   38CHL1   C10 2777   6.077   6.127   2.646 -0.2380 -0.1460 -0.5337
   38CHL1   C19 2778   5.994   6.227   2.723 -0.0736 -0.7148  0.6180
   38CHL1  H19A 2779   6.046   6.295   2.794  0.2636 -1.8962  1.5485
   38CHL1  H19B 2780   5.938   6.295   2.656  0.5712 -1.8884 -1.1843
   38CHL1  H19C 2781   5.917   6.173   2.783 -1.8364  3.9520  3.0519
   38CHL1    C1 2782   6.190   6.190   2.550 -0.7409 -0.5543 -0.3141
   38CHL1   H1A 2783   6.255   6.268   2.596 -0.4994  0.0403 -1.6001
   38CHL1   H1B 2784   6.253   6.103   2.520 -1.6008 -1.5110  0.5763
   38CHL1    C2 2785   6.125   6.247   2.423 -0.1657 -0.4187 -0.7196
   38CHL1   H2A 2786   6.206   6.273   2.351  0.5490 -0.4317  0.0663
   38CHL1   H2B 2787   6.079   6.343   2.453 -0.6481 -0.6890 -0.5912
   38CHL1   C20 2788   6.324   5.866   3.277  0.4063 -0.4871  0.1751
   38CHL1   H20 2789   6.259   5.935   3.335 -0.4340 -1.8051  0.8329
   38CHL1   C21 2790   6.463   5.931   3.261  0.3760  0.5195  0.2888
   38CHL1  H21A 2791   6.498   5.933   3.366 -1.6955  0.0827  1.0279
   38CHL1  H21B 2792   6.460   6.034   3.217 -0.7970  0.2761 -0.2400
   38CHL1  H21C 2793   6.540   5.873   3.206 -2.2791 -3.0123 -0.0205
   38CHL1   C22 2794   6.326   5.737   3.367 -0.6872 -0.9908  0.3197
   38CHL1  H22A 2795   6.243   5.664   3.357  0.0920 -1.7439 -1.1062
   38CHL1  H22B 2796   6.419   5.685   3.332  0.6237  0.3960  1.6202
   38CHL1   C23 2797   6.342   5.770   3.519  0.0562  0.2392  0.1904
   38CHL1  H23A 2798   6.426   5.839   3.545  0.9947 -0.7024 -0.2568
   38CHL1  H23B 2799   6.245   5.813   3.551 -0.2245 -0.1457 -0.1326
   38CHL1   C24 2800   6.365   5.642   3.601  0.5208  0.2886 -0.2317
   38CHL1  H24A 2801   6.262   5.599   3.594 -0.6105  2.5832  1.0431
   38CHL1  H24B 2802   6.450   5.586   3.559  0.2537  0.5045 -1.0761
   38CHL1   C25 2803   6.388   5.660   3.755 -0.9906  0.0165  0.1636
   38CHL1   H25 2804   6.488   5.707   3.768  0.1430 -2.0107 -0.7753
   38CHL1   C26 2805   6.288   5.758   3.827 -0.3630  0.8801 -1.3738
   38CHL1  H26A 2806   6.275   5.851   3.767 -0.0070 -0.0888 -3.0230
   38CHL1  H26B 2807   6.182   5.726   3.833  0.2329 -1.2309 -1.3067
   38CHL1  H26C 2808   6.331   5.778   3.928  2.3289  1.9912 -2.6303
   38CHL1   C27 2809   6.402   5.516   3.822  0.1889 -0.3532  0.3227
   38CHL1  H27A 2810   6.473   5.457   3.760 -0.5227  1.3291 -2.2494
   38CHL1  H27B 2811   6.424   5.528   3.931  0.7258 -0.6572  0.2483
   38CHL1  H27C 2812   6.311   5.455   3.803 -0.1653 -0.6937  2.7021
   39CHL1    C3 2813   4.145   6.383   2.758 -0.1687 -0.1825 -1.1676
   39CHL1    H3 2814   4.239   6.435   2.733  0.0766  0.7473  1.3883
   39CHL1    O3 2815   4.080   6.350   2.637 -0.2437 -0.2472  0.2414
   39CHL1   H3' 2816   3.991   6.327   2.664  0.1611 -2.5753 -0.1414
   39CHL1    C4 2817   4.195   6.261   2.844 -0.1183  0.5406 -0.0764
   39CHL1   H4A 2818   4.121   6.178   2.857 -0.7806  1.2060  0.4707
   39CHL1   H4B 2819   4.274   6.214   2.782 -1.8984  0.2115 -2.2296
   39CHL1    C5 2820   4.226   6.304   2.984 -0.0413  0.5156  1.0192
   39CHL1    C6 2821   4.351   6.277   3.027  0.1269 -0.1369  0.2198
   39CHL1    H6 2822   4.414   6.220   2.957 -2.7821 -0.3411 -2.4978
   39CHL1    C7 2823   4.399   6.330   3.163  0.1251  0.2511  0.2150
   39CHL1   H7A 2824   4.469   6.258   3.211  1.0647  0.3515 -0.9755
   39CHL1   H7B 2825   4.451   6.426   3.146 -1.4066  1.0668 -0.0073
   39CHL1    C8 2826   4.272   6.349   3.259  1.1134  0.4649 -0.2545
   39CHL1    H8 2827   4.233   6.249   3.286  1.5688 -0.4193 -2.6236
   39CHL1   C14 2828   4.308   6.418   3.396  0.4708 -0.2617  0.5627
   39CHL1   H14 2829   4.339   6.519   3.363 -0.9024 -0.2011 -0.6401
   39CHL1   C15 2830   4.430   6.360   3.472  0.1555  1.0980  0.8161
   39CHL1  H15A 2831   4.405   6.253   3.491  0.9083  0.6734 -0.4779
   39CHL1  H15B 2832   4.522   6.376   3.412  0.2671  0.5238  0.8232
   39CHL1   C16 2833   4.430   6.430   3.602  0.8476  0.2012  0.2557
   39CHL1  H16A 2834   4.460   6.359   3.682 -0.8873  0.1204  0.8659
   39CHL1  H16B 2835   4.513   6.504   3.599  0.6133  0.4459 -0.7108
   39CHL1   C17 2836   4.290   6.497   3.617  0.2022  0.0847  0.6606
   39CHL1   H17 2837   4.307   6.605   3.598 -1.1190  0.2173  0.1071
   39CHL1   C13 2838   4.203   6.446   3.501  0.5576 -0.4192  0.2180
   39CHL1   C18 2839   4.124   6.313   3.535 -0.4209  0.1513  0.5615
   39CHL1  H18A 2840   4.073   6.260   3.451  1.1485 -1.0925  0.3382
   39CHL1  H18B 2841   4.196   6.234   3.567  1.7499  1.1110 -1.5948
   39CHL1  H18C 2842   4.054   6.347   3.614  0.5568  1.4804  0.8987
   39CHL1   C12 2843   4.119   6.563   3.433 -0.3282 -0.4065 -0.6830
   39CHL1  H12A 2844   4.034   6.584   3.501 -1.3772 -2.3932 -1.2715
   39CHL1  H12B 2845   4.170   6.661   3.424  1.7201 -1.3555 -0.0633
   39CHL1   C11 2846   4.064   6.512   3.297 -0.7655  0.1406 -0.3193
   39CHL1  H11A 2847   3.977   6.447   3.323 -1.1529  0.0873 -1.7060
   39CHL1  H11B 2848   4.027   6.601   3.242 -2.5713 -0.7682 -0.6478
   39CHL1    C9 2849   4.168   6.445   3.195  0.3875 -0.3629 -0.2963
   39CHL1    H9 2850   4.234   6.531   3.174  2.4558 -1.8614 -0.1890
   39CHL1   C10 2851   4.119   6.385   3.065  0.0388  0.2468  0.5909
   39CHL1   C19 2852   4.005   6.286   3.099 -0.1178 -0.1877 -0.3770
   39CHL1  H19A 2853   3.922   6.342   3.149 -0.4232 -2.4667  1.8898
   39CHL1  H19B 2854   3.973   6.227   3.011 -0.9212 -0.3564  0.0174
   39CHL1  H19C 2855   4.047   6.204   3.161 -0.9476  0.5626  1.2549
   39CHL1    C1 2856   4.087   6.509   2.975  0.5514 -0.7538  0.8827
   39CHL1   H1A 2857   3.995   6.553   3.018 -0.6752 -1.1793 -1.1301
   39CHL1   H1B 2858   4.172   6.581   2.982 -1.1784  1.4518  0.1647
   39CHL1    C2 2859   4.039   6.465   2.837 -0.6066 -0.3302  0.7723
   39CHL1   H2A 2860   4.019   6.559   2.781 -1.7381 -0.2867  1.2291
   39CHL1   H2B 2861   3.947   6.408   2.860 -2.4751  2.2450  0.1883
   39CHL1   C20 2862   4.227   6.499   3.760 -0.2194  1.0000 -0.3850
   39CHL1   H20 2863   4.209   6.395   3.795 -0.3430  1.3977  0.7530
   39CHL1   C21 2864   4.096   6.579   3.761  0.1576  0.0836 -0.1812
   39CHL1  H21A 2865   4.021   6.517   3.708  0.7417 -2.2539  1.6083
   39CHL1  H21B 2866   4.111   6.677   3.710 -0.3775  0.4225  0.2937
   39CHL1  H21C 2867   4.058   6.593   3.864  1.4956 -2.6358  0.7754
   39CHL1   C22 2868   4.323   6.559   3.861 -0.3567  0.0606  0.0861
   39CHL1  H22A 2869   4.415   6.496   3.854  0.5692  1.5157 -1.8190
   39CHL1  H22B 2870   4.361   6.659   3.830  1.0432 -0.2536  0.6927
   39CHL1   C23 2871   4.265   6.577   3.993  0.2835  0.5548  0.0342
   39CHL1  H23A 2872   4.198   6.665   3.998 -0.4066  0.2964 -2.8771
   39CHL1  H23B 2873   4.204   6.491   4.029  1.1555  0.2991  0.9557
   39CHL1   C24 2874   4.380   6.590   4.097  0.6233  0.7477 -0.0007
   39CHL1  H24A 2875   4.439   6.496   4.090 -1.1631 -0.5190  0.8703
   39CHL1  H24B 2876   4.445   6.676   4.069  0.8540 -0.0009 -1.9733
   39CHL1   C25 2877   4.335   6.618   4.245  0.2720 -0.4934  0.0514
   39CHL1   H25 2878   4.241   6.676   4.234 -0.3941 -1.9414 -2.8755
   39CHL1   C26 2879   4.304   6.490   4.319 -0.8399  0.5284 -0.5809
   39CHL1  H26A 2880   4.270   6.494   4.425  3.1010 -1.9579  0.9801
   39CHL1  H26B 2881   4.216   6.440   4.273 -2.9360  1.7343  1.8397
   39CHL1  H26C 2882   4.390   6.422   4.334  0.6350  2.4426  0.0031
   39CHL1   C27 2883   4.450   6.687   4.318 -0.5629  0.3896  0.3874
   39CHL1  H27A 2884   4.450   6.788   4.271 -0.4308 -0.4962 -1.5920
   39CHL1  H27B 2885   4.425   6.705   4.425  1.0812  2.2497  0.5224
   39CHL1  H27C 2886   4.546   6.636   4.298 -0.6467  0.8453 -1.2817
   40CHL1    C3 2887   5.744   2.089   3.239 -0.4177  0.3559 -0.1666
   40CHL1    H3 2888   5.642   2.048   3.253  0.4469 -1.3752  1.5919
   40CHL1    O3 2889   5.783   2.064   3.100  0.0384  0.3016 -0.3097
   40CHL1   H3' 2890   5.704   2.071   3.045  0.9182  2.1250 -1.3945
   40CHL1    C4 2891   5.756   2.239   3.249  0.3113 -0.3081  0.3875
   40CHL1   H4A 2892   5.852   2.285   3.215 -0.9708  0.4761 -2.5093
   40CHL1   H4B 2893   5.679   2.279   3.179  0.5104 -0.3689  0.1292
   40CHL1    C5 2894   5.720   2.278   3.394  0.3794 -0.2702 -0.2000
   40CHL1    C6 2895   5.622   2.374   3.419  0.0286  0.2254  0.2648
   40CHL1    H6 2896   5.559   2.412   3.337 -3.3309 -1.5404  1.8383
   40CHL1    C7 2897   5.592   2.430   3.550  0.5251  0.4004 -0.5156
   40CHL1   H7A 2898   5.599   2.540   3.559  2.4850  0.2992 -0.4887
   40CHL1   H7B 2899   5.489   2.391   3.569  0.6281 -0.1062 -0.9530
   40CHL1    C8 2900   5.685   2.371   3.662  0.9582 -0.0801  0.4281
   40CHL1    H8 2901   5.776   2.436   3.663 -1.2795  3.4101 -1.0461
   40CHL1   C14 2902   5.622   2.379   3.800  0.0060  0.5706  0.3210
   40CHL1   H14 2903   5.545   2.299   3.799  0.2484  0.3344  0.3477
   40CHL1   C15 2904   5.535   2.508   3.824 -0.4610  0.1235 -0.2988
   40CHL1  H15A 2905   5.595   2.593   3.787 -1.6558  1.4496  0.6972
   40CHL1  H15B 2906   5.429   2.506   3.793 -0.1948 -1.5754 -1.2512
   40CHL1   C16 2907   5.547   2.517   3.982  0.4875 -0.6942  0.0092
   40CHL1  H16A 2908   5.614   2.605   3.996  2.0041 -1.8769  0.4671
   40CHL1  H16B 2909   5.445   2.528   4.023  0.5888  1.0081 -0.1039
   40CHL1   C17 2910   5.619   2.389   4.035  0.4528 -0.3548  0.4730
   40CHL1   H17 2911   5.541   2.311   4.019  0.6395 -0.5950  0.7256
   40CHL1   C13 2912   5.714   2.353   3.919  0.8560  0.0221 -0.2717
   40CHL1   C18 2913   5.837   2.454   3.924  0.4586 -0.5701  0.0241
   40CHL1  H18A 2914   5.915   2.433   3.848  0.1261 -0.6437 -0.2997
   40CHL1  H18B 2915   5.798   2.552   3.889  0.2729  0.0877  1.9863
   40CHL1  H18C 2916   5.883   2.463   4.024  1.6404 -0.3654 -0.5242
   40CHL1   C12 2917   5.762   2.205   3.904 -0.3265 -0.4742 -0.5672
   40CHL1  H12A 2918   5.842   2.163   3.968 -0.8092  0.9075  1.0210
   40CHL1  H12B 2919   5.676   2.139   3.927  0.9719 -0.9468  3.8627
   40CHL1   C11 2920   5.819   2.178   3.759 -0.3007  0.1201  0.0817
   40CHL1  H11A 2921   5.919   2.222   3.773  0.0146 -0.6195  0.2275
   40CHL1  H11B 2922   5.837   2.069   3.741 -0.0624  0.3888 -1.4417
   40CHL1    C9 2923   5.731   2.226   3.638  0.9081 -0.0175 -0.3705
   40CHL1    H9 2924   5.637   2.167   3.642  0.6084  0.4037 -0.9481
   40CHL1   C10 2925   5.800   2.207   3.503  0.3415  0.3963 -0.2773
   40CHL1   C19 2926   5.936   2.270   3.504 -0.2211  0.3237  0.1846
   40CHL1  H19A 2927   5.985   2.261   3.405  0.1595  0.2528  0.3787
   40CHL1  H19B 2928   5.926   2.377   3.529  0.8701  0.4080  0.3048
   40CHL1  H19C 2929   6.005   2.206   3.562  0.2271 -1.5413 -2.2406
   40CHL1    C1 2930   5.812   2.057   3.474 -0.1459  0.1546  0.5144
   40CHL1   H1A 2931   5.886   2.005   3.540  0.2795 -1.0749 -0.8757
   40CHL1   H1B 2932   5.715   2.008   3.497  0.3749 -1.7434 -1.0780
   40CHL1    C2 2933   5.851   2.018   3.329  0.1434  0.1384  0.5189
   40CHL1   H2A 2934   5.856   1.908   3.316 -1.6661  0.1695 -0.7577
   40CHL1   H2B 2935   5.949   2.064   3.306 -0.4425 -0.2902 -3.4623
   40CHL1   C20 2936   5.662   2.392   4.177  0.1481  0.0646  0.2292
   40CHL1   H20 2937   5.770   2.368   4.187 -0.0441 -0.6411  0.6886
   40CHL1   C21 2938   5.596   2.263   4.245  0.0448  0.0083 -0.2800
   40CHL1  H21A 2939   5.487   2.279   4.246 -0.4533 -2.8615  0.2175
   40CHL1  H21B 2940   5.637   2.253   4.348  1.8958  1.9924 -0.7339
   40CHL1  H21C 2941   5.606   2.171   4.184 -1.6132 -0.1050 -0.4197
   40CHL1   C22 2942   5.630   2.518   4.260 -0.5115 -0.4460  0.0551
   40CHL1  H22A 2943   5.667   2.605   4.201 -0.0189 -0.5714  0.1794
   40CHL1  H22B 2944   5.520   2.526   4.273 -0.9930  1.2420 -3.6564
   40CHL1   C23 2945   5.695   2.516   4.400 -0.3374 -0.4707  0.5246
   40CHL1  H23A 2946   5.656   2.422   4.443 -0.1326 -0.7432  0.1267
   40CHL1  H23B 2947   5.806   2.514   4.395 -0.2608  2.1442 -0.5012
   40CHL1   C24 2948   5.655   2.633   4.492  0.3857  0.1287 -0.3765
   40CHL1  H24A 2949   5.544   2.634   4.500  0.3338  1.3285 -1.0031
   40CHL1  H24B 2950   5.686   2.610   4.596 -1.6716 -0.3218  0.1813
   40CHL1   C25 2951   5.706   2.774   4.462 -0.3940 -0.2406  0.2783
   40CHL1   H25 2952   5.653   2.806   4.370 -3.0099 -2.5835  0.8416
   40CHL1   C26 2953   5.671   2.884   4.573 -0.3708 -0.4761 -0.1035
   40CHL1  H26A 2954   5.564   2.888   4.600 -0.3147 -1.1321  0.2402
   40CHL1  H26B 2955   5.726   2.850   4.664  0.8473 -1.9835 -1.3465
   40CHL1  H26C 2956   5.691   2.989   4.543 -2.0803 -0.1283 -0.1160
   40CHL1   C27 2957   5.859   2.783   4.432  0.0590 -0.4647 -0.4655
   40CHL1  H27A 2958   5.920   2.749   4.517  0.3567 -1.8144 -1.1926
   40CHL1  H27B 2959   5.877   2.705   4.355  0.5432 -3.6084  2.6413
   40CHL1  H27C 2960   5.895   2.882   4.396 -1.3825 -0.1791 -1.2417
   41CHL1    C3 2961   0.105   6.427   3.225 -0.0669  0.2828  0.0830
   41CHL1    H3 2962   0.129   6.320   3.207 -3.1582 -0.8503  1.9052
   41CHL1    O3 2963   0.143   6.510   3.121 -0.1879 -0.3230  0.8261
   41CHL1   H3' 2964   0.085   6.585   3.129  3.8871  3.2047  0.7969
   41CHL1    C4 2965  -0.047   6.434   3.231  0.4483 -0.0944 -0.9744
   41CHL1   H4A 2966  -0.081   6.540   3.230 -0.4167 -0.3100  1.2924
   41CHL1   H4B 2967  -0.080   6.385   3.137  2.1722 -1.6764 -0.8064
   41CHL1    C5 2968  -0.112   6.361   3.347  0.6870 -0.3020 -0.5941
   41CHL1    C6 2969  -0.191   6.259   3.326  0.0103  0.7032  0.1020
   41CHL1    H6 2970  -0.217   6.237   3.222 -0.4029  1.3053  0.0774
   41CHL1    C7 2971  -0.270   6.186   3.432 -0.0026 -1.0379  0.0456
   41CHL1   H7A 2972  -0.377   6.166   3.407  0.6473 -1.3643 -2.7884
   41CHL1   H7B 2973  -0.212   6.096   3.462 -0.9081 -1.8994 -0.7297
   41CHL1    C8 2974  -0.266   6.273   3.565  0.8902  0.1663  0.0330
   41CHL1    H8 2975  -0.336   6.360   3.561  1.1696  0.6182  2.7437
   41CHL1   C14 2976  -0.319   6.184   3.685  0.2722  0.0003 -0.6292
   41CHL1   H14 2977  -0.250   6.096   3.689 -0.0975 -0.2474  1.5968
   41CHL1   C15 2978  -0.466   6.128   3.676 -0.3999  0.0290 -0.2130
   41CHL1  H15A 2979  -0.524   6.210   3.628 -1.5762  0.2208  1.4420
   41CHL1  H15B 2980  -0.475   6.035   3.617 -1.7845 -0.2437  0.3866
   41CHL1   C16 2981  -0.499   6.099   3.821  0.0417  0.2589  0.4926
   41CHL1  H16A 2982  -0.589   6.159   3.847 -0.2056  0.8736 -1.5634
   41CHL1  H16B 2983  -0.505   5.990   3.844  1.6131  0.5372  2.4176
   41CHL1   C17 2984  -0.375   6.142   3.909 -0.7927 -0.2978  0.5851
   41CHL1   H17 2985  -0.314   6.050   3.920 -0.5820 -0.2380 -0.0537
   41CHL1   C13 2986  -0.306   6.249   3.821  0.1473  0.4798 -0.6650
   41CHL1   C18 2987  -0.394   6.377   3.834  1.1642  0.9306 -0.0773
   41CHL1  H18A 2988  -0.358   6.441   3.917 -1.5464  0.9350  1.2141
   41CHL1  H18B 2989  -0.386   6.444   3.745  1.5722 -2.0910 -2.5117
   41CHL1  H18C 2990  -0.502   6.352   3.845  1.1183  1.5663  1.0427
   41CHL1   C12 2991  -0.154   6.264   3.846  0.7204 -0.6494  0.3676
   41CHL1  H12A 2992  -0.141   6.315   3.944 -0.7283 -2.8682  1.7922
   41CHL1  H12B 2993  -0.095   6.170   3.850  0.8818 -0.6515 -1.3341
   41CHL1   C11 2994  -0.092   6.353   3.739 -0.4990 -0.3680  0.5262
   41CHL1  H11A 2995  -0.132   6.457   3.741  1.7083  0.5716 -0.6661
   41CHL1  H11B 2996   0.019   6.356   3.734 -0.5342  1.1487  0.2103
   41CHL1    C9 2997  -0.120   6.311   3.593  0.9972  0.8284 -0.6317
   41CHL1    H9 2998  -0.053   6.223   3.579  1.0566  1.0895 -2.1502
   41CHL1   C10 2999  -0.067   6.409   3.486  0.2056 -0.5851 -0.2276
   41CHL1   C19 3000  -0.131   6.545   3.504  0.4683 -0.4752 -0.0070
   41CHL1  H19A 3001  -0.079   6.594   3.589  0.4510  1.0680 -0.8425
   41CHL1  H19B 3002  -0.109   6.621   3.425 -0.7208 -0.1945 -0.0852
   41CHL1  H19C 3003  -0.235   6.528   3.537  1.7085 -1.6700  3.8042
   41CHL1    C1 3004   0.091   6.414   3.486 -0.9482  0.2671  0.0943
   41CHL1   H1A 3005   0.118   6.460   3.584 -0.4913 -1.4348  0.8012
   41CHL1   H1B 3006   0.137   6.313   3.488 -0.9994  0.2396 -0.1787
   41CHL1    C2 3007   0.150   6.487   3.362  0.6442  0.6560 -0.1157
   41CHL1   H2A 3008   0.258   6.464   3.368  0.8837  1.9809  1.4081
   41CHL1   H2B 3009   0.120   6.594   3.375 -1.0667  0.5077 -2.2253
   41CHL1   C20 3010  -0.405   6.186   4.055  0.0881  0.9949 -0.1256
   41CHL1   H20 3011  -0.433   6.293   4.059 -3.1922  0.2008  1.3727
   41CHL1   C21 3012  -0.282   6.153   4.139 -0.3752  0.0204  0.4120
   41CHL1  H21A 3013  -0.192   6.216   4.126  0.4191 -0.8920  1.3261
   41CHL1  H21B 3014  -0.248   6.047   4.131 -1.5607 -0.2782 -1.4693
   41CHL1  H21C 3015  -0.321   6.172   4.241  0.1755  1.0126  0.4467
   41CHL1   C22 3016  -0.525   6.112   4.114  0.2738  0.0884 -0.0055
   41CHL1  H22A 3017  -0.546   6.158   4.212 -1.6797  1.4077 -0.9688
   41CHL1  H22B 3018  -0.614   6.128   4.049  0.9293  0.2788 -0.8817
   41CHL1   C23 3019  -0.499   5.965   4.142 -0.0283 -1.6098  0.2154
   41CHL1  H23A 3020  -0.453   5.913   4.055  0.7307  0.7195 -0.8481
   41CHL1  H23B 3021  -0.431   5.954   4.230  1.2279  0.5685 -0.4238
   41CHL1   C24 3022  -0.626   5.896   4.192 -0.1490  0.5503 -0.2879
   41CHL1  H24A 3023  -0.666   5.950   4.281 -0.1780 -1.4670  0.9957
   41CHL1  H24B 3024  -0.711   5.895   4.120 -0.4463  2.1098  0.0161
   41CHL1   C25 3025  -0.619   5.740   4.232  0.7392  0.1329  0.3545
   41CHL1   H25 3026  -0.570   5.681   4.151 -1.0690  0.4191 -1.0052
   41CHL1   C26 3027  -0.543   5.713   4.365  0.1505 -0.0726 -0.2754
   41CHL1  H26A 3028  -0.577   5.784   4.444 -1.3559 -0.5273 -0.4823
   41CHL1  H26B 3029  -0.576   5.610   4.389 -1.3504  0.0432 -1.6959
   41CHL1  H26C 3030  -0.434   5.707   4.349 -0.1254  0.5883 -2.6624
   41CHL1   C27 3031  -0.761   5.677   4.240 -0.0811  0.4527 -0.3738
   41CHL1  H27A 3032  -0.838   5.722   4.306 -0.6267 -0.4566 -0.3768
   41CHL1  H27B 3033  -0.812   5.692   4.142 -1.4944  1.5401  0.4803
   41CHL1  H27C 3034  -0.754   5.567   4.257 -1.5808 -0.1279 -2.9960
   42CHL1    C3 3035   3.812   3.182   3.332  0.1919 -0.1591  0.1213
   42CHL1    H3 3036   3.797   3.292   3.336  0.7744  0.0783 -2.3483
   42CHL1    O3 3037   3.752   3.134   3.210 -0.1181  0.1398 -0.0024
   42CHL1   H3' 3038   3.776   3.043   3.195  0.2647  0.1571  0.4745
   42CHL1    C4 3039   3.963   3.155   3.336  0.3952 -0.5243 -0.1017
   42CHL1   H4A 3040   3.982   3.046   3.322  0.5505 -0.2691 -2.2008
   42CHL1   H4B 3041   4.001   3.206   3.245 -0.0537 -2.2119 -1.2697
   42CHL1    C5 3042   4.030   3.206   3.467 -0.4401  0.2375 -0.0409
   42CHL1    C6 3043   4.130   3.296   3.467  0.1849  0.1542  0.1392
   42CHL1    H6 3044   4.165   3.336   3.371  2.7764  0.0305  0.9599
   42CHL1    C7 3045   4.202   3.340   3.592  0.3615  0.5898 -0.0191
   42CHL1   H7A 3046   4.311   3.335   3.571 -0.1024  0.4303 -2.6415
   42CHL1   H7B 3047   4.184   3.449   3.607 -0.6344  0.4128  0.1392
   42CHL1    C8 3048   4.164   3.241   3.710  0.7243  0.2035  0.3486
   42CHL1    H8 3049   4.207   3.140   3.698 -2.2304 -1.3019  1.5499
   42CHL1   C14 3050   4.216   3.308   3.839 -0.0573 -0.7541 -0.6273
   42CHL1   H14 3051   4.139   3.388   3.848 -2.3967 -3.0639  2.2769
   42CHL1   C15 3052   4.365   3.362   3.855  0.2424  0.6560 -0.1248
   42CHL1  H15A 3053   4.431   3.295   3.796 -1.5644  0.6606 -2.2928
   42CHL1  H15B 3054   4.366   3.465   3.813  3.2013  1.0260  0.6439
   42CHL1   C16 3055   4.394   3.363   4.004 -0.1819 -0.2394 -0.4337
   42CHL1  H16A 3056   4.481   3.298   4.027 -1.3223 -1.2213  1.3080
   42CHL1  H16B 3057   4.425   3.467   4.028 -0.3225  1.0985 -5.0815
   42CHL1   C17 3058   4.267   3.315   4.078  0.2004 -0.0570 -0.2795
   42CHL1   H17 3059   4.200   3.403   4.085 -1.3038 -1.1855 -0.0215
   42CHL1   C13 3060   4.190   3.226   3.970 -0.3860  0.4720  0.4707
   42CHL1   C18 3061   4.272   3.095   3.954  0.5100  0.2598  0.2495
   42CHL1  H18A 3062   4.378   3.105   3.921  0.6158 -2.1585 -0.3476
   42CHL1  H18B 3063   4.266   3.034   4.048  0.8108 -0.6995 -0.3393
   42CHL1  H18C 3064   4.214   3.035   3.881 -1.4657  2.4600 -0.1021
   42CHL1   C12 3065   4.041   3.216   3.986  0.5014 -0.0937  0.5590
   42CHL1  H12A 3066   4.009   3.175   4.085  0.0457  1.2936  1.0163
   42CHL1  H12B 3067   4.002   3.320   3.984  1.0535  0.1797 -3.0518
   42CHL1   C11 3068   3.979   3.152   3.862  0.4915 -0.1076 -1.5097
   42CHL1  H11A 3069   4.007   3.044   3.868 -0.3596 -0.2480  1.3482
   42CHL1  H11B 3070   3.868   3.145   3.867  0.4503  0.3638 -1.7029
   42CHL1    C9 3071   4.013   3.217   3.722  0.2991  0.1032  0.4661
   42CHL1    H9 3072   3.963   3.315   3.734 -3.8771 -1.8401  0.5053
   42CHL1   C10 3073   3.959   3.145   3.595  0.4742  0.2997  0.5049
   42CHL1   C19 3074   3.987   2.994   3.615  0.4041 -0.0080 -0.2262
   42CHL1  H19A 3075   4.092   2.979   3.647  0.3344 -3.1655 -1.1219
   42CHL1  H19B 3076   3.926   2.953   3.698  0.5248 -1.1246 -0.6622
   42CHL1  H19C 3077   3.958   2.937   3.524 -1.3391  0.7827 -0.1952
   42CHL1    C1 3078   3.802   3.170   3.578 -0.0031 -0.1979  0.2523
   42CHL1   H1A 3079   3.753   3.131   3.670  0.5292  0.6891  0.9183
   42CHL1   H1B 3080   3.772   3.276   3.591 -0.1028 -0.1586 -0.2851
   42CHL1    C2 3081   3.737   3.123   3.447  0.0749 -0.2618  0.6830
   42CHL1   H2A 3082   3.629   3.147   3.445 -0.1520 -0.7169  3.3230
   42CHL1   H2B 3083   3.749   3.012   3.443  2.1230 -0.1328  1.6610
   42CHL1   C20 3084   4.283   3.236   4.214  0.2660 -0.2624 -0.3370
   42CHL1   H20 3085   4.198   3.165   4.211 -0.0378  0.0833  0.0516
   42CHL1   C21 3086   4.255   3.352   4.314 -0.1432 -0.1350 -0.5739
   42CHL1  H21A 3087   4.149   3.384   4.304  0.2902  1.9357  0.8438
   42CHL1  H21B 3088   4.319   3.441   4.300 -0.7061  0.6134  1.2616
   42CHL1  H21C 3089   4.263   3.318   4.420 -0.1587 -0.4908 -0.6832
   42CHL1   C22 3090   4.420   3.168   4.242  0.7255 -0.6809  0.0710
   42CHL1  H22A 3091   4.450   3.112   4.151  1.4525  0.6402 -0.5184
   42CHL1  H22B 3092   4.497   3.239   4.280  0.6463 -0.3438 -0.3924
   42CHL1   C23 3093   4.400   3.071   4.361 -0.2762  0.0738 -0.1664
   42CHL1  H23A 3094   4.352   3.129   4.443 -2.1803  0.5551 -1.5370
   42CHL1  H23B 3095   4.342   2.983   4.325 -0.1900 -0.0273 -0.0599
   42CHL1   C24 3096   4.546   3.028   4.403  0.7353  0.8143 -0.1227
   42CHL1  H24A 3097   4.595   2.968   4.322  0.8043  0.0643  0.4616
   42CHL1  H24B 3098   4.606   3.119   4.424 -0.5147  1.3502  1.2672
   42CHL1   C25 3099   4.546   2.927   4.524  0.6013  0.6992  0.1136
   42CHL1   H25 3100   4.480   2.848   4.483 -0.2411  2.2675 -1.7270
   42CHL1   C26 3101   4.686   2.857   4.545  0.3021  0.3514  0.3463
   42CHL1  H26A 3102   4.710   2.808   4.448 -1.5477  1.1995 -0.5986
   42CHL1  H26B 3103   4.764   2.928   4.579  1.9440 -0.6004 -1.2367
   42CHL1  H26C 3104   4.683   2.778   4.623  2.0620 -0.7583 -0.6312
   42CHL1   C27 3105   4.484   2.974   4.652  0.1460 -0.2889 -0.2004
   42CHL1  H27A 3106   4.549   3.046   4.707  0.4866  0.6352 -1.7611
   42CHL1  H27B 3107   4.394   3.032   4.622  0.2120 -0.5899 -1.0002
   42CHL1  H27C 3108   4.449   2.903   4.730 -1.3172  1.4393  0.8042
   43CHL1    C3 3109   4.110   3.560   6.235  0.1567  0.3180 -0.2895
   43CHL1    H3 3110   4.147   3.656   6.193 -0.4073 -0.4699 -2.7788
   43CHL1    O3 3111   4.097   3.577   6.379  0.4920  0.4838 -0.2023
   43CHL1   H3' 3112   4.004   3.559   6.392  0.7886 -0.6097  0.5605
   43CHL1    C4 3113   3.975   3.532   6.167  0.5337  1.1064 -0.3492
   43CHL1   H4A 3114   3.939   3.436   6.208  1.5925  0.8211 -0.0503
   43CHL1   H4B 3115   3.894   3.599   6.202 -0.9942 -2.2274  3.1070
   43CHL1    C5 3116   3.981   3.530   6.019  0.4808  0.8633  0.1068
   43CHL1    C6 3117   3.905   3.614   5.938  0.0166  0.1495  0.6052
   43CHL1    H6 3118   3.818   3.673   5.966 -1.9087 -2.3220  0.2263
   43CHL1    C7 3119   3.925   3.613   5.795  0.0884  0.5011  0.6636
   43CHL1   H7A 3120   3.823   3.621   5.752  0.0032 -1.1265  0.5024
   43CHL1   H7B 3121   3.983   3.703   5.766  1.7447 -0.7721 -0.1281
   43CHL1    C8 3122   3.999   3.491   5.737 -0.2437  0.5384  0.4669
   43CHL1    H8 3123   3.927   3.408   5.725 -1.3673  1.3338  1.5250
   43CHL1   C14 3124   4.048   3.520   5.591 -0.1975  0.3607 -0.2713
   43CHL1   H14 3125   4.102   3.617   5.595 -0.2483  0.3590  2.9496
   43CHL1   C15 3126   3.938   3.556   5.484  0.4996  0.0657  0.0814
   43CHL1  H15A 3127   3.850   3.491   5.502  0.3901  0.7549  2.3263
   43CHL1  H15B 3128   3.893   3.657   5.494 -1.2551 -0.5359 -1.3881
   43CHL1   C16 3129   3.997   3.528   5.346 -0.9651 -0.2939 -0.1984
   43CHL1  H16A 3130   3.923   3.460   5.298 -0.8054  0.1405 -1.0807
   43CHL1  H16B 3131   4.015   3.623   5.291 -0.2696 -0.8295 -0.9137
   43CHL1   C17 3132   4.137   3.463   5.387  0.0147  0.4709 -0.8257
   43CHL1   H17 3133   4.203   3.550   5.407  0.6297 -0.2444  0.3840
   43CHL1   C13 3134   4.128   3.407   5.528  0.3486  0.2586 -0.3483
   43CHL1   C18 3135   4.047   3.273   5.518  0.0663 -0.6760  0.1220
   43CHL1  H18A 3136   3.957   3.285   5.455  0.8119  0.4927 -0.7771
   43CHL1  H18B 3137   4.115   3.204   5.463  0.6839  0.3568 -0.4333
   43CHL1  H18C 3138   4.021   3.224   5.614 -0.3997  0.5235  0.6274
   43CHL1   C12 3139   4.247   3.389   5.604 -0.7551 -0.1255  1.0156
   43CHL1  H12A 3140   4.310   3.308   5.562 -1.0001  1.2494 -2.3420
   43CHL1  H12B 3141   4.317   3.475   5.601  0.3328 -1.0029  0.1856
   43CHL1   C11 3142   4.215   3.356   5.749  0.3496  0.1698  0.0554
   43CHL1  H11A 3143   4.166   3.256   5.750  1.4916 -0.4178 -0.1716
   43CHL1  H11B 3144   4.311   3.356   5.806  1.2204  0.9218 -1.3627
   43CHL1    C9 3145   4.123   3.460   5.820  0.7467 -0.4929  0.0576
   43CHL1    H9 3146   4.179   3.556   5.819  0.2301 -0.1138 -3.4962
   43CHL1   C10 3147   4.093   3.433   5.966  0.1713 -0.2769 -0.3228
   43CHL1   C19 3148   4.022   3.293   5.978  0.5758 -0.0116 -0.7840
   43CHL1  H19A 3149   4.008   3.265   6.085  1.5442  1.1449 -0.3455
   43CHL1  H19B 3150   3.921   3.289   5.930 -0.9504  1.2636  2.1068
   43CHL1  H19C 3151   4.095   3.216   5.945  0.9792  0.7177 -1.6409
   43CHL1    C1 3152   4.224   3.436   6.044 -0.2582  0.4025  0.4726
   43CHL1   H1A 3153   4.264   3.333   6.034 -2.5885 -0.5699  0.5000
   43CHL1   H1B 3154   4.295   3.513   6.006 -1.2219  1.2400  0.3096
   43CHL1    C2 3155   4.204   3.445   6.196  0.1915 -0.4971  0.0067
   43CHL1   H2A 3156   4.298   3.462   6.252 -0.9742 -2.6678  2.9264
   43CHL1   H2B 3157   4.153   3.349   6.219  0.6944 -1.4442 -2.5023
   43CHL1   C20 3158   4.214   3.381   5.287  0.3385 -0.2124  0.4724
   43CHL1   H20 3159   4.275   3.307   5.344 -2.0151 -2.5609  0.1273
   43CHL1   C21 3160   4.289   3.483   5.200  0.1757 -0.0418  0.2709
   43CHL1  H21A 3161   4.360   3.546   5.257  0.2845  0.1513 -0.0810
   43CHL1  H21B 3162   4.211   3.548   5.155  0.4202 -0.7971 -1.3135
   43CHL1  H21C 3163   4.346   3.435   5.118 -1.7150 -0.3205 -0.9535
   43CHL1   C22 3164   4.116   3.307   5.192  0.0861  0.5698 -0.2503
   43CHL1  H22A 3165   4.044   3.250   5.254  1.0770  0.0151  0.4254
   43CHL1  H22B 3166   4.071   3.368   5.110 -2.0645 -0.9479 -0.2784
   43CHL1   C23 3167   4.195   3.196   5.113  0.1750  0.2580 -0.5129
   43CHL1  H23A 3168   4.260   3.246   5.038  0.1017  1.9575  0.5015
   43CHL1  H23B 3169   4.252   3.138   5.188 -2.1503  1.4132  2.3651
   43CHL1   C24 3170   4.086   3.106   5.053  0.0537 -0.3058  0.0354
   43CHL1  H24A 3171   4.023   3.063   5.133 -0.2604  0.6933  0.3420
   43CHL1  H24B 3172   4.019   3.175   4.997  0.6718 -0.5331 -1.0238
   43CHL1   C25 3173   4.123   2.984   4.973 -0.4928  0.2002 -0.0342
   43CHL1   H25 3174   4.194   2.925   5.036  0.2676  0.3866 -0.6971
   43CHL1   C26 3175   3.995   2.891   4.953  0.0563  0.2656 -0.1621
   43CHL1  H26A 3176   3.916   2.936   4.889 -1.7612 -3.1917 -0.6151
   43CHL1  H26B 3177   4.043   2.806   4.899 -0.5325 -1.0229  1.2708
   43CHL1  H26C 3178   3.940   2.852   5.041 -0.7498  2.1696  0.2215
   43CHL1   C27 3179   4.180   3.010   4.841  0.0022 -0.4396 -0.4618
   43CHL1  H27A 3180   4.108   3.060   4.773 -1.5855 -1.2849  0.5258
   43CHL1  H27B 3181   4.277   3.064   4.849  0.3199 -0.7231 -2.0770
   43CHL1  H27C 3182   4.204   2.917   4.786 -2.1255 -1.3198  0.0006
   44CHL1    C3 3183   4.491   0.015   2.998 -0.0393  0.1085 -0.0935
   44CHL1    H3 3184   4.401   0.079   3.011 -1.4037 -1.7865  0.2412
   44CHL1    O3 3185   4.500  -0.032   2.858  0.6252 -0.1232  0.0702
   44CHL1   H3' 3186   4.585  -0.075   2.852  1.9575  2.3313  0.0223
   44CHL1    C4 3187   4.623   0.082   3.041  0.3894  0.0184 -0.9001
   44CHL1   H4A 3188   4.709   0.018   3.012  1.1676  1.2424 -1.3641
   44CHL1   H4B 3189   4.627   0.174   2.977 -1.3417  0.7198 -0.0775
   44CHL1    C5 3190   4.611   0.112   3.192  0.4308  0.0147 -0.0529
   44CHL1    C6 3191   4.607   0.237   3.242  0.0639  0.0937  0.6088
   44CHL1    H6 3192   4.630   0.314   3.167  0.3959  0.4696  1.0894
   44CHL1    C7 3193   4.613   0.275   3.383 -0.0355 -0.2967 -0.3967
   44CHL1   H7A 3194   4.680   0.359   3.410  1.4367 -1.6559  0.3269
   44CHL1   H7B 3195   4.511   0.312   3.409  0.6257  0.3745  1.3709
   44CHL1    C8 3196   4.635   0.155   3.480  0.3898 -0.1688 -0.0271
   44CHL1    H8 3197   4.742   0.125   3.478  1.1766  2.3037  0.6578
   44CHL1   C14 3198   4.610   0.190   3.620 -0.1876  0.7327 -0.6900
   44CHL1   H14 3199   4.501   0.209   3.616 -0.1109  1.1770 -0.7266
   44CHL1   C15 3200   4.686   0.312   3.677 -0.0226 -0.7213 -0.0903
   44CHL1  H15A 3201   4.793   0.308   3.646  0.3618  1.3616  0.7802
   44CHL1  H15B 3202   4.645   0.412   3.654  0.7175 -0.5067 -0.5125
   44CHL1   C16 3203   4.686   0.299   3.826 -0.4161  0.2921 -0.1536
   44CHL1  H16A 3204   4.787   0.303   3.871 -0.6779 -0.2909  0.5088
   44CHL1  H16B 3205   4.625   0.376   3.878 -4.0051 -0.8805 -2.2213
   44CHL1   C17 3206   4.622   0.157   3.862 -0.3458 -0.0040 -0.6073
   44CHL1   H17 3207   4.514   0.174   3.882 -0.2756 -0.0926 -0.1405
   44CHL1   C13 3208   4.633   0.075   3.727  0.6592 -0.2521 -0.5081
   44CHL1   C18 3209   4.773   0.022   3.715 -0.1723  0.0979 -0.0097
   44CHL1  H18A 3210   4.851   0.099   3.733  1.0783 -1.2924  0.8268
   44CHL1  H18B 3211   4.797  -0.069   3.774 -1.0143 -1.0582 -1.3887
   44CHL1  H18C 3212   4.799  -0.006   3.610 -0.1391  1.1035 -0.2808
   44CHL1   C12 3213   4.532  -0.028   3.692  0.1809  0.2051 -0.2391
   44CHL1  H12A 3214   4.552  -0.115   3.759 -0.2208  0.1108 -0.2337
   44CHL1  H12B 3215   4.424  -0.002   3.699 -0.0889 -1.0340  0.4990
   44CHL1   C11 3216   4.549  -0.081   3.544 -0.3456 -0.6176 -0.3964
   44CHL1  H11A 3217   4.635  -0.151   3.537  0.8277  0.6792  0.5323
   44CHL1  H11B 3218   4.464  -0.144   3.512 -1.4364  0.9484 -0.6742
   44CHL1    C9 3219   4.545   0.036   3.434 -0.5065  0.5077  0.6306
   44CHL1    H9 3220   4.439   0.068   3.430 -2.5599 -5.2116 -2.8389
   44CHL1   C10 3221   4.586  -0.007   3.284 -0.0058  0.1550  0.0682
   44CHL1   C19 3222   4.725  -0.078   3.291  0.5984 -0.4581  0.3251
   44CHL1  H19A 3223   4.722  -0.168   3.357  0.4816 -0.4670  0.3088
   44CHL1  H19B 3224   4.755  -0.114   3.191  0.8100 -0.3474  0.3496
   44CHL1  H19C 3225   4.800  -0.011   3.338 -0.5331 -0.9870  3.1333
   44CHL1    C1 3226   4.468  -0.098   3.231 -0.5826 -0.0519  0.3657
   44CHL1   H1A 3227   4.456  -0.193   3.288 -0.6738  0.9570  2.1009
   44CHL1   H1B 3228   4.375  -0.039   3.248 -1.2043 -0.2890 -1.9011
   44CHL1    C2 3229   4.470  -0.113   3.079 -0.2005  0.2849 -0.7367
   44CHL1   H2A 3230   4.376  -0.164   3.052 -0.2074 -0.9498  1.3758
   44CHL1   H2B 3231   4.556  -0.181   3.060  0.6564  0.7173  1.3457
   44CHL1   C20 3232   4.690   0.105   3.990  0.1457 -0.4732  0.8131
   44CHL1   H20 3233   4.800   0.097   3.974  0.0875 -3.5985  1.3148
   44CHL1   C21 3234   4.647  -0.043   4.017 -0.1549 -0.1052 -0.4614
   44CHL1  H21A 3235   4.671  -0.099   3.924  0.0786 -0.7196 -0.0413
   44CHL1  H21B 3236   4.539  -0.065   4.033 -0.3015 -1.2083 -2.6366
   44CHL1  H21C 3237   4.705  -0.082   4.104 -1.7713 -0.5189  0.4755
   44CHL1   C22 3238   4.668   0.196   4.116  0.0888 -0.1041  0.3499
   44CHL1  H22A 3239   4.632   0.296   4.085  0.4045  0.9029  2.9546
   44CHL1  H22B 3240   4.596   0.140   4.181  0.8886 -2.6680 -0.8256
   44CHL1   C23 3241   4.808   0.221   4.190 -0.1542 -0.9441 -0.1562
   44CHL1  H23A 3242   4.845   0.132   4.244  0.7200  0.5216  1.7985
   44CHL1  H23B 3243   4.884   0.241   4.112  0.4270  0.1314  0.6616
   44CHL1   C24 3244   4.817   0.349   4.278 -0.4663  0.0607 -0.0810
   44CHL1  H24A 3245   4.815   0.444   4.221 -0.5252  0.5987  0.7855
   44CHL1  H24B 3246   4.730   0.345   4.348 -1.9587  0.2750 -1.8503
   44CHL1   C25 3247   4.933   0.345   4.381  0.4528 -0.1276  0.1745
   44CHL1   H25 3248   5.025   0.320   4.323  1.0020 -0.9289  1.3499
   44CHL1   C26 3249   4.936   0.485   4.443  0.2542  0.8654  0.3239
   44CHL1  H26A 3250   5.013   0.495   4.522  2.2639 -0.3668 -1.3669
   44CHL1  H26B 3251   4.945   0.561   4.362 -1.3442 -0.5954 -1.3264
   44CHL1  H26C 3252   4.838   0.501   4.492 -0.7668  0.0118 -1.3631
   44CHL1   C27 3253   4.916   0.255   4.503 -1.1666 -0.3473 -0.5989
   44CHL1  H27A 3254   4.971   0.295   4.591 -2.0190  2.4455 -1.2548
   44CHL1  H27B 3255   4.807   0.263   4.525 -1.3703 -1.2364 -1.2220
   44CHL1  H27C 3256   4.930   0.146   4.489  2.1459 -0.3183  1.3492
   45CHL1    C3 3257   4.307   1.043   3.081  0.2664  0.5559 -0.1021
   45CHL1    H3 3258   4.364   0.948   3.088 -0.7281  0.0458  1.5734
   45CHL1    O3 3259   4.244   1.025   2.959 -0.1202  0.6178 -0.1680
   45CHL1   H3' 3260   4.233   1.109   2.913  1.1185  0.3564 -0.9984
   45CHL1    C4 3261   4.201   1.037   3.192 -0.1928 -0.5264  0.4140
   45CHL1   H4A 3262   4.111   1.092   3.155 -0.5157 -1.2886  0.0416
   45CHL1   H4B 3263   4.161   0.934   3.185 -1.0582 -0.4367  3.0652
   45CHL1    C5 3264   4.255   1.076   3.329 -0.2705 -0.1075 -0.0817
   45CHL1    C6 3265   4.240   0.991   3.430 -0.0837 -0.0162  0.3064
   45CHL1    H6 3266   4.186   0.897   3.411 -1.4701  1.0215 -1.0680
   45CHL1    C7 3267   4.303   1.008   3.573  0.7440  0.3127 -0.1444
   45CHL1   H7A 3268   4.230   0.976   3.650  0.2476  1.9866  0.1138
   45CHL1   H7B 3269   4.392   0.941   3.579  0.3307 -0.3383 -0.9489
   45CHL1    C8 3270   4.333   1.159   3.590  0.0552 -0.1155  0.4811
   45CHL1    H8 3271   4.236   1.213   3.596 -0.3616 -0.9995  3.6310
   45CHL1   C14 3272   4.411   1.185   3.726  0.4483  0.2120 -0.3219
   45CHL1   H14 3273   4.508   1.135   3.706 -1.0403 -3.4152  0.7301
   45CHL1   C15 3274   4.353   1.119   3.855 -0.4093  0.4245  0.8392
   45CHL1  H15A 3275   4.244   1.135   3.869 -1.0581 -0.4665 -2.4117
   45CHL1  H15B 3276   4.361   1.008   3.850 -4.3869  0.0478 -2.9160
   45CHL1   C16 3277   4.443   1.185   3.968 -0.5558  0.6919  0.2175
   45CHL1  H16A 3278   4.373   1.219   4.047 -1.1578  2.0955 -0.8708
   45CHL1  H16B 3279   4.522   1.112   3.995  1.9350  2.9588 -0.4871
   45CHL1   C17 3280   4.512   1.310   3.900 -0.3098  0.9242  0.1501
   45CHL1   H17 3281   4.612   1.279   3.862 -1.6710 -2.2270 -1.2038
   45CHL1   C13 3282   4.440   1.327   3.768 -0.1384 -0.3381 -0.5407
   45CHL1   C18 3283   4.308   1.399   3.785 -0.3013 -0.0274 -0.6959
   45CHL1  H18A 3284   4.328   1.506   3.811 -0.1857  0.0684 -1.1710
   45CHL1  H18B 3285   4.241   1.398   3.696  0.4872 -1.7550 -1.3069
   45CHL1  H18C 3286   4.249   1.351   3.866  0.5817 -1.0538 -0.6525
   45CHL1   C12 3287   4.518   1.386   3.651 -1.0158 -0.2892  0.3352
   45CHL1  H12A 3288   4.519   1.497   3.663 -0.0350  0.0272 -2.0774
   45CHL1  H12B 3289   4.621   1.344   3.660 -1.0740 -0.2839  1.0353
   45CHL1   C11 3290   4.467   1.363   3.510 -0.1499  0.1577  0.3214
   45CHL1  H11A 3291   4.381   1.432   3.526  1.4533  2.2922  0.2605
   45CHL1  H11B 3292   4.533   1.397   3.427 -2.0717 -0.4271 -1.5373
   45CHL1    C9 3293   4.417   1.220   3.480  0.5889 -0.3650  0.3351
   45CHL1    H9 3294   4.511   1.161   3.477 -0.3950 -2.0270 -2.9534
   45CHL1   C10 3295   4.344   1.201   3.341 -0.1789  0.0507 -0.5096
   45CHL1   C19 3296   4.242   1.320   3.314  0.1755  0.7825  0.0289
   45CHL1  H19A 3297   4.300   1.411   3.287  1.1976  0.5967  1.4110
   45CHL1  H19B 3298   4.178   1.296   3.227 -0.4894  0.1603  0.6827
   45CHL1  H19C 3299   4.169   1.340   3.395 -0.5541  1.7147 -0.8295
   45CHL1    C1 3300   4.460   1.195   3.234  0.0606 -0.4505  0.6948
   45CHL1   H1A 3301   4.510   1.294   3.225 -1.1245  0.1318  0.2220
   45CHL1   H1B 3302   4.539   1.119   3.250  0.3907 -1.1035 -3.1631
   45CHL1    C2 3303   4.399   1.164   3.093 -0.0899 -0.3412  0.3217
   45CHL1   H2A 3304   4.486   1.145   3.027  0.4598  0.2145  0.8677
   45CHL1   H2B 3305   4.344   1.247   3.045  0.7049  0.3854  0.6277
   45CHL1   C20 3306   4.532   1.434   3.989 -0.2112  0.3515  0.6096
   45CHL1   H20 3307   4.429   1.449   4.026 -0.3702 -0.3858  0.4692
   45CHL1   C21 3308   4.573   1.558   3.913  0.1215 -0.1311 -0.1880
   45CHL1  H21A 3309   4.607   1.631   3.990  2.0890 -0.5807 -0.5805
   45CHL1  H21B 3310   4.490   1.615   3.866 -1.1947 -1.9817 -0.2037
   45CHL1  H21C 3311   4.660   1.543   3.847 -0.0448 -0.0633 -0.4242
   45CHL1   C22 3312   4.633   1.395   4.105  0.2479  0.4809  0.3825
   45CHL1  H22A 3313   4.609   1.297   4.152  3.5675 -1.3890 -1.3835
   45CHL1  H22B 3314   4.736   1.402   4.063  0.7864  1.1556  1.7691
   45CHL1   C23 3315   4.645   1.486   4.227 -0.3599 -0.5887 -0.5731
   45CHL1  H23A 3316   4.729   1.449   4.290  0.3125  1.1870 -0.3823
   45CHL1  H23B 3317   4.669   1.588   4.192  0.0528 -0.2740  0.5709
   45CHL1   C24 3318   4.517   1.480   4.313  0.4168 -0.0141  0.6857
   45CHL1  H24A 3319   4.432   1.503   4.245  0.8036 -3.3119 -1.1108
   45CHL1  H24B 3320   4.500   1.381   4.360  2.3801 -0.6385  0.1968
   45CHL1   C25 3321   4.523   1.577   4.429  0.0430 -0.2677 -0.7301
   45CHL1   H25 3322   4.426   1.576   4.483  0.0857  3.0165 -0.3848
   45CHL1   C26 3323   4.624   1.532   4.538 -0.5223 -0.0479  0.7611
   45CHL1  H26A 3324   4.609   1.428   4.572  0.8183 -0.8438 -0.9438
   45CHL1  H26B 3325   4.728   1.540   4.499 -0.8413  0.1044 -0.0626
   45CHL1  H26C 3326   4.619   1.607   4.621  0.5960  0.9159 -0.0032
   45CHL1   C27 3327   4.547   1.724   4.390 -0.0026 -0.0595  0.2688
   45CHL1  H27A 3328   4.470   1.751   4.314 -1.4091  0.2354  1.7315
   45CHL1  H27B 3329   4.534   1.792   4.477  0.5830  0.4988 -0.0718
   45CHL1  H27C 3330   4.655   1.722   4.363  0.0918 -1.6327  0.6843
   46CHL1    C3 3331   1.176   0.811   3.879  0.1684  0.4044 -0.1117
   46CHL1    H3 3332   1.122   0.715   3.867  0.3368  0.0462  1.6607
   46CHL1    O3 3333   1.165   0.874   3.752 -0.0475 -0.1166  0.2546
   46CHL1   H3' 3334   1.082   0.839   3.719  0.1699 -1.4952  1.0606
   46CHL1    C4 3335   1.094   0.895   3.978 -0.2232  0.7061 -0.0266
   46CHL1   H4A 3336   1.139   0.997   3.973 -0.0094  0.5865 -0.7724
   46CHL1   H4B 3337   0.990   0.913   3.942 -0.1207  2.8848  0.6047
   46CHL1    C5 3338   1.106   0.825   4.116 -0.2097 -0.7085  0.3871
   46CHL1    C6 3339   0.995   0.811   4.187  0.0846 -0.6846  0.2092
   46CHL1    H6 3340   0.905   0.832   4.126 -0.4004 -2.6616  0.1699
   46CHL1    C7 3341   0.997   0.760   4.332  0.5232  0.6157  0.3143
   46CHL1   H7A 3342   0.936   0.822   4.401 -2.5439 -1.7048 -0.0613
   46CHL1   H7B 3343   0.952   0.658   4.332  2.5154 -0.3344 -1.5700
   46CHL1    C8 3344   1.135   0.755   4.401  0.1323 -0.4806 -0.1881
   46CHL1    H8 3345   1.149   0.863   4.423 -1.7316 -0.5277  1.4460
   46CHL1   C14 3346   1.132   0.667   4.526  0.0335 -0.2739 -0.3208
   46CHL1   H14 3347   1.113   0.562   4.496 -1.0834 -0.2475  0.2450
   46CHL1   C15 3348   1.028   0.695   4.641 -0.3271 -0.0747 -0.0314
   46CHL1  H15A 3349   1.027   0.806   4.642  3.4115  0.1390 -2.3376
   46CHL1  H15B 3350   0.923   0.661   4.623 -0.7721  1.4404 -0.3867
   46CHL1   C16 3351   1.082   0.629   4.764  0.9798  0.1297  0.4294
   46CHL1  H16A 3352   1.075   0.697   4.852  0.0984  0.5788  0.0250
   46CHL1  H16B 3353   1.019   0.543   4.793 -0.4198  1.1374  0.5238
   46CHL1   C17 3354   1.222   0.591   4.729 -0.2010  0.0348  0.4606
   46CHL1   H17 3355   1.221   0.486   4.692 -0.9990  0.1218  0.2213
   46CHL1   C13 3356   1.262   0.674   4.601 -0.4241  0.2123 -0.0041
   46CHL1   C18 3357   1.298   0.814   4.648  0.3120 -0.5402  0.0259
   46CHL1  H18A 3358   1.234   0.852   4.730 -1.9125 -0.3523 -1.6950
   46CHL1  H18B 3359   1.403   0.812   4.682  0.3710 -1.4940 -0.1822
   46CHL1  H18C 3360   1.292   0.888   4.565 -0.6611 -0.0295  0.5401
   46CHL1   C12 3361   1.375   0.615   4.509  0.3577  0.4642 -0.7615
   46CHL1  H12A 3362   1.473   0.636   4.557 -1.0097 -0.4625  2.7298
   46CHL1  H12B 3363   1.349   0.508   4.500 -2.6961  1.1602 -1.0802
   46CHL1   C11 3364   1.372   0.678   4.371  0.7835  0.0842  0.4102
   46CHL1  H11A 3365   1.420   0.777   4.388 -0.4433  0.5013  1.5884
   46CHL1  H11B 3366   1.430   0.612   4.302 -0.4189  0.3546 -0.9050
   46CHL1    C9 3367   1.238   0.706   4.300  0.4443 -0.4406 -0.5471
   46CHL1    H9 3368   1.215   0.603   4.265 -1.2666  0.1957 -1.3987
   46CHL1   C10 3369   1.251   0.789   4.171  0.2768  0.2845  0.1677
   46CHL1   C19 3370   1.317   0.929   4.197 -0.0226  0.1714 -1.0653
   46CHL1  H19A 3371   1.421   0.901   4.222 -0.1836 -0.1999 -0.7862
   46CHL1  H19B 3372   1.327   0.994   4.108  0.8973 -0.8434 -1.7380
   46CHL1  H19C 3373   1.274   0.981   4.284  1.5966 -2.0532  1.2160
   46CHL1    C1 3374   1.314   0.702   4.059  0.2963  0.1064 -0.5388
   46CHL1   H1A 3375   1.412   0.658   4.088  1.0371  1.0340 -1.5396
   46CHL1   H1B 3376   1.252   0.611   4.039  0.6135  0.0367 -1.2621
   46CHL1    C2 3377   1.320   0.782   3.926  0.9634  0.5845 -0.2061
   46CHL1   H2A 3378   1.350   0.711   3.846 -0.8430  1.5174 -1.7853
   46CHL1   H2B 3379   1.389   0.869   3.928  1.3309  0.3387  2.9180
   46CHL1   C20 3380   1.317   0.582   4.850 -0.2989 -0.2491  0.8480
   46CHL1   H20 3381   1.355   0.679   4.887  2.5771 -0.9072 -0.1342
   46CHL1   C21 3382   1.457   0.526   4.804 -0.1193 -0.2025  0.1771
   46CHL1  H21A 3383   1.523   0.597   4.750 -0.0276  0.6524  1.3808
   46CHL1  H21B 3384   1.435   0.440   4.737 -1.0560 -1.5103  2.0632
   46CHL1  H21C 3385   1.521   0.493   4.888  1.8112 -0.1558 -1.1965
   46CHL1   C22 3386   1.255   0.507   4.967  0.7320 -0.6991  0.5190
   46CHL1  H22A 3387   1.333   0.504   5.046  1.3410  1.6096  0.0717
   46CHL1  H22B 3388   1.164   0.559   5.003 -0.1112  0.7798 -3.2715
   46CHL1   C23 3389   1.215   0.363   4.926  0.1655  0.1589 -0.1167
   46CHL1  H23A 3390   1.114   0.369   4.880  0.0960 -1.4973 -0.2453
   46CHL1  H23B 3391   1.290   0.329   4.851 -1.3656  0.7050 -1.9691
   46CHL1   C24 3392   1.209   0.268   5.051  0.8283  0.3106 -0.4649
   46CHL1  H24A 3393   1.309   0.249   5.094  0.8126 -0.7267 -0.8631
   46CHL1  H24B 3394   1.151   0.316   5.133  1.0504  0.5954 -0.4721
   46CHL1   C25 3395   1.139   0.123   5.031  0.4040 -0.4190  0.6668
   46CHL1   H25 3396   1.030   0.140   5.014 -0.1162 -1.4546  2.5787
   46CHL1   C26 3397   1.199   0.035   4.912 -0.7695 -0.2571 -0.4405
   46CHL1  H26A 3398   1.170   0.081   4.815  0.8967 -1.6147 -1.6578
   46CHL1  H26B 3399   1.310   0.040   4.924 -0.9213  0.0092  1.0665
   46CHL1  H26C 3400   1.181  -0.075   4.919  3.0205 -0.9881  0.4069
   46CHL1   C27 3401   1.156   0.047   5.162  0.4162 -0.2107  0.4683
   46CHL1  H27A 3402   1.103   0.097   5.246  1.0677 -1.0366  1.3971
   46CHL1  H27B 3403   1.104  -0.050   5.150 -2.0664  1.0590  0.2862
   46CHL1  H27C 3404   1.263   0.041   5.192  0.9068 -0.1058 -1.1708
   47CHL1    C3 3405   6.017   1.208   3.260  0.2422  0.6115  0.0594
   47CHL1    H3 3406   5.930   1.145   3.290 -0.2004  2.2310  2.3921
   47CHL1    O3 3407   6.016   1.229   3.121 -0.0232  0.0913 -0.2071
   47CHL1   H3' 3408   6.070   1.308   3.113 -0.1893  0.2001 -0.2612
   47CHL1    C4 3409   5.989   1.344   3.328  0.1833  0.2014  0.0243
   47CHL1   H4A 3410   6.072   1.407   3.288  1.0787 -1.4106 -0.7869
   47CHL1   H4B 3411   5.891   1.381   3.293  1.1753  1.0337 -2.0627
   47CHL1    C5 3412   5.986   1.337   3.482  0.6563 -0.1103 -0.1432
   47CHL1    C6 3413   5.874   1.380   3.558  0.5140 -0.1240 -0.0723
   47CHL1    H6 3414   5.787   1.422   3.506  0.6476 -0.2337 -0.3863
   47CHL1    C7 3415   5.872   1.373   3.706 -1.1731 -0.0101 -0.5754
   47CHL1   H7A 3416   5.822   1.462   3.751  2.2328  1.7125  0.0975
   47CHL1   H7B 3417   5.817   1.278   3.728  0.3042 -0.8897 -0.5244
   47CHL1    C8 3418   6.016   1.364   3.765 -0.1168 -0.3213 -0.3874
   47CHL1    H8 3419   6.059   1.465   3.748 -0.0240 -0.5860 -1.9042
   47CHL1   C14 3420   6.002   1.339   3.917 -0.5212  0.3530  0.4235
   47CHL1   H14 3421   5.957   1.238   3.927  0.0695  0.1173  0.7302
   47CHL1   C15 3422   5.921   1.445   3.995 -0.4058 -0.1560  0.3935
   47CHL1  H15A 3423   5.922   1.549   3.954  2.8484 -0.6753 -1.1948
   47CHL1  H15B 3424   5.814   1.414   3.998  0.0632 -1.7666  1.9909
   47CHL1   C16 3425   5.987   1.428   4.137 -0.4577  0.5698  0.1213
   47CHL1  H16A 3426   6.015   1.530   4.172 -1.2512  0.4266  1.2349
   47CHL1  H16B 3427   5.924   1.387   4.218 -0.0283 -0.5285 -0.0917
   47CHL1   C17 3428   6.111   1.329   4.129 -0.7156  0.1125 -0.3585
   47CHL1   H17 3429   6.078   1.226   4.153  1.6229 -0.7207 -0.5481
   47CHL1   C13 3430   6.148   1.330   3.980 -0.2822 -0.3230  0.3825
   47CHL1   C18 3431   6.223   1.460   3.954 -0.3165 -0.1414 -0.0690
   47CHL1  H18A 3432   6.194   1.552   4.009 -0.6934 -0.6365  0.5722
   47CHL1  H18B 3433   6.322   1.450   4.002 -0.5790  0.8263  0.6973
   47CHL1  H18C 3434   6.239   1.484   3.847  0.5286 -1.0440 -0.1611
   47CHL1   C12 3435   6.221   1.209   3.916  0.3789  1.6135  0.0269
   47CHL1  H12A 3436   6.329   1.190   3.936 -0.9408 -3.4000  4.6390
   47CHL1  H12B 3437   6.158   1.118   3.930  1.1543  0.8441 -1.2400
   47CHL1   C11 3438   6.228   1.214   3.763  0.4218 -0.1992  0.3106
   47CHL1  H11A 3439   6.310   1.286   3.742 -0.9655  1.3091 -0.1600
   47CHL1  H11B 3440   6.247   1.111   3.725 -0.2693  0.0357 -0.6997
   47CHL1    C9 3441   6.097   1.257   3.694  0.4015  0.7666  0.2787
   47CHL1    H9 3442   6.032   1.169   3.707  1.5318 -0.0874  0.2664
   47CHL1   C10 3443   6.112   1.284   3.545 -0.6934  0.7545  0.1930
   47CHL1   C19 3444   6.226   1.382   3.519  0.6287  0.1893  0.5192
   47CHL1  H19A 3445   6.327   1.340   3.534  0.6955 -0.5247 -1.7147
   47CHL1  H19B 3446   6.231   1.420   3.415  2.3285 -0.2401  0.4187
   47CHL1  H19C 3447   6.208   1.472   3.582  1.0956  1.4985 -1.1425
   47CHL1    C1 3448   6.154   1.150   3.468  0.1904  0.3393 -0.6245
   47CHL1   H1A 3449   6.256   1.128   3.506  0.3940  2.4116  0.1337
   47CHL1   H1B 3450   6.087   1.068   3.502  1.0423 -0.6841 -1.3384
   47CHL1    C2 3451   6.147   1.147   3.312  0.3137 -0.2477 -0.9477
   47CHL1   H2A 3452   6.155   1.043   3.275 -0.9180 -0.5665 -0.3680
   47CHL1   H2B 3453   6.227   1.215   3.274  0.5470  0.9798  1.5071
   47CHL1   C20 3454   6.225   1.356   4.233  0.2719 -0.1613 -0.6760
   47CHL1   H20 3455   6.259   1.460   4.214  0.3940 -0.2146 -0.7491
   47CHL1   C21 3456   6.341   1.267   4.220 -0.4726  0.6672  0.1158
   47CHL1  H21A 3457   6.306   1.162   4.229  1.1438  0.2394  1.8601
   47CHL1  H21B 3458   6.420   1.290   4.294  0.8407  1.2508 -1.4314
   47CHL1  H21C 3459   6.403   1.283   4.130 -0.0947 -0.4036  0.1679
   47CHL1   C22 3460   6.162   1.359   4.380 -0.4238  0.3786 -0.6198
   47CHL1  H22A 3461   6.063   1.409   4.383 -1.8641 -2.1867  2.7771
   47CHL1  H22B 3462   6.138   1.257   4.418  0.5723  0.5211  0.4604
   47CHL1   C23 3463   6.252   1.427   4.485 -0.2084 -0.1869  0.1287
   47CHL1  H23A 3464   6.355   1.385   4.476 -0.9976 -2.1828 -0.1854
   47CHL1  H23B 3465   6.252   1.537   4.472 -0.7171 -0.0990  0.8252
   47CHL1   C24 3466   6.213   1.390   4.626 -0.5004 -0.9443  0.2500
   47CHL1  H24A 3467   6.113   1.433   4.650  0.7186  1.3829  1.6374
   47CHL1  H24B 3468   6.203   1.280   4.634  0.8255 -1.1846 -1.0002
   47CHL1   C25 3469   6.304   1.437   4.738  0.2678  0.1274 -0.4780
   47CHL1   H25 3470   6.409   1.402   4.727  1.0916  1.0083  3.3022
   47CHL1   C26 3471   6.319   1.588   4.743 -0.1719  0.7530 -0.2456
   47CHL1  H26A 3472   6.231   1.642   4.783 -0.4255  0.5039 -0.4609
   47CHL1  H26B 3473   6.399   1.611   4.816  0.3785 -0.9689 -0.2564
   47CHL1  H26C 3474   6.339   1.641   4.647 -0.3823  2.5433  0.6580
   47CHL1   C27 3475   6.259   1.381   4.877 -0.3791 -0.1969 -0.3297
   47CHL1  H27A 3476   6.280   1.272   4.875  1.9661  0.1634  0.7460
   47CHL1  H27B 3477   6.323   1.424   4.958 -1.3171 -0.9569  0.8505
   47CHL1  H27C 3478   6.152   1.408   4.893  0.4474  3.8751 -0.4176
   48CHL1    C3 3479   0.553   2.889   2.865 -0.3953  0.8438 -0.3209
   48CHL1    H3 3480   0.489   2.799   2.875  1.0129 -0.2190 -0.4562
   48CHL1    O3 3481   0.596   2.905   2.730 -0.0413  0.3338 -0.2179
   48CHL1   H3' 3482   0.588   2.999   2.711  2.2318  0.5056 -0.6243
   48CHL1    C4 3483   0.464   3.011   2.896 -0.7305  0.3380 -0.0388
   48CHL1   H4A 3484   0.518   3.105   2.871 -1.6341  1.0971  0.7884
   48CHL1   H4B 3485   0.376   2.994   2.830 -0.9924 -1.3863  0.7110
   48CHL1    C5 3486   0.424   3.008   3.042 -0.2674  0.0342  0.3374
   48CHL1    C6 3487   0.296   3.007   3.084  1.2408  0.6149  0.2689
   48CHL1    H6 3488   0.220   3.010   3.004 -0.3474  2.4962  1.7475
   48CHL1    C7 3489   0.241   2.997   3.218 -0.3791 -0.1894 -0.5435
   48CHL1   H7A 3490   0.151   3.061   3.226 -0.1538  0.0751 -0.0768
   48CHL1   H7B 3491   0.213   2.891   3.236  0.2721 -0.3570 -0.4744
   48CHL1    C8 3492   0.350   3.043   3.318  0.2498  0.7762  0.4258
   48CHL1    H8 3493   0.360   3.154   3.316  0.9835  0.7304  1.0587
   48CHL1   C14 3494   0.298   3.010   3.458 -0.7001  0.1917  0.1723
   48CHL1   H14 3495   0.277   2.901   3.456  0.2354 -0.0622  2.1173
   48CHL1   C15 3496   0.177   3.087   3.511  0.9107 -0.3254 -0.0106
   48CHL1  H15A 3497   0.173   3.185   3.459 -0.5497 -1.2108 -1.6607
   48CHL1  H15B 3498   0.075   3.055   3.483  0.7065  0.8042 -0.6114
   48CHL1   C16 3499   0.177   3.078   3.665  0.4080 -0.4569  0.2493
   48CHL1  H16A 3500   0.183   3.183   3.702 -0.6261 -1.1486  2.4869
   48CHL1  H16B 3501   0.094   3.022   3.711  0.5046 -1.5752 -0.8698
   48CHL1   C17 3502   0.312   3.002   3.692 -0.3312 -0.4047  0.0240
   48CHL1   H17 3503   0.298   2.891   3.689 -0.0550 -0.4390 -2.3811
   48CHL1   C13 3504   0.402   3.033   3.568 -0.0005  0.1418 -0.8293
   48CHL1   C18 3505   0.445   3.186   3.574 -0.4103  0.1259  0.1748
   48CHL1  H18A 3506   0.368   3.266   3.588 -0.1979  0.6923 -1.6455
   48CHL1  H18B 3507   0.534   3.206   3.637  0.4405  0.9428 -1.2307
   48CHL1  H18C 3508   0.475   3.214   3.471 -0.6626 -0.3709 -0.0344
   48CHL1   C12 3509   0.523   2.939   3.535 -0.1604 -0.3960 -0.0434
   48CHL1  H12A 3510   0.611   2.939   3.603 -0.2076  1.3951  0.0590
   48CHL1  H12B 3511   0.486   2.834   3.540  0.6838 -0.6830  0.4206
   48CHL1   C11 3512   0.578   2.972   3.400  0.4144 -0.6081 -0.0801
   48CHL1  H11A 3513   0.636   3.067   3.399  0.7396 -0.7674  1.2864
   48CHL1  H11B 3514   0.656   2.902   3.360 -0.7013 -0.7323 -2.1674
   48CHL1    C9 3515   0.482   2.967   3.284 -0.3530  0.8041 -0.6547
   48CHL1    H9 3516   0.456   2.859   3.278  0.9126  0.5389 -1.7249
   48CHL1   C10 3517   0.537   2.999   3.143  0.4753 -0.4018 -0.4535
   48CHL1   C19 3518   0.605   3.136   3.151 -0.5743 -0.1477  0.1854
   48CHL1  H19A 3519   0.698   3.125   3.212 -0.1012  1.1121 -0.2727
   48CHL1  H19B 3520   0.646   3.165   3.052  0.2872 -0.3895  0.4561
   48CHL1  H19C 3521   0.549   3.224   3.189  1.5990  0.8270  1.3454
   48CHL1    C1 3522   0.636   2.885   3.100  0.1134  0.1909 -0.6566
   48CHL1   H1A 3523   0.725   2.880   3.167  1.4463  0.4137 -2.3334
   48CHL1   H1B 3524   0.576   2.791   3.103  2.9447 -1.7633 -0.2430
   48CHL1    C2 3525   0.675   2.890   2.959  0.5153  0.0354  0.2059
   48CHL1   H2A 3526   0.751   2.815   2.930 -2.0892 -2.8167  0.2439
   48CHL1   H2B 3527   0.735   2.980   2.935  1.1964 -1.1147 -2.7978
   48CHL1   C20 3528   0.375   3.029   3.832  1.0436 -0.2889  0.2688
   48CHL1   H20 3529   0.411   3.134   3.832  1.9911 -0.5821 -1.3067
   48CHL1   C21 3530   0.479   2.923   3.867 -0.7371 -0.0439 -0.2197
   48CHL1  H21A 3531   0.438   2.819   3.869 -0.1535 -0.4671 -3.7752
   48CHL1  H21B 3532   0.520   2.949   3.967 -2.4711  0.3908  0.4156
   48CHL1  H21C 3533   0.567   2.926   3.799 -0.6812  1.3315 -0.0999
   48CHL1   C22 3534   0.260   3.019   3.934 -0.4567  0.4813  0.3993
   48CHL1  H22A 3535   0.189   3.102   3.914 -0.3748  0.9038  1.7408
   48CHL1  H22B 3536   0.208   2.921   3.923 -1.9886  1.3307 -0.2295
   48CHL1   C23 3537   0.310   3.039   4.081 -1.0567  0.1195  0.7450
   48CHL1  H23A 3538   0.373   2.949   4.099  0.6869  1.0464 -0.3116
   48CHL1  H23B 3539   0.372   3.131   4.095  0.4007 -0.8564  0.9936
   48CHL1   C24 3540   0.200   3.049   4.178 -0.3118  0.1447 -0.9998
   48CHL1  H24A 3541   0.120   3.113   4.135 -0.8564 -1.4998 -2.5672
   48CHL1  H24B 3542   0.147   2.952   4.194 -0.4930  0.1664 -1.4711
   48CHL1   C25 3543   0.241   3.102   4.314  0.2404  0.1168 -0.3766
   48CHL1   H25 3544   0.262   3.210   4.299  2.9452 -0.1961  0.6583
   48CHL1   C26 3545   0.127   3.088   4.422 -0.1534 -0.4246 -0.5057
   48CHL1  H26A 3546   0.091   2.985   4.445  0.4540 -0.2224  1.6027
   48CHL1  H26B 3547   0.163   3.119   4.523 -0.8680 -2.1361  0.3158
   48CHL1  H26C 3548   0.037   3.143   4.387 -1.2139 -1.0582  1.1090
   48CHL1   C27 3549   0.363   3.024   4.372  0.2377 -0.2139  0.5791
   48CHL1  H27A 3550   0.443   3.059   4.302 -1.3802 -1.1793 -1.8583
   48CHL1  H27B 3551   0.376   3.058   4.477 -0.3102 -0.3667  0.6974
   48CHL1  H27C 3552   0.358   2.914   4.371  0.6222 -0.3002 -2.9823
   49CHL1    C3 3553   5.552   1.695   3.282  0.6332 -0.0814 -0.2105
   49CHL1    H3 3554   5.597   1.797   3.285 -0.0674  0.2223  2.8306
   49CHL1    O3 3555   5.556   1.641   3.152 -0.3972 -0.2712  0.1311
   49CHL1   H3' 3556   5.526   1.711   3.094 -3.6905 -0.6527  1.1725
   49CHL1    C4 3557   5.642   1.614   3.372 -0.2594 -0.3303  0.1477
   49CHL1   H4A 3558   5.613   1.507   3.367 -0.1592 -0.3626  0.2612
   49CHL1   H4B 3559   5.744   1.614   3.328 -0.4409  0.6412 -0.3145
   49CHL1    C5 3560   5.637   1.655   3.521  0.3634  0.6804 -0.6629
   49CHL1    C6 3561   5.739   1.712   3.581  0.7944 -0.1436  0.2280
   49CHL1    H6 3562   5.830   1.712   3.519 -0.0612 -0.5420 -1.0545
   49CHL1    C7 3563   5.737   1.750   3.726 -0.6044  0.6903 -0.1698
   49CHL1   H7A 3564   5.818   1.693   3.776 -2.1984 -2.2435 -0.6745
   49CHL1   H7B 3565   5.747   1.859   3.742  0.9646  0.6900 -0.8646
   49CHL1    C8 3566   5.614   1.700   3.798  0.1857 -0.5982 -0.4274
   49CHL1    H8 3567   5.622   1.589   3.810  0.4007 -0.5517 -0.1525
   49CHL1   C14 3568   5.600   1.776   3.932 -0.6687 -0.1451  0.2667
   49CHL1   H14 3569   5.592   1.884   3.908  0.9378  0.2435  1.3373
   49CHL1   C15 3570   5.710   1.789   4.028 -0.6730 -0.0826  0.3211
   49CHL1  H15A 3571   5.762   1.692   4.041  0.8468  1.0070  3.4240
   49CHL1  H15B 3572   5.779   1.869   3.995 -2.0268  1.3189  0.7868
   49CHL1   C16 3573   5.646   1.829   4.162  0.0642 -0.3605  0.0928
   49CHL1  H16A 3574   5.678   1.761   4.243  3.7167  1.6801  0.6228
   49CHL1  H16B 3575   5.705   1.916   4.198  0.4701 -0.7349  0.3520
   49CHL1   C17 3576   5.494   1.844   4.135  0.6258  0.4034 -0.5211
   49CHL1   H17 3577   5.482   1.947   4.097 -3.3630  1.1690  2.2407
   49CHL1   C13 3578   5.469   1.754   4.016 -0.1276  0.3411  0.5738
   49CHL1   C18 3579   5.482   1.602   4.058 -0.3432  0.3292 -0.3310
   49CHL1  H18A 3580   5.562   1.577   4.131 -0.4231 -0.4697 -0.5156
   49CHL1  H18B 3581   5.387   1.573   4.108 -0.4110 -0.7991 -1.0903
   49CHL1  H18C 3582   5.482   1.528   3.976 -0.9770 -0.0835  0.0287
   49CHL1   C12 3583   5.349   1.781   3.923  0.3203  0.9256 -0.8045
   49CHL1  H12A 3584   5.256   1.755   3.977  0.9711  1.2169  0.4824
   49CHL1  H12B 3585   5.347   1.890   3.899  0.5764  1.4811  1.4809
   49CHL1   C11 3586   5.353   1.690   3.795 -0.3914  0.4565 -0.4214
   49CHL1  H11A 3587   5.352   1.581   3.820  4.2960 -0.0291 -1.3395
   49CHL1  H11B 3588   5.260   1.716   3.741 -0.4676  0.1951 -0.4194
   49CHL1    C9 3589   5.484   1.720   3.715 -0.5000 -0.6563 -0.0487
   49CHL1    H9 3590   5.485   1.830   3.697  2.3420 -0.8483 -1.5403
   49CHL1   C10 3591   5.494   1.653   3.578  0.1540 -0.6252 -0.2618
   49CHL1   C19 3592   5.462   1.502   3.606  0.5161  0.0917  0.7610
   49CHL1  H19A 3593   5.354   1.489   3.628 -0.5619  0.0816 -3.6023
   49CHL1  H19B 3594   5.489   1.437   3.520 -0.0585  1.6258 -0.6273
   49CHL1  H19C 3595   5.520   1.456   3.688  1.7692 -1.7776 -1.0715
   49CHL1    C1 3596   5.396   1.729   3.479 -0.4683  0.0225 -0.2078
   49CHL1   H1A 3597   5.293   1.712   3.517  0.3316 -1.1130  1.5757
   49CHL1   H1B 3598   5.417   1.838   3.484 -2.0551  0.3537 -0.2434
   49CHL1    C2 3599   5.406   1.692   3.332  0.4375  0.6722  0.3061
   49CHL1   H2A 3600   5.340   1.754   3.269  0.1175  3.8278  3.4414
   49CHL1   H2B 3601   5.370   1.588   3.319  0.9921  0.5727 -0.5246
   49CHL1   C20 3602   5.399   1.820   4.251 -0.1723  0.1448  0.4632
   49CHL1   H20 3603   5.363   1.715   4.257  3.6751 -1.2462  2.6091
   49CHL1   C21 3604   5.273   1.906   4.233  0.2511 -0.1921 -0.1328
   49CHL1  H21A 3605   5.247   1.921   4.126  0.2087  1.9557  0.1314
   49CHL1  H21B 3606   5.302   2.004   4.277  0.9327 -0.0449 -0.8929
   49CHL1  H21C 3607   5.180   1.868   4.281  0.0722  0.0197 -0.3078
   49CHL1   C22 3608   5.470   1.832   4.388 -0.0680  0.1681 -0.1279
   49CHL1  H22A 3609   5.558   1.763   4.389  1.5874  2.1640  1.6552
   49CHL1  H22B 3610   5.508   1.934   4.406 -1.2893  0.8896 -1.4549
   49CHL1   C23 3611   5.369   1.802   4.502 -0.2540  0.2507  0.3691
   49CHL1  H23A 3612   5.314   1.708   4.479 -0.6155  0.2542  1.1631
   49CHL1  H23B 3613   5.439   1.780   4.585  2.2258  1.8368 -1.1667
   49CHL1   C24 3614   5.271   1.918   4.554  0.1752  0.4686  0.5220
   49CHL1  H24A 3615   5.326   2.013   4.539  0.6312 -0.0152 -1.0337
   49CHL1  H24B 3616   5.187   1.920   4.481  1.1732 -0.4447 -0.6968
   49CHL1   C25 3617   5.244   1.906   4.704  0.1224 -0.2844 -0.1858
   49CHL1   H25 3618   5.339   1.894   4.761 -1.2537 -3.3977  1.7131
   49CHL1   C26 3619   5.165   2.025   4.749  0.1468 -0.5415 -0.3007
   49CHL1  H26A 3620   5.231   2.114   4.737 -2.0522  1.4742  1.4854
   49CHL1  H26B 3621   5.062   2.034   4.709  0.3605 -0.4396 -0.8377
   49CHL1  H26C 3622   5.155   2.031   4.859 -0.3154  1.0829 -0.3994
   49CHL1   C27 3623   5.162   1.775   4.723 -0.2157 -0.1194 -0.7466
   49CHL1  H27A 3624   5.065   1.792   4.672  0.2136  0.9352 -1.2402
   49CHL1  H27B 3625   5.214   1.690   4.674  0.3190  0.7134 -1.6710
   49CHL1  H27C 3626   5.149   1.754   4.831 -2.5733 -0.8079 -1.1198
   50CHL1    C3 3627   0.962   4.122   3.091  0.1767  0.2907  0.0373
   50CHL1    H3 3628   1.017   4.219   3.089  0.0770  0.3631  0.7326
   50CHL1    O3 3629   0.938   4.084   2.956  0.0861 -0.1398  0.3885
   50CHL1   H3' 3630   0.901   4.162   2.912 -1.9379 -0.6071  1.1607
   50CHL1    C4 3631   1.039   4.007   3.164  0.0683 -0.3425  0.1639
   50CHL1   H4A 3632   0.981   3.912   3.160 -0.9239  0.2823 -0.9379
   50CHL1   H4B 3633   1.128   3.987   3.102 -0.0695  2.9611 -1.3105
   50CHL1    C5 3634   1.070   4.036   3.307 -0.4220  0.0863 -0.3670
   50CHL1    C6 3635   1.190   4.040   3.361  0.6527 -0.3577 -0.2787
   50CHL1    H6 3636   1.277   4.031   3.294 -0.7076 -0.2770 -2.1520
   50CHL1    C7 3637   1.219   4.056   3.500 -0.2858  0.3678 -0.4712
   50CHL1   H7A 3638   1.287   3.975   3.533  2.7280  2.2819 -1.5347
   50CHL1   H7B 3639   1.257   4.158   3.523  0.3289  0.1503 -0.4922
   50CHL1    C8 3640   1.097   4.049   3.598 -0.3061 -0.0655 -0.6871
   50CHL1    H8 3641   1.071   3.943   3.620 -1.7655  0.6778  1.4552
   50CHL1   C14 3642   1.126   4.117   3.736 -0.0992 -0.3366  0.5559
   50CHL1   H14 3643   1.146   4.223   3.707 -0.7967 -0.6216 -1.1260
   50CHL1   C15 3644   1.251   4.073   3.811  0.2945 -0.2552  0.0810
   50CHL1  H15A 3645   1.281   3.968   3.790  0.6410 -0.0191 -0.6818
   50CHL1  H15B 3646   1.337   4.131   3.771 -0.2778  0.6826  0.1891
   50CHL1   C16 3647   1.216   4.122   3.952  0.4012 -0.8003 -0.1796
   50CHL1  H16A 3648   1.213   4.031   4.016  1.3167 -0.2007  0.7513
   50CHL1  H16B 3649   1.294   4.195   3.984 -0.5600 -0.5565  1.7760
   50CHL1   C17 3650   1.070   4.176   3.956 -0.5948  0.1656 -0.0566
   50CHL1   H17 3651   1.081   4.284   3.935 -1.5181  0.5634  1.3232
   50CHL1   C13 3652   1.003   4.119   3.830 -0.0485 -0.2066 -0.2044
   50CHL1   C18 3653   0.945   3.986   3.850 -0.1025 -0.0952  0.0364
   50CHL1  H18A 3654   1.007   3.917   3.912 -1.5624 -2.4535 -0.9911
   50CHL1  H18B 3655   0.852   3.988   3.910 -0.4822 -2.4614 -0.3567
   50CHL1  H18C 3656   0.913   3.940   3.754  0.2997  1.8134 -1.0607
   50CHL1   C12 3657   0.897   4.207   3.757  0.1865 -0.4961  0.1726
   50CHL1  H12A 3658   0.811   4.214   3.826  0.4717  0.3805  0.4570
   50CHL1  H12B 3659   0.935   4.310   3.740  1.4757 -1.2556 -1.9436
   50CHL1   C11 3660   0.857   4.146   3.621  0.0024  0.0033  0.1481
   50CHL1  H11A 3661   0.806   4.049   3.641 -1.4711  0.9751  1.4546
   50CHL1  H11B 3662   0.779   4.216   3.582 -1.8718 -2.1445 -0.1785
   50CHL1    C9 3663   0.980   4.128   3.528 -0.0290 -0.3473 -0.0927
   50CHL1    H9 3664   1.017   4.230   3.507 -0.3946 -0.6000 -2.1816
   50CHL1   C10 3665   0.944   4.065   3.387 -0.1645 -0.2931  0.0710
   50CHL1   C19 3666   0.853   3.940   3.406  0.0844 -0.1909  0.1081
   50CHL1  H19A 3667   0.760   3.978   3.451  0.8321  1.5589  0.2426
   50CHL1  H19B 3668   0.836   3.893   3.306 -0.3869  0.0403  0.0827
   50CHL1  H19C 3669   0.905   3.861   3.465  1.1015  1.4218  1.4473
   50CHL1    C1 3670   0.855   4.165   3.311  0.7779 -0.3345  0.6100
   50CHL1   H1A 3671   0.766   4.204   3.366 -0.4884 -0.7511 -1.0790
   50CHL1   H1B 3672   0.918   4.256   3.301  1.5944 -1.0587 -1.0908
   50CHL1    C2 3673   0.829   4.132   3.165 -0.0920  0.2679  0.0826
   50CHL1   H2A 3674   0.765   4.210   3.118  0.5047  1.1099  0.6287
   50CHL1   H2B 3675   0.769   4.039   3.156 -0.4237  0.5461 -0.6090
   50CHL1   C20 3676   1.001   4.157   4.087 -0.2256 -0.6824 -0.2476
   50CHL1   H20 3677   0.999   4.047   4.106  0.1564 -0.7368 -0.4964
   50CHL1   C21 3678   0.863   4.219   4.086  0.0209  0.2203  0.5188
   50CHL1  H21A 3679   0.786   4.170   4.023  0.2268 -0.0870  0.5052
   50CHL1  H21B 3680   0.885   4.313   4.030  0.2804 -1.2634 -1.9871
   50CHL1  H21C 3681   0.831   4.238   4.191 -1.1773  0.7339  0.0878
   50CHL1   C22 3682   1.087   4.236   4.195  0.3625 -0.1650  0.3136
   50CHL1  H22A 3683   1.195   4.209   4.188  0.3128 -0.0445 -1.4316
   50CHL1  H22B 3684   1.086   4.345   4.173 -1.0253  0.0432  1.3031
   50CHL1   C23 3685   1.052   4.200   4.342  0.1577  0.3586 -0.9908
   50CHL1  H23A 3686   0.945   4.223   4.361 -0.3846  0.0017 -3.2851
   50CHL1  H23B 3687   1.055   4.089   4.338 -1.5803  0.2579 -0.5783
   50CHL1   C24 3688   1.155   4.256   4.439 -0.0352  0.6338 -0.8676
   50CHL1  H24A 3689   1.257   4.240   4.400  1.6021 -1.3440  3.6089
   50CHL1  H24B 3690   1.141   4.365   4.457 -0.6849  0.0799  2.5661
   50CHL1   C25 3691   1.163   4.184   4.577 -0.4248  0.3421  0.2940
   50CHL1   H25 3692   1.230   4.246   4.640 -1.3363  1.0917  0.5490
   50CHL1   C26 3693   1.023   4.163   4.633 -0.1675  0.3368  0.8691
   50CHL1  H26A 3694   0.977   4.264   4.641  1.0511  1.0324 -0.5943
   50CHL1  H26B 3695   0.952   4.101   4.573 -0.7059  1.3787  0.4147
   50CHL1  H26C 3696   1.029   4.129   4.739 -3.1053  0.9264  1.3059
   50CHL1   C27 3697   1.227   4.045   4.558 -0.0791 -0.2104  0.0328
   50CHL1  H27A 3698   1.288   4.007   4.643 -0.3169 -1.1336 -0.2044
   50CHL1  H27B 3699   1.156   3.968   4.521  1.5486 -2.0783  0.6450
   50CHL1  H27C 3700   1.293   4.055   4.470 -1.3103  1.6775 -0.7424
   51CHL1    C3 3701   5.106   0.565   3.243 -0.2652  0.1006 -0.5816
   51CHL1    H3 3702   5.156   0.467   3.254 -0.3815 -0.0813 -1.5621
   51CHL1    O3 3703   5.060   0.576   3.105  0.0905 -0.0837 -0.2850
   51CHL1   H3' 3704   5.019   0.662   3.107 -1.1500 -0.6269 -0.9674
   51CHL1    C4 3705   4.992   0.582   3.349  0.0205  0.5705 -0.2085
   51CHL1   H4A 3706   4.952   0.684   3.333  2.0374  1.4026 -0.3056
   51CHL1   H4B 3707   4.915   0.508   3.317  0.7852 -0.4746  0.2875
   51CHL1    C5 3708   5.045   0.565   3.491 -0.6490  0.4322 -0.3767
   51CHL1    C6 3709   5.006   0.464   3.562  0.1372 -0.0684 -0.2833
   51CHL1    H6 3710   4.927   0.398   3.522  1.0743 -0.3796 -1.6775
   51CHL1    C7 3711   5.056   0.442   3.697 -0.2299 -0.9707 -0.1004
   51CHL1   H7A 3712   4.970   0.430   3.766 -1.0253 -0.1520 -0.9249
   51CHL1   H7B 3713   5.116   0.349   3.699  1.2755 -0.0318 -0.1844
   51CHL1    C8 3714   5.129   0.568   3.753  0.1044  0.0568 -0.2836
   51CHL1    H8 3715   5.048   0.643   3.769 -0.7873 -1.0822  0.6818
   51CHL1   C14 3716   5.202   0.528   3.878 -0.0611  0.0009 -0.1503
   51CHL1   H14 3717   5.277   0.455   3.841 -0.6517 -1.0060  0.5616
   51CHL1   C15 3718   5.122   0.461   3.984 -0.3972  0.0102 -0.3868
   51CHL1  H15A 3719   5.022   0.510   3.987  0.2983  1.4317  1.5270
   51CHL1  H15B 3720   5.115   0.353   3.960 -0.3526 -0.0860  0.0252
   51CHL1   C16 3721   5.198   0.490   4.115  0.3205  0.0107 -0.4081
   51CHL1  H16A 3722   5.137   0.552   4.184  4.1984  1.3121  2.1871
   51CHL1  H16B 3723   5.215   0.389   4.158 -1.0458  0.1827  0.5870
   51CHL1   C17 3724   5.331   0.573   4.079 -0.0267 -0.2763 -0.2327
   51CHL1   H17 3725   5.405   0.491   4.067  0.6576  0.5659 -2.2060
   51CHL1   C13 3726   5.283   0.646   3.947 -0.5590 -0.0745 -0.0386
   51CHL1   C18 3727   5.195   0.768   3.983 -0.5541 -0.2146  0.0007
   51CHL1  H18A 3728   5.155   0.823   3.896  3.8512  0.6445 -1.7719
   51CHL1  H18B 3729   5.114   0.740   4.054 -1.1008 -1.6124 -1.1436
   51CHL1  H18C 3730   5.267   0.838   4.032  1.4155 -1.3181 -1.1706
   51CHL1   C12 3731   5.398   0.682   3.847  0.3862 -0.5575 -0.4634
   51CHL1  H12A 3732   5.448   0.774   3.886  0.7732 -1.0313  0.1777
   51CHL1  H12B 3733   5.462   0.592   3.843  0.5184 -0.8017  3.2808
   51CHL1   C11 3734   5.340   0.718   3.710  0.2562  0.0981 -0.2668
   51CHL1  H11A 3735   5.302   0.821   3.724 -3.0712 -0.7269 -1.9241
   51CHL1  H11B 3736   5.424   0.722   3.637 -0.3306 -0.3941 -0.9941
   51CHL1    C9 3737   5.230   0.617   3.656 -0.3711 -0.6464  0.0576
   51CHL1    H9 3738   5.286   0.525   3.629  1.9146  0.3622  1.0832
   51CHL1   C10 3739   5.159   0.660   3.531 -0.1589 -0.7363 -0.2743
   51CHL1   C19 3740   5.099   0.798   3.550 -0.6727  0.1277  0.1333
   51CHL1  H19A 3741   5.052   0.834   3.456 -1.7438  1.9383  1.3073
   51CHL1  H19B 3742   5.025   0.802   3.634  0.2474 -1.0029  1.0325
   51CHL1  H19C 3743   5.180   0.871   3.568 -0.6124 -0.5423  3.1903
   51CHL1    C1 3744   5.264   0.662   3.415 -0.8680 -0.0610  0.4804
   51CHL1   H1A 3745   5.343   0.739   3.427  0.0112 -0.7394 -0.6918
   51CHL1   H1B 3746   5.317   0.564   3.414  0.2091  0.5126  0.0160
   51CHL1    C2 3747   5.213   0.672   3.269 -0.3073  0.3204 -0.6348
   51CHL1   H2A 3748   5.295   0.655   3.196  1.1295  0.0856  0.9676
   51CHL1   H2B 3749   5.166   0.771   3.251  0.8758  1.0682  0.2400
   51CHL1   C20 3750   5.386   0.667   4.193 -0.0475  0.2210  0.1996
   51CHL1   H20 3751   5.311   0.748   4.203 -0.4735 -0.3262  1.7402
   51CHL1   C21 3752   5.525   0.720   4.161  0.8001  0.4744  0.2076
   51CHL1  H21A 3753   5.607   0.645   4.168  0.0145 -0.3452  0.6677
   51CHL1  H21B 3754   5.537   0.799   4.239  0.2310 -1.0953  1.9505
   51CHL1  H21C 3755   5.532   0.770   4.062  1.5249 -1.4936 -0.7872
   51CHL1   C22 3756   5.381   0.593   4.336  0.4184 -0.4678 -0.1774
   51CHL1  H22A 3757   5.278   0.554   4.349  0.7455 -0.6222  2.5188
   51CHL1  H22B 3758   5.454   0.510   4.351 -0.1963 -0.8978  0.4696
   51CHL1   C23 3759   5.393   0.697   4.446  0.0836 -0.1050 -0.4400
   51CHL1  H23A 3760   5.483   0.762   4.438 -0.5214  0.4709 -3.8636
   51CHL1  H23B 3761   5.309   0.765   4.420 -1.4369 -1.5267  0.5556
   51CHL1   C24 3762   5.386   0.637   4.587  0.2773 -0.6542 -0.2357
   51CHL1  H24A 3763   5.287   0.587   4.594 -0.1637  0.2559  0.1095
   51CHL1  H24B 3764   5.467   0.563   4.601  0.3502 -0.2377  1.7275
   51CHL1   C25 3765   5.408   0.737   4.698 -0.3204  0.0888  0.5172
   51CHL1   H25 3766   5.512   0.777   4.696 -0.0457 -0.3715  2.9586
   51CHL1   C26 3767   5.311   0.851   4.672 -0.5544 -0.2332  0.1752
   51CHL1  H26A 3768   5.204   0.821   4.670 -0.2604 -1.4478 -2.9561
   51CHL1  H26B 3769   5.330   0.932   4.746  1.5217 -1.8240  1.4757
   51CHL1  H26C 3770   5.336   0.908   4.579  0.5591  0.2780  0.7624
   51CHL1   C27 3771   5.394   0.685   4.837  0.7614 -0.6543  0.1629
   51CHL1  H27A 3772   5.286   0.667   4.858  0.5985  0.4041  0.2786
   51CHL1  H27B 3773   5.454   0.592   4.844  1.3404 -0.4178 -1.2252
   51CHL1  H27C 3774   5.423   0.757   4.916  3.1514 -2.5452  1.1275
   52CHL1    C3 3775   1.628   3.154   2.957 -0.4682  0.2995  0.5317
   52CHL1    H3 3776   1.658   3.260   2.973 -2.1300  1.0218 -0.8336
   52CHL1    O3 3777   1.642   3.112   2.822  0.1983 -0.1203 -0.5178
   52CHL1   H3' 3778   1.593   3.175   2.769  0.4492  0.4145 -0.1274
   52CHL1    C4 3779   1.713   3.060   3.036 -0.4459 -0.1838 -0.0896
   52CHL1   H4A 3780   1.698   2.951   3.020  1.0362 -0.5512  0.7558
   52CHL1   H4B 3781   1.817   3.072   2.998 -0.2582 -0.3516  0.3691
   52CHL1    C5 3782   1.704   3.103   3.180  0.0868  0.2904 -0.1331
   52CHL1    C6 3783   1.807   3.145   3.247 -0.0122 -0.5962  0.2479
   52CHL1    H6 3784   1.905   3.145   3.197 -1.2362  0.5797 -2.3026
   52CHL1    C7 3785   1.807   3.175   3.397  0.0875  0.0299 -0.1191
   52CHL1   H7A 3786   1.888   3.122   3.453 -1.4638 -0.1076  2.1244
   52CHL1   H7B 3787   1.816   3.284   3.414 -0.0961 -0.1887  1.5961
   52CHL1    C8 3788   1.680   3.129   3.468 -0.1122 -0.1438  0.6894
   52CHL1    H8 3789   1.687   3.019   3.475  0.7578 -0.1373  0.0619
   52CHL1   C14 3790   1.675   3.195   3.612 -0.3085  0.2624  1.1735
   52CHL1   H14 3791   1.667   3.305   3.598  0.1025  0.4962  2.5706
   52CHL1   C15 3792   1.789   3.183   3.715  0.1967 -0.6496 -0.6747
   52CHL1  H15A 3793   1.828   3.079   3.715 -0.3530 -0.8626 -0.7796
   52CHL1  H15B 3794   1.880   3.245   3.703  0.1982 -0.7661 -1.2889
   52CHL1   C16 3795   1.725   3.209   3.859  0.3733  0.2493  0.2683
   52CHL1  H16A 3796   1.728   3.113   3.915 -0.7880  0.9915  1.6725
   52CHL1  H16B 3797   1.780   3.292   3.909  1.2620  1.2356 -2.1782
   52CHL1   C17 3798   1.571   3.242   3.827 -0.1488  0.0739 -0.1227
   52CHL1   H17 3799   1.568   3.349   3.800 -4.6768  0.0082 -0.6617
   52CHL1   C13 3800   1.547   3.159   3.691 -0.1689 -0.6185 -0.6383
   52CHL1   C18 3801   1.544   3.012   3.716 -0.2664  1.2201 -0.5771
   52CHL1  H18A 3802   1.443   2.980   3.750 -1.0013  0.6848 -3.0406
   52CHL1  H18B 3803   1.573   2.948   3.629 -0.0600  0.1284  0.2643
   52CHL1  H18C 3804   1.617   2.975   3.791  1.3691  1.0244 -2.1882
   52CHL1   C12 3805   1.427   3.206   3.613 -0.3042  0.2662  0.2917
   52CHL1  H12A 3806   1.335   3.180   3.670  0.5572 -2.7247  0.5173
   52CHL1  H12B 3807   1.444   3.313   3.589  0.9004 -0.1059 -0.6428
   52CHL1   C11 3808   1.423   3.147   3.469  0.1639  0.4703 -0.0954
   52CHL1  H11A 3809   1.404   3.039   3.486 -0.9258  0.7778  0.7494
   52CHL1  H11B 3810   1.341   3.193   3.411  0.7698 -0.7292 -1.9704
   52CHL1    C9 3811   1.561   3.173   3.384  0.2175  0.9379 -0.2627
   52CHL1    H9 3812   1.579   3.280   3.362 -0.8819  1.2003  0.0883
   52CHL1   C10 3813   1.561   3.100   3.244 -0.2216 -0.2543  0.3840
   52CHL1   C19 3814   1.515   2.953   3.255  0.1894 -0.2187 -0.1739
   52CHL1  H19A 3815   1.525   2.895   3.161 -0.3346 -0.9936  0.2420
   52CHL1  H19B 3816   1.587   2.902   3.324  0.2318  0.9579  0.6812
   52CHL1  H19C 3817   1.416   2.938   3.303  0.5347 -0.6615  0.4324
   52CHL1    C1 3818   1.471   3.184   3.149  0.4355  0.1496 -0.3484
   52CHL1   H1A 3819   1.367   3.193   3.185 -0.4931 -3.0168 -1.8359
   52CHL1   H1B 3820   1.521   3.282   3.159  0.2219  0.2238  0.0006
   52CHL1    C2 3821   1.477   3.139   2.997 -0.0457 -0.8224 -0.1544
   52CHL1   H2A 3822   1.424   3.218   2.939 -0.3087 -1.3653 -0.6664
   52CHL1   H2B 3823   1.440   3.041   2.961 -0.1507 -0.5824 -0.7164
   52CHL1   C20 3824   1.483   3.220   3.949 -0.4866 -0.2182  0.4218
   52CHL1   H20 3825   1.450   3.114   3.951  2.8529 -1.3782  0.6099
   52CHL1   C21 3826   1.355   3.303   3.920 -0.2576 -0.3184  0.3338
   52CHL1  H21A 3827   1.272   3.294   3.994  0.0084 -0.6087  0.5957
   52CHL1  H21B 3828   1.304   3.269   3.828 -1.5918 -2.9370  1.9241
   52CHL1  H21C 3829   1.380   3.411   3.905  3.2799 -0.7394  2.1038
   52CHL1   C22 3830   1.539   3.258   4.085  0.3393  0.0980 -0.2473
   52CHL1  H22A 3831   1.625   3.192   4.109  1.2574  0.7267 -1.6870
   52CHL1  H22B 3832   1.578   3.361   4.071 -0.6743  0.2029 -2.7088
   52CHL1   C23 3833   1.444   3.249   4.215  1.0164  0.3952  0.4350
   52CHL1  H23A 3834   1.355   3.314   4.205 -0.7465 -1.9511 -0.0534
   52CHL1  H23B 3835   1.414   3.142   4.213 -0.8406  0.8805 -1.6598
   52CHL1   C24 3836   1.518   3.287   4.346  0.2999  0.2298 -0.4879
   52CHL1  H24A 3837   1.456   3.273   4.437  3.0063 -0.9077  1.2912
   52CHL1  H24B 3838   1.603   3.217   4.362  0.2075  0.6111  2.0840
   52CHL1   C25 3839   1.567   3.430   4.352 -0.3741 -0.1935 -0.0275
   52CHL1   H25 3840   1.609   3.467   4.256  0.1294 -0.0739  0.2345
   52CHL1   C26 3841   1.442   3.528   4.375 -0.0255 -0.2770  0.2180
   52CHL1  H26A 3842   1.482   3.631   4.383 -0.6916  0.4290 -3.5993
   52CHL1  H26B 3843   1.365   3.524   4.295  0.3771  2.5791 -0.4220
   52CHL1  H26C 3844   1.399   3.510   4.476  0.7979  1.3454  0.8872
   52CHL1   C27 3845   1.669   3.447   4.467 -0.1487 -0.3226 -0.3318
   52CHL1  H27A 3846   1.634   3.381   4.549 -0.0178 -2.1119 -1.6498
   52CHL1  H27B 3847   1.774   3.426   4.441 -0.4250 -1.2984 -0.6838
   52CHL1  H27C 3848   1.674   3.552   4.503 -1.7008 -0.2063 -0.3741
   53CHL1    C3 3849   6.274   1.891   3.366 -0.6566  0.1871  0.7192
   53CHL1    H3 3850   6.172   1.929   3.344 -0.2086  1.4185  0.7047
   53CHL1    O3 3851   6.326   1.865   3.240 -0.2004  0.4048 -0.2475
   53CHL1   H3' 3852   6.328   1.770   3.235  0.3829  0.4824 -2.5587
   53CHL1    C4 3853   6.377   1.980   3.444  0.1745 -0.0923  0.2901
   53CHL1   H4A 3854   6.475   1.929   3.456  0.5428  0.8267  1.3324
   53CHL1   H4B 3855   6.380   2.073   3.383 -0.4866 -0.3152 -0.0899
   53CHL1    C5 3856   6.324   2.009   3.581 -0.3190 -0.4804 -0.0501
   53CHL1    C6 3857   6.309   2.140   3.618 -0.4291  0.1119  0.1669
   53CHL1    H6 3858   6.330   2.217   3.542 -1.5599 -0.1556 -0.4422
   53CHL1    C7 3859   6.261   2.182   3.759 -0.1906 -0.2891  0.5237
   53CHL1   H7A 3860   6.326   2.263   3.799  0.1888 -0.3785  0.0848
   53CHL1   H7B 3861   6.159   2.227   3.749 -0.1617 -0.4662 -0.7227
   53CHL1    C8 3862   6.255   2.058   3.853 -0.4422  0.1242 -0.1896
   53CHL1    H8 3863   6.358   2.032   3.885 -0.9539 -0.7222  0.8614
   53CHL1   C14 3864   6.169   2.087   3.974 -0.5691 -0.4944  0.3592
   53CHL1   H14 3865   6.067   2.099   3.930 -0.3618 -1.4021 -0.3991
   53CHL1   C15 3866   6.177   2.228   4.044  0.3482  0.2430  0.2011
   53CHL1  H15A 3867   6.275   2.258   4.087  0.8416  0.1209 -0.8133
   53CHL1  H15B 3868   6.117   2.302   3.987 -1.8954 -0.5232  1.4603
   53CHL1   C16 3869   6.096   2.204   4.176 -0.1902 -1.0260  0.3759
   53CHL1  H16A 3870   6.165   2.231   4.259 -0.1902 -1.2668  0.4544
   53CHL1  H16B 3871   6.007   2.268   4.194 -0.6391 -0.8517 -2.1619
   53CHL1   C17 3872   6.065   2.051   4.177 -0.8637 -0.0428 -0.7522
   53CHL1   H17 3873   5.966   2.042   4.129 -0.3779 -0.3092 -1.7412
   53CHL1   C13 3874   6.165   1.976   4.072  0.2687 -0.1467  0.1383
   53CHL1   C18 3875   6.297   1.956   4.138 -0.4365 -0.3025  0.3798
   53CHL1  H18A 3876   6.335   2.049   4.185  2.0337 -1.5352  0.9480
   53CHL1  H18B 3877   6.285   1.895   4.229 -3.2833 -1.9910 -0.9773
   53CHL1  H18C 3878   6.382   1.919   4.077 -1.0731  1.2439 -1.5494
   53CHL1   C12 3879   6.113   1.841   4.017  0.0087 -0.0262 -0.1156
   53CHL1  H12A 3880   6.092   1.766   4.096 -2.7778  1.6442  0.8662
   53CHL1  H12B 3881   6.010   1.861   3.979 -0.0202 -0.2701 -0.1706
   53CHL1   C11 3882   6.201   1.808   3.897  0.0859  0.2194  0.0052
   53CHL1  H11A 3883   6.296   1.765   3.935  0.7022  0.4812 -1.2098
   53CHL1  H11B 3884   6.153   1.722   3.844  0.3574 -0.5964  1.0463
   53CHL1    C9 3885   6.212   1.924   3.792  0.4197 -0.4102  0.1697
   53CHL1    H9 3886   6.107   1.938   3.759  0.3883  0.2242  0.5187
   53CHL1   C10 3887   6.284   1.886   3.665  0.4430 -0.9732  0.2007
   53CHL1   C19 3888   6.405   1.805   3.694  0.6073  0.4554  0.6870
   53CHL1  H19A 3889   6.469   1.873   3.755 -0.5264 -0.2303  2.7384
   53CHL1  H19B 3890   6.394   1.709   3.747  0.5473  0.0026 -0.1283
   53CHL1  H19C 3891   6.469   1.790   3.604 -0.5466 -0.3965 -0.0058
   53CHL1    C1 3892   6.195   1.783   3.573 -0.1945  0.3711 -0.3465
   53CHL1   H1A 3893   6.195   1.686   3.627 -0.3077  0.3566 -0.3714
   53CHL1   H1B 3894   6.090   1.820   3.562 -0.0089  0.2522 -3.3492
   53CHL1    C2 3895   6.258   1.759   3.439 -0.5930  0.1054 -0.1936
   53CHL1   H2A 3896   6.201   1.686   3.377  1.1402 -1.5767  0.1314
   53CHL1   H2B 3897   6.359   1.719   3.462 -1.1175 -0.8217  0.5779
   53CHL1   C20 3898   6.049   2.009   4.325 -0.6888 -0.1753 -0.1305
   53CHL1   H20 3899   6.153   2.010   4.364 -0.6204  1.3014 -0.2747
   53CHL1   C21 3900   5.992   1.869   4.332  0.4957  0.3409 -0.8039
   53CHL1  H21A 3901   5.904   1.856   4.265 -0.2260  1.2406 -0.0776
   53CHL1  H21B 3902   5.950   1.833   4.428  2.2681  0.4088  0.0373
   53CHL1  H21C 3903   6.073   1.798   4.307 -1.6454 -3.2921  1.6107
   53CHL1   C22 3904   5.960   2.112   4.408  0.6662 -0.0213  0.4856
   53CHL1  H22A 3905   5.994   2.218   4.412 -4.6150  2.0727 -1.4761
   53CHL1  H22B 3906   5.858   2.122   4.364  0.7912  2.2236  0.5802
   53CHL1   C23 3907   5.937   2.078   4.556 -0.1009  0.4191 -0.4389
   53CHL1  H23A 3908   5.875   2.165   4.588  0.9684  2.2547 -2.9847
   53CHL1  H23B 3909   5.877   1.985   4.566 -0.5099  0.7238  0.0035
   53CHL1   C24 3910   6.066   2.084   4.644 -0.0768 -0.3677  0.4076
   53CHL1  H24A 3911   6.147   2.032   4.589  0.6388 -0.7693  1.7940
   53CHL1  H24B 3912   6.092   2.191   4.660  2.6368 -1.0012  0.7880
   53CHL1   C25 3913   6.058   2.023   4.788 -0.0858 -0.2946 -0.4398
   53CHL1   H25 3914   5.954   2.026   4.827  0.1370  1.2931  0.0848
   53CHL1   C26 3915   6.111   1.886   4.796  0.0953  0.9674  0.3857
   53CHL1  H26A 3916   6.222   1.887   4.786  0.2208 -1.0054  1.1211
   53CHL1  H26B 3917   6.088   1.850   4.898  3.3127  0.1683  0.9590
   53CHL1  H26C 3918   6.074   1.810   4.724  1.2159  0.5086  0.2705
   53CHL1   C27 3919   6.135   2.107   4.892 -0.4057 -0.2494 -0.3695
   53CHL1  H27A 3920   6.240   2.110   4.854 -0.3946 -1.7890 -0.5361
   53CHL1  H27B 3921   6.090   2.208   4.894 -0.5011 -0.3040  0.4559
   53CHL1  H27C 3922   6.123   2.051   4.987  2.6951 -2.7550 -1.2506
   54CHL1    C3 3923   3.264   0.875   3.226 -0.1795  0.3983 -0.1135
   54CHL1    H3 3924   3.169   0.930   3.238 -0.8870 -0.6041 -0.9705
   54CHL1    O3 3925   3.285   0.863   3.087 -0.8242  0.1068  0.4899
   54CHL1   H3' 3926   3.316   0.951   3.061 -0.7647 -0.0152  0.1475
   54CHL1    C4 3927   3.380   0.956   3.294  0.1526  0.4826  0.7044
   54CHL1   H4A 3928   3.475   0.908   3.261 -0.6204  0.6679 -1.9619
   54CHL1   H4B 3929   3.390   1.052   3.240  1.5138 -1.5800 -3.0214
   54CHL1    C5 3930   3.364   0.952   3.447 -0.3588  0.4690  0.1889
   54CHL1    C6 3931   3.341   1.068   3.511  0.2484  0.1405 -0.6666
   54CHL1    H6 3932   3.332   1.156   3.446 -1.1141 -0.9515 -2.0502
   54CHL1    C7 3933   3.317   1.069   3.660 -0.2221  0.3552 -0.3379
   54CHL1   H7A 3934   3.353   1.162   3.710 -1.4900  0.0521  1.1908
   54CHL1   H7B 3935   3.210   1.082   3.685 -0.4808  5.5669 -2.7285
   54CHL1    C8 3936   3.375   0.944   3.730 -0.0798  0.2125 -0.4133
   54CHL1    H8 3937   3.483   0.958   3.710 -0.3601  1.5032 -1.2026
   54CHL1   C14 3938   3.343   0.939   3.874 -0.3595  0.2251 -0.6103
   54CHL1   H14 3939   3.234   0.948   3.889 -0.1623 -0.9029  1.9900
   54CHL1   C15 3940   3.405   1.058   3.950 -0.1768 -0.4903  0.0094
   54CHL1  H15A 3941   3.502   1.099   3.917 -0.4229  2.6657  2.6785
   54CHL1  H15B 3942   3.320   1.130   3.949 -1.1686 -1.6016 -1.6913
   54CHL1   C16 3943   3.430   1.011   4.095  0.3712  0.2951  0.0388
   54CHL1  H16A 3944   3.535   1.006   4.131  0.4958 -0.8434 -0.4347
   54CHL1  H16B 3945   3.372   1.073   4.166 -1.3570  2.1587 -2.8351
   54CHL1   C17 3946   3.373   0.865   4.098  0.6293 -0.3696 -0.3668
   54CHL1   H17 3947   3.263   0.862   4.117  0.2687  1.8170 -1.8106
   54CHL1   C13 3948   3.388   0.811   3.952  0.2780  0.4106  0.6872
   54CHL1   C18 3949   3.537   0.784   3.923 -0.0777 -0.2232  0.3077
   54CHL1  H18A 3950   3.604   0.868   3.951 -0.4946  0.7822 -1.5940
   54CHL1  H18B 3951   3.573   0.692   3.975 -0.5791  0.3548  1.7328
   54CHL1  H18C 3952   3.556   0.769   3.815  1.4728 -1.3580  0.6981
   54CHL1   C12 3953   3.294   0.698   3.896  0.3622  0.0322 -0.1366
   54CHL1  H12A 3954   3.313   0.597   3.937  1.9321 -0.4318 -1.8333
   54CHL1  H12B 3955   3.188   0.731   3.899 -0.4512 -2.2596 -0.9018
   54CHL1   C11 3956   3.322   0.680   3.747 -0.7411 -0.0976 -0.5182
   54CHL1  H11A 3957   3.422   0.636   3.722 -0.4725  0.7271 -0.9217
   54CHL1  H11B 3958   3.242   0.617   3.702 -3.7566  2.5635  0.8065
   54CHL1    C9 3959   3.318   0.818   3.663  0.6224  0.0747 -0.0736
   54CHL1    H9 3960   3.209   0.836   3.665  0.3606 -1.2924 -0.9786
   54CHL1   C10 3961   3.357   0.809   3.510 -0.9862 -0.8086 -0.1769
   54CHL1   C19 3962   3.498   0.750   3.493 -0.7659  0.4055 -0.1822
   54CHL1  H19A 3963   3.486   0.640   3.499  0.5169  0.3406  3.5262
   54CHL1  H19B 3964   3.537   0.770   3.391 -0.7922 -2.1097 -0.7332
   54CHL1  H19C 3965   3.573   0.774   3.572 -0.4602 -0.4805 -0.1975
   54CHL1    C1 3966   3.249   0.726   3.436  0.1540  0.0061  0.1769
   54CHL1   H1A 3967   3.265   0.623   3.473  0.6250  1.1545  3.5132
   54CHL1   H1B 3968   3.145   0.760   3.455  0.4520  0.1033  1.6969
   54CHL1    C2 3969   3.259   0.732   3.285  0.1177 -0.9001  0.4105
   54CHL1   H2A 3970   3.175   0.678   3.237 -2.1241  2.6772 -0.0517
   54CHL1   H2B 3971   3.360   0.692   3.263 -0.0889 -1.5973  0.6869
   54CHL1   C20 3972   3.447   0.777   4.206  0.1681 -0.0029 -0.0322
   54CHL1   H20 3973   3.550   0.758   4.170 -0.0632 -1.2966 -0.0650
   54CHL1   C21 3974   3.368   0.641   4.206  0.1155  0.7722 -0.1624
   54CHL1  H21A 3975   3.401   0.586   4.116  1.2360 -0.5262  0.9939
   54CHL1  H21B 3976   3.257   0.643   4.215  0.0418  0.7348 -0.9558
   54CHL1  H21C 3977   3.392   0.580   4.296 -1.1555  2.4322  1.3761
   54CHL1   C22 3978   3.470   0.834   4.353  0.0049 -0.0965  0.1426
   54CHL1  H22A 3979   3.540   0.769   4.410  1.5533  2.1213  0.8845
   54CHL1  H22B 3980   3.519   0.932   4.336  0.4576 -0.6895 -2.4667
   54CHL1   C23 3981   3.344   0.875   4.429  0.1604  0.3769 -0.0284
   54CHL1  H23A 3982   3.288   0.944   4.363  2.9502  0.3907 -2.6481
   54CHL1  H23B 3983   3.274   0.792   4.453  0.3306  0.1176 -0.4074
   54CHL1   C24 3984   3.381   0.948   4.558  0.5813 -1.0557 -0.7842
   54CHL1  H24A 3985   3.438   0.878   4.622  1.6851  1.9062  1.6524
   54CHL1  H24B 3986   3.442   1.040   4.551 -1.0998  0.1848  0.1822
   54CHL1   C25 3987   3.270   0.999   4.653  0.4431 -0.0069 -0.6493
   54CHL1   H25 3988   3.196   0.917   4.663 -0.2220  0.5560 -0.8136
   54CHL1   C26 3989   3.322   1.048   4.788 -0.7595 -0.1601  0.1174
   54CHL1  H26A 3990   3.420   1.100   4.783  0.6148 -2.3335  2.0896
   54CHL1  H26B 3991   3.246   1.107   4.844 -1.7064  1.0442 -2.3172
   54CHL1  H26C 3992   3.351   0.966   4.858 -1.3414  0.2685  0.8786
   54CHL1   C27 3993   3.198   1.113   4.577  0.1905 -0.1444  0.2112
   54CHL1  H27A 3994   3.162   1.062   4.485  0.2668  1.6019 -0.8290
   54CHL1  H27B 3995   3.103   1.138   4.630 -1.6581 -3.7151 -1.0860
   54CHL1  H27C 3996   3.268   1.193   4.544 -0.5473  0.7090  0.6605
   55CHL1    C3 3997   1.975   0.534   3.579 -0.5024  0.1055 -0.5544
   55CHL1    H3 3998   2.011   0.627   3.629  2.2116 -1.7255  1.1885
   55CHL1    O3 3999   1.996   0.538   3.440  0.2722 -0.1065  0.4461
   55CHL1   H3' 4000   1.946   0.614   3.409 -0.0660  0.7745  2.9209
   55CHL1    C4 4001   2.061   0.429   3.647  0.8221 -0.0019  0.4688
   55CHL1   H4A 4002   2.017   0.332   3.614 -0.5623  0.3475  1.2362
   55CHL1   H4B 4003   2.167   0.439   3.614  0.0671  1.8957 -1.7450
   55CHL1    C5 4004   2.040   0.431   3.793 -0.5812  0.2794 -0.1389
   55CHL1    C6 4005   2.136   0.448   3.884  0.1441  0.5594  0.4307
   55CHL1    H6 4006   2.242   0.453   3.855 -0.1154  1.1682 -0.4862
   55CHL1    C7 4007   2.114   0.441   4.033 -0.8396 -0.7973  0.7791
   55CHL1   H7A 4008   2.188   0.371   4.077  1.0014  0.1652 -0.6470
   55CHL1   H7B 4009   2.130   0.543   4.076 -2.1660 -0.6697  1.0188
   55CHL1    C8 4010   1.979   0.390   4.082  0.3544 -0.6164  0.3080
   55CHL1    H8 4011   1.991   0.282   4.062 -1.4828 -0.6351 -0.9621
   55CHL1   C14 4012   1.948   0.416   4.231  0.0108 -0.2670  0.4164
   55CHL1   H14 4013   1.946   0.526   4.244  1.8673 -0.2650  1.0520
   55CHL1   C15 4014   2.040   0.357   4.333 -0.1980  0.1753 -0.2774
   55CHL1  H15A 4015   2.061   0.254   4.298  2.4610  0.4427  0.3233
   55CHL1  H15B 4016   2.142   0.400   4.339 -0.0585 -0.2947  1.4772
   55CHL1   C16 4017   1.965   0.373   4.475  0.5367  0.9420  1.0336
   55CHL1  H16A 4018   1.985   0.272   4.517  0.8790  0.6147  0.1022
   55CHL1  H16B 4019   1.991   0.458   4.542  0.3530  0.6633  1.4679
   55CHL1   C17 4020   1.814   0.385   4.438  0.3116  0.3232 -0.0560
   55CHL1   H17 4021   1.787   0.493   4.448  0.3466  0.3720 -0.4515
   55CHL1   C13 4022   1.814   0.361   4.285 -0.1901 -0.2608  0.7814
   55CHL1   C18 4023   1.796   0.203   4.256 -0.8490  0.2142  0.0325
   55CHL1  H18A 4024   1.693   0.170   4.277 -0.7569  1.5682  3.0214
   55CHL1  H18B 4025   1.815   0.173   4.150  0.5993 -2.2188  0.8980
   55CHL1  H18C 4026   1.864   0.144   4.321  1.7523  1.2819 -1.5152
   55CHL1   C12 4027   1.709   0.437   4.203 -0.1206 -0.0170 -0.4786
   55CHL1  H12A 4028   1.605   0.412   4.233 -0.1621  1.4243  0.6987
   55CHL1  H12B 4029   1.719   0.545   4.230 -1.7129 -0.0333  0.2948
   55CHL1   C11 4030   1.727   0.420   4.050 -0.3626  0.2559  0.3410
   55CHL1  H11A 4031   1.707   0.312   4.035  0.4475 -0.4213  3.3406
   55CHL1  H11B 4032   1.650   0.482   4.000 -2.3243 -1.3963  1.1645
   55CHL1    C9 4033   1.872   0.453   3.998 -0.3425 -0.2508  0.2930
   55CHL1    H9 4034   1.877   0.564   4.007 -4.1778 -0.0973  3.3539
   55CHL1   C10 4035   1.890   0.418   3.839  0.0393  0.0458 -0.0026
   55CHL1   C19 4036   1.855   0.270   3.811  0.1428  0.0011 -0.0987
   55CHL1  H19A 4037   1.881   0.231   3.710 -1.6245 -0.7442 -0.3036
   55CHL1  H19B 4038   1.893   0.196   3.885  1.0677  1.9652  1.4744
   55CHL1  H19C 4039   1.747   0.253   3.833  0.0398  1.2784  0.4577
   55CHL1    C1 4040   1.794   0.502   3.747  0.3064  0.3240  0.5353
   55CHL1   H1A 4041   1.692   0.460   3.764 -0.3019  1.6214  0.2122
   55CHL1   H1B 4042   1.782   0.608   3.778 -3.5238  0.1049  0.3077
   55CHL1    C2 4043   1.830   0.509   3.604 -0.6671  0.3211 -0.0201
   55CHL1   H2A 4044   1.774   0.586   3.548  1.1174  0.3642 -1.8205
   55CHL1   H2B 4045   1.801   0.413   3.555 -0.6281  0.6012 -0.5947
   55CHL1   C20 4046   1.726   0.297   4.529  0.4536 -0.2019 -0.3008
   55CHL1   H20 4047   1.751   0.190   4.515  1.5850 -0.1880  1.3620
   55CHL1   C21 4048   1.576   0.311   4.489  0.3665 -0.0297 -0.3166
   55CHL1  H21A 4049   1.554   0.232   4.414  0.5209  0.8889 -1.3577
   55CHL1  H21B 4050   1.564   0.409   4.438  2.1195 -0.7126 -2.2090
   55CHL1  H21C 4051   1.504   0.306   4.573  0.2007 -0.7633 -0.4899
   55CHL1   C22 4052   1.756   0.327   4.681 -0.0552  0.4931 -0.1476
   55CHL1  H22A 4053   1.863   0.315   4.709  0.3559 -1.0714 -2.1953
   55CHL1  H22B 4054   1.744   0.436   4.698  0.2861  1.2594 -4.0704
   55CHL1   C23 4055   1.678   0.239   4.778  0.3560 -0.0504  0.7792
   55CHL1  H23A 4056   1.569   0.259   4.775 -0.0507 -2.0300  0.8758
   55CHL1  H23B 4057   1.681   0.135   4.739 -2.1702 -0.0329  0.3450
   55CHL1   C24 4058   1.723   0.244   4.921  0.2738 -0.9825 -0.2464
   55CHL1  H24A 4059   1.831   0.222   4.941  0.6589  0.8527 -0.1440
   55CHL1  H24B 4060   1.705   0.347   4.959 -1.1955 -1.2964 -0.0531
   55CHL1   C25 4061   1.627   0.163   5.016  0.8386  0.0633 -0.1922
   55CHL1   H25 4062   1.524   0.197   4.992  0.3098 -0.0419  1.7146
   55CHL1   C26 4063   1.637   0.012   4.991  0.4478 -0.1944 -0.4320
   55CHL1  H26A 4064   1.740  -0.023   5.014  0.9620 -0.9811 -3.4854
   55CHL1  H26B 4065   1.562  -0.035   5.059  1.1713  0.0167  0.5228
   55CHL1  H26C 4066   1.605  -0.021   4.890 -2.5210 -1.0079  0.6460
   55CHL1   C27 4067   1.660   0.197   5.167  0.8979 -0.3683  0.3506
   55CHL1  H27A 4068   1.592   0.144   5.239  1.5105  1.7452  2.6233
   55CHL1  H27B 4069   1.764   0.160   5.182  0.7485 -1.7082 -1.5432
   55CHL1  H27C 4070   1.641   0.302   5.198  0.9995 -0.7572  1.8448
   56CHL1    C3 4071   3.139   6.896   3.014 -0.4507  0.3519 -0.0010
   56CHL1    H3 4072   3.051   6.840   2.978 -0.8225  0.7382  0.2893
   56CHL1    O3 4073   3.199   6.958   2.903 -0.5911 -0.4383 -0.2319
   56CHL1   H3' 4074   3.140   7.032   2.884  1.0481  0.8340 -0.5644
   56CHL1    C4 4075   3.098   7.010   3.112 -0.0116  0.2363  0.0233
   56CHL1   H4A 4076   3.185   7.074   3.139  0.3742 -0.6871  1.0837
   56CHL1   H4B 4077   3.015   7.064   3.063  1.8334  3.3904  0.1247
   56CHL1    C5 4078   3.054   6.944   3.243  0.9191 -0.2331 -0.6974
   56CHL1    C6 4079   2.930   6.977   3.286 -0.0619  0.0850 -0.3503
   56CHL1    H6 4080   2.870   7.046   3.226  0.7231  1.0344 -0.0616
   56CHL1    C7 4081   2.869   6.920   3.411 -0.3382  0.5537  0.0642
   56CHL1   H7A 4082   2.813   7.001   3.462  0.6349  0.8964  0.6211
   56CHL1   H7B 4083   2.796   6.842   3.379  1.1962 -0.4457 -1.2034
   56CHL1    C8 4084   2.977   6.854   3.504  0.1456  0.1822  0.0833
   56CHL1    H8 4085   3.028   6.932   3.564 -0.9035  2.1346 -1.4743
   56CHL1   C14 4086   2.905   6.759   3.603  0.2583  0.4990 -0.1556
   56CHL1   H14 4087   2.856   6.681   3.541  1.1066  0.5502 -0.9140
   56CHL1   C15 4088   2.790   6.818   3.681  0.5654 -0.4325  0.4144
   56CHL1  H15A 4089   2.826   6.903   3.742  2.1686  0.1026 -1.2029
   56CHL1  H15B 4090   2.701   6.849   3.623  0.5859  0.4788  0.8564
   56CHL1   C16 4091   2.758   6.704   3.779 -0.4582 -0.0324  0.6534
   56CHL1  H16A 4092   2.761   6.748   3.881  1.4973 -1.1255  1.1093
   56CHL1  H16B 4093   2.660   6.656   3.757  1.8093 -3.5715 -2.9417
   56CHL1   C17 4094   2.874   6.599   3.774 -0.8149  0.1469  0.0512
   56CHL1   H17 4095   2.845   6.516   3.707  1.9641 -0.3890 -0.6006
   56CHL1   C13 4096   2.991   6.674   3.693 -0.5675  0.2953  0.3008
   56CHL1   C18 4097   3.073   6.769   3.791 -0.0625  0.5707  0.1511
   56CHL1  H18A 4098   3.004   6.830   3.854  0.6303  1.2949  0.2263
   56CHL1  H18B 4099   3.132   6.702   3.858 -2.5301 -0.5731  1.3063
   56CHL1  H18C 4100   3.143   6.838   3.740  0.9674 -1.2094 -0.9196
   56CHL1   C12 4101   3.091   6.593   3.614  0.0792  0.3462  0.5668
   56CHL1  H12A 4102   3.173   6.554   3.679  0.9399 -2.2760 -1.8760
   56CHL1  H12B 4103   3.058   6.494   3.575  1.9309 -0.6436  1.3642
   56CHL1   C11 4104   3.169   6.671   3.511  0.0592  0.8829  0.2867
   56CHL1  H11A 4105   3.244   6.730   3.567  0.5322  1.5735 -1.0146
   56CHL1  H11B 4106   3.222   6.599   3.446 -0.8226  0.9476 -0.5355
   56CHL1    C9 4107   3.079   6.762   3.422  0.5175 -0.3602  0.2562
   56CHL1    H9 4108   3.013   6.696   3.363 -1.0135  2.5627 -1.5299
   56CHL1   C10 4109   3.152   6.843   3.313  0.8824  0.0182 -0.1365
   56CHL1   C19 4110   3.268   6.919   3.384  0.5030  0.0915  0.0542
   56CHL1  H19A 4111   3.236   6.978   3.473  0.9723  1.8322 -0.8726
   56CHL1  H19B 4112   3.348   6.854   3.426  1.8647  2.1374  0.8529
   56CHL1  H19C 4113   3.319   6.986   3.311  0.4870  0.0610  0.0153
   56CHL1    C1 4114   3.196   6.745   3.211 -0.0849  0.2341 -0.3649
   56CHL1   H1A 4115   3.281   6.690   3.256 -1.2976 -1.7339 -0.3829
   56CHL1   H1B 4116   3.116   6.668   3.205 -0.2444  0.3025  0.5948
   56CHL1    C2 4117   3.245   6.813   3.081 -0.1740  0.3007 -0.1058
   56CHL1   H2A 4118   3.276   6.737   3.007  1.3869 -1.2507  2.0148
   56CHL1   H2B 4119   3.330   6.881   3.106 -0.8249  0.6150  1.4124
   56CHL1   C20 4120   2.914   6.539   3.907  0.3053  0.1057  0.2605
   56CHL1   H20 4121   2.962   6.617   3.969  0.7798  0.5929 -0.6846
   56CHL1   C21 4122   3.006   6.423   3.877 -0.2196  0.2552  0.3780
   56CHL1  H21A 4123   2.949   6.361   3.804  0.3574 -0.6588  0.6801
   56CHL1  H21B 4124   3.024   6.364   3.969  2.4588  0.4587  0.0635
   56CHL1  H21C 4125   3.106   6.447   3.835 -0.2185  2.1698  1.3727
   56CHL1   C22 4126   2.794   6.479   3.980  0.0645  0.0869 -0.7867
   56CHL1  H22A 4127   2.714   6.556   3.991  1.8940  1.9940  0.0231
   56CHL1  H22B 4128   2.753   6.394   3.920  0.1436 -1.5042  1.3235
   56CHL1   C23 4129   2.805   6.414   4.127 -0.5327  0.3945 -0.3697
   56CHL1  H23A 4130   2.706   6.369   4.147  0.3090 -0.3416  2.6719
   56CHL1  H23B 4131   2.879   6.332   4.129 -0.7107  0.2028  2.2946
   56CHL1   C24 4132   2.835   6.508   4.232 -0.9424  0.4825 -0.6485
   56CHL1  H24A 4133   2.938   6.548   4.219 -0.9609  0.5840 -0.4760
   56CHL1  H24B 4134   2.771   6.598   4.239 -0.1821  0.9764  0.1744
   56CHL1   C25 4135   2.827   6.445   4.369 -0.7651 -0.3935 -0.7923
   56CHL1   H25 4136   2.719   6.435   4.390 -0.1535 -1.6487  2.3380
   56CHL1   C26 4137   2.895   6.303   4.387  0.2654  0.5397 -0.2664
   56CHL1  H26A 4138   3.004   6.309   4.368  0.6676 -0.7401  1.4775
   56CHL1  H26B 4139   2.885   6.272   4.493  0.2328  2.1341  0.2120
   56CHL1  H26C 4140   2.846   6.233   4.315  1.3746  0.5623 -1.0806
   56CHL1   C27 4141   2.886   6.536   4.479 -0.1713  0.3643 -0.2630
   56CHL1  H27A 4142   2.996   6.553   4.477  0.1929 -1.7262 -1.1557
   56CHL1  H27B 4143   2.846   6.639   4.474  2.9537  1.6449 -1.0454
   56CHL1  H27C 4144   2.853   6.494   4.576  2.8975 -1.0628  0.2841
   57SAPC     N 4145   1.286   0.396   7.494  0.4368  0.4863 -0.0474
   57SAPC   C12 4146   1.318   0.430   7.353 -0.3526 -0.0771  0.0281
   57SAPC  H12A 4147   1.231   0.414   7.292 -0.1289 -2.9403  0.3419
   57SAPC  H12B 4148   1.396   0.368   7.311 -0.9609 -0.9825  0.2219
   57SAPC   C13 4149   1.211   0.266   7.487  0.0036  0.3712  0.0940
   57SAPC  H13A 4150   1.264   0.184   7.440 -1.1295  0.1900 -0.9161
   57SAPC  H13B 4151   1.174   0.226   7.580 -1.9966 -0.4701 -0.9887
   57SAPC  H13C 4152   1.118   0.278   7.432 -0.8631 -1.7055  0.9767
   57SAPC   C14 4153   1.411   0.375   7.572 -0.1191  0.4162 -0.0861
   57SAPC  H14A 4154   1.386   0.340   7.671  1.1156  0.1579  0.1502
   57SAPC  H14B 4155   1.481   0.305   7.530  0.2832 -0.1492  1.4320
   57SAPC  H14C 4156   1.465   0.468   7.582 -1.1504  1.1863 -1.4329
   57SAPC   C15 4157   1.191   0.495   7.555 -0.1578  0.6886 -0.4283
   57SAPC  H15A 4158   1.224   0.597   7.544  0.3308  0.4978 -0.7522
   57SAPC  H15B 4159   1.096   0.478   7.506  0.2141 -2.1892 -0.2972
   57SAPC  H15C 4160   1.179   0.471   7.660  2.7882  0.1496 -0.1396
   57SAPC   C11 4161   1.355   0.576   7.329 -0.5155  1.0229 -0.2212
   57SAPC  H11A 4162   1.391   0.572   7.224  0.0337 -1.0117 -0.0122
   57SAPC  H11B 4163   1.440   0.609   7.393 -1.3834  0.0235  1.5351
   57SAPC     P 4164   1.237   0.800   7.402  0.1209 -0.0105 -0.4806
   57SAPC   O13 4165   1.100   0.859   7.390 -0.4105  0.4371  0.3882
   57SAPC   O14 4166   1.284   0.791   7.544  0.3369  0.4400  0.7407
   57SAPC   O12 4167   1.239   0.664   7.324 -0.0109  0.5762  0.1621
   57SAPC   O11 4168   1.339   0.894   7.328 -0.0585 -1.1031  0.1464
   57SAPC    C1 4169   1.388   0.897   7.198  0.0969 -0.2729  0.6755
   57SAPC    HA 4170   1.470   0.971   7.191 -0.3127  0.0838 -0.5827
   57SAPC    HB 4171   1.429   0.796   7.173  1.8990  0.3292  1.0144
   57SAPC    C2 4172   1.284   0.934   7.084 -0.0800  0.0108 -0.0115
   57SAPC    HS 4173   1.248   1.037   7.105  1.0548  0.4911 -0.3625
   57SAPC   O21 4174   1.187   0.833   7.068 -0.3797 -0.3098 -0.5311
   57SAPC   C21 4175   1.073   0.871   7.033 -0.0015 -0.0257  0.1006
   57SAPC   O22 4176   1.039   0.988   7.005  0.0749  0.4242 -0.2366
   57SAPC   C22 4177   0.977   0.755   7.036 -0.5018  0.0798 -0.4525
   57SAPC   H2R 4178   0.987   0.719   7.141 -0.1221  1.7248  0.0989
   57SAPC   H2S 4179   0.874   0.795   7.022 -0.5464 -0.5462 -2.1131
   57SAPC    C3 4180   1.360   0.945   6.944 -0.0376 -0.3606  0.3668
   57SAPC    HX 4181   1.399   0.845   6.913  0.5242  0.4143 -1.5763
   57SAPC    HY 4182   1.446   1.011   6.968  1.5504 -1.8865 -0.8721
   57SAPC   O31 4183   1.285   0.998   6.834 -0.0661 -1.1053  0.0109
   57SAPC   C31 4184   1.265   1.130   6.834  0.1471  0.3914 -0.5370
   57SAPC   O32 4185   1.327   1.215   6.896  0.0349  0.1677  0.0288
   57SAPC   C32 4186   1.153   1.159   6.731 -0.1365  0.3489  0.0381
   57SAPC   H2X 4187   1.073   1.215   6.785  2.2764  1.1683  3.0383
   57SAPC   H2Y 4188   1.101   1.072   6.686 -1.3756 -0.7302  3.2402
   57SAPC   C23 4189   0.999   0.646   6.922 -0.3549 -0.3872 -0.7429
   57SAPC   H3R 4190   0.934   0.561   6.952  0.7687 -0.5958  1.3104
   57SAPC   H3S 4191   1.104   0.613   6.914 -0.2882 -0.4708  0.3089
   57SAPC   C24 4192   0.955   0.713   6.796 -0.7851  0.5808  0.7484
   57SAPC   H4R 4193   1.005   0.810   6.776 -3.7367  1.7730 -1.6065
   57SAPC   H4S 4194   0.848   0.740   6.795 -1.1297 -0.7103 -0.6704
   57SAPC   C25 4195   0.959   0.616   6.678 -0.8629 -0.0208  0.2806
   57SAPC   H5R 4196   0.894   0.528   6.693 -1.9696  0.5672 -0.9292
   57SAPC   C26 4197   1.024   0.638   6.566 -0.4506 -0.1208  0.4186
   57SAPC   H6R 4198   1.027   0.558   6.491 -0.8031 -0.0099  0.2874
   57SAPC   C27 4199   1.119   0.746   6.533  0.0452 -0.8826 -0.4972
   57SAPC   H7R 4200   1.197   0.713   6.461 -2.2313 -0.6561 -3.1963
   57SAPC   H7S 4201   1.163   0.761   6.635  0.3307 -1.6336 -0.5045
   57SAPC   C28 4202   1.046   0.872   6.496  0.1492 -0.8688  0.8957
   57SAPC   H8R 4203   0.997   0.934   6.573  1.2229 -0.4877  1.2802
   57SAPC   C29 4204   1.021   0.924   6.373  0.1622 -0.4439 -0.7307
   57SAPC   H9R 4205   0.947   1.005   6.364  1.6478  1.2285  1.3115
   57SAPC  C210 4206   1.063   0.868   6.242  0.1064 -0.0955 -0.3249
   57SAPC  H10R 4207   0.986   0.810   6.186  0.3424 -0.0758 -0.6740
   57SAPC  H10S 4208   1.149   0.800   6.261  3.2009  3.0211 -2.0419
   57SAPC  C211 4209   1.121   0.979   6.163  0.2110 -0.1517 -0.1929
   57SAPC  H11R 4210   1.180   1.049   6.224 -0.3794 -0.1283  0.3686
   57SAPC  C212 4211   1.115   0.999   6.034  0.6058 -0.2804 -0.3159
   57SAPC  H12R 4212   1.178   1.081   5.997  0.6732  0.6843  1.8150
   57SAPC  C213 4213   1.047   0.913   5.930  0.2194  0.0223  0.0653
   57SAPC  H13R 4214   0.938   0.916   5.952  0.0420  0.5674 -0.8136
   57SAPC  H13S 4215   1.083   0.809   5.945  2.0001  0.2864 -1.8907
   57SAPC  C214 4216   1.048   0.949   5.787  0.6064 -0.9778  0.7358
   57SAPC  H14R 4217   1.146   0.973   5.743  0.0488 -2.2086 -1.3218
   57SAPC  C215 4218   0.947   0.960   5.701 -0.1951 -0.0594 -0.2262
   57SAPC  H15R 4219   0.972   0.994   5.599 -0.0357 -0.1346 -0.2128
   57SAPC  C216 4220   0.800   0.919   5.708 -0.2600 -0.1195  0.0020
   57SAPC  H16R 4221   0.776   0.911   5.816  1.5998 -0.2118  0.4541
   57SAPC  H16S 4222   0.788   0.813   5.678 -0.3829 -0.2238  0.4149
   57SAPC  C217 4223   0.700   1.025   5.635  0.1743  1.2255  0.0578
   57SAPC  H17R 4224   0.710   1.123   5.687  0.3640  1.4667 -0.4244
   57SAPC  H17S 4225   0.596   0.990   5.654  1.0413 -0.5898  1.9565
   57SAPC  C218 4226   0.710   1.034   5.488 -0.0712  0.0245 -0.0657
   57SAPC  H18R 4227   0.712   0.934   5.441  1.9382  0.4094 -0.9009
   57SAPC  H18S 4228   0.802   1.080   5.447 -1.2555  2.7388  0.1024
   57SAPC  C219 4229   0.590   1.112   5.424 -0.2491 -0.5899 -0.6507
   57SAPC  H19R 4230   0.616   1.219   5.440  3.0849 -1.1837 -1.2739
   57SAPC  H19S 4231   0.497   1.081   5.475 -0.5545  0.4202 -0.5829
   57SAPC  C220 4232   0.586   1.096   5.280  0.1560  0.1608 -0.6261
   57SAPC  H20R 4233   0.577   0.990   5.252 -0.9129 -0.4348  1.6937
   57SAPC  H20S 4234   0.682   1.132   5.236  0.3231  0.4414 -0.0512
   57SAPC  H20T 4235   0.501   1.145   5.229 -0.1419 -0.8711 -1.1397
   57SAPC   C33 4236   1.200   1.266   6.622  0.1983  0.1967  0.0922
   57SAPC   H3X 4237   1.235   1.361   6.667  2.6472  0.1334 -1.4846
   57SAPC   H3Y 4238   1.108   1.286   6.564 -0.0856 -1.8680 -0.2529
   57SAPC   C34 4239   1.309   1.214   6.532  0.0752  0.7833 -0.4465
   57SAPC   H4X 4240   1.268   1.128   6.475 -0.6134  1.8118 -1.5711
   57SAPC   H4Y 4241   1.405   1.195   6.585  0.2881  0.9510 -0.7634
   57SAPC   C35 4242   1.334   1.320   6.423  0.2479  0.4824 -0.4864
   57SAPC   H5X 4243   1.341   1.424   6.462  0.5951  0.5577 -0.7534
   57SAPC   H5Y 4244   1.244   1.325   6.358 -0.9304 -1.6972  0.8356
   57SAPC   C36 4245   1.468   1.299   6.352  0.2078 -0.2549 -0.4645
   57SAPC   H6X 4246   1.544   1.248   6.416  1.9054 -0.9417 -2.9097
   57SAPC   H6Y 4247   1.514   1.394   6.319  1.0040 -0.5615 -0.2786
   57SAPC   C37 4248   1.473   1.219   6.226 -0.0388 -0.2319  0.4796
   57SAPC   H7X 4249   1.434   1.116   6.243  0.8984 -1.0129 -1.7865
   57SAPC   H7Y 4250   1.578   1.217   6.191  0.7139  0.8807  2.5064
   57SAPC   C38 4251   1.381   1.285   6.119  0.0852  0.1691  0.0736
   57SAPC   H8X 4252   1.382   1.396   6.116 -0.5079  0.2250  1.3979
   57SAPC   H8Y 4253   1.278   1.246   6.131  0.9805 -2.9605 -1.2644
   57SAPC   C39 4254   1.407   1.243   5.973 -0.6932 -0.0627  0.3716
   57SAPC   H9X 4255   1.314   1.251   5.912 -1.4172 -2.6974  0.9922
   57SAPC   H9Y 4256   1.458   1.144   5.966 -0.6636 -0.1751  1.9284
   57SAPC  C310 4257   1.511   1.339   5.898  0.4344  0.4421  0.2257
   57SAPC  H10X 4258   1.613   1.309   5.929  0.6003  0.4125 -0.3446
   57SAPC  H10Y 4259   1.492   1.445   5.926 -1.5019  0.2800 -0.2849
   57SAPC  C311 4260   1.510   1.299   5.746  0.8483  0.0839  0.4144
   57SAPC  H11X 4261   1.405   1.311   5.710  1.0775  2.9090  0.4901
   57SAPC  H11Y 4262   1.543   1.193   5.738  0.0663 -0.1093 -0.4316
   57SAPC  C312 4263   1.597   1.400   5.661  0.1342  0.3635  0.4072
   57SAPC  H12X 4264   1.700   1.379   5.696  0.7859 -0.3836 -1.7883
   57SAPC  H12Y 4265   1.563   1.505   5.674 -0.6268  0.1008  0.6049
   57SAPC  C313 4266   1.598   1.363   5.518  0.4430  0.0333  0.5067
   57SAPC  H13X 4267   1.502   1.317   5.489  0.2567  0.8344 -0.1903
   57SAPC  H13Y 4268   1.687   1.300   5.498 -0.6291 -1.6656  0.8785
   57SAPC  C314 4269   1.602   1.482   5.419 -0.1800 -0.4998  0.3878
   57SAPC  H14X 4270   1.702   1.531   5.418 -1.1910  1.7102 -1.2785
   57SAPC  H14Y 4271   1.522   1.554   5.447  0.0502 -0.0040 -0.2097
   57SAPC  C315 4272   1.561   1.444   5.283 -0.7594 -0.2130 -0.8608
   57SAPC  H15X 4273   1.450   1.432   5.281 -0.8933 -0.5148  2.3650
   57SAPC  H15Y 4274   1.613   1.352   5.248 -0.5440 -0.6403  0.5074
   57SAPC  C316 4275   1.602   1.550   5.181 -0.3509 -0.3076 -0.1128
   57SAPC  H16X 4276   1.709   1.532   5.156 -0.9739 -3.5978 -0.7609
   57SAPC  H16Y 4277   1.598   1.654   5.221  0.4221  0.5428 -2.1057
   57SAPC  C317 4278   1.519   1.546   5.052  0.1555  0.5573  0.4962
   57SAPC  H17X 4279   1.440   1.624   5.059 -1.4484 -0.8126 -1.2151
   57SAPC  H17Y 4280   1.469   1.450   5.026  0.5320  0.7128 -0.8428
   57SAPC  C318 4281   1.612   1.576   4.931  0.0015 -0.6217 -0.9928
   57SAPC  H18X 4282   1.657   1.675   4.952 -2.6577  0.4484  0.1063
   57SAPC  H18Y 4283   1.554   1.600   4.840  0.5434 -2.2401 -1.8119
   57SAPC  H18Z 4284   1.695   1.504   4.913  1.7069  0.3436  2.2076
   58SAPC     N 4285   5.238   6.522   6.931 -0.1061  0.4202 -0.1825
   58SAPC   C12 4286   5.267   6.630   7.036 -0.3566 -0.1635  0.4986
   58SAPC  H12A 4287   5.373   6.633   7.057  0.4464 -1.5381 -2.7210
   58SAPC  H12B 4288   5.209   6.593   7.119 -0.6695 -2.0071 -0.4820
   58SAPC   C13 4289   5.091   6.508   6.904 -0.7305  0.3272 -0.2172
   58SAPC  H13A 4290   5.069   6.427   6.838 -2.9334  0.4496  0.2989
   58SAPC  H13B 4291   5.042   6.485   6.997  0.6427  2.7950  1.2481
   58SAPC  H13C 4292   5.046   6.601   6.870 -0.4241 -0.0102 -1.6018
   58SAPC   C14 4293   5.299   6.562   6.802  0.0775  0.1906  0.2193
   58SAPC  H14A 4294   5.284   6.489   6.723 -1.4166  2.1394 -1.4360
   58SAPC  H14B 4295   5.248   6.650   6.764 -1.7137 -0.7681  0.2904
   58SAPC  H14C 4296   5.402   6.593   6.802  1.0325 -2.6858 -0.8901
   58SAPC   C15 4297   5.293   6.392   6.987 -0.1952 -0.1580  0.4844
   58SAPC  H15A 4298   5.391   6.409   7.028 -0.2827 -0.7319  0.9543
   58SAPC  H15B 4299   5.226   6.350   7.060  0.3691 -1.3066  0.3671
   58SAPC  H15C 4300   5.321   6.318   6.914  1.1417  0.4321  0.3723
   58SAPC   C11 4301   5.226   6.775   7.000 -0.0770 -0.6109 -0.2060
   58SAPC  H11A 4302   5.282   6.809   6.911  2.0381 -1.6062  0.6745
   58SAPC  H11B 4303   5.252   6.845   7.083 -1.5904  0.1988 -0.3739
   58SAPC     P 4304   4.985   6.859   7.052  0.0389 -0.3451 -0.3774
   58SAPC   O13 4305   4.845   6.822   7.007  0.4905  0.3357 -0.5355
   58SAPC   O14 4306   5.010   6.837   7.195 -0.2107 -0.1324  0.1652
   58SAPC   O12 4307   5.089   6.787   6.963  0.8190 -0.5533  0.1989
   58SAPC   O11 4308   5.007   7.008   7.015  0.1217  0.4023  0.0447
   58SAPC    C1 4309   4.977   7.075   6.891  0.1313  0.5130 -0.3938
   58SAPC    HA 4310   4.925   7.009   6.818  0.7361  2.2904 -2.5810
   58SAPC    HB 4311   4.896   7.151   6.904 -1.9930 -1.3101 -2.0534
   58SAPC    C2 4312   5.110   7.122   6.824  0.2194 -0.6937  0.5801
   58SAPC    HS 4313   5.162   7.028   6.797  0.9030 -0.0011 -0.6238
   58SAPC   O21 4314   5.183   7.211   6.907  0.3692 -0.3370 -0.1960
   58SAPC   C21 4315   5.308   7.199   6.883  0.4594  0.3488  0.4216
   58SAPC   O22 4316   5.353   7.122   6.795 -0.4236 -0.1260 -0.4440
   58SAPC   C22 4317   5.380   7.309   6.955 -0.5082 -0.2690 -0.1110
   58SAPC   H2R 4318   5.322   7.362   7.033 -0.4351 -1.3783  0.7262
   58SAPC   H2S 4319   5.466   7.258   7.004 -2.7760 -1.4336  2.9102
   58SAPC    C3 4320   5.078   7.205   6.687  0.1483  0.0066 -0.3013
   58SAPC    HX 4321   5.166   7.252   6.638  2.1698 -0.0638  2.9501
   58SAPC    HY 4322   5.013   7.289   6.721  1.8575  0.5200  1.9992
   58SAPC   O31 4323   4.987   7.123   6.609  0.3033 -0.2855  0.5541
   58SAPC   C31 4324   5.037   7.051   6.517 -0.3780 -0.5904  0.9805
   58SAPC   O32 4325   5.154   7.037   6.489 -0.7044  0.4341 -0.1529
   58SAPC   C32 4326   4.925   6.975   6.451 -0.8878  0.3001  0.1272
   58SAPC   H2X 4327   4.839   7.039   6.423 -0.1547  0.9871 -0.5916
   58SAPC   H2Y 4328   4.884   6.896   6.518 -1.9446  1.7353  1.2323
   58SAPC   C23 4329   5.431   7.420   6.858  0.7752  0.3513  0.5076
   58SAPC   H3R 4330   5.482   7.375   6.770 -0.2963  0.0749  0.0113
   58SAPC   H3S 4331   5.508   7.473   6.919  1.1337 -0.7902  1.0692
   58SAPC   C24 4332   5.309   7.502   6.806  0.2254  0.6697 -0.3243
   58SAPC   H4R 4333   5.249   7.515   6.898  0.7073 -2.3702  0.5494
   58SAPC   H4S 4334   5.248   7.448   6.731  1.9124 -2.0221  0.0883
   58SAPC   C25 4335   5.367   7.633   6.741 -0.3026  0.0873 -0.1874
   58SAPC   H5R 4336   5.346   7.724   6.801 -1.7199 -1.5004  1.9074
   58SAPC   C26 4337   5.401   7.644   6.613 -0.0186 -0.3867  0.7454
   58SAPC   H6R 4338   5.455   7.735   6.584  0.6964 -1.3045 -0.9167
   58SAPC   C27 4339   5.425   7.537   6.508 -0.4218  0.3836  1.1083
   58SAPC   H7R 4340   5.487   7.457   6.553  0.8761  1.2809  0.9909
   58SAPC   H7S 4341   5.488   7.581   6.428  0.2629 -0.3416  1.2455
   58SAPC   C28 4342   5.296   7.489   6.453 -0.5982  0.1165  0.8320
   58SAPC   H8R 4343   5.204   7.546   6.472 -1.1811 -0.5346  0.0216
   58SAPC   C29 4344   5.285   7.395   6.356 -0.7771 -0.5680 -0.8952
   58SAPC   H9R 4345   5.185   7.363   6.326 -0.4772 -3.1286  0.5353
   58SAPC  C210 4346   5.400   7.319   6.290  0.3760  0.3613 -0.3391
   58SAPC  H10R 4347   5.490   7.316   6.355  1.1368  2.6015 -1.1929
   58SAPC  H10S 4348   5.433   7.381   6.204 -1.6277  0.9716 -0.6995
   58SAPC  C211 4349   5.385   7.179   6.249 -0.1261 -0.0757 -1.3932
   58SAPC  H11R 4350   5.391   7.109   6.333 -0.5756 -0.4189 -1.6374
   58SAPC  C212 4351   5.342   7.135   6.133  0.3232  0.0737 -0.3357
   58SAPC  H12R 4352   5.347   7.026   6.122  0.6385 -0.0643  0.9263
   58SAPC  C213 4353   5.301   7.223   6.013  0.4228  0.3040 -0.3219
   58SAPC  H13R 4354   5.306   7.332   6.035 -3.2898  0.4058  0.7860
   58SAPC  H13S 4355   5.197   7.200   5.982 -0.5523  1.6654  1.6590
   58SAPC  C214 4356   5.400   7.211   5.901  0.2444 -0.0084  0.4481
   58SAPC  H14R 4357   5.505   7.191   5.927  0.1309  0.9603  1.6936
   58SAPC  C215 4358   5.368   7.205   5.771 -0.9841 -0.1234  0.1016
   58SAPC  H15R 4359   5.455   7.207   5.703 -0.9791 -1.7282  0.0385
   58SAPC  C216 4360   5.225   7.218   5.721  0.7945 -0.6220 -0.7075
   58SAPC  H16R 4361   5.167   7.298   5.773  0.6140 -2.0579  1.4046
   58SAPC  H16S 4362   5.164   7.126   5.733 -1.3897  0.6190 -1.6438
   58SAPC  C217 4363   5.228   7.243   5.570 -0.3185 -0.9949 -0.8625
   58SAPC  H17R 4364   5.291   7.165   5.522  1.3972  1.4066 -2.7584
   58SAPC  H17S 4365   5.272   7.344   5.557  0.0942 -0.8200  1.4852
   58SAPC  C218 4366   5.096   7.242   5.500  0.5106  0.4596  0.4402
   58SAPC  H18R 4367   5.056   7.344   5.520  2.5361  1.4143 -0.0760
   58SAPC  H18S 4368   5.030   7.171   5.553 -0.4154 -0.6554 -2.0170
   58SAPC  C219 4369   5.100   7.188   5.355  0.0273  0.2798  0.6233
   58SAPC  H19R 4370   4.992   7.167   5.342 -0.2939  1.5660  1.0761
   58SAPC  H19S 4371   5.166   7.100   5.346 -0.7870 -0.2056 -0.9155
   58SAPC  C220 4372   5.135   7.292   5.257  0.3812  0.6697 -0.1139
   58SAPC  H20R 4373   5.056   7.370   5.243  1.5397  1.7210 -1.0994
   58SAPC  H20S 4374   5.134   7.239   5.159 -1.3598 -0.1403  0.3087
   58SAPC  H20T 4375   5.232   7.344   5.269  0.1309  0.6842  2.4313
   58SAPC   C33 4376   4.960   6.891   6.325 -0.3420 -0.4624 -0.2016
   58SAPC   H3X 4377   4.891   6.806   6.304 -0.4985 -1.0948  2.5428
   58SAPC   H3Y 4378   5.062   6.850   6.344 -0.1309 -0.1620 -0.6551
   58SAPC   C34 4379   4.991   6.978   6.201  0.1560  0.0103  0.1885
   58SAPC   H4X 4380   5.079   7.045   6.212 -0.0906  0.5440 -1.0320
   58SAPC   H4Y 4381   4.898   7.037   6.190  0.5471  0.8662  1.2738
   58SAPC   C35 4382   5.010   6.886   6.075  0.8393  0.3495  0.3237
   58SAPC   H5X 4383   4.944   6.799   6.098 -0.7451  1.6797  1.0224
   58SAPC   H5Y 4384   5.113   6.845   6.065  1.3456  1.7119 -0.2362
   58SAPC   C36 4385   4.967   6.948   5.941 -0.3933 -0.7793  0.1565
   58SAPC   H6X 4386   5.050   7.017   5.918 -3.0872  2.5375 -0.3085
   58SAPC   H6Y 4387   4.873   7.006   5.949 -0.0595  0.0995 -1.9358
   58SAPC   C37 4388   4.947   6.840   5.836 -0.1615  0.3217  0.0879
   58SAPC   H7X 4389   4.875   6.766   5.877 -0.8221  0.2463 -1.1763
   58SAPC   H7Y 4390   5.038   6.779   5.819 -0.1156 -0.1136  1.6673
   58SAPC   C38 4391   4.913   6.909   5.706  0.1091  0.0458  0.7280
   58SAPC   H8X 4392   4.987   6.987   5.678 -1.3240  0.3690 -2.5881
   58SAPC   H8Y 4393   4.814   6.957   5.722 -0.1121 -0.7992  2.0884
   58SAPC   C39 4394   4.913   6.813   5.587  0.1217 -0.0219 -0.6135
   58SAPC   H9X 4395   4.806   6.785   5.579 -0.3018  1.7008 -1.4275
   58SAPC   H9Y 4396   4.981   6.727   5.605  0.1727  0.4129  1.5726
   58SAPC  C310 4397   4.950   6.889   5.456  0.1802 -0.4938  0.5660
   58SAPC  H10X 4398   5.060   6.899   5.464  0.3839 -1.2612 -0.9904
   58SAPC  H10Y 4399   4.900   6.988   5.464  2.5821  0.6984  1.7524
   58SAPC  C311 4400   4.920   6.810   5.327 -0.0422 -0.0898  0.5925
   58SAPC  H11X 4401   4.812   6.815   5.303  0.4896 -0.9719 -2.4121
   58SAPC  H11Y 4402   4.953   6.704   5.334  1.2269  0.1769 -0.7949
   58SAPC  C312 4403   4.994   6.885   5.214  0.1231  0.5245 -0.4716
   58SAPC  H12X 4404   5.102   6.893   5.237 -0.2077  1.7001  0.8251
   58SAPC  H12Y 4405   4.962   6.991   5.226 -2.2863 -0.2013  0.1523
   58SAPC  C313 4406   4.971   6.841   5.075  0.3551  1.1264  0.7324
   58SAPC  H13X 4407   4.864   6.811   5.073  0.7160 -0.2213 -0.5728
   58SAPC  H13Y 4408   5.030   6.749   5.055 -0.2810  1.1909 -1.7187
   58SAPC  C314 4409   5.001   6.945   4.968 -0.1435 -0.5006 -0.5760
   58SAPC  H14X 4410   4.928   7.028   4.977  0.4813  0.1936 -1.7854
   58SAPC  H14Y 4411   4.978   6.892   4.874 -0.6336 -2.0425  0.3684
   58SAPC  C315 4412   5.140   7.011   4.962 -0.0595  0.2763 -0.4810
   58SAPC  H15X 4413   5.208   6.923   4.960 -0.4551 -0.0787  0.8173
   58SAPC  H15Y 4414   5.156   7.055   5.063  0.9755 -2.0334  0.4366
   58SAPC  C316 4415   5.146   7.114   4.856 -0.1684  0.4859  0.4068
   58SAPC  H16X 4416   5.068   7.191   4.876  0.2015  0.8469  0.4664
   58SAPC  H16Y 4417   5.115   7.067   4.760 -2.1407  2.1852  0.1222
   58SAPC  C317 4418   5.282   7.185   4.831 -0.4972  0.2733  0.1600
   58SAPC  H17X 4419   5.377   7.137   4.864 -0.7730  1.0508  2.2251
   58SAPC  H17Y 4420   5.285   7.281   4.886  1.8359  0.4579 -0.1744
   58SAPC  C318 4421   5.289   7.224   4.687  0.3512  0.2591 -0.1314
   58SAPC  H18X 4422   5.292   7.132   4.624 -0.0152  0.5848 -0.6297
   58SAPC  H18Y 4423   5.377   7.289   4.673 -0.2791  1.9836  3.0355
   58SAPC  H18Z 4424   5.194   7.269   4.649 -0.1840 -1.6574 -1.2243
   59SAPC     N 4425   3.633   2.542   7.260  0.1136 -0.4698  0.2167
   59SAPC   C12 4426   3.644   2.441   7.152  0.1257  1.1008 -0.5135
   59SAPC  H12A 4427   3.748   2.430   7.124 -0.3213 -1.4210 -1.4063
   59SAPC  H12B 4428   3.593   2.469   7.061 -1.9981 -2.7942 -0.7119
   59SAPC   C13 4429   3.708   2.664   7.225  0.1948  0.5602 -0.0967
   59SAPC  H13A 4430   3.703   2.734   7.307 -2.3481 -1.0950  1.3145
   59SAPC  H13B 4431   3.811   2.638   7.206 -0.3551 -2.1010  0.1850
   59SAPC  H13C 4432   3.664   2.708   7.137  0.7064 -1.7618 -1.5936
   59SAPC   C14 4433   3.493   2.578   7.284  0.0052  0.0099 -0.0240
   59SAPC  H14A 4434   3.489   2.630   7.378  0.1107 -0.5678  0.3086
   59SAPC  H14B 4435   3.465   2.654   7.213  0.3616 -0.4368 -0.6517
   59SAPC  H14C 4436   3.426   2.493   7.280 -0.0123  0.0411 -0.3646
   59SAPC   C15 4437   3.689   2.484   7.381 -0.6829 -0.0910 -0.3011
   59SAPC  H15A 4438   3.776   2.423   7.360 -0.3145  0.1805  0.4211
   59SAPC  H15B 4439   3.712   2.563   7.451  0.6946 -0.9736  0.3001
   59SAPC  H15C 4440   3.622   2.416   7.432 -0.4153 -0.9333 -1.0375
   59SAPC   C11 4441   3.603   2.294   7.179  0.6384 -0.0772  0.2480
   59SAPC  H11A 4442   3.633   2.253   7.278 -1.0887 -0.8506  0.4761
   59SAPC  H11B 4443   3.654   2.234   7.100 -0.4892 -0.7461  0.0142
   59SAPC     P 4444   3.403   2.140   7.186 -0.2585  0.1269  0.1235
   59SAPC   O13 4445   3.461   2.069   7.305  0.2765  0.6543  0.7825
   59SAPC   O14 4446   3.257   2.158   7.187 -0.2358 -0.1558 -0.0526
   59SAPC   O12 4447   3.467   2.283   7.171 -0.2192 -1.3322 -0.5143
   59SAPC   O11 4448   3.447   2.061   7.055 -0.4296 -0.0686  0.4539
   59SAPC    C1 4449   3.433   2.118   6.926 -0.4674  0.4955 -0.1243
   59SAPC    HA 4450   3.441   2.229   6.934  2.6738  0.3544  0.2316
   59SAPC    HB 4451   3.524   2.099   6.864  1.3065  2.7772  1.5583
   59SAPC    C2 4452   3.298   2.076   6.859  0.0600  0.0647  0.5259
   59SAPC    HS 4453   3.225   2.096   6.940 -0.9670  1.4059 -0.6861
   59SAPC   O21 4454   3.307   1.933   6.815  0.9584 -0.4116  0.2349
   59SAPC   C21 4455   3.188   1.879   6.777 -0.2858  0.0965 -0.2795
   59SAPC   O22 4456   3.080   1.939   6.789 -0.0837  0.7383 -0.2037
   59SAPC   C22 4457   3.205   1.746   6.704  0.4650 -0.5951 -0.0117
   59SAPC   H2R 4458   3.142   1.679   6.765 -1.8937 -0.5764 -2.2689
   59SAPC   H2S 4459   3.160   1.758   6.604 -1.0443 -0.0658  0.7078
   59SAPC    C3 4460   3.266   2.162   6.726  1.1283 -0.5155 -0.5442
   59SAPC    HX 4461   3.297   2.264   6.757 -0.8516 -0.7079  2.5374
   59SAPC    HY 4462   3.155   2.161   6.715  1.3001 -1.6269 -2.8383
   59SAPC   O31 4463   3.316   2.111   6.603 -0.8381 -0.6357 -0.4215
   59SAPC   C31 4464   3.425   2.170   6.554  0.5874  0.1246  0.9205
   59SAPC   O32 4465   3.487   2.263   6.605 -0.1735 -0.1072 -0.6716
   59SAPC   C32 4466   3.447   2.124   6.404  0.6359 -0.1347 -0.1702
   59SAPC   H2X 4467   3.364   2.059   6.370  0.6746 -1.2452  1.6967
   59SAPC   H2Y 4468   3.547   2.076   6.393  0.8003  0.2192 -0.2552
   59SAPC   C23 4469   3.349   1.690   6.701 -0.5109 -0.4129  0.0353
   59SAPC   H3R 4470   3.328   1.583   6.680 -1.5357 -0.0880 -0.7089
   59SAPC   H3S 4471   3.403   1.686   6.798  0.0145 -0.8990 -0.2737
   59SAPC   C24 4472   3.432   1.755   6.586  0.1388 -1.1755  0.1405
   59SAPC   H4R 4473   3.422   1.864   6.606 -0.4009 -1.4734  1.6371
   59SAPC   H4S 4474   3.386   1.743   6.486  3.1376 -1.1336 -1.3700
   59SAPC   C25 4475   3.583   1.721   6.570 -0.3175 -0.4564  0.1902
   59SAPC   H5R 4476   3.642   1.741   6.660  0.8091  2.2582 -1.0596
   59SAPC   C26 4477   3.659   1.671   6.466  0.1553  1.0164 -0.1559
   59SAPC   H6R 4478   3.765   1.652   6.490 -0.5424  0.1083  2.5108
   59SAPC   C27 4479   3.622   1.641   6.326  0.0572 -0.3092  0.5794
   59SAPC   H7R 4480   3.513   1.657   6.313 -0.1163 -1.5115  0.4775
   59SAPC   H7S 4481   3.633   1.532   6.307 -4.3799 -0.7424 -0.5356
   59SAPC   C28 4482   3.703   1.729   6.223  0.3310  0.1800 -0.0019
   59SAPC   H8R 4483   3.677   1.836   6.218  0.4103  0.1621 -0.9868
   59SAPC   C29 4484   3.805   1.708   6.133  0.3260  0.0463 -0.2193
   59SAPC   H9R 4485   3.846   1.790   6.073  2.5074 -0.3641  0.6022
   59SAPC  C210 4486   3.879   1.580   6.100 -0.0724 -0.6428 -0.3764
   59SAPC  H10R 4487   3.942   1.545   6.185 -0.7440 -2.4920 -0.5879
   59SAPC  H10S 4488   3.946   1.611   6.017 -0.8908 -0.3127 -0.9225
   59SAPC  C211 4489   3.792   1.465   6.060 -0.1876 -0.4805 -0.9204
   59SAPC  H11R 4490   3.689   1.464   6.101  0.5230 -0.0713  0.9559
   59SAPC  C212 4491   3.822   1.375   5.963  0.2376  0.0956 -0.2117
   59SAPC  H12R 4492   3.751   1.295   5.939  1.1938 -0.5726 -0.8801
   59SAPC  C213 4493   3.962   1.367   5.907 -0.3775  0.1447  0.0953
   59SAPC  H13R 4494   4.037   1.377   5.989  0.2680  1.1792 -0.5931
   59SAPC  H13S 4495   3.984   1.459   5.849  1.5693 -0.6413 -0.5094
   59SAPC  C214 4496   4.001   1.254   5.820  0.3301 -0.4853  0.1731
   59SAPC  H14R 4497   4.020   1.160   5.874 -1.5601 -0.7458  0.4685
   59SAPC  C215 4498   4.008   1.249   5.685  0.3914 -0.4213  0.3938
   59SAPC  H15R 4499   4.036   1.154   5.637  0.1706 -0.0248 -0.5424
   59SAPC  C216 4500   3.974   1.362   5.594  0.2759 -0.0899 -0.0701
   59SAPC  H16R 4501   4.063   1.367   5.528  0.4364 -3.5964 -0.2997
   59SAPC  H16S 4502   3.962   1.464   5.636  0.6160 -0.4658  0.9740
   59SAPC  C217 4503   3.842   1.352   5.513  0.2936  0.4242 -0.2481
   59SAPC  H17R 4504   3.841   1.248   5.474 -1.0791 -0.8118  2.7613
   59SAPC  H17S 4505   3.851   1.430   5.433  1.9777  0.0503 -0.4569
   59SAPC  C218 4506   3.707   1.368   5.589  0.1028 -0.5578  0.5959
   59SAPC  H18R 4507   3.695   1.469   5.634 -1.7885 -1.3694  2.0721
   59SAPC  H18S 4508   3.713   1.300   5.677  0.0298 -0.5406  0.6148
   59SAPC  C219 4509   3.590   1.321   5.502  0.1707 -0.0559 -0.0480
   59SAPC  H19R 4510   3.593   1.210   5.498 -1.4388 -0.3603  3.7449
   59SAPC  H19S 4511   3.601   1.365   5.400  0.7177  0.8386  0.3867
   59SAPC  C220 4512   3.443   1.346   5.560 -0.5942 -0.3331  0.3765
   59SAPC  H20R 4513   3.452   1.457   5.561  3.7072 -0.4059 -2.4422
   59SAPC  H20S 4514   3.429   1.304   5.662 -2.7277  2.5315  1.4350
   59SAPC  H20T 4515   3.367   1.310   5.488 -0.1643 -1.0636  0.2745
   59SAPC   C33 4516   3.454   2.246   6.299 -0.2703  0.1613 -0.2805
   59SAPC   H3X 4517   3.543   2.309   6.322 -1.9558  3.0191 -1.1152
   59SAPC   H3Y 4518   3.375   2.322   6.311  0.1046  0.5235 -0.0843
   59SAPC   C34 4519   3.448   2.207   6.155  0.5779 -0.0592 -0.7232
   59SAPC   H4X 4520   3.455   2.301   6.097 -1.5044  0.7068  0.1697
   59SAPC   H4Y 4521   3.344   2.170   6.137  0.4886  0.6000 -1.6614
   59SAPC   C35 4522   3.567   2.112   6.119 -0.3546 -0.0717  0.1185
   59SAPC   H5X 4523   3.538   2.004   6.124 -0.5467 -0.1472 -1.7628
   59SAPC   H5Y 4524   3.649   2.125   6.192 -0.8062 -0.3273  0.6812
   59SAPC   C36 4525   3.625   2.141   5.979  0.0695  0.1681  0.2302
   59SAPC   H6X 4526   3.667   2.244   5.976  0.0862  0.3721  3.4150
   59SAPC   H6Y 4527   3.554   2.139   5.894  1.3384 -0.8296 -0.8673
   59SAPC   C37 4528   3.744   2.048   5.937 -0.6252 -0.5082 -0.5645
   59SAPC   H7X 4529   3.697   1.948   5.944 -0.5798 -0.7326 -2.6590
   59SAPC   H7Y 4530   3.824   2.062   6.013 -0.8499  0.6175 -0.5164
   59SAPC   C38 4531   3.789   2.072   5.793 -0.0832 -0.2977 -0.1896
   59SAPC   H8X 4532   3.898   2.050   5.782  0.6385  1.4303  2.6254
   59SAPC   H8Y 4533   3.778   2.179   5.768 -2.3022  0.2416  2.6098
   59SAPC   C39 4534   3.705   1.989   5.694 -0.2979 -0.3014  0.4366
   59SAPC   H9X 4535   3.735   2.009   5.589 -2.8360 -0.9120 -0.4581
   59SAPC   H9Y 4536   3.600   2.024   5.704 -0.3518 -0.3776  0.1333
   59SAPC  C310 4537   3.720   1.835   5.716 -0.2681 -0.8034  0.1873
   59SAPC  H10X 4538   3.641   1.782   5.772 -1.0984  1.7895  1.6258
   59SAPC  H10Y 4539   3.815   1.819   5.772 -0.0641  1.4640  0.5828
   59SAPC  C311 4540   3.746   1.757   5.588 -0.3615 -0.4611 -0.1999
   59SAPC  H11X 4541   3.785   1.662   5.630  0.4255  0.1484  0.4797
   59SAPC  H11Y 4542   3.835   1.801   5.538  2.4024 -1.0887  3.7353
   59SAPC  C312 4543   3.616   1.743   5.507 -0.5192  0.0969  0.8701
   59SAPC  H12X 4544   3.577   1.846   5.490  1.4972  0.8097  0.1615
   59SAPC  H12Y 4545   3.533   1.694   5.561  2.3578 -0.0916  5.6791
   59SAPC  C313 4546   3.644   1.685   5.360  0.3389  0.0992 -0.0609
   59SAPC  H13X 4547   3.703   1.592   5.372 -2.6424 -1.6090  2.7187
   59SAPC  H13Y 4548   3.700   1.763   5.304  0.5940  1.0566  1.4386
   59SAPC  C314 4549   3.512   1.655   5.296  0.5703 -0.5986 -0.5048
   59SAPC  H14X 4550   3.467   1.756   5.281  2.4802  0.6522  1.5687
   59SAPC  H14Y 4551   3.448   1.593   5.363  2.4714 -2.1562 -0.0630
   59SAPC  C315 4552   3.536   1.578   5.171 -0.2875 -0.4179  0.0169
   59SAPC  H15X 4553   3.592   1.482   5.179  1.3143  0.3880 -0.9484
   59SAPC  H15Y 4554   3.609   1.641   5.115  0.6864 -2.5781 -1.2963
   59SAPC  C316 4555   3.412   1.568   5.079 -0.1678 -0.7980 -0.0565
   59SAPC  H16X 4556   3.442   1.541   4.976 -0.1468 -0.2024 -0.2119
   59SAPC  H16Y 4557   3.369   1.670   5.072  0.3649 -0.4668  1.2123
   59SAPC  C317 4558   3.305   1.473   5.137  0.9852 -0.6043 -0.8077
   59SAPC  H17X 4559   3.206   1.475   5.085  0.9917 -1.6277 -0.8744
   59SAPC  H17Y 4560   3.277   1.517   5.235 -0.8823  0.4064 -1.7427
   59SAPC  C318 4561   3.346   1.329   5.161  0.0480  0.6899 -0.5457
   59SAPC  H18X 4562   3.256   1.268   5.184 -0.6728  2.3894  1.4304
   59SAPC  H18Y 4563   3.425   1.310   5.237  0.5496 -2.2526 -1.6336
   59SAPC  H18Z 4564   3.386   1.280   5.069 -0.1808 -1.6462  0.5179
   60SAPC     N 4565   3.030   3.292   7.177  0.0206 -0.4507  0.5859
   60SAPC   C12 4566   3.120   3.175   7.149  0.4792 -0.7245  1.2275
   60SAPC  H12A 4567   3.225   3.196   7.166  0.7380 -2.5817  2.2930
   60SAPC  H12B 4568   3.109   3.153   7.044 -2.9486  2.2057  0.7747
   60SAPC   C13 4569   2.887   3.262   7.183 -0.3790  0.1780 -0.0900
   60SAPC  H13A 4570   2.844   3.222   7.093  0.1955 -2.0496  0.5672
   60SAPC  H13B 4571   2.879   3.173   7.243  1.1867 -1.2661 -1.8925
   60SAPC  H13C 4572   2.820   3.327   7.238 -1.5540 -1.4801  0.5280
   60SAPC   C14 4573   3.081   3.352   7.307 -0.4557  0.0389 -0.1122
   60SAPC  H14A 4574   3.180   3.394   7.298 -0.5887  0.0563 -1.7180
   60SAPC  H14B 4575   3.021   3.440   7.327  1.0804  1.8565 -2.8597
   60SAPC  H14C 4576   3.098   3.279   7.385  4.3351 -0.0311 -0.9314
   60SAPC   C15 4577   3.055   3.390   7.063 -1.2147  0.1441  0.4015
   60SAPC  H15A 4578   3.161   3.411   7.059 -1.1309 -0.3612 -1.5226
   60SAPC  H15B 4579   3.015   3.352   6.970 -1.5683 -0.2763  0.7211
   60SAPC  H15C 4580   3.024   3.491   7.082  0.3371  0.7442 -0.0805
   60SAPC   C11 4581   3.090   3.054   7.242 -0.4025  0.5468 -0.4424
   60SAPC  H11A 4582   3.102   3.078   7.350  3.1975 -0.1932 -0.5672
   60SAPC  H11B 4583   3.166   2.977   7.220 -0.8260  0.4480 -1.6414
   60SAPC     P 4584   2.933   2.901   7.095 -0.0373 -0.8149  0.0255
   60SAPC   O13 4585   3.066   2.857   7.043 -0.2324 -0.0959 -0.2110
   60SAPC   O14 4586   2.840   2.794   7.141 -0.2012 -0.4127 -0.1850
   60SAPC   O12 4587   2.962   2.997   7.214 -0.2435 -0.4117  0.2027
   60SAPC   O11 4588   2.863   3.000   6.989 -0.0301  0.0576  0.3323
   60SAPC    C1 4589   2.719   3.015   6.976 -0.4932  0.0289 -0.3577
   60SAPC    HA 4590   2.675   3.005   7.078  0.9115 -0.0215  0.2577
   60SAPC    HB 4591   2.701   3.124   6.959 -0.2222  0.1300 -0.0139
   60SAPC    C2 4592   2.657   2.930   6.859  0.7604 -0.6875  0.0587
   60SAPC    HS 4593   2.670   2.821   6.874 -1.8264 -0.9886  0.4995
   60SAPC   O21 4594   2.715   2.977   6.741 -0.1272  0.1225 -0.2247
   60SAPC   C21 4595   2.788   2.892   6.668  0.1057 -0.2777 -0.9681
   60SAPC   O22 4596   2.825   2.782   6.697  0.3314 -0.1193  0.4412
   60SAPC   C22 4597   2.818   2.955   6.538  0.3537 -0.0812  0.4403
   60SAPC   H2R 4598   2.722   2.980   6.487 -0.3573 -1.1324  1.2052
   60SAPC   H2S 4599   2.861   3.056   6.554 -0.7151  0.5595 -0.6126
   60SAPC    C3 4600   2.508   2.936   6.871  0.3419 -0.5233  0.0872
   60SAPC    HX 4601   2.473   3.041   6.861 -0.8986 -0.8620  0.6949
   60SAPC    HY 4602   2.470   2.912   6.973  0.3215 -4.3283 -0.6895
   60SAPC   O31 4603   2.444   2.847   6.773 -0.1450  0.3248 -0.2047
   60SAPC   C31 4604   2.323   2.806   6.799  0.0796  0.1018  0.2358
   60SAPC   O32 4605   2.258   2.838   6.897  0.2462 -0.4426 -0.5703
   60SAPC   C32 4606   2.279   2.722   6.675 -0.4308  0.7187 -0.2061
   60SAPC   H2X 4607   2.257   2.623   6.720 -0.6001  1.2172  0.8360
   60SAPC   H2Y 4608   2.351   2.714   6.591 -1.3865 -0.2837 -0.9721
   60SAPC   C23 4609   2.921   2.876   6.463 -0.1631 -0.2650 -0.0556
   60SAPC   H3R 4610   2.885   2.772   6.447 -2.5817  0.3008  1.3066
   60SAPC   H3S 4611   3.002   2.866   6.539 -1.7462  0.8542  1.8794
   60SAPC   C24 4612   2.991   2.941   6.337  0.5034 -0.8504 -0.0603
   60SAPC   H4R 4613   3.062   2.865   6.297  0.4136 -0.9831  0.0317
   60SAPC   H4S 4614   3.053   3.020   6.384 -0.3172  0.2407 -0.7598
   60SAPC   C25 4615   2.908   2.992   6.222  0.5742  0.3464  0.2736
   60SAPC   H5R 4616   2.802   3.011   6.245  0.4171  0.6256 -0.6251
   60SAPC   C26 4617   2.940   2.989   6.092 -0.0450 -0.4998 -0.4938
   60SAPC   H6R 4618   2.864   3.020   6.019 -0.6738  1.5819  0.9581
   60SAPC   C27 4619   3.067   2.950   6.026 -0.1690 -0.3549 -0.0076
   60SAPC   H7R 4620   3.031   2.931   5.923  2.0015 -2.2153 -0.5094
   60SAPC   H7S 4621   3.086   2.846   6.060  1.3702  0.4007  1.5827
   60SAPC   C28 4622   3.186   3.037   6.041  0.1658 -0.0870 -0.4117
   60SAPC   H8R 4623   3.222   3.062   6.142  0.5921  0.7554 -0.7597
   60SAPC   C29 4624   3.268   3.073   5.945  0.5771  0.0094  0.3031
   60SAPC   H9R 4625   3.362   3.124   5.970  0.7061 -0.2299  0.3126
   60SAPC  C210 4626   3.254   3.035   5.799 -0.3507 -0.4150 -0.0443
   60SAPC  H10R 4627   3.273   3.125   5.738 -3.9882  0.6072  0.0858
   60SAPC  H10S 4628   3.157   2.995   5.762  0.0715  1.4464 -3.5614
   60SAPC  C211 4629   3.364   2.933   5.771  0.4767 -0.3880  0.0243
   60SAPC  H11R 4630   3.457   2.947   5.828  1.0557  1.8186 -1.3336
   60SAPC  C212 4631   3.346   2.831   5.686 -1.0186  0.5133 -0.5044
   60SAPC  H12R 4632   3.431   2.768   5.657 -1.6071 -0.4891 -0.0884
   60SAPC  C213 4633   3.228   2.801   5.608  1.2682  0.5938  0.3973
   60SAPC  H13R 4634   3.157   2.887   5.601 -2.5309 -2.1421  1.9459
   60SAPC  H13S 4635   3.157   2.733   5.660  2.0250  0.4199  1.2232
   60SAPC  C214 4636   3.255   2.743   5.475  0.0886  0.3417  0.3166
   60SAPC  H14R 4637   3.362   2.747   5.451 -0.3335  2.3756 -1.4869
   60SAPC  C215 4638   3.166   2.701   5.382  0.1027 -0.0653 -0.5351
   60SAPC  H15R 4639   3.212   2.647   5.297 -0.7079 -0.3993 -0.7698
   60SAPC  C216 4640   3.014   2.695   5.388 -0.0640  0.7256  0.0624
   60SAPC  H16R 4641   2.971   2.796   5.403 -1.8398 -0.1171  1.1420
   60SAPC  H16S 4642   2.978   2.636   5.475 -0.1780 -1.1541 -1.2061
   60SAPC  C217 4643   2.957   2.617   5.265 -0.8240 -0.2024  0.2807
   60SAPC  H17R 4644   3.019   2.528   5.242  0.2735  0.8797 -1.1797
   60SAPC  H17S 4645   2.966   2.688   5.179 -1.2623  1.5816  1.6361
   60SAPC  C218 4646   2.806   2.597   5.271  1.3720  0.1952  0.0323
   60SAPC  H18R 4647   2.751   2.644   5.186  0.1097  2.1197  1.8190
   60SAPC  H18S 4648   2.758   2.629   5.365  0.2878  2.0822 -1.1049
   60SAPC  C219 4649   2.775   2.448   5.261 -0.7617  1.0265  0.2107
   60SAPC  H19R 4650   2.816   2.401   5.169 -0.8272 -1.3974  1.3265
   60SAPC  H19S 4651   2.666   2.437   5.245 -0.7884  2.4084 -0.6857
   60SAPC  C220 4652   2.814   2.373   5.385 -0.2514  0.2385  0.4388
   60SAPC  H20R 4653   2.787   2.265   5.388  3.0220 -0.6919  0.8794
   60SAPC  H20S 4654   2.761   2.408   5.475  0.5122  0.2069  0.9098
   60SAPC  H20T 4655   2.925   2.367   5.395 -0.1481 -0.2096 -0.7676
   60SAPC   C33 4656   2.138   2.776   6.630 -0.6679  0.9134 -0.1063
   60SAPC   H3X 4657   2.138   2.886   6.615  0.2941  1.1962  1.7138
   60SAPC   H3Y 4658   2.077   2.756   6.721  0.8534  0.0907  0.7724
   60SAPC   C34 4659   2.074   2.714   6.506  0.5333  0.2284  0.2017
   60SAPC   H4X 4660   1.988   2.779   6.478  0.6483  1.1369  1.8616
   60SAPC   H4Y 4661   2.035   2.613   6.532  0.4304  0.4364  0.8753
   60SAPC   C35 4662   2.163   2.698   6.391  0.0129 -0.6245  0.1505
   60SAPC   H5X 4663   2.221   2.606   6.411  1.5424  0.2352 -0.1459
   60SAPC   H5Y 4664   2.233   2.783   6.376 -0.5358 -0.3869 -1.2949
   60SAPC   C36 4665   2.089   2.669   6.261 -0.3346 -0.0097  0.0113
   60SAPC   H6X 4666   1.999   2.735   6.253  0.0579  0.3500 -2.0913
   60SAPC   H6Y 4667   2.059   2.563   6.270 -0.6944  0.1671  1.0265
   60SAPC   C37 4668   2.172   2.685   6.127 -0.5306  0.1894  0.0790
   60SAPC   H7X 4669   2.255   2.612   6.125  0.2023  0.9718  1.1034
   60SAPC   H7Y 4670   2.220   2.785   6.131 -0.0684 -0.0379  0.2196
   60SAPC   C38 4671   2.080   2.668   6.007  0.3322  0.4950  0.2837
   60SAPC   H8X 4672   2.012   2.754   6.028  0.0099  0.7484 -1.6716
   60SAPC   H8Y 4673   2.019   2.575   6.004  1.8032 -0.4849 -0.8480
   60SAPC   C39 4674   2.143   2.684   5.871 -0.9026 -0.0131  0.2366
   60SAPC   H9X 4675   2.191   2.784   5.868 -3.8670  1.5022 -2.5860
   60SAPC   H9Y 4676   2.068   2.687   5.789  0.0380 -0.4330 -0.6708
   60SAPC  C310 4677   2.248   2.576   5.831  0.9364  0.5830  0.2355
   60SAPC  H10X 4678   2.208   2.473   5.843  1.8346  0.0849 -0.8540
   60SAPC  H10Y 4679   2.338   2.606   5.889  1.0395 -0.0449  0.4044
   60SAPC  C311 4680   2.278   2.584   5.686 -0.2731 -0.0491 -0.3066
   60SAPC  H11X 4681   2.311   2.683   5.648 -1.7013 -0.2342 -2.1990
   60SAPC  H11Y 4682   2.177   2.568   5.642 -0.8118  1.0327  0.4805
   60SAPC  C312 4683   2.371   2.463   5.632  0.3555 -0.3483 -0.9518
   60SAPC  H12X 4684   2.317   2.366   5.636  2.1324 -1.3367  1.8563
   60SAPC  H12Y 4685   2.456   2.450   5.702 -0.7828 -1.5750  0.2559
   60SAPC  C313 4686   2.416   2.479   5.490 -0.9481  0.2188 -0.1151
   60SAPC  H13X 4687   2.496   2.406   5.467 -0.4558  0.5601  0.4790
   60SAPC  H13Y 4688   2.460   2.580   5.481 -0.2540  0.1614  1.9550
   60SAPC  C314 4689   2.294   2.467   5.399  0.2405  0.7076  0.5217
   60SAPC  H14X 4690   2.220   2.547   5.419  1.2233  1.5139  1.0084
   60SAPC  H14Y 4691   2.246   2.372   5.430  2.2994 -0.6460 -0.2341
   60SAPC  C315 4692   2.331   2.474   5.247 -0.4300  0.2271  0.0529
   60SAPC  H15X 4693   2.238   2.459   5.189 -1.2941  0.9434  1.1994
   60SAPC  H15Y 4694   2.404   2.395   5.221  1.9625  1.7007  1.7859
   60SAPC  C316 4695   2.391   2.611   5.209  0.5061  1.2077  0.0493
   60SAPC  H16X 4696   2.494   2.604   5.249 -0.1402 -1.2387  1.5068
   60SAPC  H16Y 4697   2.341   2.691   5.267 -0.6139  1.1543 -0.8013
   60SAPC  C317 4698   2.395   2.646   5.062  0.0048 -0.0469 -0.2564
   60SAPC  H17X 4699   2.290   2.655   5.027 -0.3551  0.6688  0.9269
   60SAPC  H17Y 4700   2.431   2.567   4.993  0.9576  0.7066 -0.6505
   60SAPC  C318 4701   2.474   2.775   5.030 -1.0680  0.2660  0.2907
   60SAPC  H18X 4702   2.583   2.768   5.052 -0.8972  1.3591 -0.1266
   60SAPC  H18Y 4703   2.421   2.863   5.071  0.9103  1.8395 -0.3498
   60SAPC  H18Z 4704   2.467   2.788   4.919 -0.9725  1.9817  0.4660
   61SAPC     N 4705   2.263   3.323   7.379  0.0630  0.1430 -1.2822
   61SAPC   C12 4706   2.117   3.278   7.413  0.4327  0.2468 -0.0266
   61SAPC  H12A 4707   2.097   3.257   7.518 -1.1320  0.5872 -0.2258
   61SAPC  H12B 4708   2.116   3.176   7.378 -1.6132 -0.1097  0.8844
   61SAPC   C13 4709   2.285   3.320   7.230  0.0092  0.3922 -0.4862
   61SAPC  H13A 4710   2.205   3.365   7.174  1.4982  2.5309 -1.0279
   61SAPC  H13B 4711   2.375   3.375   7.205 -0.2926  0.3114 -1.7771
   61SAPC  H13C 4712   2.297   3.217   7.203 -0.5095  0.0960  0.3706
   61SAPC   C14 4713   2.268   3.461   7.435 -0.1778 -0.1838  0.4104
   61SAPC  H14A 4714   2.347   3.520   7.391 -1.8262  1.2601 -0.7190
   61SAPC  H14B 4715   2.172   3.507   7.415  0.0817  0.7765  1.2570
   61SAPC  H14C 4716   2.281   3.458   7.543  0.0716 -2.0921  0.3594
   61SAPC   C15 4717   2.363   3.241   7.441  0.5014  0.4974  0.2670
   61SAPC  H15A 4718   2.342   3.135   7.432  0.4491  0.6758 -2.0815
   61SAPC  H15B 4719   2.462   3.256   7.402  0.1173  0.2915 -0.8121
   61SAPC  H15C 4720   2.367   3.258   7.548 -1.3294  3.6467 -0.0369
   61SAPC   C11 4721   1.989   3.345   7.360  0.0745 -0.4710 -0.6884
   61SAPC  H11A 4722   1.971   3.450   7.391 -0.1895 -0.5805 -0.4649
   61SAPC  H11B 4723   1.914   3.290   7.420  0.8214  1.3068  2.0394
   61SAPC     P 4724   1.930   3.205   7.153 -0.0502  0.1355 -0.1852
   61SAPC   O13 4725   1.988   3.091   7.230  0.3739  0.0172  0.0927
   61SAPC   O14 4726   1.783   3.208   7.148  0.1135  0.1789 -0.1623
   61SAPC   O12 4727   1.979   3.347   7.217  0.0826  0.2757  0.1991
   61SAPC   O11 4728   1.991   3.184   7.009 -0.0469 -0.0940 -0.1133
   61SAPC    C1 4729   2.031   3.298   6.934  0.1814  0.6381  0.3378
   61SAPC    HA 4730   1.946   3.368   6.922 -2.9240 -2.4618  2.3674
   61SAPC    HB 4731   2.111   3.351   6.989 -0.5724 -0.9796  3.2167
   61SAPC    C2 4732   2.092   3.262   6.797 -0.3500  0.1018  0.1974
   61SAPC    HS 4733   2.131   3.353   6.746 -1.7412 -1.6748 -4.5129
   61SAPC   O21 4734   1.997   3.198   6.707  0.1539  0.4859 -0.1263
   61SAPC   C21 4735   1.903   3.278   6.653  0.0594 -0.0341 -0.4563
   61SAPC   O22 4736   1.900   3.402   6.663 -0.7414 -0.2939 -0.1567
   61SAPC   C22 4737   1.799   3.188   6.589 -0.1082  0.6747  0.5037
   61SAPC   H2R 4738   1.853   3.127   6.514  0.7265 -0.1283  1.7122
   61SAPC   H2S 4739   1.749   3.125   6.667  0.0119 -1.9347 -1.3955
   61SAPC    C3 4740   2.214   3.172   6.809 -0.2940 -0.4384  0.4997
   61SAPC    HX 4741   2.195   3.110   6.900 -1.5473 -1.5767 -0.4874
   61SAPC    HY 4742   2.305   3.231   6.832 -0.1068  0.2233 -1.7634
   61SAPC   O31 4743   2.241   3.083   6.697  0.1966  0.7616  0.0392
   61SAPC   C31 4744   2.307   3.142   6.600 -0.7501  0.2694  0.6373
   61SAPC   O32 4745   2.337   3.258   6.592 -0.2642 -0.2467 -0.8276
   61SAPC   C32 4746   2.335   3.034   6.491  0.6490  0.2383 -0.2164
   61SAPC   H2X 4747   2.267   3.060   6.407 -1.3371 -1.5246  0.7395
   61SAPC   H2Y 4748   2.316   2.930   6.524  2.8744 -0.2362 -0.2560
   61SAPC   C23 4749   1.686   3.262   6.510  0.1005 -0.4253 -0.2578
   61SAPC   H3R 4750   1.732   3.308   6.420  1.0579  0.2042  0.5363
   61SAPC   H3S 4751   1.643   3.338   6.578 -0.1515 -0.0855 -0.7945
   61SAPC   C24 4752   1.575   3.174   6.449 -0.2088  0.5606  0.4794
   61SAPC   H4R 4753   1.525   3.130   6.538  0.3177  0.4700  0.7327
   61SAPC   H4S 4754   1.614   3.087   6.394 -0.3505 -0.6230  2.1627
   61SAPC   C25 4755   1.474   3.260   6.376 -0.3511  0.9107 -0.2077
   61SAPC   H5R 4756   1.408   3.326   6.434  0.8795  2.6249 -0.7008
   61SAPC   C26 4757   1.447   3.257   6.244 -0.6338 -0.0983 -0.0887
   61SAPC   H6R 4758   1.364   3.315   6.202  0.4258  1.4079 -0.1619
   61SAPC   C27 4759   1.523   3.181   6.138  0.8546 -0.3867 -0.4104
   61SAPC   H7R 4760   1.599   3.108   6.171  1.9740 -0.3447 -2.6856
   61SAPC   H7S 4761   1.589   3.257   6.090  0.5306  0.1585  0.0036
   61SAPC   C28 4762   1.418   3.117   6.045 -0.2402 -0.6460 -0.3856
   61SAPC   H8R 4763   1.316   3.091   6.078 -0.0160 -3.3492 -1.5610
   61SAPC   C29 4764   1.438   3.109   5.915  0.2403 -0.1575  0.9375
   61SAPC   H9R 4765   1.370   3.040   5.863  0.1457  0.6708 -0.0472
   61SAPC  C210 4766   1.558   3.140   5.832 -0.5137 -0.0372  0.7703
   61SAPC  H10R 4767   1.599   3.049   5.782  0.5702  1.4525 -1.2052
   61SAPC  H10S 4768   1.655   3.168   5.878 -1.2278  2.0226  1.1226
   61SAPC  C211 4769   1.533   3.238   5.715  0.3129  0.5325  0.0891
   61SAPC  H11R 4770   1.501   3.334   5.758  0.8818  0.2417  1.2232
   61SAPC  C212 4771   1.552   3.222   5.582 -0.3210 -0.3506 -0.7893
   61SAPC  H12R 4772   1.520   3.308   5.521  2.5622  2.2099  0.9981
   61SAPC  C213 4773   1.591   3.101   5.502  0.4355  0.4111 -0.1527
   61SAPC  H13R 4774   1.492   3.056   5.481  0.4375 -0.2826  1.1981
   61SAPC  H13S 4775   1.643   3.025   5.564  1.8253  2.0689  0.8132
   61SAPC  C214 4776   1.677   3.157   5.394 -0.8957  0.2490 -0.1756
   61SAPC  H14R 4777   1.778   3.194   5.418  0.4165 -1.8969 -1.9485
   61SAPC  C215 4778   1.651   3.163   5.258 -0.0907  0.7638  0.3207
   61SAPC  H15R 4779   1.724   3.192   5.181  0.9049 -0.1898  0.8724
   61SAPC  C216 4780   1.525   3.112   5.196  0.2198 -0.2974  0.3224
   61SAPC  H16R 4781   1.465   3.205   5.184 -2.8111 -2.0987  0.2543
   61SAPC  H16S 4782   1.474   3.035   5.259  1.3705 -1.5307 -0.2180
   61SAPC  C217 4783   1.551   3.037   5.065  0.1320 -0.1298 -0.6699
   61SAPC  H17R 4784   1.616   2.951   5.092 -0.3896  0.2308  2.0156
   61SAPC  H17S 4785   1.603   3.111   5.000  0.2734  0.7990  0.4727
   61SAPC  C218 4786   1.430   2.981   4.997 -0.0213  0.2299  0.6072
   61SAPC  H18R 4787   1.359   2.934   5.068 -0.3510 -0.6738 -0.2956
   61SAPC  H18S 4788   1.458   2.896   4.931  1.0078  1.1055 -0.1203
   61SAPC  C219 4789   1.353   3.088   4.923 -0.0322  0.3407 -0.4934
   61SAPC  H19R 4790   1.420   3.118   4.840  1.0860 -1.5799 -0.3337
   61SAPC  H19S 4791   1.338   3.174   4.992  3.1356 -0.7695  1.8128
   61SAPC  C220 4792   1.216   3.049   4.880  0.3079 -0.1351 -0.3104
   61SAPC  H20R 4793   1.160   3.007   4.966  2.2959 -1.7080  0.3004
   61SAPC  H20S 4794   1.231   2.967   4.806 -2.9276  0.8430 -2.2632
   61SAPC  H20T 4795   1.158   3.120   4.817 -0.3475 -1.6833 -1.5423
   61SAPC   C33 4796   2.484   3.027   6.452  0.5619 -0.3713 -0.1814
   61SAPC   H3X 4797   2.512   2.931   6.404  1.2862 -0.6548  0.7846
   61SAPC   H3Y 4798   2.541   3.018   6.547 -0.0591 -0.1543  0.2155
   61SAPC   C34 4799   2.531   3.141   6.367  0.0812 -0.1961 -0.1050
   61SAPC   H4X 4800   2.640   3.133   6.386  0.0110 -1.5884 -0.1656
   61SAPC   H4Y 4801   2.487   3.236   6.404 -1.6660  0.1139 -2.6966
   61SAPC   C35 4802   2.504   3.133   6.217 -0.6192  0.4449  0.4806
   61SAPC   H5X 4803   2.400   3.155   6.185  0.0915  0.1224 -2.3563
   61SAPC   H5Y 4804   2.530   3.027   6.196 -0.3700  0.2911  1.5183
   61SAPC   C36 4805   2.605   3.228   6.146  0.2851  0.3840 -0.0632
   61SAPC   H6X 4806   2.699   3.222   6.205 -0.0469  1.2120  0.5661
   61SAPC   H6Y 4807   2.571   3.332   6.160  0.1242  0.3459 -0.1668
   61SAPC   C37 4808   2.618   3.205   5.994 -0.5444  0.3621  0.1658
   61SAPC   H7X 4809   2.524   3.216   5.936 -0.1818 -0.5199 -0.6170
   61SAPC   H7Y 4810   2.651   3.100   5.983 -1.4261  0.2516 -1.8518
   61SAPC   C38 4811   2.733   3.282   5.928 -0.2025  0.2370  0.9416
   61SAPC   H8X 4812   2.832   3.261   5.975 -0.3583 -1.5612  0.5438
   61SAPC   H8Y 4813   2.703   3.388   5.939 -0.2200  0.2982  0.3295
   61SAPC   C39 4814   2.755   3.240   5.779 -0.1693 -0.2605 -0.4639
   61SAPC   H9X 4815   2.663   3.229   5.718  1.5357 -0.3803 -3.1864
   61SAPC   H9Y 4816   2.799   3.138   5.780  0.7731  0.0257 -3.3873
   61SAPC  C310 4817   2.848   3.341   5.697  0.3992  0.3439  0.3394
   61SAPC  H10X 4818   2.802   3.441   5.685  2.9360  1.5175 -0.2251
   61SAPC  H10Y 4819   2.860   3.297   5.595  0.2895  2.2738 -0.5472
   61SAPC  C311 4820   2.984   3.365   5.759 -0.6647  0.8820 -0.0392
   61SAPC  H11X 4821   3.025   3.264   5.779 -2.9789 -0.4078 -1.3793
   61SAPC  H11Y 4822   2.957   3.411   5.856  2.5302  2.9990 -0.0181
   61SAPC  C312 4823   3.073   3.460   5.684 -0.5253 -0.5499  0.0315
   61SAPC  H12X 4824   3.017   3.554   5.669 -1.6366 -1.1209  0.4555
   61SAPC  H12Y 4825   3.096   3.435   5.578  1.2015  0.4542  0.1348
   61SAPC  C313 4826   3.202   3.492   5.772 -0.0169  0.6825 -0.3498
   61SAPC  H13X 4827   3.293   3.500   5.710  0.2124 -1.4625 -0.3657
   61SAPC  H13Y 4828   3.221   3.408   5.842 -3.5605 -1.0358 -1.1831
   61SAPC  C314 4829   3.171   3.623   5.844  0.2592 -0.1973  0.1714
   61SAPC  H14X 4830   3.069   3.616   5.887 -0.5828  1.2795 -1.4559
   61SAPC  H14Y 4831   3.174   3.710   5.775  2.3855  1.0483  1.6967
   61SAPC  C315 4832   3.277   3.651   5.955  0.4569 -0.9778 -0.8083
   61SAPC  H15X 4833   3.380   3.666   5.917  0.1294 -1.6752 -2.0341
   61SAPC  H15Y 4834   3.291   3.562   6.020  0.5510 -0.7631 -0.5360
   61SAPC  C316 4835   3.231   3.765   6.047 -0.1752 -0.5610 -0.6272
   61SAPC  H16X 4836   3.309   3.782   6.124 -0.4879 -0.1034 -0.4027
   61SAPC  H16Y 4837   3.139   3.739   6.103  0.0969 -0.6978 -0.2409
   61SAPC  C317 4838   3.213   3.896   5.968 -0.4663  0.2703 -0.0646
   61SAPC  H17X 4839   3.107   3.886   5.936 -1.3489 -0.5973  2.8191
   61SAPC  H17Y 4840   3.284   3.892   5.883 -1.4288  1.8651 -0.9943
   61SAPC  C318 4841   3.224   4.020   6.052 -0.2686  0.3801  0.1755
   61SAPC  H18X 4842   3.232   3.998   6.160  0.6583  1.5649  0.3786
   61SAPC  H18Y 4843   3.152   4.095   6.012 -0.4594  0.1520  0.0946
   61SAPC  H18Z 4844   3.317   4.075   6.023 -0.4429 -0.2196 -1.6400
   62SAPC     N 4845   3.680   0.161   7.370  0.3483 -0.0354  0.2545
   62SAPC   C12 4846   3.771   0.207   7.256  0.8402  0.1787 -0.4014
   62SAPC  H12A 4847   3.869   0.173   7.285  1.3742  1.9473 -0.0172
   62SAPC  H12B 4848   3.787   0.314   7.256  3.3769 -0.1323 -1.1239
   62SAPC   C13 4849   3.737   0.216   7.502 -0.4432  0.4424 -0.4380
   62SAPC  H13A 4850   3.821   0.162   7.541 -1.3304 -0.6917 -0.0358
   62SAPC  H13B 4851   3.775   0.317   7.495 -1.6515  0.8428 -1.7013
   62SAPC  H13C 4852   3.663   0.220   7.582  2.0127 -1.1464  2.0803
   62SAPC   C14 4853   3.538   0.198   7.343 -0.1717  0.1887 -0.8130
   62SAPC  H14A 4854   3.471   0.155   7.416  0.5865  2.6897  1.5478
   62SAPC  H14B 4855   3.520   0.305   7.347  0.9621  0.4389 -1.7825
   62SAPC  H14C 4856   3.506   0.169   7.244 -1.3240 -1.0443 -0.1170
   62SAPC   C15 4857   3.692   0.009   7.388 -0.6119  0.0929  0.0323
   62SAPC  H15A 4858   3.720  -0.030   7.291 -2.4037  1.7793 -1.2266
   62SAPC  H15B 4859   3.763  -0.015   7.465 -0.8440 -0.6356  0.0222
   62SAPC  H15C 4860   3.594  -0.029   7.411 -0.9309  0.1298 -1.1708
   62SAPC   C11 4861   3.750   0.151   7.113  1.3222 -0.2996 -0.1197
   62SAPC  H11A 4862   3.801   0.217   7.040 -0.1327  2.7244  1.4074
   62SAPC  H11B 4863   3.643   0.166   7.087  1.1226 -0.1842  0.7411
   62SAPC     P 4864   3.940  -0.030   7.105 -0.3069 -0.3281  0.2636
   62SAPC   O13 4865   4.007   0.030   7.221  0.6466 -0.4248  0.2253
   62SAPC   O14 4866   3.942  -0.176   7.095 -0.6477  0.0489 -0.0982
   62SAPC   O12 4867   3.791   0.013   7.110  0.5592  0.0627  0.2348
   62SAPC   O11 4868   3.999   0.033   6.977  0.4014  0.1904  0.0758
   62SAPC    C1 4869   4.141   0.077   6.972  0.3929  0.0147 -0.6603
   62SAPC    HA 4870   4.146   0.173   7.028 -0.7806 -0.1068 -0.3135
   62SAPC    HB 4871   4.212   0.011   7.025  3.0366  2.1442 -1.3114
   62SAPC    C2 4872   4.186   0.073   6.822 -0.0905 -0.0893 -0.5050
   62SAPC    HS 4873   4.294   0.102   6.823 -0.4528  1.3993  1.0640
   62SAPC   O21 4874   4.114   0.171   6.744  0.1127  0.2937  0.6090
   62SAPC   C21 4875   4.127   0.295   6.773  1.2250 -0.6750  0.4766
   62SAPC   O22 4876   4.227   0.343   6.828 -0.2196  0.5442 -0.6422
   62SAPC   C22 4877   4.005   0.384   6.734 -0.5079  0.3729  0.5136
   62SAPC   H2R 4878   3.918   0.359   6.799 -0.9303 -0.7327 -0.4486
   62SAPC   H2S 4879   4.035   0.489   6.756  1.4028 -0.1196  0.4179
   62SAPC    C3 4880   4.174  -0.071   6.756 -0.5987  0.3512  0.1841
   62SAPC    HX 4881   4.071  -0.101   6.782  0.1823 -1.7295  1.1028
   62SAPC    HY 4882   4.252  -0.131   6.808 -0.1923 -0.5116 -1.3496
   62SAPC   O31 4883   4.210  -0.080   6.613  0.2719 -0.2645 -0.4500
   62SAPC   C31 4884   4.105  -0.059   6.539 -0.6499 -0.5520 -0.2425
   62SAPC   O32 4885   3.989  -0.043   6.570 -0.2703 -0.1907  0.3983
   62SAPC   C32 4886   4.164  -0.061   6.392  0.3115  0.9370 -0.0693
   62SAPC   H2X 4887   4.221  -0.155   6.378 -2.5028 -0.8479 -0.2430
   62SAPC   H2Y 4888   4.240   0.020   6.394  2.9049 -1.3571  0.7934
   62SAPC   C23 4889   3.966   0.365   6.581 -0.0932  0.2867 -0.3852
   62SAPC   H3R 4890   3.877   0.421   6.546  0.0814  0.5142 -0.4710
   62SAPC   H3S 4891   3.925   0.262   6.583 -1.3576  0.7831 -0.0483
   62SAPC   C24 4892   4.074   0.395   6.488 -0.1471 -0.4795 -0.2285
   62SAPC   H4R 4893   4.169   0.346   6.517 -0.0723  1.1407  2.6143
   62SAPC   H4S 4894   4.088   0.503   6.509 -0.3125 -0.6783  0.9350
   62SAPC   C25 4895   4.041   0.380   6.336  0.3663 -0.3918 -0.1851
   62SAPC   H5R 4896   4.010   0.278   6.307 -1.8048  0.4550 -1.1068
   62SAPC   C26 4897   4.050   0.479   6.242  0.2671 -0.1441 -0.1884
   62SAPC   H6R 4898   4.009   0.457   6.142 -1.5880 -0.7758  0.6609
   62SAPC   C27 4899   4.097   0.620   6.259  0.3032  1.2406 -0.7773
   62SAPC   H7R 4900   4.113   0.641   6.367  1.6498 -3.3044  0.1311
   62SAPC   H7S 4901   4.020   0.689   6.219 -3.2452 -1.9135  0.0975
   62SAPC   C28 4902   4.228   0.649   6.200  0.5502 -0.1281  0.4584
   62SAPC   H8R 4903   4.312   0.593   6.242  0.6011  0.3100  0.9545
   62SAPC   C29 4904   4.260   0.734   6.102  0.6369 -0.2115 -0.7859
   62SAPC   H9R 4905   4.361   0.712   6.065  0.1848 -0.9433 -1.6044
   62SAPC  C210 4906   4.159   0.813   6.018 -0.3570  0.8748 -0.2087
   62SAPC  H10R 4907   4.136   0.917   6.050  1.6762  0.4992  2.8911
   62SAPC  H10S 4908   4.070   0.747   6.011 -0.1572  0.3888  1.3682
   62SAPC  C211 4909   4.227   0.834   5.886  0.5462 -0.0619  1.0445
   62SAPC  H11R 4910   4.337   0.829   5.885  0.6964  2.3400 -0.3753
   62SAPC  C212 4911   4.166   0.851   5.765  0.4535  0.8248 -0.6465
   62SAPC  H12R 4912   4.231   0.852   5.676  2.3089 -0.8181  0.6154
   62SAPC  C213 4913   4.017   0.853   5.736  0.2365 -0.3103  0.3685
   62SAPC  H13R 4914   3.996   0.961   5.716  0.3035 -0.0460  1.6290
   62SAPC  H13S 4915   3.949   0.838   5.822 -0.1011  0.7630  0.3091
   62SAPC  C214 4916   3.966   0.751   5.641 -0.4279 -0.1156  0.3529
   62SAPC  H14R 4917   3.952   0.643   5.658 -0.0513 -0.5931 -2.0036
   62SAPC  C215 4918   3.940   0.785   5.514  0.7066 -0.3847  0.0198
   62SAPC  H15R 4919   3.895   0.707   5.450 -1.8867  0.7268  0.3484
   62SAPC  C216 4920   3.953   0.915   5.443  0.2568  0.2695 -0.0239
   62SAPC  H16R 4921   3.905   0.991   5.508 -1.7055 -1.2592  0.4024
   62SAPC  H16S 4922   3.896   0.916   5.347  2.2133 -0.4735 -1.2547
   62SAPC  C217 4923   4.099   0.953   5.404 -0.4003 -0.2052 -0.2065
   62SAPC  H17R 4924   4.145   0.864   5.357 -0.0683 -0.2268  0.1522
   62SAPC  H17S 4925   4.164   0.989   5.487  0.2582  0.8187 -1.1322
   62SAPC  C218 4926   4.101   1.065   5.298 -0.4401  0.8840 -0.2379
   62SAPC  H18R 4927   4.043   1.153   5.333 -0.1739  0.9012  0.1736
   62SAPC  H18S 4928   4.051   1.021   5.210 -0.8668  0.1262  0.3759
   62SAPC  C219 4929   4.251   1.109   5.266 -0.5073  0.4111 -0.2232
   62SAPC  H19R 4930   4.305   1.012   5.255 -0.7840  0.2798 -0.4319
   62SAPC  H19S 4931   4.278   1.161   5.360 -2.0353  1.8645 -0.5350
   62SAPC  C220 4932   4.289   1.192   5.141 -0.2543 -0.1554  0.5533
   62SAPC  H20R 4933   4.239   1.291   5.132  1.3681  0.5953 -0.7902
   62SAPC  H20S 4934   4.265   1.129   5.053  0.6009 -0.5348  0.5767
   62SAPC  H20T 4935   4.398   1.210   5.125 -0.4076 -0.8426 -1.6134
   62SAPC   C33 4936   4.059  -0.034   6.284  0.3715 -0.3857  0.0265
   62SAPC   H3X 4937   3.990   0.044   6.324  1.2671  0.7117 -0.5168
   62SAPC   H3Y 4938   3.997  -0.123   6.262 -1.3489  0.9945 -1.0219
   62SAPC   C34 4939   4.124   0.014   6.150 -0.5267 -0.0321 -0.0827
   62SAPC   H4X 4940   4.225  -0.028   6.135 -0.1551  1.8821 -3.9786
   62SAPC   H4Y 4941   4.154   0.118   6.174  1.6347 -1.1460  2.6301
   62SAPC   C35 4942   4.026   0.001   6.038  0.3450  0.4683  0.7445
   62SAPC   H5X 4943   3.935   0.057   6.067 -0.0746 -0.8773  2.1931
   62SAPC   H5Y 4944   4.000  -0.106   6.025 -1.6735  1.0791 -0.6782
   62SAPC   C36 4945   4.073   0.058   5.907 -0.0309  0.1005 -0.2471
   62SAPC   H6X 4946   3.992   0.036   5.835 -0.2629  1.2400 -0.3526
   62SAPC   H6Y 4947   4.167   0.008   5.873 -0.1445 -0.5874  0.4384
   62SAPC   C37 4948   4.092   0.209   5.907 -0.3945  0.4676  0.9077
   62SAPC   H7X 4949   4.179   0.238   5.970 -0.0910 -0.6068  1.0047
   62SAPC   H7Y 4950   4.002   0.263   5.944  0.4922  2.7541 -0.0608
   62SAPC   C38 4951   4.129   0.264   5.767  0.2708 -0.3039 -0.4142
   62SAPC   H8X 4952   4.058   0.237   5.687  0.9413  0.3034 -1.2321
   62SAPC   H8Y 4953   4.227   0.226   5.730 -1.7632 -3.4641 -3.0185
   62SAPC   C39 4954   4.142   0.422   5.774  0.3348 -0.5791  0.4396
   62SAPC   H9X 4955   4.203   0.459   5.859  1.0972  0.6384 -0.6086
   62SAPC   H9Y 4956   4.045   0.475   5.784  0.4188 -0.6548  1.7661
   62SAPC  C310 4957   4.219   0.488   5.655  0.0866  0.1277  0.4421
   62SAPC  H10X 4958   4.324   0.451   5.647 -0.1640 -0.5808  0.3342
   62SAPC  H10Y 4959   4.213   0.599   5.658  0.8707  0.1615  2.6325
   62SAPC  C311 4960   4.162   0.442   5.520 -0.4189 -0.4827  0.5551
   62SAPC  H11X 4961   4.052   0.451   5.520 -0.3825  0.4231  2.5178
   62SAPC  H11Y 4962   4.203   0.339   5.509 -0.5427 -0.3153 -1.9540
   62SAPC  C312 4963   4.212   0.519   5.402  0.4426  0.0263  0.5612
   62SAPC  H12X 4964   4.323   0.515   5.401  0.4129 -1.3385  0.4092
   62SAPC  H12Y 4965   4.178   0.624   5.408 -2.3648 -0.8929  2.3762
   62SAPC  C313 4966   4.153   0.470   5.271  0.3610  0.4475  0.0644
   62SAPC  H13X 4967   4.044   0.490   5.268 -0.1858 -2.2151 -0.9194
   62SAPC  H13Y 4968   4.165   0.359   5.268  1.6781  0.5844 -0.0926
   62SAPC  C314 4969   4.195   0.533   5.141 -0.2146  0.3794  0.2493
   62SAPC  H14X 4970   4.144   0.479   5.058  2.0603 -0.7976 -0.4738
   62SAPC  H14Y 4971   4.305   0.522   5.128 -0.3643  0.9584 -2.0118
   62SAPC  C315 4972   4.169   0.688   5.124 -0.1144  0.7318 -0.5819
   62SAPC  H15X 4973   4.234   0.749   5.191 -3.5794  3.2377  0.7671
   62SAPC  H15Y 4974   4.065   0.698   5.163  0.3737  1.2019  0.6497
   62SAPC  C316 4975   4.184   0.752   4.984  0.7026 -0.2301 -0.1076
   62SAPC  H16X 4976   4.140   0.854   4.989 -1.8011 -1.2897  1.8967
   62SAPC  H16Y 4977   4.132   0.692   4.907  1.0900  0.3498 -0.8312
   62SAPC  C317 4978   4.331   0.776   4.943  0.8451 -0.0321 -0.3134
   62SAPC  H17X 4979   4.375   0.676   4.964 -0.0370 -0.3099  0.2877
   62SAPC  H17Y 4980   4.392   0.841   5.009  1.0145 -1.2426  0.7719
   62SAPC  C318 4981   4.365   0.820   4.799  0.0785 -0.8066 -0.6453
   62SAPC  H18X 4982   4.326   0.920   4.772  1.8063 -0.7661 -3.4050
   62SAPC  H18Y 4983   4.322   0.755   4.720  1.2175  0.0315 -2.0219
   62SAPC  H18Z 4984   4.474   0.836   4.779  0.1928  1.5233  1.3559
   63SAPC     N 4985   5.622   4.783   6.507 -0.6315 -0.5601 -0.7699
   63SAPC   C12 4986   5.576   4.734   6.369 -0.0407 -0.4349 -0.5532
   63SAPC  H12A 4987   5.478   4.690   6.384  1.1420 -2.5494  1.6622
   63SAPC  H12B 4988   5.646   4.656   6.341 -0.0914 -0.5382 -0.3910
   63SAPC   C13 4989   5.763   4.825   6.505  0.0043  0.5154 -0.0858
   63SAPC  H13A 4990   5.796   4.879   6.593  0.4279  2.4415 -1.3585
   63SAPC  H13B 4991   5.831   4.746   6.477 -0.2992  0.1478  0.2204
   63SAPC  H13C 4992   5.781   4.905   6.435  3.3859  1.9247  2.1604
   63SAPC   C14 4993   5.534   4.904   6.545  0.1239 -0.6524 -0.4731
   63SAPC  H14A 4994   5.578   4.962   6.625 -0.8519  1.8953 -1.6792
   63SAPC  H14B 4995   5.514   4.974   6.465  0.7584 -0.6711 -0.6566
   63SAPC  H14C 4996   5.438   4.864   6.570  0.2918 -1.4090 -1.0349
   63SAPC   C15 4997   5.603   4.678   6.604 -0.4844 -0.4370 -0.0204
   63SAPC  H15A 4998   5.503   4.637   6.600 -1.3174  1.2655  1.7887
   63SAPC  H15B 4999   5.679   4.603   6.589  0.7792  0.9262 -0.6468
   63SAPC  H15C 5000   5.604   4.728   6.699  2.0180  0.8275 -0.6368
   63SAPC   C11 5001   5.569   4.835   6.251 -0.1897  0.2072  0.6378
   63SAPC  H11A 5002   5.493   4.910   6.282 -1.1230 -0.1279 -0.7557
   63SAPC  H11B 5003   5.534   4.802   6.151  0.4620  3.2961 -0.7504
   63SAPC     P 5004   5.804   4.805   6.149  0.1118 -0.2377  0.1877
   63SAPC   O13 5005   5.940   4.861   6.164 -0.5399  0.0838 -0.4989
   63SAPC   O14 5006   5.772   4.663   6.181 -0.3778 -0.0838 -0.4739
   63SAPC   O12 5007   5.697   4.892   6.227 -0.6464 -0.4267 -0.0402
   63SAPC   O11 5008   5.758   4.831   5.996 -0.6242 -0.3394 -0.2862
   63SAPC    C1 5009   5.710   4.958   5.952  0.4350 -0.4040  0.0043
   63SAPC    HA 5010   5.612   4.992   5.991  0.6367  2.4731 -1.7197
   63SAPC    HB 5011   5.789   5.031   5.980  1.2756 -0.8476 -1.1431
   63SAPC    C2 5012   5.700   4.979   5.790  0.9339 -0.1945 -0.4615
   63SAPC    HS 5013   5.639   4.893   5.754 -0.0550  1.0963 -1.9789
   63SAPC   O21 5014   5.830   4.984   5.733  0.3040 -0.4998  0.0837
   63SAPC   C21 5015   5.892   4.866   5.715 -0.0007  0.3834  0.0561
   63SAPC   O22 5016   5.831   4.757   5.707 -0.4044  0.3604 -0.5034
   63SAPC   C22 5017   6.043   4.887   5.700 -1.0570 -0.0378 -0.0364
   63SAPC   H2R 5018   6.062   4.994   5.723 -2.9458  0.9711 -2.6531
   63SAPC   H2S 5019   6.093   4.820   5.772 -2.1973 -0.7326  0.1269
   63SAPC    C3 5020   5.621   5.108   5.750  0.0195 -0.0424 -0.3390
   63SAPC    HX 5021   5.650   5.187   5.822 -0.1984 -0.1469 -0.1379
   63SAPC    HY 5022   5.511   5.097   5.753 -0.0521  0.5860 -0.5309
   63SAPC   O31 5023   5.653   5.152   5.617 -0.0793  0.2291 -0.0974
   63SAPC   C31 5024   5.583   5.094   5.518  0.4558 -0.1483  0.0522
   63SAPC   O32 5025   5.522   4.991   5.529  0.8130  0.0606 -0.4319
   63SAPC   C32 5026   5.574   5.197   5.408 -0.2035  0.1509  0.4578
   63SAPC   H2X 5027   5.656   5.271   5.421 -1.0916  1.2564 -0.0000
   63SAPC   H2Y 5028   5.474   5.244   5.410 -0.4048 -0.2354 -0.2998
   63SAPC   C23 5029   6.099   4.835   5.560  0.0621  0.1434 -0.4549
   63SAPC   H3R 5030   6.099   4.724   5.555  0.9724  0.0670  0.6499
   63SAPC   H3S 5031   6.205   4.863   5.547  0.2720 -0.4952 -0.1743
   63SAPC   C24 5032   6.032   4.879   5.433 -0.0029  0.4281 -0.3275
   63SAPC   H4R 5033   5.931   4.834   5.435  0.3228 -0.3065  1.3405
   63SAPC   H4S 5034   6.096   4.840   5.350  0.6869 -0.4220  0.5715
   63SAPC   C25 5035   6.029   5.025   5.428  0.0588 -0.6057 -0.0467
   63SAPC   H5R 5036   5.976   5.071   5.512  0.3001 -0.0398 -0.1991
   63SAPC   C26 5037   6.091   5.109   5.345  0.2668 -0.3833  0.2197
   63SAPC   H6R 5038   6.076   5.218   5.356 -0.0695 -0.1633 -1.9865
   63SAPC   C27 5039   6.159   5.063   5.217  1.2746  0.5387  0.1614
   63SAPC   H7R 5040   6.176   5.147   5.147  0.9726 -1.4138 -2.3764
   63SAPC   H7S 5041   6.092   4.997   5.158 -1.4196  2.0020  1.3787
   63SAPC   C28 5042   6.295   5.004   5.248 -0.6509  0.8944 -0.5214
   63SAPC   H8R 5043   6.352   5.040   5.335 -0.8700 -0.4076  0.1837
   63SAPC   C29 5044   6.356   4.913   5.165  0.1769  0.1762  0.0897
   63SAPC   H9R 5045   6.450   4.864   5.193  0.8533  1.2633 -0.2101
   63SAPC  C210 5046   6.298   4.863   5.036  0.2755  0.7606 -0.4903
   63SAPC  H10R 5047   6.385   4.849   4.968  1.5413 -0.1733  1.2567
   63SAPC  H10S 5048   6.230   4.936   4.986  2.2085  1.9444 -1.4930
   63SAPC  C211 5049   6.227   4.729   5.047 -0.2846 -0.2473  0.1946
   63SAPC  H11R 5050   6.133   4.734   5.104 -0.3753 -2.7465  0.3817
   63SAPC  C212 5051   6.260   4.609   4.998 -0.6843  0.8128 -0.5291
   63SAPC  H12R 5052   6.198   4.519   5.013 -0.9641  1.2705  1.3832
   63SAPC  C213 5053   6.385   4.585   4.910 -0.3969  0.1263 -0.6136
   63SAPC  H13R 5054   6.412   4.477   4.903 -1.0201  0.0868 -3.4028
   63SAPC  H13S 5055   6.475   4.620   4.965 -0.9263 -0.6231  0.7912
   63SAPC  C214 5056   6.370   4.621   4.766 -0.8643  0.4143  0.2002
   63SAPC  H14R 5057   6.271   4.650   4.727 -0.5256 -2.1002 -2.8939
   63SAPC  C215 5058   6.458   4.586   4.667  0.2768  0.3830  0.2422
   63SAPC  H15R 5059   6.449   4.629   4.567 -1.3153 -1.3119 -0.4088
   63SAPC  C216 5060   6.595   4.529   4.711 -0.2478  0.5558 -0.2506
   63SAPC  H16R 5061   6.634   4.554   4.812 -0.2971  1.5309 -0.4698
   63SAPC  H16S 5062   6.657   4.590   4.642 -0.9897  0.8554 -0.6607
   63SAPC  C217 5063   6.608   4.376   4.686 -0.1189 -0.0413 -0.0353
   63SAPC  H17R 5064   6.531   4.335   4.755 -1.1406  1.4052 -0.2606
   63SAPC  H17S 5065   6.710   4.346   4.717  0.8948  3.5343  0.6285
   63SAPC  C218 5066   6.578   4.320   4.545  0.4158  0.0525 -0.9047
   63SAPC  H18R 5067   6.474   4.349   4.518 -0.1560 -0.9076  0.1604
   63SAPC  H18S 5068   6.584   4.209   4.543  2.7423  0.1353 -3.1350
   63SAPC  C219 5069   6.685   4.372   4.438 -0.8603 -0.2535  0.1674
   63SAPC  H19R 5070   6.689   4.483   4.450  0.5904 -0.2549 -0.1291
   63SAPC  H19S 5071   6.637   4.349   4.341 -0.8132  1.3529 -0.2732
   63SAPC  C220 5072   6.821   4.291   4.459  0.6133  0.2672 -0.0741
   63SAPC  H20R 5073   6.892   4.312   4.377 -1.3086  1.4151 -1.5225
   63SAPC  H20S 5074   6.800   4.183   4.477  0.8363  0.1928 -0.2616
   63SAPC  H20T 5075   6.872   4.319   4.554 -1.3570 -0.4397  1.2608
   63SAPC   C33 5076   5.589   5.133   5.276 -0.7917 -0.4385  0.0007
   63SAPC   H3X 5077   5.518   5.049   5.258 -0.6193 -1.2155  2.4833
   63SAPC   H3Y 5078   5.682   5.072   5.278 -1.2821 -1.1905  0.1121
   63SAPC   C34 5079   5.591   5.223   5.158  0.1158 -0.4347 -0.0541
   63SAPC   H4X 5080   5.677   5.292   5.170  0.0405 -0.1248 -1.1429
   63SAPC   H4Y 5081   5.510   5.299   5.165  1.6952  1.4273 -1.0555
   63SAPC   C35 5082   5.578   5.160   5.012 -0.3007 -0.9690 -0.3212
   63SAPC   H5X 5083   5.576   5.246   4.941  0.8997  3.8793  4.8665
   63SAPC   H5Y 5084   5.480   5.108   4.998 -1.4931  1.7263 -3.2389
   63SAPC   C36 5085   5.702   5.068   4.977 -0.2543  0.0905  0.0119
   63SAPC   H6X 5086   5.661   5.009   4.892  0.6213  0.9370 -1.0334
   63SAPC   H6Y 5087   5.724   4.990   5.053 -0.9793  1.3165  1.5307
   63SAPC   C37 5088   5.837   5.136   4.947 -0.3908  1.1950  0.2211
   63SAPC   H7X 5089   5.876   5.205   5.025  2.4255  1.5369 -1.3546
   63SAPC   H7Y 5090   5.822   5.201   4.858 -0.5024  0.8205 -0.0336
   63SAPC   C38 5091   5.946   5.023   4.915  0.0347 -0.5810 -0.1441
   63SAPC   H8X 5092   5.944   4.944   4.993 -0.8242  0.4431  0.9155
   63SAPC   H8Y 5093   6.040   5.081   4.922 -0.8855  1.0165 -0.5396
   63SAPC   C39 5094   5.927   4.958   4.777 -0.0967 -0.7200  0.2943
   63SAPC   H9X 5095   5.898   5.037   4.704 -1.9441 -2.7911 -1.3168
   63SAPC   H9Y 5096   5.850   4.879   4.768 -1.2041  0.1924  1.3648
   63SAPC  C310 5097   6.061   4.913   4.712  0.6955 -0.1757  0.0888
   63SAPC  H10X 5098   6.100   4.832   4.776 -2.0824 -0.9481  0.9545
   63SAPC  H10Y 5099   6.130   5.000   4.704  0.6536  0.1529  2.6048
   63SAPC  C311 5100   6.050   4.861   4.569 -0.2139  0.1675  0.2779
   63SAPC  H11X 5101   5.981   4.774   4.568 -0.4523  0.3388 -1.1031
   63SAPC  H11Y 5102   6.153   4.826   4.546 -0.8457 -0.7820 -1.3015
   63SAPC  C312 5103   6.003   4.965   4.472 -0.5555 -0.7147 -0.2150
   63SAPC  H12X 5104   6.058   5.062   4.480 -0.1670 -1.0238  1.2417
   63SAPC  H12Y 5105   5.901   4.999   4.499 -0.4395 -0.6481  0.1562
   63SAPC  C313 5106   5.998   4.923   4.327 -0.2566  0.0317 -0.1733
   63SAPC  H13X 5107   5.981   5.009   4.259  2.9806 -0.4534 -1.7752
   63SAPC  H13Y 5108   5.909   4.859   4.308 -2.0082  1.4321  2.6386
   63SAPC  C314 5109   6.128   4.865   4.266  0.4246  0.0765  0.1904
   63SAPC  H14X 5110   6.147   4.761   4.299  1.7956 -0.0959 -1.0160
   63SAPC  H14Y 5111   6.219   4.921   4.298  0.1094  0.2406  0.8038
   63SAPC  C315 5112   6.118   4.883   4.115  0.1686 -0.3508  0.1850
   63SAPC  H15X 5113   6.216   4.864   4.067  0.2750  1.2013 -0.2636
   63SAPC  H15Y 5114   6.088   4.983   4.078  2.3452  0.2104 -0.2231
   63SAPC  C316 5115   6.015   4.786   4.045 -0.2578 -0.3398 -0.5790
   63SAPC  H16X 5116   5.917   4.805   4.093 -1.0417 -2.0749 -1.3959
   63SAPC  H16Y 5117   6.056   4.686   4.073 -0.0598 -0.4305 -1.1830
   63SAPC  C317 5118   6.015   4.798   3.891 -0.8811 -0.0618  0.2665
   63SAPC  H17X 5119   6.004   4.701   3.838  0.1146  0.4011 -0.8375
   63SAPC  H17Y 5120   6.114   4.835   3.855 -0.2995  0.4040  2.2107
   63SAPC  C318 5121   5.911   4.897   3.842  0.4134  0.0840  0.0918
   63SAPC  H18X 5122   5.810   4.874   3.882  0.9465 -0.8893  0.9275
   63SAPC  H18Y 5123   5.903   4.890   3.732  1.1063 -1.3611  0.1112
   63SAPC  H18Z 5124   5.930   5.001   3.878  0.2159  0.0160  0.3941
   64SAPC     N 5125   2.866   0.147   7.115  0.0783 -0.9013 -0.3338
   64SAPC   C12 5126   3.008   0.204   7.089  0.0053 -0.3198  0.2786
   64SAPC  H12A 5127   3.069   0.121   7.055  0.0405 -0.1843  0.0118
   64SAPC  H12B 5128   3.047   0.236   7.185  0.4701 -0.9533  0.3102
   64SAPC   C13 5129   2.779   0.258   7.165  0.2270 -0.2938  0.8694
   64SAPC  H13A 5130   2.782   0.342   7.097  1.2259  0.2147  1.5157
   64SAPC  H13B 5131   2.682   0.211   7.176 -0.7860  1.6931  0.8699
   64SAPC  H13C 5132   2.798   0.291   7.265 -0.8034 -1.5071  1.5034
   64SAPC   C14 5133   2.804   0.083   6.995 -0.6497 -0.6763 -0.7555
   64SAPC  H14A 5134   2.710   0.032   7.013  0.3402 -2.8591 -1.4364
   64SAPC  H14B 5135   2.781   0.155   6.918 -1.6640 -1.0724 -0.8346
   64SAPC  H14C 5136   2.881   0.021   6.952  0.1164  1.2191 -2.2434
   64SAPC   C15 5137   2.883   0.046   7.225 -0.4132  0.6194 -0.7199
   64SAPC  H15A 5138   2.913   0.088   7.320 -1.3137 -1.9458  0.7955
   64SAPC  H15B 5139   2.797  -0.018   7.236  0.9803 -1.6152 -2.1476
   64SAPC  H15C 5140   2.959  -0.022   7.189 -0.9147 -1.1665  1.3873
   64SAPC   C11 5141   3.030   0.308   6.976  0.2365 -0.0905 -0.6225
   64SAPC  H11A 5142   2.978   0.264   6.888 -1.3275  0.1321  0.1588
   64SAPC  H11B 5143   3.134   0.306   6.938  0.1756 -2.5628 -0.8637
   64SAPC     P 5144   3.076   0.556   7.031  0.4627  0.4066  0.2233
   64SAPC   O13 5145   2.993   0.682   7.029  0.4192 -0.3143  0.3522
   64SAPC   O14 5146   3.144   0.524   7.157 -0.0960 -0.1161  0.5971
   64SAPC   O12 5147   2.976   0.433   7.014  0.4842 -0.2661 -0.2165
   64SAPC   O11 5148   3.179   0.548   6.918  0.3412 -0.1416  0.2696
   64SAPC    C1 5149   3.252   0.661   6.884 -0.5073 -0.5327 -0.0907
   64SAPC    HA 5150   3.206   0.754   6.922 -1.3408 -1.3930  1.0835
   64SAPC    HB 5151   3.353   0.655   6.928 -0.4039 -0.9212 -0.3685
   64SAPC    C2 5152   3.276   0.652   6.728  0.2886 -0.2192 -0.4284
   64SAPC    HS 5153   3.362   0.722   6.716  1.2372 -1.4056 -0.6924
   64SAPC   O21 5154   3.159   0.704   6.661 -0.3332 -0.0104 -0.2481
   64SAPC   C21 5155   3.161   0.841   6.656  0.0316 -1.3194  0.0959
   64SAPC   O22 5156   3.229   0.918   6.720  0.0687  0.4067  0.2946
   64SAPC   C22 5157   3.056   0.891   6.558  0.3866 -0.0990  0.4637
   64SAPC   H2R 5158   3.007   0.803   6.511  1.1962  0.9255 -2.4981
   64SAPC   H2S 5159   2.974   0.941   6.614 -2.3621 -0.2034 -3.1396
   64SAPC    C3 5160   3.325   0.514   6.674  0.3600  0.3616 -0.3463
   64SAPC    HX 5161   3.255   0.431   6.696  0.3571  0.2393 -0.8159
   64SAPC    HY 5162   3.420   0.478   6.718 -0.0395 -0.5539 -0.2105
   64SAPC   O31 5163   3.330   0.531   6.533 -0.6223 -0.0704 -0.0279
   64SAPC   C31 5164   3.241   0.485   6.450  0.3955  0.2460 -0.5602
   64SAPC   O32 5165   3.139   0.425   6.479 -0.1223 -0.0535  0.4598
   64SAPC   C32 5166   3.280   0.528   6.311 -0.4603 -0.7599 -0.3214
   64SAPC   H2X 5167   3.384   0.494   6.293  0.3295  1.3546 -0.0664
   64SAPC   H2Y 5168   3.265   0.635   6.287 -0.0917 -1.1327 -2.3480
   64SAPC   C23 5169   3.099   0.985   6.449  0.2074 -0.3915  0.1110
   64SAPC   H3R 5170   3.177   1.053   6.490  0.6024 -0.1423 -1.0136
   64SAPC   H3S 5171   3.009   1.036   6.408 -0.2163 -2.8557 -2.3277
   64SAPC   C24 5172   3.158   0.928   6.321  0.0522 -0.1588 -0.3897
   64SAPC   H4R 5173   3.256   0.880   6.343 -0.7109 -0.9246  1.6194
   64SAPC   H4S 5174   3.179   1.011   6.251  1.4920 -0.2334 -0.0855
   64SAPC   C25 5175   3.064   0.831   6.255 -0.0574 -0.1363 -0.2353
   64SAPC   H5R 5176   3.036   0.742   6.312  0.2927 -0.9684 -1.3225
   64SAPC   C26 5177   3.020   0.838   6.132 -0.4334 -0.0790  0.3114
   64SAPC   H6R 5178   2.954   0.761   6.089  0.5660 -0.6716 -0.1939
   64SAPC   C27 5179   3.062   0.948   6.037  0.2420 -0.3896 -0.3147
   64SAPC   H7R 5180   3.040   0.901   5.939 -2.0284  1.7032 -0.9029
   64SAPC   H7S 5181   3.171   0.969   6.039  0.1236  0.2612  1.9088
   64SAPC   C28 5182   2.985   1.074   6.049 -0.2442 -0.3326 -0.6549
   64SAPC   H8R 5183   2.921   1.081   6.138  0.4640  1.2852 -0.2416
   64SAPC   C29 5184   2.984   1.179   5.963  0.5221  0.2771  0.3228
   64SAPC   H9R 5185   2.922   1.265   5.995 -0.1459 -0.3123  0.6672
   64SAPC  C210 5186   3.056   1.188   5.832 -0.0238 -0.2360  0.4673
   64SAPC  H10R 5187   2.993   1.166   5.744 -2.1945  0.0921  1.8554
   64SAPC  H10S 5188   3.135   1.110   5.829  0.6719  0.4528 -2.6324
   64SAPC  C211 5189   3.122   1.325   5.819 -0.2497 -0.1795  0.7491
   64SAPC  H11R 5190   3.185   1.353   5.905  1.0896  1.0054 -0.5657
   64SAPC  C212 5191   3.110   1.412   5.714  0.1111 -0.6038 -0.4687
   64SAPC  H12R 5192   3.175   1.501   5.717  0.1132 -0.5927  2.4284
   64SAPC  C213 5193   3.039   1.411   5.580  0.7473  0.1085  0.6898
   64SAPC  H13R 5194   2.986   1.316   5.560  0.2235  0.5095  0.1379
   64SAPC  H13S 5195   3.117   1.411   5.501 -1.0673 -2.0189 -1.2040
   64SAPC  C214 5196   2.943   1.527   5.583  0.2218 -0.2333  0.2146
   64SAPC  H14R 5197   2.901   1.556   5.680  0.8826  0.3218  0.3454
   64SAPC  C215 5198   2.898   1.595   5.474  0.5569 -0.4298  0.3078
   64SAPC  H15R 5199   2.827   1.677   5.492 -1.4670 -1.3754 -2.5662
   64SAPC  C216 5200   2.928   1.572   5.332  0.0979 -0.0661 -0.4121
   64SAPC  H16R 5201   2.845   1.520   5.278  0.9459 -1.2869 -0.5749
   64SAPC  H16S 5202   3.011   1.498   5.327  0.9158  0.7514  0.5916
   64SAPC  C217 5203   2.981   1.696   5.258  0.5696 -1.0199 -0.7789
   64SAPC  H17R 5204   3.039   1.660   5.171 -0.5349  0.2000 -2.0661
   64SAPC  H17S 5205   3.052   1.749   5.325 -0.4890  0.4462 -0.7522
   64SAPC  C218 5206   2.862   1.786   5.221  0.2877 -0.4459 -0.5439
   64SAPC  H18R 5207   2.786   1.790   5.301 -0.8965 -0.6843 -1.6280
   64SAPC  H18S 5208   2.814   1.739   5.133 -1.6121  1.4475 -0.5896
   64SAPC  C219 5209   2.916   1.924   5.188 -0.3115 -0.0083  0.4433
   64SAPC  H19R 5210   2.990   1.903   5.107 -1.4038  1.3061 -0.9432
   64SAPC  H19S 5211   2.965   1.969   5.277 -0.2807  0.4202  0.2126
   64SAPC  C220 5212   2.812   2.022   5.130 -0.2770  0.3080 -0.0786
   64SAPC  H20R 5213   2.851   2.126   5.121  1.5677 -0.4060 -1.0695
   64SAPC  H20S 5214   2.714   2.024   5.182  0.0485 -1.5962  0.6811
   64SAPC  H20T 5215   2.777   1.988   5.030 -1.3220 -0.2679  0.4711
   64SAPC   C33 5216   3.191   0.464   6.203 -0.5614  0.5648 -0.1434
   64SAPC   H3X 5217   3.084   0.479   6.227 -0.4512  1.1881 -0.0344
   64SAPC   H3Y 5218   3.214   0.356   6.217  0.7658  0.8793  0.2071
   64SAPC   C34 5219   3.207   0.516   6.063 -0.1800  0.1273 -0.1221
   64SAPC   H4X 5220   3.312   0.512   6.030  0.1314  1.7728  0.5408
   64SAPC   H4Y 5221   3.178   0.623   6.072 -0.5899 -0.0637  0.9971
   64SAPC   C35 5222   3.107   0.453   5.964  0.0022 -0.3094 -0.4698
   64SAPC   H5X 5223   3.004   0.453   6.006 -0.7305 -0.0986 -2.1972
   64SAPC   H5Y 5224   3.139   0.347   5.955  0.2310 -0.2120 -0.8307
   64SAPC   C36 5225   3.110   0.527   5.830  0.7971  0.3305  0.2615
   64SAPC   H6X 5226   3.213   0.533   5.790  0.8246  0.5497  0.3614
   64SAPC   H6Y 5227   3.089   0.634   5.852  3.3967  0.8900  0.3618
   64SAPC   C37 5228   3.019   0.465   5.729 -0.1704 -0.1800 -0.2585
   64SAPC   H7X 5229   2.940   0.538   5.701 -1.4741 -0.7977  1.6367
   64SAPC   H7Y 5230   2.959   0.389   5.782 -0.2758  0.0778 -0.0088
   64SAPC   C38 5231   3.087   0.415   5.605 -0.1217 -0.2686  0.2691
   64SAPC   H8X 5232   3.012   0.352   5.553  0.9494 -2.1957  0.9274
   64SAPC   H8Y 5233   3.169   0.345   5.635 -0.3583 -0.5891  0.1752
   64SAPC   C39 5234   3.130   0.529   5.512  0.4024  0.2781 -0.3821
   64SAPC   H9X 5235   3.223   0.576   5.551 -0.4453  1.4614  0.2718
   64SAPC   H9Y 5236   3.055   0.611   5.509 -1.3297 -1.2303  0.0130
   64SAPC  C310 5237   3.124   0.480   5.370  0.4042  0.1938  0.1351
   64SAPC  H10X 5238   3.024   0.451   5.333  1.7862  0.2788 -4.3406
   64SAPC  H10Y 5239   3.183   0.387   5.351 -0.2156  0.0757 -1.3668
   64SAPC  C311 5240   3.188   0.575   5.270  0.2144  0.0234  0.3063
   64SAPC  H11X 5241   3.295   0.584   5.297  0.3702 -2.4401  0.7564
   64SAPC  H11Y 5242   3.142   0.676   5.267 -0.4280 -0.2829 -1.0801
   64SAPC  C312 5243   3.192   0.520   5.126  0.4187 -0.4985 -0.0380
   64SAPC  H12X 5244   3.086   0.503   5.098  0.1590  1.4007 -0.3224
   64SAPC  H12Y 5245   3.247   0.425   5.111 -0.1060 -0.7105 -0.6514
   64SAPC  C313 5246   3.262   0.602   5.019 -0.0225  0.5408 -0.3836
   64SAPC  H13X 5247   3.355   0.641   5.067  0.7271 -2.4346  0.7938
   64SAPC  H13Y 5248   3.208   0.695   4.989 -0.8245  0.1475 -0.1766
   64SAPC  C314 5249   3.295   0.516   4.893  0.0416  0.0687  0.5121
   64SAPC  H14X 5250   3.202   0.465   4.863  0.1338  0.6843 -0.8841
   64SAPC  H14Y 5251   3.362   0.430   4.915  0.9898  0.1724 -1.7307
   64SAPC  C315 5252   3.349   0.607   4.777  0.5791 -0.1051  0.3590
   64SAPC  H15X 5253   3.443   0.651   4.815  0.0247  0.2426  1.3855
   64SAPC  H15Y 5254   3.274   0.687   4.759 -0.6619 -1.1812  0.5219
   64SAPC  C316 5255   3.369   0.540   4.652 -0.2349 -0.3095  0.3470
   64SAPC  H16X 5256   3.393   0.609   4.568  3.2299 -2.4058 -0.5838
   64SAPC  H16Y 5257   3.282   0.482   4.615  1.8808 -1.7649 -2.8001
   64SAPC  C317 5258   3.492   0.456   4.654 -1.0194  0.1639  0.2718
   64SAPC  H17X 5259   3.454   0.358   4.690 -2.6108  0.3707 -0.7452
   64SAPC  H17Y 5260   3.568   0.495   4.726  0.5161 -0.1811 -1.1087
   64SAPC  C318 5261   3.557   0.433   4.515  0.5976 -0.0840 -0.5766
   64SAPC  H18X 5262   3.490   0.370   4.453 -0.1558 -1.3946  1.4586
   64SAPC  H18Y 5263   3.650   0.373   4.522 -0.1436 -1.3993 -1.5417
   64SAPC  H18Z 5264   3.584   0.532   4.473 -2.4208  1.5198  0.8610
   65SAPC     N 5265   4.978   2.081   2.591 -0.2020 -0.9529  0.0387
   65SAPC   C12 5266   4.951   2.199   2.681 -0.3973  0.2844 -0.0841
   65SAPC  H12A 5267   4.969   2.158   2.780  1.1522  2.5768  0.6705
   65SAPC  H12B 5268   4.846   2.224   2.680 -0.3283  0.5526 -0.9688
   65SAPC   C13 5269   4.902   1.966   2.641 -0.0250 -0.6145  0.0103
   65SAPC  H13A 5270   4.912   1.879   2.577 -1.5382 -0.2164 -0.7982
   65SAPC  H13B 5271   4.927   1.949   2.744  3.2970 -0.6448 -0.6812
   65SAPC  H13C 5272   4.795   1.977   2.635 -0.2307 -2.7470 -1.4790
   65SAPC   C14 5273   4.929   2.116   2.451 -0.7680 -0.0123  0.3085
   65SAPC  H14A 5274   4.986   2.199   2.413 -2.9062  1.5146  0.2082
   65SAPC  H14B 5275   4.952   2.028   2.393 -1.2137  0.1148 -0.0659
   65SAPC  H14C 5276   4.825   2.145   2.443 -0.5252  0.4367 -2.2281
   65SAPC   C15 5277   5.120   2.047   2.580 -0.2548 -0.0797  0.3356
   65SAPC  H15A 5278   5.164   2.126   2.520 -0.9837 -0.7718 -1.1773
   65SAPC  H15B 5279   5.170   2.042   2.675 -1.7851  0.9841  1.2272
   65SAPC  H15C 5280   5.139   1.952   2.532 -1.0382  0.1530 -0.4559
   65SAPC   C11 5281   5.041   2.329   2.665  0.9080 -0.2109 -0.3708
   65SAPC  H11A 5282   5.148   2.307   2.682  1.7462  2.3416 -1.8692
   65SAPC  H11B 5283   5.020   2.408   2.740 -1.4174 -1.5905  0.5288
   65SAPC     P 5284   4.953   2.511   2.500 -0.4192  0.0231 -0.4225
   65SAPC   O13 5285   5.054   2.611   2.465 -0.2242  0.0192 -0.0848
   65SAPC   O14 5286   4.849   2.485   2.400 -0.0082  0.3928  0.0969
   65SAPC   O12 5287   5.030   2.373   2.533  0.3495 -0.0423 -0.2222
   65SAPC   O11 5288   4.878   2.558   2.632  0.6438  0.7388 -0.4430
   65SAPC    C1 5289   4.864   2.691   2.670  0.1842 -0.5438  0.1561
   65SAPC    HA 5290   4.863   2.753   2.578  1.1997 -0.1487  0.3969
   65SAPC    HB 5291   4.760   2.713   2.703 -0.0586 -1.1681 -0.1825
   65SAPC    C2 5292   4.974   2.752   2.753 -0.8002  0.5965 -0.4909
   65SAPC    HS 5293   5.062   2.740   2.686  0.9404 -0.8591  1.8988
   65SAPC   O21 5294   4.987   2.665   2.865  0.4140  0.5087 -0.5982
   65SAPC   C21 5295   5.105   2.657   2.929  0.6135  0.7753 -0.1473
   65SAPC   O22 5296   5.207   2.713   2.896 -0.5909  0.0396  0.3341
   65SAPC   C22 5297   5.092   2.553   3.045  0.4408  0.4410  0.0763
   65SAPC   H2R 5298   4.990   2.557   3.089  0.9484  1.3230  1.2572
   65SAPC   H2S 5299   5.103   2.452   3.001  0.5335 -0.1405  1.3848
   65SAPC    C3 5300   4.931   2.900   2.788  0.1872  0.3955 -0.1563
   65SAPC    HX 5301   4.897   2.945   2.692  1.3572 -0.6788 -1.0996
   65SAPC    HY 5302   5.016   2.956   2.833  0.2290 -0.0486  0.3243
   65SAPC   O31 5303   4.824   2.901   2.879 -0.2577  0.6025 -0.6926
   65SAPC   C31 5304   4.854   2.907   3.014  0.2419 -0.4010  0.0674
   65SAPC   O32 5305   4.965   2.934   3.058  0.1214  0.8240 -0.7294
   65SAPC   C32 5306   4.737   2.869   3.101 -0.2797 -0.2931 -0.5077
   65SAPC   H2X 5307   4.718   2.760   3.101 -1.7788 -0.0949  2.1767
   65SAPC   H2Y 5308   4.645   2.915   3.057  0.1703  1.5083  0.3414
   65SAPC   C23 5309   5.195   2.572   3.158 -0.3413  0.3058  0.6809
   65SAPC   H3R 5310   5.190   2.682   3.175  4.3148  0.7658  0.1880
   65SAPC   H3S 5311   5.294   2.553   3.111 -1.5521 -1.6840 -1.2899
   65SAPC   C24 5312   5.166   2.502   3.287 -0.1422  0.8910  0.2304
   65SAPC   H4R 5313   5.173   2.394   3.259  0.6793  1.0522 -0.2009
   65SAPC   H4S 5314   5.064   2.520   3.328 -0.5599  0.3443 -0.5367
   65SAPC   C25 5315   5.279   2.521   3.390  0.1331  0.4668 -0.7359
   65SAPC   H5R 5316   5.373   2.477   3.354  0.5752 -0.0777  0.9660
   65SAPC   C26 5317   5.270   2.587   3.502  0.1870  0.4944  0.5818
   65SAPC   H6R 5318   5.357   2.607   3.566  1.3686 -1.0587 -0.4445
   65SAPC   C27 5319   5.149   2.654   3.563  0.3550  0.1580 -0.4035
   65SAPC   H7R 5320   5.149   2.650   3.674  0.9025 -0.9805 -0.4299
   65SAPC   H7S 5321   5.060   2.591   3.541 -1.1811  1.2449  2.2076
   65SAPC   C28 5322   5.116   2.796   3.521  0.1361  0.2732 -0.1841
   65SAPC   H8R 5323   5.118   2.810   3.412  1.8539 -0.5370 -0.2998
   65SAPC   C29 5324   5.119   2.900   3.608 -0.4718 -0.5588 -0.6652
   65SAPC   H9R 5325   5.109   3.001   3.564  1.7722  0.4513  1.0065
   65SAPC  C210 5326   5.151   2.893   3.752  0.5490 -0.0159 -0.5190
   65SAPC  H10R 5327   5.092   2.808   3.793 -0.8385  0.9373 -0.4727
   65SAPC  H10S 5328   5.104   2.984   3.795  1.6285  0.0621  0.5622
   65SAPC  C211 5329   5.296   2.878   3.789 -0.3471  0.1473 -1.1485
   65SAPC  H11R 5330   5.366   2.929   3.722 -0.8719  2.0704 -0.3098
   65SAPC  C212 5331   5.343   2.840   3.913  0.5801 -0.1869 -0.7744
   65SAPC  H12R 5332   5.450   2.853   3.935  0.1162 -0.0952  1.6952
   65SAPC  C213 5333   5.248   2.798   4.033 -0.2486 -0.4382 -0.2385
   65SAPC  H13R 5334   5.283   2.695   4.059  1.5607  0.6422  1.8996
   65SAPC  H13S 5335   5.139   2.783   4.015 -0.2327  0.7579 -1.4791
   65SAPC  C214 5336   5.278   2.875   4.161  0.7396 -0.4046  0.5094
   65SAPC  H14R 5337   5.335   2.965   4.135  0.6834 -0.7093 -0.7319
   65SAPC  C215 5338   5.231   2.853   4.288 -0.1226 -0.2463 -0.4593
   65SAPC  H15R 5339   5.257   2.929   4.363 -3.8975 -0.2142  1.0053
   65SAPC  C216 5340   5.145   2.738   4.338  0.5539 -0.2965  0.7348
   65SAPC  H16R 5341   5.189   2.648   4.290 -2.1642 -1.1437 -0.3233
   65SAPC  H16S 5342   5.046   2.758   4.291  1.1958 -1.0188 -1.0096
   65SAPC  C217 5343   5.135   2.740   4.489  0.3045  0.2365 -1.0326
   65SAPC  H17R 5344   5.239   2.741   4.526  0.2883  3.3010 -0.8408
   65SAPC  H17S 5345   5.089   2.641   4.509  0.1812  0.1222 -1.8528
   65SAPC  C218 5346   5.063   2.865   4.557 -0.1704 -0.1111  0.9928
   65SAPC  H18R 5347   4.955   2.853   4.534 -0.3156  0.0712  1.5503
   65SAPC  H18S 5348   5.094   2.957   4.503 -0.5035 -0.2035  0.6442
   65SAPC  C219 5349   5.083   2.885   4.707  0.0284  0.1497  0.1703
   65SAPC  H19R 5350   5.078   2.785   4.756  0.7666  0.4349  0.8600
   65SAPC  H19S 5351   5.010   2.955   4.753 -0.0259  0.7178 -0.7623
   65SAPC  C220 5352   5.218   2.927   4.741  0.1069 -0.6520 -0.1495
   65SAPC  H20R 5353   5.238   3.033   4.717  1.4672 -0.7233  0.6110
   65SAPC  H20S 5354   5.295   2.865   4.690  0.1237 -0.4587 -0.3588
   65SAPC  H20T 5355   5.246   2.918   4.848 -1.4078  1.3311  0.4808
   65SAPC   C33 5356   4.763   2.899   3.256  0.4764  0.2376  0.2174
   65SAPC   H3X 5357   4.866   2.876   3.291  0.6659 -3.7465 -2.2858
   65SAPC   H3Y 5358   4.709   2.824   3.318  0.0449 -0.3041 -0.7803
   65SAPC   C34 5359   4.718   3.032   3.305  0.1444 -0.1473  0.7772
   65SAPC   H4X 5360   4.624   3.070   3.259  0.5196 -0.9790 -0.7554
   65SAPC   H4Y 5361   4.799   3.107   3.290 -0.1525  0.5707  2.5013
   65SAPC   C35 5362   4.693   3.024   3.452 -0.1136  0.3188 -0.0081
   65SAPC   H5X 5363   4.791   2.996   3.497 -0.7652 -0.8894  0.6856
   65SAPC   H5Y 5364   4.611   2.954   3.479 -0.4613  1.0204  0.7993
   65SAPC   C36 5365   4.641   3.164   3.491 -0.0951 -0.2472  0.8201
   65SAPC   H6X 5366   4.545   3.183   3.440  0.9855 -0.7774 -1.5337
   65SAPC   H6Y 5367   4.704   3.247   3.453  0.1026 -0.5099  0.5722
   65SAPC   C37 5368   4.619   3.183   3.644 -0.2238 -0.3367 -0.9635
   65SAPC   H7X 5369   4.540   3.121   3.693  1.7051 -1.6350  0.6262
   65SAPC   H7Y 5370   4.588   3.290   3.651  1.3629  0.0851  0.0047
   65SAPC   C38 5371   4.743   3.190   3.731  0.0542 -0.2986  0.5370
   65SAPC   H8X 5372   4.820   3.253   3.682  0.4610 -1.1879  0.0256
   65SAPC   H8Y 5373   4.773   3.083   3.736  0.0140 -0.2605  2.1314
   65SAPC   C39 5374   4.711   3.226   3.874 -0.1365  0.0757 -0.1854
   65SAPC   H9X 5375   4.616   3.182   3.911 -0.3838  0.3892 -0.4425
   65SAPC   H9Y 5376   4.719   3.337   3.880 -0.8397  0.0990  0.4780
   65SAPC  C310 5377   4.830   3.174   3.958  0.2914 -0.9941 -0.3947
   65SAPC  H10X 5378   4.933   3.178   3.916  1.4474 -1.0325  2.2101
   65SAPC  H10Y 5379   4.808   3.069   3.987 -0.6175 -0.5507  0.5631
   65SAPC  C311 5380   4.831   3.241   4.094  0.6341 -0.3087 -0.0260
   65SAPC  H11X 5381   4.757   3.202   4.168 -0.6582  1.8735 -0.0861
   65SAPC  H11Y 5382   4.806   3.347   4.072  0.5573 -0.1662  0.7129
   65SAPC  C312 5383   4.969   3.232   4.154  0.1550 -0.4317  0.0756
   65SAPC  H12X 5384   5.036   3.297   4.094 -0.2543 -2.2743 -2.5279
   65SAPC  H12Y 5385   5.012   3.129   4.150 -0.2689 -0.6348  0.6105
   65SAPC  C313 5386   4.980   3.290   4.299  0.2577  0.4811  0.6576
   65SAPC  H13X 5387   4.929   3.227   4.374  0.6642 -0.8633 -0.1745
   65SAPC  H13Y 5388   4.926   3.388   4.299  0.3970  0.5591  1.0122
   65SAPC  C314 5389   5.127   3.314   4.346 -0.5124 -0.0573  0.0918
   65SAPC  H14X 5390   5.179   3.368   4.264 -0.2872  0.4959  0.5814
   65SAPC  H14Y 5391   5.174   3.214   4.352  1.1856  0.7538  1.5179
   65SAPC  C315 5392   5.126   3.390   4.483 -0.2379 -0.3669 -0.9162
   65SAPC  H15X 5393   5.066   3.483   4.481 -0.9697 -0.8170 -0.2021
   65SAPC  H15Y 5394   5.230   3.416   4.511 -0.7185 -1.2935  2.0312
   65SAPC  C316 5395   5.098   3.303   4.611  0.0915 -0.4046  0.9587
   65SAPC  H16X 5396   5.184   3.234   4.625  0.8831  0.3881  0.2205
   65SAPC  H16Y 5397   5.005   3.246   4.590  1.5429 -1.9386 -1.9809
   65SAPC  C317 5398   5.086   3.382   4.745  0.2631  0.2037 -0.5323
   65SAPC  H17X 5399   4.994   3.442   4.727 -0.8797 -1.0477  0.9093
   65SAPC  H17Y 5400   5.172   3.450   4.758 -0.0339  0.0975  2.6788
   65SAPC  C318 5401   5.068   3.291   4.866 -0.2000  0.0890  0.5845
   65SAPC  H18X 5402   5.166   3.263   4.909  0.6794  1.1222 -0.6602
   65SAPC  H18Y 5403   5.017   3.194   4.849  1.3694 -0.7131  0.2887
   65SAPC  H18Z 5404   5.019   3.347   4.949 -1.5323 -0.0986 -0.0430
   66SAPC     N 5405   2.298   2.882   2.547 -0.1952 -0.0789  0.0771
   66SAPC   C12 5406   2.210   2.768   2.595 -0.3567 -0.2677 -0.5748
   66SAPC  H12A 5407   2.173   2.801   2.690  0.9864  0.0189 -0.1262
   66SAPC  H12B 5408   2.278   2.691   2.629  0.5379  0.5399 -0.4898
   66SAPC   C13 5409   2.420   2.913   2.628  0.8382  0.5508  0.4385
   66SAPC  H13A 5410   2.457   3.007   2.590 -0.5520  0.3138 -1.6259
   66SAPC  H13B 5411   2.396   2.919   2.733 -0.3971 -1.7297  0.3493
   66SAPC  H13C 5412   2.500   2.841   2.618  1.3594  0.8869  1.9234
   66SAPC   C14 5413   2.349   2.832   2.411  0.7570  0.0271  0.0684
   66SAPC  H14A 5414   2.380   2.728   2.411  0.9001 -0.0257 -2.9941
   66SAPC  H14B 5415   2.270   2.841   2.339  0.3142  0.0262  0.5490
   66SAPC  H14C 5416   2.430   2.894   2.375  0.7712  0.3106  0.5757
   66SAPC   C15 5417   2.224   3.011   2.517  0.4955  0.4148  0.8180
   66SAPC  H15A 5418   2.173   3.048   2.605 -2.1461  1.1004 -0.8651
   66SAPC  H15B 5419   2.287   3.091   2.480 -0.6219  0.6295 -0.7503
   66SAPC  H15C 5420   2.161   2.990   2.432  0.8732  2.9488 -0.1824
   66SAPC   C11 5421   2.109   2.703   2.498  0.0966 -0.2650 -0.4359
   66SAPC  H11A 5422   2.076   2.607   2.541 -0.7063  0.6388  1.0417
   66SAPC  H11B 5423   2.146   2.676   2.397  0.6113  0.5611 -0.4830
   66SAPC     P 5424   1.898   2.827   2.590 -0.4364 -0.1356  0.6576
   66SAPC   O13 5425   1.900   2.974   2.609 -0.4495  0.2481  0.1888
   66SAPC   O14 5426   1.768   2.771   2.552  0.1604 -0.3712  0.0548
   66SAPC   O12 5427   2.003   2.794   2.478 -0.7831 -0.4252  0.4974
   66SAPC   O11 5428   1.958   2.757   2.721 -0.5825 -0.1114 -0.3787
   66SAPC    C1 5429   1.945   2.622   2.756 -0.5142  0.2137 -0.4747
   66SAPC    HA 5430   1.885   2.571   2.678 -1.4980  0.7186 -0.0654
   66SAPC    HB 5431   2.041   2.567   2.769 -1.4667 -1.2919  0.5487
   66SAPC    C2 5432   1.887   2.627   2.900  0.1608 -0.2606  1.3915
   66SAPC    HS 5433   1.910   2.530   2.948  0.0311 -1.3602 -0.6381
   66SAPC   O21 5434   1.742   2.650   2.902  0.5511 -0.2270  0.1327
   66SAPC   C21 5435   1.672   2.546   2.853 -0.0423  0.3361 -0.3934
   66SAPC   O22 5436   1.723   2.438   2.828 -0.2549 -0.1231 -0.1587
   66SAPC   C22 5437   1.523   2.585   2.837  0.0630 -0.1097  0.0914
   66SAPC   H2R 5438   1.509   2.633   2.738 -2.6912  0.8009  0.8216
   66SAPC   H2S 5439   1.472   2.486   2.833  0.0886 -0.1576  0.8056
   66SAPC    C3 5440   1.961   2.732   2.992 -0.4008  0.1771  0.1014
   66SAPC    HX 5441   1.937   2.832   2.950 -1.6071 -0.7333 -1.5235
   66SAPC    HY 5442   2.069   2.717   2.973 -0.3709  0.4034  0.0921
   66SAPC   O31 5443   1.915   2.710   3.127 -0.1454 -0.5355 -0.4199
   66SAPC   C31 5444   1.955   2.808   3.209  0.5617 -0.9631 -0.3388
   66SAPC   O32 5445   2.032   2.895   3.174  0.9252 -0.0075  0.6427
   66SAPC   C32 5446   1.912   2.780   3.350  0.2314 -0.5010 -0.1224
   66SAPC   H2X 5447   1.907   2.672   3.373 -0.9931 -0.5817 -0.6985
   66SAPC   H2Y 5448   1.809   2.819   3.360  0.5069  0.2066  0.0242
   66SAPC   C23 5449   1.477   2.668   2.955  0.0762 -0.5071  0.0112
   66SAPC   H3R 5450   1.533   2.764   2.951 -0.9582  0.0938 -0.7671
   66SAPC   H3S 5451   1.488   2.615   3.052 -1.4904 -1.8088 -0.4748
   66SAPC   C24 5452   1.329   2.708   2.960 -0.9174 -0.8584 -0.4065
   66SAPC   H4R 5453   1.318   2.795   2.892 -1.5230 -0.3275  0.3526
   66SAPC   H4S 5454   1.311   2.763   3.055 -1.3665 -1.0513 -0.3790
   66SAPC   C25 5455   1.232   2.600   2.927 -0.0957 -1.0205  0.2922
   66SAPC   H5R 5456   1.200   2.600   2.822 -1.0262 -2.1950  0.5519
   66SAPC   C26 5457   1.161   2.539   3.017 -0.7094  0.5129 -0.3273
   66SAPC   H6R 5458   1.092   2.462   2.979  2.5460 -3.2003  0.6900
   66SAPC   C27 5459   1.162   2.562   3.162  0.2086  0.3586  0.4107
   66SAPC   H7R 5460   1.261   2.602   3.193 -0.0022 -0.6775  2.5934
   66SAPC   H7S 5461   1.149   2.462   3.207 -0.5134  0.1389 -0.2636
   66SAPC   C28 5462   1.054   2.658   3.212  0.1557  0.6877  0.7480
   66SAPC   H8R 5463   0.996   2.708   3.134  2.3845  0.7919 -0.9415
   66SAPC   C29 5464   1.025   2.694   3.337  1.4259 -0.3701  0.1476
   66SAPC   H9R 5465   0.937   2.757   3.355  2.1266  0.8651 -0.6243
   66SAPC  C210 5466   1.103   2.649   3.453 -0.0169  0.3902  0.0984
   66SAPC  H10R 5467   1.177   2.572   3.420 -0.4377  0.2213 -0.4839
   66SAPC  H10S 5468   1.033   2.602   3.526 -0.7041  1.4457  0.1359
   66SAPC  C211 5469   1.179   2.756   3.514 -0.6246 -0.2056 -0.1932
   66SAPC  H11R 5470   1.139   2.858   3.526  1.1979  0.8571 -2.3238
   66SAPC  C212 5471   1.312   2.758   3.541 -0.2858 -0.1277  0.3642
   66SAPC  H12R 5472   1.355   2.851   3.581 -1.3875 -0.1648  1.7185
   66SAPC  C213 5473   1.407   2.647   3.513 -0.0961  0.4513 -0.0815
   66SAPC  H13R 5474   1.410   2.612   3.407  1.2001 -1.9474  0.6816
   66SAPC  H13S 5475   1.365   2.556   3.562 -1.2482  0.0320 -1.7665
   66SAPC  C214 5476   1.540   2.685   3.573 -0.0932 -0.3362 -0.5055
   66SAPC  H14R 5477   1.609   2.729   3.501 -0.5566  0.1445 -0.6636
   66SAPC  C215 5478   1.585   2.660   3.701 -0.5647  0.3484  1.1879
   66SAPC  H15R 5479   1.682   2.703   3.727 -0.1631 -0.5467  1.1913
   66SAPC  C216 5480   1.503   2.598   3.811  0.4644  0.0222  0.2342
   66SAPC  H16R 5481   1.560   2.513   3.854  2.5828  0.0196 -2.3115
   66SAPC  H16S 5482   1.416   2.550   3.761  1.3569 -0.0312 -1.3312
   66SAPC  C217 5483   1.455   2.689   3.920  0.9186 -0.0505 -0.1857
   66SAPC  H17R 5484   1.389   2.627   3.986 -1.2277  0.7043 -1.5019
   66SAPC  H17S 5485   1.387   2.766   3.878 -0.9996 -1.1832  0.6919
   66SAPC  C218 5486   1.567   2.753   4.005  0.5969  0.1059  0.3186
   66SAPC  H18R 5487   1.622   2.834   3.953 -0.3701 -0.6566 -1.9973
   66SAPC  H18S 5488   1.633   2.682   4.060 -0.5201 -0.1282  1.3809
   66SAPC  C219 5489   1.498   2.828   4.116  0.8699 -0.1362  0.0443
   66SAPC  H19R 5490   1.408   2.877   4.073  1.2165 -0.7304 -1.4303
   66SAPC  H19S 5491   1.561   2.913   4.149  0.6448 -0.5000  1.4814
   66SAPC  C220 5492   1.449   2.749   4.239 -0.2912 -0.0847 -0.4502
   66SAPC  H20R 5493   1.532   2.704   4.298 -0.4214  0.7559  0.4010
   66SAPC  H20S 5494   1.374   2.678   4.201 -1.1920  0.9310 -0.6200
   66SAPC  H20T 5495   1.384   2.812   4.303 -0.5372 -2.0526  1.3112
   66SAPC   C33 5496   2.001   2.836   3.464 -0.5326 -0.0456 -0.8049
   66SAPC   H3X 5497   2.010   2.946   3.447  0.3112 -0.1205 -0.8866
   66SAPC   H3Y 5498   2.101   2.789   3.455  0.1950  1.5270 -1.4644
   66SAPC   C34 5499   1.933   2.805   3.603  1.0241 -0.0976  0.3148
   66SAPC   H4X 5500   1.922   2.696   3.623 -1.6298  0.0332 -0.0830
   66SAPC   H4Y 5501   1.832   2.850   3.593 -0.1367 -2.2390  1.6564
   66SAPC   C35 5502   2.016   2.868   3.717  0.0478 -0.4196  0.1987
   66SAPC   H5X 5503   2.043   2.976   3.708  1.2383 -0.7220 -0.0718
   66SAPC   H5Y 5504   2.115   2.817   3.718  0.8833  1.1416  0.5810
   66SAPC   C36 5505   1.961   2.857   3.863  1.0071  0.3842 -0.3226
   66SAPC   H6X 5506   1.944   2.750   3.889  0.9106  0.2811 -0.8148
   66SAPC   H6Y 5507   1.866   2.914   3.868  1.5551  1.2447  1.0290
   66SAPC   C37 5508   2.048   2.940   3.965 -0.1069 -0.3895 -0.0717
   66SAPC   H7X 5509   2.078   3.034   3.914 -2.5349 -0.1471 -1.1815
   66SAPC   H7Y 5510   2.140   2.882   3.989  1.0639  0.8129 -1.4233
   66SAPC   C38 5511   1.957   2.974   4.085  0.5657 -0.3787  0.1602
   66SAPC   H8X 5512   1.927   2.883   4.140  0.1391  0.1199  0.7669
   66SAPC   H8Y 5513   1.863   3.022   4.050  1.3001  1.6601  0.7872
   66SAPC   C39 5514   2.025   3.064   4.192 -0.2158 -0.3879 -0.7868
   66SAPC   H9X 5515   1.955   3.066   4.278  0.5735  0.7793 -0.1376
   66SAPC   H9Y 5516   2.034   3.170   4.159 -0.3167  0.5082  1.8319
   66SAPC  C310 5517   2.156   3.012   4.248  0.2532 -0.0572 -0.0881
   66SAPC  H10X 5518   2.222   3.025   4.159  0.5698  0.4298  0.2152
   66SAPC  H10Y 5519   2.151   2.903   4.267 -1.9134  0.2015  1.1136
   66SAPC  C311 5520   2.204   3.086   4.371  1.0980 -0.2191 -0.0226
   66SAPC  H11X 5521   2.112   3.114   4.427  0.4698 -1.8693 -0.1803
   66SAPC  H11Y 5522   2.268   3.172   4.342 -0.1962  1.2466  1.2750
   66SAPC  C312 5523   2.306   3.009   4.456  0.6168 -0.5010  0.1444
   66SAPC  H12X 5524   2.338   3.072   4.542  0.9627 -1.1041  0.4654
   66SAPC  H12Y 5525   2.396   2.990   4.395  0.6277 -1.8274  0.5483
   66SAPC  C313 5526   2.265   2.878   4.508  0.0276  0.3679 -0.0199
   66SAPC  H13X 5527   2.256   2.797   4.433 -0.8987  1.4338 -1.0936
   66SAPC  H13Y 5528   2.163   2.885   4.551  0.2110  1.5219  0.2724
   66SAPC  C314 5529   2.367   2.818   4.604 -1.0631  0.7088  0.1881
   66SAPC  H14X 5530   2.381   2.879   4.696  0.4533  0.2833  0.2669
   66SAPC  H14Y 5531   2.470   2.823   4.562 -0.7528  1.9023  1.0335
   66SAPC  C315 5532   2.331   2.675   4.640  0.3712  0.4075 -0.1666
   66SAPC  H15X 5533   2.408   2.631   4.707 -1.8548 -0.9173  1.6297
   66SAPC  H15Y 5534   2.333   2.621   4.543  2.6160 -0.4941  0.3102
   66SAPC  C316 5535   2.196   2.652   4.711 -0.0715 -0.6524  0.7620
   66SAPC  H16X 5536   2.125   2.699   4.639  0.3927  0.4150  0.9813
   66SAPC  H16Y 5537   2.187   2.715   4.802 -1.9289  1.7160 -0.9385
   66SAPC  C317 5538   2.165   2.510   4.734 -0.5152 -0.2091  0.0528
   66SAPC  H17X 5539   2.256   2.461   4.775 -1.7170 -1.9631  0.7478
   66SAPC  H17Y 5540   2.139   2.473   4.632  1.2814  1.5559 -1.1317
   66SAPC  C318 5541   2.036   2.482   4.818 -0.5199  0.2894  0.1544
   66SAPC  H18X 5542   2.046   2.518   4.923 -1.6609  1.9233 -0.2530
   66SAPC  H18Y 5543   2.018   2.374   4.836  0.5005 -0.0140 -0.5531
   66SAPC  H18Z 5544   1.943   2.525   4.774 -0.0603  2.0930  0.8564
   67SAPC     N 5545   4.099   4.687   1.983  0.5802 -0.0384  0.5158
   67SAPC   C12 5546   4.008   4.751   2.083  0.0228  0.3020  0.0249
   67SAPC  H12A 5547   4.003   4.694   2.174  2.9863  1.0888  0.8224
   67SAPC  H12B 5548   3.910   4.740   2.040  0.9811  0.9633 -2.5471
   67SAPC   C13 5549   4.246   4.693   2.019  0.1261  0.3648 -0.1748
   67SAPC  H13A 5550   4.262   4.800   2.027 -0.8107  0.3829  2.6430
   67SAPC  H13B 5551   4.283   4.646   2.109  1.1871  0.5797 -0.4814
   67SAPC  H13C 5552   4.299   4.652   1.935 -0.1110  0.4864 -0.3857
   67SAPC   C14 5553   4.070   4.540   1.961 -0.1500  0.3620 -0.0595
   67SAPC  H14A 5554   4.149   4.491   1.906 -0.5865  0.4617 -0.7928
   67SAPC  H14B 5555   4.059   4.489   2.055 -0.7606 -0.1239 -0.3918
   67SAPC  H14C 5556   3.976   4.531   1.909  0.4848 -0.3077 -1.1342
   67SAPC   C15 5557   4.095   4.758   1.851 -0.3240 -0.0258 -0.2799
   67SAPC  H15A 5558   4.141   4.855   1.860  2.0307 -1.2343  2.0957
   67SAPC  H15B 5559   4.157   4.714   1.773  3.5130  3.1191  0.6665
   67SAPC  H15C 5560   3.995   4.771   1.813  0.7310  0.1365 -3.3743
   67SAPC   C11 5561   4.047   4.890   2.143 -0.0713  0.4335  0.3349
   67SAPC  H11A 5562   4.148   4.880   2.190 -0.1702 -0.9955  0.2904
   67SAPC  H11B 5563   3.975   4.913   2.224 -1.5532 -1.1718 -0.4722
   67SAPC     P 5564   4.159   5.102   2.019 -0.0356 -0.2799  0.4510
   67SAPC   O13 5565   4.285   5.021   1.998 -0.1618 -0.2875  0.0980
   67SAPC   O14 5566   4.110   5.196   1.914  0.2148 -0.0868 -0.3768
   67SAPC   O12 5567   4.039   5.000   2.050  0.2478 -0.3367 -0.3522
   67SAPC   O11 5568   4.176   5.187   2.155 -1.0275  0.3221  0.5103
   67SAPC    C1 5569   4.078   5.193   2.259 -0.8615  0.2071 -0.3204
   67SAPC    HA 5570   4.029   5.292   2.253  1.1718  1.1636 -3.5451
   67SAPC    HB 5571   4.005   5.109   2.262  0.1754 -0.7118  2.1866
   67SAPC    C2 5572   4.158   5.197   2.395  0.7483 -0.1443  0.1714
   67SAPC    HS 5573   4.247   5.258   2.370  1.5080 -1.4110 -0.2782
   67SAPC   O21 5574   4.184   5.066   2.441 -0.4038  0.4362  0.0473
   67SAPC   C21 5575   4.309   5.032   2.423  0.2954  0.1358  0.1076
   67SAPC   O22 5576   4.399   5.097   2.373 -0.3053  0.1975  0.0010
   67SAPC   C22 5577   4.326   4.891   2.466  0.4960 -0.0316  0.1156
   67SAPC   H2R 5578   4.280   4.874   2.566 -0.1424 -0.9879 -0.3364
   67SAPC   H2S 5579   4.272   4.831   2.391  1.5560 -1.2881  0.3102
   67SAPC    C3 5580   4.085   5.265   2.511 -0.5665  0.4785  0.1656
   67SAPC    HX 5581   3.997   5.199   2.528 -2.1354  2.3661 -0.2610
   67SAPC    HY 5582   4.035   5.359   2.479 -1.0715  0.0847 -0.2351
   67SAPC   O31 5583   4.170   5.274   2.626  0.0403  0.4398 -0.2530
   67SAPC   C31 5584   4.260   5.367   2.634  0.8899 -0.2510  0.2065
   67SAPC   O32 5585   4.278   5.459   2.552 -0.2227  0.7164  0.3311
   67SAPC   C32 5586   4.314   5.363   2.777 -0.7051 -0.2060 -0.3115
   67SAPC   H2X 5587   4.408   5.422   2.777 -1.0473  0.3486 -0.3434
   67SAPC   H2Y 5588   4.350   5.261   2.804  1.6301  0.9960  1.5304
   67SAPC   C23 5589   4.466   4.827   2.460 -0.7022 -0.0761  0.4445
   67SAPC   H3R 5590   4.528   4.881   2.385 -1.8078  0.0266 -0.4279
   67SAPC   H3S 5591   4.456   4.724   2.419  0.1585  0.2224 -0.5582
   67SAPC   C24 5592   4.528   4.823   2.608  0.0161  0.0577  0.0112
   67SAPC   H4R 5593   4.630   4.780   2.603  0.9146  2.1389 -1.0588
   67SAPC   H4S 5594   4.472   4.752   2.672  0.9168  0.3283  1.1320
   67SAPC   C25 5595   4.547   4.968   2.667 -0.5585  0.0809 -0.2414
   67SAPC   H5R 5596   4.559   5.046   2.590  1.9053 -0.1187 -0.1544
   67SAPC   C26 5597   4.516   4.995   2.795  0.3210 -0.5065 -0.0931
   67SAPC   H6R 5598   4.554   5.091   2.834 -2.8454  0.0456  1.9991
   67SAPC   C27 5599   4.452   4.908   2.906 -0.3753  0.1356 -0.6804
   67SAPC   H7R 5600   4.374   4.849   2.853 -0.8717  1.1873 -1.1469
   67SAPC   H7S 5601   4.400   4.982   2.970 -2.4009  0.1267 -2.2326
   67SAPC   C28 5602   4.532   4.799   2.978  0.1711 -0.1220 -0.1288
   67SAPC   H8R 5603   4.503   4.694   2.959  0.3654 -0.7123  2.4925
   67SAPC   C29 5604   4.632   4.830   3.062 -0.1886  0.9553  0.8621
   67SAPC   H9R 5605   4.687   4.742   3.099 -0.1916  0.7300  0.3435
   67SAPC  C210 5606   4.682   4.962   3.109  0.2018  0.0470 -0.0807
   67SAPC  H10R 5607   4.675   5.046   3.037  0.1117 -1.4498 -1.8979
   67SAPC  H10S 5608   4.793   4.958   3.116  0.2156 -0.5738 -0.5959
   67SAPC  C211 5609   4.623   5.003   3.245  0.3737  0.3959  0.2769
   67SAPC  H11R 5610   4.517   5.032   3.238 -0.2266 -1.5233  0.9408
   67SAPC  C212 5611   4.688   5.001   3.361  0.5223  0.0756  1.4045
   67SAPC  H12R 5612   4.638   5.027   3.456 -2.0282  1.6497 -0.2639
   67SAPC  C213 5613   4.830   4.958   3.395 -0.7553  0.2658  0.8222
   67SAPC  H13R 5614   4.876   5.055   3.424 -0.9689  0.8321 -0.6360
   67SAPC  H13S 5615   4.885   4.936   3.301 -0.0805  0.4825  1.1592
   67SAPC  C214 5616   4.853   4.853   3.499 -0.5052 -0.5754  0.5471
   67SAPC  H14R 5617   4.848   4.752   3.456 -0.8961  0.0428 -0.9047
   67SAPC  C215 5618   4.872   4.871   3.628  0.1603 -0.2965  0.3666
   67SAPC  H15R 5619   4.886   4.778   3.685  0.9437  0.6618  1.8136
   67SAPC  C216 5620   4.862   4.990   3.720 -0.0158  0.3013  0.1994
   67SAPC  H16R 5621   4.781   4.980   3.795  0.0080 -0.1991  0.1594
   67SAPC  H16S 5622   4.828   5.074   3.656 -0.9267 -0.6321 -0.5656
   67SAPC  C217 5623   4.986   5.023   3.805  0.0529 -0.3632 -0.8084
   67SAPC  H17R 5624   4.973   5.117   3.863  1.1953 -0.4128 -0.4334
   67SAPC  H17S 5625   5.070   5.046   3.736 -0.5769  0.3441 -1.3632
   67SAPC  C218 5626   5.033   4.912   3.905 -0.0944  0.9516  0.7226
   67SAPC  H18R 5627   5.021   4.810   3.862  2.8747  0.7006  0.2745
   67SAPC  H18S 5628   4.956   4.916   3.984  1.4355  0.2037  2.3316
   67SAPC  C219 5629   5.182   4.924   3.947 -0.0358 -0.9853  0.1316
   67SAPC  H19R 5630   5.226   4.952   3.849 -0.4210  2.1312  0.7481
   67SAPC  H19S 5631   5.212   4.827   3.991  1.7323  0.0981  1.4340
   67SAPC  C220 5632   5.200   5.030   4.056 -0.0161 -0.0688  0.0648
   67SAPC  H20R 5633   5.150   5.008   4.153 -0.8131 -1.6038 -0.6521
   67SAPC  H20S 5634   5.146   5.116   4.013 -0.7497 -0.2110  0.6825
   67SAPC  H20T 5635   5.306   5.063   4.057 -0.0622  0.0809 -0.1704
   67SAPC   C33 5636   4.210   5.407   2.886 -0.1356 -0.1099  0.0554
   67SAPC   H3X 5637   4.106   5.389   2.852 -0.9349  2.4296  0.9265
   67SAPC   H3Y 5638   4.216   5.516   2.906 -0.3067 -0.7296  4.3112
   67SAPC   C34 5639   4.245   5.337   3.013 -0.2634 -0.6158  0.0480
   67SAPC   H4X 5640   4.355   5.335   3.021 -0.2848 -0.8011  0.3058
   67SAPC   H4Y 5641   4.218   5.229   3.005  1.0791 -0.9730  0.2293
   67SAPC   C35 5642   4.174   5.401   3.140 -0.2470  0.0380 -0.2395
   67SAPC   H5X 5643   4.064   5.399   3.124 -0.5280 -0.9931  1.5502
   67SAPC   H5Y 5644   4.207   5.505   3.159  0.1948 -0.1862  0.2433
   67SAPC   C36 5645   4.200   5.334   3.274  0.2246  0.6124 -0.8853
   67SAPC   H6X 5646   4.165   5.229   3.262  0.5069  0.4748 -0.5334
   67SAPC   H6Y 5647   4.141   5.385   3.353 -1.6387 -2.0730 -0.3902
   67SAPC   C37 5648   4.346   5.344   3.320 -0.1047  0.0127  0.3248
   67SAPC   H7X 5649   4.373   5.446   3.357  0.9698  0.0506 -0.4981
   67SAPC   H7Y 5650   4.417   5.306   3.244 -1.1622  1.2507 -1.3335
   67SAPC   C38 5651   4.367   5.251   3.444  0.9721  0.2223 -0.3920
   67SAPC   H8X 5652   4.358   5.147   3.406 -0.4278  0.0520  0.3362
   67SAPC   H8Y 5653   4.274   5.266   3.502  2.6068 -1.4930  2.9472
   67SAPC   C39 5654   4.491   5.274   3.525 -0.0031 -0.1464  0.6329
   67SAPC   H9X 5655   4.495   5.383   3.546 -0.8043 -0.0992  0.5469
   67SAPC   H9Y 5656   4.584   5.263   3.466  0.1404 -0.7037  0.9613
   67SAPC  C310 5657   4.498   5.186   3.649  0.3390  0.4926  0.0672
   67SAPC  H10X 5658   4.578   5.110   3.635  0.7448  0.2332  3.0238
   67SAPC  H10Y 5659   4.401   5.135   3.668 -0.2930  2.0778  1.3980
   67SAPC  C311 5660   4.532   5.271   3.777 -0.1101 -0.0896 -0.0030
   67SAPC  H11X 5661   4.453   5.349   3.781  1.4493  1.6589 -1.7464
   67SAPC  H11Y 5662   4.634   5.314   3.767  1.3332 -3.2252 -0.1669
   67SAPC  C312 5663   4.550   5.185   3.902 -0.0233  0.0509 -0.7680
   67SAPC  H12X 5664   4.611   5.095   3.876 -0.8764 -1.2326  1.4396
   67SAPC  H12Y 5665   4.451   5.152   3.940  0.5603 -1.3944 -0.4124
   67SAPC  C313 5666   4.625   5.258   4.015 -0.1492  0.3258 -0.4100
   67SAPC  H13X 5667   4.571   5.350   4.045  2.0558  1.3331  0.6934
   67SAPC  H13Y 5668   4.728   5.274   3.978  0.7948  0.8582  2.2405
   67SAPC  C314 5669   4.662   5.160   4.128  0.1691  0.3511  0.5409
   67SAPC  H14X 5670   4.738   5.087   4.094 -0.8585 -0.5784  0.1666
   67SAPC  H14Y 5671   4.581   5.095   4.170  1.2396 -1.3487  0.0887
   67SAPC  C315 5672   4.724   5.239   4.246 -0.1808 -0.2929  0.2551
   67SAPC  H15X 5673   4.636   5.290   4.290  1.3434  0.3607  2.7859
   67SAPC  H15Y 5674   4.799   5.314   4.213  1.4612 -2.2383 -0.6828
   67SAPC  C316 5675   4.801   5.152   4.354 -0.5219  0.0168  0.2430
   67SAPC  H16X 5676   4.889   5.104   4.307  0.5309  0.7844  1.3666
   67SAPC  H16Y 5677   4.729   5.082   4.402  1.4766 -1.5244  1.1657
   67SAPC  C317 5678   4.849   5.234   4.477 -0.3326  0.2930 -0.0558
   67SAPC  H17X 5679   4.762   5.286   4.523 -0.4432 -0.3146  0.4351
   67SAPC  H17Y 5680   4.915   5.313   4.437 -1.6669  1.2784 -0.3735
   67SAPC  C318 5681   4.928   5.162   4.587 -0.3645 -0.0589 -0.2111
   67SAPC  H18X 5682   5.039   5.170   4.582 -0.2649 -1.1456  0.1034
   67SAPC  H18Y 5683   4.897   5.057   4.605  2.5339 -0.8762  0.6188
   67SAPC  H18Z 5684   4.917   5.230   4.675  1.2115  1.1121 -0.8532
   68SAPC     N 5685   5.563   5.611   1.956 -0.2228 -1.0295 -0.9720
   68SAPC   C12 5686   5.615   5.475   2.009 -0.0852  0.5969  0.1943
   68SAPC  H12A 5687   5.657   5.425   1.923  1.6926  1.5657  0.4497
   68SAPC  H12B 5688   5.526   5.418   2.031 -0.8162  0.9046 -1.7651
   68SAPC   C13 5689   5.462   5.590   1.848 -0.1634 -0.6072 -0.7330
   68SAPC  H13A 5690   5.506   5.539   1.764  0.4698  1.1023 -1.4627
   68SAPC  H13B 5691   5.376   5.536   1.885 -1.4304  0.8219 -1.4706
   68SAPC  H13C 5692   5.425   5.684   1.810  0.5946 -0.4393 -1.0732
   68SAPC   C14 5693   5.495   5.686   2.077  0.3343  0.0598  0.0431
   68SAPC  H14A 5694   5.414   5.623   2.108  0.9113 -0.7028  0.0195
   68SAPC  H14B 5695   5.558   5.723   2.157  1.5089  0.5279 -1.0689
   68SAPC  H14C 5696   5.444   5.775   2.043  0.5861  1.1708  2.3629
   68SAPC   C15 5697   5.672   5.690   1.895 -0.6212 -0.0834 -0.6599
   68SAPC  H15A 5698   5.646   5.782   1.845  0.4372  1.6299  1.7673
   68SAPC  H15B 5699   5.756   5.718   1.957 -1.0452 -1.1700  0.4572
   68SAPC  H15C 5700   5.711   5.625   1.818 -1.3908 -1.1090 -0.2037
   68SAPC   C11 5701   5.724   5.479   2.122  0.3650 -0.6044  0.2547
   68SAPC  H11A 5702   5.809   5.542   2.088 -0.3311  0.6593  0.7668
   68SAPC  H11B 5703   5.755   5.374   2.140  2.2555  0.0911  1.4758
   68SAPC     P 5704   5.563   5.466   2.334  0.3084 -0.2858  0.0416
   68SAPC   O13 5705   5.488   5.565   2.419 -0.0057  0.0187 -0.0735
   68SAPC   O14 5706   5.480   5.386   2.245  0.2065  0.4211  0.6611
   68SAPC   O12 5707   5.670   5.539   2.241 -0.2765  0.8442  0.3310
   68SAPC   O11 5708   5.649   5.369   2.427  0.1948  0.3725 -0.0626
   68SAPC    C1 5709   5.787   5.393   2.450 -0.2479  0.1242 -0.4699
   68SAPC    HA 5710   5.845   5.309   2.406 -1.1306 -1.2620  0.9505
   68SAPC    HB 5711   5.834   5.481   2.399  0.3004  0.8051  1.1490
   68SAPC    C2 5712   5.818   5.403   2.603 -0.2901  0.3130  0.4605
   68SAPC    HS 5713   5.928   5.385   2.609  0.1812  3.1412  1.8148
   68SAPC   O21 5714   5.745   5.314   2.684  0.1851  0.4244 -0.1391
   68SAPC   C21 5715   5.761   5.187   2.661  0.2656 -0.1862  0.0985
   68SAPC   O22 5716   5.829   5.134   2.576 -0.4592 -0.6360  0.2964
   68SAPC   C22 5717   5.663   5.102   2.757 -0.1446  0.4212 -0.0281
   68SAPC   H2R 5718   5.629   5.169   2.839  0.0974  0.4301  0.0661
   68SAPC   H2S 5719   5.583   5.060   2.693 -0.8905  0.4119  0.8861
   68SAPC    C3 5720   5.786   5.552   2.655 -0.0711  0.0581 -0.3726
   68SAPC    HX 5721   5.678   5.577   2.645 -0.7263 -2.0420  0.8317
   68SAPC    HY 5722   5.840   5.617   2.583  0.3868 -1.4649 -1.4636
   68SAPC   O31 5723   5.841   5.571   2.790  0.5393 -0.2868 -0.5801
   68SAPC   C31 5724   5.751   5.520   2.884 -0.3252  0.1931  0.2630
   68SAPC   O32 5725   5.637   5.489   2.860  0.5833 -0.1354  0.5080
   68SAPC   C32 5726   5.808   5.522   3.022  0.1544 -0.1657 -0.5055
   68SAPC   H2X 5727   5.821   5.628   3.050 -1.6984 -0.5025  1.9348
   68SAPC   H2Y 5728   5.905   5.468   3.022  0.4875  0.4251 -0.8243
   68SAPC   C23 5729   5.734   4.973   2.816 -0.7270  0.3882 -0.4975
   68SAPC   H3R 5730   5.783   4.920   2.732  0.2675 -1.7357  1.2908
   68SAPC   H3S 5731   5.652   4.907   2.853  1.7540 -1.6850  1.6427
   68SAPC   C24 5732   5.845   5.013   2.923 -0.4313  0.7184 -0.8006
   68SAPC   H4R 5733   5.925   5.061   2.863  0.9323  0.2158  0.5592
   68SAPC   H4S 5734   5.899   4.923   2.960  1.6031  2.8143  1.6996
   68SAPC   C25 5735   5.796   5.094   3.042 -0.3585  0.3138 -0.0311
   68SAPC   H5R 5736   5.783   5.198   3.009 -0.9619  0.4670  0.6621
   68SAPC   C26 5737   5.806   5.068   3.170  0.0635 -0.6488 -0.1982
   68SAPC   H6R 5738   5.754   5.140   3.234 -1.7777  0.4839 -2.7898
   68SAPC   C27 5739   5.819   4.934   3.226 -0.0529 -0.5936  0.2888
   68SAPC   H7R 5740   5.847   4.866   3.143 -2.2142 -1.8808  0.5300
   68SAPC   H7S 5741   5.719   4.901   3.261 -1.0709  1.0921 -0.8627
   68SAPC   C28 5742   5.926   4.927   3.331  0.2207 -0.4918 -0.4715
   68SAPC   H8R 5743   5.996   5.011   3.334  0.2472 -0.5453  0.9338
   68SAPC   C29 5744   5.941   4.831   3.426  0.0915 -0.5720  0.0140
   68SAPC   H9R 5745   6.010   4.845   3.511  1.3295  1.5346 -1.2350
   68SAPC  C210 5746   5.862   4.701   3.434  0.0471  0.2901  0.8368
   68SAPC  H10R 5747   5.783   4.701   3.357  2.2832 -0.5950 -1.6175
   68SAPC  H10S 5748   5.805   4.707   3.529 -1.6054 -1.1562 -0.0045
   68SAPC  C211 5749   5.952   4.577   3.430  0.1229 -0.2975 -0.4280
   68SAPC  H11R 5750   6.004   4.551   3.524  1.3337 -1.5761 -1.4040
   68SAPC  C212 5751   5.974   4.507   3.322 -0.1249  0.1869 -0.0392
   68SAPC  H12R 5752   6.049   4.426   3.323 -2.0789 -1.7130  0.1189
   68SAPC  C213 5753   5.914   4.524   3.188  0.7756 -0.9633  0.6767
   68SAPC  H13R 5754   5.987   4.488   3.112 -0.1772 -0.3356 -0.5727
   68SAPC  H13S 5755   5.890   4.630   3.166  1.8035 -1.2590 -2.3292
   68SAPC  C214 5756   5.784   4.442   3.172 -0.4511 -0.3303 -0.2004
   68SAPC  H14R 5757   5.764   4.366   3.248 -1.4277 -0.2379 -0.3565
   68SAPC  C215 5758   5.710   4.463   3.063 -0.5464 -0.2346  0.9016
   68SAPC  H15R 5759   5.621   4.403   3.038  1.4540 -1.3772 -4.9887
   68SAPC  C216 5760   5.742   4.557   2.945  0.6052 -0.3698  0.0777
   68SAPC  H16R 5761   5.813   4.639   2.968 -2.1640  2.0320  0.7483
   68SAPC  H16S 5762   5.655   4.615   2.907  0.6984 -0.3919 -0.1714
   68SAPC  C217 5763   5.820   4.477   2.839 -0.4761  0.0871  0.6182
   68SAPC  H17R 5764   5.755   4.396   2.799  0.1271 -0.1879  0.1758
   68SAPC  H17S 5765   5.917   4.442   2.881  1.3493  3.7789 -0.1308
   68SAPC  C218 5766   5.857   4.564   2.720  0.3215  0.2355 -0.0861
   68SAPC  H18R 5767   5.936   4.638   2.747  0.7228  0.2467 -1.2167
   68SAPC  H18S 5768   5.766   4.613   2.680  0.7296  0.7565 -0.4002
   68SAPC  C219 5769   5.926   4.480   2.613  0.4589 -0.2531  0.2198
   68SAPC  H19R 5770   5.853   4.437   2.542  0.7808 -1.8060  0.7807
   68SAPC  H19S 5771   5.974   4.393   2.661  1.9147  0.1317 -0.4896
   68SAPC  C220 5772   6.028   4.564   2.529  0.2856  0.4150 -0.3214
   68SAPC  H20R 5773   6.113   4.603   2.589 -1.2150 -0.0551  2.2677
   68SAPC  H20S 5774   5.981   4.651   2.480  1.3646  0.7456 -0.8038
   68SAPC  H20T 5775   6.069   4.495   2.451 -1.5465  0.4028 -1.3349
   68SAPC   C33 5776   5.714   5.467   3.125 -0.0417  0.6130 -0.7886
   68SAPC   H3X 5777   5.689   5.361   3.102 -0.9437  0.1669  1.9194
   68SAPC   H3Y 5778   5.620   5.525   3.117 -0.2609  0.0715 -2.4397
   68SAPC   C34 5779   5.771   5.477   3.267 -0.0493 -0.1247  0.2787
   68SAPC   H4X 5780   5.693   5.438   3.336 -1.1077  3.3412  1.2819
   68SAPC   H4Y 5781   5.785   5.582   3.300  1.4484 -0.0854 -0.4239
   68SAPC   C35 5782   5.898   5.400   3.293 -1.3265  0.1232 -0.9612
   68SAPC   H5X 5783   5.981   5.452   3.241  1.0028 -0.5371  1.8506
   68SAPC   H5Y 5784   5.881   5.294   3.262  2.4525 -1.4080  1.5675
   68SAPC   C36 5785   5.923   5.404   3.448 -0.4156 -0.2248  0.0735
   68SAPC   H6X 5786   5.837   5.376   3.513  0.0958  1.7855  1.7219
   68SAPC   H6Y 5787   5.951   5.508   3.477  0.0777 -0.5247  0.6972
   68SAPC   C37 5788   6.045   5.309   3.489  0.9646 -0.5591  0.0685
   68SAPC   H7X 5789   6.121   5.332   3.412 -0.7279  0.0256 -1.5102
   68SAPC   H7Y 5790   6.017   5.203   3.476  1.1855 -0.5780 -0.2346
   68SAPC   C38 5791   6.095   5.342   3.631 -0.4314  0.7055  0.7232
   68SAPC   H8X 5792   6.078   5.450   3.655 -0.3104  0.3466  2.5307
   68SAPC   H8Y 5793   6.205   5.325   3.635 -0.4504  0.0353 -0.7994
   68SAPC   C39 5794   6.030   5.249   3.733 -0.5513  0.2232 -0.3610
   68SAPC   H9X 5795   6.031   5.141   3.705 -3.6526  0.0840 -0.2984
   68SAPC   H9Y 5796   5.921   5.269   3.742 -0.6524 -0.3738 -0.2313
   68SAPC  C310 5797   6.081   5.279   3.874 -0.8489  0.3151  0.0132
   68SAPC  H10X 5798   6.007   5.237   3.946 -0.9565  1.3085  0.4993
   68SAPC  H10Y 5799   6.080   5.388   3.894 -1.4566  0.2229  0.5494
   68SAPC  C311 5800   6.215   5.208   3.911  0.2497 -0.3056 -0.5952
   68SAPC  H11X 5801   6.285   5.249   3.835  0.4943  0.9327  0.2591
   68SAPC  H11Y 5802   6.211   5.098   3.899 -2.2648 -0.3821  0.3834
   68SAPC  C312 5803   6.258   5.241   4.052 -0.2873 -0.1250 -0.8427
   68SAPC  H12X 5804   6.177   5.238   4.128  0.8596  1.9406  0.5328
   68SAPC  H12Y 5805   6.286   5.349   4.051 -1.4383  0.1841 -1.9611
   68SAPC  C313 5806   6.378   5.153   4.090  0.3334  0.3893  0.1694
   68SAPC  H13X 5807   6.449   5.156   4.005  0.0966  0.6241 -0.0220
   68SAPC  H13Y 5808   6.351   5.046   4.102  1.8110 -0.2800 -1.8948
   68SAPC  C314 5809   6.441   5.196   4.222  0.4056  0.4038  0.0850
   68SAPC  H14X 5810   6.467   5.304   4.222  0.1581  0.4617  0.2524
   68SAPC  H14Y 5811   6.539   5.145   4.234  1.2790  2.1851  0.9184
   68SAPC  C315 5812   6.364   5.149   4.341  0.0663  0.4061 -0.2423
   68SAPC  H15X 5813   6.362   5.038   4.339 -0.9349  0.2713  2.8475
   68SAPC  H15Y 5814   6.255   5.172   4.335 -0.2663 -1.4481 -3.5811
   68SAPC  C316 5815   6.421   5.196   4.482  0.2476  0.1514 -0.1184
   68SAPC  H16X 5816   6.346   5.159   4.556 -0.0542 -0.4358 -0.7072
   68SAPC  H16Y 5817   6.412   5.306   4.473  2.2751  0.2731 -1.2760
   68SAPC  C317 5818   6.558   5.163   4.526  0.0269  0.2487  0.3213
   68SAPC  H17X 5819   6.628   5.192   4.445 -1.4141 -1.2733 -1.5606
   68SAPC  H17Y 5820   6.573   5.053   4.523  1.6022  0.4605 -1.6549
   68SAPC  C318 5821   6.604   5.212   4.664 -0.3287 -0.1370  0.5825
   68SAPC  H18X 5822   6.610   5.323   4.656  0.0346 -0.3016 -3.6118
   68SAPC  H18Y 5823   6.700   5.167   4.697  0.2666  1.5705  1.2939
   68SAPC  H18Z 5824   6.528   5.175   4.736  0.5066 -1.7607  0.6792
   69SAPC     N 5825   0.799   0.369   2.640  0.6566  0.4173 -0.3485
   69SAPC   C12 5826   0.918   0.320   2.720  0.8056 -0.2083  0.1554
   69SAPC  H12A 5827   0.877   0.265   2.804 -0.4202 -1.7688 -1.3803
   69SAPC  H12B 5828   0.973   0.407   2.752  1.7366  0.6552 -3.4416
   69SAPC   C13 5829   0.716   0.250   2.589 -0.7164  0.4840 -0.1905
   69SAPC  H13A 5830   0.667   0.194   2.667 -0.5888  0.3173 -0.2289
   69SAPC  H13B 5831   0.647   0.275   2.509 -0.0198  1.8230 -0.3916
   69SAPC  H13C 5832   0.784   0.181   2.542 -0.6629 -1.3649  2.3838
   69SAPC   C14 5833   0.716   0.464   2.727 -1.0701 -0.1514  0.9015
   69SAPC  H14A 5834   0.628   0.484   2.666 -0.3263 -1.6132 -0.7403
   69SAPC  H14B 5835   0.685   0.426   2.823 -1.6920 -1.2538  0.2861
   69SAPC  H14C 5836   0.764   0.557   2.751  0.5268 -1.3492  2.5675
   69SAPC   C15 5837   0.838   0.441   2.512  0.2643 -0.0259 -0.4441
   69SAPC  H15A 5838   0.759   0.464   2.441  1.5120  1.4529 -1.4334
   69SAPC  H15B 5839   0.895   0.531   2.530 -1.0667  0.7361  0.1401
   69SAPC  H15C 5840   0.893   0.374   2.449 -1.7705 -0.6740 -1.6328
   69SAPC   C11 5841   1.008   0.218   2.650  0.5068 -0.0388 -0.9323
   69SAPC  H11A 5842   1.105   0.212   2.704 -1.0500 -1.0368  1.9415
   69SAPC  H11B 5843   1.036   0.237   2.544 -1.6055 -0.8113 -1.6649
   69SAPC     P 5844   0.927  -0.003   2.764 -0.2349  0.1404  0.1957
   69SAPC   O13 5845   0.809  -0.093   2.745  0.1348  0.0578 -0.1696
   69SAPC   O14 5846   1.055  -0.068   2.791 -0.5186  0.2325  0.0550
   69SAPC   O12 5847   0.946   0.093   2.644 -0.1885  0.4197 -0.1927
   69SAPC   O11 5848   0.890   0.094   2.882 -0.4945 -0.5678 -0.3075
   69SAPC    C1 5849   0.757   0.091   2.932 -0.0517 -0.2712 -0.4609
   69SAPC    HA 5850   0.710   0.190   2.952  0.9532  0.2054 -0.4282
   69SAPC    HB 5851   0.685   0.039   2.864 -2.2125 -0.0914  1.5391
   69SAPC    C2 5852   0.750   0.020   3.071  0.2873 -0.6076 -0.1101
   69SAPC    HS 5853   0.649  -0.026   3.070 -0.7586  1.4833  1.4925
   69SAPC   O21 5854   0.772   0.110   3.182 -0.2797 -0.0661  0.2965
   69SAPC   C21 5855   0.670   0.184   3.215 -0.3487 -0.6008  0.6928
   69SAPC   O22 5856   0.558   0.172   3.166  0.2802  0.1435  0.0260
   69SAPC   C22 5857   0.709   0.295   3.311  0.2890  0.5654  0.2304
   69SAPC   H2R 5858   0.819   0.303   3.319  0.2735  0.1382  1.0425
   69SAPC   H2S 5859   0.674   0.391   3.267  2.7708  0.7373 -1.5200
   69SAPC    C3 5860   0.844  -0.107   3.081 -0.0506 -0.2770  0.3647
   69SAPC    HX 5861   0.948  -0.068   3.073  0.6011 -2.2697 -3.1364
   69SAPC    HY 5862   0.829  -0.183   3.000  3.2345 -0.5802 -0.1120
   69SAPC   O31 5863   0.827  -0.163   3.219  0.1870 -0.0066 -0.8420
   69SAPC   C31 5864   0.906  -0.259   3.252 -0.0020  0.4417 -0.5513
   69SAPC   O32 5865   1.015  -0.279   3.198  0.6271  0.5792  0.0499
   69SAPC   C32 5866   0.864  -0.337   3.379  0.2797 -0.0489  0.5828
   69SAPC   H2X 5867   0.767  -0.386   3.354 -0.5079  0.5393  2.3415
   69SAPC   H2Y 5868   0.839  -0.262   3.457  0.1958  2.3847 -1.6119
   69SAPC   C23 5869   0.636   0.273   3.442  0.3597 -0.5508  0.3752
   69SAPC   H3R 5870   0.688   0.198   3.505 -1.6966 -3.0319 -0.7216
   69SAPC   H3S 5871   0.532   0.237   3.429  0.7515 -0.7248 -3.1049
   69SAPC   C24 5872   0.638   0.405   3.514  0.2328  0.0261 -0.0433
   69SAPC   H4R 5873   0.561   0.468   3.464 -1.4788 -2.3497 -0.5741
   69SAPC   H4S 5874   0.740   0.449   3.511  0.1389  0.3646  1.0623
   69SAPC   C25 5875   0.583   0.389   3.660 -0.6213 -0.1832 -1.1071
   69SAPC   H5R 5876   0.665   0.385   3.733 -1.4987  0.5980 -0.0596
   69SAPC   C26 5877   0.459   0.367   3.709  0.1180  0.0141 -0.1073
   69SAPC   H6R 5878   0.439   0.357   3.817 -2.1236 -0.8947 -0.5561
   69SAPC   C27 5879   0.329   0.380   3.637  0.1652 -0.0493 -0.0454
   69SAPC   H7R 5880   0.324   0.372   3.527 -0.2957 -1.4236  0.0487
   69SAPC   H7S 5881   0.299   0.486   3.650  3.1922  0.9420 -0.4153
   69SAPC   C28 5882   0.223   0.292   3.709  0.7486  0.3214 -0.2767
   69SAPC   H8R 5883   0.199   0.207   3.644  0.9251  0.8824 -1.0911
   69SAPC   C29 5884   0.179   0.295   3.840  0.0016  0.7695  0.7405
   69SAPC   H9R 5885   0.103   0.216   3.856  0.6970 -0.6662 -2.2439
   69SAPC  C210 5886   0.198   0.388   3.958 -0.3502 -0.1345 -0.4362
   69SAPC  H10R 5887   0.099   0.437   3.970 -1.5537 -2.5116  0.0251
   69SAPC  H10S 5888   0.260   0.480   3.950 -1.0088  0.2130 -1.6217
   69SAPC  C211 5889   0.230   0.315   4.089 -0.1247 -0.0632  0.4920
   69SAPC  H11R 5890   0.340   0.312   4.097 -0.1231 -2.7551  0.1306
   69SAPC  C212 5891   0.146   0.266   4.185  0.3860  0.2730  0.5758
   69SAPC  H12R 5892   0.194   0.215   4.270 -0.6658  1.1442  1.7483
   69SAPC  C213 5893   0.001   0.267   4.187 -0.9010  0.3705 -0.1706
   69SAPC  H13R 5894  -0.032   0.174   4.136 -3.1685  0.5300  0.8650
   69SAPC  H13S 5895  -0.033   0.347   4.117 -2.8420 -0.3193 -0.0768
   69SAPC  C214 5896  -0.059   0.301   4.319  0.4918 -0.1652  0.2822
   69SAPC  H14R 5897  -0.016   0.386   4.374  0.0858  0.5158 -0.4252
   69SAPC  C215 5898  -0.160   0.229   4.368 -0.3601 -0.3056  0.5511
   69SAPC  H15R 5899  -0.199   0.252   4.468 -0.7470  0.7854  0.1660
   69SAPC  C216 5900  -0.226   0.104   4.311  0.0477 -0.8975  0.1663
   69SAPC  H16R 5901  -0.165   0.066   4.227  1.2218  2.5060 -0.7070
   69SAPC  H16S 5902  -0.330   0.115   4.274 -0.4410  3.2091  2.1494
   69SAPC  C217 5903  -0.238  -0.006   4.413  0.1076  0.0064  0.4340
   69SAPC  H17R 5904  -0.147  -0.032   4.471 -0.8428 -0.5110  1.7524
   69SAPC  H17S 5905  -0.264  -0.104   4.369  1.5021  0.0040 -0.4452
   69SAPC  C218 5906  -0.350   0.024   4.513  0.7541  0.5883 -0.1995
   69SAPC  H18R 5907  -0.452   0.022   4.467  0.1497 -0.4072  1.1340
   69SAPC  H18S 5908  -0.337   0.116   4.574  1.7510 -0.9033  1.9295
   69SAPC  C219 5909  -0.351  -0.083   4.614 -0.3463  0.1476 -0.2901
   69SAPC  H19R 5910  -0.259  -0.098   4.676 -1.0488  1.1905  1.0658
   69SAPC  H19S 5911  -0.355  -0.179   4.559 -0.0386  1.1420 -2.1085
   69SAPC  C220 5912  -0.478  -0.064   4.701  0.3577  0.0002  0.6886
   69SAPC  H20R 5913  -0.574  -0.073   4.645  1.2463 -1.1535 -0.7443
   69SAPC  H20S 5914  -0.467   0.041   4.735  3.3966  0.0241 -0.0629
   69SAPC  H20T 5915  -0.481  -0.128   4.792  1.4005 -1.0486  0.0256
   69SAPC   C33 5916   0.969  -0.437   3.432 -0.2333 -0.7662 -0.4703
   69SAPC   H3X 5917   1.066  -0.382   3.434  0.6898 -2.3385 -0.0386
   69SAPC   H3Y 5918   0.976  -0.519   3.357  1.0037 -1.4438  0.3362
   69SAPC   C34 5919   0.973  -0.480   3.577  0.1268  0.7610  0.1277
   69SAPC   H4X 5920   0.887  -0.550   3.587 -0.5756  1.5358 -0.3613
   69SAPC   H4Y 5921   0.949  -0.388   3.635 -3.0724  0.2252 -0.1618
   69SAPC   C35 5922   1.110  -0.543   3.617  0.5697 -0.6953  0.2200
   69SAPC   H5X 5923   1.183  -0.467   3.582 -0.2237 -0.3101 -0.6417
   69SAPC   H5Y 5924   1.127  -0.642   3.571  0.4346 -0.4832 -0.2901
   69SAPC   C36 5925   1.127  -0.556   3.769  0.4654  0.8964 -0.3857
   69SAPC   H6X 5926   1.057  -0.635   3.805 -1.3716  2.0154 -1.3259
   69SAPC   H6Y 5927   1.104  -0.458   3.818  0.2792  1.4049 -1.4511
   69SAPC   C37 5928   1.272  -0.592   3.802 -0.4668  0.7610  0.2437
   69SAPC   H7X 5929   1.329  -0.498   3.786  1.3138 -0.4336 -0.7946
   69SAPC   H7Y 5930   1.326  -0.658   3.730  0.4293  2.2125 -0.4720
   69SAPC   C38 5931   1.278  -0.647   3.946 -0.0144  0.2076 -0.0047
   69SAPC   H8X 5932   1.249  -0.753   3.932 -0.3410  0.5373 -2.2824
   69SAPC   H8Y 5933   1.212  -0.607   4.025 -0.2671  0.4474 -0.3338
   69SAPC   C39 5934   1.420  -0.644   4.000 -0.2571  0.6520 -0.2971
   69SAPC   H9X 5935   1.427  -0.558   4.069  1.1295  0.6485 -0.4029
   69SAPC   H9Y 5936   1.497  -0.624   3.922 -0.2223  1.9184  0.0486
   69SAPC  C310 5937   1.452  -0.772   4.093 -0.1201  0.3687 -0.5026
   69SAPC  H10X 5938   1.449  -0.860   4.026 -0.4648 -1.5620  1.9017
   69SAPC  H10Y 5939   1.365  -0.783   4.161 -0.8616  1.1482 -1.2953
   69SAPC  C311 5940   1.581  -0.757   4.179 -0.4293  0.2066  0.5220
   69SAPC  H11X 5941   1.674  -0.739   4.121 -0.6407  4.4531  1.1854
   69SAPC  H11Y 5942   1.608  -0.852   4.228 -2.1560  0.2247  1.6179
   69SAPC  C312 5943   1.563  -0.645   4.280 -0.3451 -0.2373 -0.4429
   69SAPC  H12X 5944   1.454  -0.656   4.300 -0.3249 -2.4186 -1.2882
   69SAPC  H12Y 5945   1.575  -0.542   4.241 -0.0955 -0.8185 -1.9590
   69SAPC  C313 5946   1.648  -0.656   4.409  0.5967 -0.1713  0.5246
   69SAPC  H13X 5947   1.753  -0.625   4.390  0.5200 -0.7347 -0.9397
   69SAPC  H13Y 5948   1.661  -0.760   4.446  0.4865  0.1704  1.5600
   69SAPC  C314 5949   1.583  -0.578   4.527 -0.7273  0.0417 -0.0369
   69SAPC  H14X 5950   1.473  -0.592   4.527 -0.4600 -2.8807  2.1758
   69SAPC  H14Y 5951   1.608  -0.472   4.500  0.2676  0.1040  1.0575
   69SAPC  C315 5952   1.648  -0.612   4.662 -0.0416  0.1617 -0.2263
   69SAPC  H15X 5953   1.756  -0.599   4.641 -0.2754  0.6316 -1.2064
   69SAPC  H15Y 5954   1.634  -0.712   4.709  0.4807  0.9804  1.7372
   69SAPC  C316 5955   1.615  -0.511   4.767  1.3755 -0.3287 -0.0078
   69SAPC  H16X 5956   1.504  -0.497   4.773  0.8353 -3.9750  0.7316
   69SAPC  H16Y 5957   1.652  -0.407   4.756 -1.3885  0.7848  0.4408
   69SAPC  C317 5958   1.652  -0.560   4.911  0.5078 -0.1263 -0.6902
   69SAPC  H17X 5959   1.598  -0.653   4.938  0.1323  0.3396  0.1939
   69SAPC  H17Y 5960   1.612  -0.485   4.982 -1.3767 -2.7735  1.2485
   69SAPC  C318 5961   1.801  -0.588   4.939 -0.6455  0.1576 -0.1116
   69SAPC  H18X 5962   1.859  -0.501   4.904 -0.8793 -0.2042 -1.4489
   69SAPC  H18Y 5963   1.825  -0.680   4.883 -1.1698 -0.8892  1.3024
   69SAPC  H18Z 5964   1.814  -0.613   5.047 -0.5360 -3.2246 -0.8034
   70SAPC     N 5965   2.568   3.943   2.157 -0.4039 -0.0836 -0.5386
   70SAPC   C12 5966   2.662   3.906   2.275  0.9294  0.2676 -0.1977
   70SAPC  H12A 5967   2.630   3.977   2.350 -0.4758 -0.3394 -0.1836
   70SAPC  H12B 5968   2.764   3.936   2.262  0.5093  2.4926  1.1183
   70SAPC   C13 5969   2.633   3.872   2.037 -0.1450  0.3773  0.0534
   70SAPC  H13A 5970   2.570   3.875   1.950 -1.5864  0.5500  1.0590
   70SAPC  H13B 5971   2.734   3.905   2.018 -0.0747  0.3152  0.3146
   70SAPC  H13C 5972   2.640   3.767   2.063 -1.4249  1.1116  3.9771
   70SAPC   C14 5973   2.429   3.893   2.181  0.4758 -0.1561  0.6510
   70SAPC  H14A 5974   2.393   3.916   2.280  0.9877 -0.4319  0.9021
   70SAPC  H14B 5975   2.357   3.936   2.112  1.4591 -1.1035 -1.0459
   70SAPC  H14C 5976   2.426   3.787   2.165  2.0363 -0.2560  0.9045
   70SAPC   C15 5977   2.565   4.095   2.137  0.3020  0.5615 -0.1807
   70SAPC  H15A 5978   2.537   4.142   2.230  1.3628 -0.0778  0.4781
   70SAPC  H15B 5979   2.660   4.138   2.108  0.6350  0.1944  0.3491
   70SAPC  H15C 5980   2.493   4.109   2.057 -0.2676 -1.8862 -0.1738
   70SAPC   C11 5981   2.662   3.767   2.335 -0.6885 -0.1054  0.4405
   70SAPC  H11A 5982   2.740   3.755   2.413 -0.5063 -1.7305  0.0380
   70SAPC  H11B 5983   2.695   3.691   2.260  0.8407  0.7743  0.1776
   70SAPC     P 5984   2.496   3.572   2.388 -0.1501  0.0429  0.1317
   70SAPC   O13 5985   2.445   3.547   2.249 -0.7196  0.2652 -0.1984
   70SAPC   O14 5986   2.603   3.488   2.441  0.2232 -1.0093 -0.5622
   70SAPC   O12 5987   2.538   3.717   2.394 -0.0202 -0.0859  0.1736
   70SAPC   O11 5988   2.367   3.561   2.479 -0.2116 -0.2572 -0.4077
   70SAPC    C1 5989   2.290   3.683   2.514 -0.6883 -0.3072 -0.1719
   70SAPC    HA 5990   2.314   3.771   2.450 -0.6301 -1.2428 -1.4855
   70SAPC    HB 5991   2.182   3.656   2.503 -1.2752  0.9860  1.8321
   70SAPC    C2 5992   2.302   3.726   2.659  0.8821 -0.2025 -0.3279
   70SAPC    HS 5993   2.243   3.819   2.673  0.8650 -0.2234 -0.2601
   70SAPC   O21 5994   2.439   3.750   2.685 -0.0809  0.8150  0.3779
   70SAPC   C21 5995   2.495   3.867   2.656  0.5696 -0.3145 -0.0347
   70SAPC   O22 5996   2.443   3.962   2.601  0.4701 -0.1238  0.4184
   70SAPC   C22 5997   2.639   3.856   2.697 -0.1907 -0.7894 -0.3586
   70SAPC   H2R 5998   2.657   3.761   2.752 -0.3002 -0.3591  0.4437
   70SAPC   H2S 5999   2.694   3.872   2.602 -0.9138 -1.5340 -0.9170
   70SAPC    C3 6000   2.257   3.617   2.752 -0.0805  0.3797 -0.6532
   70SAPC    HX 6001   2.316   3.524   2.738 -1.4424 -0.7161  0.4845
   70SAPC    HY 6002   2.149   3.592   2.738  0.2254 -1.4648 -0.0060
   70SAPC   O31 6003   2.278   3.662   2.887  0.3279  0.3543 -0.7079
   70SAPC   C31 6004   2.183   3.729   2.948  0.2379 -0.5440  0.0147
   70SAPC   O32 6005   2.078   3.754   2.888 -0.2802 -0.1895  0.3710
   70SAPC   C32 6006   2.223   3.796   3.083 -0.1543  0.1377  0.6306
   70SAPC   H2X 6007   2.209   3.906   3.080 -0.1169  0.1663  1.3276
   70SAPC   H2Y 6008   2.333   3.778   3.086  0.0388  0.5499 -1.7614
   70SAPC   C23 6009   2.667   3.978   2.792  0.3451  0.1367  0.6417
   70SAPC   H3R 6010   2.645   4.077   2.747  0.6468  0.1189  0.4557
   70SAPC   H3S 6011   2.776   3.977   2.811 -0.0246  1.5760  3.3442
   70SAPC   C24 6012   2.586   3.973   2.924 -0.7105 -0.3656 -0.0184
   70SAPC   H4R 6013   2.480   3.989   2.894 -0.9615 -0.0048  1.0170
   70SAPC   H4S 6014   2.623   4.064   2.976 -2.7327  1.8716 -2.2419
   70SAPC   C25 6015   2.590   3.847   3.007 -0.5368  0.0461 -0.2672
   70SAPC   H5R 6016   2.562   3.753   2.958 -2.9701 -0.5928  2.1303
   70SAPC   C26 6017   2.601   3.833   3.141  0.1865 -0.4090  0.2900
   70SAPC   H6R 6018   2.607   3.731   3.183 -2.1315 -0.9366 -0.5237
   70SAPC   C27 6019   2.620   3.952   3.236 -0.0845  0.0265 -0.0336
   70SAPC   H7R 6020   2.678   4.036   3.192 -3.1520  1.7625 -1.0832
   70SAPC   H7S 6021   2.684   3.921   3.321  0.4609 -1.9195 -1.0892
   70SAPC   C28 6022   2.489   4.009   3.295  0.1060 -0.2530 -0.3068
   70SAPC   H8R 6023   2.396   3.966   3.256 -0.9068  0.7604  0.9081
   70SAPC   C29 6024   2.465   4.113   3.383  0.5782  0.1107 -0.1956
   70SAPC   H9R 6025   2.360   4.145   3.393  0.9295  1.0061  0.7734
   70SAPC  C210 6026   2.575   4.189   3.452 -0.3869 -0.7956 -0.5538
   70SAPC  H10R 6027   2.666   4.126   3.443 -0.8558 -1.3260 -1.7869
   70SAPC  H10S 6028   2.565   4.192   3.563  0.0283  1.1357 -0.5381
   70SAPC  C211 6029   2.610   4.316   3.381 -0.5046  0.0925  1.2164
   70SAPC  H11R 6030   2.589   4.307   3.273  0.7046 -1.8400  1.0921
   70SAPC  C212 6031   2.657   4.429   3.430  0.0489  0.0985  0.8408
   70SAPC  H12R 6032   2.670   4.507   3.355 -1.3325 -0.9375 -0.5561
   70SAPC  C213 6033   2.689   4.449   3.579  0.5858 -0.3395  0.5461
   70SAPC  H13R 6034   2.609   4.395   3.633 -2.4092  0.9956 -2.2527
   70SAPC  H13S 6035   2.679   4.553   3.617  0.9579 -0.1086  0.0307
   70SAPC  C214 6036   2.831   4.413   3.619 -0.1055 -0.0711 -0.6334
   70SAPC  H14R 6037   2.877   4.335   3.557  0.6091 -0.1781  0.0153
   70SAPC  C215 6038   2.897   4.462   3.728 -0.2989 -0.1340 -0.5194
   70SAPC  H15R 6039   3.002   4.435   3.749  0.2057  2.8242  1.4327
   70SAPC  C216 6040   2.857   4.579   3.817 -0.2478  0.3350 -0.0352
   70SAPC  H16R 6041   2.873   4.677   3.768  2.2976 -0.1516 -0.3093
   70SAPC  H16S 6042   2.924   4.586   3.905  0.5761 -0.3199 -0.5968
   70SAPC  C217 6043   2.721   4.578   3.889 -1.1038 -0.4505 -0.9086
   70SAPC  H17R 6044   2.722   4.499   3.967 -1.0448 -0.7187 -1.1774
   70SAPC  H17S 6045   2.644   4.540   3.819 -1.0462 -0.2437 -1.0858
   70SAPC  C218 6046   2.687   4.716   3.951 -0.0438 -0.7908 -0.5486
   70SAPC  H18R 6047   2.581   4.703   3.981  0.1043 -0.2704  0.2318
   70SAPC  H18S 6048   2.694   4.786   3.865  1.4508  0.9234  0.8982
   70SAPC  C219 6049   2.774   4.758   4.066  0.1231 -0.5128  0.6924
   70SAPC  H19R 6050   2.863   4.811   4.027  0.1095 -0.2041  1.0769
   70SAPC  H19S 6051   2.812   4.668   4.119  1.6107  0.1792  0.8617
   70SAPC  C220 6052   2.696   4.851   4.156  0.8060 -0.0712 -0.5932
   70SAPC  H20R 6053   2.652   4.938   4.104  0.3079 -0.1708 -0.3404
   70SAPC  H20S 6054   2.768   4.896   4.229  0.3333 -2.5403  1.5430
   70SAPC  H20T 6055   2.619   4.792   4.209  1.4549 -0.1371  0.3176
   70SAPC   C33 6056   2.145   3.745   3.204 -1.1850  0.5108  0.0686
   70SAPC   H3X 6057   2.146   3.634   3.215  0.0645  0.1887 -2.5913
   70SAPC   H3Y 6058   2.037   3.773   3.201 -0.5212  3.5565  0.9864
   70SAPC   C34 6059   2.197   3.801   3.339 -0.1239  0.3717  0.5936
   70SAPC   H4X 6060   2.191   3.909   3.315 -2.1713  0.4138  1.1183
   70SAPC   H4Y 6061   2.302   3.767   3.346  0.5322  1.6949 -1.8313
   70SAPC   C35 6062   2.112   3.767   3.460  0.2114  0.2800  0.0866
   70SAPC   H5X 6063   2.074   3.663   3.458 -5.4035  2.0205 -1.2913
   70SAPC   H5Y 6064   2.012   3.815   3.469  0.1937  0.4422 -0.8659
   70SAPC   C36 6065   2.205   3.794   3.590  0.0377  0.2605  0.6790
   70SAPC   H6X 6066   2.296   3.732   3.572  0.3592  1.3045 -1.6680
   70SAPC   H6Y 6067   2.164   3.747   3.682 -1.9360  0.2436 -0.1641
   70SAPC   C37 6068   2.240   3.938   3.625  0.1541 -0.7522 -0.2648
   70SAPC   H7X 6069   2.287   3.999   3.545 -1.5247 -0.5314 -1.1196
   70SAPC   H7Y 6070   2.144   3.984   3.655  2.3964  2.7068  2.5568
   70SAPC   C38 6071   2.337   3.929   3.741  0.0370 -0.5874  0.0776
   70SAPC   H8X 6072   2.421   3.866   3.706  0.7608  1.1163 -1.4171
   70SAPC   H8Y 6073   2.301   3.883   3.836  4.9980 -2.9440  1.1289
   70SAPC   C39 6074   2.403   4.064   3.789  1.2759  0.9778 -0.6162
   70SAPC   H9X 6075   2.316   4.130   3.812 -1.4292 -3.0733  2.2160
   70SAPC   H9Y 6076   2.455   4.116   3.706  1.2580  0.6118 -0.8600
   70SAPC  C310 6077   2.492   4.058   3.913  0.2019  0.2808 -0.3216
   70SAPC  H10X 6078   2.500   3.951   3.941  1.4181  0.4861  0.1438
   70SAPC  H10Y 6079   2.460   4.128   3.993  2.1759 -1.2183  1.9014
   70SAPC  C311 6080   2.635   4.103   3.877  0.0795 -0.1389 -0.2036
   70SAPC  H11X 6081   2.617   4.206   3.839 -0.7284  0.2481  1.1508
   70SAPC  H11Y 6082   2.687   4.041   3.801  2.1546  3.0244 -1.5715
   70SAPC  C312 6083   2.719   4.103   4.005  0.1227 -0.6847 -0.3942
   70SAPC  H12X 6084   2.712   4.001   4.050  2.3399 -1.1553 -0.9732
   70SAPC  H12Y 6085   2.673   4.169   4.082  1.7236 -1.5699  1.3983
   70SAPC  C313 6086   2.860   4.154   3.975 -0.8283 -0.2701  0.0509
   70SAPC  H13X 6087   2.847   4.258   3.938 -0.7790 -0.4448 -0.4694
   70SAPC  H13Y 6088   2.911   4.088   3.902  1.0435 -0.3978  1.4004
   70SAPC  C314 6089   2.948   4.157   4.101 -0.0769  0.6325 -0.4835
   70SAPC  H14X 6090   2.876   4.182   4.182 -0.2681  0.6339 -0.6521
   70SAPC  H14Y 6091   3.012   4.246   4.078  1.5253 -0.0904  0.9634
   70SAPC  C315 6092   3.034   4.033   4.130 -0.0880 -0.6960  0.3788
   70SAPC  H15X 6093   3.084   4.009   4.034 -0.5616  2.9345 -0.9225
   70SAPC  H15Y 6094   2.955   3.956   4.147 -0.7181 -0.3878 -1.0418
   70SAPC  C316 6095   3.130   4.051   4.248 -0.4445  0.2393  0.0489
   70SAPC  H16X 6096   3.154   3.951   4.292  1.7104  1.4186  1.7452
   70SAPC  H16Y 6097   3.086   4.099   4.338  1.7356  0.6891  0.9210
   70SAPC  C317 6098   3.253   4.126   4.205  0.1824 -0.1482  0.2839
   70SAPC  H17X 6099   3.220   4.221   4.156  0.0127 -1.0923 -1.5157
   70SAPC  H17Y 6100   3.311   4.075   4.126 -0.1299 -1.4490  0.8809
   70SAPC  C318 6101   3.354   4.152   4.316 -0.2426 -1.0093 -0.7819
   70SAPC  H18X 6102   3.310   4.202   4.405  0.1642 -1.2256 -0.4532
   70SAPC  H18Y 6103   3.433   4.220   4.279 -1.2950  1.0191  0.5068
   70SAPC  H18Z 6104   3.397   4.058   4.356  1.0156  0.0866  0.5634
   71SAPC     N 6105   3.299   3.454   2.511 -0.5931  0.3820 -0.1111
   71SAPC   C12 6106   3.147   3.471   2.485  0.4245 -0.0039 -0.4515
   71SAPC  H12A 6107   3.120   3.565   2.440 -0.9897  0.2266  0.8029
   71SAPC  H12B 6108   3.092   3.455   2.577 -1.0552 -1.5602 -1.5311
   71SAPC   C13 6109   3.343   3.557   2.603  0.3947  0.4297 -0.0374
   71SAPC  H13A 6110   3.339   3.657   2.561  0.4392  0.6602  0.4905
   71SAPC  H13B 6111   3.285   3.562   2.694 -1.1996 -1.7049 -0.8502
   71SAPC  H13C 6112   3.445   3.536   2.629  0.8975  1.5220 -1.0370
   71SAPC   C14 6113   3.330   3.322   2.573  0.6120 -0.0230  0.1588
   71SAPC  H14A 6114   3.279   3.241   2.521  1.5732 -1.3099  1.1469
   71SAPC  H14B 6115   3.435   3.300   2.568  0.6112  0.0159 -0.0475
   71SAPC  H14C 6116   3.286   3.319   2.671 -1.2849 -1.5429 -0.6558
   71SAPC   C15 6117   3.370   3.474   2.386 -0.0660 -0.2373  0.3767
   71SAPC  H15A 6118   3.476   3.461   2.403  0.0235  0.1138  0.0900
   71SAPC  H15B 6119   3.341   3.393   2.322  0.3324  1.0064 -1.4610
   71SAPC  H15C 6120   3.354   3.570   2.339 -0.0445 -0.6470 -0.4759
   71SAPC   C11 6121   3.072   3.363   2.389 -0.2882  0.9034 -0.4345
   71SAPC  H11A 6122   3.121   3.376   2.290 -1.5610 -0.6756 -1.3356
   71SAPC  H11B 6123   2.965   3.393   2.381 -0.3740  1.1619  1.3098
   71SAPC     P 6124   2.977   3.156   2.511  0.6276 -0.1245 -0.5555
   71SAPC   O13 6125   2.866   3.149   2.409 -0.1312 -0.3803  0.1339
   71SAPC   O14 6126   3.024   3.025   2.562  0.2281  0.4604  0.2683
   71SAPC   O12 6127   3.088   3.225   2.434 -0.2623  0.3654 -0.3036
   71SAPC   O11 6128   2.937   3.250   2.623 -0.4460  0.2786 -0.1593
   71SAPC    C1 6129   3.019   3.258   2.741  0.3800 -0.5551  0.1756
   71SAPC    HA 6130   3.115   3.202   2.731  0.6137 -0.1071 -0.1540
   71SAPC    HB 6131   3.029   3.364   2.775 -1.0992  0.2203 -1.6049
   71SAPC    C2 6132   2.941   3.189   2.862 -0.3273  0.5694 -0.6908
   71SAPC    HS 6133   2.912   3.088   2.824  1.7544 -1.2161  2.0789
   71SAPC   O21 6134   2.832   3.267   2.908  0.1136  0.2360 -0.4319
   71SAPC   C21 6135   2.707   3.227   2.878  0.4966  0.2809  0.1890
   71SAPC   O22 6136   2.678   3.118   2.832  0.3650  0.6909 -0.0371
   71SAPC   C22 6137   2.605   3.328   2.923 -0.3440 -0.3684 -0.6523
   71SAPC   H2R 6138   2.659   3.415   2.966 -1.7229  0.9926 -1.5595
   71SAPC   H2S 6139   2.568   3.360   2.824 -0.8615  2.3617  0.3317
   71SAPC    C3 6140   3.027   3.153   2.979  0.3175 -0.4189 -0.1736
   71SAPC    HX 6141   3.083   3.243   3.009 -0.0779  0.1453 -1.1084
   71SAPC    HY 6142   3.100   3.078   2.942  0.5536 -0.4298  0.3073
   71SAPC   O31 6143   2.952   3.106   3.093 -0.2630 -0.0875 -0.2454
   71SAPC   C31 6144   2.898   2.990   3.095  0.0927 -0.0867 -0.2201
   71SAPC   O32 6145   2.924   2.896   3.023  0.4561 -0.1390  0.1014
   71SAPC   C32 6146   2.788   2.987   3.204  0.0478 -0.8662 -0.1715
   71SAPC   H2X 6147   2.822   2.915   3.281 -1.7733 -0.4713  1.0716
   71SAPC   H2Y 6148   2.692   2.943   3.169  0.5149 -1.4000 -0.8217
   71SAPC   C23 6149   2.502   3.262   3.012  0.2778 -0.4426  0.0906
   71SAPC   H3R 6150   2.538   3.224   3.110  1.1123  0.9498  0.3548
   71SAPC   H3S 6151   2.451   3.177   2.962 -0.1905  0.5224 -1.1468
   71SAPC   C24 6152   2.383   3.354   3.065 -0.4779  0.0711  0.4961
   71SAPC   H4R 6153   2.299   3.284   3.086 -0.1292 -0.8282 -0.9232
   71SAPC   H4S 6154   2.342   3.417   2.983 -2.0156  0.3518  1.4449
   71SAPC   C25 6155   2.416   3.444   3.179 -0.3400 -0.3522 -0.5532
   71SAPC   H5R 6156   2.505   3.506   3.158 -0.1344 -0.7552 -0.8915
   71SAPC   C26 6157   2.350   3.453   3.301 -0.4053  0.6544  0.2064
   71SAPC   H6R 6158   2.392   3.522   3.376 -0.0904  1.0331 -0.3123
   71SAPC   C27 6159   2.220   3.383   3.348 -0.3641  0.3290  0.6237
   71SAPC   H7R 6160   2.142   3.363   3.272  0.3362 -0.7471  0.1650
   71SAPC   H7S 6161   2.173   3.445   3.428  1.2064  0.9721  1.0854
   71SAPC   C28 6162   2.248   3.242   3.400 -0.0656  0.4359  0.1130
   71SAPC   H8R 6163   2.269   3.168   3.321 -0.5598 -0.9126  1.1950
   71SAPC   C29 6164   2.250   3.204   3.530  0.0188  0.4462  0.2261
   71SAPC   H9R 6165   2.278   3.100   3.555 -1.8864  0.4275  2.5462
   71SAPC  C210 6166   2.212   3.284   3.650 -0.4621 -0.1987 -0.3712
   71SAPC  H10R 6167   2.101   3.289   3.654 -0.4081  0.7278  0.2849
   71SAPC  H10S 6168   2.244   3.389   3.635 -0.3535 -0.1868 -0.0659
   71SAPC  C211 6169   2.269   3.231   3.780  0.4265  0.2749 -0.3991
   71SAPC  H11R 6170   2.310   3.129   3.786 -0.0258  0.1490  0.8331
   71SAPC  C212 6171   2.272   3.297   3.901 -0.0065  0.6368  0.6350
   71SAPC  H12R 6172   2.305   3.257   3.998  1.8254  1.6688  0.4707
   71SAPC  C213 6173   2.230   3.437   3.915 -1.0863 -0.1502  0.4777
   71SAPC  H13R 6174   2.208   3.483   3.817 -0.5444 -0.4182  0.2253
   71SAPC  H13S 6175   2.318   3.499   3.943 -0.7436 -0.6880  0.6175
   71SAPC  C214 6176   2.107   3.463   4.002  0.2981 -0.2380  0.2448
   71SAPC  H14R 6177   2.018   3.410   3.968 -0.1232  0.1937  0.6564
   71SAPC  C215 6178   2.105   3.526   4.122  0.4730 -0.3496 -0.3679
   71SAPC  H15R 6179   2.006   3.514   4.169 -0.1050  1.7473 -0.9742
   71SAPC  C216 6180   2.210   3.607   4.190  0.0059  0.4524  0.8306
   71SAPC  H16R 6181   2.297   3.636   4.126 -1.0984 -0.2519 -1.0760
   71SAPC  H16S 6182   2.255   3.538   4.265  1.4598 -0.8729 -1.1336
   71SAPC  C217 6183   2.170   3.731   4.280  0.0450 -0.1897  0.5003
   71SAPC  H17R 6184   2.122   3.802   4.209  2.0465  1.0289  0.2905
   71SAPC  H17S 6185   2.263   3.783   4.310 -0.7713  1.5860  0.0878
   71SAPC  C218 6186   2.081   3.685   4.395  0.3129  0.5609 -0.3593
   71SAPC  H18R 6187   2.144   3.608   4.444  2.0377  1.1064 -1.6321
   71SAPC  H18S 6188   1.990   3.643   4.346  0.7329  1.3774 -1.9188
   71SAPC  C219 6189   2.050   3.788   4.505 -0.0251  0.3086 -0.3092
   71SAPC  H19R 6190   2.005   3.872   4.448  1.0665 -0.3623 -2.2445
   71SAPC  H19S 6191   2.141   3.838   4.545 -1.0190  1.1054  1.0338
   71SAPC  C220 6192   1.958   3.733   4.615  0.1668 -0.2033 -0.2573
   71SAPC  H20R 6193   1.897   3.815   4.658  0.5738 -0.7809  1.4965
   71SAPC  H20S 6194   2.024   3.689   4.693  4.4066 -0.9635 -3.8858
   71SAPC  H20T 6195   1.884   3.664   4.569 -0.7234  0.9095 -0.5205
   71SAPC   C33 6196   2.779   3.126   3.276 -0.3266 -0.0998 -0.3221
   71SAPC   H3X 6197   2.736   3.196   3.202 -0.6854  2.2603  1.9908
   71SAPC   H3Y 6198   2.880   3.167   3.301 -0.9725  0.9971  0.5966
   71SAPC   C34 6199   2.688   3.123   3.395 -0.0323  0.6476 -0.5194
   71SAPC   H4X 6200   2.606   3.049   3.378 -0.8361  1.1882  0.8356
   71SAPC   H4Y 6201   2.642   3.224   3.401 -0.6346  0.3053  1.0377
   71SAPC   C35 6202   2.766   3.099   3.524 -0.0664  0.0592  0.9476
   71SAPC   H5X 6203   2.846   3.176   3.531 -0.6470  0.6613  1.1174
   71SAPC   H5Y 6204   2.825   3.005   3.523  3.1378  1.7782  3.9778
   71SAPC   C36 6205   2.692   3.114   3.661 -0.1473 -0.0410  0.5290
   71SAPC   H6X 6206   2.629   3.025   3.683  0.0142 -0.0812  0.8427
   71SAPC   H6Y 6207   2.612   3.189   3.641 -0.4270 -1.3567 -4.8665
   71SAPC   C37 6208   2.789   3.143   3.775 -0.3212 -0.2939 -0.2174
   71SAPC   H7X 6209   2.862   3.224   3.755 -0.7272  0.5388  1.5328
   71SAPC   H7Y 6210   2.848   3.052   3.797 -0.5476 -0.0121  1.6498
   71SAPC   C38 6211   2.719   3.196   3.896 -1.1340  0.5718  0.0910
   71SAPC   H8X 6212   2.645   3.121   3.932 -2.7072  0.7419 -2.5202
   71SAPC   H8Y 6213   2.679   3.296   3.870 -1.7603  0.0322 -1.1493
   71SAPC   C39 6214   2.816   3.230   4.012 -0.5377 -0.5124  0.6971
   71SAPC   H9X 6215   2.762   3.296   4.083 -1.8028 -0.5652 -0.1862
   71SAPC   H9Y 6216   2.900   3.294   3.976 -0.3003 -1.0604  0.2772
   71SAPC  C310 6217   2.875   3.113   4.095  0.1916  0.2665  0.6647
   71SAPC  H10X 6218   2.950   3.144   4.170  0.4252 -0.5101  0.7549
   71SAPC  H10Y 6219   2.929   3.038   4.034 -0.7813  0.0543  0.0466
   71SAPC  C311 6220   2.765   3.036   4.172 -0.7271  0.0862 -0.1894
   71SAPC  H11X 6221   2.703   2.994   4.091 -0.3437 -0.3769 -0.2457
   71SAPC  H11Y 6222   2.701   3.109   4.227 -1.0538  1.6114 -2.4695
   71SAPC  C312 6223   2.829   2.922   4.255 -0.3771 -0.1499 -0.0650
   71SAPC  H12X 6224   2.912   2.959   4.320 -0.9018 -0.5058  0.8304
   71SAPC  H12Y 6225   2.879   2.853   4.184 -1.2444  2.0666 -3.0269
   71SAPC  C313 6226   2.721   2.852   4.345  0.1457 -1.0937  0.1072
   71SAPC  H13X 6227   2.653   2.812   4.266 -0.9857 -1.1073  1.0654
   71SAPC  H13Y 6228   2.655   2.919   4.404  0.5595 -2.0520  1.7015
   71SAPC  C314 6229   2.769   2.732   4.420 -0.0495  0.2271 -0.7631
   71SAPC  H14X 6230   2.809   2.645   4.364 -0.0970 -1.1585  1.2599
   71SAPC  H14Y 6231   2.679   2.687   4.465 -0.3864  1.0175 -0.6268
   71SAPC  C315 6232   2.870   2.766   4.530 -0.0602 -0.0545 -0.6082
   71SAPC  H15X 6233   2.829   2.860   4.573  0.2201 -0.4678  0.6104
   71SAPC  H15Y 6234   2.966   2.790   4.482 -0.1354  1.4790 -0.0363
   71SAPC  C316 6235   2.891   2.665   4.641 -0.4863 -1.5574 -0.5597
   71SAPC  H16X 6236   2.979   2.689   4.705 -1.1528  0.0076 -0.1828
   71SAPC  H16Y 6237   2.918   2.572   4.587 -2.4132 -1.2326 -2.2210
   71SAPC  C317 6238   2.771   2.633   4.728  0.8790  0.2283 -1.2139
   71SAPC  H17X 6239   2.694   2.570   4.679  0.4300  1.3097 -1.9199
   71SAPC  H17Y 6240   2.721   2.731   4.742 -0.3987 -0.8319  2.9013
   71SAPC  C318 6241   2.827   2.590   4.862  0.3678 -0.3457 -0.4451
   71SAPC  H18X 6242   2.890   2.499   4.851 -1.4109 -1.5705 -1.2027
   71SAPC  H18Y 6243   2.743   2.564   4.930 -1.6561  1.0316 -2.2373
   71SAPC  H18Z 6244   2.879   2.668   4.920  0.1728 -0.0728 -0.6342
   72SAPC     N 6245   1.230   0.452   3.047 -0.2243 -0.3805  0.4814
   72SAPC   C12 6246   1.123   0.374   3.116  0.5458 -0.0654  0.4472
   72SAPC  H12A 6247   1.093   0.429   3.205  0.9066 -1.9024  1.7704
   72SAPC  H12B 6248   1.169   0.286   3.158  0.0184 -0.0491  1.0860
   72SAPC   C13 6249   1.355   0.458   3.135  0.4284 -0.4136 -0.2624
   72SAPC  H13A 6250   1.344   0.518   3.224 -0.2109 -0.0884 -0.5532
   72SAPC  H13B 6251   1.401   0.363   3.157  0.5717 -1.0745 -3.0454
   72SAPC  H13C 6252   1.427   0.502   3.067  1.0768 -0.5938  0.2904
   72SAPC   C14 6253   1.269   0.397   2.920 -0.1941 -0.1465  0.1639
   72SAPC  H14A 6254   1.177   0.387   2.864 -0.7402 -1.1851  1.1972
   72SAPC  H14B 6255   1.332   0.463   2.862 -0.7740 -0.8292 -1.2826
   72SAPC  H14C 6256   1.303   0.295   2.930  2.1602  0.7277  2.0988
   72SAPC   C15 6257   1.188   0.593   3.027  0.2235  1.0838  0.6363
   72SAPC  H15A 6258   1.270   0.664   3.018  0.1691  1.0294 -0.5486
   72SAPC  H15B 6259   1.121   0.600   2.943 -0.3481  1.0329  1.0842
   72SAPC  H15C 6260   1.120   0.620   3.105 -2.8777 -2.8243 -0.4029
   72SAPC   C11 6261   0.989   0.357   3.043  0.8549  0.4710 -0.6355
   72SAPC  H11A 6262   0.926   0.297   3.112  1.9481  0.4989  0.4215
   72SAPC  H11B 6263   1.003   0.284   2.960 -2.0247 -1.0384  0.0690
   72SAPC     P 6264   0.810   0.557   3.052  0.0715  0.1783  0.1198
   72SAPC   O13 6265   0.805   0.693   2.991 -0.2138  0.1459  0.0897
   72SAPC   O14 6266   0.691   0.470   3.036  0.1771  0.4324 -0.6061
   72SAPC   O12 6267   0.939   0.481   2.989 -0.6042 -0.2627  0.7436
   72SAPC   O11 6268   0.847   0.560   3.212  0.3044  0.3744 -0.1711
   72SAPC    C1 6269   0.817   0.675   3.289 -0.7900 -0.3206 -0.6285
   72SAPC    HA 6270   0.784   0.762   3.228 -0.0150 -0.8560 -1.8460
   72SAPC    HB 6271   0.739   0.656   3.366  0.5999 -1.4504  0.5561
   72SAPC    C2 6272   0.945   0.726   3.373 -0.4239 -0.6104 -0.3525
   72SAPC    HS 6273   1.039   0.736   3.314  0.4506  2.2404  1.3124
   72SAPC   O21 6274   0.962   0.640   3.485  0.0246 -0.3428  0.0737
   72SAPC   C21 6275   1.054   0.546   3.480  0.6745  0.2607 -0.0287
   72SAPC   O22 6276   1.144   0.530   3.401  0.0820  0.2053  0.0182
   72SAPC   C22 6277   1.019   0.442   3.582  0.0494  0.8281  0.2840
   72SAPC   H2R 6278   0.937   0.382   3.537  0.0619  0.0717  1.2424
   72SAPC   H2S 6279   1.108   0.377   3.586 -0.5909 -0.2818 -1.7942
   72SAPC    C3 6280   0.917   0.868   3.427 -0.1360 -0.0015  0.2092
   72SAPC    HX 6281   0.907   0.949   3.352  0.4353  0.3140  0.4648
   72SAPC    HY 6282   1.006   0.888   3.491 -2.5779  1.3235  3.4886
   72SAPC   O31 6283   0.800   0.862   3.510 -0.3323  0.6806  0.0415
   72SAPC   C31 6284   0.809   0.827   3.640 -0.4259 -0.0179 -0.6018
   72SAPC   O32 6285   0.913   0.804   3.704  0.7244 -1.2351  0.2721
   72SAPC   C32 6286   0.671   0.820   3.702  0.3308 -0.0931 -0.1931
   72SAPC   H2X 6287   0.619   0.740   3.645 -1.5378  0.5199  0.6109
   72SAPC   H2Y 6288   0.630   0.919   3.677 -0.2253  0.2772  1.9782
   72SAPC   C23 6289   0.986   0.498   3.723  0.2801  0.7621  0.5933
   72SAPC   H3R 6290   0.879   0.526   3.719 -0.5863 -2.2199 -0.0988
   72SAPC   H3S 6291   1.039   0.592   3.749  2.0815  0.1661 -0.7472
   72SAPC   C24 6292   0.985   0.390   3.838 -0.3877 -0.1746  0.1448
   72SAPC   H4R 6293   1.084   0.341   3.825 -0.5702  0.0445 -2.5117
   72SAPC   H4S 6294   0.912   0.311   3.810  0.5946 -0.9849 -0.1995
   72SAPC   C25 6295   0.965   0.444   3.981 -0.1552  0.1468 -0.2259
   72SAPC   H5R 6296   1.019   0.533   4.017  1.5912 -1.2609  0.8213
   72SAPC   C26 6297   0.916   0.366   4.080  0.3802 -0.3407 -0.2185
   72SAPC   H6R 6298   0.905   0.407   4.182  0.1784  1.2204 -0.8361
   72SAPC   C27 6299   0.846   0.239   4.076 -0.7640 -0.1538  0.0494
   72SAPC   H7R 6300   0.825   0.214   4.182  0.6432  0.2574  0.4462
   72SAPC   H7S 6301   0.911   0.151   4.056  1.0134  1.0996  0.0892
   72SAPC   C28 6302   0.717   0.224   3.998  0.7008 -0.1335  0.3642
   72SAPC   H8R 6303   0.724   0.267   3.897  2.3421 -0.6377  0.2345
   72SAPC   C29 6304   0.595   0.176   4.036 -0.2233  0.1345 -0.8537
   72SAPC   H9R 6305   0.511   0.186   3.967 -0.5702 -0.5441 -0.5431
   72SAPC  C210 6306   0.547   0.121   4.169 -0.2915 -0.3364 -0.2294
   72SAPC  H10R 6307   0.455   0.163   4.215  0.9353  1.5212  0.6588
   72SAPC  H10S 6308   0.621   0.163   4.240 -1.0107 -0.0557  0.3666
   72SAPC  C211 6309   0.553  -0.027   4.187 -0.2709  0.2976 -0.3413
   72SAPC  H11R 6310   0.587  -0.087   4.101 -0.3984 -0.9161  0.4271
   72SAPC  C212 6311   0.516  -0.097   4.297 -0.1847  0.3967  0.5267
   72SAPC  H12R 6312   0.552  -0.201   4.294 -0.2746  0.3769 -1.0896
   72SAPC  C213 6313   0.440  -0.059   4.427 -0.3503  0.2880 -0.6626
   72SAPC  H13R 6314   0.398  -0.153   4.470 -1.2763  0.6145 -0.8199
   72SAPC  H13S 6315   0.347  -0.002   4.407 -1.9155 -1.0733  2.0037
   72SAPC  C214 6316   0.520   0.025   4.533  0.0173 -0.4490  0.4971
   72SAPC  H14R 6317   0.554   0.124   4.502  1.2508 -0.3104  2.1546
   72SAPC  C215 6318   0.514   0.005   4.670  0.3767  0.0846  0.4166
   72SAPC  H15R 6319   0.562   0.073   4.743  0.7060  1.1826 -0.7760
   72SAPC  C216 6320   0.466  -0.119   4.732 -0.0910 -0.0202  0.5081
   72SAPC  H16R 6321   0.516  -0.213   4.701 -0.7850  0.1625 -1.3310
   72SAPC  H16S 6322   0.358  -0.120   4.706  0.5785  1.5021 -2.8979
   72SAPC  C217 6323   0.477  -0.113   4.884 -0.2311 -0.2947  0.0503
   72SAPC  H17R 6324   0.427  -0.023   4.927  0.2913 -0.5804  1.2962
   72SAPC  H17S 6325   0.587  -0.105   4.901 -0.1740 -0.4807 -0.2263
   72SAPC  C218 6326   0.426  -0.238   4.960 -0.4926 -0.8955  1.0546
   72SAPC  H18R 6327   0.465  -0.320   4.896 -1.2205  1.6434 -3.0016
   72SAPC  H18S 6328   0.315  -0.243   4.949 -1.3208  2.2991  5.2404
   72SAPC  C219 6329   0.457  -0.240   5.111 -0.3796 -0.1978  0.6860
   72SAPC  H19R 6330   0.429  -0.344   5.140  0.2157 -0.4079  0.5369
   72SAPC  H19S 6331   0.389  -0.165   5.156  0.8491  2.5929 -1.7682
   72SAPC  C220 6332   0.598  -0.216   5.150 -0.2418 -0.2321 -0.9990
   72SAPC  H20R 6333   0.614  -0.246   5.256 -0.3540  0.9574 -0.6296
   72SAPC  H20S 6334   0.604  -0.106   5.160  1.1151 -0.4836  2.0119
   72SAPC  H20T 6335   0.665  -0.266   5.077  1.7660  0.5663  0.2041
   72SAPC   C33 6336   0.666   0.801   3.857 -0.1702 -0.0547  0.2012
   72SAPC   H3X 6337   0.655   0.900   3.908 -1.5487 -0.3743  0.5638
   72SAPC   H3Y 6338   0.755   0.751   3.900  1.6818  2.6661 -0.2260
   72SAPC   C34 6339   0.542   0.709   3.875 -0.2347 -0.0788 -0.1343
   72SAPC   H4X 6340   0.565   0.604   3.845  0.5406 -0.6394  2.2286
   72SAPC   H4Y 6341   0.453   0.743   3.816  0.3021  0.5501 -0.5921
   72SAPC   C35 6342   0.506   0.716   4.026 -0.3381  0.0695 -0.2079
   72SAPC   H5X 6343   0.397   0.692   4.032 -0.2155 -0.3320  0.4347
   72SAPC   H5Y 6344   0.518   0.823   4.053  0.7899 -0.0121 -0.3469
   72SAPC   C36 6345   0.577   0.625   4.126 -0.0453 -0.4278  0.5417
   72SAPC   H6X 6346   0.687   0.642   4.117  0.0796 -1.2544  0.4526
   72SAPC   H6Y 6347   0.565   0.520   4.091  1.3339  0.3642 -2.7037
   72SAPC   C37 6348   0.543   0.638   4.267 -0.7177 -0.0539 -0.7648
   72SAPC   H7X 6349   0.433   0.643   4.283 -0.2784  1.1296  2.8155
   72SAPC   H7Y 6350   0.590   0.722   4.323 -0.3713  0.4262 -1.7473
   72SAPC   C38 6351   0.589   0.513   4.353  0.0233 -0.3704 -0.1431
   72SAPC   H8X 6352   0.548   0.413   4.328 -0.8361  0.0633 -0.5016
   72SAPC   H8Y 6353   0.538   0.546   4.446 -0.3110  0.9547 -0.7742
   72SAPC   C39 6354   0.737   0.511   4.383 -0.0063 -0.5239  0.4868
   72SAPC   H9X 6355   0.757   0.591   4.458 -1.2938  1.3280 -1.0379
   72SAPC   H9Y 6356   0.793   0.527   4.288  1.1176  0.2469  1.2490
   72SAPC  C310 6357   0.800   0.385   4.440 -0.3082  0.1866 -0.3993
   72SAPC  H10X 6358   0.911   0.382   4.449 -0.4445 -1.0089  1.4728
   72SAPC  H10Y 6359   0.757   0.309   4.372 -0.9962 -0.3412  0.5916
   72SAPC  C311 6360   0.736   0.342   4.574 -0.3083 -0.7687 -0.5450
   72SAPC  H11X 6361   0.777   0.239   4.571  2.9605  0.4345 -1.9697
   72SAPC  H11Y 6362   0.625   0.331   4.573 -0.4414 -1.4015  3.6251
   72SAPC  C312 6363   0.795   0.420   4.691 -0.4011  0.1883 -0.5270
   72SAPC  H12X 6364   0.764   0.527   4.685  0.4666  0.3809 -2.2381
   72SAPC  H12Y 6365   0.906   0.416   4.685 -0.3889 -0.9538  0.2471
   72SAPC  C313 6366   0.746   0.359   4.826  0.8478  0.5551  0.0059
   72SAPC  H13X 6367   0.778   0.254   4.839  1.2038  0.8128  1.4668
   72SAPC  H13Y 6368   0.635   0.356   4.825  0.8742 -1.4651 -0.8489
   72SAPC  C314 6369   0.802   0.424   4.950  0.1048 -0.4884  0.3262
   72SAPC  H14X 6370   0.910   0.415   4.926  0.3109  0.2777  0.9315
   72SAPC  H14Y 6371   0.783   0.377   5.049  3.0189  1.8971  2.1877
   72SAPC  C315 6372   0.753   0.564   4.971  0.2632  0.4806  0.3439
   72SAPC  H15X 6373   0.652   0.554   5.015  0.6294  0.6516  1.2596
   72SAPC  H15Y 6374   0.733   0.612   4.873 -1.4923 -2.9110 -1.1269
   72SAPC  C316 6375   0.836   0.644   5.069  0.0006  0.2749 -0.5227
   72SAPC  H16X 6376   0.941   0.659   5.035 -0.0517  1.1077 -0.3555
   72SAPC  H16Y 6377   0.843   0.586   5.164 -0.1084 -1.3099 -1.4492
   72SAPC  C317 6378   0.785   0.787   5.104  0.3699 -0.8472  0.2382
   72SAPC  H17X 6379   0.689   0.770   5.156  0.1381 -1.6786 -0.4246
   72SAPC  H17Y 6380   0.771   0.842   5.008  0.9598 -1.9485 -0.5071
   72SAPC  C318 6381   0.879   0.867   5.195  0.6100 -0.2107  0.5479
   72SAPC  H18X 6382   0.842   0.971   5.199 -0.0736 -0.4612  0.9056
   72SAPC  H18Y 6383   0.984   0.890   5.168  1.4693  1.2902  4.4873
   72SAPC  H18Z 6384   0.881   0.813   5.292 -0.2310 -0.2459  0.5499
   73SLPC     N 6385   0.046   3.749   6.973 -0.0859  0.1672  0.3422
   73SLPC   C13 6386   0.094   3.891   6.981 -0.6262  0.3794 -0.5190
   73SLPC  H13A 6387   0.026   3.964   6.942 -1.5973 -0.0893  0.2496
   73SLPC  H13B 6388   0.117   3.910   7.084  1.4297  1.2646 -1.0911
   73SLPC  H13C 6389   0.181   3.910   6.920 -0.0095  1.7145  0.7314
   73SLPC   C14 6390  -0.066   3.715   7.077  0.2806  0.2393 -0.0134
   73SLPC  H14A 6391  -0.155   3.773   7.058  0.2734  0.3898  0.4578
   73SLPC  H14B 6392  -0.097   3.612   7.060  2.1118  0.0476 -2.7940
   73SLPC  H14C 6393  -0.037   3.733   7.180 -1.5646  0.9344  0.4281
   73SLPC   C15 6394   0.149   3.656   7.008  0.2406 -0.6943 -0.4865
   73SLPC  H15A 6395   0.133   3.554   6.977  0.0568 -0.8749  0.1988
   73SLPC  H15B 6396   0.254   3.677   6.990  0.6314 -2.7363 -0.8468
   73SLPC  H15C 6397   0.148   3.648   7.116 -0.0028  1.3697 -0.3060
   73SLPC   C12 6398  -0.010   3.715   6.836  0.7864  0.2268 -0.3156
   73SLPC  H12A 6399  -0.092   3.784   6.824 -1.8901 -2.2866  1.9634
   73SLPC  H12B 6400  -0.050   3.615   6.834 -0.0415  0.5653 -1.0096
   73SLPC   C11 6401   0.086   3.741   6.715 -0.2509  0.7297  0.3381
   73SLPC  H11A 6402   0.052   3.689   6.623 -2.0316  2.1444  0.1498
   73SLPC  H11B 6403   0.184   3.693   6.737 -0.9618 -0.9393 -0.0315
   73SLPC     P 6404   0.009   3.976   6.644  0.2828  0.0166 -0.0151
   73SLPC   O13 6405  -0.099   3.989   6.746  0.1374  0.0876 -0.2514
   73SLPC   O14 6406   0.069   4.104   6.607 -0.2542  0.2227  0.0997
   73SLPC   O12 6407   0.121   3.876   6.690 -0.8449  0.7217 -1.2380
   73SLPC   O11 6408  -0.044   3.906   6.518 -0.1647  0.3163  0.4179
   73SLPC    C1 6409  -0.005   3.954   6.386 -0.4747 -0.8023 -0.5845
   73SLPC    HA 6410  -0.094   3.947   6.320 -0.6219 -1.2375 -0.3441
   73SLPC    HB 6411   0.032   4.059   6.378  0.0929 -0.9917 -0.4092
   73SLPC    C2 6412   0.092   3.844   6.328  0.3165  0.3128  0.6045
   73SLPC    HS 6413   0.041   3.746   6.324 -0.2620  0.6442 -0.5129
   73SLPC   O21 6414   0.218   3.854   6.385 -0.2531  0.0859 -0.5785
   73SLPC   C21 6415   0.278   3.738   6.411  0.1171  0.5573 -1.2190
   73SLPC   O22 6416   0.233   3.627   6.393 -0.2163  0.2945  0.3856
   73SLPC   C22 6417   0.413   3.779   6.475 -0.3690  0.1522  0.5746
   73SLPC   H2R 6418   0.445   3.874   6.427 -2.6640  1.8718  2.2060
   73SLPC   H2S 6419   0.395   3.804   6.582  2.3236 -0.7921  1.3328
   73SLPC    C3 6420   0.097   3.875   6.170  0.1662 -0.2022 -0.0081
   73SLPC    HX 6421   0.124   3.982   6.162  1.4506 -0.3478  1.7320
   73SLPC    HY 6422  -0.006   3.853   6.136  0.1037 -0.2467  0.2072
   73SLPC   O31 6423   0.188   3.796   6.087  0.4017 -0.0056  0.0197
   73SLPC   C31 6424   0.139   3.669   6.053 -0.1351 -0.0899  0.2241
   73SLPC   O32 6425   0.027   3.633   6.068  0.4187 -0.0266  0.4162
   73SLPC   C32 6426   0.251   3.573   6.008 -0.3188  0.3051  0.1543
   73SLPC   H2X 6427   0.289   3.539   6.107 -1.9892 -0.4613  0.5793
   73SLPC   H2Y 6428   0.317   3.633   5.942  1.4696 -2.4088 -0.6759
   73SLPC   C23 6429   0.522   3.666   6.469  0.1536 -0.2806  0.8367
   73SLPC   H3R 6430   0.481   3.563   6.465  1.7332 -0.8970 -0.6111
   73SLPC   H3S 6431   0.574   3.667   6.567  0.6671 -0.1093  0.5645
   73SLPC   C24 6432   0.626   3.666   6.360 -0.0915 -0.8668  0.5636
   73SLPC   H4R 6433   0.688   3.576   6.376  2.9931  0.6549 -1.8073
   73SLPC   H4S 6434   0.697   3.749   6.379 -1.2166 -0.1397  1.7523
   73SLPC   C25 6435   0.568   3.683   6.222  0.5202  0.1363 -0.8934
   73SLPC   H5R 6436   0.544   3.791   6.215  3.1811  0.9152  0.6674
   73SLPC   H5S 6437   0.477   3.621   6.210 -0.0849  1.0586 -1.2045
   73SLPC   C26 6438   0.676   3.642   6.112 -0.2119  0.0660  0.2762
   73SLPC   H6R 6439   0.700   3.533   6.104  2.9308  0.8166 -4.5305
   73SLPC   H6S 6440   0.773   3.690   6.135  0.2705 -0.5347 -0.4325
   73SLPC   C27 6441   0.641   3.677   5.965 -0.0728  0.1139 -0.4180
   73SLPC   H7R 6442   0.631   3.786   5.948  1.5413  0.6154  1.5632
   73SLPC   H7S 6443   0.544   3.627   5.945 -0.7499  1.8801 -1.8039
   73SLPC   C28 6444   0.742   3.614   5.859  0.1989  0.5825 -0.2796
   73SLPC   H8R 6445   0.689   3.603   5.762  2.0154 -0.9078 -1.1524
   73SLPC   H8S 6446   0.757   3.514   5.904  0.0035  1.7574  2.6665
   73SLPC   C29 6447   0.877   3.684   5.840  0.3339  0.0531  0.4319
   73SLPC   H9R 6448   0.927   3.706   5.936  0.9805 -2.3864  0.7213
   73SLPC  C210 6449   0.920   3.735   5.723 -0.6351  0.3231  1.0002
   73SLPC  H10R 6450   1.023   3.773   5.724 -0.4133 -0.2567  1.1172
   73SLPC  C211 6451   0.870   3.722   5.585  0.2805 -0.1829  0.3356
   73SLPC  H11R 6452   0.760   3.737   5.590  0.2464 -0.4269  0.3281
   73SLPC  H11S 6453   0.900   3.623   5.543  1.6977  0.8158 -1.1431
   73SLPC  C212 6454   0.916   3.840   5.499 -0.1473 -0.4074 -0.8919
   73SLPC  H12R 6455   0.906   3.941   5.544  2.9009 -0.0888 -0.7304
   73SLPC  C213 6456   0.960   3.843   5.374 -0.8210 -0.1602  0.4886
   73SLPC  H13R 6457   0.999   3.939   5.338  3.3034 -2.0949 -0.7978
   73SLPC  C214 6458   0.991   3.723   5.284  0.4029 -0.4269 -0.1128
   73SLPC  H14R 6459   1.005   3.639   5.355  0.3797  0.2913  0.7637
   73SLPC  H14S 6460   1.083   3.741   5.224  1.1766 -4.3181 -0.3430
   73SLPC  C215 6461   0.874   3.705   5.193  0.4423 -0.1365  0.7974
   73SLPC  H15R 6462   0.785   3.689   5.257 -0.8035  3.7347  0.2965
   73SLPC  H15S 6463   0.896   3.619   5.128  1.5047  0.2130  0.6752
   73SLPC  C216 6464   0.851   3.814   5.084  0.7124  0.1096  0.4215
   73SLPC  H16R 6465   0.850   3.916   5.128 -1.8771  0.3700 -0.1118
   73SLPC  H16S 6466   0.749   3.793   5.045  0.7637 -0.3933  0.5482
   73SLPC  C217 6467   0.949   3.810   4.966  0.8252 -0.7900 -0.0950
   73SLPC  H17R 6468   0.938   3.713   4.912  0.7400 -0.3964 -0.8071
   73SLPC  H17S 6469   1.052   3.810   5.008  0.6222  1.7329  0.5392
   73SLPC  C218 6470   0.936   3.930   4.863  0.5669  0.3520 -0.0747
   73SLPC  H18R 6471   0.830   3.964   4.858  0.1256 -1.0585 -2.3450
   73SLPC  H18S 6472   0.969   3.906   4.759  0.4757  1.6167 -0.4115
   73SLPC  H18T 6473   0.998   4.011   4.906  2.3730 -0.2606 -1.4287
   73SLPC   C33 6474   0.198   3.452   5.921  0.0085 -0.5115  0.2031
   73SLPC   H3X 6475   0.135   3.396   5.994  1.6091 -0.7346  1.4664
   73SLPC   H3Y 6476   0.277   3.378   5.896 -2.3285 -2.2474 -2.6512
   73SLPC   C34 6477   0.124   3.496   5.794 -0.6179  0.4243  0.3594
   73SLPC   H4X 6478   0.196   3.532   5.717 -2.8607 -0.9362 -2.5480
   73SLPC   H4Y 6479   0.047   3.571   5.823  0.5055  1.1606  1.5985
   73SLPC   C35 6480   0.048   3.379   5.735  0.7446  0.9742  0.1157
   73SLPC   H5X 6481  -0.039   3.356   5.799 -1.0621  0.9924 -2.2029
   73SLPC   H5Y 6482   0.110   3.287   5.735  0.6557  0.9134  0.5893
   73SLPC   C36 6483  -0.012   3.395   5.596 -0.7044  0.0742 -0.6001
   73SLPC   H6X 6484  -0.080   3.483   5.595 -2.5033 -1.2348  0.4665
   73SLPC   H6Y 6485  -0.080   3.308   5.582  1.4396 -2.2791  2.3821
   73SLPC   C37 6486   0.087   3.391   5.482 -0.0725 -0.0485 -0.4211
   73SLPC   H7X 6487   0.135   3.292   5.496 -2.7993 -1.3302  0.5093
   73SLPC   H7Y 6488   0.165   3.470   5.491 -0.7099  0.3440  2.8595
   73SLPC   C38 6489   0.030   3.395   5.341  0.2755  0.3372 -0.4460
   73SLPC   H8X 6490   0.006   3.497   5.305 -0.3101  0.3141 -0.1340
   73SLPC   H8Y 6491  -0.054   3.327   5.315  0.7849  0.1211 -1.6030
   73SLPC   C39 6492   0.142   3.356   5.242  0.0886  0.5174  0.9351
   73SLPC   H9X 6493   0.170   3.252   5.268 -1.4124  0.1395  1.1294
   73SLPC   H9Y 6494   0.225   3.429   5.237 -0.5637  1.2025 -0.4532
   73SLPC  C310 6495   0.080   3.340   5.100  0.5197  0.0789  0.2977
   73SLPC  H10X 6496   0.022   3.430   5.070  0.5364  0.7650  2.2201
   73SLPC  H10Y 6497   0.003   3.260   5.100  2.0049 -1.4551 -1.6395
   73SLPC  C311 6498   0.183   3.296   4.995  0.0748  0.9265 -0.2156
   73SLPC  H11X 6499   0.245   3.216   5.041 -3.0848 -0.6322  1.6350
   73SLPC  H11Y 6500   0.248   3.379   4.959 -0.5025  1.3395 -0.3101
   73SLPC  C312 6501   0.133   3.227   4.870  1.0767  0.4003  0.3695
   73SLPC  H12X 6502   0.082   3.129   4.884  1.3336  0.1914 -0.0960
   73SLPC  H12Y 6503   0.222   3.194   4.812  0.9850  1.1234 -0.2017
   73SLPC  C313 6504   0.059   3.320   4.771  0.4471 -0.0261 -0.4138
   73SLPC  H13X 6505  -0.041   3.348   4.810  0.3075  1.8161 -1.9747
   73SLPC  H13Y 6506   0.024   3.264   4.682  0.3276  2.5670 -2.0948
   73SLPC  C314 6507   0.143   3.442   4.732 -0.9918 -0.5402  0.2205
   73SLPC  H14X 6508   0.253   3.433   4.718 -0.7022 -1.1768  2.4663
   73SLPC  H14Y 6509   0.130   3.518   4.812  2.1863 -0.1009  0.4544
   73SLPC  C315 6510   0.096   3.497   4.602 -0.2108 -0.4491  0.2152
   73SLPC  H15X 6511  -0.007   3.539   4.608  0.5226  1.2778  2.3067
   73SLPC  H15Y 6512   0.096   3.432   4.512 -2.3322  1.5473 -1.3511
   73SLPC  C316 6513   0.166   3.633   4.567  0.4537  0.2223 -0.6029
   73SLPC  H16X 6514   0.221   3.679   4.652 -1.1873  2.6237 -0.7215
   73SLPC  H16Y 6515   0.091   3.713   4.546  2.2231  2.3026  0.6114
   73SLPC  C317 6516   0.259   3.629   4.449 -0.1483  0.7837  0.7588
   73SLPC  H17X 6517   0.213   3.581   4.360  1.5150  1.0593 -0.3024
   73SLPC  H17Y 6518   0.343   3.562   4.477 -0.0220 -0.8416 -2.9108
   73SLPC  C318 6519   0.298   3.774   4.413  0.2848  0.3841  0.0180
   73SLPC  H18X 6520   0.217   3.827   4.359 -0.7302 -1.9244 -0.8891
   73SLPC  H18Y 6521   0.393   3.782   4.358  1.0320 -1.2438  0.9828
   73SLPC  H18Z 6522   0.306   3.830   4.509  2.4269  0.7566 -0.3332
   74SLPC     N 6523   4.382   0.918   7.284  0.0648 -0.0359  0.4937
   74SLPC   C13 6524   4.342   0.779   7.334  0.0151  0.5895 -0.4341
   74SLPC  H13A 6525   4.427   0.717   7.357  0.0396  1.1300  1.1005
   74SLPC  H13B 6526   4.279   0.778   7.422 -0.1964 -3.7881 -0.4456
   74SLPC  H13C 6527   4.276   0.721   7.271 -0.2637  0.5026 -0.0651
   74SLPC   C14 6528   4.471   0.888   7.161 -0.5911  0.3903 -0.1527
   74SLPC  H14A 6529   4.408   0.839   7.089  1.1350 -2.1524 -0.0410
   74SLPC  H14B 6530   4.526   0.971   7.121 -0.3513  1.3354  1.9986
   74SLPC  H14C 6531   4.534   0.807   7.194 -3.1346 -0.5842  2.8377
   74SLPC   C15 6532   4.463   0.985   7.386 -0.4609 -0.3245  0.1423
   74SLPC  H15A 6533   4.412   0.994   7.481  1.6898  1.6692  1.2226
   74SLPC  H15B 6534   4.551   0.925   7.407  1.6891  2.0704 -1.5097
   74SLPC  H15C 6535   4.506   1.076   7.348 -0.9494 -0.4987 -0.8613
   74SLPC   C12 6536   4.264   1.002   7.234  0.1027 -0.3568 -0.5353
   74SLPC  H12A 6537   4.209   1.042   7.317 -2.6318  1.3787 -3.0072
   74SLPC  H12B 6538   4.205   0.934   7.174  1.3957 -2.3649  0.3358
   74SLPC   C11 6539   4.294   1.122   7.140  0.4538 -0.5734  0.3088
   74SLPC  H11A 6540   4.198   1.167   7.106  2.5397  3.1039 -1.3952
   74SLPC  H11B 6541   4.349   1.087   7.051  0.4888  1.5815 -0.5894
   74SLPC     P 6542   4.516   1.271   7.148 -0.0482 -0.3253 -0.1362
   74SLPC   O13 6543   4.588   1.313   7.269 -0.2395  0.5112  0.3486
   74SLPC   O14 6544   4.583   1.165   7.071  0.0157 -0.1228 -0.0962
   74SLPC   O12 6545   4.372   1.226   7.200  0.2528  0.7930 -0.0954
   74SLPC   O11 6546   4.503   1.403   7.065 -0.1170 -0.4853 -0.1027
   74SLPC    C1 6547   4.379   1.409   6.988 -0.5745 -0.0936  0.1527
   74SLPC    HA 6548   4.357   1.311   6.943  2.0870 -1.2038  1.0350
   74SLPC    HB 6549   4.299   1.451   7.052 -1.7779  2.6322 -2.8118
   74SLPC    C2 6550   4.382   1.505   6.859 -0.2526 -0.0798  0.2712
   74SLPC    HS 6551   4.285   1.484   6.809 -0.3506  0.6714  0.1338
   74SLPC   O21 6552   4.487   1.462   6.771 -0.1452 -0.0675 -0.5814
   74SLPC   C21 6553   4.469   1.344   6.715  0.8658  0.1510 -0.0837
   74SLPC   O22 6554   4.362   1.284   6.703 -0.5726  0.0467  0.2182
   74SLPC   C22 6555   4.596   1.299   6.646 -0.0245  0.1514  0.0343
   74SLPC   H2R 6556   4.683   1.352   6.690 -0.4202 -0.8047  2.0444
   74SLPC   H2S 6557   4.605   1.189   6.659  0.2200  0.0156 -1.1323
   74SLPC    C3 6558   4.384   1.655   6.895 -0.3506 -0.1098  0.0701
   74SLPC    HX 6559   4.461   1.683   6.970 -0.1395  1.4572 -0.6794
   74SLPC    HY 6560   4.292   1.676   6.954 -0.8698 -0.8502 -0.4589
   74SLPC   O31 6561   4.381   1.739   6.775  0.5755 -0.2018 -0.3131
   74SLPC   C31 6562   4.485   1.796   6.725 -0.5138 -0.0949 -0.3611
   74SLPC   O32 6563   4.602   1.778   6.764 -0.0883  0.5123  0.2767
   74SLPC   C32 6564   4.439   1.895   6.612  0.4076 -0.2866  0.3399
   74SLPC   H2X 6565   4.491   1.993   6.609 -0.7321  0.3167 -1.7578
   74SLPC   H2Y 6566   4.331   1.914   6.629  1.1723  2.5114  2.9734
   74SLPC   C23 6567   4.600   1.317   6.490 -0.4835 -0.2458 -0.1538
   74SLPC   H3R 6568   4.542   1.410   6.468  1.4904  0.9811 -0.4000
   74SLPC   H3S 6569   4.543   1.230   6.452  1.1330 -1.5192  0.2784
   74SLPC   C24 6570   4.741   1.342   6.431 -0.1338  0.4401  0.5240
   74SLPC   H4R 6571   4.808   1.256   6.452 -2.3549 -1.6665 -0.5910
   74SLPC   H4S 6572   4.787   1.434   6.475 -1.4908  1.9213 -0.9878
   74SLPC   C25 6573   4.727   1.355   6.274 -0.5308 -0.9609  0.2752
   74SLPC   H5R 6574   4.699   1.459   6.250  1.1978 -0.9650 -2.1460
   74SLPC   H5S 6575   4.644   1.291   6.238 -0.1189  0.1694 -3.0656
   74SLPC   C26 6576   4.856   1.305   6.205 -0.4484  0.1958 -0.3268
   74SLPC   H6R 6577   4.880   1.202   6.238  0.4650  0.2704 -0.7247
   74SLPC   H6S 6578   4.943   1.370   6.228  0.0227 -0.8500  0.9974
   74SLPC   C27 6579   4.850   1.289   6.052  0.4309 -0.9892 -0.0021
   74SLPC   H7R 6580   4.766   1.227   6.015 -0.8155  1.9908 -2.6605
   74SLPC   H7S 6581   4.944   1.246   6.010 -1.1917 -1.2620 -3.7342
   74SLPC   C28 6582   4.841   1.421   5.969 -0.5812 -0.1390 -0.2365
   74SLPC   H8R 6583   4.920   1.488   6.009 -0.2992 -0.5309 -0.1372
   74SLPC   H8S 6584   4.742   1.470   5.983 -1.1003 -1.0934 -0.4897
   74SLPC   C29 6585   4.852   1.389   5.823 -0.5898 -0.2761 -0.4480
   74SLPC   H9R 6586   4.757   1.354   5.780  0.6873 -2.4682 -1.6788
   74SLPC  C210 6587   4.971   1.388   5.756  0.1277  0.0736  0.3780
   74SLPC  H10R 6588   4.958   1.381   5.647  1.3638  0.0819  0.2196
   74SLPC  C211 6589   5.103   1.434   5.812  0.0189 -0.7150  0.0234
   74SLPC  H11R 6590   5.164   1.341   5.811 -0.3152 -1.0200 -3.1699
   74SLPC  H11S 6591   5.091   1.481   5.912 -1.9150  0.4211 -0.6776
   74SLPC  C212 6592   5.178   1.542   5.736  0.2483  0.7765  0.2193
   74SLPC  H12R 6593   5.118   1.627   5.701  0.7477  2.0462  2.2503
   74SLPC  C213 6594   5.308   1.528   5.693  1.0474 -0.0092  0.9725
   74SLPC  H13R 6595   5.357   1.609   5.639 -0.5947 -1.3970 -2.9667
   74SLPC  C214 6596   5.395   1.408   5.704 -0.5498  0.2140 -0.2822
   74SLPC  H14R 6597   5.366   1.329   5.777  0.5576 -1.4979 -1.6231
   74SLPC  H14S 6598   5.493   1.438   5.748 -1.5034  2.3132  0.5445
   74SLPC  C215 6599   5.409   1.326   5.573  0.1053 -0.3550  0.2584
   74SLPC  H15R 6600   5.311   1.328   5.521  0.5666  0.4735 -0.6143
   74SLPC  H15S 6601   5.431   1.220   5.599  3.5503  0.7414  2.5350
   74SLPC  C216 6602   5.512   1.393   5.480  0.2644  0.1474 -0.4030
   74SLPC  H16R 6603   5.616   1.399   5.520 -0.5960 -0.2962  2.0788
   74SLPC  H16S 6604   5.479   1.499   5.474 -1.2259 -0.1941  0.9946
   74SLPC  C217 6605   5.519   1.334   5.340 -0.0952  0.6946  0.1628
   74SLPC  H17R 6606   5.421   1.305   5.296 -0.6958 -2.9318  3.3170
   74SLPC  H17S 6607   5.563   1.234   5.365  0.7478  0.3363 -2.4300
   74SLPC  C218 6608   5.618   1.417   5.256  0.1890 -0.3235 -0.1753
   74SLPC  H18R 6609   5.713   1.432   5.310 -0.0644 -3.3958  1.3321
   74SLPC  H18S 6610   5.585   1.520   5.233  3.0694  0.9140  0.8249
   74SLPC  H18T 6611   5.670   1.370   5.169  1.4799 -0.4156  0.6232
   74SLPC   C33 6612   4.453   1.829   6.470 -0.2469  0.3978 -0.4788
   74SLPC   H3X 6613   4.559   1.801   6.452 -0.8267 -0.9623 -2.0545
   74SLPC   H3Y 6614   4.433   1.903   6.391 -1.5875  2.1476  1.3803
   74SLPC   C34 6615   4.357   1.711   6.452 -0.1044  0.6729 -0.5580
   74SLPC   H4X 6616   4.256   1.736   6.490 -1.0896 -2.3013 -0.9670
   74SLPC   H4Y 6617   4.394   1.620   6.503 -2.3461  0.6236  1.1144
   74SLPC   C35 6618   4.335   1.666   6.303  0.2808 -0.4430 -0.2044
   74SLPC   H5X 6619   4.272   1.746   6.260 -0.7256 -0.5114  1.1021
   74SLPC   H5Y 6620   4.275   1.573   6.297 -1.0651  0.4677 -1.5976
   74SLPC   C36 6621   4.467   1.633   6.242 -0.7607  0.0590  1.2747
   74SLPC   H6X 6622   4.502   1.541   6.293  1.4860 -0.4056 -0.9314
   74SLPC   H6Y 6623   4.540   1.714   6.261 -0.3662 -0.0969  0.4710
   74SLPC   C37 6624   4.449   1.620   6.088 -0.6571 -0.6656  0.1900
   74SLPC   H7X 6625   4.340   1.626   6.070 -1.1681 -0.0821  2.9922
   74SLPC   H7Y 6626   4.475   1.516   6.057  2.2776  0.2835 -0.9529
   74SLPC   C38 6627   4.532   1.717   6.017 -0.4863 -0.3337  0.0502
   74SLPC   H8X 6628   4.635   1.710   6.057 -0.7273  0.9039  0.9628
   74SLPC   H8Y 6629   4.495   1.818   6.044  0.2154  0.2965 -1.2764
   74SLPC   C39 6630   4.543   1.705   5.861 -1.2701 -0.1310 -0.6371
   74SLPC   H9X 6631   4.443   1.733   5.820 -0.8855  1.6294 -0.4532
   74SLPC   H9Y 6632   4.566   1.599   5.836  0.2351  0.6772 -3.0228
   74SLPC  C310 6633   4.652   1.796   5.805  0.3827  0.3630 -0.6393
   74SLPC  H10X 6634   4.741   1.776   5.869  0.3442  1.6612 -0.1463
   74SLPC  H10Y 6635   4.634   1.904   5.826  2.3890  0.6106  0.0258
   74SLPC  C311 6636   4.691   1.768   5.660  0.4179  0.7251  0.2759
   74SLPC  H11X 6637   4.705   1.658   5.648  1.5771  0.7679  1.0053
   74SLPC  H11Y 6638   4.790   1.816   5.642  0.2523  1.2316  0.7134
   74SLPC  C312 6639   4.585   1.799   5.553 -0.1147 -0.3325 -0.0133
   74SLPC  H12X 6640   4.573   1.910   5.554  1.3841 -0.1452  0.3539
   74SLPC  H12Y 6641   4.492   1.744   5.579  0.0568 -1.4091 -1.5516
   74SLPC  C313 6642   4.621   1.759   5.408  1.0174  0.5374  0.5786
   74SLPC  H13X 6643   4.593   1.651   5.401  1.2542  0.5331 -0.5155
   74SLPC  H13Y 6644   4.729   1.767   5.385  1.0614 -1.7077 -0.2728
   74SLPC  C314 6645   4.549   1.838   5.295 -0.1778 -0.5868  0.2397
   74SLPC  H14X 6646   4.604   1.934   5.300 -2.2319  0.5940  2.7315
   74SLPC  H14Y 6647   4.444   1.852   5.329  0.1236  0.2545  0.8740
   74SLPC  C315 6648   4.554   1.767   5.158 -0.2429 -0.2727  0.1635
   74SLPC  H15X 6649   4.484   1.814   5.086 -2.1328 -3.9736 -0.6529
   74SLPC  H15Y 6650   4.524   1.660   5.162 -0.7514 -0.0991  1.3316
   74SLPC  C316 6651   4.696   1.774   5.093  0.5894  0.3629  0.8261
   74SLPC  H16X 6652   4.761   1.725   5.169  0.1067  0.6354  1.4247
   74SLPC  H16Y 6653   4.722   1.882   5.090 -1.3048  0.9002  1.9873
   74SLPC  C317 6654   4.700   1.712   4.958 -0.0002 -0.5011  0.2162
   74SLPC  H17X 6655   4.630   1.770   4.894 -0.0240 -1.8067 -0.9952
   74SLPC  H17Y 6656   4.666   1.608   4.975  0.0950 -0.3840  1.1408
   74SLPC  C318 6657   4.842   1.722   4.893  0.0540 -0.2101  0.2701
   74SLPC  H18X 6658   4.857   1.825   4.851  1.7458 -0.2806  0.6247
   74SLPC  H18Y 6659   4.845   1.645   4.813  1.2706 -1.3712  1.3940
   74SLPC  H18Z 6660   4.925   1.703   4.964  1.5493 -0.8851 -1.5618
   75SLPC     N 6661   6.024   3.274   7.010 -0.2724  0.3482  0.2557
   75SLPC   C13 6662   6.130   3.233   7.108  0.0653 -0.1607 -0.2464
   75SLPC  H13A 6663   6.223   3.241   7.053 -0.1921 -0.0981 -0.6783
   75SLPC  H13B 6664   6.148   3.296   7.194  0.1326  1.7068 -1.5676
   75SLPC  H13C 6665   6.125   3.130   7.140  2.3106  0.0523  0.9736
   75SLPC   C14 6666   6.052   3.420   6.996  0.1418 -0.1809 -0.4657
   75SLPC  H14A 6667   6.038   3.477   7.087  0.5449 -1.9328  0.7299
   75SLPC  H14B 6668   6.154   3.430   6.962  0.8757  0.2200  1.6785
   75SLPC  H14C 6669   5.994   3.467   6.917 -3.0396 -0.3814  1.5356
   75SLPC   C15 6670   5.886   3.245   7.077 -0.9361  0.5945 -0.0168
   75SLPC  H15A 6671   5.891   3.278   7.180  0.6938  2.0043 -0.5109
   75SLPC  H15B 6672   5.803   3.286   7.022  0.2381  1.0357 -1.5255
   75SLPC  H15C 6673   5.871   3.138   7.067  2.5414  0.0477 -0.7287
   75SLPC   C12 6674   6.044   3.203   6.877  0.3601 -0.1574 -0.1124
   75SLPC  H12A 6675   6.135   3.237   6.830  0.5976  0.0658  0.5005
   75SLPC  H12B 6676   5.971   3.242   6.808  0.7940  1.7225  0.4316
   75SLPC   C11 6677   6.048   3.043   6.874 -0.4588 -0.7519 -0.1772
   75SLPC  H11A 6678   6.018   3.017   6.770 -1.2045  4.4444 -1.5831
   75SLPC  H11B 6679   5.961   2.998   6.927 -0.0695 -1.0884  0.1875
   75SLPC     P 6680   6.308   3.011   6.847 -0.4007  0.2896  0.3024
   75SLPC   O13 6681   6.334   3.160   6.829 -0.1387  0.8516  0.5537
   75SLPC   O14 6682   6.412   2.933   6.922  0.0888  0.6090  0.4121
   75SLPC   O12 6683   6.172   2.985   6.921  0.5323  0.5882 -0.2824
   75SLPC   O11 6684   6.274   2.953   6.700  0.1638  0.3812  0.5526
   75SLPC    C1 6685   6.381   2.886   6.627 -0.3074  0.0127 -0.0193
   75SLPC    HA 6686   6.453   2.817   6.674 -0.2713 -0.6656 -1.0361
   75SLPC    HB 6687   6.327   2.842   6.540  0.2398  2.8421 -1.9552
   75SLPC    C2 6688   6.469   2.997   6.547 -0.3630 -1.2392 -0.4200
   75SLPC    HS 6689   6.506   3.060   6.632 -0.3012  0.1750 -1.4640
   75SLPC   O21 6690   6.384   3.079   6.466  0.6235  0.3474  0.1075
   75SLPC   C21 6691   6.449   3.192   6.430  1.2135 -0.0448 -0.5577
   75SLPC   O22 6692   6.559   3.220   6.460  0.7525 -0.6928 -0.1673
   75SLPC   C22 6693   6.362   3.266   6.330 -0.1658 -0.7773  0.4024
   75SLPC   H2R 6694   6.292   3.191   6.288 -1.0390 -0.8019  1.8482
   75SLPC   H2S 6695   6.309   3.346   6.385 -1.7333 -1.1027 -0.5647
   75SLPC    C3 6696   6.583   2.930   6.465 -0.0351  0.0582 -0.5066
   75SLPC    HX 6697   6.629   2.851   6.530 -1.6308 -1.7318 -1.4487
   75SLPC    HY 6698   6.655   3.005   6.427 -0.3582  1.5309  1.6097
   75SLPC   O31 6699   6.517   2.864   6.358 -0.4084  0.4977  0.9232
   75SLPC   C31 6700   6.600   2.766   6.299  0.3802 -0.2583  0.3329
   75SLPC   O32 6701   6.710   2.740   6.340  0.6915  0.3548  0.3763
   75SLPC   C32 6702   6.527   2.680   6.196 -0.0455  0.6757  0.1994
   75SLPC   H2X 6703   6.498   2.746   6.111 -2.0665 -0.4668 -0.0702
   75SLPC   H2Y 6704   6.435   2.643   6.246 -0.2423  0.4384 -0.3380
   75SLPC   C23 6705   6.444   3.336   6.218 -0.1387 -0.7399 -0.1967
   75SLPC   H3R 6706   6.503   3.420   6.259 -1.4099  1.6615 -2.9124
   75SLPC   H3S 6707   6.369   3.375   6.146 -0.4062  0.8593  0.9062
   75SLPC   C24 6708   6.538   3.245   6.138  0.0508  0.1433  0.1627
   75SLPC   H4R 6709   6.484   3.152   6.108  2.7334 -1.8967  1.1597
   75SLPC   H4S 6710   6.613   3.209   6.212 -0.5661 -0.2782  0.5976
   75SLPC   C25 6711   6.598   3.313   6.009 -0.3836  0.3080  0.9145
   75SLPC   H5R 6712   6.675   3.240   5.977 -0.8628  0.1892 -0.0137
   75SLPC   H5S 6713   6.651   3.408   6.028 -0.1376  1.5509 -4.5996
   75SLPC   C26 6714   6.500   3.327   5.897  0.0075 -0.1317 -0.1085
   75SLPC   H6R 6715   6.416   3.392   5.931  0.7106  0.3318  0.7895
   75SLPC   H6S 6716   6.455   3.234   5.857 -1.4575  0.2474  0.5592
   75SLPC   C27 6717   6.572   3.411   5.787 -0.4683  0.1638 -0.0397
   75SLPC   H7R 6718   6.658   3.357   5.742 -0.0535 -0.4091  1.3947
   75SLPC   H7S 6719   6.611   3.506   5.830  2.0381  0.2676 -2.3019
   75SLPC   C28 6720   6.481   3.464   5.679  0.1555 -0.1708 -0.7685
   75SLPC   H8R 6721   6.543   3.528   5.612  0.9287  0.7394  0.7606
   75SLPC   H8S 6722   6.404   3.518   5.737 -0.9529 -2.0908 -0.3890
   75SLPC   C29 6723   6.405   3.361   5.599 -0.1337 -0.1724 -0.3398
   75SLPC   H9R 6724   6.370   3.273   5.655 -1.1971  0.6338  0.2953
   75SLPC  C210 6725   6.390   3.361   5.462 -0.0464  0.1905  0.2135
   75SLPC  H10R 6726   6.328   3.280   5.420 -0.8008  1.5608 -1.4276
   75SLPC  C211 6727   6.447   3.456   5.358  0.3172 -0.2409  0.0094
   75SLPC  H11R 6728   6.468   3.556   5.401  0.1773  0.4180 -1.4086
   75SLPC  H11S 6729   6.361   3.475   5.290 -0.3043  0.5755  0.9846
   75SLPC  C212 6730   6.566   3.409   5.280 -0.1423 -0.5078 -0.0151
   75SLPC  H12R 6731   6.636   3.340   5.329  0.9010  0.5890  0.1098
   75SLPC  C213 6732   6.590   3.441   5.152 -0.0659 -0.3193  0.1609
   75SLPC  H13R 6733   6.679   3.396   5.105 -0.3402  0.8389 -1.5854
   75SLPC  C214 6734   6.513   3.539   5.064 -0.3719 -0.0165 -0.2194
   75SLPC  H14R 6735   6.570   3.631   5.040 -0.3781  0.3008  0.9124
   75SLPC  H14S 6736   6.426   3.568   5.127  0.8400 -1.1446  2.1193
   75SLPC  C215 6737   6.467   3.480   4.935  0.0450  0.9498  0.0771
   75SLPC  H15R 6738   6.409   3.554   4.875  0.2805  0.5481 -0.6600
   75SLPC  H15S 6739   6.405   3.391   4.960  0.2532  0.6730 -0.3828
   75SLPC  C216 6740   6.590   3.423   4.852 -0.4012 -0.0517  0.3850
   75SLPC  H16R 6741   6.649   3.341   4.899  0.2855  0.6286  0.7266
   75SLPC  H16S 6742   6.670   3.499   4.849 -1.9393  1.6106 -0.3481
   75SLPC  C217 6743   6.564   3.364   4.715  0.4552  0.8589  0.0946
   75SLPC  H17R 6744   6.487   3.284   4.720  0.7301  0.4950 -1.1217
   75SLPC  H17S 6745   6.653   3.314   4.671 -1.5475 -1.9212 -1.0411
   75SLPC  C218 6746   6.517   3.459   4.611 -0.1138  0.6521  0.7141
   75SLPC  H18R 6747   6.415   3.496   4.634 -0.3371 -0.1425  1.0509
   75SLPC  H18S 6748   6.509   3.414   4.510  3.3364  2.5580 -0.5641
   75SLPC  H18T 6749   6.589   3.542   4.603 -2.1855  2.4736  0.0998
   75SLPC   C33 6750   6.588   2.538   6.160 -0.2837  0.9574 -0.6953
   75SLPC   H3X 6751   6.497   2.481   6.130  0.4169 -1.5960  1.5827
   75SLPC   H3Y 6752   6.628   2.489   6.251  0.1631  0.1406 -1.3150
   75SLPC   C34 6753   6.693   2.536   6.049 -0.1301 -0.1530 -0.4907
   75SLPC   H4X 6754   6.768   2.618   6.054  0.9687 -1.1000 -1.0998
   75SLPC   H4Y 6755   6.641   2.543   5.951 -0.8752 -0.1908 -0.1059
   75SLPC   C35 6756   6.767   2.401   6.051  0.2627  0.6751  0.3529
   75SLPC   H5X 6757   6.689   2.322   6.057 -1.5392  2.4626  1.8223
   75SLPC   H5Y 6758   6.835   2.391   6.138  2.8001  0.5282 -1.5560
   75SLPC   C36 6759   6.853   2.381   5.924  0.3803  0.4441  0.3003
   75SLPC   H6X 6760   6.911   2.292   5.955 -1.1764 -0.1112  1.7322
   75SLPC   H6Y 6761   6.922   2.467   5.902  1.0390  0.3445  1.8706
   75SLPC   C37 6762   6.770   2.348   5.797  0.4030  0.1743 -0.7936
   75SLPC   H7X 6763   6.662   2.371   5.809  0.5969  0.6260  0.1751
   75SLPC   H7Y 6764   6.773   2.244   5.758  0.2341 -1.1515  2.4671
   75SLPC   C38 6765   6.819   2.425   5.669  0.8456 -0.2755  0.6067
   75SLPC   H8X 6766   6.883   2.514   5.687  1.5339  0.6365 -4.7162
   75SLPC   H8Y 6767   6.736   2.460   5.603  1.4751 -2.3412 -1.3973
   75SLPC   C39 6768   6.876   2.338   5.563 -0.0714  0.3496 -0.6329
   75SLPC   H9X 6769   6.809   2.251   5.549  1.6676 -0.6832 -3.1743
   75SLPC   H9Y 6770   6.970   2.291   5.599 -0.7403 -1.2977 -0.9747
   75SLPC  C310 6771   6.888   2.397   5.428  0.5298  0.0984  0.5951
   75SLPC  H10X 6772   6.954   2.484   5.411 -0.3418  0.5836 -0.4478
   75SLPC  H10Y 6773   6.783   2.427   5.407  0.4531  0.2236  1.1382
   75SLPC  C311 6774   6.918   2.291   5.317 -0.7358 -0.0072 -0.1344
   75SLPC  H11X 6775   6.837   2.215   5.310 -0.6198 -0.1271 -0.1959
   75SLPC  H11Y 6776   7.019   2.248   5.336 -0.7135  0.3475  0.5882
   75SLPC  C312 6777   6.928   2.360   5.183  0.4200 -0.0978  0.0694
   75SLPC  H12X 6778   6.978   2.460   5.185 -0.4068  0.3223  0.3046
   75SLPC  H12Y 6779   6.825   2.388   5.154  1.1160  2.0762 -0.5080
   75SLPC  C313 6780   7.004   2.268   5.084  0.8700 -0.5429  0.0267
   75SLPC  H13X 6781   6.948   2.172   5.088  1.6688 -0.9647  2.3302
   75SLPC  H13Y 6782   7.108   2.241   5.112  0.6446 -1.9748 -0.4249
   75SLPC  C314 6783   6.995   2.327   4.941 -0.0138  0.5401  0.1925
   75SLPC  H14X 6784   7.074   2.403   4.924 -0.2343  0.7403  0.0548
   75SLPC  H14Y 6785   6.891   2.365   4.932 -0.0282  1.1768  2.5007
   75SLPC  C315 6786   7.017   2.208   4.842  0.5955  0.5212 -0.5670
   75SLPC  H15X 6787   6.936   2.133   4.853  0.4351  0.9428  1.5049
   75SLPC  H15Y 6788   7.113   2.156   4.861  0.5761  1.0280  1.0936
   75SLPC  C316 6789   7.027   2.258   4.696 -0.0157 -0.0072  0.4184
   75SLPC  H16X 6790   7.120   2.318   4.689  1.8182 -2.8178 -0.8545
   75SLPC  H16Y 6791   6.936   2.315   4.667  1.3435  1.8098 -0.5216
   75SLPC  C317 6792   7.031   2.139   4.602  0.5143 -0.2723  0.6068
   75SLPC  H17X 6793   7.104   2.068   4.647  1.9125  0.5700 -0.2477
   75SLPC  H17Y 6794   7.083   2.160   4.506 -0.7594  0.3510  0.0373
   75SLPC  C318 6795   6.905   2.059   4.570 -0.4337  0.4706 -0.0583
   75SLPC  H18X 6796   6.933   1.959   4.530 -0.2188  0.0407  1.1218
   75SLPC  H18Y 6797   6.843   2.093   4.485 -0.4115 -1.2869 -0.8054
   75SLPC  H18Z 6798   6.849   2.040   4.664 -1.1336 -0.3584 -0.6306
   76SLPC     N 6799   1.999   2.311   7.231 -0.0088  0.8261 -0.2967
   76SLPC   C13 6800   1.939   2.183   7.283  0.6202 -0.3716 -0.2389
   76SLPC  H13A 6801   1.831   2.186   7.289  0.5291 -1.2843 -1.3139
   76SLPC  H13B 6802   1.967   2.099   7.222  0.1667 -0.8978  0.2630
   76SLPC  H13C 6803   1.971   2.164   7.385  1.8633  2.0501 -0.1052
   76SLPC   C14 6804   2.152   2.293   7.244  0.4552 -0.0895 -0.5847
   76SLPC  H14A 6805   2.179   2.305   7.348  0.8269  0.3412 -0.7260
   76SLPC  H14B 6806   2.184   2.193   7.222  1.7305 -0.3248  1.9911
   76SLPC  H14C 6807   2.216   2.358   7.186  1.7586 -1.4564 -0.7372
   76SLPC   C15 6808   1.966   2.436   7.316 -0.3506  0.0386  0.4605
   76SLPC  H15A 6809   1.861   2.460   7.311 -0.3980 -0.3299 -0.5783
   76SLPC  H15B 6810   1.992   2.414   7.418 -0.5525  1.4925  0.8475
   76SLPC  H15C 6811   2.014   2.525   7.279 -0.8233  0.0438 -0.1573
   76SLPC   C12 6812   1.966   2.346   7.089 -0.1065  1.0854 -0.3222
   76SLPC  H12A 6813   2.025   2.436   7.074  0.6286  0.6047 -0.3370
   76SLPC  H12B 6814   1.862   2.373   7.076 -0.6689  0.4070  2.2836
   76SLPC   C11 6815   2.002   2.245   6.977  0.0503 -1.0539 -0.2824
   76SLPC  H11A 6816   2.110   2.221   6.989  0.5990  0.1577 -2.2459
   76SLPC  H11B 6817   1.998   2.304   6.882  2.9390  2.4802  1.4946
   76SLPC     P 6818   1.797   2.103   6.895  0.1957 -0.1811  0.0575
   76SLPC   O13 6819   1.702   2.037   6.988  0.2971  0.2476  0.1876
   76SLPC   O14 6820   1.749   2.232   6.828 -0.0554  1.1635  0.1633
   76SLPC   O12 6821   1.928   2.128   6.973  0.1039  0.3662  0.0002
   76SLPC   O11 6822   1.841   1.993   6.790 -0.3592  0.3864  0.1055
   76SLPC    C1 6823   1.969   2.009   6.713  0.5272 -0.9000  0.5321
   76SLPC    HA 6824   1.979   2.114   6.679  0.2910 -0.9309  0.3650
   76SLPC    HB 6825   2.058   1.986   6.776 -1.0856  1.4270  4.0450
   76SLPC    C2 6826   1.963   1.916   6.589  0.2993 -0.3389 -0.4618
   76SLPC    HS 6827   1.962   1.812   6.629  2.2577 -0.1470  0.2070
   76SLPC   O21 6828   2.080   1.931   6.506  0.4329 -0.3695  0.0509
   76SLPC   C21 6829   2.132   1.813   6.458  0.0050 -0.2077 -0.0419
   76SLPC   O22 6830   2.097   1.703   6.487  0.4755  0.2745 -0.1077
   76SLPC   C22 6831   2.256   1.844   6.372  0.3920 -0.0078 -0.3321
   76SLPC   H2R 6832   2.207   1.883   6.280  0.4886  1.7398  0.3375
   76SLPC   H2S 6833   2.309   1.930   6.415  1.4388 -0.0633 -1.4501
   76SLPC    C3 6834   1.831   1.944   6.503  0.5500 -0.1412 -0.2088
   76SLPC    HX 6835   1.844   2.048   6.465 -0.7147  0.1439  0.1077
   76SLPC    HY 6836   1.741   1.958   6.565 -0.2808  2.0102 -1.7758
   76SLPC   O31 6837   1.815   1.847   6.393 -0.1656  0.0518 -0.6939
   76SLPC   C31 6838   1.781   1.725   6.440 -0.4667 -0.1023 -0.6731
   76SLPC   O32 6839   1.746   1.706   6.558 -0.3777 -0.9730  0.2163
   76SLPC   C32 6840   1.758   1.627   6.333 -0.3802 -0.0616 -0.4262
   76SLPC   H2X 6841   1.660   1.575   6.344  0.3690 -1.3239  0.6237
   76SLPC   H2Y 6842   1.837   1.548   6.335 -1.2643 -0.9977 -1.1667
   76SLPC   C23 6843   2.361   1.739   6.358 -0.1529  0.3819  0.2166
   76SLPC   H3R 6844   2.306   1.647   6.329 -0.6215  0.7660 -0.1186
   76SLPC   H3S 6845   2.409   1.720   6.457 -1.1711 -0.4774  0.5705
   76SLPC   C24 6846   2.474   1.783   6.267 -0.1674  0.3430  0.2418
   76SLPC   H4R 6847   2.559   1.712   6.257  0.2016  0.9223 -0.9294
   76SLPC   H4S 6848   2.515   1.883   6.294  1.0720 -0.3148  0.9132
   76SLPC   C25 6849   2.426   1.812   6.116  0.0099 -0.2112 -0.6990
   76SLPC   H5R 6850   2.507   1.850   6.050  2.2615 -1.0268  1.3984
   76SLPC   H5S 6851   2.341   1.883   6.111  1.0187  1.2622  1.2794
   76SLPC   C26 6852   2.382   1.680   6.056  0.4937  0.3975 -0.5429
   76SLPC   H6R 6853   2.281   1.657   6.096  1.4849  1.7304  3.0978
   76SLPC   H6S 6854   2.446   1.596   6.091  0.2279  0.4313  0.0386
   76SLPC   C27 6855   2.374   1.682   5.905  0.5360 -0.4655  0.1016
   76SLPC   H7R 6856   2.355   1.781   5.858  0.3910 -1.3412 -1.7733
   76SLPC   H7S 6857   2.286   1.620   5.875 -0.0731  1.0685 -1.4731
   76SLPC   C28 6858   2.501   1.627   5.851  0.0682  0.7682  0.4147
   76SLPC   H8R 6859   2.514   1.527   5.897 -0.0074 -0.4655 -2.0837
   76SLPC   H8S 6860   2.584   1.699   5.868  1.9172 -1.2347  0.2603
   76SLPC   C29 6861   2.486   1.597   5.699  0.7397 -0.4309 -0.2490
   76SLPC   H9R 6862   2.440   1.503   5.665 -2.0472  1.8646 -3.4688
   76SLPC  C210 6863   2.505   1.693   5.599  0.5486  0.3009 -0.3073
   76SLPC  H10R 6864   2.491   1.664   5.493 -0.3660 -1.0619  0.1616
   76SLPC  C211 6865   2.547   1.833   5.612 -0.5783 -0.6291  0.2128
   76SLPC  H11R 6866   2.652   1.821   5.646 -0.6342 -1.7411  0.0031
   76SLPC  H11S 6867   2.472   1.876   5.682 -1.8861  0.3598 -1.7008
   76SLPC  C212 6868   2.565   1.933   5.488 -0.6073 -0.2649  0.5910
   76SLPC  H12R 6869   2.644   1.897   5.421  1.4476 -0.0868  2.7726
   76SLPC  C213 6870   2.487   2.041   5.462 -0.3121  0.6877  0.1983
   76SLPC  H13R 6871   2.514   2.100   5.374  2.2323 -3.2758 -2.0242
   76SLPC  C214 6872   2.379   2.092   5.556 -0.3594 -0.3561  0.2720
   76SLPC  H14R 6873   2.353   2.193   5.518 -1.0935 -0.8905 -0.6796
   76SLPC  H14S 6874   2.422   2.108   5.657  2.3330  0.5109 -0.9052
   76SLPC  C215 6875   2.254   2.017   5.564  0.2696 -0.0093 -0.2689
   76SLPC  H15R 6876   2.265   1.934   5.636 -1.8339  0.1997  0.3654
   76SLPC  H15S 6877   2.227   1.961   5.472 -1.5450  0.3168  0.0341
   76SLPC  C216 6878   2.128   2.105   5.593 -0.3890  0.4414  0.4501
   76SLPC  H16R 6879   2.037   2.046   5.569  0.3308 -1.3637  1.9566
   76SLPC  H16S 6880   2.133   2.190   5.521 -0.3949  1.0209  1.1282
   76SLPC  C217 6881   2.111   2.155   5.735  0.5563 -0.3223  0.3784
   76SLPC  H17R 6882   2.025   2.225   5.731 -0.0412 -1.1035 -1.3649
   76SLPC  H17S 6883   2.207   2.209   5.753  1.8963 -2.6962  0.7813
   76SLPC  C218 6884   2.085   2.038   5.840  0.2970  0.4949 -0.4110
   76SLPC  H18R 6885   2.182   1.988   5.863  0.2186 -0.1637 -1.4396
   76SLPC  H18S 6886   2.015   1.958   5.807  0.7566 -0.3739  0.6585
   76SLPC  H18T 6887   2.039   2.084   5.930  1.4480  0.3008  0.2979
   76SLPC   C33 6888   1.783   1.677   6.189  0.0241 -0.1509 -0.2093
   76SLPC   H3X 6889   1.890   1.705   6.188 -0.3748  1.5405 -0.5370
   76SLPC   H3Y 6890   1.717   1.766   6.175 -0.7732 -0.3517  1.8303
   76SLPC   C34 6891   1.755   1.578   6.080 -1.0576 -0.4095 -0.2713
   76SLPC   H4X 6892   1.657   1.535   6.112 -0.6627  0.5417  2.4575
   76SLPC   H4Y 6893   1.825   1.493   6.091 -1.4610 -0.5336  1.6074
   76SLPC   C35 6894   1.744   1.637   5.938  0.0490 -0.2881 -0.7081
   76SLPC   H5X 6895   1.671   1.720   5.949 -1.8984 -2.1005  0.7519
   76SLPC   H5Y 6896   1.702   1.564   5.865 -1.0144  0.9862 -1.3972
   76SLPC   C36 6897   1.874   1.695   5.884 -0.0970  0.7724  0.1831
   76SLPC   H6X 6898   1.914   1.766   5.960  1.9297  0.5367 -0.5900
   76SLPC   H6Y 6899   1.843   1.758   5.798 -0.2664 -1.2350 -1.2946
   76SLPC   C37 6900   1.984   1.595   5.858 -0.3536 -0.7797 -0.1670
   76SLPC   H7X 6901   1.983   1.529   5.948  0.4131 -0.0812  0.3618
   76SLPC   H7Y 6902   2.079   1.653   5.860  0.0719 -1.4486 -0.4184
   76SLPC   C38 6903   1.988   1.512   5.727 -0.1953  0.2640  0.4686
   76SLPC   H8X 6904   1.908   1.436   5.738 -0.9747  1.0106  0.0207
   76SLPC   H8Y 6905   2.088   1.465   5.720 -0.1491  0.3122  0.7634
   76SLPC   C39 6906   1.960   1.602   5.608 -0.4902  0.7125  0.0800
   76SLPC   H9X 6907   2.018   1.697   5.609 -1.2082  1.1556  1.0866
   76SLPC   H9Y 6908   1.854   1.630   5.626 -1.5984 -1.9109 -1.7264
   76SLPC  C310 6909   1.975   1.516   5.480  0.9539  0.1077 -0.4629
   76SLPC  H10X 6910   1.912   1.573   5.407  1.5566 -0.9182 -1.8232
   76SLPC  H10Y 6911   1.925   1.422   5.511  0.0046  1.7171  3.4500
   76SLPC  C311 6912   2.118   1.492   5.423  0.1005  0.1254 -0.7553
   76SLPC  H11X 6913   2.114   1.394   5.372 -0.0505  0.4642 -1.4013
   76SLPC  H11Y 6914   2.195   1.473   5.501 -0.5684 -1.2633 -0.4012
   76SLPC  C312 6915   2.171   1.604   5.336 -0.6342  0.2682  0.6750
   76SLPC  H12X 6916   2.154   1.701   5.388  0.4964  0.9085 -0.0971
   76SLPC  H12Y 6917   2.114   1.614   5.241 -1.1259  1.8876  1.1009
   76SLPC  C313 6918   2.316   1.578   5.280  0.3169 -0.3800 -0.3209
   76SLPC  H13X 6919   2.310   1.487   5.215  1.2828 -0.8945  0.2912
   76SLPC  H13Y 6920   2.391   1.546   5.355  0.6398 -0.0446 -0.4990
   76SLPC  C314 6921   2.372   1.698   5.199  0.3139 -0.0865  0.0467
   76SLPC  H14X 6922   2.403   1.774   5.274 -1.8829 -0.8542  1.8297
   76SLPC  H14Y 6923   2.297   1.749   5.136  1.6575  1.7941 -0.1113
   76SLPC  C315 6924   2.495   1.669   5.122 -0.2766 -0.3562  0.0825
   76SLPC  H15X 6925   2.572   1.619   5.184  1.2947 -0.0424 -1.5292
   76SLPC  H15Y 6926   2.556   1.760   5.103  0.7525 -0.9746  0.3094
   76SLPC  C316 6927   2.462   1.596   4.991 -0.3492 -0.5901 -0.5264
   76SLPC  H16X 6928   2.369   1.634   4.942  0.6378  1.7228 -0.7340
   76SLPC  H16Y 6929   2.441   1.493   5.028  0.3041  0.2969  2.6886
   76SLPC  C317 6930   2.571   1.589   4.882 -0.2470 -0.2251  0.3743
   76SLPC  H17X 6931   2.542   1.516   4.803  0.1644 -1.4016  1.2861
   76SLPC  H17Y 6932   2.667   1.552   4.924  1.2731  0.8293 -1.9588
   76SLPC  C318 6933   2.603   1.720   4.816  0.3573  0.4268 -0.3170
   76SLPC  H18X 6934   2.661   1.777   4.891  2.0677 -1.2935 -0.2453
   76SLPC  H18Y 6935   2.515   1.779   4.782 -0.7889 -0.7401  0.5239
   76SLPC  H18Z 6936   2.660   1.701   4.722  1.8121  0.3950  0.5406
   77SLPC     N 6937   0.831   2.119   7.161 -0.4023  0.7290  1.2314
   77SLPC   C13 6938   0.832   2.220   7.274  0.4762  0.6701 -0.2755
   77SLPC  H13A 6939   0.829   2.321   7.237  1.6939  0.4583 -0.9873
   77SLPC  H13B 6940   0.749   2.207   7.342 -1.5603 -2.3694 -3.0497
   77SLPC  H13C 6941   0.925   2.213   7.329  0.8613  1.1082 -0.8629
   77SLPC   C14 6942   0.728   2.165   7.061 -0.3619 -0.1741 -0.3391
   77SLPC  H14A 6943   0.759   2.261   7.023  0.4157  0.0421  0.7707
   77SLPC  H14B 6944   0.706   2.095   6.982 -3.3128  1.2106 -0.8694
   77SLPC  H14C 6945   0.634   2.177   7.112  0.3274  0.8195  0.7428
   77SLPC   C15 6946   0.804   1.986   7.204  0.2843 -0.6664 -0.3821
   77SLPC  H15A 6947   0.709   1.975   7.254  1.7155 -2.6659  2.1428
   77SLPC  H15B 6948   0.814   1.917   7.122  1.8371 -0.9766  0.0309
   77SLPC  H15C 6949   0.873   1.959   7.282  1.5008 -0.0904 -1.2273
   77SLPC   C12 6950   0.976   2.120   7.089 -1.0481  0.1806  0.1299
   77SLPC  H12A 6951   1.052   2.100   7.163 -0.6588  3.0253  0.6353
   77SLPC  H12B 6952   0.990   2.221   7.052  0.0103  0.0851  0.2316
   77SLPC   C11 6953   1.005   2.011   6.978 -0.9251  0.3937  0.2129
   77SLPC  H11A 6954   1.084   2.040   6.905 -2.9895 -0.7140 -2.6604
   77SLPC  H11B 6955   0.919   2.004   6.908 -1.5185 -0.3049  0.9956
   77SLPC     P 6956   1.194   1.870   7.088 -0.0289  0.6433 -0.5103
   77SLPC   O13 6957   1.238   1.997   7.144  0.0202 -0.3459 -0.5518
   77SLPC   O14 6958   1.196   1.757   7.186 -0.0970  0.0924  0.4497
   77SLPC   O12 6959   1.044   1.889   7.039 -0.2661 -0.4084 -0.1029
   77SLPC   O11 6960   1.272   1.834   6.958  0.7923 -0.3182 -0.6099
   77SLPC    C1 6961   1.385   1.903   6.907  0.3562 -0.5112 -0.4384
   77SLPC    HA 6962   1.415   1.991   6.968 -2.0543  0.6644 -0.8476
   77SLPC    HB 6963   1.474   1.836   6.905 -1.2086 -2.7472 -2.5333
   77SLPC    C2 6964   1.359   1.936   6.755 -0.6807 -0.3475 -0.2624
   77SLPC    HS 6965   1.295   2.027   6.759 -2.0435 -1.2627 -0.6583
   77SLPC   O21 6966   1.284   1.824   6.705 -0.0051 -0.2549 -0.1794
   77SLPC   C21 6967   1.218   1.837   6.588 -0.7907 -0.2919  0.1076
   77SLPC   O22 6968   1.184   1.945   6.542 -0.2986 -0.1031 -0.6097
   77SLPC   C22 6969   1.197   1.699   6.532  0.4765  0.0411 -0.3539
   77SLPC   H2R 6970   1.297   1.653   6.516  0.7981  0.4214  0.5227
   77SLPC   H2S 6971   1.143   1.639   6.608  3.3134  1.2726  2.8955
   77SLPC    C3 6972   1.492   1.956   6.672  0.4222  0.0705 -0.2360
   77SLPC    HX 6973   1.536   1.855   6.656  0.1092 -0.2602  0.9227
   77SLPC    HY 6974   1.559   2.022   6.731 -0.0594  2.2511 -1.9893
   77SLPC   O31 6975   1.470   1.999   6.537  0.4523 -0.8288 -0.2419
   77SLPC   C31 6976   1.432   2.124   6.536  0.3557 -0.8723 -0.3464
   77SLPC   O32 6977   1.411   2.199   6.627 -0.1464  0.3913 -0.4231
   77SLPC   C32 6978   1.407   2.179   6.392  0.1492  0.6345 -1.0532
   77SLPC   H2X 6979   1.368   2.283   6.400  0.1777  0.5571  0.4360
   77SLPC   H2Y 6980   1.333   2.112   6.344  0.2432 -0.9973  0.9367
   77SLPC   C23 6981   1.128   1.695   6.397 -0.0062  0.9553  0.3598
   77SLPC   H3R 6982   1.026   1.740   6.393 -1.1221 -1.4376  0.1235
   77SLPC   H3S 6983   1.109   1.587   6.381 -1.9020  1.3556 -0.3391
   77SLPC   C24 6984   1.190   1.752   6.276  0.2441 -0.8583  0.6344
   77SLPC   H4R 6985   1.240   1.850   6.293  0.0887 -0.6384 -0.1362
   77SLPC   H4S 6986   1.105   1.763   6.206  1.2579  0.6217 -0.4518
   77SLPC   C25 6987   1.305   1.672   6.212  0.3560  0.2989 -0.1773
   77SLPC   H5R 6988   1.263   1.572   6.186  0.3067  0.1338  0.5129
   77SLPC   H5S 6989   1.383   1.648   6.288  1.5892  1.1584 -1.1420
   77SLPC   C26 6990   1.372   1.740   6.090 -0.6721  0.5698  0.0709
   77SLPC   H6R 6991   1.432   1.660   6.042  0.2682  0.9403  0.6027
   77SLPC   H6S 6992   1.449   1.817   6.117  3.6780 -2.8842 -1.2409
   77SLPC   C27 6993   1.277   1.800   5.984  0.3373  0.0843 -0.5510
   77SLPC   H7R 6994   1.258   1.903   6.022  0.6703 -0.6555  1.8120
   77SLPC   H7S 6995   1.182   1.742   5.986  0.9632 -0.9667  0.7520
   77SLPC   C28 6996   1.339   1.796   5.844  0.5748 -0.6702 -0.3013
   77SLPC   H8R 6997   1.444   1.834   5.847 -0.2240  1.7004  2.1752
   77SLPC   H8S 6998   1.290   1.870   5.779 -0.6306 -1.8333 -0.7586
   77SLPC   C29 6999   1.326   1.662   5.784  0.4617  0.0267 -0.0724
   77SLPC   H9R 7000   1.341   1.581   5.855 -0.8628 -0.3410 -0.1875
   77SLPC  C210 7001   1.307   1.639   5.653  0.3104 -0.5518  0.0633
   77SLPC  H10R 7002   1.283   1.535   5.626 -0.9393 -0.0984 -0.6258
   77SLPC  C211 7003   1.303   1.742   5.532 -0.2216 -0.7355 -0.6279
   77SLPC  H11R 7004   1.407   1.780   5.523 -0.0114 -1.2152 -0.2270
   77SLPC  H11S 7005   1.240   1.832   5.549  0.1787 -0.7097  0.8006
   77SLPC  C212 7006   1.241   1.690   5.401 -0.7986 -0.6929 -0.9586
   77SLPC  H12R 7007   1.238   1.580   5.401  0.9711 -0.7677 -1.5635
   77SLPC  C213 7008   1.210   1.754   5.285  0.4996  0.0885 -0.8952
   77SLPC  H13R 7009   1.162   1.700   5.202  2.8124  0.8361 -2.8242
   77SLPC  C214 7010   1.222   1.899   5.254 -0.3203 -0.1064 -0.2617
   77SLPC  H14R 7011   1.195   1.951   5.348 -1.8092 -1.8467  0.3256
   77SLPC  H14S 7012   1.160   1.936   5.169  0.6306 -0.1736 -1.0030
   77SLPC  C215 7013   1.372   1.929   5.216 -0.2793  0.3249 -0.1452
   77SLPC  H15R 7014   1.450   1.870   5.269 -0.4767  0.4760  0.3173
   77SLPC  H15S 7015   1.393   2.037   5.231  1.9720  0.1736 -1.7938
   77SLPC  C216 7016   1.381   1.911   5.062 -0.2657  0.0853  1.6613
   77SLPC  H16R 7017   1.310   1.974   5.005  0.3112 -0.3697  0.3909
   77SLPC  H16S 7018   1.346   1.809   5.037 -0.9507  0.3892  1.3626
   77SLPC  C217 7019   1.515   1.937   4.996  0.1890 -0.7058 -0.6457
   77SLPC  H17R 7020   1.598   1.877   5.038  0.9124  0.5094 -0.2802
   77SLPC  H17S 7021   1.538   2.045   5.008  0.1400 -0.4675 -2.4293
   77SLPC  C218 7022   1.509   1.921   4.842  0.3420  0.2849 -0.6975
   77SLPC  H18R 7023   1.420   1.976   4.803  0.2160  0.5545 -0.0290
   77SLPC  H18S 7024   1.490   1.814   4.816 -2.3610 -0.1932  2.5767
   77SLPC  H18T 7025   1.590   1.956   4.774 -2.6239  2.0871 -3.6393
   77SLPC   C33 7026   1.538   2.187   6.304 -0.1969 -0.3648 -0.6054
   77SLPC   H3X 7027   1.625   2.230   6.358 -0.6551  0.8088 -0.7575
   77SLPC   H3Y 7028   1.521   2.267   6.229 -0.8572  0.6853  0.6267
   77SLPC   C34 7029   1.571   2.052   6.237  0.2501 -0.0273 -0.8712
   77SLPC   H4X 7030   1.481   1.994   6.207 -0.5611  0.7558 -0.0209
   77SLPC   H4Y 7031   1.632   1.992   6.308  1.0106  0.3692 -1.1769
   77SLPC   C35 7032   1.661   2.068   6.118  0.6794 -0.4968  0.1841
   77SLPC   H5X 7033   1.732   1.983   6.114 -1.0988 -2.0443 -0.4588
   77SLPC   H5Y 7034   1.728   2.156   6.119  1.4770 -1.0868  0.0935
   77SLPC   C36 7035   1.582   2.072   5.985  0.2485  0.0536 -0.2203
   77SLPC   H6X 7036   1.533   2.169   5.962 -1.1350 -0.4055  0.6579
   77SLPC   H6Y 7037   1.505   1.992   5.982  2.3826 -2.3454  2.5464
   77SLPC   C37 7038   1.666   2.040   5.863 -0.6404 -0.7475 -0.1771
   77SLPC   H7X 7039   1.687   1.931   5.871 -3.8190 -1.6220 -2.0024
   77SLPC   H7Y 7040   1.758   2.102   5.870 -1.1851  0.2744 -1.5959
   77SLPC   C38 7041   1.599   2.070   5.728  0.0640 -0.3578 -0.1310
   77SLPC   H8X 7042   1.571   2.177   5.721 -1.4000 -0.6116  1.2053
   77SLPC   H8Y 7043   1.506   2.008   5.724 -0.8610  0.9534  0.4162
   77SLPC   C39 7044   1.687   2.030   5.610  0.8204  0.3870 -0.4791
   77SLPC   H9X 7045   1.714   1.924   5.631 -1.4522 -0.5005 -1.6037
   77SLPC   H9Y 7046   1.781   2.089   5.615  0.4329  0.9149  2.6237
   77SLPC  C310 7047   1.621   2.036   5.474 -0.6707  0.6034  0.5384
   77SLPC  H10X 7048   1.601   2.139   5.439  2.0766  0.4320 -1.8188
   77SLPC  H10Y 7049   1.522   1.986   5.489 -1.1582  1.2953 -0.3081
   77SLPC  C311 7050   1.708   1.983   5.357 -0.5236  0.1191 -0.1885
   77SLPC  H11X 7051   1.645   1.971   5.266 -2.1913  2.1560  0.6242
   77SLPC  H11Y 7052   1.753   1.890   5.395  1.8460  0.3800 -2.1188
   77SLPC  C312 7053   1.832   2.063   5.313 -0.1918  0.0438 -0.2726
   77SLPC  H12X 7054   1.886   2.106   5.400  2.6403  1.6894 -2.6720
   77SLPC  H12Y 7055   1.820   2.153   5.249  0.6405 -1.8042 -3.2129
   77SLPC  C313 7056   1.947   1.987   5.230  0.1264  0.2054 -0.4310
   77SLPC  H13X 7057   1.902   1.943   5.138  1.1137 -1.6784 -0.0727
   77SLPC  H13Y 7058   1.969   1.897   5.291 -1.8647 -1.3377 -1.8324
   77SLPC  C314 7059   2.067   2.073   5.183  0.4007  0.0240  0.8702
   77SLPC  H14X 7060   2.125   2.108   5.271  3.5748 -1.8118 -0.3148
   77SLPC  H14Y 7061   2.029   2.164   5.131  0.4970 -2.5287 -4.3794
   77SLPC  C315 7062   2.171   2.006   5.096 -0.5944 -0.5816  0.1580
   77SLPC  H15X 7063   2.119   1.971   5.004 -2.3015  0.1057  0.8088
   77SLPC  H15Y 7064   2.204   1.924   5.163  0.1351  0.8780  1.6820
   77SLPC  C316 7065   2.287   2.095   5.065  0.1820  0.0809 -0.1647
   77SLPC  H16X 7066   2.317   2.135   5.164 -0.6027 -2.2053  1.0644
   77SLPC  H16Y 7067   2.235   2.175   5.007 -0.9807 -0.5754 -0.0496
   77SLPC  C317 7068   2.392   2.027   4.977 -0.1473 -0.0483 -0.3533
   77SLPC  H17X 7069   2.339   1.974   4.895 -1.1961  0.7559 -0.2239
   77SLPC  H17Y 7070   2.429   1.940   5.036 -3.1750 -1.6680 -0.6098
   77SLPC  C318 7071   2.494   2.117   4.916 -0.4974 -0.6425 -0.1921
   77SLPC  H18X 7072   2.591   2.063   4.920 -0.8940 -1.5034 -1.5188
   77SLPC  H18Y 7073   2.511   2.210   4.973  0.6880  1.7280 -4.0173
   77SLPC  H18Z 7074   2.480   2.150   4.811  1.6142 -1.4056 -0.7745
   78SLPC     N 7075   4.346   5.894   6.864 -0.6093  0.0344 -0.2464
   78SLPC   C13 7076   4.395   5.959   6.992  0.4580  0.0149  0.3728
   78SLPC  H13A 7077   4.322   5.970   7.071  0.7519  0.2895  0.6102
   78SLPC  H13B 7078   4.474   5.905   7.042  1.3848  1.1038  0.1430
   78SLPC  H13C 7079   4.432   6.057   6.964  1.2344 -0.0204  1.2433
   78SLPC   C14 7080   4.221   5.960   6.821  0.0491 -0.0263 -0.9694
   78SLPC  H14A 7081   4.179   5.915   6.732  0.5833 -2.7187  0.0523
   78SLPC  H14B 7082   4.152   5.945   6.904 -2.2472  1.4783 -2.4867
   78SLPC  H14C 7083   4.238   6.065   6.804 -1.6651  0.1464 -1.8406
   78SLPC   C15 7084   4.314   5.752   6.880 -0.2863  0.0812 -0.1248
   78SLPC  H15A 7085   4.245   5.728   6.960 -1.7157  2.3548 -0.5915
   78SLPC  H15B 7086   4.265   5.714   6.791  0.0350 -0.0801 -0.2329
   78SLPC  H15C 7087   4.409   5.701   6.890  0.8159  1.8309 -1.1913
   78SLPC   C12 7088   4.457   5.906   6.755  0.6343 -0.5076 -0.6290
   78SLPC  H12A 7089   4.425   5.846   6.671  1.3198 -0.2052 -1.1130
   78SLPC  H12B 7090   4.551   5.870   6.794  0.7351 -0.2664 -0.6490
   78SLPC   C11 7091   4.483   6.054   6.705  0.0181  0.0645  0.1074
   78SLPC  H11A 7092   4.386   6.093   6.667  0.5183  0.3025 -0.9840
   78SLPC  H11B 7093   4.549   6.041   6.616 -0.2790 -1.0834  0.0387
   78SLPC     P 7094   4.692   6.108   6.842 -0.6294 -0.0741  0.0872
   78SLPC   O13 7095   4.719   6.172   6.977  0.7860  0.3624 -0.0189
   78SLPC   O14 7096   4.721   5.961   6.841 -0.2634  0.0526  0.2759
   78SLPC   O12 7097   4.535   6.139   6.807  0.3389 -0.5967 -0.3125
   78SLPC   O11 7098   4.773   6.183   6.731  0.2637 -0.3007 -0.2329
   78SLPC    C1 7099   4.742   6.310   6.683 -0.0026  0.0031 -0.2877
   78SLPC    HA 7100   4.632   6.328   6.678  0.2662  3.7384  2.6182
   78SLPC    HB 7101   4.779   6.389   6.752 -0.3474  2.3741 -2.6644
   78SLPC    C2 7102   4.807   6.340   6.554 -0.5029  0.1940 -0.6450
   78SLPC    HS 7103   4.760   6.436   6.523 -3.4953 -0.6899  0.7186
   78SLPC   O21 7104   4.791   6.244   6.451  0.5897  0.2944 -0.1893
   78SLPC   C21 7105   4.681   6.228   6.391  0.5030 -0.6257 -0.4516
   78SLPC   O22 7106   4.589   6.309   6.386  0.2557  0.1877  0.3783
   78SLPC   C22 7107   4.687   6.104   6.294 -0.0022 -0.7069  0.7299
   78SLPC   H2R 7108   4.736   6.138   6.200 -0.0021 -1.3953  0.4733
   78SLPC   H2S 7109   4.757   6.036   6.346 -2.2885 -3.4971  0.4113
   78SLPC    C3 7110   4.962   6.372   6.563 -0.0072 -0.3722  0.6579
   78SLPC    HX 7111   5.002   6.286   6.621 -0.1804 -1.6556 -1.0504
   78SLPC    HY 7112   4.986   6.459   6.628  0.9492  0.5864 -0.9140
   78SLPC   O31 7113   5.031   6.391   6.442  0.6359  0.1537 -0.0198
   78SLPC   C31 7114   5.012   6.513   6.383 -0.8334  0.3015 -0.0077
   78SLPC   O32 7115   4.942   6.596   6.433 -0.4894 -0.2051 -0.2910
   78SLPC   C32 7116   5.089   6.533   6.253  0.4548 -0.4068 -0.1510
   78SLPC   H2X 7117   5.195   6.545   6.283  1.1828 -0.9030 -2.3204
   78SLPC   H2Y 7118   5.066   6.633   6.210 -0.9280  0.0201  1.4733
   78SLPC   C23 7119   4.562   6.030   6.264  0.7072 -0.0943 -0.6720
   78SLPC   H3R 7120   4.481   6.093   6.222 -0.2298 -1.6864 -1.3346
   78SLPC   H3S 7121   4.534   5.983   6.361  2.2426 -0.1890 -0.2477
   78SLPC   C24 7122   4.570   5.918   6.158  0.1513  0.6797  0.0953
   78SLPC   H4R 7123   4.620   5.831   6.207  0.0302  1.9775  2.6575
   78SLPC   H4S 7124   4.620   5.957   6.067  1.0827  0.8973  0.6847
   78SLPC   C25 7125   4.425   5.866   6.127 -0.6183 -0.2688  0.1127
   78SLPC   H5R 7126   4.352   5.951   6.120 -0.4968 -0.2950 -2.7133
   78SLPC   H5S 7127   4.392   5.813   6.219  1.0700 -1.9997 -0.2128
   78SLPC   C26 7128   4.408   5.772   6.007  0.2429 -0.3197  0.3970
   78SLPC   H6R 7129   4.457   5.824   5.922  1.8825  1.2453  2.2013
   78SLPC   H6S 7130   4.306   5.747   5.971  0.2443  1.9469 -1.4302
   78SLPC   C27 7131   4.479   5.634   6.016 -0.2030  0.0092 -0.0239
   78SLPC   H7R 7132   4.412   5.565   6.071 -1.7649  1.3050 -0.2474
   78SLPC   H7S 7133   4.569   5.650   6.080  1.3114  1.0549 -2.2674
   78SLPC   C28 7134   4.539   5.585   5.889  0.6973 -0.1048  0.4533
   78SLPC   H8R 7135   4.615   5.652   5.845  0.2069 -0.6764 -1.3862
   78SLPC   H8S 7136   4.460   5.579   5.811  0.5243 -1.8624  0.7044
   78SLPC   C29 7137   4.595   5.446   5.910  1.7177  0.7822 -0.0843
   78SLPC   H9R 7138   4.666   5.444   5.994 -0.3415 -0.2854  1.7494
   78SLPC  C210 7139   4.556   5.332   5.853  0.6830 -0.3004  0.6362
   78SLPC  H10R 7140   4.604   5.236   5.876  1.4283 -0.0618  0.1362
   78SLPC  C211 7141   4.454   5.321   5.739 -0.2863 -1.2870 -0.3041
   78SLPC  H11R 7142   4.510   5.309   5.644  1.5980  0.0724  0.5762
   78SLPC  H11S 7143   4.385   5.408   5.728 -1.3566 -2.1978 -0.9675
   78SLPC  C212 7144   4.374   5.199   5.751 -1.0345  0.1416  0.4787
   78SLPC  H12R 7145   4.392   5.142   5.843  0.2989  0.3868  0.3880
   78SLPC  C213 7146   4.285   5.165   5.662 -0.6397 -0.3749  0.0806
   78SLPC  H13R 7147   4.211   5.087   5.686 -0.0973 -0.7654  0.5261
   78SLPC  C214 7148   4.245   5.242   5.540  0.3181  0.0566 -0.0456
   78SLPC  H14R 7149   4.288   5.345   5.542  2.0818 -0.6409 -0.2972
   78SLPC  H14S 7150   4.135   5.248   5.527  0.3177 -1.0271 -0.6213
   78SLPC  C215 7151   4.314   5.184   5.412  0.3364 -0.0530  0.1977
   78SLPC  H15R 7152   4.292   5.076   5.402  0.7924 -0.1658  0.3751
   78SLPC  H15S 7153   4.424   5.196   5.421  0.3612  0.9595 -1.1282
   78SLPC  C216 7154   4.294   5.280   5.284  0.6942 -0.2637 -0.3308
   78SLPC  H16R 7155   4.366   5.255   5.203  0.5621  1.3496 -0.9819
   78SLPC  H16S 7156   4.325   5.385   5.307  1.3758 -0.5755  0.2350
   78SLPC  C217 7157   4.151   5.274   5.228  0.1796  0.2579 -0.4179
   78SLPC  H17R 7158   4.147   5.365   5.165  1.5500 -1.5378 -3.3349
   78SLPC  H17S 7159   4.083   5.283   5.316  2.0250 -0.6191  1.1972
   78SLPC  C218 7160   4.110   5.138   5.155  0.1613  0.6549 -0.3646
   78SLPC  H18R 7161   4.124   5.050   5.221  1.2104  1.1109  0.0406
   78SLPC  H18S 7162   4.169   5.129   5.061  0.9306 -3.0020  0.2756
   78SLPC  H18T 7163   4.001   5.138   5.131  0.2303  0.3301 -0.7042
   78SLPC   C33 7164   5.068   6.429   6.140  0.3538 -0.7111  0.1107
   78SLPC   H3X 7165   5.083   6.326   6.177 -1.6944 -0.4847  1.6974
   78SLPC   H3Y 7166   5.155   6.448   6.073  0.1062 -1.5688 -0.4787
   78SLPC   C34 7167   4.940   6.452   6.076 -0.3995 -0.2862 -0.0643
   78SLPC   H4X 7168   4.943   6.540   6.009 -0.0623 -0.5798 -0.4377
   78SLPC   H4Y 7169   4.863   6.483   6.150  2.3015  0.5223  2.5924
   78SLPC   C35 7170   4.895   6.339   5.980 -0.1517  0.1123 -0.4107
   78SLPC   H5X 7171   4.864   6.256   6.046 -0.0121  0.9842  0.7811
   78SLPC   H5Y 7172   4.987   6.319   5.920  0.0600  1.7133 -0.6677
   78SLPC   C36 7173   4.782   6.371   5.878  0.0989  0.0595 -0.2400
   78SLPC   H6X 7174   4.713   6.445   5.923  0.3628 -0.4995  1.1383
   78SLPC   H6Y 7175   4.721   6.277   5.873 -0.7750  0.4803  1.5938
   78SLPC   C37 7176   4.831   6.412   5.741 -0.2015  0.6903  0.1331
   78SLPC   H7X 7177   4.899   6.337   5.696 -1.9122 -0.1287 -1.1973
   78SLPC   H7Y 7178   4.870   6.514   5.763  0.9001  0.0286  1.3960
   78SLPC   C38 7179   4.705   6.445   5.654  0.7502 -0.3040  0.2448
   78SLPC   H8X 7180   4.637   6.520   5.699 -1.3300 -0.7443 -1.9718
   78SLPC   H8Y 7181   4.656   6.346   5.660  0.9934 -0.3364  3.6347
   78SLPC   C39 7182   4.736   6.473   5.505 -0.4366 -1.2814  0.6104
   78SLPC   H9X 7183   4.839   6.439   5.481 -0.4356 -1.1819  0.4683
   78SLPC   H9Y 7184   4.726   6.583   5.492  1.7135 -0.8473  2.0324
   78SLPC  C310 7185   4.632   6.416   5.409 -0.1669  0.6375 -0.3743
   78SLPC  H10X 7186   4.537   6.450   5.456 -1.6508 -2.0426 -1.2300
   78SLPC  H10Y 7187   4.622   6.306   5.422 -2.2014  0.7172 -0.8605
   78SLPC  C311 7188   4.644   6.473   5.265 -0.3832  0.1745 -0.2692
   78SLPC  H11X 7189   4.627   6.583   5.264 -3.0287 -0.1036  1.7853
   78SLPC  H11Y 7190   4.559   6.437   5.202  1.8693 -2.8274 -1.8573
   78SLPC  C312 7191   4.767   6.428   5.191  0.3085 -0.2790 -0.2619
   78SLPC  H12X 7192   4.803   6.330   5.228  0.1338 -0.8686 -1.5671
   78SLPC  H12Y 7193   4.844   6.505   5.209  0.5851 -1.3155  3.7541
   78SLPC  C313 7194   4.740   6.422   5.041  0.3145  0.0536  0.1120
   78SLPC  H13X 7195   4.663   6.344   5.022 -0.1069  0.8893 -1.8726
   78SLPC  H13Y 7196   4.839   6.406   4.992  0.8573  2.8382  0.1314
   78SLPC  C314 7197   4.676   6.551   4.980 -0.7630  0.1258 -0.3517
   78SLPC  H14X 7198   4.719   6.643   5.025  0.4928 -0.7779  0.3803
   78SLPC  H14Y 7199   4.572   6.566   5.017 -1.4595  1.0253 -2.5005
   78SLPC  C315 7200   4.691   6.552   4.828  0.3741 -0.2220  0.3141
   78SLPC  H15X 7201   4.797   6.581   4.810  0.3970 -0.6108 -0.1753
   78SLPC  H15Y 7202   4.634   6.637   4.786  1.1118  1.1678  1.9969
   78SLPC  C316 7203   4.662   6.422   4.751 -0.4075 -0.9534  0.3986
   78SLPC  H16X 7204   4.556   6.392   4.769 -0.0055 -2.2343  0.7451
   78SLPC  H16Y 7205   4.735   6.344   4.778  2.7763  1.8962  0.7342
   78SLPC  C317 7206   4.665   6.443   4.597  0.3117  0.0603  0.4345
   78SLPC  H17X 7207   4.764   6.492   4.587 -0.5526  1.7603 -0.2364
   78SLPC  H17Y 7208   4.588   6.517   4.566  1.2970  1.2545  0.7566
   78SLPC  C318 7209   4.650   6.315   4.518  0.2592  0.0711  0.1501
   78SLPC  H18X 7210   4.689   6.325   4.414  0.3805 -0.3874  0.1488
   78SLPC  H18Y 7211   4.541   6.293   4.516  0.2824 -0.0355  0.0471
   78SLPC  H18Z 7212   4.699   6.232   4.574  0.3088 -0.0629 -0.0898
   79SLPC     N 7213   2.449   1.481   7.127 -0.4976 -0.2322 -0.1113
   79SLPC   C13 7214   2.414   1.414   7.252  0.0083 -0.3318  0.2973
   79SLPC  H13A 7215   2.496   1.421   7.322  1.7176 -1.0455 -1.5260
   79SLPC  H13B 7216   2.325   1.452   7.300 -0.7182 -1.9908  0.3375
   79SLPC  H13C 7217   2.395   1.309   7.236 -0.1238 -0.3375  0.4919
   79SLPC   C14 7218   2.338   1.439   7.029 -0.0584  0.6543  0.2662
   79SLPC  H14A 7219   2.245   1.493   7.041 -2.5759 -3.2255  0.0410
   79SLPC  H14B 7220   2.369   1.468   6.929  2.3021 -0.3649  0.6308
   79SLPC  H14C 7221   2.314   1.335   7.040 -2.4569  0.9261 -1.5045
   79SLPC   C15 7222   2.578   1.420   7.074 -0.7487  0.2082  0.5632
   79SLPC  H15A 7223   2.545   1.317   7.071  0.0575 -0.0310 -1.0580
   79SLPC  H15B 7224   2.605   1.451   6.975  0.8125 -1.6570  0.3480
   79SLPC  H15C 7225   2.666   1.433   7.135  0.3627  3.0304 -1.4529
   79SLPC   C12 7226   2.452   1.633   7.142 -0.8743 -0.0197  0.1471
   79SLPC  H12A 7227   2.525   1.660   7.216  0.2337  1.5063 -1.4123
   79SLPC  H12B 7228   2.357   1.662   7.186 -1.7426 -3.1335  0.5843
   79SLPC   C11 7229   2.468   1.727   7.017 -0.0077 -0.5441  0.7158
   79SLPC  H11A 7230   2.573   1.738   6.983  0.0631 -2.1421  0.3510
   79SLPC  H11B 7231   2.438   1.829   7.052 -0.2086  0.1592 -1.3701
   79SLPC     P 7232   2.268   1.752   6.838  0.4353  0.0948  0.0807
   79SLPC   O13 7233   2.175   1.643   6.810  0.3272 -0.5662  0.0199
   79SLPC   O14 7234   2.207   1.855   6.927 -0.4329  0.0336 -0.1134
   79SLPC   O12 7235   2.394   1.686   6.900 -0.0058  0.4557  0.1835
   79SLPC   O11 7236   2.326   1.816   6.705  0.4753  0.1968  0.2273
   79SLPC    C1 7237   2.458   1.869   6.703 -0.2285 -0.8830  0.6680
   79SLPC    HA 7238   2.539   1.811   6.751  2.5492  1.0382 -1.3364
   79SLPC    HB 7239   2.489   1.870   6.596  1.4725  2.9785  1.0082
   79SLPC    C2 7240   2.462   2.015   6.749 -0.5266 -0.2523  0.7646
   79SLPC    HS 7241   2.423   2.008   6.853  0.5316  1.9697  1.3526
   79SLPC   O21 7242   2.371   2.105   6.673  0.1397 -0.3724 -0.2416
   79SLPC   C21 7243   2.315   2.208   6.724  0.0151 -0.2259  0.2166
   79SLPC   O22 7244   2.323   2.242   6.845  0.0647  0.2006  0.7817
   79SLPC   C22 7245   2.236   2.291   6.627  0.5068  0.1642  0.8039
   79SLPC   H2R 7246   2.135   2.323   6.661  1.0593  1.9071  0.8995
   79SLPC   H2S 7247   2.288   2.385   6.602  3.4093 -1.9521 -1.8408
   79SLPC    C3 7248   2.604   2.077   6.762 -0.6420 -0.1964 -0.6005
   79SLPC    HX 7249   2.663   2.008   6.825  0.5236 -0.4525 -1.9267
   79SLPC    HY 7250   2.590   2.166   6.828  1.7982  0.2110 -0.5463
   79SLPC   O31 7251   2.665   2.119   6.638 -0.2342  0.3757  0.2791
   79SLPC   C31 7252   2.749   2.021   6.591  0.1266 -0.7579  0.6346
   79SLPC   O32 7253   2.762   1.912   6.635 -0.5941  0.2538  0.3539
   79SLPC   C32 7254   2.800   2.060   6.451  0.0984  0.3915  0.0781
   79SLPC   H2X 7255   2.709   2.109   6.412  0.4781  0.3732 -0.8668
   79SLPC   H2Y 7256   2.815   1.971   6.387 -0.5689 -0.2267  0.7641
   79SLPC   C23 7257   2.207   2.224   6.493 -0.1652 -0.0165 -0.5944
   79SLPC   H3R 7258   2.149   2.131   6.509 -2.7849  1.8220  1.5177
   79SLPC   H3S 7259   2.304   2.201   6.443  1.2529  1.7122  1.1897
   79SLPC   C24 7260   2.121   2.316   6.409 -0.0774 -0.0430  0.6299
   79SLPC   H4R 7261   2.180   2.402   6.372  2.2560 -1.7851  0.0868
   79SLPC   H4S 7262   2.030   2.355   6.459 -0.7712 -1.0444  0.1965
   79SLPC   C25 7263   2.075   2.244   6.276  0.3534 -0.1579  0.1490
   79SLPC   H5R 7264   2.008   2.317   6.225  0.4487  1.6404  2.4241
   79SLPC   H5S 7265   2.007   2.160   6.302 -0.0867  0.5461  1.3666
   79SLPC   C26 7266   2.187   2.189   6.198 -0.0935 -0.2558  0.4405
   79SLPC   H6R 7267   2.143   2.120   6.122 -1.9200  2.7641 -1.4696
   79SLPC   H6S 7268   2.246   2.121   6.262  3.1819  2.8135  1.0508
   79SLPC   C27 7269   2.289   2.288   6.134  0.2878  0.4022  0.3316
   79SLPC   H7R 7270   2.330   2.328   6.229  1.8410 -1.2854  0.4326
   79SLPC   H7S 7271   2.233   2.364   6.076  3.5173  2.8433  0.1252
   79SLPC   C28 7272   2.405   2.224   6.049 -0.2255  0.7359 -0.1504
   79SLPC   H8R 7273   2.435   2.307   5.981  0.8725 -1.1401 -2.0739
   79SLPC   H8S 7274   2.367   2.146   5.980  2.4690 -0.7826 -0.0220
   79SLPC   C29 7275   2.510   2.175   6.146  0.2319 -0.2105  0.5746
   79SLPC   H9R 7276   2.485   2.182   6.253  1.0640  0.4382  0.7383
   79SLPC  C210 7277   2.633   2.125   6.106 -1.0417 -0.1465  0.3045
   79SLPC  H10R 7278   2.693   2.093   6.192 -0.8918 -0.5080  0.0660
   79SLPC  C211 7279   2.694   2.102   5.966 -0.1198  0.0972 -0.4168
   79SLPC  H11R 7280   2.616   2.130   5.892 -0.5741  1.2750  0.4757
   79SLPC  H11S 7281   2.716   1.994   5.950 -3.9347 -0.9907  0.6055
   79SLPC  C212 7282   2.819   2.186   5.979  0.0712 -0.5591 -0.2548
   79SLPC  H12R 7283   2.807   2.286   6.025 -0.1854 -1.4186  1.6372
   79SLPC  C213 7284   2.931   2.161   5.908 -0.7206 -0.3478 -1.2337
   79SLPC  H13R 7285   3.009   2.236   5.889 -1.6219  1.0267  0.2568
   79SLPC  C214 7286   2.955   2.023   5.839  0.3197  0.2998 -0.4422
   79SLPC  H14R 7287   2.908   1.942   5.899  1.6248 -0.1250  0.0260
   79SLPC  H14S 7288   3.062   2.000   5.823 -0.2370 -2.1602 -1.0419
   79SLPC  C215 7289   2.900   2.005   5.695  0.6616 -0.3718  0.4579
   79SLPC  H15R 7290   2.790   2.022   5.697  0.3335 -2.2782  0.4536
   79SLPC  H15S 7291   2.917   1.898   5.669  0.6961 -0.7759  2.0399
   79SLPC  C216 7292   2.954   2.105   5.592  0.3376 -0.0237 -0.6165
   79SLPC  H16R 7293   2.926   2.206   5.628  1.9683  1.0349 -2.1652
   79SLPC  H16S 7294   2.893   2.087   5.501  1.4928 -0.7205 -1.2834
   79SLPC  C217 7295   3.101   2.081   5.563 -0.2114  0.5823  0.8767
   79SLPC  H17R 7296   3.110   1.985   5.508 -0.1768  1.3152 -0.4451
   79SLPC  H17S 7297   3.146   2.082   5.665 -0.2693  3.4864  0.9401
   79SLPC  C218 7298   3.150   2.185   5.464 -0.7173  0.2352  0.4291
   79SLPC  H18R 7299   3.260   2.196   5.451 -0.5605 -0.3410  1.1602
   79SLPC  H18S 7300   3.124   2.283   5.508  0.5647  0.6819  0.2486
   79SLPC  H18T 7301   3.091   2.177   5.371 -0.6857  1.8054  0.2449
   79SLPC   C33 7302   2.918   2.164   6.458 -0.1538  0.3495 -0.0810
   79SLPC   H3X 7303   3.003   2.120   6.514 -0.3794 -0.6663 -0.5017
   79SLPC   H3Y 7304   2.869   2.245   6.516 -0.4245  2.1058 -2.6114
   79SLPC   C34 7305   2.963   2.218   6.328 -0.1317  0.5633 -0.1259
   79SLPC   H4X 7306   2.872   2.234   6.267 -0.4357  0.7140  0.3663
   79SLPC   H4Y 7307   3.022   2.144   6.270 -2.1821 -0.4079 -1.0715
   79SLPC   C35 7308   3.041   2.350   6.338 -0.5727 -0.3400 -0.3807
   79SLPC   H5X 7309   3.143   2.316   6.367 -0.6820 -0.9838 -0.7294
   79SLPC   H5Y 7310   3.002   2.411   6.423  1.6929  0.1640  0.3797
   79SLPC   C36 7311   3.047   2.441   6.213 -0.3396 -0.0044 -0.0610
   79SLPC   H6X 7312   3.080   2.535   6.263 -0.8156  0.5353 -0.7557
   79SLPC   H6Y 7313   2.944   2.454   6.174 -0.2497  0.1289 -0.2553
   79SLPC   C37 7314   3.150   2.397   6.105  0.2189  0.5319 -0.2694
   79SLPC   H7X 7315   3.126   2.294   6.071  1.9212  0.0517 -0.1113
   79SLPC   H7Y 7316   3.256   2.405   6.139  0.2540 -1.3892  0.1947
   79SLPC   C38 7317   3.134   2.488   5.986 -0.3772 -0.7183 -0.6676
   79SLPC   H8X 7318   3.123   2.595   6.011  0.9699 -0.2637 -1.8849
   79SLPC   H8Y 7319   3.046   2.462   5.924  0.0171  0.0452 -1.5690
   79SLPC   C39 7320   3.254   2.486   5.905 -0.7841 -0.0140  0.2788
   79SLPC   H9X 7321   3.348   2.494   5.963 -0.2700 -0.3348 -0.4860
   79SLPC   H9Y 7322   3.268   2.574   5.838 -1.7150  0.2311  0.3880
   79SLPC  C310 7323   3.273   2.359   5.815 -1.3527  0.1526 -0.3829
   79SLPC  H10X 7324   3.187   2.331   5.750  0.0227 -3.7158 -0.8244
   79SLPC  H10Y 7325   3.288   2.282   5.893 -3.0508 -0.2923 -0.4640
   79SLPC  C311 7326   3.404   2.365   5.731  0.1734  0.7404  0.4129
   79SLPC  H11X 7327   3.438   2.268   5.690  1.2127  2.0541 -2.0985
   79SLPC  H11Y 7328   3.482   2.414   5.794 -0.4817  1.4804  0.6614
   79SLPC  C312 7329   3.384   2.450   5.611  0.6171 -1.1943  0.0371
   79SLPC  H12X 7330   3.343   2.548   5.641 -1.7028 -1.4416 -1.9901
   79SLPC  H12Y 7331   3.297   2.415   5.551 -1.2479 -0.0152  1.9419
   79SLPC  C313 7332   3.511   2.478   5.526  0.1904  0.6434  0.0887
   79SLPC  H13X 7333   3.610   2.478   5.577 -0.4859 -1.0047  1.5119
   79SLPC  H13Y 7334   3.491   2.583   5.496  0.5375  0.7640  0.2696
   79SLPC  C314 7335   3.519   2.396   5.392  1.0124 -0.7509 -0.7240
   79SLPC  H14X 7336   3.562   2.443   5.301  0.8484 -1.0718 -0.9671
   79SLPC  H14Y 7337   3.411   2.385   5.369  1.1667  0.2983 -2.1103
   79SLPC  C315 7338   3.566   2.252   5.415 -0.4431 -0.6152 -0.3653
   79SLPC  H15X 7339   3.489   2.221   5.488 -1.3052  1.5874 -0.2648
   79SLPC  H15Y 7340   3.669   2.262   5.453  0.2068 -0.7553 -2.0015
   79SLPC  C316 7341   3.570   2.161   5.289  0.9437 -0.3210  0.9183
   79SLPC  H16X 7342   3.627   2.068   5.312  0.0922 -0.8600  0.9203
   79SLPC  H16Y 7343   3.610   2.219   5.203 -2.5036  2.9348  1.2389
   79SLPC  C317 7344   3.425   2.123   5.248  0.1967  0.0760 -0.5495
   79SLPC  H17X 7345   3.362   2.214   5.241  0.2680  0.0942 -0.9908
   79SLPC  H17Y 7346   3.381   2.071   5.336 -2.9304  2.1030 -0.7794
   79SLPC  C318 7347   3.411   2.036   5.124  0.1418 -0.1357  0.8842
   79SLPC  H18X 7348   3.304   2.031   5.093  0.5500  0.2870 -0.6994
   79SLPC  H18Y 7349   3.436   1.929   5.141  0.8592  0.1043  1.3789
   79SLPC  H18Z 7350   3.472   2.075   5.040  0.7997 -0.6775  1.1062
   80SLPC     N 7351   1.456   6.791   8.006  0.0521 -0.3092 -0.3094
   80SLPC   C13 7352   1.577   6.709   8.020 -0.1993  0.0858 -0.2595
   80SLPC  H13A 7353   1.645   6.735   8.099 -0.2411 -1.8184  0.4502
   80SLPC  H13B 7354   1.563   6.603   8.035 -0.8467  0.0498 -1.0127
   80SLPC  H13C 7355   1.630   6.720   7.926  1.4820  1.0515  0.7532
   80SLPC   C14 7356   1.493   6.928   8.043 -0.0852 -0.0517 -0.6518
   80SLPC  H14A 7357   1.524   6.938   8.146 -1.8910  2.1278 -0.2156
   80SLPC  H14B 7358   1.564   6.973   7.976 -1.6597 -0.0629 -2.4104
   80SLPC  H14C 7359   1.403   6.988   8.038 -2.3462 -3.2174 -1.3029
   80SLPC   C15 7360   1.355   6.744   8.112  0.1357  0.8394 -0.4793
   80SLPC  H15A 7361   1.316   6.648   8.085 -2.3553  1.3958  0.8870
   80SLPC  H15B 7362   1.400   6.723   8.208 -2.5093 -0.7838  0.4867
   80SLPC  H15C 7363   1.270   6.810   8.118 -1.2513 -0.6958 -2.1461
   80SLPC   C12 7364   1.390   6.788   7.876 -0.3434 -0.4420  0.2693
   80SLPC  H12A 7365   1.293   6.837   7.877  0.3523  1.3161 -3.4201
   80SLPC  H12B 7366   1.366   6.685   7.854  1.0201 -0.5537 -0.7824
   80SLPC   C11 7367   1.459   6.842   7.751 -0.0427  0.8988 -0.5855
   80SLPC  H11A 7368   1.491   6.948   7.761  1.2794  0.4741 -0.0267
   80SLPC  H11B 7369   1.383   6.838   7.670  1.6108 -1.2643 -2.1491
   80SLPC     P 7370   1.551   6.657   7.593 -0.2892  0.1670 -0.5902
   80SLPC   O13 7371   1.683   6.594   7.579  0.2368 -0.5967  0.0027
   80SLPC   O14 7372   1.426   6.574   7.603 -0.1163 -0.3736 -0.0734
   80SLPC   O12 7373   1.572   6.756   7.714 -0.5746  0.1785  0.1985
   80SLPC   O11 7374   1.521   6.742   7.467 -0.2068 -0.0742 -0.2141
   80SLPC    C1 7375   1.558   6.879   7.457  0.0011 -0.2958  0.3541
   80SLPC    HA 7376   1.465   6.940   7.462 -0.8246 -1.5994  1.4608
   80SLPC    HB 7377   1.640   6.910   7.525  0.4879 -1.7973  0.4849
   80SLPC    C2 7378   1.627   6.898   7.318 -0.6200 -0.3313 -0.2282
   80SLPC    HS 7379   1.686   6.991   7.303 -2.1367  0.5935 -0.7692
   80SLPC   O21 7380   1.535   6.871   7.209  0.2844 -0.1994 -1.0010
   80SLPC   C21 7381   1.450   6.971   7.193  0.1474 -0.3234 -0.1713
   80SLPC   O22 7382   1.450   7.079   7.251 -0.5034  0.1940 -1.1533
   80SLPC   C22 7383   1.355   6.927   7.082  0.5571  0.3290 -0.3747
   80SLPC   H2R 7384   1.391   6.837   7.028  0.1219  1.3537 -2.4599
   80SLPC   H2S 7385   1.264   6.902   7.141 -0.2810  2.2463 -0.7875
   80SLPC    C3 7386   1.744   6.794   7.305 -0.5817 -0.1228  1.6089
   80SLPC    HX 7387   1.704   6.692   7.324  1.2366 -1.3921 -0.7776
   80SLPC    HY 7388   1.820   6.825   7.381  2.7223 -1.9745 -0.6748
   80SLPC   O31 7389   1.799   6.802   7.169 -0.8237  0.4053 -0.0291
   80SLPC   C31 7390   1.751   6.713   7.086 -0.4917  0.0801 -0.8549
   80SLPC   O32 7391   1.661   6.642   7.111 -0.4491  0.2381 -0.3468
   80SLPC   C32 7392   1.843   6.705   6.960 -0.1593  0.2189 -0.8536
   80SLPC   H2X 7393   1.858   6.596   6.947  0.1923  0.1727 -0.0820
   80SLPC   H2Y 7394   1.943   6.744   6.987 -0.1587 -0.5467  0.3231
   80SLPC   C23 7395   1.330   7.044   6.976  0.1620  0.4720  0.4954
   80SLPC   H3R 7396   1.427   7.053   6.922 -0.7933 -0.8985 -1.6260
   80SLPC   H3S 7397   1.307   7.136   7.033 -0.6268  0.1901  0.6464
   80SLPC   C24 7398   1.207   7.019   6.889  0.2661 -0.2050 -0.0165
   80SLPC   H4R 7399   1.108   7.028   6.939 -0.2829 -2.0822 -0.6910
   80SLPC   H4S 7400   1.213   6.914   6.855  1.4116  0.0958 -0.7886
   80SLPC   C25 7401   1.214   7.096   6.756  0.2202 -0.1657  0.2285
   80SLPC   H5R 7402   1.315   7.091   6.709 -0.2262  1.9417 -1.0909
   80SLPC   H5S 7403   1.199   7.203   6.783 -0.8412 -0.4859  0.9811
   80SLPC   C26 7404   1.103   7.067   6.652  0.5262  0.0854  0.1508
   80SLPC   H6R 7405   1.007   7.067   6.708 -0.2002 -1.0871 -1.0372
   80SLPC   H6S 7406   1.115   6.961   6.622 -1.9487 -0.0650 -0.5880
   80SLPC   C27 7407   1.111   7.167   6.538  0.1608  0.4115 -0.8675
   80SLPC   H7R 7408   1.218   7.164   6.510  0.6776  0.1104  1.0099
   80SLPC   H7S 7409   1.093   7.270   6.576  0.5464  1.1201 -2.5039
   80SLPC   C28 7410   1.000   7.142   6.427 -0.4936  1.1515 -0.4212
   80SLPC   H8R 7411   0.996   7.031   6.418 -0.8917  1.0952  0.3583
   80SLPC   H8S 7412   1.044   7.186   6.335  0.0885 -0.9859 -1.2397
   80SLPC   C29 7413   0.864   7.194   6.462 -0.3867  0.6268 -0.6019
   80SLPC   H9R 7414   0.841   7.152   6.561 -0.9499 -1.6943 -1.6476
   80SLPC  C210 7415   0.773   7.258   6.393  0.4882 -0.2667  0.3489
   80SLPC  H10R 7416   0.681   7.292   6.443  0.8390  1.5678 -0.1726
   80SLPC  C211 7417   0.792   7.302   6.251  0.2328  0.1455 -0.0642
   80SLPC  H11R 7418   0.728   7.240   6.185  2.1655 -1.7837 -0.2453
   80SLPC  H11S 7419   0.899   7.283   6.225 -0.1351 -1.1759 -0.6811
   80SLPC  C212 7420   0.750   7.451   6.234 -1.0973 -0.0611  0.2575
   80SLPC  H12R 7421   0.694   7.499   6.316 -0.4110  0.6184  0.3320
   80SLPC  C213 7422   0.800   7.524   6.135  0.3450  0.1905  0.1557
   80SLPC  H13R 7423   0.765   7.628   6.128 -0.7953 -0.2022 -0.3821
   80SLPC  C214 7424   0.893   7.473   6.027  0.3508 -0.0348  0.5212
   80SLPC  H14R 7425   0.961   7.389   6.054  1.1307  0.7029  0.9097
   80SLPC  H14S 7426   0.960   7.554   5.992 -0.3865  0.3003 -0.1314
   80SLPC  C215 7427   0.825   7.421   5.901 -0.6102 -0.0601 -0.1404
   80SLPC  H15R 7428   0.753   7.497   5.864 -0.0396  0.5721  0.0385
   80SLPC  H15S 7429   0.756   7.337   5.923 -1.3353  0.9485  1.5768
   80SLPC  C216 7430   0.932   7.376   5.785  1.2863  0.2107  0.4302
   80SLPC  H16R 7431   0.987   7.291   5.831 -1.3111 -0.8173  1.8529
   80SLPC  H16S 7432   0.990   7.467   5.761  1.8702 -0.7523 -2.1603
   80SLPC  C217 7433   0.869   7.328   5.659 -1.0194 -0.6817  0.4532
   80SLPC  H17R 7434   0.815   7.409   5.606  1.0396 -1.2287 -2.7645
   80SLPC  H17S 7435   0.810   7.238   5.687  0.6831 -1.1078  2.9528
   80SLPC  C218 7436   0.975   7.290   5.551 -0.3418  0.0435  0.3178
   80SLPC  H18R 7437   1.037   7.201   5.576 -1.0002 -0.4685  0.1288
   80SLPC  H18S 7438   1.038   7.382   5.546 -1.5948  0.8535 -1.4185
   80SLPC  H18T 7439   0.936   7.271   5.449  1.4812 -3.7718  0.1447
   80SLPC   C33 7440   1.783   6.760   6.825 -1.2751  0.1111  0.3394
   80SLPC   H3X 7441   1.848   6.734   6.739 -2.0829  1.0483 -0.5829
   80SLPC   H3Y 7442   1.782   6.871   6.833 -1.1305  0.3143 -1.9390
   80SLPC   C34 7443   1.635   6.721   6.799 -0.4018  0.4053  0.5615
   80SLPC   H4X 7444   1.576   6.744   6.890 -0.6273  0.3164  0.4376
   80SLPC   H4Y 7445   1.630   6.611   6.785  4.2250  0.2297 -1.7107
   80SLPC   C35 7446   1.574   6.783   6.672  0.1922  0.0346  0.2858
   80SLPC   H5X 7447   1.639   6.766   6.583 -0.5212 -3.6290  0.3004
   80SLPC   H5Y 7448   1.576   6.892   6.691  0.1918  0.3171 -1.2127
   80SLPC   C36 7449   1.434   6.733   6.643 -0.7074 -0.4030  0.2492
   80SLPC   H6X 7450   1.381   6.767   6.734  0.1457  2.6618 -0.2934
   80SLPC   H6Y 7451   1.427   6.623   6.628 -1.0504 -0.2741 -0.5799
   80SLPC   C37 7452   1.392   6.805   6.523  0.1912 -0.4094  0.7473
   80SLPC   H7X 7453   1.470   6.780   6.449 -0.8554  2.3470 -1.4614
   80SLPC   H7Y 7454   1.376   6.915   6.530 -2.8462 -0.7200 -0.1073
   80SLPC   C38 7455   1.251   6.757   6.479 -0.1232  0.8915 -0.5152
   80SLPC   H8X 7456   1.182   6.792   6.559  0.4354  1.5149 -0.2974
   80SLPC   H8Y 7457   1.248   6.647   6.469 -0.2342  1.0189 -2.0304
   80SLPC   C39 7458   1.207   6.824   6.354  0.2667  0.0932  0.2395
   80SLPC   H9X 7459   1.217   6.933   6.374  0.9139 -0.1068  1.0996
   80SLPC   H9Y 7460   1.102   6.802   6.328  0.1401 -1.2359  1.7479
   80SLPC  C310 7461   1.291   6.792   6.225  0.4132  0.1425 -0.9765
   80SLPC  H10X 7462   1.308   6.683   6.214  1.1067 -0.0236  1.2771
   80SLPC  H10Y 7463   1.384   6.852   6.230 -0.3321  1.3290  2.9219
   80SLPC  C311 7464   1.214   6.844   6.102 -0.4725  0.3845  0.0233
   80SLPC  H11X 7465   1.194   6.954   6.098  0.0202  0.4347 -1.8397
   80SLPC  H11Y 7466   1.115   6.795   6.095 -0.7647  0.9144  0.3185
   80SLPC  C312 7467   1.295   6.789   5.981 -0.0486 -0.2855  0.2724
   80SLPC  H12X 7468   1.319   6.681   5.979  0.2169 -0.2268 -1.6741
   80SLPC  H12Y 7469   1.386   6.851   5.992  0.3107 -1.0167  1.6342
   80SLPC  C313 7470   1.229   6.832   5.850 -0.5067  0.8169  0.5734
   80SLPC  H13X 7471   1.232   6.943   5.849  0.4536  0.8173 -1.1353
   80SLPC  H13Y 7472   1.123   6.798   5.854 -0.7700  1.5317 -0.1018
   80SLPC  C314 7473   1.290   6.759   5.722 -0.2938 -0.2692 -0.1389
   80SLPC  H14X 7474   1.279   6.652   5.749  1.3245 -0.3747  0.2282
   80SLPC  H14Y 7475   1.396   6.792   5.713  0.1318 -0.8004  2.1907
   80SLPC  C315 7476   1.228   6.772   5.584 -0.3977  0.7279  0.6748
   80SLPC  H15X 7477   1.175   6.868   5.564 -0.6393  0.6952  1.1466
   80SLPC  H15Y 7478   1.146   6.697   5.575 -1.2417  1.3657  2.6140
   80SLPC  C316 7479   1.333   6.757   5.467  0.5709  0.5264 -1.0186
   80SLPC  H16X 7480   1.426   6.804   5.506 -0.7350  1.2104  1.5473
   80SLPC  H16Y 7481   1.299   6.808   5.374  1.9554 -0.1580 -1.9331
   80SLPC  C317 7482   1.370   6.610   5.432  0.5484  0.0761 -0.3552
   80SLPC  H17X 7483   1.280   6.549   5.411  0.2430  1.6003 -4.2159
   80SLPC  H17Y 7484   1.420   6.566   5.522  0.6315  0.2088 -0.3359
   80SLPC  C318 7485   1.442   6.590   5.301  0.2138 -0.5039 -0.2254
   80SLPC  H18X 7486   1.534   6.651   5.293 -1.1090  1.6005 -0.1335
   80SLPC  H18Y 7487   1.367   6.616   5.223  0.7358  0.3922 -0.4430
   80SLPC  H18Z 7488   1.461   6.482   5.287 -0.0254 -0.7052  0.9095
   81SLPC     N 7489   0.432   3.366   1.978 -0.7901 -0.0839  0.0751
   81SLPC   C13 7490   0.307   3.373   1.893 -0.3551 -0.3378  0.1056
   81SLPC  H13A 7491   0.251   3.284   1.918 -1.2582  0.4954  1.1671
   81SLPC  H13B 7492   0.244   3.456   1.921  2.0016  1.5662  0.0577
   81SLPC  H13C 7493   0.333   3.370   1.789  0.6013  0.1368  0.3241
   81SLPC   C14 7494   0.477   3.225   1.964  0.4113 -0.3350  0.0194
   81SLPC  H14A 7495   0.582   3.226   1.991  0.2057  0.3175  0.8641
   81SLPC  H14B 7496   0.419   3.164   2.032  0.4972 -0.8459 -0.3652
   81SLPC  H14C 7497   0.460   3.178   1.869 -0.0891  0.8638 -0.4967
   81SLPC   C15 7498   0.402   3.387   2.119 -0.2577 -0.3643 -0.2098
   81SLPC  H15A 7499   0.489   3.403   2.182  0.4502 -0.5243 -1.1261
   81SLPC  H15B 7500   0.342   3.476   2.130 -1.7364 -1.1083 -1.8363
   81SLPC  H15C 7501   0.351   3.305   2.168  0.6438 -0.7658  0.0807
   81SLPC   C12 7502   0.539   3.460   1.925  0.9043  0.8188  0.9953
   81SLPC  H12A 7503   0.504   3.562   1.926  2.1511  1.2812  0.2012
   81SLPC  H12B 7504   0.545   3.440   1.819 -3.5251 -2.2196  1.0238
   81SLPC   C11 7505   0.685   3.458   1.985 -0.1512 -0.1122  0.6429
   81SLPC  H11A 7506   0.751   3.533   1.938  0.2380  0.7568  2.4657
   81SLPC  H11B 7507   0.716   3.356   1.953 -1.9197 -0.0266 -1.5565
   81SLPC     P 7508   0.684   3.582   2.222 -0.0214  0.3887 -0.0377
   81SLPC   O13 7509   0.720   3.701   2.146 -0.3674  0.3758  0.5447
   81SLPC   O14 7510   0.554   3.585   2.290 -0.5309  0.2502  0.1192
   81SLPC   O12 7511   0.699   3.458   2.127  0.0939 -0.4143  0.0771
   81SLPC   O11 7512   0.796   3.558   2.333  0.7411  0.2705  0.7603
   81SLPC    C1 7513   0.925   3.520   2.313 -0.1851  0.4164 -0.0633
   81SLPC    HA 7514   0.949   3.492   2.208 -0.1008 -0.2879  0.1358
   81SLPC    HB 7515   0.994   3.603   2.336 -0.3506  0.5685 -0.1167
   81SLPC    C2 7516   0.955   3.396   2.399  0.2271  0.0737  0.3564
   81SLPC    HS 7517   0.879   3.318   2.378  1.7010 -1.1660 -0.6814
   81SLPC   O21 7518   0.959   3.440   2.538 -0.2653  0.2138 -0.2299
   81SLPC   C21 7519   0.846   3.439   2.604  0.3534  1.1066 -0.2635
   81SLPC   O22 7520   0.743   3.386   2.567  0.0453  0.4929 -0.3684
   81SLPC   C22 7521   0.879   3.503   2.750  0.0574 -0.2889 -0.0655
   81SLPC   H2R 7522   0.988   3.483   2.760  0.4472  1.4476 -0.5429
   81SLPC   H2S 7523   0.863   3.613   2.742  2.9608  0.4081  2.1060
   81SLPC    C3 7524   1.099   3.349   2.375 -0.0192  0.1561 -0.4183
   81SLPC    HX 7525   1.164   3.438   2.389  2.3556 -1.7309  1.2842
   81SLPC    HY 7526   1.107   3.317   2.269 -0.0508  1.2082 -0.7570
   81SLPC   O31 7527   1.136   3.238   2.458  0.3001 -0.2820  0.7408
   81SLPC   C31 7528   1.266   3.238   2.496 -0.4214 -0.1129  0.0090
   81SLPC   O32 7529   1.349   3.322   2.456  0.0940 -0.1279 -0.4140
   81SLPC   C32 7530   1.298   3.105   2.562 -0.1598 -0.1606  0.7240
   81SLPC   H2X 7531   1.408   3.091   2.570 -0.3950 -1.7569  1.4219
   81SLPC   H2Y 7532   1.260   3.025   2.495  0.7944 -0.4110  0.4695
   81SLPC   C23 7533   0.788   3.459   2.866 -0.5479  0.2605  0.4109
   81SLPC   H3R 7534   0.798   3.349   2.879  0.2083  0.5487  2.5836
   81SLPC   H3S 7535   0.679   3.472   2.850 -0.4277  0.7289 -0.0490
   81SLPC   C24 7536   0.834   3.523   2.997 -0.6340  0.7016  0.2739
   81SLPC   H4R 7537   0.818   3.633   2.988 -1.5013  0.5171 -0.5885
   81SLPC   H4S 7538   0.942   3.499   3.005 -0.9659 -0.7637  0.6991
   81SLPC   C25 7539   0.760   3.477   3.121  0.2061  0.2140  0.0443
   81SLPC   H5R 7540   0.775   3.367   3.125 -0.0653  0.1883  0.4149
   81SLPC   H5S 7541   0.652   3.497   3.105  0.0291  0.9978  1.9363
   81SLPC   C26 7542   0.823   3.532   3.255  0.5604 -0.2484  0.6238
   81SLPC   H6R 7543   0.838   3.642   3.247 -0.6637  0.0089  1.5016
   81SLPC   H6S 7544   0.909   3.481   3.304  0.2525  0.5720  2.0877
   81SLPC   C27 7545   0.718   3.509   3.370 -0.2543 -0.3411 -0.5923
   81SLPC   H7R 7546   0.694   3.402   3.382 -0.5081 -0.1314  0.8671
   81SLPC   H7S 7547   0.629   3.563   3.328  0.8500  0.2328 -2.3097
   81SLPC   C28 7548   0.758   3.571   3.506  0.3254  0.0055 -0.4732
   81SLPC   H8R 7549   0.759   3.681   3.494 -0.0879  0.1260  0.5333
   81SLPC   H8S 7550   0.854   3.518   3.525  0.2623 -1.0124 -2.6157
   81SLPC   C29 7551   0.651   3.554   3.619 -0.1111  0.2975 -0.1274
   81SLPC   H9R 7552   0.576   3.477   3.597 -1.7907  1.2821  1.8726
   81SLPC  C210 7553   0.643   3.620   3.737  0.1509 -0.1850 -0.1800
   81SLPC  H10R 7554   0.582   3.590   3.824  1.9843  0.6300  1.4783
   81SLPC  C211 7555   0.732   3.739   3.776 -0.5156  1.5888 -1.2101
   81SLPC  H11R 7556   0.678   3.836   3.769  0.5316  2.2266 -0.6504
   81SLPC  H11S 7557   0.820   3.744   3.708 -0.9706  2.9120 -1.7225
   81SLPC  C212 7558   0.790   3.720   3.913  0.3741  0.1063  0.2761
   81SLPC  H12R 7559   0.887   3.668   3.905  1.7079  2.5793 -0.4475
   81SLPC  C213 7560   0.742   3.752   4.036 -0.4365  0.0056 -0.0481
   81SLPC  H13R 7561   0.802   3.735   4.126  0.9910  0.0400 -0.9702
   81SLPC  C214 7562   0.618   3.835   4.058 -0.2420 -0.2830  0.5010
   81SLPC  H14R 7563   0.628   3.930   4.002  1.0741 -0.6854  0.0143
   81SLPC  H14S 7564   0.609   3.860   4.166 -0.0844  1.3178  0.1585
   81SLPC  C215 7565   0.481   3.775   4.027 -0.1761  0.1648  0.4553
   81SLPC  H15R 7566   0.458   3.761   3.919 -2.7671  0.7467  0.8563
   81SLPC  H15S 7567   0.407   3.846   4.069 -1.6681 -0.6404 -0.6761
   81SLPC  C216 7568   0.447   3.637   4.082  0.1300 -0.7035 -0.5415
   81SLPC  H16R 7569   0.447   3.647   4.192 -0.6260  1.3373 -0.6785
   81SLPC  H16S 7570   0.518   3.562   4.042  1.4871  1.4710 -2.4934
   81SLPC  C217 7571   0.307   3.605   4.026  0.1826  0.3267  0.4925
   81SLPC  H17R 7572   0.303   3.616   3.915 -0.1952 -2.7105  0.1120
   81SLPC  H17S 7573   0.236   3.673   4.078 -0.2803  1.0719 -1.0350
   81SLPC  C218 7574   0.274   3.459   4.056  0.2467 -1.0648  0.2465
   81SLPC  H18R 7575   0.358   3.391   4.028  1.7533  0.4637  0.9117
   81SLPC  H18S 7576   0.178   3.426   4.011 -0.8189 -0.1744  1.7808
   81SLPC  H18T 7577   0.256   3.450   4.165 -1.0877 -2.8370 -0.0759
   81SLPC   C33 7578   1.248   3.103   2.705 -0.3578  0.1433  0.0601
   81SLPC   H3X 7579   1.308   3.176   2.763 -1.0528  0.0340  0.9312
   81SLPC   H3Y 7580   1.277   3.004   2.747 -0.5621  0.4381  0.9026
   81SLPC   C34 7581   1.094   3.097   2.738  0.3132  0.0954  0.5477
   81SLPC   H4X 7582   1.054   3.034   2.656  1.7213 -0.3779  0.1838
   81SLPC   H4Y 7583   1.064   3.200   2.708 -1.2322  0.5231  3.2223
   81SLPC   C35 7584   1.041   3.064   2.875  0.2945 -0.3553  0.2923
   81SLPC   H5X 7585   1.056   2.956   2.896  1.1473 -0.1823  0.6178
   81SLPC   H5Y 7586   0.932   3.084   2.868  0.7017  2.9267  1.4960
   81SLPC   C36 7587   1.102   3.151   2.987 -0.5302 -0.4393  0.4954
   81SLPC   H6X 7588   1.113   3.260   2.967 -0.7839 -0.7159 -1.3041
   81SLPC   H6Y 7589   1.192   3.097   3.025 -0.7669  0.2214  2.0737
   81SLPC   C37 7590   1.008   3.147   3.115 -0.2550  0.5936  0.5028
   81SLPC   H7X 7591   0.997   3.038   3.132  1.3207  0.4450  0.6811
   81SLPC   H7Y 7592   0.910   3.185   3.080 -1.0519 -0.9197  1.0092
   81SLPC   C38 7593   1.061   3.206   3.240 -0.9071 -0.6208 -0.8220
   81SLPC   H8X 7594   1.059   3.316   3.222  0.0628 -0.1506  1.6261
   81SLPC   H8Y 7595   1.166   3.178   3.259 -1.2676 -0.5595  1.6000
   81SLPC   C39 7596   0.979   3.159   3.358  0.2194 -0.3090  0.1913
   81SLPC   H9X 7597   0.986   3.048   3.364  0.6807 -0.2377  0.9826
   81SLPC   H9Y 7598   0.872   3.184   3.341 -0.1809 -2.1754 -0.2535
   81SLPC  C310 7599   1.024   3.226   3.492 -0.7769  0.2184  0.1535
   81SLPC  H10X 7600   1.026   3.336   3.476  2.3601  0.1101 -0.8102
   81SLPC  H10Y 7601   1.129   3.195   3.510 -0.2689  1.5138 -0.5038
   81SLPC  C311 7602   0.915   3.206   3.597 -0.3649 -0.0725 -0.0444
   81SLPC  H11X 7603   0.909   3.097   3.619 -0.6295  0.2702  1.6902
   81SLPC  H11Y 7604   0.814   3.227   3.557 -1.1260  0.2223  1.9411
   81SLPC  C312 7605   0.940   3.296   3.721 -0.4247  0.0542  0.1206
   81SLPC  H12X 7606   0.921   3.405   3.710 -0.2205  0.0311 -0.5165
   81SLPC  H12Y 7607   1.042   3.277   3.760 -0.9213  1.8160  2.5364
   81SLPC  C313 7608   0.846   3.258   3.834 -0.0185  0.5203  0.4404
   81SLPC  H13X 7609   0.851   3.151   3.860 -0.0217  0.7106  1.2434
   81SLPC  H13Y 7610   0.741   3.283   3.805 -0.4973 -0.4851  1.2523
   81SLPC  C314 7611   0.862   3.341   3.961  0.7412  0.1444 -0.3152
   81SLPC  H14X 7612   0.848   3.451   3.956 -0.6238 -0.0325 -0.5698
   81SLPC  H14Y 7613   0.966   3.334   4.000  1.1989  2.2850 -1.0276
   81SLPC  C315 7614   0.772   3.300   4.079 -0.3152  0.0527  0.0967
   81SLPC  H15X 7615   0.764   3.189   4.085  1.8177 -0.1371  0.1333
   81SLPC  H15Y 7616   0.672   3.336   4.049  0.6407  1.3955 -1.6680
   81SLPC  C316 7617   0.817   3.357   4.218 -0.0223 -0.1108 -0.0022
   81SLPC  H16X 7618   0.811   3.467   4.204  0.2420  0.1088  1.4857
   81SLPC  H16Y 7619   0.925   3.332   4.227  0.5755  1.7761 -1.2364
   81SLPC  C317 7620   0.738   3.312   4.338  0.0566  0.7122 -0.3077
   81SLPC  H17X 7621   0.780   3.375   4.420  2.0409  0.8903 -1.4061
   81SLPC  H17Y 7622   0.747   3.203   4.360  1.3659  1.1078  1.3942
   81SLPC  C318 7623   0.589   3.344   4.330  0.5553  0.1498 -0.3328
   81SLPC  H18X 7624   0.530   3.298   4.248  0.9503  1.7207 -1.5526
   81SLPC  H18Y 7625   0.582   3.454   4.317 -0.6185 -0.0260 -1.4006
   81SLPC  H18Z 7626   0.543   3.318   4.427  0.5543 -0.1728 -0.4175
   82SLPC     N 7627   3.050   5.585   2.151 -0.5032 -0.3402  0.0242
   82SLPC   C13 7628   2.956   5.518   2.051 -0.0480  0.1815  0.3513
   82SLPC  H13A 7629   2.988   5.417   2.032  1.2368  0.6824 -0.2333
   82SLPC  H13B 7630   2.853   5.507   2.082  0.6088 -0.7861  2.3351
   82SLPC  H13C 7631   2.948   5.571   1.957  1.3944 -0.6554 -0.2833
   82SLPC   C14 7632   3.000   5.723   2.161 -0.8557 -0.0556  0.3609
   82SLPC  H14A 7633   3.009   5.780   2.069  0.1773 -0.7737  0.0081
   82SLPC  H14B 7634   2.902   5.736   2.206 -0.2599 -1.1303  2.0449
   82SLPC  H14C 7635   3.062   5.771   2.235  1.3314 -1.2462 -0.6283
   82SLPC   C15 7636   3.186   5.577   2.093  0.3337  0.6796  0.3438
   82SLPC  H15A 7637   3.218   5.474   2.094 -2.5739 -0.3304  0.5333
   82SLPC  H15B 7638   3.192   5.602   1.988  2.1214 -0.0453  0.2337
   82SLPC  H15C 7639   3.257   5.633   2.151  1.0760  1.7484 -1.5153
   82SLPC   C12 7640   3.044   5.514   2.282 -0.7054 -0.0320 -0.1881
   82SLPC  H12A 7641   3.071   5.411   2.261  0.1277  0.1371  0.0114
   82SLPC  H12B 7642   2.944   5.502   2.319 -0.0501 -1.4361  1.2938
   82SLPC   C11 7643   3.131   5.559   2.405  0.3147 -0.0890 -0.3763
   82SLPC  H11A 7644   3.109   5.479   2.479  2.5871 -1.2451 -0.8592
   82SLPC  H11B 7645   3.086   5.653   2.444  1.1927  0.7001 -1.2172
   82SLPC     P 7646   3.366   5.435   2.372 -0.3074  0.1815  0.1004
   82SLPC   O13 7647   3.304   5.332   2.283  0.1902 -0.2604  0.3543
   82SLPC   O14 7648   3.503   5.486   2.339  0.7024  0.5037  0.0296
   82SLPC   O12 7649   3.272   5.568   2.379 -0.1217  0.0430  0.0867
   82SLPC   O11 7650   3.375   5.386   2.525  0.3736 -0.6516  0.1879
   82SLPC    C1 7651   3.428   5.265   2.559 -0.0501  0.1656 -0.3274
   82SLPC    HA 7652   3.369   5.173   2.535  1.9725 -0.9141 -1.4304
   82SLPC    HB 7653   3.528   5.248   2.513  0.7879  0.3109  1.3703
   82SLPC    C2 7654   3.445   5.257   2.713 -0.0028 -0.1922  0.8962
   82SLPC    HS 7655   3.528   5.184   2.724  0.6536  0.0641 -1.6890
   82SLPC   O21 7656   3.327   5.209   2.776 -0.2052  0.1486 -0.4538
   82SLPC   C21 7657   3.342   5.124   2.875  0.3379  0.6875  0.3202
   82SLPC   O22 7658   3.439   5.059   2.898  0.4091  0.4483  0.1345
   82SLPC   C22 7659   3.214   5.101   2.949  0.0560 -0.5608 -0.1026
   82SLPC   H2R 7660   3.150   5.190   2.967 -0.7577 -1.3896  1.3038
   82SLPC   H2S 7661   3.156   5.025   2.893  0.0390 -0.4750 -0.2018
   82SLPC    C3 7662   3.482   5.391   2.778  0.0280  0.6871  0.3393
   82SLPC    HX 7663   3.388   5.450   2.772 -1.9853 -2.3996 -2.8957
   82SLPC    HY 7664   3.558   5.447   2.719 -1.5879  2.8696  0.1850
   82SLPC   O31 7665   3.517   5.371   2.922  0.5986 -0.5659 -0.3242
   82SLPC   C31 7666   3.642   5.342   2.948 -0.1499  0.5975  0.0154
   82SLPC   O32 7667   3.736   5.334   2.870  0.7164  0.0849  0.0577
   82SLPC   C32 7668   3.644   5.299   3.089  0.2163 -0.5572 -0.1304
   82SLPC   H2X 7669   3.569   5.219   3.107  0.4861 -0.4853  1.4598
   82SLPC   H2Y 7670   3.618   5.391   3.147 -1.1931 -0.2767 -1.1495
   82SLPC   C23 7671   3.237   5.043   3.089 -0.4283 -0.6300 -0.1073
   82SLPC   H3R 7672   3.323   4.974   3.083 -0.5330 -0.9945  1.8591
   82SLPC   H3S 7673   3.146   4.988   3.123 -0.4906  0.3287  1.4161
   82SLPC   C24 7674   3.264   5.158   3.187  0.2464  0.6402 -0.5473
   82SLPC   H4R 7675   3.187   5.239   3.180 -1.5688 -1.1181 -1.8638
   82SLPC   H4S 7676   3.366   5.198   3.166  1.3786 -0.9756  1.5226
   82SLPC   C25 7677   3.261   5.120   3.336  0.1221  0.7415 -0.4122
   82SLPC   H5R 7678   3.340   5.046   3.360 -0.7065  0.1310  0.5032
   82SLPC   H5S 7679   3.164   5.069   3.357  0.5731 -0.9028 -2.0209
   82SLPC   C26 7680   3.289   5.238   3.424  0.0113  0.0125 -0.3549
   82SLPC   H6R 7681   3.215   5.320   3.414 -1.4143 -1.1758  0.0719
   82SLPC   H6S 7682   3.383   5.285   3.388 -0.0856  1.5498  1.2553
   82SLPC   C27 7683   3.292   5.208   3.575  0.5788  0.6001 -0.6202
   82SLPC   H7R 7684   3.342   5.109   3.587  2.0045  1.2172 -1.2443
   82SLPC   H7S 7685   3.192   5.175   3.610  2.0742 -2.7720  0.9536
   82SLPC   C28 7686   3.371   5.316   3.648  0.6344 -0.6764  0.7289
   82SLPC   H8R 7687   3.335   5.308   3.753 -0.3404 -2.4462  0.3011
   82SLPC   H8S 7688   3.330   5.411   3.608 -0.3718 -1.9737 -1.5173
   82SLPC   C29 7689   3.524   5.317   3.633  0.5788  0.6575  0.1832
   82SLPC   H9R 7690   3.556   5.375   3.545 -2.3337 -0.1303 -1.5717
   82SLPC  C210 7691   3.604   5.298   3.737 -0.0479  0.0126  0.0687
   82SLPC  H10R 7692   3.711   5.295   3.712 -0.2997 -1.3105 -0.9980
   82SLPC  C211 7693   3.568   5.250   3.876 -0.2800 -0.0420  0.0580
   82SLPC  H11R 7694   3.474   5.295   3.912 -2.1427 -2.0397 -1.9871
   82SLPC  H11S 7695   3.655   5.270   3.943 -0.9369  0.8036  0.6823
   82SLPC  C212 7696   3.517   5.110   3.859  0.2350  0.4944  0.5417
   82SLPC  H12R 7697   3.454   5.088   3.772  2.3250 -2.3180 -0.4131
   82SLPC  C213 7698   3.540   5.007   3.946  0.4260  0.3177  0.4561
   82SLPC  H13R 7699   3.500   4.910   3.916  1.3031  0.2052 -0.4052
   82SLPC  C214 7700   3.628   5.009   4.066 -0.3660 -0.1831  0.2846
   82SLPC  H14R 7701   3.707   5.084   4.043  0.2178 -0.8909 -0.0527
   82SLPC  H14S 7702   3.694   4.921   4.079  0.1940  0.2662  0.5368
   82SLPC  C215 7703   3.560   5.038   4.197  0.4487  0.0144  0.0084
   82SLPC  H15R 7704   3.501   4.959   4.248 -0.2511  0.5177 -0.0038
   82SLPC  H15S 7705   3.483   5.118   4.185  0.2637 -0.4523 -2.3337
   82SLPC  C216 7706   3.670   5.106   4.294  0.3892  0.2049  0.0475
   82SLPC  H16R 7707   3.615   5.141   4.384 -1.1270 -0.2966 -0.6579
   82SLPC  H16S 7708   3.694   5.198   4.236 -2.7216  1.3335  0.3307
   82SLPC  C217 7709   3.789   5.019   4.327  0.8602 -0.2180  0.4663
   82SLPC  H17R 7710   3.878   5.081   4.351  0.5717  1.4964 -2.4028
   82SLPC  H17S 7711   3.824   4.968   4.235 -0.1799 -0.9966  0.4926
   82SLPC  C218 7712   3.782   4.924   4.449 -0.2180  0.2350  0.4522
   82SLPC  H18R 7713   3.777   4.976   4.548 -3.4812  1.5689 -0.2665
   82SLPC  H18S 7714   3.871   4.858   4.448 -0.5975 -0.2757  0.1243
   82SLPC  H18T 7715   3.687   4.867   4.457  0.9215 -1.9089 -0.7021
   82SLPC   C33 7716   3.784   5.246   3.138 -0.0537 -0.3720 -0.8537
   82SLPC   H3X 7717   3.857   5.329   3.144  1.8341 -1.7492 -2.8790
   82SLPC   H3Y 7718   3.825   5.176   3.062  0.8613  1.9184 -2.5858
   82SLPC   C34 7719   3.788   5.168   3.273 -0.3391  0.5668  0.9294
   82SLPC   H4X 7720   3.714   5.217   3.341 -0.7747 -0.2110  1.0332
   82SLPC   H4Y 7721   3.893   5.174   3.306 -0.6284  0.6026  1.8802
   82SLPC   C35 7722   3.754   5.016   3.255 -0.2254 -0.1068 -0.4162
   82SLPC   H5X 7723   3.834   4.965   3.198 -1.7630 -0.0853 -2.7033
   82SLPC   H5Y 7724   3.659   5.014   3.198 -0.1703 -0.2259 -0.5034
   82SLPC   C36 7725   3.742   4.945   3.394  0.2251 -0.8698 -0.1756
   82SLPC   H6X 7726   3.743   4.835   3.377  0.0434 -1.2232  1.9078
   82SLPC   H6Y 7727   3.640   4.968   3.430  0.4649 -0.2434  0.1136
   82SLPC   C37 7728   3.837   4.980   3.511 -0.2925  0.1511 -0.1460
   82SLPC   H7X 7729   3.856   5.087   3.535  0.0578  0.3832 -1.4156
   82SLPC   H7Y 7730   3.933   4.942   3.471 -1.0954 -1.9933 -0.1943
   82SLPC   C38 7731   3.785   4.907   3.638 -0.5086 -0.1381 -0.3856
   82SLPC   H8X 7732   3.792   4.799   3.610 -1.5855  0.0242 -1.3804
   82SLPC   H8Y 7733   3.684   4.946   3.660 -0.7564 -0.0555 -1.5982
   82SLPC   C39 7734   3.859   4.950   3.766  0.4394  0.6311  0.5164
   82SLPC   H9X 7735   3.815   4.886   3.846 -2.3139 -0.3296 -1.6364
   82SLPC   H9Y 7736   3.827   5.052   3.798  1.4322  0.6360  1.5901
   82SLPC  C310 7737   4.008   4.935   3.758  0.7681 -0.4694  0.4727
   82SLPC  H10X 7738   4.044   5.022   3.698 -1.8647  0.4543  0.0934
   82SLPC  H10Y 7739   4.034   4.836   3.713 -2.3913 -1.1475 -0.0650
   82SLPC  C311 7740   4.073   4.950   3.897  0.0274  0.7987 -0.2625
   82SLPC  H11X 7741   4.040   5.038   3.957 -0.2301  0.0368  0.7400
   82SLPC  H11Y 7742   4.183   4.963   3.894  0.6615 -1.8761  3.8253
   82SLPC  C312 7743   4.050   4.822   3.979 -0.2948  0.9150 -0.0417
   82SLPC  H12X 7744   4.082   4.736   3.917  2.5975  2.1661 -0.4227
   82SLPC  H12Y 7745   3.943   4.804   4.002 -0.7466  1.6592 -1.4333
   82SLPC  C313 7746   4.120   4.839   4.117  0.6722 -0.1259  0.1927
   82SLPC  H13X 7747   4.098   4.745   4.172  1.9314 -0.0837  0.8116
   82SLPC  H13Y 7748   4.074   4.924   4.172  0.2288  1.6897 -2.7688
   82SLPC  C314 7749   4.274   4.836   4.133  0.3340  0.5349 -0.1181
   82SLPC  H14X 7750   4.323   4.928   4.093  0.9607  0.4431  0.4195
   82SLPC  H14Y 7751   4.304   4.746   4.075 -2.9470 -0.6802 -0.1261
   82SLPC  C315 7752   4.319   4.826   4.280  0.1319 -0.5161  1.0799
   82SLPC  H15X 7753   4.259   4.743   4.323 -1.2331 -1.2232 -1.9162
   82SLPC  H15Y 7754   4.295   4.927   4.319  0.4336 -1.0069  2.6012
   82SLPC  C316 7755   4.474   4.810   4.289 -0.6373  0.4889 -0.0179
   82SLPC  H16X 7756   4.524   4.887   4.227  1.8308 -0.5811  0.5160
   82SLPC  H16Y 7757   4.505   4.705   4.267 -1.2174 -0.4112  2.9795
   82SLPC  C317 7758   4.529   4.842   4.429  0.0572 -0.0813 -0.4803
   82SLPC  H17X 7759   4.472   4.783   4.503  0.6458  1.1187  0.9731
   82SLPC  H17Y 7760   4.513   4.949   4.455  0.3008 -0.3854  0.9990
   82SLPC  C318 7761   4.677   4.806   4.447 -0.2263 -0.2310  0.4646
   82SLPC  H18X 7762   4.693   4.696   4.450 -2.4870 -0.6288 -0.1257
   82SLPC  H18Y 7763   4.712   4.836   4.548 -1.8730 -0.4187  1.1184
   82SLPC  H18Z 7764   4.734   4.858   4.367 -0.2942 -2.0200 -0.7976
   83SLPC     N 7765   0.865   4.605   2.423  0.0515  0.6674  0.1667
   83SLPC   C13 7766   0.837   4.474   2.353  0.3016  0.1759 -0.5551
   83SLPC  H13A 7767   0.885   4.389   2.400 -1.5050 -1.2342 -1.1254
   83SLPC  H13B 7768   0.731   4.452   2.357  0.4960 -0.6216  0.6245
   83SLPC  H13C 7769   0.857   4.486   2.247 -0.4527  2.6694 -0.4603
   83SLPC   C14 7770   0.834   4.594   2.568  0.3132  0.5331  0.5474
   83SLPC  H14A 7771   0.857   4.690   2.611 -4.3621  0.7138  3.3959
   83SLPC  H14B 7772   0.728   4.578   2.580  0.4315  0.0418  1.0221
   83SLPC  H14C 7773   0.895   4.524   2.623 -2.0576  0.6085  3.5615
   83SLPC   C15 7774   0.760   4.689   2.359  0.2030 -0.2757  0.0612
   83SLPC  H15A 7775   0.771   4.681   2.252 -2.4473 -0.7961 -0.2320
   83SLPC  H15B 7776   0.658   4.655   2.365  1.4224 -4.0847  3.1796
   83SLPC  H15C 7777   0.753   4.788   2.403 -0.5070 -0.3798  0.1915
   83SLPC   C12 7778   1.004   4.659   2.399  0.0313 -0.2294  1.1176
   83SLPC  H12A 7779   1.020   4.663   2.293  0.3865  2.9692  1.1938
   83SLPC  H12B 7780   1.076   4.585   2.430  0.1700 -0.5215  0.1157
   83SLPC   C11 7781   1.037   4.800   2.456  1.3935 -0.6097 -0.0334
   83SLPC  H11A 7782   1.144   4.818   2.433  1.2665 -2.1673 -2.1337
   83SLPC  H11B 7783   1.019   4.804   2.566 -0.3228  0.0965 -0.3190
   83SLPC     P 7784   0.884   5.019   2.468  0.1053  0.1426  0.0982
   83SLPC   O13 7785   0.968   5.105   2.553 -0.0310  0.2009 -0.7646
   83SLPC   O14 7786   0.797   5.083   2.367 -0.4336 -0.6686  0.3892
   83SLPC   O12 7787   0.961   4.909   2.396  0.2147 -0.1237 -0.3788
   83SLPC   O11 7788   0.801   4.936   2.568  0.4033 -0.5815 -0.0503
   83SLPC    C1 7789   0.666   4.954   2.586  0.4750  0.4169  0.7047
   83SLPC    HA 7790   0.611   4.962   2.490 -0.3026  0.1874  1.1279
   83SLPC    HB 7791   0.623   4.860   2.628 -1.3611  0.8398 -0.1281
   83SLPC    C2 7792   0.623   5.058   2.694  0.4138 -1.1663 -0.2277
   83SLPC    HS 7793   0.659   5.159   2.665 -1.3383 -0.3550  0.2550
   83SLPC   O21 7794   0.685   5.018   2.820  0.3673  0.2854  0.6364
   83SLPC   C21 7795   0.674   5.111   2.915 -0.0491  0.1998 -0.9132
   83SLPC   O22 7796   0.655   5.228   2.901  0.0298 -0.6714 -0.2439
   83SLPC   C22 7797   0.694   5.047   3.059  0.1389 -0.5921  0.2490
   83SLPC   H2R 7798   0.613   4.972   3.075  1.6560 -1.7658  3.0186
   83SLPC   H2S 7799   0.782   4.979   3.061  0.2572 -0.5415 -1.5722
   83SLPC    C3 7800   0.466   5.048   2.704  0.0133 -0.6131  0.3787
   83SLPC    HX 7801   0.415   5.086   2.613 -0.5968  1.0282  1.3629
   83SLPC    HY 7802   0.441   5.130   2.775  1.7840  0.1368  0.1891
   83SLPC   O31 7803   0.414   4.914   2.743 -0.0143 -0.5182  0.2559
   83SLPC   C31 7804   0.388   4.889   2.864  0.4487 -0.1726  0.4438
   83SLPC   O32 7805   0.380   4.974   2.950 -0.6683  0.0718 -0.4377
   83SLPC   C32 7806   0.365   4.734   2.886  0.2753 -0.2647  0.5979
   83SLPC   H2X 7807   0.419   4.680   2.805  1.3549 -0.0340  1.1508
   83SLPC   H2Y 7808   0.259   4.716   2.859  0.8341 -1.7866 -0.7421
   83SLPC   C23 7809   0.681   5.163   3.170 -1.2100 -0.4697  0.1059
   83SLPC   H3R 7810   0.583   5.214   3.156 -0.0404  1.7624 -0.4554
   83SLPC   H3S 7811   0.768   5.232   3.166 -2.1205  0.6923 -2.4399
   83SLPC   C24 7812   0.674   5.104   3.312  0.6235 -0.1196  0.1318
   83SLPC   H4R 7813   0.687   5.184   3.389  1.7835  0.5516 -0.7253
   83SLPC   H4S 7814   0.761   5.036   3.320 -0.4205 -1.4062  1.1333
   83SLPC   C25 7815   0.547   5.029   3.350  0.4862  0.4983 -0.4838
   83SLPC   H5R 7816   0.539   4.925   3.314  1.6509  0.8150 -1.7165
   83SLPC   H5S 7817   0.456   5.077   3.306 -0.1042  1.5290  1.7037
   83SLPC   C26 7818   0.522   5.036   3.501  0.0767  0.5987  0.1259
   83SLPC   H6R 7819   0.486   5.136   3.531  1.2099  1.4139 -1.1248
   83SLPC   H6S 7820   0.610   5.007   3.561  0.2450  1.0488  0.0958
   83SLPC   C27 7821   0.409   4.936   3.538 -0.1523 -0.4963  0.9211
   83SLPC   H7R 7822   0.448   4.832   3.539  0.3690 -0.3808  4.4677
   83SLPC   H7S 7823   0.338   4.924   3.454  3.0306 -1.5865 -1.8809
   83SLPC   C28 7824   0.333   4.971   3.663  0.2817 -0.1197 -1.0331
   83SLPC   H8R 7825   0.405   4.973   3.748  1.4064  1.9708 -1.9755
   83SLPC   H8S 7826   0.272   4.884   3.695 -2.7352  2.0458 -0.4500
   83SLPC   C29 7827   0.228   5.087   3.657  0.1883  0.2825  0.5973
   83SLPC   H9R 7828   0.136   5.062   3.602  1.2831 -3.1779  0.1085
   83SLPC  C210 7829   0.234   5.196   3.723  0.4653 -0.3854 -0.0282
   83SLPC  H10R 7830   0.145   5.261   3.723  0.3432 -0.5466 -0.4522
   83SLPC  C211 7831   0.346   5.234   3.828  0.1800 -0.6803  0.2005
   83SLPC  H11R 7832   0.448   5.210   3.791 -0.3990 -1.9689 -0.6756
   83SLPC  H11S 7833   0.338   5.164   3.914 -1.2655 -2.2300 -1.1297
   83SLPC  C212 7834   0.337   5.378   3.865  0.6900 -0.0491 -1.1264
   83SLPC  H12R 7835   0.357   5.440   3.777  1.7675 -1.1753 -1.7038
   83SLPC  C213 7836   0.321   5.432   3.986 -0.1009  0.0382  0.0774
   83SLPC  H13R 7837   0.321   5.542   4.000 -3.6538  0.3209 -1.1472
   83SLPC  C214 7838   0.313   5.359   4.110  0.0062 -0.7203 -1.1602
   83SLPC  H14R 7839   0.248   5.269   4.105  0.1467 -1.0335  1.4021
   83SLPC  H14S 7840   0.264   5.417   4.191 -1.8567 -3.4811 -0.1486
   83SLPC  C215 7841   0.444   5.309   4.163 -0.6095  0.8726  0.0388
   83SLPC  H15R 7842   0.516   5.391   4.179 -1.7809  1.8695  0.3929
   83SLPC  H15S 7843   0.484   5.235   4.091 -1.4556 -2.0879  2.4252
   83SLPC  C216 7844   0.424   5.237   4.300 -0.0575 -0.3746  0.4025
   83SLPC  H16R 7845   0.348   5.156   4.290 -0.4092  0.1146 -1.2117
   83SLPC  H16S 7846   0.382   5.308   4.374  2.0480  0.9835  0.3811
   83SLPC  C217 7847   0.551   5.169   4.354  0.7478 -0.8448  0.1974
   83SLPC  H17R 7848   0.563   5.185   4.463 -1.6514  2.0041  0.1531
   83SLPC  H17S 7849   0.639   5.226   4.316  1.6039 -1.0922  1.7319
   83SLPC  C218 7850   0.554   5.018   4.321  0.6775  0.5715 -0.3815
   83SLPC  H18R 7851   0.459   4.971   4.355  1.1385 -0.1983 -0.1475
   83SLPC  H18S 7852   0.639   4.962   4.364  1.9345  1.2319 -1.8935
   83SLPC  H18T 7853   0.555   5.001   4.211 -0.5121  0.1566 -0.3398
   83SLPC   C33 7854   0.384   4.684   3.031  0.0889  0.2999  0.1741
   83SLPC   H3X 7855   0.336   4.750   3.107  3.3522  0.6507  2.1110
   83SLPC   H3Y 7856   0.492   4.681   3.058  0.1321 -1.6199 -0.0747
   83SLPC   C34 7857   0.337   4.544   3.046  0.7263  0.2219  0.2887
   83SLPC   H4X 7858   0.339   4.485   2.952  1.2586 -0.3271  0.6401
   83SLPC   H4Y 7859   0.229   4.557   3.071  1.5266  2.0850  3.1663
   83SLPC   C35 7860   0.423   4.463   3.146 -0.2050  0.0921  0.7809
   83SLPC   H5X 7861   0.529   4.462   3.112 -0.3598  0.9598  0.2442
   83SLPC   H5Y 7862   0.384   4.359   3.148 -2.4121  0.8868  2.2026
   83SLPC   C36 7863   0.420   4.501   3.292  0.4309  0.2950  0.4382
   83SLPC   H6X 7864   0.315   4.536   3.298 -0.2635 -1.5601 -0.1213
   83SLPC   H6Y 7865   0.484   4.590   3.308 -0.1172  0.3266  2.8908
   83SLPC   C37 7866   0.450   4.400   3.398  0.0743 -0.2798  0.5353
   83SLPC   H7X 7867   0.552   4.356   3.389  0.2673  0.2161  0.2655
   83SLPC   H7Y 7868   0.390   4.312   3.367 -0.6602  0.3333  0.1933
   83SLPC   C38 7869   0.407   4.437   3.536 -0.3817  0.2101  0.2078
   83SLPC   H8X 7870   0.414   4.339   3.588 -0.6628 -0.7668 -1.4834
   83SLPC   H8Y 7871   0.301   4.465   3.552  0.1809  1.5248  1.8841
   83SLPC   C39 7872   0.494   4.532   3.599 -0.2935 -0.0133  0.2208
   83SLPC   H9X 7873   0.499   4.624   3.537  1.9152  0.1660  0.6138
   83SLPC   H9Y 7874   0.596   4.492   3.612 -0.2833  0.6866  2.9470
   83SLPC  C310 7875   0.440   4.569   3.739  0.3244 -0.5427 -0.2291
   83SLPC  H10X 7876   0.427   4.478   3.801 -1.2053 -0.3199 -0.1736
   83SLPC  H10Y 7877   0.348   4.629   3.725  0.6726 -0.5378 -2.9450
   83SLPC  C311 7878   0.559   4.644   3.809  0.2879 -0.7770  0.0205
   83SLPC  H11X 7879   0.589   4.732   3.748  2.0900  1.1415  3.3283
   83SLPC  H11Y 7880   0.645   4.574   3.800 -0.0773 -1.2414  0.1046
   83SLPC  C312 7881   0.529   4.683   3.961  0.0719  0.5553 -0.6482
   83SLPC  H12X 7882   0.492   4.591   4.012 -0.8966  1.9723  1.3789
   83SLPC  H12Y 7883   0.444   4.752   3.943 -0.3363 -0.0986 -1.2659
   83SLPC  C313 7884   0.642   4.755   4.031 -0.8182 -0.6884 -0.0754
   83SLPC  H13X 7885   0.601   4.820   4.111  0.0937 -1.9885  1.5216
   83SLPC  H13Y 7886   0.687   4.830   3.963  1.3501 -0.9788  0.9481
   83SLPC  C314 7887   0.762   4.669   4.084 -0.6603  0.3195  0.1261
   83SLPC  H14X 7888   0.845   4.738   4.109 -0.9586  0.4944  0.6738
   83SLPC  H14Y 7889   0.796   4.601   4.004  2.4666  2.4814 -0.5400
   83SLPC  C315 7890   0.741   4.587   4.211 -0.2160 -0.7870 -0.2726
   83SLPC  H15X 7891   0.792   4.488   4.204 -1.5907 -1.4947 -0.6979
   83SLPC  H15Y 7892   0.635   4.554   4.216 -0.7520  1.0433  2.3588
   83SLPC  C316 7893   0.803   4.649   4.340  0.1095 -0.3677  0.6942
   83SLPC  H16X 7894   0.760   4.750   4.355  0.3672 -0.2860  0.8887
   83SLPC  H16Y 7895   0.911   4.667   4.318  0.4060 -0.7489  1.7852
   83SLPC  C317 7896   0.793   4.560   4.467  0.1453 -0.3027  0.9270
   83SLPC  H17X 7897   0.832   4.459   4.441 -0.4403  0.4547 -3.7642
   83SLPC  H17Y 7898   0.691   4.556   4.510 -0.8055  0.2984 -1.1675
   83SLPC  C318 7899   0.881   4.610   4.579 -0.7253  0.3267  0.5769
   83SLPC  H18X 7900   0.849   4.713   4.606 -0.8684 -0.3442  3.2952
   83SLPC  H18Y 7901   0.989   4.608   4.551 -1.2603  0.2746 -1.6969
   83SLPC  H18Z 7902   0.877   4.544   4.668  0.3638  0.1878  0.5395
   84SLPC     N 7903   6.738   2.101   2.329 -0.2767 -0.2040  0.3633
   84SLPC   C13 7904   6.880   2.117   2.383  0.3773  0.3828 -0.9361
   84SLPC  H13A 7905   6.931   2.202   2.340  1.5582 -0.5112 -1.3669
   84SLPC  H13B 7906   6.883   2.141   2.488  0.3547 -1.1684 -0.5609
   84SLPC  H13C 7907   6.944   2.031   2.372  0.2776 -0.0790  1.5470
   84SLPC   C14 7908   6.689   1.975   2.383  0.5005  0.1507  0.6945
   84SLPC  H14A 7909   6.743   1.889   2.347 -1.0948 -1.0439  1.0368
   84SLPC  H14B 7910   6.685   1.967   2.490  1.4310  1.2079  0.8359
   84SLPC  H14C 7911   6.591   1.959   2.340  1.0057 -3.4561  0.5876
   84SLPC   C15 7912   6.735   2.085   2.180 -0.4641  0.5014  0.7467
   84SLPC  H15A 7913   6.772   2.171   2.125  2.4991 -0.7305  0.6263
   84SLPC  H15B 7914   6.790   1.999   2.146 -0.6246  0.3448  0.8862
   84SLPC  H15C 7915   6.638   2.076   2.133 -0.3701  2.5040  0.0709
   84SLPC   C12 7916   6.654   2.222   2.374  0.1520 -0.5730 -0.4108
   84SLPC  H12A 7917   6.564   2.224   2.315  1.1483  1.4702 -1.9538
   84SLPC  H12B 7918   6.705   2.309   2.338  0.9784 -1.8274 -2.4467
   84SLPC   C11 7919   6.608   2.242   2.525 -0.1113 -0.3566  0.2018
   84SLPC  H11A 7920   6.548   2.335   2.530  0.7891  0.1444  2.7778
   84SLPC  H11B 7921   6.689   2.256   2.599  2.0591 -0.2399 -2.0483
   84SLPC     P 7922   6.371   2.122   2.534 -0.0949 -0.0912 -0.1644
   84SLPC   O13 7923   6.352   2.120   2.387 -0.7498 -0.2193 -0.5317
   84SLPC   O14 7924   6.313   2.010   2.609  0.1791 -0.6149  0.1320
   84SLPC   O12 7925   6.527   2.127   2.570 -0.0608 -0.5591  0.5689
   84SLPC   O11 7926   6.319   2.262   2.588  0.1305  0.2184 -0.8013
   84SLPC    C1 7927   6.314   2.290   2.730  0.3758  0.1053 -0.2852
   84SLPC    HA 7928   6.270   2.209   2.793  1.6911 -0.8462 -0.5476
   84SLPC    HB 7929   6.417   2.307   2.769 -0.0464  0.5923  0.6683
   84SLPC    C2 7930   6.206   2.397   2.749  1.1367 -1.0402 -0.1078
   84SLPC    HS 7931   6.242   2.497   2.715  0.0827 -0.5362  0.1820
   84SLPC   O21 7932   6.164   2.407   2.889 -0.2568 -0.1796 -0.1323
   84SLPC   C21 7933   6.252   2.472   2.961 -0.4910 -0.9655  0.0076
   84SLPC   O22 7934   6.339   2.552   2.927  0.3269 -0.3822 -0.1193
   84SLPC   C22 7935   6.215   2.442   3.105 -0.6700  0.0258 -0.6927
   84SLPC   H2R 7936   6.109   2.473   3.117 -0.7446 -0.8331  1.5087
   84SLPC   H2S 7937   6.226   2.333   3.126  2.5030  0.6546  1.8837
   84SLPC    C3 7938   6.078   2.376   2.659  0.9908  0.6068  0.6298
   84SLPC    HX 7939   6.064   2.266   2.669  1.9845  0.1505 -2.0921
   84SLPC    HY 7940   6.096   2.383   2.549 -1.4518  1.6864  0.2384
   84SLPC   O31 7941   5.963   2.468   2.683  0.6040 -0.4028  0.0129
   84SLPC   C31 7942   5.997   2.593   2.647  0.9266 -0.5374  0.2032
   84SLPC   O32 7943   6.090   2.616   2.572 -0.0964 -0.8150 -0.1554
   84SLPC   C32 7944   5.909   2.698   2.718  0.4278  0.5646 -0.0582
   84SLPC   H2X 7945   5.801   2.673   2.709  0.2685  1.4451 -0.7899
   84SLPC   H2Y 7946   5.907   2.786   2.650 -2.0248 -0.3254 -1.2400
   84SLPC   C23 7947   6.302   2.510   3.211 -0.4872  0.1168 -0.0140
   84SLPC   H3R 7948   6.234   2.539   3.294 -2.1634 -0.3563 -1.1692
   84SLPC   H3S 7949   6.348   2.601   3.168 -1.3324  0.6577  0.1965
   84SLPC   C24 7950   6.404   2.416   3.267 -0.9755  0.1803 -0.0567
   84SLPC   H4R 7951   6.484   2.418   3.190 -2.4165  1.5207 -1.5983
   84SLPC   H4S 7952   6.360   2.315   3.275 -0.9339  0.1829  0.2338
   84SLPC   C25 7953   6.473   2.473   3.397  0.2109  0.4480  0.2631
   84SLPC   H5R 7954   6.405   2.462   3.484 -1.4968 -1.4479 -1.2180
   84SLPC   H5S 7955   6.490   2.581   3.378 -1.0514  0.7150  0.6029
   84SLPC   C26 7956   6.613   2.399   3.418  0.1964 -0.1202  0.6867
   84SLPC   H6R 7957   6.699   2.415   3.350 -0.6903 -1.7280 -0.8924
   84SLPC   H6S 7958   6.581   2.293   3.407 -0.5566 -0.2797  3.5930
   84SLPC   C27 7959   6.671   2.417   3.559 -0.4624 -0.1608 -0.5081
   84SLPC   H7R 7960   6.597   2.448   3.635  0.7067 -0.3333  0.7485
   84SLPC   H7S 7961   6.749   2.496   3.555  0.5989 -1.2010 -1.3489
   84SLPC   C28 7962   6.750   2.299   3.607 -0.2008  0.0303  0.3023
   84SLPC   H8R 7963   6.820   2.335   3.685  0.1036 -1.6556  0.8306
   84SLPC   H8S 7964   6.812   2.255   3.525  0.2504 -0.5268  0.9360
   84SLPC   C29 7965   6.664   2.188   3.660 -0.5291  0.3284 -0.2748
   84SLPC   H9R 7966   6.620   2.122   3.584  1.8231 -0.3498 -1.1208
   84SLPC  C210 7967   6.640   2.159   3.792  0.0457  0.0095  0.8406
   84SLPC  H10R 7968   6.584   2.068   3.820  0.5209 -0.3845  0.5274
   84SLPC  C211 7969   6.681   2.243   3.908  0.7705  0.0966 -0.2659
   84SLPC  H11R 7970   6.686   2.350   3.879 -2.5205  1.3693  3.0901
   84SLPC  H11S 7971   6.784   2.218   3.943  0.1740  0.1045  1.6134
   84SLPC  C212 7972   6.586   2.228   4.030 -0.1591 -0.4927  0.9504
   84SLPC  H12R 7973   6.489   2.196   3.989  0.4914  0.9043 -1.9173
   84SLPC  C213 7974   6.587   2.308   4.138 -0.1915  0.2889  0.2767
   84SLPC  H13R 7975   6.512   2.300   4.218  1.7516 -0.6966  2.1010
   84SLPC  C214 7976   6.700   2.399   4.173  0.7774 -0.1227  0.2887
   84SLPC  H14R 7977   6.672   2.503   4.199  0.9706  1.1185 -3.8209
   84SLPC  H14S 7978   6.764   2.419   4.085  1.1430 -2.3866 -0.0356
   84SLPC  C215 7979   6.787   2.357   4.296 -0.3034  0.4617 -0.9686
   84SLPC  H15R 7980   6.815   2.249   4.286  1.2790  0.7543 -0.1005
   84SLPC  H15S 7981   6.732   2.365   4.392  2.7077  1.8213  0.7838
   84SLPC  C216 7982   6.904   2.448   4.318  0.0763  0.0910  0.4984
   84SLPC  H16R 7983   6.965   2.464   4.226 -0.7721  0.4857 -0.0000
   84SLPC  H16S 7984   6.981   2.409   4.389  1.9467  2.3616 -0.1629
   84SLPC  C217 7985   6.884   2.591   4.376  0.2464 -0.7616 -0.8869
   84SLPC  H17R 7986   6.821   2.588   4.468  1.7090  3.0918  0.4347
   84SLPC  H17S 7987   6.827   2.653   4.303  0.4155 -0.1479 -0.5084
   84SLPC  C218 7988   7.006   2.673   4.417 -0.0991  0.5089 -0.8068
   84SLPC  H18R 7989   7.068   2.620   4.492 -0.7188  1.6982  0.5852
   84SLPC  H18S 7990   6.981   2.768   4.468  2.1733  0.8112 -0.1473
   84SLPC  H18T 7991   7.067   2.684   4.325 -0.3119 -1.9377 -1.3088
   84SLPC   C33 7992   5.962   2.731   2.859  0.4852 -0.5997 -0.8177
   84SLPC   H3X 7993   6.062   2.779   2.850  2.0002 -3.5198 -0.6359
   84SLPC   H3Y 7994   5.975   2.633   2.908  1.7126  0.1865  0.5313
   84SLPC   C34 7995   5.859   2.833   2.926 -0.4041  0.2941  0.4291
   84SLPC   H4X 7996   5.754   2.797   2.920  0.2862 -1.9920  0.8063
   84SLPC   H4Y 7997   5.867   2.929   2.870 -0.7556  0.0798 -0.0026
   84SLPC   C35 7998   5.892   2.852   3.071  0.3581  0.0059 -0.0668
   84SLPC   H5X 7999   5.824   2.926   3.119  1.8338  0.6497  1.0851
   84SLPC   H5Y 8000   5.998   2.884   3.078  0.6305 -1.1643  1.5079
   84SLPC   C36 8001   5.888   2.725   3.167  0.3288  0.6327 -0.2286
   84SLPC   H6X 8002   5.952   2.655   3.109  0.2719  1.8125 -1.7836
   84SLPC   H6Y 8003   5.784   2.688   3.179 -0.2544  0.4728 -4.3346
   84SLPC   C37 8004   5.951   2.748   3.306  0.9272  0.0466 -0.3351
   84SLPC   H7X 8005   5.897   2.830   3.358 -0.1008 -0.4269 -0.6243
   84SLPC   H7Y 8006   6.053   2.786   3.288  0.3439  1.5211 -0.7121
   84SLPC   C38 8007   5.949   2.621   3.399  0.4115 -0.0620 -0.4733
   84SLPC   H8X 8008   6.010   2.533   3.368  1.9011 -0.1397  2.3692
   84SLPC   H8Y 8009   5.842   2.592   3.408  0.1815  1.2595  1.9574
   84SLPC   C39 8010   5.997   2.656   3.537 -0.9144  0.2213 -0.4630
   84SLPC   H9X 8011   5.956   2.585   3.612  1.4933 -2.0308 -1.1444
   84SLPC   H9Y 8012   5.972   2.759   3.569 -2.0025 -0.7924  2.2066
   84SLPC  C310 8013   6.144   2.628   3.539  0.6571  0.4169  0.2017
   84SLPC  H10X 8014   6.200   2.684   3.461 -0.2451  1.2527  0.1335
   84SLPC  H10Y 8015   6.151   2.520   3.515 -0.3706  0.3645  0.1130
   84SLPC  C311 8016   6.218   2.666   3.675  0.2870  0.2160 -0.7779
   84SLPC  H11X 8017   6.175   2.755   3.725  0.5784 -1.8943  3.6830
   84SLPC  H11Y 8018   6.326   2.684   3.660  0.3428 -1.1850 -2.4090
   84SLPC  C312 8019   6.202   2.550   3.773  0.5435 -0.3285 -0.4105
   84SLPC  H12X 8020   6.184   2.457   3.716  0.1636  0.3344 -1.4000
   84SLPC  H12Y 8021   6.114   2.558   3.840  1.0397  0.8070  0.1462
   84SLPC  C313 8022   6.332   2.518   3.857 -0.3207  0.6006 -0.0395
   84SLPC  H13X 8023   6.411   2.477   3.791  0.8728  1.9022  0.5415
   84SLPC  H13Y 8024   6.311   2.430   3.920 -1.0107 -0.2697 -1.4396
   84SLPC  C314 8025   6.378   2.632   3.939 -0.5039 -0.7071 -0.2142
   84SLPC  H14X 8026   6.407   2.596   4.040 -1.2747 -1.4129 -0.2362
   84SLPC  H14Y 8027   6.298   2.707   3.952 -0.3336 -0.2246 -1.6983
   84SLPC  C315 8028   6.500   2.693   3.878 -0.0062 -0.5431  0.2231
   84SLPC  H15X 8029   6.471   2.754   3.790  0.2212 -1.3320 -0.4144
   84SLPC  H15Y 8030   6.561   2.614   3.829  2.0441  0.2557  1.3707
   84SLPC  C316 8031   6.591   2.773   3.979 -0.6646 -0.1237 -0.1302
   84SLPC  H16X 8032   6.635   2.695   4.044  1.8188  1.2754  0.0220
   84SLPC  H16Y 8033   6.520   2.841   4.030 -0.7912  0.2771 -0.8265
   84SLPC  C317 8034   6.711   2.851   3.916  0.2141  0.1284  0.3564
   84SLPC  H17X 8035   6.675   2.921   3.837 -0.8030 -1.5688 -0.7598
   84SLPC  H17Y 8036   6.760   2.774   3.852 -0.9493  0.9119 -1.5819
   84SLPC  C318 8037   6.812   2.904   4.016  0.5853 -0.1374 -0.9052
   84SLPC  H18X 8038   6.770   2.934   4.115  1.1912 -2.2764  0.0655
   84SLPC  H18Y 8039   6.872   2.982   3.965  0.2097  0.0861 -1.0150
   84SLPC  H18Z 8040   6.888   2.827   4.040  0.3954 -0.1719 -0.3952
   85SLPC     N 8041   4.067   0.623   2.315  0.7124 -0.2593  0.1917
   85SLPC   C13 8042   4.136   0.494   2.343  0.5310 -0.5304  0.6574
   85SLPC  H13A 8043   4.138   0.427   2.258 -1.9457 -2.9760  2.3675
   85SLPC  H13B 8044   4.234   0.525   2.377 -0.5374  1.8026  1.8052
   85SLPC  H13C 8045   4.088   0.449   2.428  0.9876 -0.1388  1.1260
   85SLPC   C14 8046   3.946   0.595   2.224  0.7664 -0.0676 -0.4505
   85SLPC  H14A 8047   3.902   0.692   2.203  1.5646  0.5117  0.4332
   85SLPC  H14B 8048   3.962   0.543   2.131 -2.5745 -1.6617 -0.2690
   85SLPC  H14C 8049   3.883   0.529   2.281  1.2414 -0.2427 -0.1231
   85SLPC   C15 8050   4.155   0.717   2.242  0.5227  0.1931 -0.4493
   85SLPC  H15A 8051   4.246   0.738   2.296 -0.7016  1.1648  1.3425
   85SLPC  H15B 8052   4.179   0.685   2.142 -2.0225 -0.7366 -0.8267
   85SLPC  H15C 8053   4.101   0.809   2.223  0.4854  0.0529 -1.0375
   85SLPC   C12 8054   4.018   0.689   2.437  0.5567  0.4778 -1.0047
   85SLPC  H12A 8055   3.944   0.762   2.407  0.4339  2.2161  2.8544
   85SLPC  H12B 8056   4.091   0.754   2.484 -0.6028 -0.4221  2.2783
   85SLPC   C11 8057   3.952   0.595   2.546  0.0885 -0.1002  0.6476
   85SLPC  H11A 8058   3.920   0.652   2.636  1.3446 -1.0682  1.7679
   85SLPC  H11B 8059   4.026   0.519   2.579  0.0149 -0.0279  0.9903
   85SLPC     P 8060   3.785   0.380   2.545 -0.2241  0.0784  0.0102
   85SLPC   O13 8061   3.650   0.349   2.494  0.6980  0.0713  0.0657
   85SLPC   O14 8062   3.896   0.285   2.534 -0.4139  0.1149  0.7120
   85SLPC   O12 8063   3.843   0.525   2.484  0.6323  0.0751  0.1869
   85SLPC   O11 8064   3.761   0.410   2.699  0.0054 -0.5256 -0.2469
   85SLPC    C1 8065   3.760   0.289   2.780 -0.5980  0.3699  0.3865
   85SLPC    HA 8066   3.691   0.296   2.866 -0.3494 -0.2215  0.6371
   85SLPC    HB 8067   3.741   0.195   2.723 -2.1402  1.6666 -1.3727
   85SLPC    C2 8068   3.904   0.272   2.844  0.3954 -0.5848  0.3162
   85SLPC    HS 8069   3.976   0.254   2.762 -0.3220 -0.2737 -0.3984
   85SLPC   O21 8070   3.907   0.163   2.937  0.0462 -0.4006  0.7409
   85SLPC   C21 8071   4.034   0.137   2.988  0.6616 -0.5400  0.6408
   85SLPC   O22 8072   4.137   0.165   2.928 -0.2905  0.3874  0.2764
   85SLPC   C22 8073   4.019   0.072   3.125 -0.1443  0.4010  0.9791
   85SLPC   H2R 8074   3.914   0.081   3.161 -1.0261  0.3390 -1.3740
   85SLPC   H2S 8075   4.051  -0.034   3.130 -0.1391  0.3601  0.1713
   85SLPC    C3 8076   3.937   0.407   2.920  0.0921 -0.3873  0.5432
   85SLPC    HX 8077   3.851   0.404   2.990 -0.0170  0.2342  0.4429
   85SLPC    HY 8078   3.923   0.493   2.851  1.3824 -1.6083 -1.3187
   85SLPC   O31 8079   4.060   0.415   2.996  0.3194 -0.2534  0.1654
   85SLPC   C31 8080   4.160   0.460   2.925  0.0463 -0.1467  0.3444
   85SLPC   O32 8081   4.163   0.471   2.803 -0.4805 -0.1799  0.1865
   85SLPC   C32 8082   4.274   0.494   3.018  0.4141  0.3287 -0.0056
   85SLPC   H2X 8083   4.315   0.405   3.070  3.6797  1.2062 -0.7847
   85SLPC   H2Y 8084   4.237   0.560   3.100 -0.3718 -0.7568  0.5451
   85SLPC   C23 8085   4.095   0.151   3.240 -0.2401 -0.0294 -0.1628
   85SLPC   H3R 8086   4.064   0.258   3.244  1.9058  0.6067  2.2571
   85SLPC   H3S 8087   4.204   0.160   3.220 -0.2066  2.4011  0.7387
   85SLPC   C24 8088   4.052   0.073   3.369  0.8100 -0.1694 -0.9358
   85SLPC   H4R 8089   4.111  -0.021   3.377 -0.2575 -0.7528  0.5734
   85SLPC   H4S 8090   3.944   0.048   3.362  0.7477 -0.0269 -0.5265
   85SLPC   C25 8091   4.064   0.151   3.508 -0.5328  0.2878 -0.3723
   85SLPC   H5R 8092   4.161   0.205   3.505  0.2137 -0.7972  1.8375
   85SLPC   H5S 8093   3.980   0.223   3.509 -0.5003  0.3486 -1.0645
   85SLPC   C26 8094   4.066   0.046   3.623 -0.2739 -0.4004 -0.2783
   85SLPC   H6R 8095   4.141  -0.034   3.605  0.1437 -0.5156  1.7328
   85SLPC   H6S 8096   3.967  -0.005   3.634  1.0726 -3.3248 -0.6704
   85SLPC   C27 8097   4.107   0.096   3.763  0.2877  0.7876 -0.1838
   85SLPC   H7R 8098   4.042   0.184   3.779  0.3136  0.4236  2.2548
   85SLPC   H7S 8099   4.212   0.128   3.746  0.2987  0.3539 -0.9858
   85SLPC   C28 8100   4.094  -0.012   3.870  0.5131 -1.0302 -0.1172
   85SLPC   H8R 8101   4.129   0.043   3.960 -1.4343  1.6514 -0.8662
   85SLPC   H8S 8102   4.165  -0.095   3.848 -0.5330 -1.2981 -2.7757
   85SLPC   C29 8103   3.950  -0.053   3.902 -0.0604 -1.1938  0.3097
   85SLPC   H9R 8104   3.886  -0.062   3.813 -1.4806  1.1857  1.0151
   85SLPC  C210 8105   3.895  -0.055   4.026 -0.1891 -0.0493 -0.0515
   85SLPC  H10R 8106   3.795  -0.098   4.042 -0.3436  0.4210  0.2745
   85SLPC  C211 8107   3.971  -0.022   4.158  0.6036 -0.6458 -0.1959
   85SLPC  H11R 8108   3.912   0.056   4.211 -0.1997 -1.5372  0.2508
   85SLPC  H11S 8109   4.078   0.002   4.147  0.1805  1.8432  0.5897
   85SLPC  C212 8110   3.956  -0.144   4.241 -0.2785  0.1431  0.2564
   85SLPC  H12R 8111   3.957  -0.233   4.175 -2.1851 -1.0508  1.7062
   85SLPC  C213 8112   3.961  -0.143   4.377  1.1343  0.2192  0.0663
   85SLPC  H13R 8113   3.974  -0.241   4.426  1.8183  0.0243 -0.4989
   85SLPC  C214 8114   3.968  -0.034   4.477  0.2119  0.1024 -0.5224
   85SLPC  H14R 8115   3.922  -0.074   4.570  3.1546 -2.2897  0.0566
   85SLPC  H14S 8116   3.908   0.055   4.448  1.4662  0.5689 -1.7888
   85SLPC  C215 8117   4.107   0.019   4.501  0.3762  0.3654  0.0788
   85SLPC  H15R 8118   4.163   0.009   4.405  1.4827  2.1814  0.4944
   85SLPC  H15S 8119   4.163  -0.046   4.571 -0.1961 -0.3060 -0.0717
   85SLPC  C216 8120   4.115   0.157   4.563  0.5767 -0.5346 -0.4049
   85SLPC  H16R 8121   4.057   0.223   4.495  1.0616  1.2487  0.8587
   85SLPC  H16S 8122   4.219   0.195   4.571 -0.2016  1.4497  0.9538
   85SLPC  C217 8123   4.045   0.166   4.701  0.4546  0.1965 -0.2605
   85SLPC  H17R 8124   4.101   0.089   4.758 -0.3636 -0.9129 -0.9272
   85SLPC  H17S 8125   3.940   0.132   4.706  0.3996  0.3447 -0.3965
   85SLPC  C218 8126   4.060   0.301   4.766  0.8324  0.2408 -0.2883
   85SLPC  H18R 8127   4.005   0.302   4.863  1.5374 -0.8326  0.1370
   85SLPC  H18S 8128   4.015   0.376   4.698  1.5454  1.7316  0.8351
   85SLPC  H18T 8129   4.165   0.335   4.777  0.4706  0.6810  2.4548
   85SLPC   C33 8130   4.397   0.551   2.947 -0.3019  0.0442 -0.1133
   85SLPC   H3X 8131   4.363   0.643   2.895 -0.9535 -0.5382 -0.7316
   85SLPC   H3Y 8132   4.429   0.477   2.872 -0.2906 -0.2917  0.2215
   85SLPC   C34 8133   4.518   0.587   3.032 -0.0535  0.0334 -0.7820
   85SLPC   H4X 8134   4.581   0.653   2.969 -0.9300  2.2757  0.5790
   85SLPC   H4Y 8135   4.586   0.504   3.062 -1.0594  0.4496  3.2429
   85SLPC   C35 8136   4.489   0.650   3.165 -0.8150  0.0699  0.0152
   85SLPC   H5X 8137   4.431   0.576   3.224 -3.3256  1.2579 -0.7817
   85SLPC   H5Y 8138   4.424   0.739   3.147  0.7138  1.3064  0.3237
   85SLPC   C36 8139   4.614   0.710   3.220 -0.0783  0.1539 -0.4505
   85SLPC   H6X 8140   4.649   0.784   3.145 -0.3249  1.6730  0.8734
   85SLPC   H6Y 8141   4.698   0.639   3.237  1.6318  2.0111 -0.7041
   85SLPC   C37 8142   4.601   0.782   3.361 -0.4585  0.0374  0.1154
   85SLPC   H7X 8143   4.495   0.816   3.360 -0.2158  0.8106 -0.7237
   85SLPC   H7Y 8144   4.655   0.877   3.342 -2.0975  0.9786 -0.0539
   85SLPC   C38 8145   4.644   0.706   3.488 -0.6929 -0.0826  0.5959
   85SLPC   H8X 8146   4.747   0.666   3.475 -0.5820  0.1250  0.8296
   85SLPC   H8Y 8147   4.576   0.619   3.493 -0.0367 -0.7458 -1.1831
   85SLPC   C39 8148   4.643   0.791   3.618  0.2498 -0.3057  0.0506
   85SLPC   H9X 8149   4.541   0.818   3.652 -0.2714  0.6361 -2.1190
   85SLPC   H9Y 8150   4.701   0.884   3.601  0.3960 -0.5925 -1.0726
   85SLPC  C310 8151   4.711   0.724   3.739  0.7110  0.6476  0.8131
   85SLPC  H10X 8152   4.816   0.702   3.712  0.6047 -1.2005  1.6788
   85SLPC  H10Y 8153   4.650   0.634   3.766  0.2018  0.9154  0.5711
   85SLPC  C311 8154   4.683   0.815   3.852 -0.4907 -0.3832 -0.1535
   85SLPC  H11X 8155   4.579   0.838   3.883 -0.5307 -1.8437  0.9490
   85SLPC  H11Y 8156   4.708   0.918   3.818  0.0627 -0.2222  0.6833
   85SLPC  C312 8157   4.781   0.799   3.968 -0.1758 -0.1835 -0.9727
   85SLPC  H12X 8158   4.786   0.900   4.012  2.8562 -0.9976  0.8839
   85SLPC  H12Y 8159   4.885   0.769   3.942 -0.0584 -1.7989  1.0934
   85SLPC  C313 8160   4.737   0.709   4.083  0.3121 -0.2482 -0.5470
   85SLPC  H13X 8161   4.810   0.724   4.165  2.6485 -1.1889 -2.3444
   85SLPC  H13Y 8162   4.753   0.606   4.043 -2.3110 -1.0382  0.2523
   85SLPC  C314 8163   4.590   0.724   4.120  0.3353  0.2189 -1.2485
   85SLPC  H14X 8164   4.583   0.654   4.206 -0.6649 -0.5416 -1.9274
   85SLPC  H14Y 8165   4.530   0.696   4.031  2.0858 -3.3464 -1.5128
   85SLPC  C315 8166   4.540   0.862   4.168  0.6084  0.4197  0.2969
   85SLPC  H15X 8167   4.430   0.860   4.186 -0.0087 -0.2135 -2.9879
   85SLPC  H15Y 8168   4.552   0.925   4.078 -2.1939 -2.2955 -2.2408
   85SLPC  C316 8169   4.610   0.922   4.296 -0.1133  0.1040 -0.7127
   85SLPC  H16X 8170   4.717   0.922   4.267  0.7871  2.1585  2.1823
   85SLPC  H16Y 8171   4.582   0.846   4.372 -0.2973  1.2159  0.3485
   85SLPC  C317 8172   4.557   1.062   4.342 -0.5764  0.6204 -0.2241
   85SLPC  H17X 8173   4.584   1.143   4.270 -0.4138  1.9382  1.2725
   85SLPC  H17Y 8174   4.605   1.081   4.440  3.0586 -1.1781 -1.4765
   85SLPC  C318 8175   4.408   1.070   4.345 -0.7640  0.7660 -0.6223
   85SLPC  H18X 8176   4.376   1.166   4.390  0.2980  0.4142  0.9786
   85SLPC  H18Y 8177   4.365   0.981   4.395 -0.6371  0.3902 -1.1721
   85SLPC  H18Z 8178   4.372   1.058   4.241  0.1624 -3.9994 -0.6246
   86SLPC     N 8179   4.301   2.632   2.403 -0.2835 -0.2254 -0.5730
   86SLPC   C13 8180   4.297   2.504   2.326  0.3877 -0.8562 -0.5138
   86SLPC  H13A 8181   4.223   2.440   2.372 -0.4599  0.4552  0.0234
   86SLPC  H13B 8182   4.274   2.520   2.222  0.0350 -1.0192 -0.4622
   86SLPC  H13C 8183   4.392   2.455   2.340  0.0589 -0.9094  1.8912
   86SLPC   C14 8184   4.161   2.693   2.404 -0.2188  0.1311 -0.2436
   86SLPC  H14A 8185   4.098   2.630   2.465  2.9731 -0.0242  3.2746
   86SLPC  H14B 8186   4.170   2.774   2.475  2.4737 -0.4615  0.1889
   86SLPC  H14C 8187   4.127   2.726   2.307 -1.1406  1.5093  0.5080
   86SLPC   C15 8188   4.395   2.735   2.325  0.1040  0.1726 -0.5325
   86SLPC  H15A 8189   4.496   2.696   2.323  0.7879  1.6729  1.6645
   86SLPC  H15B 8190   4.361   2.740   2.222 -0.0741 -0.1443 -0.4908
   86SLPC  H15C 8191   4.392   2.835   2.366 -3.1125 -0.1832  0.4077
   86SLPC   C12 8192   4.349   2.620   2.546 -0.1621  0.6931  0.0616
   86SLPC  H12A 8193   4.287   2.554   2.604 -0.5054 -1.5519 -2.6043
   86SLPC  H12B 8194   4.351   2.718   2.592 -0.3845  2.2349 -2.9196
   86SLPC   C11 8195   4.487   2.551   2.563  0.5438  0.0031  0.2825
   86SLPC  H11A 8196   4.532   2.589   2.657 -0.0157  2.1159 -0.2610
   86SLPC  H11B 8197   4.552   2.583   2.479 -0.0238  1.1153  0.2526
   86SLPC     P 8198   4.404   2.328   2.683 -0.1177 -0.0182  0.1106
   86SLPC   O13 8199   4.269   2.385   2.711  0.7411  0.2668 -0.3274
   86SLPC   O14 8200   4.418   2.184   2.649  0.3029  0.2159  0.0005
   86SLPC   O12 8201   4.454   2.412   2.557 -0.0360  0.0054  0.1469
   86SLPC   O11 8202   4.500   2.356   2.801  0.1221  0.2794  0.4326
   86SLPC    C1 8203   4.638   2.317   2.787  0.2723  0.4106 -0.9923
   86SLPC    HA 8204   4.651   2.213   2.752  0.1820 -0.4973  1.4570
   86SLPC    HB 8205   4.691   2.387   2.719 -0.7300  0.5976 -1.6011
   86SLPC    C2 8206   4.711   2.332   2.926  0.2507  0.2508  0.3356
   86SLPC    HS 8207   4.819   2.324   2.905  0.0055  1.0705 -1.3507
   86SLPC   O21 8208   4.671   2.222   3.012  0.0015 -0.0556 -0.0701
   86SLPC   C21 8209   4.716   2.107   2.981 -0.1477  0.1166  0.0645
   86SLPC   O22 8210   4.796   2.083   2.895 -0.2230  0.4507 -0.1770
   86SLPC   C22 8211   4.677   2.005   3.087 -0.9040  0.0162 -0.1590
   86SLPC   H2R 8212   4.575   1.970   3.059 -1.1219  1.1355 -0.7929
   86SLPC   H2S 8213   4.748   1.920   3.079  0.0966  0.7002  1.2051
   86SLPC    C3 8214   4.679   2.463   3.002 -0.0611  0.6048 -0.6097
   86SLPC    HX 8215   4.570   2.458   3.022 -0.2645 -2.2996 -2.0693
   86SLPC    HY 8216   4.692   2.550   2.934 -1.0858  1.2193 -0.0440
   86SLPC   O31 8217   4.744   2.478   3.128 -0.0515 -0.0487  0.4416
   86SLPC   C31 8218   4.676   2.473   3.242 -0.0599 -0.3284  0.5381
   86SLPC   O32 8219   4.555   2.455   3.244  0.1312  0.0416  0.0010
   86SLPC   C32 8220   4.764   2.502   3.366 -0.0975 -0.6434 -0.0704
   86SLPC   H2X 8221   4.848   2.567   3.335 -1.5438  1.9687  1.1838
   86SLPC   H2Y 8222   4.807   2.405   3.398 -1.3677 -1.6532 -1.2593
   86SLPC   C23 8223   4.671   2.049   3.236  0.5633  0.2898 -0.3377
   86SLPC   H3R 8224   4.633   1.969   3.303  1.3282 -0.5158 -0.8331
   86SLPC   H3S 8225   4.605   2.136   3.252  0.8029  0.3096  0.5972
   86SLPC   C24 8226   4.809   2.094   3.287  0.1642 -0.5406 -0.5990
   86SLPC   H4R 8227   4.847   2.177   3.224 -2.5302  1.1444 -0.1978
   86SLPC   H4S 8228   4.877   2.007   3.290 -1.1939 -1.6103  0.2060
   86SLPC   C25 8229   4.794   2.139   3.435 -0.3330 -0.3319 -0.0777
   86SLPC   H5R 8230   4.753   2.067   3.509 -1.8231 -0.5628 -1.0905
   86SLPC   H5S 8231   4.728   2.228   3.425 -0.4494 -0.1366  1.9737
   86SLPC   C26 8232   4.923   2.200   3.491  0.0516  0.3040 -0.3761
   86SLPC   H6R 8233   4.904   2.269   3.576  0.7578  1.7279 -1.3399
   86SLPC   H6S 8234   4.964   2.277   3.422  0.4914 -0.1743 -0.6566
   86SLPC   C27 8235   5.045   2.110   3.512 -0.4098  0.2396 -0.9703
   86SLPC   H7R 8236   5.050   2.038   3.428 -0.3385  2.2680 -2.7843
   86SLPC   H7S 8237   5.028   2.044   3.600  0.4622  1.5919  0.2783
   86SLPC   C28 8238   5.186   2.179   3.534 -0.2519  0.3313  0.0522
   86SLPC   H8R 8239   5.171   2.263   3.607 -0.9875  0.4839 -0.2582
   86SLPC   H8S 8240   5.223   2.222   3.439 -3.4576 -0.7531 -1.8442
   86SLPC   C29 8241   5.304   2.095   3.584 -0.6041 -0.1334  0.5490
   86SLPC   H9R 8242   5.340   2.020   3.512  1.5893  1.1937  0.1885
   86SLPC  C210 8243   5.340   2.087   3.714  0.3555 -0.1184  0.1335
   86SLPC  H10R 8244   5.428   2.025   3.739 -0.1962 -0.0702  2.4415
   86SLPC  C211 8245   5.294   2.165   3.835  0.1827 -0.0741  0.2687
   86SLPC  H11R 8246   5.280   2.266   3.791 -1.1301 -0.9551 -1.5151
   86SLPC  H11S 8247   5.379   2.181   3.904  1.6800  3.0788 -2.0476
   86SLPC  C212 8248   5.166   2.116   3.905  0.3404  0.5982 -0.6198
   86SLPC  H12R 8249   5.147   2.007   3.897  0.8432  0.4424  0.2158
   86SLPC  C213 8250   5.070   2.199   3.956  0.1618  0.3291 -0.7047
   86SLPC  H13R 8251   4.980   2.161   4.006 -0.2431  0.3007 -1.4339
   86SLPC  C214 8252   5.093   2.347   3.949 -0.1052 -0.4148 -0.0625
   86SLPC  H14R 8253   5.003   2.404   3.981 -0.1759 -2.8341  5.1386
   86SLPC  H14S 8254   5.116   2.383   3.847  0.2457 -3.9655 -1.3760
   86SLPC  C215 8255   5.200   2.392   4.045 -0.0933 -0.2397  0.0470
   86SLPC  H15R 8256   5.212   2.502   4.036  1.6250 -0.4825 -1.0475
   86SLPC  H15S 8257   5.300   2.356   4.012 -0.5781 -3.1102  1.4016
   86SLPC  C216 8258   5.184   2.348   4.195  0.8722 -0.7624  0.8426
   86SLPC  H16R 8259   5.261   2.400   4.256 -1.8092  2.0288  2.0807
   86SLPC  H16S 8260   5.202   2.239   4.209 -3.5514 -1.7602  0.1346
   86SLPC  C217 8261   5.048   2.379   4.252 -0.3401  0.2978 -0.2972
   86SLPC  H17R 8262   4.969   2.326   4.195  0.9856 -2.1822  0.0498
   86SLPC  H17S 8263   5.035   2.485   4.224 -0.3100  0.0814 -1.1479
   86SLPC  C218 8264   5.047   2.337   4.399  0.5277  0.2038  0.1286
   86SLPC  H18R 8265   5.126   2.396   4.448 -1.2647  4.6457 -1.7246
   86SLPC  H18S 8266   5.069   2.228   4.408 -1.2371 -0.3725 -1.5877
   86SLPC  H18T 8267   4.945   2.348   4.443 -0.0724  1.4245 -1.4712
   86SLPC   C33 8268   4.689   2.583   3.486 -0.5751  0.0791  0.2220
   86SLPC   H3X 8269   4.606   2.523   3.528 -0.2516 -1.2292 -0.9293
   86SLPC   H3Y 8270   4.643   2.674   3.443 -0.4548  0.2173  0.3855
   86SLPC   C34 8271   4.783   2.626   3.604 -0.8108 -0.0163  0.0708
   86SLPC   H4X 8272   4.875   2.676   3.567  0.1231  0.3396  2.6282
   86SLPC   H4Y 8273   4.817   2.526   3.640  0.4789  0.4859  0.2755
   86SLPC   C35 8274   4.711   2.703   3.716 -0.1315  0.4225 -0.1328
   86SLPC   H5X 8275   4.632   2.640   3.762  1.3542 -1.9575 -0.6728
   86SLPC   H5Y 8276   4.656   2.793   3.683 -1.6136  0.7603  2.8578
   86SLPC   C36 8277   4.805   2.746   3.829 -0.0912 -0.4824  0.5142
   86SLPC   H6X 8278   4.877   2.821   3.789 -1.7541  0.4057 -0.9794
   86SLPC   H6Y 8279   4.858   2.653   3.857 -1.9968 -1.0391  2.5744
   86SLPC   C37 8280   4.733   2.801   3.952 -0.0118 -0.5330 -0.1915
   86SLPC   H7X 8281   4.630   2.763   3.969 -1.0993  3.0445  2.3023
   86SLPC   H7Y 8282   4.710   2.909   3.940 -0.8277 -0.6389  0.3683
   86SLPC   C38 8283   4.816   2.788   4.086  0.2135  0.4895  1.0409
   86SLPC   H8X 8284   4.786   2.869   4.156 -0.8315 -0.3281  1.5754
   86SLPC   H8Y 8285   4.924   2.800   4.066  0.0568  0.3736  0.0850
   86SLPC   C39 8286   4.793   2.652   4.164 -0.2818  0.7097  0.4503
   86SLPC   H9X 8287   4.865   2.656   4.248  3.0961  0.3827 -2.1998
   86SLPC   H9Y 8288   4.832   2.570   4.100 -0.4042  2.4038 -1.9208
   86SLPC  C310 8289   4.645   2.627   4.206  0.0954 -0.2177 -0.3601
   86SLPC  H10X 8290   4.589   2.586   4.120 -1.3645 -0.3228  0.6193
   86SLPC  H10Y 8291   4.603   2.722   4.247  1.0633  0.5129 -1.0010
   86SLPC  C311 8292   4.637   2.520   4.317  0.1474  0.1880 -0.1142
   86SLPC  H11X 8293   4.688   2.552   4.410 -1.3826  0.4359  0.6693
   86SLPC  H11Y 8294   4.686   2.427   4.283 -2.3345 -1.0593 -0.5361
   86SLPC  C312 8295   4.483   2.500   4.343  0.3792 -0.3588  0.5468
   86SLPC  H12X 8296   4.433   2.467   4.249 -0.3753 -2.4312  1.6143
   86SLPC  H12Y 8297   4.439   2.594   4.382 -0.2605 -0.3228 -0.2242
   86SLPC  C313 8298   4.467   2.392   4.446 -0.2003 -0.3059 -0.0057
   86SLPC  H13X 8299   4.446   2.437   4.545 -1.2495  1.1288 -0.8365
   86SLPC  H13Y 8300   4.565   2.344   4.462  1.4415  1.7749 -2.8880
   86SLPC  C314 8301   4.366   2.279   4.412  0.3134  0.1479  0.0812
   86SLPC  H14X 8302   4.273   2.318   4.364  0.7123 -0.9137 -1.6358
   86SLPC  H14Y 8303   4.313   2.251   4.505 -1.0039 -0.3602 -0.7818
   86SLPC  C315 8304   4.430   2.158   4.343 -0.5757  0.2534 -0.3358
   86SLPC  H15X 8305   4.532   2.138   4.383 -0.3858 -0.2441 -1.0535
   86SLPC  H15Y 8306   4.429   2.190   4.237  0.4433  1.2116 -0.0718
   86SLPC  C316 8307   4.341   2.028   4.359 -0.6222  0.1767 -0.3455
   86SLPC  H16X 8308   4.318   2.015   4.467 -5.2599  1.7382 -0.9308
   86SLPC  H16Y 8309   4.400   1.944   4.316  0.2890  0.4011  0.4213
   86SLPC  C317 8310   4.211   2.035   4.295  0.0229  0.7464  0.2418
   86SLPC  H17X 8311   4.172   2.139   4.297  0.4190  0.9014 -0.0711
   86SLPC  H17Y 8312   4.139   1.964   4.342  2.0813 -1.7747 -0.1822
   86SLPC  C318 8313   4.208   1.983   4.148 -0.4025  0.7376  0.9756
   86SLPC  H18X 8314   4.268   2.051   4.083  0.3231 -1.9856 -1.4057
   86SLPC  H18Y 8315   4.102   1.976   4.117  0.3246  1.3679 -1.9806
   86SLPC  H18Z 8316   4.248   1.883   4.123 -1.3566  0.3384  1.0417
   87SLPC     N 8317   1.720   3.632   2.004 -0.2547  0.8629  0.4258
   87SLPC   C13 8318   1.847   3.598   2.053 -0.6200 -0.7823  0.8489
   87SLPC  H13A 8319   1.882   3.685   2.106 -1.7626  1.2639 -1.5663
   87SLPC  H13B 8320   1.836   3.524   2.132  3.5608 -1.9948  0.5359
   87SLPC  H13C 8321   1.918   3.554   1.986 -0.3712 -0.8564  1.1578
   87SLPC   C14 8322   1.675   3.516   1.911  0.2904  0.0919 -0.1403
   87SLPC  H14A 8323   1.582   3.540   1.861  1.4594 -1.1379 -3.1104
   87SLPC  H14B 8324   1.741   3.504   1.827  1.4319  0.7280  0.6404
   87SLPC  H14C 8325   1.667   3.424   1.967  2.3345 -0.0242  0.0312
   87SLPC   C15 8326   1.738   3.758   1.923 -0.0515  0.6636 -0.1447
   87SLPC  H15A 8327   1.803   3.721   1.846 -1.5627 -0.0400 -1.1441
   87SLPC  H15B 8328   1.644   3.783   1.875 -0.4807  0.9943  0.8377
   87SLPC  H15C 8329   1.763   3.836   1.993  1.5265 -0.8039  0.9892
   87SLPC   C12 8330   1.622   3.636   2.112 -0.4633  0.7164 -0.3380
   87SLPC  H12A 8331   1.600   3.532   2.134  1.2943 -0.1452 -2.3574
   87SLPC  H12B 8332   1.534   3.687   2.076  0.6212  2.9600  0.0766
   87SLPC   C11 8333   1.658   3.716   2.239 -0.1783  0.2250 -0.4196
   87SLPC  H11A 8334   1.762   3.693   2.270 -0.6358 -2.0445 -0.3967
   87SLPC  H11B 8335   1.602   3.692   2.332 -1.6254  2.7390 -0.5710
   87SLPC     P 8336   1.506   3.923   2.228  0.4560  0.6068  0.0138
   87SLPC   O13 8337   1.514   4.066   2.218 -0.0848  0.3044  0.2131
   87SLPC   O14 8338   1.404   3.848   2.146 -0.3324  0.2484  0.8009
   87SLPC   O12 8339   1.647   3.855   2.205  0.0475 -0.5687  0.5084
   87SLPC   O11 8340   1.483   3.886   2.382  0.1062 -0.5571 -0.5528
   87SLPC    C1 8341   1.364   3.810   2.405 -0.2520  0.6195 -0.6482
   87SLPC    HA 8342   1.269   3.861   2.378 -0.5736 -0.7721 -2.3551
   87SLPC    HB 8343   1.373   3.709   2.359  0.8128  0.1913  0.4568
   87SLPC    C2 8344   1.358   3.772   2.550 -0.6215  0.5200  0.0407
   87SLPC    HS 8345   1.340   3.867   2.605 -1.2031  0.8901 -0.7680
   87SLPC   O21 8346   1.469   3.689   2.584  0.4711  0.1714 -0.1626
   87SLPC   C21 8347   1.550   3.726   2.678  0.0565  0.2997 -0.0819
   87SLPC   O22 8348   1.542   3.824   2.746  0.0777 -0.3651  0.0834
   87SLPC   C22 8349   1.670   3.636   2.682 -0.0409 -0.2636 -0.4274
   87SLPC   H2R 8350   1.639   3.529   2.674  1.5373 -0.7728 -0.1551
   87SLPC   H2S 8351   1.730   3.659   2.591  0.6496  1.8999  0.5188
   87SLPC    C3 8352   1.238   3.676   2.582 -0.6061 -0.3565  0.1742
   87SLPC    HX 8353   1.259   3.570   2.558  2.3245 -0.2175  1.6490
   87SLPC    HY 8354   1.149   3.715   2.529 -0.3366  1.3362  0.9093
   87SLPC   O31 8355   1.202   3.686   2.723 -0.6341 -0.0963 -0.2341
   87SLPC   C31 8356   1.275   3.614   2.805 -0.5263  0.3675  0.1061
   87SLPC   O32 8357   1.358   3.528   2.780 -0.1693 -0.1067 -0.6666
   87SLPC   C32 8358   1.241   3.669   2.944 -0.1211  0.1384  0.7032
   87SLPC   H2X 8359   1.135   3.700   2.945  0.0393  0.7056  1.4698
   87SLPC   H2Y 8360   1.296   3.766   2.939 -0.3731  0.2401 -0.2004
   87SLPC   C23 8361   1.752   3.647   2.811  0.1217  0.0284 -0.2588
   87SLPC   H3R 8362   1.773   3.752   2.838  1.7024 -0.4827  0.5954
   87SLPC   H3S 8363   1.855   3.606   2.797 -0.2386 -0.7120 -0.8404
   87SLPC   C24 8364   1.684   3.591   2.934 -0.9770  0.1711  0.3255
   87SLPC   H4R 8365   1.675   3.482   2.917 -0.4340 -0.1594  1.9874
   87SLPC   H4S 8366   1.581   3.631   2.946 -0.7249  0.6557  0.9694
   87SLPC   C25 8367   1.767   3.603   3.066 -0.3944  0.5178  0.0663
   87SLPC   H5R 8368   1.813   3.704   3.073 -2.0113  1.1619  3.1201
   87SLPC   H5S 8369   1.851   3.530   3.068 -0.6652  0.1337 -1.3996
   87SLPC   C26 8370   1.685   3.588   3.192 -0.1290 -0.1300 -0.4628
   87SLPC   H6R 8371   1.631   3.491   3.187  1.0894 -0.8394 -0.4094
   87SLPC   H6S 8372   1.604   3.663   3.202 -1.2121 -1.2949 -0.1483
   87SLPC   C27 8373   1.771   3.596   3.316  0.1341 -0.2870  0.6286
   87SLPC   H7R 8374   1.813   3.699   3.316  0.8756 -0.5805  0.5733
   87SLPC   H7S 8375   1.857   3.529   3.298  0.8612  0.9488 -0.7196
   87SLPC   C28 8376   1.699   3.565   3.453  0.1235 -0.0557 -0.8507
   87SLPC   H8R 8377   1.774   3.545   3.533 -2.4933 -0.2797  1.7456
   87SLPC   H8S 8378   1.656   3.464   3.433  1.1189 -0.8409  0.7515
   87SLPC   C29 8379   1.608   3.665   3.507 -0.0302  0.2661 -0.4227
   87SLPC   H9R 8380   1.514   3.686   3.455 -0.7687  1.8815  1.4579
   87SLPC  C210 8381   1.630   3.741   3.618  0.9194 -0.0646  0.8807
   87SLPC  H10R 8382   1.564   3.827   3.638 -0.8036 -0.6063 -1.9196
   87SLPC  C211 8383   1.763   3.737   3.689  0.9402 -0.0016  0.0258
   87SLPC  H11R 8384   1.764   3.834   3.744 -0.9972 -0.0478  0.2100
   87SLPC  H11S 8385   1.850   3.754   3.623 -0.4521  1.0336 -1.6436
   87SLPC  C212 8386   1.782   3.613   3.779 -0.2220  0.5013 -0.3267
   87SLPC  H12R 8387   1.852   3.538   3.742 -1.4049 -0.2379 -1.1674
   87SLPC  C213 8388   1.734   3.589   3.900  0.3388  0.0825 -0.9294
   87SLPC  H13R 8389   1.773   3.502   3.954 -1.4800  1.0474  2.1275
   87SLPC  C214 8390   1.661   3.692   3.983  0.2176 -0.2205 -0.4409
   87SLPC  H14R 8391   1.553   3.671   3.996 -0.1854  2.2952  0.9810
   87SLPC  H14S 8392   1.659   3.790   3.930 -0.0843 -0.2983 -0.5770
   87SLPC  C215 8393   1.744   3.719   4.117 -0.1684  0.3559 -0.2500
   87SLPC  H15R 8394   1.812   3.637   4.150 -0.2725  0.0928 -0.6868
   87SLPC  H15S 8395   1.659   3.707   4.188 -0.8943 -2.2817 -1.4322
   87SLPC  C216 8396   1.803   3.862   4.137 -0.0672  0.0679  1.4807
   87SLPC  H16R 8397   1.754   3.924   4.059  0.4920 -1.4525 -0.1560
   87SLPC  H16S 8398   1.909   3.845   4.107 -0.7854 -0.2072 -1.2059
   87SLPC  C217 8399   1.799   3.922   4.277  0.5216 -0.5206  0.1918
   87SLPC  H17R 8400   1.890   3.986   4.285 -0.9073  1.6374 -0.1426
   87SLPC  H17S 8401   1.781   3.844   4.353 -0.7186 -0.5186 -0.0830
   87SLPC  C218 8402   1.683   4.018   4.307 -0.3920 -0.0458 -0.1311
   87SLPC  H18R 8403   1.680   4.088   4.221  1.2360 -1.1430 -1.1301
   87SLPC  H18S 8404   1.698   4.084   4.396 -1.3588  3.0830 -2.1074
   87SLPC  H18T 8405   1.584   3.969   4.314 -0.3389 -0.0103  1.2068
   87SLPC   C33 8406   1.282   3.582   3.062 -0.2041 -0.1360 -0.2702
   87SLPC   H3X 8407   1.392   3.574   3.075 -0.3058 -1.3766 -0.0389
   87SLPC   H3Y 8408   1.247   3.477   3.055  1.1144 -0.6767  0.9436
   87SLPC   C34 8409   1.217   3.651   3.186  0.1300  0.0657 -0.1418
   87SLPC   H4X 8410   1.112   3.641   3.151  0.0314  1.0379 -0.1695
   87SLPC   H4Y 8411   1.243   3.759   3.192  0.5552 -0.0410 -0.0553
   87SLPC   C35 8412   1.250   3.591   3.318  0.7735  0.8127  0.4717
   87SLPC   H5X 8413   1.361   3.594   3.320  0.9095 -1.6437 -0.1690
   87SLPC   H5Y 8414   1.212   3.487   3.314 -1.0575  1.4642 -0.3907
   87SLPC   C36 8415   1.175   3.666   3.432  0.5034  0.1291 -0.2598
   87SLPC   H6X 8416   1.067   3.676   3.407 -0.0273 -3.0445  0.3118
   87SLPC   H6Y 8417   1.224   3.765   3.444 -1.3223  1.2523 -1.6292
   87SLPC   C37 8418   1.182   3.587   3.565  0.1115  0.3041 -0.2671
   87SLPC   H7X 8419   1.284   3.544   3.576  0.8420  1.9990 -0.0281
   87SLPC   H7Y 8420   1.104   3.509   3.567 -1.2507  1.6314  1.2135
   87SLPC   C38 8421   1.172   3.687   3.683  0.0761  0.5697 -0.5932
   87SLPC   H8X 8422   1.080   3.748   3.673 -0.5377 -0.1066  0.7099
   87SLPC   H8Y 8423   1.250   3.766   3.676 -2.3462  3.0791 -1.0109
   87SLPC   C39 8424   1.176   3.609   3.818  0.0480  0.8716 -0.2015
   87SLPC   H9X 8425   1.251   3.529   3.802 -0.5748  0.0730  0.7694
   87SLPC   H9Y 8426   1.077   3.561   3.827 -0.6314  2.3808  0.9065
   87SLPC  C310 8427   1.195   3.687   3.945  0.6500  0.3186  0.4186
   87SLPC  H10X 8428   1.168   3.792   3.923  0.7862  0.6167  1.5989
   87SLPC  H10Y 8429   1.304   3.687   3.967  1.0415 -0.0527 -1.3400
   87SLPC  C311 8430   1.123   3.629   4.072 -0.4787  0.1142 -0.8144
   87SLPC  H11X 8431   1.180   3.543   4.111 -0.5086  1.7381  3.3604
   87SLPC  H11Y 8432   1.018   3.596   4.058 -1.1907  1.7011  0.4507
   87SLPC  C312 8433   1.138   3.726   4.188  0.3842 -0.2108  0.4833
   87SLPC  H12X 8434   1.074   3.810   4.154 -0.3413 -1.4125 -1.2724
   87SLPC  H12Y 8435   1.238   3.772   4.199  1.5690 -1.6597 -2.8734
   87SLPC  C313 8436   1.086   3.650   4.306  0.4676  0.2676 -0.4624
   87SLPC  H13X 8437   1.134   3.552   4.328  0.5352  0.3594 -0.1964
   87SLPC  H13Y 8438   0.979   3.621   4.294 -0.1500 -0.0133  3.9756
   87SLPC  C314 8439   1.103   3.730   4.434 -0.1628 -0.1481  0.5089
   87SLPC  H14X 8440   1.027   3.811   4.435 -0.1436 -0.0618 -1.4025
   87SLPC  H14Y 8441   1.204   3.777   4.425  0.7914 -2.2178 -0.2515
   87SLPC  C315 8442   1.068   3.643   4.548  0.5426 -0.4382  0.1721
   87SLPC  H15X 8443   1.053   3.536   4.519  1.3882 -0.3901 -0.4656
   87SLPC  H15Y 8444   0.969   3.666   4.594 -0.6494 -1.5217 -1.7020
   87SLPC  C316 8445   1.162   3.630   4.666  0.4423  0.3515 -0.2897
   87SLPC  H16X 8446   1.186   3.734   4.697  2.3816  0.0186 -0.5247
   87SLPC  H16Y 8447   1.260   3.588   4.635 -1.1078 -2.2689 -2.0361
   87SLPC  C317 8448   1.108   3.553   4.791 -0.3570 -0.1449  0.5718
   87SLPC  H17X 8449   0.999   3.574   4.802 -0.3275  0.1048  0.4011
   87SLPC  H17Y 8450   1.171   3.594   4.872 -0.0554  4.0024 -1.4753
   87SLPC  C318 8451   1.131   3.407   4.789  0.6545  0.2531  0.2127
   87SLPC  H18X 8452   1.094   3.371   4.888 -4.4646  0.5439 -1.2974
   87SLPC  H18Y 8453   1.236   3.372   4.776  0.5878 -0.3896  1.2932
   87SLPC  H18Z 8454   1.060   3.368   4.713 -0.2547  2.0775  0.0670
   88SLPC     N 8455   1.792   1.145   2.650  0.4944  0.3587  0.2330
   88SLPC   C13 8456   1.660   1.106   2.687  0.1114  0.0611  0.6529
   88SLPC  H13A 8457   1.676   1.063   2.785 -0.4989  0.3041  0.8671
   88SLPC  H13B 8458   1.597   1.194   2.682 -0.3939 -0.1904  2.1107
   88SLPC  H13C 8459   1.620   1.034   2.618 -0.5115  0.2637  0.7926
   88SLPC   C14 8460   1.787   1.199   2.513  0.3810  0.6107 -0.5083
   88SLPC  H14A 8461   1.887   1.215   2.473  0.8699  0.0661  0.4647
   88SLPC  H14B 8462   1.746   1.124   2.447 -1.8359  1.3205 -0.0070
   88SLPC  H14C 8463   1.726   1.288   2.508 -1.9476 -0.8721  0.1120
   88SLPC   C15 8464   1.886   1.029   2.647 -0.1515  0.2659 -0.4665
   88SLPC  H15A 8465   1.827   0.939   2.636  0.0500  0.2313 -1.3567
   88SLPC  H15B 8466   1.951   1.028   2.561  1.8098 -0.3128  0.9558
   88SLPC  H15C 8467   1.946   1.023   2.737 -0.5874  0.4376 -0.1619
   88SLPC   C12 8468   1.841   1.253   2.744 -0.1427  0.0171  0.1819
   88SLPC  H12A 8469   1.794   1.346   2.718 -2.1273 -0.7260  0.8853
   88SLPC  H12B 8470   1.946   1.262   2.723 -0.1138 -3.0344 -1.6256
   88SLPC   C11 8471   1.822   1.238   2.905 -0.0871  0.6172 -0.0323
   88SLPC  H11A 8472   1.714   1.237   2.930  0.0354  2.8069  0.7270
   88SLPC  H11B 8473   1.860   1.323   2.966 -0.4648  1.1181 -0.4874
   88SLPC     P 8474   1.874   1.050   3.081 -0.1232 -0.4266  0.1186
   88SLPC   O13 8475   1.755   1.102   3.149 -0.1824  0.0745 -0.3586
   88SLPC   O14 8476   1.872   0.904   3.066  0.2743  0.1198  0.2633
   88SLPC   O12 8477   1.887   1.118   2.942 -0.4710  0.5201  0.5592
   88SLPC   O11 8478   2.000   1.088   3.166 -0.2930  0.3173 -0.5969
   88SLPC    C1 8479   2.090   1.193   3.133  0.0972  0.3223 -0.3162
   88SLPC    HA 8480   2.182   1.148   3.092 -0.3294 -1.7539  0.8784
   88SLPC    HB 8481   2.049   1.266   3.059 -0.3950  2.1784  1.6896
   88SLPC    C2 8482   2.131   1.283   3.252  0.6188  0.4850 -0.7755
   88SLPC    HS 8483   2.157   1.219   3.340 -0.3195  1.4792  0.2577
   88SLPC   O21 8484   2.024   1.371   3.292 -0.5241 -0.3303  0.0479
   88SLPC   C21 8485   1.930   1.313   3.373  0.0664  0.2831 -0.0763
   88SLPC   O22 8486   1.944   1.206   3.429  0.3788  0.1065  1.1955
   88SLPC   C22 8487   1.814   1.418   3.392 -0.1391  0.2993 -0.4347
   88SLPC   H2R 8488   1.859   1.518   3.408 -0.9888  0.5305  0.6236
   88SLPC   H2S 8489   1.764   1.415   3.293 -0.6576 -5.7012 -0.3579
   88SLPC    C3 8490   2.266   1.360   3.243 -0.7147  0.0608  0.4833
   88SLPC    HX 8491   2.248   1.455   3.188 -0.5429  2.8882  4.8083
   88SLPC    HY 8492   2.333   1.295   3.183 -0.1291  0.2840  0.8881
   88SLPC   O31 8493   2.318   1.386   3.381  0.2326 -0.9504 -0.1060
   88SLPC   C31 8494   2.402   1.294   3.431  0.2323 -0.1029 -0.1880
   88SLPC   O32 8495   2.448   1.200   3.370  1.1727  0.2269 -0.2003
   88SLPC   C32 8496   2.441   1.336   3.575  0.1947  0.0582 -0.4750
   88SLPC   H2X 8497   2.407   1.439   3.600 -4.7019 -1.1706 -0.9731
   88SLPC   H2Y 8498   2.549   1.314   3.581  0.0861 -0.6090 -0.7704
   88SLPC   C23 8499   1.719   1.369   3.499 -0.0315 -0.6896  0.2599
   88SLPC   H3R 8500   1.776   1.343   3.591 -0.1378  0.4074  0.6509
   88SLPC   H3S 8501   1.656   1.293   3.449 -1.5634  0.7599 -0.1228
   88SLPC   C24 8502   1.620   1.485   3.543  0.7560  0.3348 -0.2287
   88SLPC   H4R 8503   1.562   1.526   3.458 -0.3636  1.9447  1.2403
   88SLPC   H4S 8504   1.682   1.570   3.580 -0.3382  0.8766  0.3976
   88SLPC   C25 8505   1.515   1.455   3.653  0.3828  0.7488  0.9153
   88SLPC   H5R 8506   1.459   1.364   3.624 -1.5834  1.4418  2.2900
   88SLPC   H5S 8507   1.445   1.542   3.648  0.0756  0.4764  0.4119
   88SLPC   C26 8508   1.572   1.442   3.798  0.0286  0.5178  0.2027
   88SLPC   H6R 8509   1.613   1.541   3.826 -0.9263  0.7164  0.9508
   88SLPC   H6S 8510   1.653   1.366   3.793 -0.2599  0.0971  1.3836
   88SLPC   C27 8511   1.459   1.396   3.896 -0.3772 -0.4106 -0.2318
   88SLPC   H7R 8512   1.394   1.327   3.839 -1.2400  1.3055 -1.4308
   88SLPC   H7S 8513   1.400   1.488   3.913  0.6280  0.7444 -2.5087
   88SLPC   C28 8514   1.498   1.320   4.019 -0.3318  0.2245  0.4706
   88SLPC   H8R 8515   1.582   1.257   3.983  0.1500  0.9961  0.2110
   88SLPC   H8S 8516   1.422   1.247   4.054  2.3075 -2.7477  0.4996
   88SLPC   C29 8517   1.535   1.408   4.136  0.5248 -0.6799 -0.2157
   88SLPC   H9R 8518   1.542   1.516   4.117  0.0100 -0.7319 -0.7309
   88SLPC  C210 8519   1.563   1.371   4.261 -0.8253  0.1453 -0.6857
   88SLPC  H10R 8520   1.572   1.446   4.340  1.0632  0.6865 -1.3690
   88SLPC  C211 8521   1.568   1.224   4.301  0.1325 -0.0909  0.5781
   88SLPC  H11R 8522   1.670   1.196   4.337  0.9742  1.6293 -0.3253
   88SLPC  H11S 8523   1.557   1.153   4.217  0.5292  0.7020 -0.1681
   88SLPC  C212 8524   1.467   1.195   4.406  0.3631 -0.5829 -0.7062
   88SLPC  H12R 8525   1.376   1.149   4.365 -0.5291  1.2840 -0.9150
   88SLPC  C213 8526   1.481   1.211   4.538 -0.1940 -0.2104 -0.1495
   88SLPC  H13R 8527   1.402   1.186   4.610  0.6031  0.8206  1.1212
   88SLPC  C214 8528   1.596   1.270   4.619  0.1705 -0.3373  0.3067
   88SLPC  H14R 8529   1.570   1.376   4.636  0.5162 -0.2550  0.3318
   88SLPC  H14S 8530   1.698   1.272   4.575  1.3985  0.5948  2.9754
   88SLPC  C215 8531   1.596   1.209   4.759  0.3765 -0.4957  0.4708
   88SLPC  H15R 8532   1.496   1.224   4.805  0.5111 -0.6286  0.8150
   88SLPC  H15S 8533   1.656   1.276   4.824 -0.9661  0.4688  0.7637
   88SLPC  C216 8534   1.650   1.065   4.769 -0.4577 -0.1343  0.4870
   88SLPC  H16R 8535   1.750   1.054   4.723 -1.6014 -1.3244 -1.9133
   88SLPC  H16S 8536   1.586   1.009   4.697  1.7508  1.0288 -2.6345
   88SLPC  C217 8537   1.623   1.014   4.910  0.6600  0.2402 -0.7326
   88SLPC  H17R 8538   1.655   0.908   4.920  1.2064  0.4760  0.1191
   88SLPC  H17S 8539   1.513   1.007   4.921  0.5355  1.3464 -1.1250
   88SLPC  C218 8540   1.681   1.100   5.021  0.2168  0.0185 -0.2030
   88SLPC  H18R 8541   1.642   1.203   5.034  1.5862  0.4293  0.9712
   88SLPC  H18S 8542   1.790   1.115   5.004  0.3957 -0.0876  0.7792
   88SLPC  H18T 8543   1.672   1.049   5.119  0.2412  2.1772  0.9799
   88SLPC   C33 8544   2.376   1.244   3.684  0.1252  0.1695 -0.4147
   88SLPC   H3X 8545   2.373   1.139   3.649 -1.7288  0.3448 -0.8809
   88SLPC   H3Y 8546   2.277   1.279   3.720  0.6616  0.9765  0.3032
   88SLPC   C34 8547   2.448   1.263   3.820 -0.1882 -0.2199 -0.1692
   88SLPC   H4X 8548   2.469   1.370   3.838  1.4803 -0.2725 -1.5011
   88SLPC   H4Y 8549   2.556   1.234   3.817  0.0984  0.6253  1.3469
   88SLPC   C35 8550   2.380   1.192   3.930 -0.3400 -0.6199 -0.7788
   88SLPC   H5X 8551   2.351   1.089   3.900 -2.1767 -0.2065 -0.5697
   88SLPC   H5Y 8552   2.288   1.249   3.957 -1.2927 -3.3163  2.3758
   88SLPC   C36 8553   2.465   1.180   4.057 -0.8282  0.1659  0.1613
   88SLPC   H6X 8554   2.499   1.286   4.055  1.0065 -0.3618  1.0819
   88SLPC   H6Y 8555   2.545   1.104   4.048 -0.5907  0.2782  1.1880
   88SLPC   C37 8556   2.374   1.149   4.178 -0.2148 -0.1926  0.4016
   88SLPC   H7X 8557   2.304   1.072   4.139 -1.1889 -0.3374  2.3370
   88SLPC   H7Y 8558   2.306   1.235   4.196 -0.8738 -0.7517  0.6452
   88SLPC   C38 8559   2.459   1.130   4.303  0.0460  0.2150 -0.3409
   88SLPC   H8X 8560   2.526   1.219   4.312  0.0807  0.1255  0.3551
   88SLPC   H8Y 8561   2.524   1.041   4.293  1.0815  0.8195  0.6965
   88SLPC   C39 8562   2.390   1.129   4.436  0.3676  0.1731  0.6967
   88SLPC   H9X 8563   2.331   1.035   4.442 -1.9803  1.2504 -2.4237
   88SLPC   H9Y 8564   2.318   1.214   4.441  0.3808  0.1290  1.7734
   88SLPC  C310 8565   2.468   1.141   4.569  0.3085 -0.3566 -0.8148
   88SLPC  H10X 8566   2.391   1.127   4.649  0.4391  0.9408 -0.4480
   88SLPC  H10Y 8567   2.522   1.236   4.587  2.4416 -1.3317 -1.7014
   88SLPC  C311 8568   2.576   1.029   4.595  0.1015 -1.1766  0.8061
   88SLPC  H11X 8569   2.667   1.050   4.536  0.7196 -4.3470  0.4678
   88SLPC  H11Y 8570   2.540   0.938   4.543  3.4714 -1.5815 -1.0899
   88SLPC  C312 8571   2.615   1.011   4.739 -0.6146 -0.8770 -0.1683
   88SLPC  H12X 8572   2.612   0.901   4.748  0.1341 -1.0320 -1.4781
   88SLPC  H12Y 8573   2.527   1.047   4.797  0.5165 -0.8460  1.5903
   88SLPC  C313 8574   2.750   1.080   4.773  0.0452  0.0663  0.6461
   88SLPC  H13X 8575   2.751   1.191   4.765  0.6749  0.0464  0.3759
   88SLPC  H13Y 8576   2.837   1.055   4.709 -0.7640  0.7120 -0.7668
   88SLPC  C314 8577   2.788   1.057   4.920  0.1631  0.3066  0.4752
   88SLPC  H14X 8578   2.787   0.948   4.944  1.1622  0.2385  0.2478
   88SLPC  H14Y 8579   2.704   1.101   4.978  0.3037  0.8077  0.2978
   88SLPC  C315 8580   2.924   1.127   4.963  0.1808  0.5613 -0.9798
   88SLPC  H15X 8581   2.924   1.233   4.930  2.0790  0.3006 -1.9844
   88SLPC  H15Y 8582   3.011   1.080   4.911  0.4647  0.2633 -0.2381
   88SLPC  C316 8583   2.948   1.139   5.117 -0.0585 -0.3586  0.2483
   88SLPC  H16X 8584   2.870   1.197   5.170  0.5011 -0.7024  1.5020
   88SLPC  H16Y 8585   3.045   1.193   5.124  0.5158 -1.3309  0.0649
   88SLPC  C317 8586   2.972   0.998   5.177  0.2197  0.4318  0.2688
   88SLPC  H17X 8587   3.058   0.966   5.115 -1.5735 -1.5952 -1.3429
   88SLPC  H17Y 8588   2.885   0.931   5.159 -0.5283  1.3295  0.4330
   88SLPC  C318 8589   3.011   0.994   5.320  0.2211 -0.4889  0.2699
   88SLPC  H18X 8590   3.088   1.071   5.343  0.5860 -0.7788  0.0432
   88SLPC  H18Y 8591   3.046   0.891   5.340 -0.6136 -1.0028 -0.8188
   88SLPC  H18Z 8592   2.925   1.021   5.385 -2.0370 -0.9211 -2.3590
   89SAPE     N 8593   6.275   1.958   6.903  0.3403 -0.1563 -0.4543
   89SAPE   HN1 8594   6.355   1.972   6.838  1.1908 -0.7029  0.4610
   89SAPE   HN2 8595   6.236   2.043   6.949  1.7303 -1.2180  2.9475
   89SAPE   HN3 8596   6.314   1.892   6.972 -0.8012 -1.7940 -1.3083
   89SAPE   C12 8597   6.170   1.878   6.831 -0.2319 -0.3898 -0.8605
   89SAPE  H12A 8598   6.122   1.942   6.755 -1.9950 -0.9528 -0.2653
   89SAPE  H12B 8599   6.097   1.846   6.909  2.6843 -0.6304  2.0104
   89SAPE   C11 8600   6.231   1.760   6.760  0.1083 -0.0428  0.0405
   89SAPE  H11A 8601   6.287   1.803   6.674 -1.9052  1.7575 -0.4525
   89SAPE  H11B 8602   6.147   1.699   6.722 -2.1208  2.0552  1.2524
   89SAPE     P 8603   6.343   1.529   6.822 -0.1714 -0.3593  0.0281
   89SAPE   O13 8604   6.464   1.485   6.900 -0.4232  0.5922 -0.4492
   89SAPE   O14 8605   6.217   1.454   6.850  0.8475  0.2200 -0.2680
   89SAPE   O12 8606   6.314   1.683   6.852  1.0748 -0.1356 -0.7865
   89SAPE   O11 8607   6.389   1.520   6.669 -0.0156  0.0120  0.1675
   89SAPE    C1 8608   6.518   1.548   6.617  0.6278 -0.6669  0.4142
   89SAPE    HA 8609   6.596   1.588   6.685  0.1919  1.5278 -0.2887
   89SAPE    HB 8610   6.558   1.452   6.580 -1.0164 -0.7232 -1.3390
   89SAPE    C2 8611   6.508   1.656   6.506 -0.6060  0.0188  0.3033
   89SAPE    HS 8612   6.459   1.737   6.565  0.0604  0.2751  0.5126
   89SAPE   O21 8613   6.431   1.601   6.399  0.2978  0.7779  0.2607
   89SAPE   C21 8614   6.369   1.701   6.325  0.5772 -0.0394 -0.0736
   89SAPE   O22 8615   6.355   1.812   6.360  0.1227 -0.0973  0.2919
   89SAPE   C22 8616   6.321   1.635   6.197  0.5065  0.8433  0.2078
   89SAPE   H2R 8617   6.417   1.622   6.142  1.4514 -1.9740  2.2985
   89SAPE   H2S 8618   6.270   1.541   6.228 -1.5464  2.5159  2.3179
   89SAPE    C3 8619   6.657   1.686   6.465 -0.0322 -0.0112 -0.2221
   89SAPE    HX 8620   6.707   1.590   6.440 -0.7729 -1.3992  3.0885
   89SAPE    HY 8621   6.716   1.721   6.554  2.8994 -4.3204 -0.1866
   89SAPE   O31 8622   6.665   1.779   6.359 -0.3508  0.4125 -0.4539
   89SAPE   C31 8623   6.654   1.907   6.385 -0.3393  0.3864 -0.4676
   89SAPE   O32 8624   6.674   1.956   6.496  0.2219 -0.0168  0.2619
   89SAPE   C32 8625   6.610   1.981   6.259 -0.6425 -0.3403 -0.5725
   89SAPE   H2X 8626   6.674   2.071   6.245 -1.0660 -0.0366 -0.5876
   89SAPE   H2Y 8627   6.511   2.030   6.270  0.4194  1.8353 -0.0528
   89SAPE   C23 8628   6.218   1.715   6.109  0.2921  0.0503  0.5178
   89SAPE   H3R 8629   6.254   1.820   6.103 -1.7134  0.8116  0.9794
   89SAPE   H3S 8630   6.118   1.723   6.157 -0.1968  1.0917 -0.6448
   89SAPE   C24 8631   6.217   1.670   5.968  0.6576  0.4350  0.3605
   89SAPE   H4R 8632   6.319   1.647   5.931  0.5529  0.1912  0.2183
   89SAPE   H4S 8633   6.207   1.755   5.898  1.9897  0.1617 -0.1923
   89SAPE   C25 8634   6.119   1.552   5.925 -0.3513 -0.4122 -0.1489
   89SAPE   H5R 8635   6.106   1.477   6.005  2.4429 -1.0760 -0.2132
   89SAPE   C26 8636   6.024   1.553   5.824  0.8387  0.5471 -0.8435
   89SAPE   H6R 8637   5.967   1.459   5.818 -0.4972  1.2841 -0.1939
   89SAPE   C27 8638   5.995   1.659   5.718  0.5930 -0.5423 -0.2543
   89SAPE   H7R 8639   6.091   1.712   5.699  0.4773 -0.5175 -0.7727
   89SAPE   H7S 8640   5.932   1.737   5.766  1.7844 -0.1260  0.6823
   89SAPE   C28 8641   5.922   1.609   5.592 -0.1366 -0.4131  0.2482
   89SAPE   H8R 8642   5.827   1.561   5.620  1.2662 -2.3975  1.8990
   89SAPE   C29 8643   5.960   1.638   5.463  0.2046 -0.4220 -0.4675
   89SAPE   H9R 8644   5.889   1.601   5.388 -2.0140 -1.7779  2.0898
   89SAPE  C210 8645   6.078   1.722   5.416  0.8831 -0.7293  0.1184
   89SAPE  H10R 8646   6.168   1.703   5.479  0.9652 -2.3667 -0.4505
   89SAPE  H10S 8647   6.049   1.828   5.432 -0.0200 -0.5141 -2.5562
   89SAPE  C211 8648   6.126   1.696   5.277  0.4788 -0.6554  0.0064
   89SAPE  H11R 8649   6.235   1.694   5.264  0.4510  0.5517 -0.5141
   89SAPE  C212 8650   6.059   1.702   5.162 -0.2544 -0.4163  0.9263
   89SAPE  H12R 8651   6.114   1.693   5.067 -0.0033  1.5481  0.8568
   89SAPE  C213 8652   5.907   1.714   5.152  0.0462 -0.1848  0.5160
   89SAPE  H13R 8653   5.863   1.732   5.252 -0.0963 -1.3896  0.6873
   89SAPE  H13S 8654   5.865   1.621   5.107 -2.2918  1.1339 -0.1846
   89SAPE  C214 8655   5.846   1.827   5.067 -0.1847  0.3239 -1.1055
   89SAPE  H14R 8656   5.907   1.917   5.086  1.1926 -1.1104  1.8748
   89SAPE  C215 8657   5.732   1.825   4.995 -0.1063  0.1831  0.3112
   89SAPE  H15R 8658   5.711   1.920   4.944  0.9070 -0.1994 -0.8792
   89SAPE  C216 8659   5.643   1.708   4.967  0.2555 -0.4643 -0.1752
   89SAPE  H16R 8660   5.539   1.746   4.973  1.0820  1.9761 -0.0790
   89SAPE  H16S 8661   5.658   1.618   5.030  0.5157 -0.6740 -0.5279
   89SAPE  C217 8662   5.653   1.675   4.814 -0.2967  0.1983  0.0152
   89SAPE  H17R 8663   5.613   1.755   4.748  1.1886 -0.0133 -1.1995
   89SAPE  H17S 8664   5.589   1.586   4.793 -0.4222  0.5296 -1.0665
   89SAPE  C218 8665   5.793   1.647   4.768 -0.0817 -0.0795 -0.1436
   89SAPE  H18R 8666   5.839   1.555   4.811  2.1073  0.9416 -0.1242
   89SAPE  H18S 8667   5.867   1.725   4.798  1.4496 -1.1115 -1.0550
   89SAPE  C219 8668   5.803   1.649   4.612  0.2774 -0.6600 -0.2259
   89SAPE  H19R 8669   5.777   1.745   4.563 -0.1017 -1.1848 -1.0930
   89SAPE  H19S 8670   5.720   1.580   4.585 -2.0058  1.6328  0.5630
   89SAPE  C220 8671   5.930   1.595   4.554 -0.2772 -0.7734  1.2170
   89SAPE  H20R 8672   6.019   1.652   4.589  1.0690 -2.3291  0.4326
   89SAPE  H20S 8673   5.937   1.603   4.444  2.1464 -3.8240  1.0390
   89SAPE  H20T 8674   5.936   1.487   4.576  1.3753 -0.6476  1.4778
   89SAPE   C33 8675   6.629   1.907   6.126 -0.0931 -0.2639  0.8087
   89SAPE   H3X 8676   6.545   1.833   6.123 -1.2784  1.0366  0.7573
   89SAPE   H3Y 8677   6.716   1.840   6.113 -0.7473 -0.8813 -0.5101
   89SAPE   C34 8678   6.613   2.002   6.004  0.1658  0.0761  0.2014
   89SAPE   H4X 8679   6.688   2.083   6.018  1.5736 -1.1178 -0.1550
   89SAPE   H4Y 8680   6.512   2.044   6.022 -0.9208 -0.9698 -2.9558
   89SAPE   C35 8681   6.634   1.940   5.868 -0.6212 -0.0221 -0.1410
   89SAPE   H5X 8682   6.735   1.911   5.833 -1.5263 -1.9612 -1.3293
   89SAPE   H5Y 8683   6.597   2.018   5.798 -0.4482 -0.7911 -1.1001
   89SAPE   C36 8684   6.543   1.817   5.852 -0.2071  0.5394 -0.0042
   89SAPE   H6X 8685   6.439   1.843   5.882 -1.2902 -1.1018 -2.0634
   89SAPE   H6Y 8686   6.585   1.732   5.910  0.8940 -0.7726 -2.6043
   89SAPE   C37 8687   6.536   1.764   5.706  0.2788  0.2794  0.0153
   89SAPE   H7X 8688   6.631   1.720   5.668  0.8168  0.5197  1.0461
   89SAPE   H7Y 8689   6.527   1.847   5.633 -0.3614 -0.5599 -0.8796
   89SAPE   C38 8690   6.420   1.667   5.677 -0.0295 -0.0725  0.0627
   89SAPE   H8X 8691   6.327   1.726   5.690 -0.4163 -0.8115  0.6907
   89SAPE   H8Y 8692   6.414   1.580   5.746 -0.0009 -1.0672 -1.1637
   89SAPE   C39 8693   6.415   1.615   5.536  0.3622 -0.4627 -0.0032
   89SAPE   H9X 8694   6.394   1.700   5.467 -0.1726  0.2951  1.0604
   89SAPE   H9Y 8695   6.328   1.547   5.530  2.2957 -2.9317 -2.2417
   89SAPE  C310 8696   6.520   1.524   5.474 -0.1775  0.2533 -0.1460
   89SAPE  H10X 8697   6.515   1.438   5.544  0.6349 -0.2149 -0.6429
   89SAPE  H10Y 8698   6.614   1.583   5.482 -1.4848  2.7423 -2.0258
   89SAPE  C311 8699   6.491   1.483   5.323  0.4790 -0.5865  0.0786
   89SAPE  H11X 8700   6.495   1.572   5.258  1.2178 -2.4301 -2.5337
   89SAPE  H11Y 8701   6.387   1.444   5.316 -0.0652  0.5512  1.2459
   89SAPE  C312 8702   6.594   1.385   5.269  0.2641  0.5858  0.2656
   89SAPE  H12X 8703   6.600   1.317   5.357 -1.5197  0.0250  0.0023
   89SAPE  H12Y 8704   6.688   1.442   5.253 -0.6163  1.2295 -3.5655
   89SAPE  C313 8705   6.552   1.301   5.149 -0.7005  0.0018  0.8300
   89SAPE  H13X 8706   6.506   1.360   5.066 -0.2024 -0.3614  0.2827
   89SAPE  H13Y 8707   6.470   1.238   5.189  0.3961 -1.2726  1.1426
   89SAPE  C314 8708   6.671   1.232   5.083  0.3801 -0.3024 -0.2159
   89SAPE  H14X 8709   6.706   1.144   5.141  1.7222 -0.7231 -1.5674
   89SAPE  H14Y 8710   6.757   1.303   5.074  0.3941 -0.1420  1.0694
   89SAPE  C315 8711   6.640   1.185   4.946  0.3254 -0.4928  0.7824
   89SAPE  H15X 8712   6.607   1.259   4.870  0.5856 -2.2452 -1.1434
   89SAPE  H15Y 8713   6.555   1.115   4.960 -1.9134  1.6889 -1.0478
   89SAPE  C316 8714   6.760   1.107   4.871  0.4854 -0.6703  0.2436
   89SAPE  H16X 8715   6.722   1.045   4.787  1.0579 -0.4247 -0.2029
   89SAPE  H16Y 8716   6.811   1.047   4.949  2.4621  0.8069  0.1485
   89SAPE  C317 8717   6.855   1.213   4.816 -0.1223 -0.0058 -0.0190
   89SAPE  H17X 8718   6.960   1.179   4.823  0.2210  0.4628 -2.0882
   89SAPE  H17Y 8719   6.856   1.295   4.891  1.5049 -1.1113  1.2336
   89SAPE  C318 8720   6.829   1.254   4.670 -0.6639 -0.6076  0.2593
   89SAPE  H18X 8721   6.815   1.158   4.616 -2.0494 -0.3446  0.1190
   89SAPE  H18Y 8722   6.912   1.324   4.645 -0.3759 -0.1483  2.2731
   89SAPE  H18Z 8723   6.730   1.303   4.661 -0.7101 -0.9364 -1.2807
   90SAPE     N 8724   0.389   1.673   6.710  0.2183 -0.1129  0.0552
   90SAPE   HN1 8725   0.492   1.680   6.708  0.3158 -1.1839  0.7542
   90SAPE   HN2 8726   0.359   1.653   6.613 -1.1839  2.1618 -0.0725
   90SAPE   HN3 8727   0.341   1.762   6.737 -0.4558 -0.3854 -0.2322
   90SAPE   C12 8728   0.360   1.568   6.811 -0.2600 -0.2666 -0.5935
   90SAPE  H12A 8729   0.431   1.579   6.895  1.6775  2.1736 -2.3870
   90SAPE  H12B 8730   0.371   1.477   6.748  1.0030 -1.1735  0.8799
   90SAPE   C11 8731   0.209   1.578   6.854 -0.2261  0.2746  0.1356
   90SAPE  H11A 8732   0.212   1.663   6.926 -0.6586  1.0856 -0.7887
   90SAPE  H11B 8733   0.176   1.488   6.911 -1.4773 -0.2790 -1.3969
   90SAPE     P 8734  -0.038   1.586   6.771 -0.5093 -0.1933  0.0618
   90SAPE   O13 8735  -0.070   1.486   6.869  0.2373  0.1604 -0.3354
   90SAPE   O14 8736  -0.097   1.720   6.806  0.0991  0.7090 -0.2544
   90SAPE   O12 8737   0.119   1.594   6.741  0.1177  0.2270  0.3051
   90SAPE   O11 8738  -0.089   1.543   6.629  0.2341 -0.4609  0.6990
   90SAPE    C1 8739  -0.023   1.432   6.558  0.1973  0.3772 -0.8312
   90SAPE    HA 8740   0.048   1.370   6.617 -0.3188 -0.3469 -0.9527
   90SAPE    HB 8741  -0.099   1.362   6.515  0.1822  0.8902 -1.6602
   90SAPE    C2 8742   0.060   1.486   6.433 -0.5339  0.5511 -0.4179
   90SAPE    HS 8743   0.093   1.589   6.461  0.2046  0.6413 -1.5732
   90SAPE   O21 8744  -0.029   1.492   6.319  0.0972  0.3120 -0.2459
   90SAPE   C21 8745   0.001   1.580   6.225 -0.1558 -0.0399 -0.6250
   90SAPE   O22 8746   0.093   1.661   6.231  0.1847  0.0065  0.0068
   90SAPE   C22 8747  -0.096   1.574   6.101  0.5251 -0.1144  0.0162
   90SAPE   H2R 8748  -0.200   1.600   6.129  0.1569  0.3372 -1.6216
   90SAPE   H2S 8749  -0.058   1.646   6.025  1.1655 -1.2373 -0.7686
   90SAPE    C3 8750   0.192   1.403   6.402  0.0490 -0.2229  0.0319
   90SAPE    HX 8751   0.165   1.300   6.370  0.7860 -0.9772  1.7300
   90SAPE    HY 8752   0.254   1.388   6.492 -0.3510  0.0755  0.3589
   90SAPE   O31 8753   0.281   1.464   6.296 -0.1091 -0.2996  0.2157
   90SAPE   C31 8754   0.352   1.571   6.334 -0.0173  0.7199  0.3558
   90SAPE   O32 8755   0.367   1.611   6.445  0.0651 -0.2888  0.2367
   90SAPE   C32 8756   0.413   1.629   6.205 -0.2883 -1.0521  0.3493
   90SAPE   H2X 8757   0.334   1.652   6.130 -0.7638  0.1240  1.1855
   90SAPE   H2Y 8758   0.489   1.557   6.170  1.0902 -0.6443  2.3566
   90SAPE   C23 8759  -0.095   1.439   6.019  0.1343 -0.1216  0.2866
   90SAPE   H3R 8760  -0.163   1.466   5.936 -0.7755  1.1112  1.3987
   90SAPE   H3S 8761  -0.134   1.352   6.076 -3.9420  1.3817  0.1372
   90SAPE   C24 8762   0.041   1.391   5.955 -1.1317 -0.9531  0.3952
   90SAPE   H4R 8763   0.026   1.300   5.895 -0.1933 -0.0995 -1.1984
   90SAPE   H4S 8764   0.115   1.355   6.030  1.3276  1.5709 -0.6149
   90SAPE   C25 8765   0.104   1.503   5.881  0.3689  0.1901  0.8016
   90SAPE   H5R 8766   0.177   1.559   5.941  3.0012 -2.3858  0.1876
   90SAPE   C26 8767   0.096   1.519   5.746 -0.5932  0.5983  0.0428
   90SAPE   H6R 8768   0.164   1.594   5.704 -0.7615  0.0172 -1.3300
   90SAPE   C27 8769   0.015   1.436   5.645 -0.3165 -0.4142 -0.6741
   90SAPE   H7R 8770  -0.079   1.411   5.698 -0.5722  1.9829  0.1133
   90SAPE   H7S 8771   0.060   1.335   5.635  0.4092 -0.1925  0.2015
   90SAPE   C28 8772  -0.008   1.488   5.509  0.6564  0.7186  1.0484
   90SAPE   H8R 8773  -0.059   1.584   5.496 -0.6954 -0.1550 -0.5777
   90SAPE   C29 8774   0.016   1.424   5.395  0.1185 -0.3454  0.4371
   90SAPE   H9R 8775  -0.006   1.473   5.299  0.8672 -1.1200 -0.1540
   90SAPE  C210 8776   0.079   1.282   5.390 -0.2832  0.1791  0.3004
   90SAPE  H10R 8777   0.044   1.217   5.473  0.7205 -1.3634 -0.4340
   90SAPE  H10S 8778   0.189   1.293   5.397 -0.3334  0.7378  0.2428
   90SAPE  C211 8779   0.034   1.200   5.264  0.3834 -0.4672 -0.8178
   90SAPE  H11R 8780  -0.063   1.150   5.280  0.8161 -1.5671 -1.5397
   90SAPE  C212 8781   0.096   1.198   5.145  0.2291 -0.1475  0.0822
   90SAPE  H12R 8782   0.045   1.129   5.076  1.7000  0.2929 -1.5156
   90SAPE  C213 8783   0.224   1.263   5.102 -0.5431  0.3039 -0.7528
   90SAPE  H13R 8784   0.300   1.192   5.060  0.9099  0.2877  1.7153
   90SAPE  H13S 8785   0.268   1.295   5.199  0.2276 -1.5786 -0.4119
   90SAPE  C214 8786   0.197   1.389   5.024 -0.5744 -0.2402 -0.3683
   90SAPE  H14R 8787   0.141   1.466   5.079  0.0288 -0.9180  1.2601
   90SAPE  C215 8788   0.245   1.415   4.904 -0.3265  0.0743  0.0600
   90SAPE  H15R 8789   0.221   1.516   4.867 -2.3960 -0.6822 -0.8249
   90SAPE  C216 8790   0.321   1.329   4.809  0.1725  0.1423  0.1295
   90SAPE  H16R 8791   0.291   1.358   4.706 -1.6298 -1.5553  0.1209
   90SAPE  H16S 8792   0.293   1.222   4.821 -1.1309  0.2962 -1.2436
   90SAPE  C217 8793   0.475   1.356   4.838  0.3952  0.4753  0.8203
   90SAPE  H17R 8794   0.491   1.465   4.826  1.3709  0.3610  0.9713
   90SAPE  H17S 8795   0.526   1.311   4.750 -0.9054 -0.2395  0.3948
   90SAPE  C218 8796   0.538   1.296   4.961  0.9390  0.6688  0.2484
   90SAPE  H18R 8797   0.487   1.198   4.977 -2.2177  2.1151 -0.1612
   90SAPE  H18S 8798   0.508   1.355   5.051 -0.4814 -2.1569  1.7985
   90SAPE  C219 8799   0.690   1.278   4.953  0.1733 -0.3760  0.8933
   90SAPE  H19R 8800   0.709   1.254   4.847  0.0608  2.0014  0.2874
   90SAPE  H19S 8801   0.731   1.199   5.019 -0.0854 -1.4016 -0.1435
   90SAPE  C220 8802   0.761   1.409   4.983  0.0915 -0.1158  0.3955
   90SAPE  H20R 8803   0.864   1.398   4.941  0.2837  0.8507  0.5771
   90SAPE  H20S 8804   0.766   1.426   5.093 -0.9423 -0.1567  0.4588
   90SAPE  H20T 8805   0.711   1.496   4.934 -0.5589 -0.4728  0.4175
   90SAPE   C33 8806   0.483   1.770   6.221  0.1557  0.2710 -1.2028
   90SAPE   H3X 8807   0.560   1.757   6.301 -1.9232 -3.8679  0.4382
   90SAPE   H3Y 8808   0.417   1.849   6.263  0.2251  0.4095 -1.3499
   90SAPE   C34 8809   0.533   1.827   6.090 -0.6466 -0.3534 -0.5897
   90SAPE   H4X 8810   0.506   1.935   6.085 -0.4312 -0.3351 -1.4944
   90SAPE   H4Y 8811   0.484   1.763   6.014  0.0325 -2.1076  0.3976
   90SAPE   C35 8812   0.686   1.823   6.071 -0.2199 -0.4721  0.3995
   90SAPE   H5X 8813   0.717   1.717   6.062 -1.0312 -0.7151  0.4485
   90SAPE   H5Y 8814   0.718   1.870   6.167 -0.2036 -1.2392  0.7786
   90SAPE   C36 8815   0.741   1.897   5.954 -0.1360  0.0500  0.1285
   90SAPE   H6X 8816   0.717   2.006   5.953  1.2421  0.4017  1.7293
   90SAPE   H6Y 8817   0.686   1.846   5.872 -0.4682 -0.1004  0.4448
   90SAPE   C37 8818   0.891   1.876   5.932 -0.1850 -0.0830 -0.8097
   90SAPE   H7X 8819   0.914   1.770   5.955 -0.8752 -0.3576 -1.3432
   90SAPE   H7Y 8820   0.946   1.939   6.005 -0.9115 -0.3389 -0.0240
   90SAPE   C38 8821   0.944   1.909   5.789 -0.4364  0.0272  0.0147
   90SAPE   H8X 8822   1.043   1.861   5.777 -1.1009 -0.6746 -3.5955
   90SAPE   H8Y 8823   0.972   2.016   5.785  0.3611 -0.0924  1.4385
   90SAPE   C39 8824   0.859   1.871   5.670 -0.4037 -0.1581 -0.1089
   90SAPE   H9X 8825   0.751   1.894   5.671 -0.5644 -0.7755  2.2487
   90SAPE   H9Y 8826   0.868   1.760   5.668 -2.4395 -0.3723  0.3937
   90SAPE  C310 8827   0.920   1.945   5.544 -0.5154  0.3819 -0.3423
   90SAPE  H10X 8828   1.031   1.938   5.546 -0.5422 -0.0906 -0.5431
   90SAPE  H10Y 8829   0.888   2.052   5.540 -0.7239  0.2768 -2.1517
   90SAPE  C311 8830   0.862   1.873   5.416 -0.0437 -0.9407 -0.3519
   90SAPE  H11X 8831   0.756   1.845   5.427 -0.6799  0.8674 -1.4123
   90SAPE  H11Y 8832   0.910   1.776   5.394  0.5275 -0.6504 -0.4175
   90SAPE  C312 8833   0.861   1.958   5.290  0.0123 -0.4428  1.1060
   90SAPE  H12X 8834   0.948   2.027   5.287 -1.4999  1.5089 -0.8964
   90SAPE  H12Y 8835   0.773   2.025   5.303 -0.8997 -1.1386 -1.0924
   90SAPE  C313 8836   0.853   1.872   5.162  0.1408  0.1550  0.0642
   90SAPE  H13X 8837   0.759   1.815   5.145  0.4870  0.1361 -2.1146
   90SAPE  H13Y 8838   0.935   1.797   5.170  0.2479  0.4316  2.3999
   90SAPE  C314 8839   0.883   1.960   5.039 -0.3798  0.4083 -0.4260
   90SAPE  H14X 8840   0.964   2.032   5.061  0.7502 -0.4562 -1.5675
   90SAPE  H14Y 8841   0.793   2.024   5.025  0.1438  1.6444  1.5133
   90SAPE  C315 8842   0.902   1.883   4.905  0.7163 -0.0908 -0.9071
   90SAPE  H15X 8843   0.901   1.959   4.825 -0.4122 -0.3009 -1.1092
   90SAPE  H15Y 8844   0.817   1.813   4.892  0.4551 -0.4413  1.8964
   90SAPE  C316 8845   1.030   1.807   4.899 -0.0256  0.5771 -0.2327
   90SAPE  H16X 8846   1.011   1.722   4.968 -0.9090 -1.1844 -2.5280
   90SAPE  H16Y 8847   1.122   1.852   4.944  0.4657 -0.8835  0.2854
   90SAPE  C317 8848   1.054   1.757   4.756 -0.3083 -0.7284 -0.7632
   90SAPE  H17X 8849   0.956   1.759   4.704 -0.2417  0.7758 -0.8753
   90SAPE  H17Y 8850   1.095   1.654   4.756  1.0095 -0.2431 -1.4965
   90SAPE  C318 8851   1.154   1.854   4.683 -0.4310 -0.6605 -0.7093
   90SAPE  H18X 8852   1.183   1.829   4.579  1.8655 -0.7778 -0.0810
   90SAPE  H18Y 8853   1.240   1.881   4.748  1.4601 -3.7977 -1.7016
   90SAPE  H18Z 8854   1.091   1.944   4.666  1.1881  1.1681  2.2125
   91SAPE     N 8855   3.527   4.097   6.681  0.4501  1.1043  0.2535
   91SAPE   HN1 8856   3.528   4.124   6.581  1.3711  0.7903  0.1704
   91SAPE   HN2 8857   3.544   4.180   6.742  2.2440 -0.4282  2.0081
   91SAPE   HN3 8858   3.611   4.037   6.696 -0.3160 -0.6073 -1.7494
   91SAPE   C12 8859   3.399   4.026   6.723  0.3492 -0.1293 -0.0735
   91SAPE  H12A 8860   3.360   3.951   6.650  0.6309 -0.4804  0.1338
   91SAPE  H12B 8861   3.322   4.106   6.722  1.4611  0.9674 -0.5732
   91SAPE   C11 8862   3.412   3.971   6.862 -0.1663  0.2803  0.4641
   91SAPE  H11A 8863   3.306   3.968   6.894 -0.2372  0.2036  0.2193
   91SAPE  H11B 8864   3.457   4.040   6.937 -0.8585  0.3658  0.8137
   91SAPE     P 8865   3.402   3.712   6.878 -0.0837 -0.0728 -0.1642
   91SAPE   O13 8866   3.402   3.663   7.020  0.5623  0.2232  0.0517
   91SAPE   O14 8867   3.276   3.720   6.809 -0.2231 -0.2556  0.1837
   91SAPE   O12 8868   3.479   3.848   6.859  0.3666  0.6184 -0.6210
   91SAPE   O11 8869   3.490   3.603   6.797  0.7563 -0.9287  0.1152
   91SAPE    C1 8870   3.587   3.641   6.706  0.2582 -0.1282  0.9708
   91SAPE    HA 8871   3.662   3.710   6.752  1.1117  1.3488 -2.3307
   91SAPE    HB 8872   3.646   3.550   6.680  0.0669 -0.2619  1.0041
   91SAPE    C2 8873   3.530   3.699   6.568  0.3214  0.4344  0.1034
   91SAPE    HS 8874   3.484   3.793   6.604 -2.0739  0.9394 -3.6831
   91SAPE   O21 8875   3.436   3.606   6.514 -0.3715  0.5820 -0.3993
   91SAPE   C21 8876   3.337   3.682   6.455  0.2268 -0.3829 -0.5615
   91SAPE   O22 8877   3.328   3.801   6.460  0.9560  0.3129  0.2271
   91SAPE   C22 8878   3.233   3.583   6.393 -0.1228  0.1380 -0.2496
   91SAPE   H2R 8879   3.133   3.627   6.410  0.6163  1.5508  0.6809
   91SAPE   H2S 8880   3.245   3.587   6.283 -0.9484 -0.0284 -0.3466
   91SAPE    C3 8881   3.650   3.720   6.464 -0.6007  0.5953  0.0662
   91SAPE    HX 8882   3.686   3.619   6.436  1.8616  0.9172  1.7617
   91SAPE    HY 8883   3.744   3.762   6.506  0.3191  0.8284 -2.0967
   91SAPE   O31 8884   3.603   3.782   6.348  0.3187 -0.1354 -0.3134
   91SAPE   C31 8885   3.612   3.916   6.354  0.0624 -0.4441 -0.9177
   91SAPE   O32 8886   3.646   3.974   6.456 -0.5531 -0.1365 -0.2012
   91SAPE   C32 8887   3.568   3.978   6.226 -0.0182  0.2777 -0.0249
   91SAPE   H2X 8888   3.595   4.085   6.239  1.2715 -0.1993  1.4340
   91SAPE   H2Y 8889   3.458   3.967   6.216 -0.4325  2.8925  0.6758
   91SAPE   C23 8890   3.242   3.436   6.449 -0.5072  0.5295  0.7584
   91SAPE   H3R 8891   3.252   3.422   6.559  1.4778 -1.0577  0.4242
   91SAPE   H3S 8892   3.339   3.401   6.409 -1.1573 -0.1486 -0.2622
   91SAPE   C24 8893   3.130   3.354   6.384  0.0542 -0.3453  0.2411
   91SAPE   H4R 8894   3.165   3.249   6.387  1.1148 -0.0263 -0.3266
   91SAPE   H4S 8895   3.125   3.374   6.275  1.3707 -1.3429 -0.0219
   91SAPE   C25 8896   2.999   3.366   6.465 -0.0562  0.1105  0.2748
   91SAPE   H5R 8897   2.989   3.299   6.552 -3.0585 -0.0403 -0.1099
   91SAPE   C26 8898   2.896   3.442   6.432 -0.7674 -0.0994 -0.9634
   91SAPE   H6R 8899   2.822   3.454   6.513  1.1261  0.1778  0.7932
   91SAPE   C27 8900   2.876   3.534   6.313 -0.7502 -0.0440 -0.3208
   91SAPE   H7R 8901   2.799   3.504   6.239 -0.5597  2.5180 -1.6824
   91SAPE   H7S 8902   2.969   3.525   6.252 -0.8779  0.1153 -0.5416
   91SAPE   C28 8903   2.857   3.682   6.354 -0.1591  0.9505  0.7112
   91SAPE   H8R 8904   2.895   3.711   6.453  2.3341 -0.3661  0.2296
   91SAPE   C29 8905   2.803   3.776   6.273 -0.5790  0.3275 -0.4461
   91SAPE   H9R 8906   2.790   3.881   6.301 -1.6718  0.6693 -2.0867
   91SAPE  C210 8907   2.751   3.746   6.132 -0.1861 -0.4928 -0.0463
   91SAPE  H10R 8908   2.711   3.643   6.120  0.0230 -0.5576 -0.2118
   91SAPE  H10S 8909   2.839   3.749   6.064 -0.4176  1.3415 -0.3119
   91SAPE  C211 8910   2.649   3.843   6.079  0.7396  0.0863  0.5264
   91SAPE  H11R 8911   2.601   3.904   6.157  1.0694 -0.5640  1.2516
   91SAPE  C212 8912   2.607   3.855   5.952 -0.2200  0.0811  0.0647
   91SAPE  H12R 8913   2.532   3.925   5.912 -1.3138  0.2495  2.2366
   91SAPE  C213 8914   2.671   3.770   5.846  0.6183  0.9621 -0.1142
   91SAPE  H13R 8915   2.597   3.763   5.763  1.8736 -5.6128 -1.2143
   91SAPE  H13S 8916   2.688   3.663   5.868  0.3854  1.1047  0.7771
   91SAPE  C214 8917   2.798   3.828   5.797 -0.3923  0.6645 -0.0250
   91SAPE  H14R 8918   2.850   3.900   5.862  0.2862  0.2262 -0.0707
   91SAPE  C215 8919   2.834   3.818   5.669  0.2764 -0.3964 -0.2839
   91SAPE  H15R 8920   2.932   3.853   5.633 -0.5907  1.7023 -0.7548
   91SAPE  C216 8921   2.760   3.745   5.561  0.6241  0.1463 -0.5258
   91SAPE  H16R 8922   2.678   3.811   5.526  0.2760 -0.8492 -1.6253
   91SAPE  H16S 8923   2.704   3.656   5.597 -0.7971  0.9285 -0.7135
   91SAPE  C217 8924   2.849   3.693   5.448  0.1820 -0.5278 -0.3238
   91SAPE  H17R 8925   2.913   3.614   5.495  1.6481  0.2955 -0.8683
   91SAPE  H17S 8926   2.917   3.771   5.408  0.0999  1.5407  3.1295
   91SAPE  C218 8927   2.758   3.624   5.344 -0.1571 -0.2654 -0.5376
   91SAPE  H18R 8928   2.693   3.703   5.303 -1.0407  0.6677  2.4435
   91SAPE  H18S 8929   2.690   3.556   5.399 -0.9844 -0.2873 -1.5537
   91SAPE  C219 8930   2.826   3.547   5.231 -0.6070  0.1169 -0.1545
   91SAPE  H19R 8931   2.890   3.465   5.269  1.1157  1.1945 -0.6225
   91SAPE  H19S 8932   2.905   3.608   5.182 -0.2830  0.3475  0.6354
   91SAPE  C220 8933   2.741   3.500   5.109 -0.5443  0.0002 -0.2293
   91SAPE  H20R 8934   2.672   3.418   5.139 -1.3491  1.2425  1.5151
   91SAPE  H20S 8935   2.808   3.463   5.029 -1.0332 -0.1744 -0.5598
   91SAPE  H20T 8936   2.681   3.581   5.065  0.2828  0.5801 -0.3058
   91SAPE   C33 8937   3.645   3.918   6.102  0.2412 -0.4002  0.0799
   91SAPE   H3X 8938   3.593   3.823   6.080 -2.5252  0.7858  1.0003
   91SAPE   H3Y 8939   3.747   3.881   6.127  0.7430  1.3168  0.7295
   91SAPE   C34 8940   3.652   4.018   5.983 -0.4232  0.0456 -0.6202
   91SAPE   H4X 8941   3.709   4.110   6.005 -0.6842  0.2617 -0.8468
   91SAPE   H4Y 8942   3.550   4.044   5.948 -0.2015  2.7829  0.5420
   91SAPE   C35 8943   3.726   3.964   5.865 -0.0352  0.7432  0.1659
   91SAPE   H5X 8944   3.810   3.895   5.890 -0.8607 -0.8467 -1.2515
   91SAPE   H5Y 8945   3.765   4.041   5.796  1.3098 -0.8694 -0.9653
   91SAPE   C36 8946   3.633   3.870   5.782  0.6026 -0.4300  0.0422
   91SAPE   H6X 8947   3.537   3.926   5.768  0.6600 -0.9013 -2.9582
   91SAPE   H6Y 8948   3.611   3.778   5.840  1.6831 -0.7352 -0.0126
   91SAPE   C37 8949   3.687   3.840   5.645 -0.0838 -0.7331 -0.2122
   91SAPE   H7X 8950   3.795   3.813   5.648  0.2159  0.2163 -1.5008
   91SAPE   H7Y 8951   3.689   3.938   5.593  1.0095  1.1337  3.0414
   91SAPE   C38 8952   3.613   3.726   5.576  0.5333  0.4198 -0.7351
   91SAPE   H8X 8953   3.624   3.639   5.645  0.9293  0.7388 -0.3876
   91SAPE   H8Y 8954   3.663   3.701   5.481 -0.1244 -1.2217 -0.6716
   91SAPE   C39 8955   3.473   3.764   5.551 -1.1564 -0.2351  0.1188
   91SAPE   H9X 8956   3.456   3.874   5.552  2.6712  0.4712  1.1648
   91SAPE   H9Y 8957   3.414   3.724   5.636  0.2902  2.1328  2.3940
   91SAPE  C310 8958   3.422   3.687   5.427  0.2302 -1.2935 -0.1813
   91SAPE  H10X 8959   3.475   3.590   5.417  0.9956 -0.9928  0.7642
   91SAPE  H10Y 8960   3.460   3.752   5.345 -0.6893 -0.2336  0.1932
   91SAPE  C311 8961   3.264   3.669   5.419  0.2324  0.1186  0.5128
   91SAPE  H11X 8962   3.222   3.771   5.406 -1.9918 -1.0574 -3.0445
   91SAPE  H11Y 8963   3.234   3.618   5.513  2.1984 -3.9548 -0.8237
   91SAPE  C312 8964   3.227   3.598   5.292  0.0904 -0.3892 -0.3897
   91SAPE  H12X 8965   3.137   3.536   5.315  0.1511 -1.2178 -2.1697
   91SAPE  H12Y 8966   3.303   3.521   5.267  0.6250  0.5268 -1.6887
   91SAPE  C313 8967   3.210   3.675   5.163  0.0334  0.1080 -0.0005
   91SAPE  H13X 8968   3.307   3.721   5.136 -0.0733  1.0976  1.1883
   91SAPE  H13Y 8969   3.139   3.761   5.171 -1.7018 -1.2335 -0.3132
   91SAPE  C314 8970   3.192   3.582   5.042 -0.1050  0.0906 -0.2176
   91SAPE  H14X 8971   3.131   3.632   4.963 -1.9964 -0.1988  0.9866
   91SAPE  H14Y 8972   3.126   3.503   5.083  1.1896 -0.8532  0.0865
   91SAPE  C315 8973   3.324   3.529   4.994 -0.7645 -0.2318  0.4739
   91SAPE  H15X 8974   3.391   3.495   5.075  0.4787  0.1580 -0.3588
   91SAPE  H15Y 8975   3.371   3.607   4.930 -1.5738 -0.5116 -0.4980
   91SAPE  C316 8976   3.299   3.395   4.920  0.2771  0.2674  0.0582
   91SAPE  H16X 8977   3.209   3.407   4.855  0.7124  1.1041 -0.4124
   91SAPE  H16Y 8978   3.276   3.313   4.991  3.2361 -0.5210  0.2254
   91SAPE  C317 8979   3.426   3.358   4.839 -0.2279  0.3127 -0.2277
   91SAPE  H17X 8980   3.448   3.442   4.770 -1.8973 -0.1176 -1.3400
   91SAPE  H17Y 8981   3.404   3.275   4.768  0.5800  2.2826 -2.9501
   91SAPE  C318 8982   3.562   3.344   4.900 -0.6043  0.5784  0.0170
   91SAPE  H18X 8983   3.606   3.437   4.941  2.7815 -0.6839 -0.4704
   91SAPE  H18Y 8984   3.635   3.308   4.825  0.6605  4.8426 -1.0495
   91SAPE  H18Z 8985   3.559   3.273   4.987 -0.3501  0.8705  0.2634
   92SAPE     N 8986   4.816   4.978   6.603  0.2416 -0.0953 -0.0423
   92SAPE   HN1 8987   4.772   4.982   6.697 -1.1441 -1.6526 -0.5629
   92SAPE   HN2 8988   4.859   5.070   6.579 -2.4393  0.6744 -2.5128
   92SAPE   HN3 8989   4.743   4.956   6.532  0.9199 -1.1440 -0.4478
   92SAPE   C12 8990   4.896   4.854   6.609 -0.0847  0.3245  0.0499
   92SAPE  H12A 8991   4.827   4.772   6.639  2.4753 -2.0065 -0.0775
   92SAPE  H12B 8992   4.963   4.868   6.697 -0.3779  2.6125 -0.0232
   92SAPE   C11 8993   4.974   4.814   6.485 -0.2190 -0.3398 -0.1225
   92SAPE  H11A 8994   5.023   4.908   6.453  0.4056 -0.7399 -0.3829
   92SAPE  H11B 8995   4.902   4.780   6.407 -0.1753 -1.4631  0.3000
   92SAPE     P 8996   5.218   4.719   6.488  0.3784  0.1223  0.3488
   92SAPE   O13 8997   5.252   4.858   6.535 -0.1466 -0.6247  0.3572
   92SAPE   O14 8998   5.283   4.606   6.556  0.3513 -0.5415 -0.3638
   92SAPE   O12 8999   5.063   4.702   6.502  0.4301 -0.4019 -0.3852
   92SAPE   O11 9000   5.239   4.708   6.330  0.2256  0.1932  0.0974
   92SAPE    C1 9001   5.208   4.812   6.244 -0.1240 -0.1115 -0.1797
   92SAPE    HA 9002   5.117   4.865   6.278 -0.7867 -1.0548 -0.4650
   92SAPE    HB 9003   5.289   4.888   6.240  0.6861 -0.9809 -0.8614
   92SAPE    C2 9004   5.190   4.770   6.101 -0.0979  0.4284  0.1122
   92SAPE    HS 9005   5.286   4.719   6.077 -0.5345 -0.3595  0.0122
   92SAPE   O21 9006   5.159   4.888   6.020  0.2899  0.2904 -0.2945
   92SAPE   C21 9007   5.257   4.918   5.932  0.4881 -0.2220 -0.0743
   92SAPE   O22 9008   5.368   4.874   5.936 -0.7340 -0.2179  0.6919
   92SAPE   C22 9009   5.209   5.011   5.825 -0.0204 -0.5227  0.0432
   92SAPE   H2R 9010   5.101   5.035   5.835  0.2727  0.6329  0.5436
   92SAPE   H2S 9011   5.268   5.105   5.828  0.1171 -0.6408  1.4615
   92SAPE    C3 9012   5.068   4.671   6.091 -0.5754 -0.9882 -0.8876
   92SAPE    HX 9013   4.982   4.740   6.097  0.7290  0.5775  1.4914
   92SAPE    HY 9014   5.057   4.606   6.180 -2.8491  2.0880  1.2602
   92SAPE   O31 9015   5.078   4.601   5.964  0.0430 -0.1461  0.1664
   92SAPE   C31 9016   5.124   4.475   5.965 -0.3557  0.0675  0.4451
   92SAPE   O32 9017   5.172   4.430   6.068  0.2892  0.7207  0.8556
   92SAPE   C32 9018   5.102   4.418   5.828  0.3379  0.7482 -0.1981
   92SAPE   H2X 9019   5.105   4.495   5.748  0.4587 -1.3999 -2.3670
   92SAPE   H2Y 9020   4.998   4.381   5.817  0.0492  1.2845  0.5773
   92SAPE   C23 9021   5.212   4.955   5.680  0.0064 -0.7104 -0.0830
   92SAPE   H3R 9022   5.126   4.886   5.665 -0.4516 -0.1402 -0.1081
   92SAPE   H3S 9023   5.310   4.904   5.666  0.9559  0.6485  1.3067
   92SAPE   C24 9024   5.194   5.058   5.571 -0.1665  0.5713  0.5955
   92SAPE   H4R 9025   5.237   5.013   5.479 -0.4846  0.1048  0.6710
   92SAPE   H4S 9026   5.263   5.143   5.590  0.7927 -0.2055  0.6521
   92SAPE   C25 9027   5.056   5.106   5.553  0.1292 -0.4873  0.1200
   92SAPE   H5R 9028   4.991   5.110   5.641 -1.7531 -0.3617 -1.2160
   92SAPE   C26 9029   5.004   5.122   5.432 -0.1390  1.3526  1.5012
   92SAPE   H6R 9030   4.900   5.157   5.428 -0.4499  0.3287 -0.0838
   92SAPE   C27 9031   5.068   5.108   5.293 -0.4453  0.3797 -0.7278
   92SAPE   H7R 9032   5.119   5.010   5.284 -2.6759 -0.9988  0.7300
   92SAPE   H7S 9033   5.150   5.183   5.289  1.4847 -1.5077  0.9793
   92SAPE   C28 9034   4.985   5.135   5.165 -0.7542 -0.0463 -0.4688
   92SAPE   H8R 9035   4.876   5.146   5.180 -0.6043  1.5004 -0.3533
   92SAPE   C29 9036   5.025   5.134   5.036  0.0040 -0.0381 -1.2040
   92SAPE   H9R 9037   4.950   5.130   4.956 -2.4040  0.6967  0.9086
   92SAPE  C210 9038   5.177   5.118   5.002 -0.3354 -0.3634  0.6077
   92SAPE  H10R 9039   5.241   5.118   5.092  0.9733  2.2323 -0.2011
   92SAPE  H10S 9040   5.195   5.215   4.950 -0.1186 -0.4167  0.5815
   92SAPE  C211 9041   5.187   5.002   4.909  0.1744  0.6941  0.2929
   92SAPE  H11R 9042   5.166   4.902   4.948  0.2452 -0.4003 -2.2565
   92SAPE  C212 9043   5.247   4.999   4.785 -0.4589  0.1024 -0.5273
   92SAPE  H12R 9044   5.257   4.904   4.731  0.6436  0.3636 -0.8223
   92SAPE  C213 9045   5.304   5.119   4.710  0.4143  0.2625  0.1045
   92SAPE  H13R 9046   5.272   5.217   4.751  1.0983 -0.4670  2.5745
   92SAPE  H13S 9047   5.275   5.117   4.603  2.0091  0.4703 -0.3709
   92SAPE  C214 9048   5.452   5.100   4.720 -0.2168 -0.2985  0.6271
   92SAPE  H14R 9049   5.491   5.002   4.751  1.1601 -0.0570 -0.2529
   92SAPE  C215 9050   5.541   5.181   4.667 -1.0678 -0.6115 -0.4817
   92SAPE  H15R 9051   5.645   5.145   4.663 -1.6549 -2.8888  2.1197
   92SAPE  C216 9052   5.510   5.316   4.601  0.2621  0.2076 -0.5625
   92SAPE  H16R 9053   5.400   5.327   4.604 -0.1702 -3.0813 -0.6859
   92SAPE  H16S 9054   5.537   5.306   4.494 -0.1608  1.6250 -0.8232
   92SAPE  C217 9055   5.583   5.433   4.675  0.3939  0.4274 -0.2525
   92SAPE  H17R 9056   5.556   5.427   4.783  0.0524  4.4862  0.0144
   92SAPE  H17S 9057   5.538   5.528   4.641  0.4876  0.8373  0.7410
   92SAPE  C218 9058   5.732   5.440   4.646  0.4474  0.0158 -0.0972
   92SAPE  H18R 9059   5.742   5.442   4.535 -0.3504  1.2163 -0.1572
   92SAPE  H18S 9060   5.780   5.345   4.680  2.4166  0.4008 -1.5740
   92SAPE  C219 9061   5.797   5.562   4.712  0.5112  0.3781  0.0135
   92SAPE  H19R 9062   5.827   5.544   4.818 -3.4643 -1.1381  1.0422
   92SAPE  H19S 9063   5.734   5.653   4.711  0.8752  0.6556  1.3989
   92SAPE  C220 9064   5.928   5.599   4.635  0.5680 -0.8708  0.4968
   92SAPE  H20R 9065   6.019   5.535   4.643  0.7106 -0.8118 -0.5432
   92SAPE  H20S 9066   5.949   5.696   4.686 -1.1276 -1.5781  2.7061
   92SAPE  H20T 9067   5.896   5.625   4.532 -0.4552 -0.8929  0.7999
   92SAPE   C33 9068   5.197   4.298   5.797 -0.7255  0.4514  0.1086
   92SAPE   H3X 9069   5.200   4.224   5.880  0.6870 -2.6010 -2.4444
   92SAPE   H3Y 9070   5.301   4.334   5.785  0.8276 -3.2319  1.0301
   92SAPE   C34 9071   5.170   4.226   5.664 -0.3518 -0.2664  0.3671
   92SAPE   H4X 9072   5.078   4.165   5.680  0.4049 -1.6296 -0.2420
   92SAPE   H4Y 9073   5.251   4.155   5.635 -1.1517 -0.3731 -1.7267
   92SAPE   C35 9074   5.167   4.316   5.533 -0.0102 -0.2643 -0.1429
   92SAPE   H5X 9075   5.246   4.393   5.548  0.9852 -1.3311  0.1682
   92SAPE   H5Y 9076   5.070   4.370   5.541 -1.9818 -3.2753 -1.8147
   92SAPE   C36 9077   5.207   4.249   5.406  0.4053  0.1186 -0.2003
   92SAPE   H6X 9078   5.139   4.161   5.396 -1.5141  0.9941  3.4829
   92SAPE   H6Y 9079   5.314   4.220   5.412  0.5833  0.8749  0.2709
   92SAPE   C37 9080   5.197   4.336   5.285  0.3959 -0.7153 -0.4177
   92SAPE   H7X 9081   5.277   4.411   5.269 -1.5704  1.8655  1.0533
   92SAPE   H7Y 9082   5.110   4.405   5.289  0.1054 -1.1134  0.7041
   92SAPE   C38 9083   5.173   4.248   5.159 -0.0706  0.1733  0.2050
   92SAPE   H8X 9084   5.091   4.174   5.167 -0.9086  1.1564  0.9084
   92SAPE   H8Y 9085   5.266   4.189   5.145 -1.1483 -0.9715 -3.2282
   92SAPE   C39 9086   5.146   4.314   5.024  0.4334 -0.4727 -0.2645
   92SAPE   H9X 9087   5.225   4.389   5.002 -0.1342  0.3436  0.3930
   92SAPE   H9Y 9088   5.055   4.376   5.042  0.2483 -1.3064  1.9887
   92SAPE  C310 9089   5.138   4.211   4.911 -0.9474  0.0066 -0.6438
   92SAPE  H10X 9090   5.056   4.139   4.933 -2.2930  1.7042  0.1427
   92SAPE  H10Y 9091   5.238   4.162   4.917 -0.9227  0.2114  2.8157
   92SAPE  C311 9092   5.130   4.288   4.777 -0.2146  0.2432 -0.4440
   92SAPE  H11X 9093   5.148   4.397   4.791 -0.2043 -0.1579  3.9244
   92SAPE  H11Y 9094   5.030   4.260   4.737 -1.1619  0.3580  1.6924
   92SAPE  C312 9095   5.231   4.238   4.676 -0.1304 -0.2181 -0.5798
   92SAPE  H12X 9096   5.239   4.127   4.683 -0.9603 -0.2943 -0.8327
   92SAPE  H12Y 9097   5.332   4.280   4.695 -0.2950  0.6118 -1.4449
   92SAPE  C313 9098   5.203   4.285   4.530 -0.4073  0.8901  0.4186
   92SAPE  H13X 9099   5.114   4.242   4.479 -0.5188  0.7165  0.7575
   92SAPE  H13Y 9100   5.284   4.251   4.462 -0.1502  0.6189  0.8558
   92SAPE  C314 9101   5.199   4.437   4.532 -0.7565  0.7909  0.6050
   92SAPE  H14X 9102   5.290   4.479   4.579 -2.0672  2.1233  2.0591
   92SAPE  H14Y 9103   5.115   4.473   4.595 -1.6604 -2.1583  1.2733
   92SAPE  C315 9104   5.196   4.495   4.392  0.3713  0.3967  0.9236
   92SAPE  H15X 9105   5.096   4.497   4.342  0.1430 -1.1690  1.2605
   92SAPE  H15Y 9106   5.259   4.425   4.332 -0.5633 -0.5945  1.0568
   92SAPE  C316 9107   5.257   4.633   4.388 -0.4394 -0.4247 -0.3186
   92SAPE  H16X 9108   5.259   4.667   4.282  0.7641  1.9244  0.3753
   92SAPE  H16Y 9109   5.364   4.618   4.417 -0.6588 -1.3324  0.0383
   92SAPE  C317 9110   5.190   4.751   4.467  0.3809 -0.1027 -0.1438
   92SAPE  H17X 9111   5.248   4.844   4.450  0.1131 -0.4640 -3.6938
   92SAPE  H17Y 9112   5.188   4.736   4.577 -1.4436  1.1401  0.0422
   92SAPE  C318 9113   5.043   4.768   4.427  0.9046  0.2818 -0.0030
   92SAPE  H18X 9114   4.992   4.674   4.457  1.3206  0.0198 -0.1168
   92SAPE  H18Y 9115   5.024   4.795   4.321 -2.0838  1.0365  0.6043
   92SAPE  H18Z 9116   5.002   4.859   4.475 -1.2188 -0.1594 -0.8594
   93SAPE     N 9117   6.829   2.489   6.688  0.1774 -0.9740  0.4071
   93SAPE   HN1 9118   6.752   2.530   6.745 -0.3342  0.4029 -1.2083
   93SAPE   HN2 9119   6.907   2.556   6.706  1.2049 -2.4230  1.5638
   93SAPE   HN3 9120   6.812   2.495   6.586  0.3376 -0.3177  0.4163
   93SAPE   C12 9121   6.863   2.347   6.724 -0.5360  0.0982 -0.2069
   93SAPE  H12A 9122   6.777   2.282   6.695  0.6024 -2.1221  1.1731
   93SAPE  H12B 9123   6.876   2.332   6.833  0.8257 -2.4883 -0.6456
   93SAPE   C11 9124   6.979   2.293   6.638  0.6899  0.1509 -0.0554
   93SAPE  H11A 9125   6.943   2.297   6.533 -1.1117 -0.2827  0.5000
   93SAPE  H11B 9126   6.987   2.183   6.653 -1.3259 -0.9266 -4.9805
   93SAPE     P 9127   7.194   2.313   6.770 -0.2831  0.4260  0.3948
   93SAPE   O13 9128   7.315   2.390   6.789  0.3706  0.6078  0.2600
   93SAPE   O14 9129   7.122   2.302   6.903  0.2430 -0.0684 -0.5655
   93SAPE   O12 9130   7.098   2.370   6.662 -0.3185  0.6341  0.2982
   93SAPE   O11 9131   7.229   2.169   6.727 -0.1733  0.0271  0.5810
   93SAPE    C1 9132   7.360   2.140   6.668 -0.3478 -0.2536 -0.3966
   93SAPE    HA 9133   7.445   2.201   6.708 -2.7059  3.8066 -1.0216
   93SAPE    HB 9134   7.394   2.035   6.685  1.0394  0.2705  0.3190
   93SAPE    C2 9135   7.364   2.175   6.515 -0.2166 -0.1030  0.2239
   93SAPE    HS 9136   7.326   2.278   6.495 -1.5434 -0.8428 -1.3330
   93SAPE   O21 9137   7.270   2.081   6.453 -0.1740  0.1141 -0.2178
   93SAPE   C21 9138   7.185   2.131   6.356  0.5911 -0.0743  0.1716
   93SAPE   O22 9139   7.195   2.238   6.302 -0.5747 -0.4120  0.1415
   93SAPE   C22 9140   7.074   2.031   6.339  0.0136 -0.5706 -0.3778
   93SAPE   H2R 9141   7.127   1.934   6.348  1.1510  0.1073  0.5566
   93SAPE   H2S 9142   7.017   2.041   6.434  0.2984  1.4129 -0.3715
   93SAPE    C3 9143   7.514   2.172   6.468  0.6165  0.3450 -0.4662
   93SAPE    HX 9144   7.560   2.081   6.511 -0.3701 -1.1455 -2.3791
   93SAPE    HY 9145   7.575   2.254   6.510 -1.1262  1.3900  0.1629
   93SAPE   O31 9146   7.527   2.164   6.327  0.0879  0.4522 -0.5378
   93SAPE   C31 9147   7.498   2.275   6.267  0.0978  0.5930 -0.1522
   93SAPE   O32 9148   7.486   2.387   6.321  0.0257  0.1981 -0.3453
   93SAPE   C32 9149   7.501   2.247   6.119  0.4198  0.5373  0.4359
   93SAPE   H2X 9150   7.398   2.225   6.084  1.5790 -3.1880 -1.1749
   93SAPE   H2Y 9151   7.559   2.155   6.096 -0.3582  0.4111 -1.1169
   93SAPE   C23 9152   6.985   2.056   6.219  0.2635 -0.1183 -0.1790
   93SAPE   H3R 9153   6.926   2.150   6.235  1.8098  0.5802  1.8486
   93SAPE   H3S 9154   6.910   1.975   6.221  1.6514 -1.4789 -1.1067
   93SAPE   C24 9155   7.050   2.067   6.079 -0.6113 -0.0597  1.0470
   93SAPE   H4R 9156   7.129   2.146   6.084  0.3832 -0.8866 -0.7151
   93SAPE   H4S 9157   6.962   2.103   6.022 -0.6127 -0.7284  0.6240
   93SAPE   C25 9158   7.108   1.940   6.016  0.6558  0.3556  0.3758
   93SAPE   H5R 9159   7.108   1.851   6.081 -0.7668  0.0222 -0.0553
   93SAPE   C26 9160   7.159   1.918   5.888 -0.6403 -0.6310 -0.7913
   93SAPE   H6R 9161   7.181   1.815   5.859 -2.9563 -1.2280 -0.6232
   93SAPE   C27 9162   7.178   2.037   5.794 -0.0646  0.1190  0.0621
   93SAPE   H7R 9163   7.152   2.133   5.843  0.1656  0.5497 -0.6582
   93SAPE   H7S 9164   7.108   2.019   5.710  0.2933 -2.9779  0.3007
   93SAPE   C28 9165   7.317   2.059   5.735  0.0849 -0.8176  0.4413
   93SAPE   H8R 9166   7.397   2.062   5.810 -0.4559 -0.6574  1.0249
   93SAPE   C29 9167   7.346   2.057   5.602 -0.2386 -0.1515 -0.2793
   93SAPE   H9R 9168   7.451   2.089   5.587  0.7630 -2.8208  0.4689
   93SAPE  C210 9169   7.266   2.040   5.474 -0.4101 -0.0347  0.0965
   93SAPE  H10R 9170   7.158   2.062   5.488 -0.1822  0.6829  0.8399
   93SAPE  H10S 9171   7.272   1.933   5.446 -0.2212 -0.0612  0.2336
   93SAPE  C211 9172   7.303   2.144   5.372  0.9281 -0.8462  0.0359
   93SAPE  H11R 9173   7.295   2.246   5.413  0.9110 -1.2705  1.1302
   93SAPE  C212 9174   7.334   2.120   5.245 -0.0757 -0.4482 -0.0381
   93SAPE  H12R 9175   7.341   2.204   5.174 -1.3500  0.9210  1.3916
   93SAPE  C213 9176   7.347   1.985   5.181  0.2058 -0.3506 -0.0088
   93SAPE  H13R 9177   7.319   1.896   5.241 -0.4409 -1.9635 -2.5861
   93SAPE  H13S 9178   7.453   1.976   5.150 -0.6552  0.4571 -3.6008
   93SAPE  C214 9179   7.266   1.977   5.056  0.5455 -0.5186 -1.1651
   93SAPE  H14R 9180   7.315   2.038   4.979  0.2344  0.9559 -0.2311
   93SAPE  C215 9181   7.152   1.914   5.028  0.2558 -0.2397 -0.7288
   93SAPE  H15R 9182   7.093   1.949   4.941 -1.0736  1.9125  0.9280
   93SAPE  C216 9183   7.077   1.823   5.124 -0.9381 -0.0039  0.0074
   93SAPE  H16R 9184   7.148   1.787   5.202  1.6621  2.4216 -1.0190
   93SAPE  H16S 9185   7.036   1.738   5.067  2.1360 -0.8024 -1.2448
   93SAPE  C217 9186   6.964   1.893   5.204  0.1841  0.5751 -0.1212
   93SAPE  H17R 9187   6.891   1.936   5.132 -1.0887  1.4347  1.5970
   93SAPE  H17S 9188   7.017   1.969   5.266  2.0542 -1.2861  0.6740
   93SAPE  C218 9189   6.899   1.791   5.297  0.5230 -0.3468  0.1795
   93SAPE  H18R 9190   6.980   1.724   5.332  1.4696  2.0923  3.0672
   93SAPE  H18S 9191   6.826   1.727   5.242  2.3344 -2.0119 -0.3960
   93SAPE  C219 9192   6.824   1.854   5.426 -0.3860  0.3600  0.4550
   93SAPE  H19R 9193   6.896   1.917   5.483 -2.4471  0.7238  2.8028
   93SAPE  H19S 9194   6.797   1.774   5.497 -1.0270 -0.1741 -0.3681
   93SAPE  C220 9195   6.702   1.941   5.398  0.3766  0.0124  0.7063
   93SAPE  H20R 9196   6.659   1.986   5.490 -2.5013  0.7335 -0.8763
   93SAPE  H20S 9197   6.626   1.882   5.344  1.1356 -2.4407  2.1958
   93SAPE  H20T 9198   6.736   2.019   5.326  0.2146 -0.7567 -0.2156
   93SAPE   C33 9199   7.560   2.368   6.031 -0.1303  0.1890  0.3309
   93SAPE   H3X 9200   7.548   2.466   6.082 -1.8003  0.1761  0.0242
   93SAPE   H3Y 9201   7.495   2.377   5.941 -0.8404  3.0909  1.0571
   93SAPE   C34 9202   7.705   2.337   6.006  0.0155 -0.3587 -0.4569
   93SAPE   H4X 9203   7.730   2.231   5.988  0.8576 -0.3952  0.7638
   93SAPE   H4Y 9204   7.759   2.370   6.098 -2.9809  1.5945  0.7601
   93SAPE   C35 9205   7.766   2.402   5.881  0.1456 -0.3689  0.5501
   93SAPE   H5X 9206   7.875   2.385   5.879  0.6280  2.2076 -2.1037
   93SAPE   H5Y 9207   7.734   2.509   5.882  0.5421 -0.2404 -0.1278
   93SAPE   C36 9208   7.722   2.352   5.748 -1.0624  0.0283 -0.4421
   93SAPE   H6X 9209   7.615   2.336   5.772 -0.2687 -1.2187  2.9663
   93SAPE   H6Y 9210   7.759   2.249   5.730 -0.5711  0.3520 -1.3120
   93SAPE   C37 9211   7.741   2.439   5.634 -0.5951  0.1740 -0.0182
   93SAPE   H7X 9212   7.849   2.433   5.608 -0.5105 -1.0962  0.5802
   93SAPE   H7Y 9213   7.710   2.545   5.647  0.6451  0.5732 -0.1688
   93SAPE   C38 9214   7.663   2.386   5.511  0.7704  0.4664  0.0515
   93SAPE   H8X 9215   7.556   2.417   5.514  0.4408 -0.5879 -0.3373
   93SAPE   H8Y 9216   7.663   2.275   5.522  2.0005  0.5428  1.1304
   93SAPE   C39 9217   7.713   2.434   5.372 -0.3458  0.3348  0.7126
   93SAPE   H9X 9218   7.820   2.403   5.366  0.2985  2.4316  0.8196
   93SAPE   H9Y 9219   7.707   2.544   5.380 -1.1283  0.4635 -1.2516
   93SAPE  C310 9220   7.640   2.378   5.255 -0.1184  0.4390 -0.3349
   93SAPE  H10X 9221   7.531   2.384   5.278  0.0076  0.9486  0.1524
   93SAPE  H10Y 9222   7.658   2.270   5.240 -0.4325  0.4660 -0.9460
   93SAPE  C311 9223   7.663   2.459   5.127  0.0560  0.2186  0.3837
   93SAPE  H11X 9224   7.771   2.455   5.102 -0.1321 -1.7223 -0.3267
   93SAPE  H11Y 9225   7.625   2.563   5.133 -0.6763  0.1972 -2.4337
   93SAPE  C312 9226   7.579   2.386   5.012  0.2780  0.2873 -0.2001
   93SAPE  H12X 9227   7.471   2.378   5.038  0.3289  0.6695  0.1440
   93SAPE  H12Y 9228   7.619   2.284   4.993 -2.4643 -1.2301  1.4618
   93SAPE  C313 9229   7.575   2.469   4.885  0.1711  0.1914  0.4269
   93SAPE  H13X 9230   7.675   2.492   4.841  2.5217 -3.5195  3.2533
   93SAPE  H13Y 9231   7.536   2.569   4.914  0.3127  0.1212  0.8755
   93SAPE  C314 9232   7.486   2.401   4.775  0.8284  0.6209 -0.1322
   93SAPE  H14X 9233   7.445   2.482   4.711  1.1816 -0.2085 -1.4584
   93SAPE  H14Y 9234   7.404   2.347   4.826  0.9920  1.0354  0.5863
   93SAPE  C315 9235   7.563   2.309   4.679  0.2048 -0.4817 -1.4183
   93SAPE  H15X 9236   7.641   2.249   4.730  0.5521 -0.3797 -1.8274
   93SAPE  H15Y 9237   7.617   2.374   4.607  2.1665 -1.2955 -0.7308
   93SAPE  C316 9238   7.473   2.220   4.597 -0.4454 -0.1392  0.8004
   93SAPE  H16X 9239   7.529   2.192   4.506  0.7308 -1.8510  1.9799
   93SAPE  H16Y 9240   7.384   2.281   4.570 -1.4499 -0.7789  2.4691
   93SAPE  C317 9241   7.432   2.090   4.664  0.9470 -0.2762 -0.2031
   93SAPE  H17X 9242   7.372   2.120   4.753  0.3269  2.4338 -1.4306
   93SAPE  H17Y 9243   7.524   2.041   4.702  0.6532  0.2077  1.2188
   93SAPE  C318 9244   7.367   1.991   4.567  0.8250  0.0124  0.6107
   93SAPE  H18X 9245   7.289   2.040   4.504 -0.6979 -2.6660  0.2529
   93SAPE  H18Y 9246   7.325   1.908   4.627  0.7252 -1.0826 -0.9089
   93SAPE  H18Z 9247   7.445   1.953   4.498  0.6538  3.1032 -1.4634
   94SAPE     N 9248   5.745   4.530   5.960 -0.5662 -0.0162 -0.8192
   94SAPE   HN1 9249   5.745   4.559   6.060 -0.4267 -0.0786 -0.8009
   94SAPE   HN2 9250   5.838   4.548   5.917 -0.2963  0.9613  0.1509
   94SAPE   HN3 9251   5.672   4.581   5.906  1.5390  0.7545 -3.0882
   94SAPE   C12 9252   5.715   4.385   5.965 -0.0379  0.8376  1.0513
   94SAPE  H12A 9253   5.722   4.347   5.860  0.6250 -0.4426  1.5325
   94SAPE  H12B 9254   5.610   4.376   6.001 -0.2387  0.1469  0.3412
   94SAPE   C11 9255   5.815   4.315   6.055 -0.5271 -0.2065 -0.4438
   94SAPE  H11A 9256   5.779   4.213   6.081  0.3180  0.0705  2.1219
   94SAPE  H11B 9257   5.830   4.361   6.155  2.0104 -2.4139  0.2969
   94SAPE     P 9258   6.054   4.212   6.022  0.3939  0.0241 -0.5102
   94SAPE   O13 9259   6.131   4.255   6.139  0.1061 -0.1540 -0.4079
   94SAPE   O14 9260   6.015   4.065   6.032  0.1907  0.8112 -0.0177
   94SAPE   O12 9261   5.933   4.305   5.984  0.3316  0.0009  0.2559
   94SAPE   O11 9262   6.157   4.238   5.904  0.2450 -0.0912  1.0189
   94SAPE    C1 9263   6.206   4.119   5.827 -0.4560  0.2459  0.5236
   94SAPE    HA 9264   6.301   4.085   5.873 -1.2998 -1.0442  1.3987
   94SAPE    HB 9265   6.148   4.025   5.844  1.1643 -0.6922  1.1104
   94SAPE    C2 9266   6.236   4.149   5.673 -0.2934 -0.0756  0.4406
   94SAPE    HS 9267   6.244   4.057   5.611 -1.6051  0.7597 -1.0446
   94SAPE   O21 9268   6.355   4.232   5.662 -0.3325  0.1724  0.4189
   94SAPE   C21 9269   6.473   4.159   5.652  1.1119 -0.4772  0.4269
   94SAPE   O22 9270   6.476   4.042   5.637 -0.2237  0.5624 -0.2468
   94SAPE   C22 9271   6.594   4.260   5.622  0.6388  0.1485  0.0126
   94SAPE   H2R 9272   6.605   4.256   5.511  0.0859 -1.1671 -0.0116
   94SAPE   H2S 9273   6.566   4.364   5.649 -1.1285 -0.7093  1.7762
   94SAPE    C3 9274   6.114   4.221   5.610  0.4042 -0.3855  0.7791
   94SAPE    HX 9275   6.124   4.217   5.499 -1.5061 -1.8135  0.6001
   94SAPE    HY 9276   6.112   4.327   5.644  3.4078  0.0134  0.0534
   94SAPE   O31 9277   5.996   4.141   5.641 -0.0587  0.5046  0.3828
   94SAPE   C31 9278   5.886   4.210   5.652 -0.2448 -0.0051  0.3279
   94SAPE   O32 9279   5.884   4.330   5.640  0.5523 -0.3703 -0.4661
   94SAPE   C32 9280   5.764   4.123   5.683 -0.1503 -0.4596 -0.7494
   94SAPE   H2X 9281   5.758   4.110   5.793 -0.9416  1.5714 -0.5195
   94SAPE   H2Y 9282   5.789   4.026   5.633 -1.9295 -2.8077  2.5632
   94SAPE   C23 9283   6.719   4.220   5.694  0.8753 -0.5901 -0.1085
   94SAPE   H3R 9284   6.731   4.111   5.673 -1.0003 -0.8856  0.1436
   94SAPE   H3S 9285   6.700   4.247   5.800 -0.7492 -0.1645 -0.4892
   94SAPE   C24 9286   6.834   4.301   5.638 -0.1929 -0.3289  0.0817
   94SAPE   H4R 9287   6.821   4.406   5.670 -3.0185  0.2630 -2.5043
   94SAPE   H4S 9288   6.831   4.304   5.527 -2.4722 -1.5678  0.0477
   94SAPE   C25 9289   6.958   4.244   5.692 -0.1531 -0.1052 -0.2422
   94SAPE   H5R 9290   6.952   4.216   5.798 -1.6497  1.6670  0.1856
   94SAPE   C26 9291   7.076   4.240   5.629  0.0497 -0.6289 -0.2693
   94SAPE   H6R 9292   7.154   4.199   5.695  0.6353  0.7799 -0.0483
   94SAPE   C27 9293   7.121   4.279   5.488  0.2111 -0.4847  0.1077
   94SAPE   H7R 9294   7.212   4.342   5.501  1.2689 -1.1947 -3.0377
   94SAPE   H7S 9295   7.044   4.331   5.428  0.1313 -1.9555 -1.1156
   94SAPE   C28 9296   7.145   4.160   5.405 -0.1559 -0.0507  0.1005
   94SAPE   H8R 9297   7.072   4.079   5.420 -0.0739 -0.6184 -2.1496
   94SAPE   C29 9298   7.246   4.143   5.321  0.0348  0.2309 -0.0187
   94SAPE   H9R 9299   7.243   4.053   5.258  2.3365 -1.8508  2.5469
   94SAPE  C210 9300   7.358   4.238   5.292  0.3198 -0.0752  0.1216
   94SAPE  H10R 9301   7.339   4.337   5.338  1.6289  0.9167 -1.3625
   94SAPE  H10S 9302   7.364   4.252   5.182  2.0644  1.5846  0.3740
   94SAPE  C211 9303   7.489   4.175   5.341 -0.0380  0.2613  0.1900
   94SAPE  H11R 9304   7.478   4.158   5.449  0.8905  2.1147  0.6222
   94SAPE  C212 9305   7.598   4.141   5.265 -0.1056 -0.3924  0.0911
   94SAPE  H12R 9306   7.687   4.095   5.312  1.0015  0.4465 -1.0909
   94SAPE  C213 9307   7.615   4.153   5.114  0.1411  0.7678  0.2193
   94SAPE  H13R 9308   7.549   4.089   5.050  1.4361 -1.8808  1.3611
   94SAPE  H13S 9309   7.717   4.117   5.090 -0.0013 -0.7422  1.6608
   94SAPE  C214 9310   7.609   4.300   5.075  0.0575 -0.0696  0.1553
   94SAPE  H14R 9311   7.636   4.377   5.149  0.9425  1.1505 -1.3693
   94SAPE  C215 9312   7.597   4.347   4.950 -0.3979 -0.1713 -0.3712
   94SAPE  H15R 9313   7.594   4.456   4.940  1.7533  0.0829  1.0620
   94SAPE  C216 9314   7.572   4.271   4.825  0.0578  0.5384  0.4701
   94SAPE  H16R 9315   7.532   4.167   4.834  0.5384  0.1608 -1.3854
   94SAPE  H16S 9316   7.671   4.264   4.775  0.6490  0.0279  1.6624
   94SAPE  C217 9317   7.468   4.326   4.732 -0.2530 -0.4062 -0.5909
   94SAPE  H17R 9318   7.478   4.257   4.645 -2.5679 -1.8648  0.2090
   94SAPE  H17S 9319   7.492   4.432   4.710 -1.5887  1.2383  4.5516
   94SAPE  C218 9320   7.327   4.309   4.791  0.0233 -0.1780 -0.5395
   94SAPE  H18R 9321   7.315   4.378   4.877  1.6965 -0.7676  0.2070
   94SAPE  H18S 9322   7.317   4.206   4.832 -0.2671  0.3798  0.8550
   94SAPE  C219 9323   7.223   4.334   4.685  0.5721  0.0814 -0.3557
   94SAPE  H19R 9324   7.268   4.389   4.600  0.3196 -1.2510 -1.4042
   94SAPE  H19S 9325   7.145   4.398   4.730  1.2695 -0.5024  1.7794
   94SAPE  C220 9326   7.168   4.205   4.631  0.8453 -0.1508  0.0111
   94SAPE  H20R 9327   7.065   4.202   4.590  0.6063 -1.6892  0.6402
   94SAPE  H20S 9328   7.153   4.133   4.715 -0.1321 -0.0858 -0.0979
   94SAPE  H20T 9329   7.239   4.152   4.564  1.6867 -1.5245  1.9047
   94SAPE   C33 9330   5.623   4.162   5.636 -0.6871 -0.3221  0.0266
   94SAPE   H3X 9331   5.584   4.240   5.704  2.0977  0.3772  0.9749
   94SAPE   H3Y 9332   5.542   4.086   5.647  0.5278 -1.7775 -0.6741
   94SAPE   C34 9333   5.620   4.206   5.486  0.0104 -0.9865 -0.1356
   94SAPE   H4X 9334   5.690   4.291   5.475 -2.1215  0.8965  0.0133
   94SAPE   H4Y 9335   5.514   4.240   5.477  0.3229 -0.2526 -1.2181
   94SAPE   C35 9336   5.649   4.095   5.379 -1.0306 -0.4495  0.0816
   94SAPE   H5X 9337   5.573   4.018   5.404 -1.2825 -0.2705 -0.1286
   94SAPE   H5Y 9338   5.754   4.061   5.383 -0.7525  0.0429 -1.8839
   94SAPE   C36 9339   5.628   4.138   5.236  0.3693  0.1530  0.5776
   94SAPE   H6X 9340   5.704   4.214   5.207 -0.0149 -0.3403 -1.8748
   94SAPE   H6Y 9341   5.526   4.182   5.231 -0.1986 -1.1851 -0.2443
   94SAPE   C37 9342   5.640   4.022   5.138  0.0323  0.4526 -0.4827
   94SAPE   H7X 9343   5.571   3.945   5.178 -0.6388  1.3707  0.2027
   94SAPE   H7Y 9344   5.743   3.983   5.127  0.2566  0.9132 -0.0580
   94SAPE   C38 9345   5.596   4.055   4.987 -0.4866  0.4734 -0.2370
   94SAPE   H8X 9346   5.497   4.105   4.988  0.6380  2.8875  1.6107
   94SAPE   H8Y 9347   5.581   3.962   4.928 -0.2521 -0.2800  0.8637
   94SAPE   C39 9348   5.693   4.157   4.915 -0.6403  0.4323  0.6143
   94SAPE   H9X 9349   5.799   4.127   4.923 -1.0321 -0.9764  0.9726
   94SAPE   H9Y 9350   5.686   4.252   4.971 -1.8451  0.3860  0.5768
   94SAPE  C310 9351   5.632   4.174   4.777 -0.7069  0.2167 -0.0995
   94SAPE  H10X 9352   5.648   4.280   4.746 -1.2259  0.0534 -0.9573
   94SAPE  H10Y 9353   5.521   4.181   4.787 -0.6880 -1.4032  1.9424
   94SAPE  C311 9354   5.678   4.073   4.664 -0.4699 -0.2940  0.2437
   94SAPE  H11X 9355   5.593   4.005   4.645 -1.2182  0.8603 -0.6590
   94SAPE  H11Y 9356   5.761   4.016   4.711  0.9767  3.6811  3.1535
   94SAPE  C312 9357   5.708   4.135   4.521 -0.1792 -0.5023 -0.4104
   94SAPE  H12X 9358   5.770   4.227   4.528 -0.8429 -0.1447  1.2820
   94SAPE  H12Y 9359   5.606   4.170   4.498 -0.8069 -0.7945  1.6874
   94SAPE  C313 9360   5.730   4.027   4.417 -0.2309  0.5687 -0.2301
   94SAPE  H13X 9361   5.648   3.953   4.419  1.4044 -1.4178 -1.7485
   94SAPE  H13Y 9362   5.819   3.970   4.451 -0.1333 -0.5562 -2.2120
   94SAPE  C314 9363   5.748   4.081   4.276 -0.0420  0.6320  0.8730
   94SAPE  H14X 9364   5.752   3.995   4.205 -2.2344  0.9532  0.3035
   94SAPE  H14Y 9365   5.840   4.140   4.258  0.8814 -1.3661 -1.4536
   94SAPE  C315 9366   5.637   4.159   4.209 -0.4186 -0.1486  0.1490
   94SAPE  H15X 9367   5.656   4.167   4.099 -0.7071  2.6759  0.2395
   94SAPE  H15Y 9368   5.630   4.265   4.242 -2.5213 -0.8114  2.0261
   94SAPE  C316 9369   5.498   4.088   4.227  0.3132 -0.3761 -0.5146
   94SAPE  H16X 9370   5.486   4.095   4.338  0.6337 -0.4344 -0.4760
   94SAPE  H16Y 9371   5.499   3.980   4.204 -3.0284 -0.5868 -0.2365
   94SAPE  C317 9372   5.393   4.155   4.139 -0.3546  0.0369  0.3065
   94SAPE  H17X 9373   5.437   4.149   4.038  1.2923 -0.6026  1.0265
   94SAPE  H17Y 9374   5.384   4.262   4.171 -0.7893 -0.0762  0.5793
   94SAPE  C318 9375   5.258   4.089   4.126 -0.1595  0.0463 -0.2943
   94SAPE  H18X 9376   5.268   3.978   4.129  1.9122  0.1751 -1.0902
   94SAPE  H18Y 9377   5.192   4.116   4.040 -1.3459 -1.1351  0.2035
   94SAPE  H18Z 9378   5.201   4.114   4.218 -1.1989 -0.1028 -0.8745
   95SAPE     N 9379   3.439   1.058   7.296  0.0878  0.0646  0.2212
   95SAPE   HN1 9380   3.400   0.981   7.354  2.9083 -2.7509 -1.2612
   95SAPE   HN2 9381   3.520   1.089   7.354  0.4887 -1.9997  0.8487
   95SAPE   HN3 9382   3.367   1.133   7.288  0.2679  0.9834  4.5735
   95SAPE   C12 9383   3.490   1.014   7.158  0.4247  0.0213 -0.0134
   95SAPE  H12A 9384   3.449   1.077   7.077  0.6476  0.1025 -0.0638
   95SAPE  H12B 9385   3.460   0.907   7.158 -2.2714  0.5298  3.8657
   95SAPE   C11 9386   3.642   1.009   7.145  0.7853  0.2045 -0.1906
   95SAPE  H11A 9387   3.659   0.951   7.052  1.5376 -1.1081  0.7095
   95SAPE  H11B 9388   3.692   0.957   7.231  0.2695 -1.3713 -0.8036
   95SAPE     P 9389   3.827   1.182   7.129  0.0032 -0.0309 -0.4879
   95SAPE   O13 9390   3.837   1.322   7.175  0.6349  0.3950  0.0170
   95SAPE   O14 9391   3.905   1.086   7.210 -1.1556  0.3567  0.9464
   95SAPE   O12 9392   3.678   1.142   7.127 -0.1230 -0.4720 -0.8503
   95SAPE   O11 9393   3.881   1.162   6.976  0.1570  0.5327 -0.3302
   95SAPE    C1 9394   3.967   1.263   6.913 -0.6953 -0.2406 -0.3230
   95SAPE    HA 9395   4.052   1.291   6.979  1.2999 -0.8595 -2.4963
   95SAPE    HB 9396   4.029   1.215   6.834 -0.3012  0.1686 -0.2605
   95SAPE    C2 9397   3.889   1.374   6.847 -0.1977 -0.2840 -0.4735
   95SAPE    HS 9398   3.838   1.440   6.919 -0.3218 -1.2113  0.3147
   95SAPE   O21 9399   3.795   1.315   6.753 -0.1597  0.3054 -0.0936
   95SAPE   C21 9400   3.667   1.351   6.746  0.1660 -0.1509 -0.1723
   95SAPE   O22 9401   3.613   1.430   6.818  0.2648 -0.1809 -0.1108
   95SAPE   C22 9402   3.594   1.255   6.654 -0.3087 -0.3175  0.0510
   95SAPE   H2R 9403   3.651   1.160   6.663  0.7138  0.3463  0.8846
   95SAPE   H2S 9404   3.493   1.233   6.694 -0.1365 -1.1342  0.0619
   95SAPE    C3 9405   3.988   1.467   6.774  0.1920  0.1899  0.4910
   95SAPE    HX 9406   4.047   1.512   6.856 -0.7502 -2.0903  2.5327
   95SAPE    HY 9407   3.930   1.547   6.722 -1.0200 -1.4035 -0.7389
   95SAPE   O31 9408   4.071   1.385   6.679 -0.2241 -0.6791 -0.0125
   95SAPE   C31 9409   4.031   1.374   6.552  0.4895  0.0737  0.4534
   95SAPE   O32 9410   3.933   1.425   6.498  0.5547 -0.1391 -0.2874
   95SAPE   C32 9411   4.135   1.284   6.478  0.4124 -0.6518  0.1830
   95SAPE   H2X 9412   4.102   1.180   6.498 -0.9340 -0.5912 -1.4876
   95SAPE   H2Y 9413   4.234   1.314   6.518  0.3265 -0.5893  0.3552
   95SAPE   C23 9414   3.584   1.319   6.515 -0.0080  0.3945  0.3270
   95SAPE   H3R 9415   3.681   1.316   6.462  0.7118 -1.0578  1.6590
   95SAPE   H3S 9416   3.558   1.427   6.521 -0.0470  0.2868  3.7186
   95SAPE   C24 9417   3.485   1.232   6.425  0.2784 -0.1916  0.1116
   95SAPE   H4R 9418   3.392   1.225   6.486  0.2254 -1.4727 -0.0898
   95SAPE   H4S 9419   3.513   1.125   6.421 -2.5767 -1.0804  1.2046
   95SAPE   C25 9420   3.452   1.283   6.286 -0.2077 -0.7288  0.5300
   95SAPE   H5R 9421   3.522   1.233   6.217 -1.2910  0.6634 -1.6757
   95SAPE   C26 9422   3.355   1.368   6.252 -0.3158  0.3202 -0.2071
   95SAPE   H6R 9423   3.333   1.392   6.147 -1.1510 -0.7081 -0.2829
   95SAPE   C27 9424   3.264   1.426   6.352 -0.0274 -0.6788  0.7484
   95SAPE   H7R 9425   3.220   1.516   6.303 -1.1542 -0.7607  1.5626
   95SAPE   H7S 9426   3.326   1.457   6.439 -1.1967 -0.8569  1.6817
   95SAPE   C28 9427   3.154   1.323   6.378 -0.2031  0.4663 -0.4853
   95SAPE   H8R 9428   3.164   1.219   6.346 -2.2758 -0.3406  1.2596
   95SAPE   C29 9429   3.045   1.357   6.453  0.4895 -0.8409  0.6310
   95SAPE   H9R 9430   2.973   1.279   6.479 -2.8640  2.1079  0.8653
   95SAPE  C210 9431   3.021   1.495   6.509  0.1774  0.4818 -0.2962
   95SAPE  H10R 9432   3.097   1.561   6.462  0.7312  0.2636  0.2781
   95SAPE  H10S 9433   3.034   1.502   6.619  1.9797 -0.9995 -0.3739
   95SAPE  C211 9434   2.885   1.550   6.480 -0.0760 -0.6682 -0.4442
   95SAPE  H11R 9435   2.813   1.522   6.558 -1.0530  1.3567 -0.5442
   95SAPE  C212 9436   2.847   1.645   6.389  0.1009  0.8944  0.4954
   95SAPE  H12R 9437   2.739   1.666   6.394  0.0532  0.7348  0.1490
   95SAPE  C213 9438   2.932   1.713   6.283  0.5782  0.5994 -0.4365
   95SAPE  H13R 9439   2.876   1.758   6.199 -0.1952  3.3609  1.4213
   95SAPE  H13S 9440   2.995   1.629   6.248 -0.5241 -0.3409 -0.2405
   95SAPE  C214 9441   3.021   1.821   6.344 -0.1149 -0.2249 -0.3060
   95SAPE  H14R 9442   3.019   1.831   6.453  1.6321  0.7285 -0.3320
   95SAPE  C215 9443   3.104   1.895   6.277  0.6313  0.0280 -0.4778
   95SAPE  H15R 9444   3.169   1.962   6.335  0.2399 -0.1453  0.1870
   95SAPE  C216 9445   3.133   1.901   6.129 -0.1843  0.5527  0.6449
   95SAPE  H16R 9446   3.108   1.996   6.078 -2.2560  0.2661  1.0282
   95SAPE  H16S 9447   3.064   1.828   6.082 -1.5060 -1.0211  4.5727
   95SAPE  C217 9448   3.274   1.855   6.089  0.6323  0.5154 -0.0203
   95SAPE  H17R 9449   3.303   1.757   6.133  1.4445  0.9510  0.4325
   95SAPE  H17S 9450   3.346   1.930   6.127  0.1887  1.6293 -1.2943
   95SAPE  C218 9451   3.299   1.858   5.932  0.5640  0.3512 -0.3968
   95SAPE  H18R 9452   3.288   1.961   5.892  0.6326 -0.2602 -2.0760
   95SAPE  H18S 9453   3.217   1.791   5.900  1.7370 -1.1000 -0.4635
   95SAPE  C219 9454   3.426   1.794   5.881 -0.7574  0.2888 -0.8437
   95SAPE  H19R 9455   3.505   1.871   5.897 -1.6770  0.7017  2.2065
   95SAPE  H19S 9456   3.419   1.789   5.770  0.1737  0.1094 -0.9047
   95SAPE  C220 9457   3.471   1.652   5.934  0.2593  0.3643 -0.9414
   95SAPE  H20R 9458   3.549   1.614   5.865  1.1548  2.6460 -1.2797
   95SAPE  H20S 9459   3.385   1.582   5.937 -1.1575  2.0527 -0.2755
   95SAPE  H20T 9460   3.508   1.664   6.038  1.3300  1.0231 -1.3745
   95SAPE   C33 9461   4.128   1.308   6.326 -0.1306 -0.8256  0.0827
   95SAPE   H3X 9462   4.092   1.406   6.289  0.7895 -0.5653 -0.1558
   95SAPE   H3Y 9463   4.042   1.253   6.283 -2.2198  2.0615  0.2685
   95SAPE   C34 9464   4.266   1.284   6.268 -0.4188  0.0911 -0.1253
   95SAPE   H4X 9465   4.322   1.196   6.308  1.0979  1.7378  1.5969
   95SAPE   H4Y 9466   4.323   1.373   6.302 -1.5486  1.1871 -1.0205
   95SAPE   C35 9467   4.279   1.255   6.123  0.1841  0.1485 -0.5404
   95SAPE   H5X 9468   4.240   1.342   6.066  0.3077  0.5728  0.0234
   95SAPE   H5Y 9469   4.222   1.168   6.083  3.3876 -2.8451  0.8554
   95SAPE   C36 9470   4.423   1.224   6.081 -0.1434 -0.0222 -0.5682
   95SAPE   H6X 9471   4.461   1.135   6.135 -1.9607 -2.0207 -2.3499
   95SAPE   H6Y 9472   4.485   1.315   6.099 -1.0969  0.9053 -1.7400
   95SAPE   C37 9473   4.433   1.202   5.932  0.1278 -0.0902  0.3052
   95SAPE   H7X 9474   4.375   1.112   5.902 -1.1842  0.2080  1.7486
   95SAPE   H7Y 9475   4.537   1.171   5.911  0.1240  1.0261 -1.6285
   95SAPE   C38 9476   4.408   1.327   5.843  0.3760 -0.3968  0.3942
   95SAPE   H8X 9477   4.483   1.405   5.868 -0.4314  0.4148  0.3706
   95SAPE   H8Y 9478   4.308   1.364   5.875 -0.2847 -1.1413 -0.7332
   95SAPE   C39 9479   4.412   1.300   5.692  0.2444 -0.2777  0.2274
   95SAPE   H9X 9480   4.313   1.256   5.668  0.0378  0.7484 -0.9137
   95SAPE   H9Y 9481   4.497   1.244   5.649  0.5397  2.1635 -2.7295
   95SAPE  C310 9482   4.390   1.429   5.621 -0.4234 -0.0248 -0.0509
   95SAPE  H10X 9483   4.486   1.484   5.625 -0.2188 -0.3988  0.2484
   95SAPE  H10Y 9484   4.326   1.503   5.675  0.5150  0.1216  0.8774
   95SAPE  C311 9485   4.347   1.432   5.468 -0.2342  0.2021  0.0046
   95SAPE  H11X 9486   4.253   1.372   5.474 -0.7432  0.9220 -0.5964
   95SAPE  H11Y 9487   4.422   1.380   5.405 -1.4018  0.3587 -1.5814
   95SAPE  C312 9488   4.300   1.554   5.400 -0.3747 -0.6888 -0.1062
   95SAPE  H12X 9489   4.262   1.526   5.299  0.6478 -2.6798  0.0066
   95SAPE  H12Y 9490   4.391   1.614   5.380 -1.2899  0.5464 -0.6960
   95SAPE  C313 9491   4.210   1.644   5.483  0.0925  0.3524 -0.4530
   95SAPE  H13X 9492   4.252   1.652   5.586 -1.6667 -1.8656  0.5206
   95SAPE  H13Y 9493   4.113   1.591   5.487 -0.6066  1.4716 -1.7460
   95SAPE  C314 9494   4.180   1.788   5.431 -0.0681 -0.0477  0.2070
   95SAPE  H14X 9495   4.277   1.841   5.439  0.1636 -0.2023 -1.2160
   95SAPE  H14Y 9496   4.101   1.819   5.502 -1.5487 -1.1672 -0.8805
   95SAPE  C315 9497   4.137   1.795   5.284  0.4690 -0.0727  0.0370
   95SAPE  H15X 9498   4.219   1.751   5.223  0.1505  0.9221 -1.1420
   95SAPE  H15Y 9499   4.137   1.902   5.253  0.2835 -0.6995 -2.2935
   95SAPE  C316 9500   3.996   1.742   5.263  0.0380  0.4878 -0.3894
   95SAPE  H16X 9501   3.928   1.798   5.331  1.6708 -0.3988  2.1028
   95SAPE  H16Y 9502   3.996   1.643   5.314  1.3463  0.9128  0.4972
   95SAPE  C317 9503   3.949   1.748   5.115 -0.0409 -0.0244 -0.0073
   95SAPE  H17X 9504   3.841   1.719   5.115 -0.3344  0.8917 -1.8498
   95SAPE  H17Y 9505   4.005   1.674   5.053  0.0710 -1.8421  2.1213
   95SAPE  C318 9506   3.954   1.882   5.038  0.3995  0.1045 -0.1523
   95SAPE  H18X 9507   4.052   1.934   5.050 -0.4349  1.5794  0.4895
   95SAPE  H18Y 9508   3.871   1.948   5.070  1.2555  1.5861 -0.8741
   95SAPE  H18Z 9509   3.937   1.873   4.929 -1.4505 -0.7572  0.1802
   96SAPE     N 9510   6.821   4.795   6.235 -0.2060 -0.2229 -0.0603
   96SAPE   HN1 9511   6.734   4.739   6.238 -0.7900  0.6512 -0.3829
   96SAPE   HN2 9512   6.866   4.759   6.148 -1.1781 -1.6192 -0.0150
   96SAPE   HN3 9513   6.875   4.770   6.321 -1.8742  0.8749  1.3612
   96SAPE   C12 9514   6.781   4.945   6.238 -0.5007 -0.7062  0.2581
   96SAPE  H12A 9515   6.878   4.998   6.248  0.0916 -2.0731  2.0825
   96SAPE  H12B 9516   6.728   4.969   6.332  1.0780  0.5670  0.8606
   96SAPE   C11 9517   6.701   4.989   6.103 -0.3624 -1.1880  0.0693
   96SAPE  H11A 9518   6.747   4.924   6.025 -0.5643  0.3835 -1.4178
   96SAPE  H11B 9519   6.721   5.097   6.087 -1.2558 -0.5678  2.7221
   96SAPE     P 9520   6.454   5.063   6.162 -0.1177 -0.1498 -0.2668
   96SAPE   O13 9521   6.315   4.999   6.168 -0.6217  0.7228 -0.0685
   96SAPE   O14 9522   6.507   5.139   6.281  0.0722 -0.1965  0.0618
   96SAPE   O12 9523   6.562   4.950   6.123 -0.2617 -0.3758 -0.5281
   96SAPE   O11 9524   6.470   5.153   6.041 -0.0331  0.2450  0.1490
   96SAPE    C1 9525   6.411   5.124   5.918  0.1287  0.1762  0.1207
   96SAPE    HA 9526   6.314   5.070   5.925 -0.6797  0.6847 -4.3778
   96SAPE    HB 9527   6.381   5.219   5.870 -2.3899 -0.1845  0.8663
   96SAPE    C2 9528   6.497   5.035   5.826 -0.0868 -0.4325 -0.3250
   96SAPE    HS 9529   6.529   4.948   5.886 -0.0461 -0.8700 -0.9681
   96SAPE   O21 9530   6.592   5.124   5.774  0.2755 -0.4412  0.0701
   96SAPE   C21 9531   6.712   5.069   5.742 -1.1455  0.2366 -0.8925
   96SAPE   O22 9532   6.738   4.949   5.749  0.3980  0.2462 -0.6099
   96SAPE   C22 9533   6.800   5.175   5.680 -0.0620  0.5848 -0.2908
   96SAPE   H2R 9534   6.800   5.162   5.570 -1.3643  0.0093 -0.2521
   96SAPE   H2S 9535   6.766   5.279   5.701  1.7724  1.1332  0.1225
   96SAPE    C3 9536   6.418   4.974   5.702  0.2461  0.4017 -0.0086
   96SAPE    HX 9537   6.387   5.069   5.652  0.3500 -0.6752 -2.2267
   96SAPE    HY 9538   6.327   4.919   5.734  1.6917 -0.9163  2.0608
   96SAPE   O31 9539   6.494   4.894   5.613  0.0397 -0.7418 -0.2309
   96SAPE   C31 9540   6.507   4.766   5.653 -0.1472 -0.3363 -0.5058
   96SAPE   O32 9541   6.450   4.719   5.749  0.9305 -0.7362  0.1812
   96SAPE   C32 9542   6.608   4.698   5.561  0.0143 -0.4979 -1.4155
   96SAPE   H2X 9543   6.634   4.595   5.594 -1.5039  0.0926  2.0468
   96SAPE   H2Y 9544   6.704   4.753   5.574 -0.1683 -0.5168  0.3243
   96SAPE   C23 9545   6.938   5.159   5.746 -0.3890 -0.2734 -1.5188
   96SAPE   H3R 9546   7.004   5.241   5.709 -0.7378  1.1416  0.8191
   96SAPE   H3S 9547   6.985   5.066   5.707 -0.0122  0.2400 -2.3386
   96SAPE   C24 9548   6.945   5.153   5.903 -0.4700  1.0424 -0.0054
   96SAPE   H4R 9549   6.911   5.054   5.941  2.7985  0.4070  1.5635
   96SAPE   H4S 9550   6.877   5.229   5.947  0.4390  1.1245  1.2888
   96SAPE   C25 9551   7.084   5.186   5.960 -0.2844  0.0636 -0.6484
   96SAPE   H5R 9552   7.164   5.144   5.898  1.2802  0.4850  1.0101
   96SAPE   C26 9553   7.125   5.265   6.058 -0.0201  0.0338 -0.0065
   96SAPE   H6R 9554   7.233   5.275   6.077  0.1170 -0.2990 -0.5827
   96SAPE   C27 9555   7.041   5.336   6.160  0.0248 -0.1358  0.3868
   96SAPE   H7R 9556   7.090   5.330   6.259 -2.4771 -1.8923  1.6128
   96SAPE   H7S 9557   6.956   5.266   6.169  1.0206 -1.4852 -0.2508
   96SAPE   C28 9558   6.983   5.475   6.144  0.0632 -0.4758  0.1593
   96SAPE   H8R 9559   6.991   5.527   6.241  1.4362  0.1589 -0.2786
   96SAPE   C29 9560   6.966   5.557   6.038 -0.3948  0.2430  0.4027
   96SAPE   H9R 9561   6.924   5.655   6.063  0.1607  0.0618  2.2174
   96SAPE  C210 9562   6.987   5.510   5.895  0.1514 -0.2421  0.3775
   96SAPE  H10R 9563   6.890   5.520   5.843  0.9444  1.5244 -0.8550
   96SAPE  H10S 9564   7.005   5.400   5.892  0.8548 -0.1027 -1.3997
   96SAPE  C211 9565   7.097   5.573   5.807  0.3698  0.2600  0.3355
   96SAPE  H11R 9566   7.185   5.619   5.854  0.1790  3.0756 -1.7324
   96SAPE  C212 9567   7.095   5.574   5.672  0.1041 -0.2172 -0.2806
   96SAPE  H12R 9568   7.172   5.638   5.626  0.5833  0.7687  1.7553
   96SAPE  C213 9569   6.993   5.519   5.578  0.3623  0.1640  0.3883
   96SAPE  H13R 9570   6.955   5.598   5.510  1.5994 -0.9445 -1.6611
   96SAPE  H13S 9571   6.906   5.483   5.638  0.3503 -0.4202  0.0264
   96SAPE  C214 9572   7.044   5.407   5.491 -1.1058  0.2323  0.7368
   96SAPE  H14R 9573   7.122   5.347   5.540  0.0749 -0.6004 -1.9901
   96SAPE  C215 9574   7.016   5.370   5.365  0.3959  0.8623  0.0268
   96SAPE  H15R 9575   7.072   5.287   5.321  1.2292  2.3685 -1.9048
   96SAPE  C216 9576   6.913   5.426   5.279  0.0995  0.6132 -0.2748
   96SAPE  H16R 9577   6.836   5.476   5.343  0.6588  1.7144 -0.4412
   96SAPE  H16S 9578   6.849   5.352   5.226 -1.1312  1.4615 -0.0250
   96SAPE  C217 9579   6.981   5.517   5.170  0.1116  0.0726 -0.3602
   96SAPE  H17R 9580   7.021   5.608   5.218 -1.2487 -0.6518  2.3711
   96SAPE  H17S 9581   6.902   5.549   5.099 -1.3592 -0.5900  0.8999
   96SAPE  C218 9582   7.089   5.448   5.080  0.1456  0.3876 -0.3788
   96SAPE  H18R 9583   7.146   5.370   5.134 -2.4754 -2.3553 -1.2521
   96SAPE  H18S 9584   7.155   5.533   5.052 -1.6110  1.9678 -0.0026
   96SAPE  C219 9585   7.027   5.373   4.961  0.2441 -0.5019 -0.7390
   96SAPE  H19R 9586   7.109   5.343   4.893  0.6324 -2.5306  0.5444
   96SAPE  H19S 9587   6.952   5.438   4.909 -1.2800 -0.2911  1.5792
   96SAPE  C220 9588   6.940   5.254   5.000  1.1847  0.8460  0.8337
   96SAPE  H20R 9589   6.918   5.202   4.904 -1.1436  1.5817  0.9092
   96SAPE  H20S 9590   6.840   5.276   5.044  1.3766  1.1005  1.1506
   96SAPE  H20T 9591   6.995   5.184   5.066 -2.9922 -2.4230  1.2705
   96SAPE   C33 9592   6.554   4.700   5.415  0.2445 -0.2516 -0.6273
   96SAPE   H3X 9593   6.639   4.679   5.348  1.3944  1.2209  0.2995
   96SAPE   H3Y 9594   6.530   4.805   5.389 -1.6413 -0.9711 -1.9936
   96SAPE   C34 9595   6.426   4.624   5.370 -0.1645 -0.0084  0.5414
   96SAPE   H4X 9596   6.425   4.624   5.259  1.5610  0.0998  0.4957
   96SAPE   H4Y 9597   6.339   4.683   5.407 -0.0557  0.4029  0.1525
   96SAPE   C35 9598   6.427   4.478   5.412  0.3272 -0.2236  0.2415
   96SAPE   H5X 9599   6.395   4.461   5.517 -0.2329  0.0801  0.1249
   96SAPE   H5Y 9600   6.536   4.457   5.408  0.1362 -1.5867  1.1137
   96SAPE   C36 9601   6.338   4.387   5.331 -0.3102  0.9256  0.1996
   96SAPE   H6X 9602   6.338   4.286   5.376  2.6688 -1.0363 -3.5855
   96SAPE   H6Y 9603   6.386   4.376   5.232  0.0243  0.0133  0.4590
   96SAPE   C37 9604   6.196   4.445   5.324 -0.1006 -0.1923  0.4836
   96SAPE   H7X 9605   6.197   4.538   5.262  0.3427 -0.5432 -0.0458
   96SAPE   H7Y 9606   6.152   4.456   5.425 -0.1882 -0.5005  0.4805
   96SAPE   C38 9607   6.090   4.356   5.259 -0.0943 -0.7093  0.4770
   96SAPE   H8X 9608   6.106   4.254   5.301 -0.5431 -0.9857  0.0022
   96SAPE   H8Y 9609   6.098   4.344   5.148 -4.0874 -1.5557  0.1458
   96SAPE   C39 9610   5.947   4.395   5.288  0.4769  0.4121 -0.0219
   96SAPE   H9X 9611   5.924   4.400   5.396 -1.4001  1.7268 -0.4173
   96SAPE   H9Y 9612   5.874   4.321   5.249 -1.0724  2.3600 -1.0451
   96SAPE  C310 9613   5.912   4.521   5.210  0.1594 -0.2221 -0.0139
   96SAPE  H10X 9614   5.968   4.516   5.114 -0.2879 -0.1656 -0.2844
   96SAPE  H10Y 9615   5.936   4.605   5.278 -0.1881 -0.9279  1.0049
   96SAPE  C311 9616   5.762   4.519   5.175  0.0987 -1.0277 -0.2326
   96SAPE  H11X 9617   5.701   4.531   5.267  2.2904 -1.7121  1.3866
   96SAPE  H11Y 9618   5.734   4.425   5.123 -0.9856 -0.1691 -1.2564
   96SAPE  C312 9619   5.715   4.634   5.074  0.5523 -0.2277  0.3533
   96SAPE  H12X 9620   5.760   4.616   4.974 -0.6742 -1.0099 -0.0871
   96SAPE  H12Y 9621   5.757   4.728   5.116  2.0171 -0.4843 -0.4689
   96SAPE  C313 9622   5.562   4.638   5.048 -0.3722 -0.1726 -0.4617
   96SAPE  H13X 9623   5.525   4.550   4.991 -1.5659  0.5061 -0.7685
   96SAPE  H13Y 9624   5.531   4.725   4.985  0.9555  0.1802 -0.6478
   96SAPE  C314 9625   5.469   4.651   5.170  0.0342 -0.2627  0.8339
   96SAPE  H14X 9626   5.498   4.745   5.220 -0.7880 -0.1888  1.1760
   96SAPE  H14Y 9627   5.460   4.566   5.241  0.7838  0.2665  1.5846
   96SAPE  C315 9628   5.314   4.674   5.126  0.4199 -0.8104  0.1618
   96SAPE  H15X 9629   5.282   4.581   5.074  4.3589 -2.1562 -0.1529
   96SAPE  H15Y 9630   5.307   4.752   5.047 -0.9937 -1.2537 -0.1814
   96SAPE  C316 9631   5.218   4.711   5.244 -0.1662  0.0427 -0.0281
   96SAPE  H16X 9632   5.258   4.798   5.300  1.5045  0.1781 -1.3386
   96SAPE  H16Y 9633   5.242   4.630   5.317  0.9864  1.6079  1.4094
   96SAPE  C317 9634   5.065   4.697   5.214  0.3122  0.0030 -0.1529
   96SAPE  H17X 9635   5.039   4.592   5.186 -2.1548  0.1898  1.1114
   96SAPE  H17Y 9636   5.029   4.776   5.145  1.1961  1.5973  1.1565
   96SAPE  C318 9637   4.984   4.731   5.341 -0.1543 -0.0462 -0.7556
   96SAPE  H18X 9638   4.998   4.651   5.416 -1.4846  1.7823  1.6055
   96SAPE  H18Y 9639   4.876   4.743   5.316 -0.4026 -1.2067 -0.2669
   96SAPE  H18Z 9640   5.021   4.824   5.389 -0.3088 -1.2268  1.7821
   97SAPE     N 9641   0.622   0.058   7.539 -0.2812  0.6427  0.2054
   97SAPE   HN1 9642   0.586   0.007   7.623  1.7538 -1.4463 -0.0792
   97SAPE   HN2 9643   0.672   0.132   7.592 -1.5740 -0.6679  3.5718
   97SAPE   HN3 9644   0.536   0.108   7.509  0.1481  0.7562 -0.8788
   97SAPE   C12 9645   0.691  -0.012   7.436 -0.7034  0.1574  0.0482
   97SAPE  H12A 9646   0.630  -0.085   7.378  0.7018 -1.4964  0.5500
   97SAPE  H12B 9647   0.781  -0.060   7.480 -1.4394 -0.2881  1.1106
   97SAPE   C11 9648   0.732   0.089   7.324 -0.2178  0.1523 -0.4366
   97SAPE  H11A 9649   0.748   0.033   7.229  0.2455 -3.3219  1.5279
   97SAPE  H11B 9650   0.833   0.128   7.351 -0.4293  0.0640  0.5140
   97SAPE     P 9651   0.667   0.334   7.266 -0.1683  0.2530  0.1210
   97SAPE   O13 9652   0.539   0.396   7.247  0.1820  0.2375 -0.1630
   97SAPE   O14 9653   0.761   0.398   7.365  0.2354 -0.1166  0.5450
   97SAPE   O12 9654   0.634   0.183   7.303 -0.7251 -0.1294 -0.3705
   97SAPE   O11 9655   0.748   0.328   7.126  0.0756  0.1555  0.0176
   97SAPE    C1 9656   0.682   0.247   7.021 -0.0185  0.1972  0.6983
   97SAPE    HA 9657   0.746   0.185   6.956 -1.1509 -0.1742 -0.1020
   97SAPE    HB 9658   0.601   0.176   7.049 -0.5775  0.0653 -1.1076
   97SAPE    C2 9659   0.607   0.342   6.920  0.0260  0.9791 -0.8752
   97SAPE    HS 9660   0.523   0.390   6.976 -0.0019 -0.1532  0.1026
   97SAPE   O21 9661   0.552   0.268   6.808 -0.0492 -0.2904  0.3972
   97SAPE   C21 9662   0.446   0.190   6.843  0.1255 -0.0322 -0.1287
   97SAPE   O22 9663   0.380   0.196   6.940  0.6302  0.0930 -0.2485
   97SAPE   C22 9664   0.420   0.098   6.714 -0.1551 -0.4543 -0.2317
   97SAPE   H2R 9665   0.503   0.092   6.640 -1.1827 -1.1187 -1.3664
   97SAPE   H2S 9666   0.388  -0.006   6.739 -0.7317 -0.6139 -1.5274
   97SAPE    C3 9667   0.700   0.454   6.875  0.2949 -0.5180 -0.3871
   97SAPE    HX 9668   0.792   0.405   6.837  1.5554  1.8619 -0.6091
   97SAPE    HY 9669   0.734   0.511   6.964  1.5863 -1.0544 -0.5175
   97SAPE   O31 9670   0.644   0.542   6.770  1.0519 -0.0871 -0.4957
   97SAPE   C31 9671   0.542   0.621   6.808 -0.9958 -0.7703 -0.9067
   97SAPE   O32 9672   0.498   0.622   6.922  0.7825  0.1429  0.5719
   97SAPE   C32 9673   0.505   0.712   6.689  0.1066 -0.3411 -0.4233
   97SAPE   H2X 9674   0.463   0.810   6.718  3.4592  1.6049 -1.5342
   97SAPE   H2Y 9675   0.414   0.664   6.647 -1.5593  1.7989  0.5794
   97SAPE   C23 9676   0.283   0.149   6.659  0.1886 -0.2297  0.1141
   97SAPE   H3R 9677   0.289   0.253   6.621 -1.8098 -0.0729  0.1100
   97SAPE   H3S 9678   0.221   0.144   6.752  3.0086  0.0791  2.1290
   97SAPE   C24 9679   0.238   0.061   6.538 -0.0933  0.4814 -0.1134
   97SAPE   H4R 9680   0.216  -0.043   6.569 -0.7790  0.2412 -1.3314
   97SAPE   H4S 9681   0.309   0.057   6.453 -1.2289 -1.5068 -1.0349
   97SAPE   C25 9682   0.109   0.122   6.508  0.3299  0.2580  0.6360
   97SAPE   H5R 9683   0.021   0.079   6.559 -0.9882  1.2612 -0.7344
   97SAPE   C26 9684   0.087   0.240   6.442  0.0696  0.2757 -0.3906
   97SAPE   H6R 9685  -0.012   0.288   6.441 -0.0682  0.0629  0.7665
   97SAPE   C27 9686   0.184   0.313   6.356  0.3248 -0.8957  0.6852
   97SAPE   H7R 9687   0.214   0.259   6.264 -2.2762 -2.0992  0.4569
   97SAPE   H7S 9688   0.280   0.315   6.412  0.6585  0.8607  0.1390
   97SAPE   C28 9689   0.152   0.459   6.335 -0.6246 -0.7536 -0.9696
   97SAPE   H8R 9690   0.111   0.512   6.422  2.0676 -1.4662  0.8273
   97SAPE   C29 9691   0.168   0.533   6.223 -0.6503 -0.0152  0.1835
   97SAPE   H9R 9692   0.134   0.638   6.223 -0.4025  0.0788 -0.7604
   97SAPE  C210 9693   0.224   0.489   6.090 -0.3463  0.1198 -0.2115
   97SAPE  H10R 9694   0.225   0.574   6.019 -0.5426 -1.5069 -2.2389
   97SAPE  H10S 9695   0.158   0.412   6.045 -0.2222  0.2264 -0.5780
   97SAPE  C211 9696   0.362   0.448   6.115 -0.0319 -0.4059 -0.2137
   97SAPE  H11R 9697   0.382   0.422   6.220 -1.5299  0.7355  0.3899
   97SAPE  C212 9698   0.443   0.407   6.015 -0.3504  0.0943 -0.0977
   97SAPE  H12R 9699   0.543   0.365   6.035  0.5544  2.6930  1.2426
   97SAPE  C213 9700   0.430   0.417   5.865  0.4978  0.1007  0.1286
   97SAPE  H13R 9701   0.322   0.403   5.843  0.2735 -1.0762  1.7811
   97SAPE  H13S 9702   0.482   0.330   5.818 -2.2584 -0.5346 -2.0421
   97SAPE  C214 9703   0.477   0.538   5.797 -0.5437 -0.6622 -0.2385
   97SAPE  H14R 9704   0.481   0.628   5.859 -1.1139 -0.6392 -0.2243
   97SAPE  C215 9705   0.501   0.536   5.670 -0.4640 -0.0811 -0.2434
   97SAPE  H15R 9706   0.560   0.624   5.640  1.7825 -0.4426  2.6837
   97SAPE  C216 9707   0.482   0.421   5.571 -0.3913 -0.4564 -0.3134
   97SAPE  H16R 9708   0.403   0.350   5.603  1.0422 -2.0265 -0.1099
   97SAPE  H16S 9709   0.579   0.368   5.556  0.0863  0.3341 -0.0295
   97SAPE  C217 9710   0.447   0.475   5.432  0.9484  0.3210 -0.5545
   97SAPE  H17R 9711   0.526   0.546   5.403  2.2858 -0.1915  1.5961
   97SAPE  H17S 9712   0.349   0.528   5.428 -0.9675 -2.7553  1.0424
   97SAPE  C218 9713   0.435   0.367   5.333 -0.5711  0.4914  1.0410
   97SAPE  H18R 9714   0.340   0.315   5.357  0.4914 -1.4017  1.3992
   97SAPE  H18S 9715   0.510   0.286   5.348  0.0007  0.6815 -0.5884
   97SAPE  C219 9716   0.430   0.421   5.186 -0.8105  0.4094 -0.1627
   97SAPE  H19R 9717   0.523   0.481   5.177 -0.4643 -0.1744 -0.6089
   97SAPE  H19S 9718   0.339   0.485   5.182 -2.2114 -1.4339  0.6390
   97SAPE  C220 9719   0.423   0.304   5.086  0.3083  0.1834 -0.0779
   97SAPE  H20R 9720   0.344   0.232   5.117 -0.3450  0.3821 -1.2045
   97SAPE  H20S 9721   0.514   0.244   5.061  0.0202 -0.4804  0.4423
   97SAPE  H20T 9722   0.376   0.339   4.991 -2.7123 -1.5387  0.6472
   97SAPE   C33 9723   0.615   0.733   6.577 -0.0311 -0.3268  0.5273
   97SAPE   H3X 9724   0.670   0.636   6.576 -1.4901 -1.2238  1.9283
   97SAPE   H3Y 9725   0.683   0.816   6.603 -0.3590  0.7064 -1.7567
   97SAPE   C34 9726   0.549   0.749   6.444 -0.0487 -0.6826  0.2216
   97SAPE   H4X 9727   0.443   0.777   6.461 -0.3784 -2.6998  1.9299
   97SAPE   H4Y 9728   0.531   0.648   6.402 -2.3694 -1.0055  1.7915
   97SAPE   C35 9729   0.629   0.839   6.356  0.4544  0.2181 -0.0152
   97SAPE   H5X 9730   0.723   0.785   6.328  0.1773  0.1294 -0.8000
   97SAPE   H5Y 9731   0.654   0.934   6.408 -0.5144  0.0456  0.7851
   97SAPE   C36 9732   0.571   0.879   6.219 -0.4992  0.1428  0.6401
   97SAPE   H6X 9733   0.469   0.920   6.236 -0.2403  0.8059  0.6291
   97SAPE   H6Y 9734   0.554   0.786   6.161  0.7545  0.3436 -0.0984
   97SAPE   C37 9735   0.658   0.976   6.134  0.3907  0.3894  0.5273
   97SAPE   H7X 9736   0.739   0.913   6.090  0.3833  1.2708 -0.7864
   97SAPE   H7Y 9737   0.705   1.048   6.203  0.3141  1.0143 -0.0662
   97SAPE   C38 9738   0.589   1.022   5.998 -0.0083 -0.3219 -1.3711
   97SAPE   H8X 9739   0.564   0.934   5.935  0.9243  0.7994 -3.3865
   97SAPE   H8Y 9740   0.664   1.077   5.937  1.6907  0.3504  1.1589
   97SAPE   C39 9741   0.460   1.106   6.021  0.8631 -0.1474 -0.3907
   97SAPE   H9X 9742   0.476   1.179   6.103  0.1433  1.2704 -1.4543
   97SAPE   H9Y 9743   0.381   1.030   6.042 -1.3811  1.3440 -2.7346
   97SAPE  C310 9744   0.427   1.199   5.896  0.0801  0.2730 -0.4189
   97SAPE  H10X 9745   0.317   1.213   5.902  0.3147  1.6478  2.0660
   97SAPE  H10Y 9746   0.460   1.145   5.805  2.0169  0.8363 -0.1079
   97SAPE  C311 9747   0.502   1.331   5.894  0.8083 -0.4418 -0.1435
   97SAPE  H11X 9748   0.606   1.318   5.931 -0.1622  0.2061  3.2066
   97SAPE  H11Y 9749   0.460   1.405   5.965  3.1308  0.1677  0.6623
   97SAPE  C312 9750   0.489   1.403   5.758  0.2185  0.0737 -0.3119
   97SAPE  H12X 9751   0.381   1.405   5.732 -0.2029 -2.8474  0.7933
   97SAPE  H12Y 9752   0.534   1.339   5.680  0.1548 -0.3978  0.0316
   97SAPE  C313 9753   0.563   1.539   5.751 -0.6256  0.5767  0.2063
   97SAPE  H13X 9754   0.667   1.525   5.787 -0.0208  1.8408 -0.9496
   97SAPE  H13Y 9755   0.517   1.619   5.813  0.2516 -0.1923  1.8829
   97SAPE  C314 9756   0.568   1.595   5.606  0.2207  0.1079  0.4370
   97SAPE  H14X 9757   0.609   1.518   5.537  3.8561  2.1017  0.1166
   97SAPE  H14Y 9758   0.637   1.682   5.609 -0.8770  0.9720  2.1571
   97SAPE  C315 9759   0.435   1.648   5.546 -0.3383  0.1450  0.2785
   97SAPE  H15X 9760   0.409   1.732   5.614 -2.2591  0.0226 -0.2582
   97SAPE  H15Y 9761   0.358   1.570   5.562 -0.2711 -0.3790 -1.6621
   97SAPE  C316 9762   0.446   1.693   5.403 -0.4702  0.3832  0.5692
   97SAPE  H16X 9763   0.512   1.782   5.398  0.9339 -0.5997  1.1648
   97SAPE  H16Y 9764   0.340   1.709   5.371 -1.3759 -2.5316  1.8098
   97SAPE  C317 9765   0.513   1.594   5.300  0.0207 -0.2402  0.1771
   97SAPE  H17X 9766   0.459   1.498   5.314 -0.1741 -0.2955 -0.8608
   97SAPE  H17Y 9767   0.621   1.584   5.322 -0.0963  2.5190  2.6704
   97SAPE  C318 9768   0.499   1.661   5.152 -0.4638  0.1157 -0.6741
   97SAPE  H18X 9769   0.398   1.652   5.108 -1.0162 -0.4590  0.6558
   97SAPE  H18Y 9770   0.577   1.624   5.082  2.2845  0.7281  1.8767
   97SAPE  H18Z 9771   0.526   1.769   5.150 -1.9044  0.4818 -1.7638
   98SAPE     N 9772   6.280   1.362   6.477  0.2866  1.1234  0.1707
   98SAPE   HN1 9773   6.350   1.389   6.549  0.8594  1.1427 -0.3887
   98SAPE   HN2 9774   6.339   1.340   6.395 -0.2816 -1.2431  0.3337
   98SAPE   HN3 9775   6.212   1.440   6.468  1.0591  1.5519 -2.7476
   98SAPE   C12 9776   6.209   1.231   6.520 -0.3180 -0.2032  0.1538
   98SAPE  H12A 9777   6.111   1.217   6.471 -0.7510  4.5355 -0.8510
   98SAPE  H12B 9778   6.179   1.248   6.626 -1.8333 -1.7241 -0.0031
   98SAPE   C11 9779   6.299   1.113   6.536 -0.2020  0.6613  0.2639
   98SAPE  H11A 9780   6.337   1.081   6.436 -1.6712  1.5757 -0.6374
   98SAPE  H11B 9781   6.246   1.023   6.573  0.2214  0.7361  1.0706
   98SAPE     P 9782   6.557   1.128   6.582 -0.3811  0.0117 -0.0541
   98SAPE   O13 9783   6.597   1.236   6.492  0.0610 -0.3781  0.0471
   98SAPE   O14 9784   6.632   1.117   6.710 -0.0788  0.5382  0.6499
   98SAPE   O12 9785   6.404   1.148   6.624 -0.2630  0.1331 -0.5676
   98SAPE   O11 9786   6.559   0.989   6.499  0.4334  0.0940  0.0714
   98SAPE    C1 9787   6.475   0.881   6.560  0.6900 -0.3988 -0.8179
   98SAPE    HA 9788   6.451   0.897   6.667  1.3456  0.7950 -0.8293
   98SAPE    HB 9789   6.384   0.865   6.498  1.9684 -1.8859 -2.4363
   98SAPE    C2 9790   6.557   0.750   6.530 -0.0327  0.1021 -0.4218
   98SAPE    HS 9791   6.653   0.772   6.580 -0.9889 -0.8753  1.9877
   98SAPE   O21 9792   6.571   0.745   6.388  0.1941 -0.3775  0.4020
   98SAPE   C21 9793   6.687   0.697   6.342  0.0886 -0.3145  0.0145
   98SAPE   O22 9794   6.782   0.662   6.409 -0.5502  0.1391 -0.4276
   98SAPE   C22 9795   6.684   0.684   6.189  0.4747  0.1959  0.4171
   98SAPE   H2R 9796   6.579   0.673   6.155  0.5736 -0.0439  0.1797
   98SAPE   H2S 9797   6.711   0.780   6.140 -0.0607  0.9378  1.5302
   98SAPE    C3 9798   6.496   0.612   6.590  0.3515 -0.6200  0.0671
   98SAPE    HX 9799   6.396   0.593   6.544 -0.2750  0.7468  0.8133
   98SAPE    HY 9800   6.463   0.637   6.693 -1.2431  1.9560 -0.9831
   98SAPE   O31 9801   6.589   0.501   6.571  0.1524  0.4188 -0.0023
   98SAPE   C31 9802   6.561   0.399   6.650  0.1751  0.2411 -0.5758
   98SAPE   O32 9803   6.480   0.398   6.741  0.1479  0.5330 -0.2529
   98SAPE   C32 9804   6.634   0.270   6.603  0.0067 -0.6457 -0.5922
   98SAPE   H2X 9805   6.643   0.197   6.686  1.1003 -1.4062 -1.3640
   98SAPE   H2Y 9806   6.740   0.295   6.580  0.5904 -0.4336  2.0113
   98SAPE   C23 9807   6.759   0.563   6.138  0.5754  0.5770 -0.0037
   98SAPE   H3R 9808   6.748   0.469   6.197 -0.5080 -0.1294 -1.2803
   98SAPE   H3S 9809   6.868   0.584   6.137  1.0709 -1.4271  2.0840
   98SAPE   C24 9810   6.713   0.507   6.005 -0.2225  0.4324 -0.7859
   98SAPE   H4R 9811   6.603   0.495   6.015 -0.1682 -1.3350 -1.9329
   98SAPE   H4S 9812   6.748   0.405   5.977 -0.4783  0.3605 -0.8492
   98SAPE   C25 9813   6.745   0.607   5.894  0.1838  0.7728  0.3151
   98SAPE   H5R 9814   6.703   0.708   5.902 -1.5839  0.1615 -0.5452
   98SAPE   C26 9815   6.835   0.577   5.793  0.3299 -0.4113 -0.5138
   98SAPE   H6R 9816   6.850   0.661   5.724  1.4547  0.4643  0.7456
   98SAPE   C27 9817   6.918   0.447   5.770 -0.2716  0.5296  0.0508
   98SAPE   H7R 9818   6.964   0.409   5.863  2.1161 -1.6361 -1.8965
   98SAPE   H7S 9819   7.006   0.469   5.706 -0.3677  0.6653 -0.0360
   98SAPE   C28 9820   6.834   0.342   5.698 -0.3138 -0.3137 -0.2822
   98SAPE   H8R 9821   6.785   0.270   5.765 -1.0683 -0.1972 -0.7092
   98SAPE   C29 9822   6.813   0.335   5.568  0.0891 -0.2022  0.3293
   98SAPE   H9R 9823   6.758   0.252   5.521 -1.3015  1.0415 -0.2835
   98SAPE  C210 9824   6.852   0.444   5.464 -0.4144  0.9938 -0.7172
   98SAPE  H10R 9825   6.874   0.542   5.512  0.4702  0.0644  0.8438
   98SAPE  H10S 9826   6.755   0.457   5.412 -1.8540  0.0854  1.5514
   98SAPE  C211 9827   6.970   0.409   5.383  0.3493  0.5676 -1.0385
   98SAPE  H11R 9828   7.063   0.447   5.427 -0.3652  0.1621  0.9291
   98SAPE  C212 9829   6.983   0.334   5.271 -0.6047  0.0178 -0.3054
   98SAPE  H12R 9830   7.084   0.335   5.225 -0.0924  3.1102  0.6321
   98SAPE  C213 9831   6.880   0.263   5.187 -0.9412  0.1979 -1.1804
   98SAPE  H13R 9832   6.858   0.330   5.102 -1.3190 -0.9798 -2.0315
   98SAPE  H13S 9833   6.784   0.272   5.243 -0.2747  2.1875 -0.2349
   98SAPE  C214 9834   6.907   0.119   5.149 -0.2238  0.0572  0.5622
   98SAPE  H14R 9835   6.869   0.049   5.225 -0.7544 -0.4732 -0.1911
   98SAPE  C215 9836   6.967   0.073   5.043  0.3587  0.4010  0.2343
   98SAPE  H15R 9837   6.970  -0.036   5.030  1.3219  0.4399  0.0951
   98SAPE  C216 9838   7.044   0.154   4.943 -0.6755  0.2266 -0.6137
   98SAPE  H16R 9839   7.134   0.097   4.912  0.6567  0.3476  2.6419
   98SAPE  H16S 9840   7.100   0.240   4.986 -0.9327  0.6451 -1.1004
   98SAPE  C217 9841   6.972   0.208   4.818  0.4158 -0.3058  0.6777
   98SAPE  H17R 9842   6.871   0.242   4.848  0.6010 -0.4260  1.4544
   98SAPE  H17S 9843   6.957   0.127   4.743 -1.6990 -1.5197  2.3037
   98SAPE  C218 9844   7.029   0.337   4.759  0.1207  0.3314  0.0108
   98SAPE  H18R 9845   7.008   0.415   4.835 -1.7423  1.6083 -1.7119
   98SAPE  H18S 9846   6.969   0.356   4.667 -1.6462 -0.8908  0.8338
   98SAPE  C219 9847   7.175   0.327   4.720 -0.4600 -0.3247  0.1707
   98SAPE  H19R 9848   7.175   0.242   4.649  0.1044 -2.7232  2.8434
   98SAPE  H19S 9849   7.241   0.304   4.807 -0.8481  2.9926  1.4604
   98SAPE  C220 9850   7.241   0.449   4.646 -0.1965 -0.1199 -0.9250
   98SAPE  H20R 9851   7.199   0.538   4.698  1.1293 -0.1071  0.1823
   98SAPE  H20S 9852   7.213   0.455   4.539  2.5624 -0.4683 -1.7468
   98SAPE  H20T 9853   7.352   0.459   4.653  0.0057 -1.1564 -2.2752
   98SAPE   C33 9854   6.567   0.202   6.482  0.3104 -0.2363 -0.2382
   98SAPE   H3X 9855   6.546   0.272   6.398 -0.0408  0.5923  0.5205
   98SAPE   H3Y 9856   6.476   0.143   6.503 -0.1557 -0.2566 -2.1818
   98SAPE   C34 9857   6.660   0.098   6.423 -0.3742 -0.1674 -0.6242
   98SAPE   H4X 9858   6.660   0.015   6.497  1.2301 -1.9707 -2.5087
   98SAPE   H4Y 9859   6.763   0.139   6.409  0.7671 -2.5611  0.2093
   98SAPE   C35 9860   6.603   0.050   6.286  0.4724 -0.0204  0.3369
   98SAPE   H5X 9861   6.575   0.127   6.211  1.1278  0.2937  0.4109
   98SAPE   H5Y 9862   6.510  -0.004   6.313  1.9096 -2.7655  0.1114
   98SAPE   C36 9863   6.704  -0.040   6.216 -0.0468 -0.0960 -0.3675
   98SAPE   H6X 9864   6.692  -0.147   6.243  4.1888 -0.9855 -1.2257
   98SAPE   H6Y 9865   6.811  -0.027   6.243  0.1963 -0.0670 -1.3182
   98SAPE   C37 9866   6.691  -0.027   6.061  0.0947 -0.1296  0.1963
   98SAPE   H7X 9867   6.750   0.061   6.028  0.0542 -0.4027 -0.6230
   98SAPE   H7Y 9868   6.588   0.002   6.030  0.3391  1.0593  0.4554
   98SAPE   C38 9869   6.734  -0.159   5.987 -0.1033 -0.7197  0.1198
   98SAPE   H8X 9870   6.695  -0.246   6.044 -0.6292  0.2495  1.2622
   98SAPE   H8Y 9871   6.844  -0.171   5.979  0.3157  2.6224 -0.7115
   98SAPE   C39 9872   6.677  -0.177   5.840 -0.8270  0.2775 -1.0633
   98SAPE   H9X 9873   6.567  -0.179   5.850 -0.7341  0.0975  0.0776
   98SAPE   H9Y 9874   6.707  -0.279   5.810 -1.1184 -0.2965  0.4698
   98SAPE  C310 9875   6.715  -0.070   5.744  0.0676  0.1199  0.4904
   98SAPE  H10X 9876   6.824  -0.062   5.723 -0.4634  1.5088 -2.0501
   98SAPE  H10Y 9877   6.672   0.023   5.787  1.3553 -0.3315  2.9286
   98SAPE  C311 9878   6.652  -0.091   5.610 -0.1716 -0.3267  0.1297
   98SAPE  H11X 9879   6.691  -0.006   5.549  0.6553 -0.4198  0.5120
   98SAPE  H11Y 9880   6.542  -0.082   5.610 -0.2342 -0.9777  1.0474
   98SAPE  C312 9881   6.699  -0.223   5.546 -0.5099  0.3835 -0.2877
   98SAPE  H12X 9882   6.646  -0.299   5.608  1.5694 -0.9534 -0.0636
   98SAPE  H12Y 9883   6.809  -0.223   5.561 -0.4659 -2.5417  0.0333
   98SAPE  C313 9884   6.663  -0.247   5.402 -0.6273 -0.7167 -0.1759
   98SAPE  H13X 9885   6.736  -0.199   5.334 -1.8728  1.7916  0.1465
   98SAPE  H13Y 9886   6.564  -0.207   5.371 -0.8351 -1.2862 -0.2658
   98SAPE  C314 9887   6.660  -0.396   5.368  0.4117 -0.0901 -0.0739
   98SAPE  H14X 9888   6.596  -0.450   5.442 -1.5657  0.7492 -1.0890
   98SAPE  H14Y 9889   6.757  -0.448   5.383  0.1264 -0.4418  0.6058
   98SAPE  C315 9890   6.599  -0.409   5.225 -0.4611  0.3766 -0.3006
   98SAPE  H15X 9891   6.645  -0.335   5.156 -1.1920 -1.7178 -3.1927
   98SAPE  H15Y 9892   6.492  -0.380   5.213 -0.7326 -0.8717 -1.0678
   98SAPE  C316 9893   6.602  -0.554   5.167 -0.0917 -0.1366  0.0710
   98SAPE  H16X 9894   6.525  -0.619   5.214  0.1017 -2.0522 -2.0734
   98SAPE  H16Y 9895   6.703  -0.596   5.184 -0.1550 -0.4313 -0.2575
   98SAPE  C317 9896   6.564  -0.560   5.023  0.2297  0.3749  0.2631
   98SAPE  H17X 9897   6.644  -0.522   4.955  0.3644 -0.9286 -0.3516
   98SAPE  H17Y 9898   6.474  -0.496   5.010  1.0014  1.9846  2.3892
   98SAPE  C318 9899   6.547  -0.702   4.984 -0.1901 -0.3161 -0.4079
   98SAPE  H18X 9900   6.464  -0.748   5.042  0.7171 -2.8415 -1.0190
   98SAPE  H18Y 9901   6.637  -0.762   5.006  0.2186  0.0996 -0.8956
   98SAPE  H18Z 9902   6.522  -0.719   4.877 -1.3598 -2.0165  0.1013
   99SAPE     N 9903   4.768   5.257   6.974 -0.1543  0.3687  0.1403
   99SAPE   HN1 9904   4.773   5.171   7.032 -0.7672  0.4098  0.2585
   99SAPE   HN2 9905   4.780   5.342   7.033  1.9310 -0.5711  1.1654
   99SAPE   HN3 9906   4.675   5.275   6.932 -0.5782 -1.6746  0.0870
   99SAPE   C12 9907   4.872   5.266   6.866  0.6821 -0.5180 -0.2430
   99SAPE  H12A 9908   4.911   5.166   6.838 -0.7072 -0.9688 -0.6713
   99SAPE  H12B 9909   4.960   5.313   6.915 -0.5798 -1.1691  2.9091
   99SAPE   C11 9910   4.820   5.333   6.737 -0.5176 -0.0791  0.0647
   99SAPE  H11A 9911   4.908   5.326   6.669 -0.4572 -0.4543  0.1765
   99SAPE  H11B 9912   4.789   5.439   6.750  1.7608  0.8123 -1.1137
   99SAPE     P 9913   4.568   5.272   6.694  0.5663 -0.5040  0.0617
   99SAPE   O13 9914   4.499   5.138   6.681  0.5881  0.2348 -0.2419
   99SAPE   O14 9915   4.546   5.347   6.819  0.4324 -0.4002  0.0692
   99SAPE   O12 9916   4.720   5.259   6.684 -0.2027  0.5483  0.0889
   99SAPE   O11 9917   4.543   5.366   6.566 -0.3315 -0.1073  0.3751
   99SAPE    C1 9918   4.509   5.315   6.443  0.1930  0.1569 -0.5324
   99SAPE    HA 9919   4.434   5.233   6.452 -1.2387  1.2903 -1.6127
   99SAPE    HB 9920   4.467   5.399   6.383  1.5032  0.7361 -0.6739
   99SAPE    C2 9921   4.632   5.255   6.357 -0.5669  0.4148 -0.6996
   99SAPE    HS 9922   4.656   5.160   6.410 -2.7465 -0.8663 -1.8521
   99SAPE   O21 9923   4.747   5.346   6.352  0.6246  0.0625  0.2488
   99SAPE   C21 9924   4.867   5.294   6.382  0.0470 -0.5824  0.5790
   99SAPE   O22 9925   4.892   5.178   6.410 -0.0053  0.3546  0.2535
   99SAPE   C22 9926   4.972   5.398   6.346  1.0458  0.1064  0.1610
   99SAPE   H2R 9927   4.925   5.493   6.313  1.2896 -0.1728 -1.0207
   99SAPE   H2S 9928   5.029   5.403   6.442 -1.3658  1.3762  1.6181
   99SAPE    C3 9929   4.592   5.212   6.216  0.2069  0.2033 -0.1653
   99SAPE    HX 9930   4.545   5.297   6.161 -2.7906 -0.5596  1.0122
   99SAPE    HY 9931   4.507   5.140   6.212  0.2253  0.2033 -0.7675
   99SAPE   O31 9932   4.699   5.165   6.136 -0.1194 -0.3363  0.0919
   99SAPE   C31 9933   4.726   5.040   6.146 -0.3003 -0.4824  0.1904
   99SAPE   O32 9934   4.680   4.958   6.226 -0.1028  0.2866  0.4419
   99SAPE   C32 9935   4.847   5.000   6.062  0.0394 -0.6230  0.1159
   99SAPE   H2X 9936   4.929   4.963   6.127 -0.3090  0.5655  1.2835
   99SAPE   H2Y 9937   4.888   5.097   6.027  0.0028 -0.5894  0.1660
   99SAPE   C23 9938   5.066   5.346   6.230  0.1491 -0.3954 -0.2883
   99SAPE   H3R 9939   5.081   5.239   6.255 -2.1514 -0.6494  0.2112
   99SAPE   H3S 9940   5.158   5.408   6.242 -1.4662  2.0456  0.3019
   99SAPE   C24 9941   4.995   5.350   6.090 -0.0699  0.3444  0.1700
   99SAPE   H4R 9942   4.954   5.453   6.085 -0.6269  0.1671  0.9102
   99SAPE   H4S 9943   4.902   5.289   6.096 -0.4651  0.9670  0.4062
   99SAPE   C25 9944   5.085   5.315   5.982 -0.0102 -0.3578 -0.2031
   99SAPE   H5R 9945   5.181   5.282   6.025  0.1039  0.0388 -0.1426
   99SAPE   C26 9946   5.048   5.327   5.861 -0.1460  0.7619  0.5836
   99SAPE   H6R 9947   5.116   5.293   5.781  0.6381  0.3838  1.3870
   99SAPE   C27 9948   4.917   5.378   5.807  0.6848 -0.3087  1.2708
   99SAPE   H7R 9949   4.857   5.409   5.895 -2.4924  2.0031 -1.4411
   99SAPE   H7S 9950   4.860   5.303   5.748  1.2676 -0.4507  0.8747
   99SAPE   C28 9951   4.936   5.504   5.716 -1.0914  0.3985  0.2324
   99SAPE   H8R 9952   4.998   5.583   5.759 -2.2818  1.9145 -0.6960
   99SAPE   C29 9953   4.901   5.527   5.591  0.2367 -1.0926  0.9074
   99SAPE   H9R 9954   4.942   5.620   5.550  2.1220 -1.6168  1.5216
   99SAPE  C210 9955   4.830   5.435   5.493 -0.3724 -0.2921 -0.2924
   99SAPE  H10R 9956   4.815   5.335   5.538  0.8341 -1.0747 -1.5670
   99SAPE  H10S 9957   4.885   5.435   5.397 -0.0990 -0.3356 -0.1379
   99SAPE  C211 9958   4.697   5.491   5.447 -0.6082  0.2584 -0.0390
   99SAPE  H11R 9959   4.643   5.553   5.521  1.8626  2.6383 -0.0783
   99SAPE  C212 9960   4.625   5.455   5.339  0.3729  0.1346  0.8374
   99SAPE  H12R 9961   4.534   5.514   5.320 -0.3306  0.2541  3.9790
   99SAPE  C213 9962   4.669   5.367   5.230  0.4390 -0.2078  0.3589
   99SAPE  H13R 9963   4.576   5.318   5.195 -0.0978 -0.1591  1.6875
   99SAPE  H13S 9964   4.726   5.285   5.278 -1.1516 -0.1618  2.4674
   99SAPE  C214 9965   4.745   5.430   5.120 -0.4629 -0.2683  0.4917
   99SAPE  H14R 9966   4.846   5.453   5.155  0.2730 -1.5407 -0.6811
   99SAPE  C215 9967   4.716   5.439   4.987  0.3594 -0.0869 -0.5222
   99SAPE  H15R 9968   4.798   5.483   4.928  2.1428 -0.4785  1.5509
   99SAPE  C216 9969   4.600   5.392   4.902 -0.1086  0.0727  1.1424
   99SAPE  H16R 9970   4.521   5.338   4.959 -1.8864  2.8599  1.4696
   99SAPE  H16S 9971   4.638   5.320   4.826  0.4045  3.6931 -2.3191
   99SAPE  C217 9972   4.529   5.499   4.823 -0.2109  0.2923  0.4003
   99SAPE  H17R 9973   4.484   5.570   4.896 -0.1426 -0.6948  1.4371
   99SAPE  H17S 9974   4.447   5.450   4.767 -0.8928  1.6232  0.1954
   99SAPE  C218 9975   4.615   5.576   4.726 -0.0169  0.0419 -0.4658
   99SAPE  H18R 9976   4.678   5.639   4.792 -0.8824  0.4274  0.0181
   99SAPE  H18S 9977   4.545   5.645   4.673 -1.3943 -0.9788 -0.0209
   99SAPE  C219 9978   4.718   5.494   4.643 -0.5700 -0.1912  0.1691
   99SAPE  H19R 9979   4.674   5.474   4.543 -1.8133 -2.1519  1.0487
   99SAPE  H19S 9980   4.724   5.393   4.689  1.3211  0.6955  2.0300
   99SAPE  C220 9981   4.850   5.568   4.635  0.0005  0.0773 -0.6309
   99SAPE  H20R 9982   4.845   5.661   4.574  1.4680  1.1098  0.7340
   99SAPE  H20S 9983   4.920   5.504   4.577  0.4509  0.1944 -0.2302
   99SAPE  H20T 9984   4.882   5.592   4.739 -0.4048 -2.5067  0.1691
   99SAPE   C33 9985   4.804   4.901   5.954 -0.5155 -0.0713  0.5448
   99SAPE   H3X 9986   4.742   4.817   5.992 -0.6922 -0.2966 -0.2141
   99SAPE   H3Y 9987   4.897   4.860   5.909 -0.2340  1.0926  0.0163
   99SAPE   C34 9988   4.735   4.965   5.822  0.1119  0.5471 -0.0339
   99SAPE   H4X 9989   4.805   5.040   5.780 -1.0021  1.5217 -0.1733
   99SAPE   H4Y 9990   4.646   5.028   5.843  0.7111  1.7379 -0.9531
   99SAPE   C35 9991   4.702   4.865   5.711  0.2393 -0.0796  0.5244
   99SAPE   H5X 9992   4.625   4.798   5.756 -0.2053  1.5911  2.3919
   99SAPE   H5Y 9993   4.788   4.801   5.683  0.0874 -0.1509  0.2253
   99SAPE   C36 9994   4.647   4.926   5.580 -0.1643 -0.1971  0.0690
   99SAPE   H6X 9995   4.722   5.000   5.544  1.3497 -1.2704  0.8617
   99SAPE   H6Y 9996   4.551   4.979   5.597 -2.0492 -3.2625 -0.2945
   99SAPE   C37 9997   4.612   4.825   5.468 -0.5876  0.9468  0.7080
   99SAPE   H7X 9998   4.520   4.765   5.487  1.7195 -3.5120 -0.6793
   99SAPE   H7Y 9999   4.691   4.748   5.452 -1.5568  0.1421 -0.3590
   99SAPE   C3810000   4.592   4.884   5.331  0.1294  0.3270  0.7851
   99SAPE   H8X10001   4.688   4.929   5.297  0.4801  0.9613  2.5131
   99SAPE   H8Y10002   4.508   4.956   5.338  2.0025  2.7772 -0.3333
   99SAPE   C3910003   4.555   4.785   5.215  0.1738 -0.0124  0.4536
   99SAPE   H9X10004   4.479   4.723   5.266 -0.2556  0.5836  0.5494
   99SAPE   H9Y10005   4.644   4.722   5.193 -1.4142 -2.0056 -0.6258
   99SAPE  C31010006   4.489   4.839   5.087  0.7071  0.3051  0.3447
   99SAPE  H10X10007   4.391   4.876   5.126 -0.1398 -3.1464  1.8707
   99SAPE  H10Y10008   4.470   4.753   5.019 -1.1445  0.5207  0.5271
   99SAPE  C31110009   4.563   4.944   5.002  0.2075 -0.2191 -0.2712
   99SAPE  H11X10010   4.663   4.907   4.973  0.8270  0.1969  1.2180
   99SAPE  H11Y10011   4.584   5.038   5.057  0.4601 -1.0172  1.0407
   99SAPE  C31210012   4.492   4.973   4.871 -0.0802 -0.5676  0.6772
   99SAPE  H12X10013   4.467   4.873   4.830 -1.3860  0.1415 -0.3083
   99SAPE  H12Y10014   4.563   5.008   4.792  0.3813 -3.5749 -0.3614
   99SAPE  C31310015   4.362   5.047   4.880  0.7526  0.5227  0.0112
   99SAPE  H13X10016   4.381   5.146   4.927 -0.9283  1.1577 -0.5648
   99SAPE  H13Y10017   4.289   4.997   4.947 -0.0521 -0.0322 -1.2380
   99SAPE  C31410018   4.296   5.060   4.740 -0.0426 -0.3953 -0.2057
   99SAPE  H14X10019   4.186   5.071   4.750 -0.2497 -0.0155 -2.4515
   99SAPE  H14Y10020   4.305   4.964   4.684  1.0736 -1.2155  1.2861
   99SAPE  C31510021   4.361   5.175   4.659  0.2238  0.2492 -0.4715
   99SAPE  H15X10022   4.472   5.174   4.661  0.2446  0.9818 -0.7871
   99SAPE  H15Y10023   4.340   5.272   4.709  4.0581 -0.0947  2.2181
   99SAPE  C31610024   4.308   5.170   4.518  0.5656  0.3968  0.0950
   99SAPE  H16X10025   4.198   5.156   4.525  0.7693 -0.4878  2.1406
   99SAPE  H16Y10026   4.339   5.084   4.455  0.2741 -0.1983  0.7486
   99SAPE  C31710027   4.350   5.287   4.431  0.0010 -0.7876 -0.0761
   99SAPE  H17X10028   4.458   5.304   4.454  0.1406 -1.9210  0.1920
   99SAPE  H17Y10029   4.300   5.380   4.465  0.4771 -0.3491 -0.5437
   99SAPE  C31810030   4.336   5.276   4.280 -0.5133  0.4124  0.0314
   99SAPE  H18X10031   4.233   5.279   4.239 -0.4684  0.1030 -0.1019
   99SAPE  H18Y10032   4.371   5.176   4.250 -2.6899  0.7689 -4.4129
   99SAPE  H18Z10033   4.393   5.356   4.229 -1.8416  1.4278  0.0672
  100SAPE     N10034   4.350   3.645   6.784 -0.0854  0.1451 -0.3634
  100SAPE   HN110035   4.422   3.572   6.802  2.6079  2.0666 -2.5125
  100SAPE   HN210036   4.282   3.641   6.862 -2.8742 -2.4659 -2.6769
  100SAPE   HN310037   4.290   3.602   6.711 -0.6160 -0.5846  0.4806
  100SAPE   C1210038   4.397   3.776   6.742 -0.3914  0.2880  0.8041
  100SAPE  H12A10039   4.490   3.765   6.682  0.7102  0.7176  2.3680
  100SAPE  H12B10040   4.428   3.840   6.828  1.7714  1.0399 -0.4672
  100SAPE   C1110041   4.296   3.824   6.647 -0.2365 -0.1591 -0.0687
  100SAPE  H11A10042   4.275   3.754   6.563  0.1230  0.0237 -0.3190
  100SAPE  H11B10043   4.333   3.912   6.590 -1.0889  0.3831  0.1982
  100SAPE     P10044   4.151   4.006   6.744 -0.1940  0.5061 -0.2576
  100SAPE   O1310045   4.038   4.020   6.837 -0.1613 -0.2952 -1.1949
  100SAPE   O1410046   4.279   4.065   6.781 -0.2843  0.3893  0.0163
  100SAPE   O1210047   4.180   3.856   6.718 -0.3465 -0.3183 -0.6418
  100SAPE   O1110048   4.110   4.054   6.599  0.1382  0.2829  0.2506
  100SAPE    C110049   4.018   3.975   6.525 -0.0096  0.4326  0.6701
  100SAPE    HA10050   4.063   3.879   6.493 -3.0569 -0.5677 -0.9496
  100SAPE    HB10051   3.932   3.939   6.586  0.3123 -0.3258  0.6811
  100SAPE    C210052   3.963   4.056   6.403  0.2195  0.1127 -0.1140
  100SAPE    HS10053   3.871   4.004   6.369  0.4463 -0.5896  0.3079
  100SAPE   O2110054   4.065   4.067   6.302 -0.0155  0.0952 -0.6109
  100SAPE   C2110055   4.043   4.003   6.187  1.1164  0.2322  0.3605
  100SAPE   O2210056   3.953   3.923   6.170  0.3102 -0.1781 -0.6157
  100SAPE   C2210057   4.166   4.035   6.097  0.0700  0.0916  0.3385
  100SAPE   H2R10058   4.196   4.141   6.108  0.0849  0.0951  0.2660
  100SAPE   H2S10059   4.236   3.970   6.153 -2.5385 -2.4904  0.8636
  100SAPE    C310060   3.917   4.189   6.459 -0.2214 -0.0650 -0.0539
  100SAPE    HX10061   4.004   4.254   6.482 -0.4889  0.9085 -1.5814
  100SAPE    HY10062   3.861   4.168   6.552  0.9258 -1.4480  0.3531
  100SAPE   O3110063   3.834   4.251   6.362  0.1053 -0.4802  0.1694
  100SAPE   C3110064   3.719   4.298   6.411 -0.1139  0.9547  0.6543
  100SAPE   O3210065   3.677   4.287   6.524 -0.0415  0.0085  0.0946
  100SAPE   C3210066   3.637   4.357   6.294 -0.0571  0.3590 -0.7054
  100SAPE   H2X10067   3.571   4.273   6.267 -0.3112  0.4380 -0.3322
  100SAPE   H2Y10068   3.700   4.392   6.209  0.3161  2.9303  0.5383
  100SAPE   C2310069   4.173   3.981   5.949  0.0535  0.3822  0.9056
  100SAPE   H3R10070   4.142   3.874   5.945  2.4468 -0.3356 -0.1507
  100SAPE   H3S10071   4.275   3.965   5.907 -0.9410 -0.5510 -1.3165
  100SAPE   C2410072   4.078   4.047   5.847  0.5669  0.2998 -0.2765
  100SAPE   H4R10073   3.982   4.045   5.904  1.3388 -0.5832  1.0450
  100SAPE   H4S10074   4.069   3.985   5.755  2.7284  0.3104 -0.5372
  100SAPE   C2510075   4.141   4.184   5.827 -0.4886 -0.2734 -0.2631
  100SAPE   H5R10076   4.192   4.230   5.913  3.2518  1.1963 -3.0224
  100SAPE   C2610077   4.137   4.260   5.711  0.1043  0.2380 -0.7172
  100SAPE   H6R10078   4.182   4.360   5.723 -0.7918  0.5954 -0.2700
  100SAPE   C2710079   4.071   4.220   5.582 -0.5840 -0.6441 -0.1098
  100SAPE   H7R10080   4.017   4.305   5.535  1.3001  0.9262  0.4167
  100SAPE   H7S10081   3.992   4.144   5.596 -3.6462  2.0963 -1.1307
  100SAPE   C2810082   4.169   4.193   5.472 -0.2491  0.7601 -0.2468
  100SAPE   H8R10083   4.257   4.259   5.479  0.4722 -0.1988 -0.1949
  100SAPE   C2910084   4.164   4.086   5.382  0.2250  0.5700  1.0234
  100SAPE   H9R10085   4.214   4.093   5.284 -2.1810 -1.3582 -0.4638
  100SAPE  C21010086   4.058   3.980   5.381  0.3070  0.4150  0.1156
  100SAPE  H10R10087   4.036   3.941   5.482 -2.6891 -0.2801 -0.7029
  100SAPE  H10S10088   4.095   3.888   5.331 -2.3051 -0.2545 -0.7364
  100SAPE  C21110089   3.932   4.035   5.324  0.2698  0.0807 -0.4689
  100SAPE  H11R10090   3.890   4.118   5.384  0.6287  0.6518 -0.9973
  100SAPE  C21210091   3.849   3.990   5.231 -0.4333  0.9000  0.5670
  100SAPE  H12R10092   3.757   4.047   5.212 -1.1806 -1.2442 -3.2398
  100SAPE  C21310093   3.866   3.866   5.147  0.0691  0.5091  0.1023
  100SAPE  H13R10094   3.971   3.832   5.156 -0.0113  0.4035  0.6968
  100SAPE  H13S10095   3.872   3.895   5.040  1.3593 -1.4989 -0.4219
  100SAPE  C21410096   3.765   3.758   5.175  0.4547  0.6150  0.9878
  100SAPE  H14R10097   3.729   3.750   5.279 -1.4567  0.0859  0.3116
  100SAPE  C21510098   3.722   3.664   5.094 -0.1284 -0.2153  0.1091
  100SAPE  H15R10099   3.654   3.584   5.127  1.8567 -2.8612 -1.8103
  100SAPE  C21610100   3.760   3.656   4.951  0.1958  0.1709  0.0173
  100SAPE  H16R10101   3.806   3.748   4.910  0.9791  0.2208  0.9890
  100SAPE  H16S10102   3.670   3.622   4.895  0.8756 -3.4695  0.8441
  100SAPE  C21710103   3.869   3.548   4.932  0.2791 -0.0714  0.7311
  100SAPE  H17R10104   3.847   3.444   4.963  0.2522 -0.7518 -1.3690
  100SAPE  H17S10105   3.962   3.573   4.987  0.5937 -1.9817  1.1418
  100SAPE  C21810106   3.904   3.535   4.784 -0.6186 -0.0133 -0.5877
  100SAPE  H18R10107   3.942   3.633   4.749 -2.0889  0.0946 -1.9827
  100SAPE  H18S10108   3.817   3.511   4.720  0.5215  0.6023 -2.4396
  100SAPE  C21910109   4.003   3.414   4.772 -0.2664  0.2253 -0.8162
  100SAPE  H19R10110   3.942   3.326   4.803  0.7449 -0.4659 -0.7329
  100SAPE  H19S10111   4.096   3.428   4.831 -0.4569  1.8375 -0.8779
  100SAPE  C22010112   4.041   3.376   4.627  0.1823  0.2395 -0.3314
  100SAPE  H20R10113   3.949   3.389   4.566 -0.0286  1.2888  0.1930
  100SAPE  H20S10114   4.075   3.270   4.618 -0.2723  0.0029  0.5430
  100SAPE  H20T10115   4.126   3.443   4.607 -0.9101  1.5523 -0.7192
  100SAPE   C3310116   3.530   4.461   6.333  0.0155  0.0940  0.5260
  100SAPE   H3X10117   3.586   4.548   6.373 -0.2257  0.3325  0.3580
  100SAPE   H3Y10118   3.455   4.424   6.407 -0.0924 -0.5407  0.1047
  100SAPE   C3410119   3.464   4.504   6.194  0.3553  0.1786 -0.6006
  100SAPE   H4X10120   3.548   4.526   6.124  0.7157 -0.7315 -0.4669
  100SAPE   H4Y10121   3.402   4.595   6.204 -0.7330 -0.6023 -0.0363
  100SAPE   C3510122   3.366   4.402   6.132  0.3580 -0.4236  0.4396
  100SAPE   H5X10123   3.268   4.415   6.182  0.0485 -1.0988  0.0239
  100SAPE   H5Y10124   3.401   4.297   6.133 -1.4281 -1.0648 -0.4021
  100SAPE   C3610125   3.336   4.439   5.982  0.1829 -0.1868  0.0752
  100SAPE   H6X10126   3.380   4.539   5.961 -0.5465 -0.3270 -2.4592
  100SAPE   H6Y10127   3.231   4.444   5.946  1.0942 -0.6966 -3.0108
  100SAPE   C3710128   3.398   4.335   5.894  0.5156  0.3682  0.9514
  100SAPE   H7X10129   3.363   4.234   5.925 -1.4780  0.7272  0.0097
  100SAPE   H7Y10130   3.509   4.342   5.896  0.5197  0.2849  1.0630
  100SAPE   C3810131   3.353   4.344   5.747 -0.5017  0.1217 -0.9617
  100SAPE   H8X10132   3.392   4.443   5.716  0.3625  0.9274  2.2769
  100SAPE   H8Y10133   3.243   4.362   5.740 -0.7889 -0.6077  1.0026
  100SAPE   C3910134   3.393   4.226   5.658 -0.2744  0.4325 -0.0883
  100SAPE   H9X10135   3.366   4.129   5.706  0.7681 -1.4456 -2.9917
  100SAPE   H9Y10136   3.504   4.221   5.658 -0.2938 -2.6898  1.5044
  100SAPE  C31010137   3.321   4.232   5.520 -0.0149  0.0763 -0.3491
  100SAPE  H10X10138   3.241   4.309   5.521  0.4499  0.5787  1.7184
  100SAPE  H10Y10139   3.278   4.129   5.514 -2.4531  0.9789  0.2352
  100SAPE  C31110140   3.415   4.263   5.398  0.2255  0.1937  0.1091
  100SAPE  H11X10141   3.511   4.207   5.402 -1.1049 -2.3039 -0.8820
  100SAPE  H11Y10142   3.433   4.373   5.399 -1.8152  0.5654  0.9649
  100SAPE  C31210143   3.364   4.222   5.261 -0.0838  0.9811  0.5815
  100SAPE  H12X10144   3.442   4.259   5.191  0.8026 -0.5751  0.6892
  100SAPE  H12Y10145   3.268   4.271   5.235 -0.6303  0.4191  1.5152
  100SAPE  C31310146   3.342   4.074   5.250  0.0245 -0.1039  0.9251
  100SAPE  H13X10147   3.244   4.055   5.300  0.5568 -2.5052  1.1919
  100SAPE  H13Y10148   3.416   4.008   5.301 -0.6360  1.6022  4.3903
  100SAPE  C31410149   3.323   4.025   5.105 -0.6328 -0.2277  0.4263
  100SAPE  H14X10150   3.230   4.069   5.063 -0.7808 -0.5125  0.4547
  100SAPE  H14Y10151   3.318   3.914   5.113  1.1508 -0.3462  0.2547
  100SAPE  C31510152   3.436   4.064   5.018 -0.2067 -0.4790  0.3675
  100SAPE  H15X10153   3.531   4.050   5.075 -0.0992 -1.5956 -0.0574
  100SAPE  H15Y10154   3.426   4.170   4.983  1.2270 -0.5617 -0.4069
  100SAPE  C31610155   3.449   3.967   4.895 -0.4129 -0.2577 -1.0150
  100SAPE  H16X10156   3.454   3.868   4.946  0.6310  0.9367  1.3401
  100SAPE  H16Y10157   3.539   4.005   4.842 -0.8013 -0.4807 -1.8474
  100SAPE  C31710158   3.334   3.981   4.796  0.2393  0.0313  0.2858
  100SAPE  H17X10159   3.323   4.089   4.774  0.8903  0.2310  0.9192
  100SAPE  H17Y10160   3.235   3.965   4.846 -0.6859  2.9639 -0.4435
  100SAPE  C31810161   3.352   3.894   4.669  0.0570  0.5519 -0.2495
  100SAPE  H18X10162   3.352   3.787   4.698 -0.1330  0.2924 -1.1808
  100SAPE  H18Y10163   3.450   3.924   4.626  1.2892 -0.4735  1.7142
  100SAPE  H18Z10164   3.268   3.917   4.600 -0.5270 -2.3680 -0.6470
  101SAPE     N10165   1.240   4.067   6.857 -0.2467 -0.0629 -0.6260
  101SAPE   HN110166   1.215   3.973   6.893  0.1861  0.3703  0.8803
  101SAPE   HN210167   1.261   4.130   6.936  2.6689 -2.0250  0.3171
  101SAPE   HN310168   1.160   4.113   6.809  0.4303 -1.8763 -3.8347
  101SAPE   C1210169   1.355   4.064   6.756  0.6958  0.4551 -0.3765
  101SAPE  H12A10170   1.382   3.958   6.737  3.1651  0.4999  2.2665
  101SAPE  H12B10171   1.443   4.116   6.800  1.0662 -0.5285  0.0795
  101SAPE   C1110172   1.323   4.141   6.622  0.2159 -0.5546  0.1681
  101SAPE  H11A10173   1.239   4.083   6.578  0.4158 -1.4583  0.9394
  101SAPE  H11B10174   1.399   4.125   6.544 -2.4109 -0.6659 -2.5432
  101SAPE     P10175   1.400   4.377   6.688 -0.0594 -0.1676  0.2340
  101SAPE   O1310176   1.445   4.342   6.821 -0.0352 -0.0864 -0.4512
  101SAPE   O1410177   1.500   4.373   6.581 -0.2300  0.0602 -0.2683
  101SAPE   O1210178   1.286   4.275   6.659 -0.3385  0.3198  0.5875
  101SAPE   O1110179   1.327   4.513   6.688  0.2090  0.3230  0.2778
  101SAPE    C110180   1.197   4.547   6.638 -0.1671  0.7587  0.0857
  101SAPE    HA10181   1.115   4.475   6.659  0.3472 -0.1255 -0.8442
  101SAPE    HB10182   1.172   4.641   6.692  0.7481  1.5403 -0.8023
  101SAPE    C210183   1.190   4.593   6.493 -0.3449  0.5823  0.4649
  101SAPE    HS10184   1.087   4.614   6.456 -0.2993 -0.5172 -0.3352
  101SAPE   O2110185   1.245   4.489   6.411 -0.1342  0.1989 -0.2973
  101SAPE   C2110186   1.183   4.379   6.397  0.3290 -0.3359 -0.0916
  101SAPE   O2210187   1.068   4.356   6.433 -0.5086  0.7666 -0.6622
  101SAPE   C2210188   1.267   4.272   6.329  0.5520 -0.7919  0.5171
  101SAPE   H2R10189   1.373   4.287   6.356  0.7446  0.1246 -0.6459
  101SAPE   H2S10190   1.223   4.173   6.353  0.9177 -0.5692  2.2071
  101SAPE    C310191   1.278   4.718   6.476 -0.6542 -0.3935  1.2635
  101SAPE    HX10192   1.377   4.687   6.514 -0.5744  0.7398  2.0282
  101SAPE    HY10193   1.238   4.804   6.535  1.5848  0.7270  1.2548
  101SAPE   O3110194   1.281   4.750   6.330 -0.0430  0.4073  0.1661
  101SAPE   C3110195   1.394   4.758   6.266  0.2024  0.6355  0.5330
  101SAPE   O3210196   1.503   4.726   6.307  0.6923  0.9438 -0.2993
  101SAPE   C3210197   1.365   4.818   6.126  0.5329  1.0773  0.3046
  101SAPE   H2X10198   1.289   4.898   6.144  1.2003  1.7516  0.2101
  101SAPE   H2Y10199   1.312   4.745   6.062  1.5204  1.0785 -0.5348
  101SAPE   C2310200   1.260   4.282   6.171  0.0745 -0.0181  0.1262
  101SAPE   H3R10201   1.150   4.278   6.159 -0.0354  0.8280  0.7422
  101SAPE   H3S10202   1.314   4.196   6.126  0.1270  1.1924 -2.2503
  101SAPE   C2410203   1.336   4.400   6.110  0.5856 -0.2378 -0.1503
  101SAPE   H4R10204   1.430   4.428   6.162  0.2524  0.8126 -0.0918
  101SAPE   H4S10205   1.272   4.491   6.121  0.5726 -0.0320 -1.7248
  101SAPE   C2510206   1.357   4.375   5.961  0.4055  0.3175 -0.3789
  101SAPE   H5R10207   1.284   4.424   5.895  1.3165 -1.1162 -2.5963
  101SAPE   C2610208   1.465   4.326   5.903  0.1462  0.5233  0.6265
  101SAPE   H6R10209   1.465   4.311   5.794  1.9506  1.2255  0.5010
  101SAPE   C2710210   1.584   4.272   5.985  0.2264  0.0038 -0.2222
  101SAPE   H7R10211   1.626   4.201   5.912 -1.3945  0.3020 -1.5163
  101SAPE   H7S10212   1.542   4.199   6.057  0.2191 -0.8337 -1.0612
  101SAPE   C2810213   1.670   4.373   6.060  0.4409 -0.2946 -0.6665
  101SAPE   H8R10214   1.660   4.397   6.167  2.7561 -0.0423 -0.4352
  101SAPE   C2910215   1.783   4.429   6.007  0.1632 -0.1853  0.3107
  101SAPE   H9R10216   1.834   4.501   6.072 -0.6195  0.0842  0.6468
  101SAPE  C21010217   1.835   4.418   5.864  0.2938  0.1171 -0.3067
  101SAPE  H10R10218   1.834   4.522   5.825 -1.0119  0.4136  0.4423
  101SAPE  H10S10219   1.767   4.364   5.795  2.0985 -0.6849 -1.5253
  101SAPE  C21110220   1.975   4.359   5.860 -0.0334 -0.0825 -0.4128
  101SAPE  H11R10221   2.027   4.368   5.956 -0.0064 -0.3127 -0.4055
  101SAPE  C21210222   2.035   4.306   5.744  0.1124  0.0321 -1.0080
  101SAPE  H12R10223   2.139   4.270   5.743  0.2097  0.3116 -1.4014
  101SAPE  C21310224   1.956   4.291   5.614  0.2081  1.1802 -0.7096
  101SAPE  H13R10225   2.002   4.363   5.544  0.5059  0.2249 -1.5258
  101SAPE  H13S10226   1.846   4.301   5.623 -0.0150 -1.6709  1.1776
  101SAPE  C21410227   1.966   4.155   5.554  0.3168  0.1279  0.5414
  101SAPE  H14R10228   1.951   4.072   5.625 -0.5639 -0.3573 -0.1894
  101SAPE  C21510229   1.999   4.129   5.424  0.1156 -0.3124 -0.1312
  101SAPE  H15R10230   1.993   4.025   5.390 -0.6836 -0.2808 -0.0917
  101SAPE  C21610231   2.028   4.223   5.313  0.1680 -0.1307  0.0099
  101SAPE  H16R10232   2.124   4.193   5.266  0.2331  0.0179  0.0459
  101SAPE  H16S10233   2.037   4.330   5.343  0.3721 -0.2100  0.2358
  101SAPE  C21710234   1.907   4.234   5.225  0.0289  0.6509 -0.0136
  101SAPE  H17R10235   1.827   4.276   5.290  0.3943 -0.5262  1.2429
  101SAPE  H17S10236   1.866   4.135   5.195  0.9748 -0.3575  1.8032
  101SAPE  C21810237   1.938   4.327   5.109 -0.7892  0.0150  0.8393
  101SAPE  H18R10238   2.010   4.406   5.141 -1.0529  0.9680 -0.7698
  101SAPE  H18S10239   1.844   4.369   5.066 -1.0173 -0.5319  0.7906
  101SAPE  C21910240   2.002   4.244   4.995  0.6332 -0.2016  0.0757
  101SAPE  H19R10241   1.935   4.161   4.963  0.6914 -0.3397  0.3095
  101SAPE  H19S10242   2.086   4.205   5.056 -1.6118 -0.5189  3.1817
  101SAPE  C22010243   2.052   4.330   4.880 -0.0552 -0.2771 -0.0727
  101SAPE  H20R10244   2.144   4.384   4.912 -0.3692  1.9561 -2.5791
  101SAPE  H20S10245   1.977   4.403   4.842  0.6119  0.0376 -0.8057
  101SAPE  H20T10246   2.074   4.260   4.796 -0.1155  1.8534 -1.9607
  101SAPE   C3310247   1.493   4.864   6.047  0.3483 -0.0789 -0.0058
  101SAPE   H3X10248   1.563   4.924   6.109  0.4526 -1.4348  1.2462
  101SAPE   H3Y10249   1.450   4.928   5.967  0.6147 -1.0165 -0.9267
  101SAPE   C3410250   1.561   4.747   5.969  0.1800 -0.6403  0.0653
  101SAPE   H4X10251   1.476   4.712   5.907  0.0261  2.2356 -1.5049
  101SAPE   H4Y10252   1.598   4.674   6.044  3.4593  0.4484 -0.3194
  101SAPE   C3510253   1.682   4.789   5.879  0.5723 -0.6284  0.6496
  101SAPE   H5X10254   1.701   4.697   5.819  1.0684  0.2358 -0.5576
  101SAPE   H5Y10255   1.769   4.815   5.944  1.1089 -0.5021 -0.1040
  101SAPE   C3610256   1.659   4.896   5.763 -0.0142  0.0197  0.1151
  101SAPE   H6X10257   1.620   4.989   5.810 -2.1961  0.2347 -1.9121
  101SAPE   H6Y10258   1.575   4.854   5.704 -0.6539 -1.7110  2.1671
  101SAPE   C3710259   1.784   4.924   5.678 -0.9385  0.7692 -0.8010
  101SAPE   H7X10260   1.866   4.969   5.738 -2.5192  0.8745  1.4413
  101SAPE   H7Y10261   1.763   5.000   5.601  0.3011  1.5410 -0.4088
  101SAPE   C3810262   1.832   4.796   5.595 -0.0641 -0.1883 -0.3840
  101SAPE   H8X10263   1.740   4.749   5.554 -0.4778 -0.0996  0.4115
  101SAPE   H8Y10264   1.871   4.725   5.671  1.5551  0.9064 -0.1404
  101SAPE   C3910265   1.948   4.824   5.498 -0.5421 -0.5067  0.0349
  101SAPE   H9X10266   2.044   4.866   5.535 -0.6851  0.0323 -0.1955
  101SAPE   H9Y10267   1.912   4.897   5.423  0.7285 -0.6258 -0.7315
  101SAPE  C31010268   1.991   4.698   5.422  0.0959  0.0416  0.2995
  101SAPE  H10X10269   1.903   4.650   5.374 -0.1091 -1.0249  1.6716
  101SAPE  H10Y10270   2.024   4.644   5.513 -0.8475 -1.0087  0.0470
  101SAPE  C31110271   2.102   4.706   5.325  0.2104 -0.0143  0.5160
  101SAPE  H11X10272   2.122   4.606   5.281  1.0170  0.0234  0.7836
  101SAPE  H11Y10273   2.194   4.739   5.378 -0.3285  0.4245  1.2043
  101SAPE  C31210274   2.096   4.807   5.212 -0.2183  0.8614  0.0253
  101SAPE  H12X10275   2.185   4.799   5.145  0.5171  2.7893  0.6805
  101SAPE  H12Y10276   2.102   4.912   5.250 -0.6260  1.8617 -2.4899
  101SAPE  C31310277   1.977   4.791   5.118 -0.3485  0.5682  0.0976
  101SAPE  H13X10278   1.886   4.820   5.175  0.3064 -2.1666  2.7581
  101SAPE  H13Y10279   1.960   4.686   5.085  0.7967  0.3749  0.1004
  101SAPE  C31410280   1.999   4.860   4.982  0.7339  0.1238  0.6893
  101SAPE  H14X10281   2.090   4.821   4.932  1.2064 -0.2024  1.7596
  101SAPE  H14Y10282   2.028   4.966   4.998 -1.6696  0.7944  1.0027
  101SAPE  C31510283   1.872   4.853   4.879 -0.6169 -0.6339 -0.3624
  101SAPE  H15X10284   1.783   4.895   4.932 -0.9220  1.5733 -2.4485
  101SAPE  H15Y10285   1.859   4.748   4.846  1.3702 -0.0066 -3.4630
  101SAPE  C31610286   1.888   4.940   4.758 -0.0509  0.0569 -0.3943
  101SAPE  H16X10287   1.990   4.917   4.718  0.2914 -0.6885  0.8300
  101SAPE  H16Y10288   1.879   5.049   4.775 -2.7855  0.2823 -2.7356
  101SAPE  C31710289   1.786   4.902   4.647 -0.4238 -0.3101  0.4114
  101SAPE  H17X10290   1.811   4.800   4.612 -1.0172  0.3445 -2.2064
  101SAPE  H17Y10291   1.801   4.968   4.558 -0.2004 -1.7756 -0.6848
  101SAPE  C31810292   1.634   4.921   4.686 -0.1261 -0.2101  0.1445
  101SAPE  H18X10293   1.599   4.840   4.753  1.2149 -0.9002  0.0473
  101SAPE  H18Y10294   1.572   4.919   4.594  0.6200 -0.1466 -0.3680
  101SAPE  H18Z10295   1.623   5.020   4.734 -1.0414 -0.3126  0.1575
  102SAPE     N10296   2.684   4.793   6.670 -0.3842 -0.6957  0.9226
  102SAPE   HN110297   2.756   4.724   6.701  0.3629  1.2808  4.1840
  102SAPE   HN210298   2.672   4.763   6.571 -1.1812  1.2901  0.3768
  102SAPE   HN310299   2.736   4.882   6.681  0.2891 -1.0043  0.3494
  102SAPE   C1210300   2.559   4.808   6.753  0.0414  0.5041  0.0610
  102SAPE  H12A10301   2.576   4.775   6.858  1.1110  4.5735  1.3215
  102SAPE  H12B10302   2.482   4.742   6.708 -2.5522  1.7556  2.3886
  102SAPE   C1110303   2.510   4.954   6.761 -0.3850  0.9868 -0.1737
  102SAPE  H11A10304   2.599   5.012   6.793 -0.8239  1.2955  0.4960
  102SAPE  H11B10305   2.433   4.964   6.840 -1.1312 -0.4991 -0.6732
  102SAPE     P10306   2.437   5.160   6.616 -0.2608  0.1435  0.0045
  102SAPE   O1310307   2.296   5.192   6.600  0.8234 -0.4115  0.3198
  102SAPE   O1410308   2.531   5.235   6.700 -0.1658  0.2411 -0.0587
  102SAPE   O1210309   2.462   5.000   6.632 -0.2546  0.3605 -0.0435
  102SAPE   O1110310   2.492   5.170   6.472 -0.7545  0.4223  0.3086
  102SAPE    C110311   2.537   5.077   6.378  0.0141  0.9177  0.0303
  102SAPE    HA10312   2.637   5.108   6.340  0.6852 -0.8839  0.2191
  102SAPE    HB10313   2.544   4.975   6.422  0.3538  0.2429 -1.5108
  102SAPE    C210314   2.437   5.049   6.259 -0.9221  0.7605  0.1233
  102SAPE    HS10315   2.459   4.949   6.216 -1.9062  0.2763  0.7218
  102SAPE   O2110316   2.435   5.151   6.164  0.2010  0.1727  0.3783
  102SAPE   C2110317   2.543   5.144   6.085 -0.1026  0.1060 -0.7394
  102SAPE   O2210318   2.624   5.053   6.089 -0.4923 -0.1241 -0.1969
  102SAPE   C2210319   2.556   5.269   5.997 -0.1666 -0.4249  0.0346
  102SAPE   H2R10320   2.461   5.270   5.939 -0.3409 -2.2057  0.2297
  102SAPE   H2S10321   2.564   5.355   6.065  1.6494 -0.5222  0.0010
  102SAPE    C310322   2.292   5.026   6.312 -0.5313  0.3341  0.4324
  102SAPE    HX10323   2.256   5.120   6.358 -0.3143  0.8965 -0.5232
  102SAPE    HY10324   2.303   4.951   6.393 -0.5262  0.6031  0.6818
  102SAPE   O3110325   2.193   4.978   6.220 -0.0373 -0.2572  0.0357
  102SAPE   C3110326   2.188   4.845   6.213  0.6134  0.3065 -0.1033
  102SAPE   O3210327   2.272   4.771   6.257 -0.7494  0.1384 -0.1003
  102SAPE   C3210328   2.056   4.798   6.150  0.7188  0.0008  0.2870
  102SAPE   H2X10329   1.970   4.866   6.163 -0.3106 -1.3537  0.7075
  102SAPE   H2Y10330   2.028   4.709   6.211  0.7502 -0.5149 -0.4406
  102SAPE   C2310331   2.669   5.261   5.893 -0.0641 -0.3838  0.2122
  102SAPE   H3R10332   2.650   5.187   5.812  1.3138 -0.7004  0.1440
  102SAPE   H3S10333   2.761   5.227   5.945  0.0933 -0.2615  0.0141
  102SAPE   C2410334   2.703   5.393   5.829  0.0568 -0.2277 -1.2667
  102SAPE   H4R10335   2.797   5.376   5.773  0.1687 -0.2731 -1.0677
  102SAPE   H4S10336   2.731   5.470   5.905  0.4470  0.5782 -2.2137
  102SAPE   C2510337   2.596   5.454   5.744 -0.6158  0.2263  0.3346
  102SAPE   H5R10338   2.505   5.467   5.805 -0.6016 -3.1189  1.2218
  102SAPE   C2610339   2.617   5.479   5.611  1.4537  0.0810 -0.2936
  102SAPE   H6R10340   2.545   5.533   5.548  0.5508 -2.1294 -1.2699
  102SAPE   C2710341   2.737   5.445   5.528 -0.1697 -0.6385 -0.1806
  102SAPE   H7R10342   2.828   5.454   5.591  1.2652  0.0013 -2.2383
  102SAPE   H7S10343   2.762   5.514   5.445 -1.3825  1.7215  1.3011
  102SAPE   C2810344   2.732   5.301   5.483 -0.0183  0.1469 -0.1395
  102SAPE   H8R10345   2.732   5.224   5.562 -0.5300  0.5708  0.2847
  102SAPE   C2910346   2.706   5.253   5.362 -0.1096  0.0326 -0.2934
  102SAPE   H9R10347   2.705   5.144   5.346 -0.0610 -0.0609  0.3375
  102SAPE  C21010348   2.688   5.328   5.232  0.4196  0.6934 -0.8359
  102SAPE  H10R10349   2.603   5.401   5.233 -0.7471 -0.6226  0.2055
  102SAPE  H10S10350   2.668   5.253   5.153 -0.2584  0.1097 -0.1356
  102SAPE  C21110351   2.815   5.404   5.182  0.2394 -0.1787 -0.6474
  102SAPE  H11R10352   2.902   5.411   5.248 -0.6889  0.0260  0.5944
  102SAPE  C21210353   2.817   5.456   5.060 -0.4880  0.6116 -0.2401
  102SAPE  H12R10354   2.909   5.504   5.022  0.6358  0.2659  1.8730
  102SAPE  C21310355   2.711   5.438   4.951 -0.9715 -0.2441  0.4921
  102SAPE  H13R10356   2.685   5.545   4.934 -1.9294 -0.5140  0.2034
  102SAPE  H13S10357   2.623   5.379   4.984 -0.3842 -1.0230  0.6932
  102SAPE  C21410358   2.765   5.370   4.825  0.5190  0.5259  0.4072
  102SAPE  H14R10359   2.872   5.346   4.829  0.7492  1.6169  1.1852
  102SAPE  C21510360   2.691   5.339   4.716 -0.0707  0.3838  0.1888
  102SAPE  H15R10361   2.759   5.301   4.638  0.8228  0.3658  0.9571
  102SAPE  C21610362   2.549   5.368   4.673 -0.2143 -0.0369  0.2721
  102SAPE  H16R10363   2.543   5.449   4.597 -0.4634  1.0998  1.4655
  102SAPE  H16S10364   2.481   5.395   4.756 -3.9977 -3.5532 -1.3416
  102SAPE  C21710365   2.489   5.248   4.606 -0.5971 -0.2402 -0.1097
  102SAPE  H17R10366   2.527   5.148   4.636 -0.4908 -0.4154 -0.8188
  102SAPE  H17S10367   2.509   5.244   4.497 -2.1167 -1.4759 -0.3887
  102SAPE  C21810368   2.337   5.244   4.620 -0.1643 -0.3135 -0.1203
  102SAPE  H18R10369   2.296   5.341   4.584 -3.9636 -2.5059 -2.3083
  102SAPE  H18S10370   2.316   5.235   4.729 -0.0410  1.0979  0.0331
  102SAPE  C21910371   2.275   5.129   4.542 -0.4087 -0.3314  0.9885
  102SAPE  H19R10372   2.315   5.034   4.584 -0.7996  0.2221  2.6769
  102SAPE  H19S10373   2.329   5.130   4.444  1.3527 -0.3128  1.9227
  102SAPE  C22010374   2.123   5.125   4.527  0.1311 -0.3023  0.6618
  102SAPE  H20R10375   2.080   5.129   4.629  1.1095  0.4841  1.0601
  102SAPE  H20S10376   2.095   5.031   4.474 -0.6717 -0.9084  2.1208
  102SAPE  H20T10377   2.097   5.217   4.469  0.5228 -2.2961 -2.9777
  102SAPE   C3310378   2.057   4.741   6.004  0.4737  0.2458 -0.3702
  102SAPE   H3X10379   1.965   4.685   5.979  0.7051 -0.6118  0.6156
  102SAPE   H3Y10380   2.139   4.669   5.982  0.5590  0.4400 -0.6957
  102SAPE   C3410381   2.063   4.859   5.906  0.2956  0.8798 -0.8026
  102SAPE   H4X10382   2.003   4.942   5.949 -0.6546 -1.2177  2.3213
  102SAPE   H4Y10383   2.011   4.838   5.810  0.8937  0.6426 -1.0776
  102SAPE   C3510384   2.186   4.935   5.877  0.3712  0.2542  0.1552
  102SAPE   H5X10385   2.236   4.991   5.959  0.8204 -0.7593  0.5897
  102SAPE   H5Y10386   2.158   5.020   5.811  3.8681  1.7116  0.3438
  102SAPE   C3610387   2.294   4.847   5.799  0.1068 -0.0612  0.4679
  102SAPE   H6X10388   2.243   4.770   5.737  2.0697 -0.6569 -0.4623
  102SAPE   H6Y10389   2.347   4.784   5.874  1.9869  1.5836  0.6123
  102SAPE   C3710390   2.394   4.915   5.703  0.6764 -0.0524  0.8372
  102SAPE   H7X10391   2.489   4.863   5.727 -0.3721 -1.4453  2.2531
  102SAPE   H7Y10392   2.424   5.014   5.742 -0.3957  0.3946  0.5700
  102SAPE   C3810393   2.354   4.915   5.554  0.1066  0.0967  0.5264
  102SAPE   H8X10394   2.245   4.930   5.542 -0.1442 -0.9461  1.2819
  102SAPE   H8Y10395   2.370   4.811   5.518 -0.2086  1.0593 -2.6772
  102SAPE   C3910396   2.442   5.009   5.467  0.0785  0.3288 -0.6118
  102SAPE   H9X10397   2.543   5.001   5.512  0.3758  2.9104 -0.6873
  102SAPE   H9Y10398   2.408   5.108   5.504  0.5160 -0.6169  2.6919
  102SAPE  C31010399   2.430   4.990   5.321  0.0131  0.4164  0.2026
  102SAPE  H10X10400   2.482   5.075   5.272  0.7178 -0.7369 -1.1272
  102SAPE  H10Y10401   2.324   4.985   5.288 -0.2750  0.5380  1.0769
  102SAPE  C31110402   2.506   4.860   5.277 -0.8009 -0.0233 -0.2535
  102SAPE  H11X10403   2.450   4.772   5.316  0.6368 -0.5208  0.7959
  102SAPE  H11Y10404   2.611   4.856   5.315 -0.9070  1.8958  0.3172
  102SAPE  C31210405   2.503   4.852   5.119 -0.3059 -0.4352 -0.3694
  102SAPE  H12X10406   2.400   4.872   5.083 -1.7428 -1.6464  2.7277
  102SAPE  H12Y10407   2.536   4.748   5.097  1.2299 -0.1086  0.2468
  102SAPE  C31310408   2.613   4.933   5.047  0.9348  0.2967  0.1160
  102SAPE  H13X10409   2.619   5.042   5.067 -2.8957  0.8829 -0.9803
  102SAPE  H13Y10410   2.583   4.942   4.940  1.4269  0.4958 -0.0073
  102SAPE  C31410411   2.747   4.862   5.049 -0.4102  0.1554  0.5089
  102SAPE  H14X10412   2.745   4.760   5.005 -1.7449  0.8981 -1.2785
  102SAPE  H14Y10413   2.769   4.847   5.157 -0.6628  1.8370  0.8174
  102SAPE  C31510414   2.853   4.935   4.972 -0.7644 -0.4548  0.1667
  102SAPE  H15X10415   2.953   4.911   5.015 -1.1948  0.7012  1.9153
  102SAPE  H15Y10416   2.844   5.045   4.985  2.9961  0.0573 -0.3871
  102SAPE  C31610417   2.848   4.900   4.818 -0.4707  0.4600  0.0165
  102SAPE  H16X10418   2.927   4.963   4.771  2.5038 -1.6038  1.9090
  102SAPE  H16Y10419   2.745   4.920   4.782 -1.4574 -2.1376  1.1719
  102SAPE  C31710420   2.881   4.749   4.781  0.1772 -0.5844 -0.4311
  102SAPE  H17X10421   2.789   4.693   4.809  0.2988 -1.1454 -1.1268
  102SAPE  H17Y10422   2.968   4.705   4.833  0.7571  0.5713 -0.3999
  102SAPE  C31810423   2.908   4.746   4.634  0.0248  0.1820  0.0321
  102SAPE  H18X10424   2.830   4.808   4.585  0.9460 -0.5368 -2.5006
  102SAPE  H18Y10425   2.918   4.640   4.602 -0.1118 -0.5041  2.1382
  102SAPE  H18Z10426   3.005   4.794   4.608 -0.1634  0.2801 -0.5029
  103SAPE     N10427   4.271   6.149   2.515  0.2116  0.4575 -0.5166
  103SAPE   HN110428   4.169   6.172   2.512 -0.0547 -0.5922 -0.2017
  103SAPE   HN210429   4.274   6.066   2.577  1.7464  2.4476  2.2828
  103SAPE   HN310430   4.321   6.227   2.561  0.3742 -0.0890  0.2481
  103SAPE   C1210431   4.321   6.115   2.379 -0.1058 -0.9907  0.4742
  103SAPE  H12A10432   4.392   6.030   2.390  1.7363  0.6591  2.1655
  103SAPE  H12B10433   4.381   6.196   2.332 -0.9292 -1.1104 -0.8383
  103SAPE   C1110434   4.202   6.089   2.285  0.4294  0.4698  0.6739
  103SAPE  H11A10435   4.241   6.071   2.183 -1.0666  0.3090  0.1038
  103SAPE  H11B10436   4.134   6.175   2.268  0.4576 -0.0045 -2.3935
  103SAPE     P10437   4.016   5.936   2.403  0.2407 -0.3104 -0.0929
  103SAPE   O1310438   3.975   6.061   2.471 -0.2126  0.2946  0.3612
  103SAPE   O1410439   3.911   5.853   2.337  0.1488 -0.5207 -0.4281
  103SAPE   O1210440   4.128   5.964   2.305  0.4456 -0.1939  0.4091
  103SAPE   O1110441   4.092   5.849   2.506 -0.1503  0.0124  0.4199
  103SAPE    C110442   4.048   5.728   2.567 -0.0815  0.4308 -0.3061
  103SAPE    HA10443   3.996   5.658   2.497  0.3352 -1.2589  1.0226
  103SAPE    HB10444   4.139   5.676   2.603  0.3010 -0.6614 -2.6172
  103SAPE    C210445   3.958   5.770   2.683  0.0605 -0.3300 -0.3752
  103SAPE    HS10446   3.937   5.676   2.738  2.0579 -2.7427 -3.3587
  103SAPE   O2110447   3.834   5.822   2.627 -0.0461 -0.7027 -0.7839
  103SAPE   C2110448   3.741   5.733   2.591 -0.5065  0.1776  0.4841
  103SAPE   O2210449   3.745   5.610   2.601 -0.2653 -0.1340  0.2699
  103SAPE   C2210450   3.627   5.809   2.529  0.2297  0.3038  0.3080
  103SAPE   H2R10451   3.666   5.863   2.440 -1.4338  0.5880 -0.2796
  103SAPE   H2S10452   3.557   5.730   2.493  0.9983 -0.4598  0.4463
  103SAPE    C310453   4.014   5.886   2.776 -0.1505  0.0045  0.0247
  103SAPE    HX10454   3.932   5.909   2.848 -2.2259 -2.1822 -1.4949
  103SAPE    HY10455   4.036   5.983   2.726 -2.8674  1.6444  1.7521
  103SAPE   O3110456   4.132   5.836   2.850  0.0816 -0.5384 -0.0368
  103SAPE   C3110457   4.255   5.880   2.809  0.0425  0.1207  0.3784
  103SAPE   O3210458   4.276   5.973   2.737  0.0651 -0.3494 -0.3361
  103SAPE   C3210459   4.363   5.801   2.870 -0.2393 -0.2456  0.1079
  103SAPE   H2X10460   4.465   5.835   2.842  0.3068 -1.5132  0.4813
  103SAPE   H2Y10461   4.350   5.695   2.841  1.1868 -1.1438  2.4348
  103SAPE   C2310462   3.565   5.901   2.640  0.6652 -0.0154  0.0100
  103SAPE   H3R10463   3.485   5.955   2.586  0.8530 -0.3073 -0.5709
  103SAPE   H3S10464   3.637   5.969   2.691  0.8763 -0.8130  0.7963
  103SAPE   C2410465   3.502   5.819   2.757 -0.5120 -0.2865  0.3185
  103SAPE   H4R10466   3.591   5.779   2.810  1.2052  0.0521 -2.1368
  103SAPE   H4S10467   3.446   5.731   2.719  0.6684 -0.7576 -0.3846
  103SAPE   C2510468   3.420   5.896   2.848 -0.4260  0.9032 -0.2012
  103SAPE   H5R10469   3.326   5.934   2.807 -0.6106  0.7565  0.0795
  103SAPE   C2610470   3.440   5.904   2.978  0.3268  0.1746 -0.2185
  103SAPE   H6R10471   3.357   5.950   3.033 -0.1781  0.1653 -0.9583
  103SAPE   C2710472   3.556   5.863   3.070 -0.9151  0.1135  0.4190
  103SAPE   H7R10473   3.571   5.753   3.067 -0.9001  0.0926  1.0934
  103SAPE   H7S10474   3.518   5.875   3.173 -1.5598  2.8280 -0.0721
  103SAPE   C2810475   3.679   5.935   3.046 -0.2865  0.2710  0.5263
  103SAPE   H8R10476   3.679   5.987   2.949 -1.1447  0.7354  0.7709
  103SAPE   C2910477   3.795   5.926   3.116  0.4344 -0.4494 -0.7987
  103SAPE   H9R10478   3.884   5.983   3.084  0.8834 -0.5704  0.1850
  103SAPE  C21010479   3.818   5.844   3.237 -0.4431  0.1142 -0.1792
  103SAPE  H10R10480   3.732   5.858   3.306 -0.8263  0.2682 -0.6843
  103SAPE  H10S10481   3.905   5.881   3.295 -0.7896  2.4738 -1.0647
  103SAPE  C21110482   3.831   5.698   3.209 -0.4472 -0.1228  0.3688
  103SAPE  H11R10483   3.870   5.667   3.111 -1.7685 -3.4743  0.7697
  103SAPE  C21210484   3.831   5.602   3.305  0.0244  0.3775 -0.0204
  103SAPE  H12R10485   3.846   5.501   3.264  1.5768  0.4108  0.3914
  103SAPE  C21310486   3.797   5.610   3.454 -0.7754  0.0604 -0.5465
  103SAPE  H13R10487   3.755   5.520   3.505  0.3699  0.5429  1.3842
  103SAPE  H13S10488   3.721   5.691   3.456 -0.7825  0.0465  0.7104
  103SAPE  C21410489   3.904   5.661   3.553  0.3100 -0.3618 -0.0869
  103SAPE  H14R10490   3.896   5.768   3.577 -0.6284 -0.6421  0.9443
  103SAPE  C21510491   3.991   5.588   3.624  0.5153 -0.5399 -0.6183
  103SAPE  H15R10492   4.058   5.645   3.691  0.0099  0.4182 -0.9205
  103SAPE  C21610493   4.026   5.440   3.615 -0.2544 -0.7483  0.1655
  103SAPE  H16R10494   4.131   5.436   3.578 -0.3612 -0.1702 -0.2142
  103SAPE  H16S10495   3.966   5.385   3.539  0.3575 -1.4277  0.1642
  103SAPE  C21710496   4.016   5.359   3.743  0.1785 -0.5320  0.2664
  103SAPE  H17R10497   4.061   5.259   3.724  0.2244 -0.5365  0.4033
  103SAPE  H17S10498   3.910   5.349   3.773 -0.3810  2.4733 -0.4174
  103SAPE  C21810499   4.110   5.409   3.860  0.0809  0.4104  0.1515
  103SAPE  H18R10500   4.077   5.508   3.899 -1.3785  0.6590 -1.5817
  103SAPE  H18S10501   4.206   5.447   3.818  0.3995 -0.0215  0.4701
  103SAPE  C21910502   4.131   5.305   3.969 -0.4704 -0.3688  0.3514
  103SAPE  H19R10503   4.221   5.329   4.028  1.2628 -2.8867 -1.0680
  103SAPE  H19S10504   4.157   5.208   3.921  0.1785 -0.4065  0.7655
  103SAPE  C22010505   4.016   5.286   4.069  0.0392 -0.2501 -0.2074
  103SAPE  H20R10506   3.995   5.388   4.108  0.6647  0.8392 -2.5465
  103SAPE  H20S10507   4.042   5.232   4.162 -0.4678  0.5300  0.4039
  103SAPE  H20T10508   3.930   5.242   4.014 -0.2508 -1.3505  1.0862
  103SAPE   C3310509   4.363   5.806   3.026 -0.1495 -0.3339 -0.7042
  103SAPE   H3X10510   4.454   5.757   3.067 -0.0778  0.2174 -0.2036
  103SAPE   H3Y10511   4.270   5.759   3.063 -0.0387  0.5962  0.8482
  103SAPE   C3410512   4.360   5.948   3.088 -0.6284  0.2871  0.3427
  103SAPE   H4X10513   4.268   6.005   3.065  0.0735  1.5440  0.5526
  103SAPE   H4Y10514   4.452   6.005   3.063  0.6190 -1.2386  1.2297
  103SAPE   C3510515   4.367   5.941   3.238 -0.7279 -0.1455 -0.3315
  103SAPE   H5X10516   4.364   6.038   3.292  2.3425  0.6328 -1.3617
  103SAPE   H5Y10517   4.469   5.899   3.251  0.4408  1.9345 -2.1568
  103SAPE   C3610518   4.266   5.847   3.309 -0.7912  0.2393  0.7480
  103SAPE   H6X10519   4.262   5.747   3.260 -2.1546  0.8126 -0.3661
  103SAPE   H6Y10520   4.165   5.891   3.293 -0.5803  0.6516  0.5418
  103SAPE   C3710521   4.283   5.828   3.464  0.1941  0.0762 -0.3246
  103SAPE   H7X10522   4.194   5.771   3.499  0.2466  1.0259  1.4096
  103SAPE   H7Y10523   4.286   5.926   3.516  0.8757  1.5540 -2.9515
  103SAPE   C3810524   4.409   5.749   3.501  0.7613 -0.6071 -0.1485
  103SAPE   H8X10525   4.502   5.809   3.501  1.2930 -1.4172 -0.8205
  103SAPE   H8Y10526   4.420   5.672   3.421  1.4443  1.7264 -2.4482
  103SAPE   C3910527   4.384   5.671   3.630  0.2986 -0.6557 -0.4873
  103SAPE   H9X10528   4.449   5.582   3.644 -2.4188 -2.6130  0.6923
  103SAPE   H9Y10529   4.281   5.629   3.623  1.1085 -2.5555 -1.5709
  103SAPE  C31010530   4.380   5.768   3.751 -0.5639 -0.1995  0.4208
  103SAPE  H10X10531   4.295   5.838   3.731  1.1698  0.9227 -4.3816
  103SAPE  H10Y10532   4.467   5.836   3.737 -0.5127 -0.6470 -1.8636
  103SAPE  C31110533   4.373   5.714   3.896 -0.2157  0.0069  0.3092
  103SAPE  H11X10534   4.296   5.637   3.916 -1.0473  0.4595 -1.0013
  103SAPE  H11Y10535   4.353   5.801   3.962  1.2848 -1.2801  2.6148
  103SAPE  C31210536   4.508   5.655   3.946 -0.1521 -0.4219 -0.5979
  103SAPE  H12X10537   4.592   5.724   3.923 -0.5524  0.3087  0.0750
  103SAPE  H12Y10538   4.528   5.560   3.891  2.5222  0.1367 -0.7578
  103SAPE  C31310539   4.515   5.640   4.097 -0.2243 -0.7743  0.0278
  103SAPE  H13X10540   4.438   5.564   4.122 -2.2915  1.2225  0.0769
  103SAPE  H13Y10541   4.484   5.738   4.139 -1.3399 -1.0644 -0.1017
  103SAPE  C31410542   4.646   5.601   4.153  0.0509  0.3506 -0.4721
  103SAPE  H14X10543   4.715   5.585   4.068 -1.2417  0.4570 -1.5650
  103SAPE  H14Y10544   4.630   5.514   4.220 -0.0499 -0.5409 -1.6313
  103SAPE  C31510545   4.708   5.708   4.251 -0.5701  0.3095 -0.0395
  103SAPE  H15X10546   4.800   5.661   4.293  0.5527  1.3016 -1.2848
  103SAPE  H15Y10547   4.639   5.713   4.337 -1.0898 -2.0488 -0.2472
  103SAPE  C31610548   4.755   5.834   4.183 -0.0921  0.2874  0.0349
  103SAPE  H16X10549   4.674   5.893   4.134  0.8906  2.1050  0.5334
  103SAPE  H16Y10550   4.827   5.808   4.103  1.6107  1.4237  1.1452
  103SAPE  C31710551   4.821   5.939   4.273  0.0045  0.4886  0.3128
  103SAPE  H17X10552   4.853   6.023   4.207 -1.2839 -0.7347 -1.9964
  103SAPE  H17Y10553   4.911   5.902   4.326  0.1077  2.7440  1.8549
  103SAPE  C31810554   4.736   5.991   4.387  0.0894 -0.2225 -0.1817
  103SAPE  H18X10555   4.632   5.999   4.350 -0.1370 -0.4478  0.4137
  103SAPE  H18Y10556   4.774   6.091   4.418  0.9244 -0.9743  1.3297
  103SAPE  H18Z10557   4.743   5.925   4.476  1.9657 -2.2707 -1.7147
  104SAPE     N10558   6.883   6.679   2.375 -0.6936  0.5042 -0.4086
  104SAPE   HN110559   6.825   6.715   2.453 -2.6617 -0.2781 -1.4625
  104SAPE   HN210560   6.838   6.591   2.344 -0.3735  0.0601  0.3385
  104SAPE   HN310561   6.973   6.654   2.421 -0.8846  0.3187 -0.1345
  104SAPE   C1210562   6.905   6.793   2.276  0.7232  0.6309 -0.4849
  104SAPE  H12A10563   6.929   6.749   2.177  1.3208 -0.7086  0.2345
  104SAPE  H12B10564   6.992   6.846   2.320 -1.1133  1.8286  1.9374
  104SAPE   C1110565   6.784   6.887   2.287  0.6422  0.3422  0.7295
  104SAPE  H11A10566   6.807   6.965   2.211 -0.0276  0.8242  1.0159
  104SAPE  H11B10567   6.776   6.927   2.390  0.2837 -2.4628  1.8806
  104SAPE     P10568   6.577   6.852   2.127  0.1450 -0.1728 -0.4206
  104SAPE   O1310569   6.653   6.941   2.035  0.1216 -0.4076  0.1414
  104SAPE   O1410570   6.547   6.723   2.069  0.4028  0.5891 -0.9015
  104SAPE   O1210571   6.662   6.818   2.257 -0.2225 -0.1159 -0.1287
  104SAPE   O1110572   6.439   6.915   2.175  0.7293  0.1042 -0.1837
  104SAPE    C110573   6.420   6.999   2.287  0.3937  0.7532  0.1749
  104SAPE    HA10574   6.499   7.076   2.293  0.3612  0.6905  2.0794
  104SAPE    HB10575   6.320   7.047   2.280  0.2897  0.3414 -1.6392
  104SAPE    C210576   6.418   6.936   2.432 -0.2683 -0.6105  0.5121
  104SAPE    HS10577   6.506   6.868   2.423  0.5716  0.3280  1.4813
  104SAPE   O2110578   6.297   6.863   2.452 -0.2035  0.1954  0.1984
  104SAPE   C2110579   6.302   6.728   2.453 -0.1797  0.0999 -0.8021
  104SAPE   O2210580   6.398   6.664   2.416  0.4444  0.0210 -0.0776
  104SAPE   C2210581   6.166   6.671   2.493 -0.3391  1.0334 -0.8841
  104SAPE   H2R10582   6.095   6.755   2.512 -0.3597  0.5448  1.5471
  104SAPE   H2S10583   6.136   6.605   2.409 -0.7330  0.2525 -0.1385
  104SAPE    C310584   6.437   7.039   2.548  0.0837 -0.0211  0.1329
  104SAPE    HX10585   6.345   7.101   2.558  0.3276  0.6604 -1.5077
  104SAPE    HY10586   6.524   7.104   2.523  0.0247  0.2565  0.6384
  104SAPE   O3110587   6.476   6.966   2.671  0.2812  0.2496  0.1951
  104SAPE   C3110588   6.453   7.033   2.780 -0.1275 -0.8250 -0.0654
  104SAPE   O3210589   6.406   7.145   2.785 -0.3287 -0.2447 -0.3315
  104SAPE   C3210590   6.505   6.957   2.910 -0.2570 -0.2260  0.7641
  104SAPE   H2X10591   6.592   7.013   2.949 -0.2831  0.3366  0.0311
  104SAPE   H2Y10592   6.539   6.855   2.881 -3.0340 -1.0449  0.0346
  104SAPE   C2310593   6.162   6.584   2.620 -0.3092  0.3032  0.8119
  104SAPE   H3R10594   6.229   6.498   2.599 -1.2889  0.1725 -2.2323
  104SAPE   H3S10595   6.062   6.535   2.623  0.5227 -1.6426 -0.9115
  104SAPE   C2410596   6.216   6.650   2.753  0.0851 -0.4103  0.1784
  104SAPE   H4R10597   6.290   6.729   2.730 -0.3079  0.2763  1.2236
  104SAPE   H4S10598   6.265   6.577   2.821  0.1215  1.7854  2.6206
  104SAPE   C2510599   6.090   6.708   2.817 -0.4143 -0.8628 -0.3261
  104SAPE   H5R10600   6.061   6.802   2.768 -0.1030 -0.3283  0.4979
  104SAPE   C2610601   6.019   6.663   2.926 -0.3127 -0.3862 -0.2239
  104SAPE   H6R10602   5.933   6.726   2.951 -0.1337 -0.3119  0.2100
  104SAPE   C2710603   6.036   6.537   3.008  0.5634  1.2564 -0.2187
  104SAPE   H7R10604   6.076   6.567   3.107 -2.7003  1.7377  1.0911
  104SAPE   H7S10605   6.102   6.466   2.954 -1.1165  1.1235 -2.2218
  104SAPE   C2810606   5.904   6.460   3.026  0.5577  0.4963 -0.1204
  104SAPE   H8R10607   5.852   6.417   2.939 -0.5097 -0.5756  1.0216
  104SAPE   C2910608   5.856   6.416   3.144 -0.7372  0.9406  0.0271
  104SAPE   H9R10609   5.755   6.373   3.149  0.1420 -1.2134  0.5333
  104SAPE  C21010610   5.908   6.459   3.281 -0.2683  0.4647 -0.5354
  104SAPE  H10R10611   6.013   6.495   3.273 -0.7516  1.9145 -0.6469
  104SAPE  H10S10612   5.902   6.381   3.360 -0.5315  2.3292  1.3817
  104SAPE  C21110613   5.826   6.580   3.343 -0.0051 -0.4993 -0.0792
  104SAPE  H11R10614   5.825   6.669   3.278 -0.6107  0.1921  0.8463
  104SAPE  C21210615   5.768   6.590   3.468 -0.6962 -0.1913 -0.4272
  104SAPE  H12R10616   5.719   6.683   3.496 -1.9788 -1.0764  0.3561
  104SAPE  C21310617   5.770   6.484   3.574  0.4553  0.3543 -0.4540
  104SAPE  H13R10618   5.807   6.530   3.668  0.9745  1.2399 -1.0683
  104SAPE  H13S10619   5.839   6.401   3.549 -0.5323 -1.4894  2.4781
  104SAPE  C21410620   5.637   6.419   3.595 -0.4399  0.2729 -0.1299
  104SAPE  H14R10621   5.563   6.432   3.515 -1.8405 -0.4130  1.0030
  104SAPE  C21510622   5.599   6.352   3.705  0.5950 -0.4233  0.6747
  104SAPE  H15R10623   5.495   6.314   3.712 -0.8035  3.2516  4.1637
  104SAPE  C21610624   5.685   6.337   3.823  0.4506 -0.3048 -0.4589
  104SAPE  H16R10625   5.732   6.432   3.855  1.0133 -0.0880 -1.8842
  104SAPE  H16S10626   5.752   6.249   3.814  0.8830 -0.5420  3.2534
  104SAPE  C21710627   5.592   6.297   3.943 -0.1874  0.3488  0.7677
  104SAPE  H17R10628   5.646   6.242   4.023  0.6037  1.1789  0.8199
  104SAPE  H17S10629   5.521   6.220   3.905  1.7088 -1.8778  1.5049
  104SAPE  C21810630   5.501   6.410   4.009  0.5181 -0.2835  0.0323
  104SAPE  H18R10631   5.443   6.454   3.926  2.0641 -0.5412 -1.2451
  104SAPE  H18S10632   5.568   6.485   4.055 -1.0299  0.2089  1.5898
  104SAPE  C21910633   5.404   6.352   4.113  0.1565 -0.4591 -0.8971
  104SAPE  H19R10634   5.462   6.285   4.180 -1.6672 -1.6634 -0.4167
  104SAPE  H19S10635   5.334   6.280   4.064  1.9540 -1.0611 -2.6753
  104SAPE  C22010636   5.328   6.459   4.188  0.2175  0.0483  0.4555
  104SAPE  H20R10637   5.385   6.533   4.248  0.1813 -0.0649  0.6318
  104SAPE  H20S10638   5.238   6.426   4.245  0.4999  1.4503  1.7865
  104SAPE  H20T10639   5.279   6.518   4.108 -0.0280  0.4300  0.8770
  104SAPE   C3310640   6.391   6.946   3.010 -0.2536 -0.5006 -0.7516
  104SAPE   H3X10641   6.310   6.885   2.964 -0.4850  0.9279 -2.3331
  104SAPE   H3Y10642   6.356   7.047   3.039  1.8120 -0.0909  0.5130
  104SAPE   C3410643   6.441   6.864   3.132 -0.3550  0.2490 -0.5310
  104SAPE   H4X10644   6.499   6.780   3.087  2.7559  2.3059 -0.7191
  104SAPE   H4Y10645   6.359   6.824   3.194  0.2970 -0.0829  0.1401
  104SAPE   C3510646   6.540   6.930   3.229 -0.7530 -0.8914 -0.4714
  104SAPE   H5X10647   6.511   7.033   3.260 -0.2628 -0.7197 -0.5782
  104SAPE   H5Y10648   6.640   6.928   3.182 -1.6353 -0.8852 -2.4569
  104SAPE   C3610649   6.554   6.840   3.352 -0.1435 -0.3986  0.5645
  104SAPE   H6X10650   6.655   6.871   3.385 -0.3489  1.8929 -0.7816
  104SAPE   H6Y10651   6.552   6.735   3.313  1.7111  0.0740 -0.9741
  104SAPE   C3710652   6.459   6.881   3.469 -0.1918  0.5517  0.2511
  104SAPE   H7X10653   6.359   6.838   3.448  0.7032 -2.2105  1.1725
  104SAPE   H7Y10654   6.447   6.992   3.463  0.8361  0.6032 -2.1025
  104SAPE   C3810655   6.501   6.825   3.609 -0.1024  0.7194  0.4030
  104SAPE   H8X10656   6.597   6.877   3.631 -0.8219  2.2606  0.0441
  104SAPE   H8Y10657   6.534   6.720   3.597  1.6369  1.3635 -1.0230
  104SAPE   C3910658   6.416   6.861   3.733  0.2290  0.0215 -0.4152
  104SAPE   H9X10659   6.327   6.795   3.730  0.6480 -0.5733 -0.0085
  104SAPE   H9Y10660   6.385   6.967   3.729  0.3882  0.0337 -1.6032
  104SAPE  C31010661   6.501   6.843   3.858  0.5286 -0.1494  0.0149
  104SAPE  H10X10662   6.586   6.914   3.854  0.6269 -0.3243 -1.8495
  104SAPE  H10Y10663   6.553   6.745   3.850 -0.6350 -0.7528 -0.3845
  104SAPE  C31110664   6.433   6.864   3.987 -0.0470 -0.1810 -0.3465
  104SAPE  H11X10665   6.376   6.959   3.985  0.6813  0.3721  2.0512
  104SAPE  H11Y10666   6.520   6.881   4.054 -0.6812 -0.0124  0.4455
  104SAPE  C31210667   6.349   6.741   4.033  0.0757  0.8378  0.6816
  104SAPE  H12X10668   6.420   6.656   4.042 -0.9025  0.1918  2.9723
  104SAPE  H12Y10669   6.274   6.722   3.953  1.1292  0.8333 -0.3350
  104SAPE  C31310670   6.292   6.747   4.174  0.8143 -0.2249 -0.1248
  104SAPE  H13X10671   6.220   6.831   4.181 -0.0984 -0.9293 -0.8279
  104SAPE  H13Y10672   6.378   6.772   4.240  0.6149  1.2562 -0.4074
  104SAPE  C31410673   6.250   6.603   4.223 -0.2937  0.2872  0.5319
  104SAPE  H14X10674   6.327   6.528   4.194 -1.0411 -0.2269 -0.1746
  104SAPE  H14Y10675   6.160   6.591   4.159 -0.2261  2.3510 -0.0085
  104SAPE  C31510676   6.209   6.590   4.369 -0.1133 -0.0717  0.3870
  104SAPE  H15X10677   6.120   6.524   4.380 -1.0983  1.0479 -0.6099
  104SAPE  H15Y10678   6.176   6.689   4.408 -3.4864 -0.8726 -0.1207
  104SAPE  C31610679   6.318   6.540   4.466  0.3255  0.4663  0.0217
  104SAPE  H16X10680   6.397   6.617   4.480 -1.7179  3.0170 -1.5121
  104SAPE  H16Y10681   6.363   6.446   4.430 -0.8469 -0.0750 -0.0892
  104SAPE  C31710682   6.261   6.520   4.609  0.2051 -0.3082  0.1058
  104SAPE  H17X10683   6.168   6.461   4.595 -1.1242  2.1653 -2.5886
  104SAPE  H17Y10684   6.215   6.616   4.644  1.3959  0.9208 -1.5388
  104SAPE  C31810685   6.371   6.462   4.709  0.3096 -0.5865 -0.1883
  104SAPE  H18X10686   6.325   6.460   4.810  0.3155  1.2438 -0.1236
  104SAPE  H18Y10687   6.458   6.530   4.711 -0.2354  0.1083  0.9158
  104SAPE  H18Z10688   6.414   6.366   4.675  1.5882 -0.1043  0.0138
  105SAPE     N10689   1.538   0.970   3.279  1.1158 -0.6539 -0.2249
  105SAPE   HN110690   1.618   1.035   3.270 -0.4362  1.8154  2.2981
  105SAPE   HN210691   1.570   0.871   3.288  2.1536 -0.3208 -0.1612
  105SAPE   HN310692   1.469   0.974   3.201 -2.9911 -2.7236  2.9008
  105SAPE   C1210693   1.457   1.003   3.399  0.6676  0.3271  0.1649
  105SAPE  H12A10694   1.428   1.110   3.388 -2.2607 -0.4913 -1.0754
  105SAPE  H12B10695   1.516   0.967   3.486  1.7397 -0.5615 -0.9027
  105SAPE   C1110696   1.329   0.916   3.403 -0.3489  0.5981 -0.6403
  105SAPE  H11A10697   1.251   0.960   3.469  0.9342  1.5058  0.3392
  105SAPE  H11B10698   1.361   0.818   3.443 -1.5627 -0.2107 -1.5944
  105SAPE     P10699   1.208   0.971   3.185 -0.0558 -0.1621  0.2260
  105SAPE   O1310700   1.313   1.036   3.097  0.2368  0.4471  0.0227
  105SAPE   O1410701   1.090   0.917   3.113  0.0494 -1.2344 -0.7128
  105SAPE   O1210702   1.278   0.874   3.278  0.7033 -0.3518  0.3704
  105SAPE   O1110703   1.160   1.080   3.286  0.1795 -0.0322 -0.6218
  105SAPE    C110704   1.079   1.186   3.239  0.1502 -0.6823  0.8327
  105SAPE    HA10705   1.078   1.203   3.130 -1.6649 -0.2753  0.8672
  105SAPE    HB10706   0.981   1.181   3.292 -0.4291  1.1114  0.0294
  105SAPE    C210707   1.156   1.304   3.303  0.0431 -0.1874 -0.0283
  105SAPE    HS10708   1.264   1.284   3.314  0.1966 -0.1767 -1.3654
  105SAPE   O2110709   1.086   1.342   3.421 -0.1764  0.6345  0.4996
  105SAPE   C2110710   1.125   1.282   3.536  0.6476  0.5320  0.2090
  105SAPE   O2210711   1.225   1.219   3.552 -0.0300  0.6574  0.9696
  105SAPE   C2210712   1.004   1.299   3.639 -0.2229 -0.1237  0.1025
  105SAPE   H2R10713   1.038   1.393   3.688  4.2452 -1.3307 -0.2206
  105SAPE   H2S10714   0.911   1.313   3.581  0.6276  1.7988 -0.8910
  105SAPE    C310715   1.157   1.425   3.218  0.2389 -0.7582 -0.0337
  105SAPE    HX10716   1.058   1.474   3.232  1.2070  0.4054  4.0654
  105SAPE    HY10717   1.173   1.389   3.114 -0.0626 -2.1583  0.3898
  105SAPE   O3110718   1.263   1.519   3.259  0.5163  0.3938  0.4217
  105SAPE   C3110719   1.281   1.619   3.174  0.4485  0.3895 -0.0884
  105SAPE   O3210720   1.203   1.648   3.080  0.1636 -0.3909 -0.4092
  105SAPE   C3210721   1.406   1.700   3.206 -0.1891 -0.7439 -0.0333
  105SAPE   H2X10722   1.493   1.644   3.167 -0.9644 -0.4951 -2.3008
  105SAPE   H2Y10723   1.428   1.696   3.315  2.0330 -1.0707 -0.4576
  105SAPE   C2310724   0.999   1.198   3.751  0.6837 -0.0871 -0.2850
  105SAPE   H3R10725   1.100   1.179   3.794  0.4389 -0.5232  0.1128
  105SAPE   H3S10726   0.953   1.107   3.708 -0.8974  0.7746 -0.5059
  105SAPE   C2410727   0.889   1.233   3.866  0.5515 -0.3278  0.6987
  105SAPE   H4R10728   0.884   1.148   3.936  0.3525 -1.8177 -1.0420
  105SAPE   H4S10729   0.790   1.257   3.821 -0.2393  1.0180  2.9590
  105SAPE   C2510730   0.914   1.363   3.939  0.0328  0.0991 -0.1329
  105SAPE   H5R10731   0.871   1.451   3.888 -0.0428 -0.1119 -0.4394
  105SAPE   C2610732   0.985   1.386   4.050  0.7714  0.6900 -1.2517
  105SAPE   H6R10733   0.992   1.490   4.085 -0.6691  0.8383 -1.3678
  105SAPE   C2710734   1.058   1.276   4.134  0.8757 -0.2677  0.5086
  105SAPE   H7R10735   1.101   1.193   4.074  1.1592  0.9415 -1.0247
  105SAPE   H7S10736   0.983   1.224   4.197  1.2003 -0.7736  0.4918
  105SAPE   C2810737   1.167   1.339   4.219  0.3360 -0.5123  0.8579
  105SAPE   H8R10738   1.256   1.363   4.158 -0.8853 -0.2106 -0.8697
  105SAPE   C2910739   1.168   1.365   4.347  0.5801  0.1240 -0.7237
  105SAPE   H9R10740   1.261   1.401   4.395  0.6137  0.6156 -1.1447
  105SAPE  C21010741   1.055   1.344   4.441 -0.8396  0.4775 -0.5709
  105SAPE  H10R10742   0.957   1.391   4.419 -1.4418 -0.2771  0.3754
  105SAPE  H10S10743   1.084   1.399   4.533 -1.6690  0.3167 -0.1953
  105SAPE  C21110744   1.027   1.199   4.470  0.6204  0.1680  0.0810
  105SAPE  H11R10745   1.026   1.127   4.387 -0.9924  0.3017 -0.0342
  105SAPE  C21210746   1.007   1.138   4.590  0.2646 -0.5283 -0.5427
  105SAPE  H12R10747   1.002   1.028   4.587  0.7993 -0.5364 -1.4440
  105SAPE  C21310748   1.011   1.204   4.724  0.4585 -0.2800  0.0523
  105SAPE  H13R10749   0.928   1.277   4.742  1.0406  0.7519 -1.2365
  105SAPE  H13S10750   1.107   1.260   4.731  0.4252 -0.2437  0.2292
  105SAPE  C21410751   1.004   1.104   4.833  0.6680  0.0780 -0.3016
  105SAPE  H14R10752   0.900   1.069   4.834  0.2775  1.2037  1.5582
  105SAPE  C21510753   1.093   1.057   4.925  0.5184 -0.8527  0.9482
  105SAPE  H15R10754   1.049   0.992   5.003  0.6042 -1.0807  0.8077
  105SAPE  C21610755   1.226   1.120   4.967 -0.0017  0.6302 -0.0653
  105SAPE  H16R10756   1.269   1.190   4.892  1.1265  0.1862  0.1471
  105SAPE  H16S10757   1.287   1.028   4.979  1.9318  1.9165  0.5526
  105SAPE  C21710758   1.231   1.201   5.095 -0.5473 -0.0411 -0.0154
  105SAPE  H17R10759   1.165   1.290   5.086  0.3783  0.5304 -1.6095
  105SAPE  H17S10760   1.335   1.239   5.104  0.8619 -3.4495 -0.4565
  105SAPE  C21810761   1.219   1.126   5.227 -0.2281  0.0907  0.6579
  105SAPE  H18R10762   1.231   1.017   5.210  0.1538  0.1963  0.2346
  105SAPE  H18S10763   1.112   1.139   5.253 -0.1895 -0.8417  1.3402
  105SAPE  C21910764   1.302   1.182   5.338  0.0956 -0.0843 -0.1797
  105SAPE  H19R10765   1.299   1.293   5.348  1.1682  0.1972 -2.3658
  105SAPE  H19S10766   1.410   1.159   5.321 -0.1107 -0.3582 -1.1599
  105SAPE  C22010767   1.266   1.119   5.480 -0.3276 -0.0989  0.1402
  105SAPE  H20R10768   1.286   1.010   5.473  0.8179 -0.0357  1.7526
  105SAPE  H20S10769   1.159   1.141   5.499  0.3557  2.9579  1.0148
  105SAPE  H20T10770   1.328   1.161   5.562  0.0018 -1.0240  0.3786
  105SAPE   C3310771   1.420   1.844   3.159  0.8214  0.3367 -0.2225
  105SAPE   H3X10772   1.394   1.862   3.053 -0.5347  0.6915  0.1428
  105SAPE   H3Y10773   1.528   1.867   3.168  0.8748  0.3098 -0.7499
  105SAPE   C3410774   1.335   1.942   3.239 -0.9297 -0.4742 -0.5570
  105SAPE   H4X10775   1.340   1.910   3.345 -0.2833  2.5997  0.4422
  105SAPE   H4Y10776   1.227   1.941   3.213 -1.0706 -0.8806  0.0181
  105SAPE   C3510777   1.398   2.081   3.250  0.1800 -0.4742 -0.0879
  105SAPE   H5X10778   1.484   2.075   3.320  0.2829 -1.5451 -0.2911
  105SAPE   H5Y10779   1.323   2.140   3.306  0.5733 -0.6288  0.6042
  105SAPE   C3610780   1.443   2.139   3.118  0.3801 -0.7957 -0.1081
  105SAPE   H6X10781   1.360   2.120   3.047  1.5407 -0.1422 -1.7231
  105SAPE   H6Y10782   1.537   2.097   3.076  0.0274  0.2888 -2.1540
  105SAPE   C3710783   1.458   2.291   3.130 -0.2955  0.3181 -0.3298
  105SAPE   H7X10784   1.363   2.341   3.159 -1.0768 -0.6754 -1.0546
  105SAPE   H7Y10785   1.483   2.329   3.028 -1.2339  0.4239 -0.5318
  105SAPE   C3810786   1.566   2.335   3.236  1.2425 -0.2751  0.5985
  105SAPE   H8X10787   1.610   2.241   3.276 -1.7535 -1.7437  0.7073
  105SAPE   H8Y10788   1.516   2.390   3.318  0.3374 -0.5158  0.2187
  105SAPE   C3910789   1.692   2.428   3.196 -0.5678  0.1959  0.2615
  105SAPE   H9X10790   1.653   2.532   3.189  1.2033  0.8321 -0.9308
  105SAPE   H9Y10791   1.723   2.388   3.098  2.0687  2.0096  0.2662
  105SAPE  C31010792   1.811   2.406   3.288 -0.4810 -0.5834  0.6117
  105SAPE  H10X10793   1.888   2.485   3.274  1.2549 -2.0520  1.4572
  105SAPE  H10Y10794   1.856   2.307   3.268 -2.4375 -0.8274 -3.5489
  105SAPE  C31110795   1.776   2.419   3.437  0.5083 -0.3934 -0.0574
  105SAPE  H11X10796   1.699   2.341   3.451  0.7989 -1.0138 -1.6727
  105SAPE  H11Y10797   1.733   2.518   3.463 -0.2855  0.0405 -2.7154
  105SAPE  C31210798   1.884   2.382   3.537 -0.7887 -0.0080  0.0725
  105SAPE  H12X10799   1.942   2.476   3.546  0.1107 -0.5373 -0.0725
  105SAPE  H12Y10800   1.948   2.304   3.492  0.5803  1.2678 -0.2657
  105SAPE  C31310801   1.839   2.331   3.675 -0.4000 -0.9724  0.7326
  105SAPE  H13X10802   1.764   2.250   3.661 -0.2893 -0.7172 -1.7228
  105SAPE  H13Y10803   1.787   2.415   3.725  0.4125 -0.4029  0.6352
  105SAPE  C31410804   1.947   2.277   3.773 -0.4995  0.4398  0.2821
  105SAPE  H14X10805   2.038   2.341   3.770 -0.5706  0.5422  0.3294
  105SAPE  H14Y10806   1.976   2.178   3.732  0.2197 -0.0615  1.9234
  105SAPE  C31510807   1.905   2.256   3.915  0.2035  0.4953 -0.1749
  105SAPE  H15X10808   1.844   2.163   3.918  1.9716 -0.7333 -0.7947
  105SAPE  H15Y10809   1.840   2.341   3.944  0.5515 -0.4432  4.0337
  105SAPE  C31610810   2.027   2.250   4.003  0.3841 -0.4354  0.2689
  105SAPE  H16X10811   1.998   2.271   4.109  0.6722 -1.1944  0.5078
  105SAPE  H16Y10812   2.096   2.331   3.971 -2.8036  1.9705 -1.0349
  105SAPE  C31710813   2.106   2.120   4.011 -0.5389 -0.0665  0.0255
  105SAPE  H17X10814   2.131   2.092   3.906  2.0496  0.0976  0.5239
  105SAPE  H17Y10815   2.038   2.053   4.068 -3.3308  2.2694 -0.3360
  105SAPE  C31810816   2.237   2.142   4.102 -0.1094 -0.6720  0.7853
  105SAPE  H18X10817   2.305   2.220   4.064 -0.6310  0.2457  1.6851
  105SAPE  H18Y10818   2.301   2.051   4.106  1.4750  0.3675  0.0300
  105SAPE  H18Z10819   2.198   2.177   4.200 -1.8867 -1.3016  0.3503
  106SAPE     N10820   3.309   4.465   2.448 -0.2470  0.1403 -0.9849
  106SAPE   HN110821   3.343   4.517   2.364  0.8973  2.7885  0.9696
  106SAPE   HN210822   3.381   4.403   2.489  0.2329 -0.6392 -2.8880
  106SAPE   HN310823   3.228   4.409   2.415 -0.1137  0.1364 -1.3079
  106SAPE   C1210824   3.248   4.560   2.554 -0.2015 -0.4697  0.5686
  106SAPE  H12A10825   3.312   4.651   2.555 -1.8434  0.7383  0.4308
  106SAPE  H12B10826   3.255   4.504   2.650  1.3131  1.3680  1.5911
  106SAPE   C1110827   3.105   4.598   2.504 -0.7103  0.7081 -0.4652
  106SAPE  H11A10828   3.061   4.672   2.573 -0.3767  0.1415  0.3688
  106SAPE  H11B10829   3.033   4.514   2.516  1.1956 -0.7583  1.3539
  106SAPE     P10830   2.998   4.692   2.276 -0.2259  0.3214 -0.0726
  106SAPE   O1310831   3.026   4.834   2.246  0.7792  0.2955  0.2535
  106SAPE   O1410832   2.993   4.598   2.164  0.1600  0.1191  0.4547
  106SAPE   O1210833   3.117   4.645   2.371  0.6594  0.1748  0.1543
  106SAPE   O1110834   2.868   4.669   2.363 -0.1975 -0.1341 -0.3494
  106SAPE    C110835   2.775   4.780   2.370  0.1656  0.7216  0.6717
  106SAPE    HA10836   2.775   4.829   2.271  0.4972 -1.8881 -0.7071
  106SAPE    HB10837   2.670   4.745   2.374  0.6046 -0.7583  0.0322
  106SAPE    C210838   2.802   4.882   2.485  0.4176  0.0607  0.0010
  106SAPE    HS10839   2.910   4.901   2.470  0.2553 -0.3596 -1.9095
  106SAPE   O2110840   2.764   4.824   2.614 -0.0824 -0.9782 -0.0564
  106SAPE   C2110841   2.864   4.810   2.705  0.1789  0.7034 -0.0687
  106SAPE   O2210842   2.973   4.860   2.698  0.1614  0.2353  0.1162
  106SAPE   C2210843   2.822   4.717   2.817  0.0440  0.8181 -0.3039
  106SAPE   H2R10844   2.724   4.755   2.852  0.9180  1.1597  2.0001
  106SAPE   H2S10845   2.800   4.617   2.776 -2.1498  1.9988 -2.2386
  106SAPE    C310846   2.732   5.021   2.464  0.1357  0.3553  0.0366
  106SAPE    HX10847   2.623   5.001   2.454  0.3195 -0.4890 -0.4111
  106SAPE    HY10848   2.781   5.060   2.372  2.7772  0.4465  1.4034
  106SAPE   O3110849   2.755   5.121   2.573 -0.3026 -0.1514  0.7462
  106SAPE   C3110850   2.665   5.127   2.663  0.1066 -0.0190 -0.8004
  106SAPE   O3210851   2.555   5.074   2.664 -0.4230  0.4621 -0.1696
  106SAPE   C3210852   2.728   5.189   2.800  0.2341  0.3501  0.2287
  106SAPE   H2X10853   2.653   5.262   2.836  0.3995  1.1602 -1.0174
  106SAPE   H2Y10854   2.819   5.245   2.769 -0.1981  1.9529  1.6960
  106SAPE   C2310855   2.915   4.714   2.936  0.4958  0.6307  0.5106
  106SAPE   H3R10856   2.939   4.818   2.968  1.1814  0.7461 -0.3331
  106SAPE   H3S10857   3.006   4.658   2.904  1.4850  0.8788  2.7167
  106SAPE   C2410858   2.843   4.643   3.055  0.0774  0.1283  0.3814
  106SAPE   H4R10859   2.915   4.632   3.139 -1.4325  0.9633  1.8230
  106SAPE   H4S10860   2.836   4.545   3.002 -0.6872  0.1879  0.3593
  106SAPE   C2510861   2.703   4.690   3.102 -0.3463 -1.1051 -0.0435
  106SAPE   H5R10862   2.627   4.656   3.030  0.2299 -2.7296  0.0783
  106SAPE   C2610863   2.675   4.767   3.210 -1.2115 -0.4325  0.9136
  106SAPE   H6R10864   2.569   4.791   3.228 -1.8831 -1.7121 -1.0161
  106SAPE   C2710865   2.771   4.810   3.316 -0.2447  0.6957 -0.4674
  106SAPE   H7R10866   2.795   4.917   3.302  2.1420  0.5964  1.9226
  106SAPE   H7S10867   2.869   4.757   3.315 -0.6198 -0.1725  1.8026
  106SAPE   C2810868   2.715   4.781   3.450 -0.3192  0.0300 -1.1505
  106SAPE   H8R10869   2.625   4.718   3.458 -1.1030  1.2002 -0.3756
  106SAPE   C2910870   2.758   4.849   3.561  0.3716  0.0731  0.3834
  106SAPE   H9R10871   2.715   4.808   3.654  0.4716 -0.3283  0.2576
  106SAPE  C21010872   2.874   4.949   3.570 -0.4425  0.9975 -0.5787
  106SAPE  H10R10873   2.829   5.042   3.612 -0.2009  0.2509  1.4532
  106SAPE  H10S10874   2.915   4.968   3.468  1.3892 -0.2223 -0.1137
  106SAPE  C21110875   2.992   4.907   3.651  0.0619 -0.2587  0.5786
  106SAPE  H11R10876   3.046   4.817   3.618 -1.1311 -1.2952  1.3554
  106SAPE  C21210877   3.036   4.962   3.763  0.5530  0.1727 -0.1852
  106SAPE  H12R10878   3.132   4.929   3.805  0.4767  0.5289  0.2670
  106SAPE  C21310879   2.978   5.073   3.845 -0.0136 -0.1452 -0.6107
  106SAPE  H13R10880   2.927   5.023   3.930  1.6125 -0.8546 -0.0097
  106SAPE  H13S10881   2.907   5.136   3.787 -1.8720  0.1489  1.8285
  106SAPE  C21410882   3.089   5.160   3.898 -0.2490  0.3300  0.2073
  106SAPE  H14R10883   3.102   5.253   3.841 -1.8701  0.4641  0.0287
  106SAPE  C21510884   3.173   5.147   3.999 -0.4485  0.1638 -1.1503
  106SAPE  H15R10885   3.258   5.216   4.006 -0.1270 -0.4008  1.0056
  106SAPE  C21610886   3.174   5.025   4.088 -0.5533  0.2722  0.3853
  106SAPE  H16R10887   3.274   4.979   4.077 -1.4435 -1.9602  1.0519
  106SAPE  H16S10888   3.105   4.945   4.053  0.0013 -1.7391  3.5402
  106SAPE  C21710889   3.151   5.065   4.230 -0.5340 -0.7585 -0.0198
  106SAPE  H17R10890   3.231   5.139   4.253  1.0110 -2.4485  0.3299
  106SAPE  H17S10891   3.191   4.981   4.290  3.4573 -0.3647 -1.7688
  106SAPE  C21810892   3.015   5.108   4.248  0.1687  0.1848  0.3484
  106SAPE  H18R10893   2.937   5.029   4.235 -0.3844  0.5023  1.5574
  106SAPE  H18S10894   2.982   5.191   4.183 -0.1426  0.6034  1.0244
  106SAPE  C21910895   2.997   5.175   4.393 -0.2388  0.4224 -0.0352
  106SAPE  H19R10896   2.890   5.205   4.386 -0.1852  0.3787 -1.1752
  106SAPE  H19S10897   3.070   5.256   4.410 -0.5992  0.5122  1.2053
  106SAPE  C22010898   3.011   5.075   4.513  0.6889 -0.2543  1.0217
  106SAPE  H20R10899   3.095   5.005   4.497 -0.8154 -1.6293 -1.4458
  106SAPE  H20S10900   2.926   5.005   4.498  1.2632 -0.7053 -0.1767
  106SAPE  H20T10901   3.004   5.132   4.609 -0.4482  1.6047 -0.0893
  106SAPE   C3310902   2.751   5.076   2.899  0.1986  0.0631  0.4862
  106SAPE   H3X10903   2.834   5.010   2.867  1.1678  0.1263  2.6798
  106SAPE   H3Y10904   2.662   5.010   2.894 -1.2176  1.6485  2.7166
  106SAPE   C3410905   2.771   5.113   3.048  0.5560 -0.1580 -0.7631
  106SAPE   H4X10906   2.783   5.010   3.087 -3.4990 -0.1406  1.0718
  106SAPE   H4Y10907   2.675   5.163   3.074 -0.3599 -1.0151 -2.3636
  106SAPE   C3510908   2.889   5.206   3.066 -0.5715  0.2039 -0.0623
  106SAPE   H5X10909   2.919   5.254   2.971  0.0150 -0.1031 -0.0347
  106SAPE   H5Y10910   2.973   5.139   3.095  0.7368  1.6125 -0.5075
  106SAPE   C3610911   2.870   5.312   3.179 -0.0066 -0.1005  0.0673
  106SAPE   H6X10912   2.788   5.383   3.153 -0.0372 -0.0858  0.2035
  106SAPE   H6Y10913   2.961   5.376   3.180  0.3169 -0.5613 -0.0052
  106SAPE   C3710914   2.859   5.258   3.324  0.0416  0.3144 -0.0280
  106SAPE   H7X10915   2.954   5.207   3.352 -1.1157 -2.1061 -0.2626
  106SAPE   H7Y10916   2.781   5.179   3.329 -0.2861  0.6643  0.4167
  106SAPE   C3810917   2.822   5.366   3.430  0.0976 -0.8475  0.1186
  106SAPE   H8X10918   2.825   5.321   3.531 -0.0453 -2.3666 -0.5148
  106SAPE   H8Y10919   2.719   5.409   3.431  1.1815  1.9430  1.4292
  106SAPE   C3910920   2.911   5.492   3.425 -0.5670  0.2134  0.0179
  106SAPE   H9X10921   2.874   5.548   3.337  0.5635  2.5312  0.9259
  106SAPE   H9Y10922   3.016   5.470   3.400 -1.1464  0.1378 -2.5750
  106SAPE  C31010923   2.906   5.579   3.557 -0.4906  0.0188  0.3931
  106SAPE  H10X10924   2.796   5.592   3.570 -0.8960 -0.9739 -1.5336
  106SAPE  H10Y10925   2.954   5.678   3.543  0.9305 -0.5471  1.0463
  106SAPE  C31110926   2.986   5.525   3.675  0.1959  0.3227  0.1360
  106SAPE  H11X10927   3.088   5.499   3.640  0.9931 -1.8128  3.5622
  106SAPE  H11Y10928   2.962   5.422   3.707  2.2448 -0.0039  0.7582
  106SAPE  C31210929   2.984   5.606   3.805  0.1787  0.5463  0.2181
  106SAPE  H12X10930   2.878   5.619   3.835 -0.2880 -1.1738 -0.5548
  106SAPE  H12Y10931   3.030   5.705   3.784  1.1964 -0.3077 -1.9199
  106SAPE  C31310932   3.066   5.529   3.910 -0.0670 -0.2317  0.8986
  106SAPE  H13X10933   3.171   5.508   3.883  0.2986  1.4130  0.9325
  106SAPE  H13Y10934   3.016   5.430   3.923 -1.4363  0.2822 -0.1595
  106SAPE  C31410935   3.071   5.599   4.042  0.3346  0.1620 -0.5012
  106SAPE  H14X10936   2.973   5.624   4.087 -0.5017  0.2664 -2.2960
  106SAPE  H14Y10937   3.125   5.694   4.022 -0.7651  1.1357  0.9638
  106SAPE  C31510938   3.153   5.521   4.145 -0.6992 -0.3435  1.1827
  106SAPE  H15X10939   3.126   5.414   4.133 -1.6394 -0.2570  2.3179
  106SAPE  H15Y10940   3.122   5.558   4.245 -1.0972 -0.5953  1.1552
  106SAPE  C31610941   3.305   5.542   4.125 -0.5601  0.0621 -0.2111
  106SAPE  H16X10942   3.318   5.650   4.147  2.4233 -0.5318  1.4989
  106SAPE  H16Y10943   3.335   5.515   4.022 -1.5496 -0.2954 -0.4173
  106SAPE  C31710944   3.393   5.463   4.217 -0.3946 -0.1432 -0.1804
  106SAPE  H17X10945   3.370   5.357   4.194 -0.2627 -0.0087 -0.9950
  106SAPE  H17Y10946   3.373   5.486   4.324 -2.8764  0.8057 -0.7846
  106SAPE  C31810947   3.538   5.487   4.190 -0.7315  0.4522 -0.5673
  106SAPE  H18X10948   3.567   5.457   4.087 -0.5135 -2.2806  0.2223
  106SAPE  H18Y10949   3.595   5.422   4.258 -0.5477 -0.5236 -1.6231
  106SAPE  H18Z10950   3.557   5.596   4.196  0.7664  0.2150 -0.7447
  107SAPE     N10951   6.772   3.275   2.218 -0.6326 -0.0120 -0.0303
  107SAPE   HN110952   6.724   3.358   2.177 -0.4476  0.2066  0.1941
  107SAPE   HN210953   6.826   3.305   2.302 -0.0271  1.9736 -1.0711
  107SAPE   HN310954   6.845   3.249   2.148 -1.6186  0.1078 -1.1260
  107SAPE   C1210955   6.675   3.158   2.250  0.4168 -0.1563 -0.1425
  107SAPE  H12A10956   6.748   3.082   2.285  0.0551  0.2673  1.6313
  107SAPE  H12B10957   6.624   3.119   2.160  1.3525 -1.9297  0.0479
  107SAPE   C1110958   6.568   3.191   2.359  0.0433  0.7225 -0.3399
  107SAPE  H11A10959   6.631   3.229   2.442  1.6111 -1.9880 -0.1660
  107SAPE  H11B10960   6.531   3.091   2.390  0.8021  0.8105  0.9082
  107SAPE     P10961   6.330   3.289   2.391  0.0826  0.1093 -0.3991
  107SAPE   O1310962   6.274   3.420   2.344  0.4875  0.1977  0.6077
  107SAPE   O1410963   6.243   3.171   2.372 -0.0485 -0.2420  0.7315
  107SAPE   O1210964   6.469   3.280   2.319  0.0505  0.0049  0.4688
  107SAPE   O1110965   6.365   3.292   2.542 -0.4996  0.0185  0.4526
  107SAPE    C110966   6.387   3.414   2.612 -0.0091  0.1346  0.2977
  107SAPE    HA10967   6.485   3.451   2.577 -0.4477  0.7241 -0.3459
  107SAPE    HB10968   6.309   3.491   2.590  0.9776  0.5989 -1.8542
  107SAPE    C210969   6.382   3.392   2.766 -0.4850  0.2199 -0.0652
  107SAPE    HS10970   6.401   3.491   2.812  0.0033  1.0536 -1.9726
  107SAPE   O2110971   6.484   3.296   2.797 -0.3187 -0.3305 -0.3257
  107SAPE   C2110972   6.606   3.335   2.796 -0.0421 -0.4205  0.3694
  107SAPE   O2210973   6.652   3.445   2.774 -0.3188 -0.3103  0.0025
  107SAPE   C2210974   6.686   3.218   2.851 -0.7578  0.3827 -0.4493
  107SAPE   H2R10975   6.697   3.234   2.961  1.1767  2.0033 -0.8438
  107SAPE   H2S10976   6.631   3.125   2.826 -2.2945  0.8939  0.8136
  107SAPE    C310977   6.244   3.337   2.814 -0.1562  0.4422  0.3906
  107SAPE    HX10978   6.212   3.236   2.780  0.2584 -0.9095  3.6492
  107SAPE    HY10979   6.162   3.403   2.778 -2.4389 -2.4211 -0.0248
  107SAPE   O3110980   6.239   3.337   2.961 -0.2964  0.4172 -0.4190
  107SAPE   C3110981   6.215   3.458   3.015 -0.5018  0.5462 -0.2345
  107SAPE   O3210982   6.212   3.558   2.947  0.5908  0.1275  0.3946
  107SAPE   C3210983   6.217   3.448   3.166  0.0833 -0.8661  0.2073
  107SAPE   H2X10984   6.307   3.392   3.199  1.5386  0.2407 -1.6419
  107SAPE   H2Y10985   6.124   3.394   3.193 -1.1826  0.8416 -0.5439
  107SAPE   C2310986   6.825   3.220   2.802 -0.4191 -0.7293  0.7778
  107SAPE   H3R10987   6.874   3.319   2.814 -0.4264 -0.4604 -1.1689
  107SAPE   H3S10988   6.833   3.204   2.693  0.3074  0.8830  0.5644
  107SAPE   C2410989   6.918   3.121   2.874 -0.5229  0.6216  0.6310
  107SAPE   H4R10990   6.906   3.130   2.984  0.1582  0.5826  0.7167
  107SAPE   H4S10991   7.021   3.162   2.865 -0.1352 -0.5090 -0.2894
  107SAPE   C2510992   6.906   2.971   2.844  0.1195 -0.2748  0.1817
  107SAPE   H5R10993   6.905   2.949   2.736 -1.3116 -0.1032  0.1336
  107SAPE   C2610994   6.872   2.871   2.938  0.2887  0.0043 -0.6969
  107SAPE   H6R10995   6.867   2.769   2.896  0.4174 -0.4885  0.4505
  107SAPE   C2710996   6.853   2.888   3.088  1.0108  0.4134 -0.6225
  107SAPE   H7R10997   6.861   2.996   3.115 -1.8350  0.6320 -0.2775
  107SAPE   H7S10998   6.937   2.841   3.142  0.4125  1.7303  1.5639
  107SAPE   C2810999   6.721   2.830   3.135 -0.6376  0.0363 -1.6134
  107SAPE   H8R11000   6.650   2.779   3.068 -1.4869  0.7922 -1.3223
  107SAPE   C2911001   6.676   2.826   3.263 -0.5737 -0.7903 -0.3059
  107SAPE   H9R11002   6.574   2.794   3.287 -1.5283  2.2420  0.1604
  107SAPE  C21011003   6.758   2.867   3.384  0.1611 -0.2098  0.2192
  107SAPE  H10R11004   6.856   2.912   3.359  0.9740 -2.3919 -0.7661
  107SAPE  H10S11005   6.796   2.774   3.432 -0.5510 -0.3704  0.5010
  107SAPE  C21111006   6.686   2.950   3.488  0.1878  0.1094 -0.0157
  107SAPE  H11R11007   6.605   2.890   3.533  0.2750 -1.0365 -1.3304
  107SAPE  C21211008   6.682   3.086   3.497  0.2106  0.8199 -0.1992
  107SAPE  H12R11009   6.619   3.138   3.571  2.2935  0.2205  2.1337
  107SAPE  C21311010   6.752   3.180   3.407 -0.2242 -0.3041  0.5679
  107SAPE  H13R11011   6.859   3.166   3.382 -0.5798  0.4491 -1.5994
  107SAPE  H13S11012   6.758   3.285   3.445 -0.2831  0.3364 -1.1022
  107SAPE  C21411013   6.668   3.190   3.277 -0.0487  0.6522 -0.0719
  107SAPE  H14R11014   6.679   3.094   3.226  1.8686 -1.4639  3.8652
  107SAPE  C21511015   6.579   3.287   3.239 -0.1094  0.1042  0.4966
  107SAPE  H15R11016   6.522   3.272   3.146  0.1658  1.2698  0.1171
  107SAPE  C21611017   6.553   3.426   3.295  0.1288  0.2541  0.3678
  107SAPE  H16R11018   6.608   3.437   3.391  1.7061 -0.9927 -0.3439
  107SAPE  H16S11019   6.447   3.434   3.326  0.3994 -3.7482  3.0938
  107SAPE  C21711020   6.596   3.539   3.206 -0.3841  0.3950 -0.1633
  107SAPE  H17R11021   6.568   3.639   3.245  0.0541 -0.1125  1.5538
  107SAPE  H17S11022   6.538   3.531   3.112 -0.0339 -2.3127 -0.2286
  107SAPE  C21811023   6.744   3.531   3.168  0.0155  0.4652 -0.0818
  107SAPE  H18R11024   6.761   3.603   3.085  3.0191 -0.8809 -0.7914
  107SAPE  H18S11025   6.776   3.436   3.120  2.0228  1.0270  0.0305
  107SAPE  C21911026   6.845   3.561   3.282  0.1698  0.0369  0.1811
  107SAPE  H19R11027   6.946   3.539   3.240 -0.3625 -0.9443 -0.6097
  107SAPE  H19S11028   6.831   3.484   3.361  1.5334 -0.5151 -0.0755
  107SAPE  C22011029   6.826   3.697   3.357  0.2154  0.0442 -0.3790
  107SAPE  H20R11030   6.743   3.684   3.428 -0.1051 -0.3977 -0.8251
  107SAPE  H20S11031   6.821   3.782   3.286  1.9483  0.1431 -0.4443
  107SAPE  H20T11032   6.924   3.713   3.407  1.7425 -0.0982 -3.0812
  107SAPE   C3311033   6.220   3.600   3.223  0.3318  0.8633  0.5125
  107SAPE   H3X11034   6.147   3.658   3.164 -0.6240 -0.6596  0.1377
  107SAPE   H3Y11035   6.320   3.637   3.190 -0.5322  1.6518 -1.3417
  107SAPE   C3411036   6.198   3.595   3.380 -0.0994  0.4959 -0.1843
  107SAPE   H4X11037   6.253   3.506   3.417 -0.4841  0.0239 -0.7259
  107SAPE   H4Y11038   6.088   3.598   3.392  0.0617  0.6802  1.3938
  107SAPE   C3511039   6.233   3.728   3.440 -0.2168  0.3408 -0.1735
  107SAPE   H5X11040   6.167   3.799   3.385 -2.1594 -1.3161 -0.1033
  107SAPE   H5Y11041   6.339   3.760   3.439 -0.5638  1.5248  0.1220
  107SAPE   C3611042   6.183   3.732   3.587 -0.3298 -0.3780  0.3460
  107SAPE   H6X11043   6.094   3.669   3.610  1.0423 -1.9294  1.7457
  107SAPE   H6Y11044   6.161   3.837   3.615  0.3880  0.1727 -1.0818
  107SAPE   C3711045   6.300   3.690   3.679 -0.4736 -0.9991 -0.0371
  107SAPE   H7X11046   6.365   3.778   3.701 -3.7357  1.6903 -0.1775
  107SAPE   H7Y11047   6.352   3.604   3.633  0.2723  0.3825 -1.9617
  107SAPE   C3811048   6.242   3.642   3.811  0.4752 -0.5766 -0.4605
  107SAPE   H8X11049   6.326   3.594   3.867  0.2059 -1.0225 -0.4328
  107SAPE   H8Y11050   6.172   3.558   3.793  1.5347 -1.0949 -2.3827
  107SAPE   C3911051   6.178   3.755   3.893  0.2425 -0.1090 -0.0141
  107SAPE   H9X11052   6.080   3.778   3.847  1.6779  0.9465 -2.7798
  107SAPE   H9Y11053   6.249   3.840   3.902  2.4414 -1.8630  0.2265
  107SAPE  C31011054   6.143   3.707   4.038 -0.2746 -0.2902  0.5530
  107SAPE  H10X11055   6.237   3.680   4.089 -0.4712 -1.7209  0.1782
  107SAPE  H10Y11056   6.097   3.606   4.032  0.4035 -0.5154 -3.9858
  107SAPE  C31111057   6.048   3.809   4.103  0.9892 -0.0990  0.0879
  107SAPE  H11X11058   5.960   3.792   4.037  0.5546  0.9950  0.3607
  107SAPE  H11Y11059   6.089   3.911   4.091  1.8701 -0.5566 -0.9033
  107SAPE  C31211060   6.019   3.779   4.245 -0.1214 -0.1440 -0.4693
  107SAPE  H12X11061   6.011   3.876   4.300 -1.0364 -0.6882  0.3922
  107SAPE  H12Y11062   6.110   3.728   4.285  0.5985 -0.4405 -2.4041
  107SAPE  C31311063   5.900   3.687   4.272  0.4134 -0.4787 -0.0808
  107SAPE  H13X11064   5.907   3.586   4.225  2.1899 -0.4493  0.0516
  107SAPE  H13Y11065   5.815   3.741   4.225  1.2631  1.9025  0.9584
  107SAPE  C31411066   5.874   3.670   4.424 -0.6724 -0.7247 -0.1589
  107SAPE  H14X11067   5.775   3.621   4.440  0.5118 -3.3074 -0.1960
  107SAPE  H14Y11068   5.867   3.772   4.467 -1.1546 -1.3501  1.3265
  107SAPE  C31511069   5.993   3.613   4.499  0.9510 -0.1725 -0.3481
  107SAPE  H15X11070   6.067   3.694   4.516  0.1038  0.6056 -0.2649
  107SAPE  H15Y11071   6.040   3.524   4.452  3.5240  0.2722  1.1695
  107SAPE  C31611072   5.972   3.558   4.644 -0.0708 -0.2180  0.0738
  107SAPE  H16X11073   6.071   3.543   4.693 -0.9860 -1.6737  1.5606
  107SAPE  H16Y11074   5.923   3.460   4.624 -1.2944  0.4922 -0.4936
  107SAPE  C31711075   5.889   3.637   4.742 -0.1556  0.8552 -0.5218
  107SAPE  H17X11076   5.784   3.641   4.708 -1.2404 -2.0597  1.9955
  107SAPE  H17Y11077   5.916   3.745   4.748  1.7112  0.3767  0.5481
  107SAPE  C31811078   5.870   3.587   4.883 -0.6519  0.4506 -0.0108
  107SAPE  H18X11079   5.965   3.562   4.934 -0.5439 -3.8634 -1.8781
  107SAPE  H18Y11080   5.806   3.496   4.882  0.8608 -0.6707 -2.1116
  107SAPE  H18Z11081   5.830   3.668   4.947  0.0619  2.7147 -2.2580
  108SAPE     N11082   4.183   3.845   2.711  0.2654 -0.2504 -0.6382
  108SAPE   HN111083   4.139   3.756   2.682  1.5587 -1.5835  1.2137
  108SAPE   HN211084   4.149   3.879   2.804  0.5122 -3.7029  0.8896
  108SAPE   HN311085   4.162   3.920   2.642 -1.8347 -1.0206 -0.9067
  108SAPE   C1211086   4.333   3.851   2.721 -0.3462  0.0788  0.4192
  108SAPE  H12A11087   4.350   3.793   2.814 -1.4444  0.4745  0.8797
  108SAPE  H12B11088   4.371   3.955   2.731  0.4164  0.1695 -2.4101
  108SAPE   C1111089   4.406   3.793   2.591  0.1510 -0.1062  0.1658
  108SAPE  H11A11090   4.516   3.791   2.606  0.3740  3.3270 -0.1774
  108SAPE  H11B11091   4.392   3.874   2.516  0.7595 -0.9170 -0.8476
  108SAPE     P11092   4.384   3.525   2.589 -0.3969  0.2074 -0.7166
  108SAPE   O1311093   4.256   3.451   2.606  0.3784 -0.4612  0.0899
  108SAPE   O1411094   4.493   3.461   2.514  0.2637 -0.1571 -0.1475
  108SAPE   O1211095   4.354   3.672   2.533  0.2020  0.1103 -0.3360
  108SAPE   O1111096   4.437   3.554   2.742 -0.0932  0.5180  0.5304
  108SAPE    C111097   4.577   3.537   2.776  0.5818 -0.1168  0.1328
  108SAPE    HA11098   4.634   3.562   2.684 -0.7568  0.0581 -0.6685
  108SAPE    HB11099   4.607   3.602   2.861 -0.3467 -2.0142  2.0087
  108SAPE    C211100   4.616   3.390   2.800  0.1540 -0.0338  0.2857
  108SAPE    HS11101   4.590   3.337   2.706 -1.2437 -0.9838  1.1691
  108SAPE   O2111102   4.533   3.344   2.913 -0.6698  0.1626  0.3661
  108SAPE   C2111103   4.537   3.217   2.936 -0.0394  0.5633 -0.0404
  108SAPE   O2211104   4.598   3.128   2.880  0.2642 -0.2677 -0.5252
  108SAPE   C2211105   4.438   3.202   3.051 -0.1379  0.6769  0.1057
  108SAPE   H2R11106   4.499   3.171   3.139  0.8313  1.8788 -0.1120
  108SAPE   H2S11107   4.399   3.303   3.074  0.9657  1.1767 -0.1521
  108SAPE    C311108   4.764   3.375   2.826 -0.6401  0.0746 -0.0907
  108SAPE    HX11109   4.815   3.401   2.730  1.9403  1.4934  1.5437
  108SAPE    HY11110   4.802   3.273   2.846  1.2808  1.0395  1.5255
  108SAPE   O3111111   4.814   3.471   2.923 -0.3511 -0.4732 -0.0976
  108SAPE   C3111112   4.817   3.427   3.042  0.2606  0.2377 -0.7771
  108SAPE   O3211113   4.786   3.316   3.083 -0.1527  0.6640  0.1383
  108SAPE   C3211114   4.871   3.532   3.136  0.2172 -0.0349 -0.0512
  108SAPE   H2X11115   4.803   3.620   3.141  1.6533  1.1530 -0.7203
  108SAPE   H2Y11116   4.964   3.574   3.093 -0.8243  1.0397 -1.3110
  108SAPE   C2311117   4.333   3.091   3.013  0.1418  0.8129 -0.0969
  108SAPE   H3R11118   4.384   2.995   2.990  2.4197  2.1667 -1.1031
  108SAPE   H3S11119   4.290   3.118   2.915 -0.1061 -2.0840 -0.8677
  108SAPE   C2411120   4.230   3.081   3.122  0.5044 -0.1867 -0.1788
  108SAPE   H4R11121   4.132   3.041   3.087  0.0551  0.0938  0.7257
  108SAPE   H4S11122   4.205   3.185   3.151 -0.5367 -0.7596  1.0839
  108SAPE   C2511123   4.279   3.007   3.239  0.2241 -0.0161  0.4449
  108SAPE   H5R11124   4.346   3.057   3.310  2.1914 -0.5407 -0.9785
  108SAPE   C2611125   4.267   2.877   3.263  0.4796  0.3195 -1.1087
  108SAPE   H6R11126   4.309   2.835   3.356  1.8039  1.8426 -0.9701
  108SAPE   C2711127   4.181   2.773   3.193  0.2355  0.2351  0.2411
  108SAPE   H7R11128   4.178   2.782   3.083  0.1162 -0.8813  0.1459
  108SAPE   H7S11129   4.075   2.781   3.225 -0.4760 -1.7008 -1.4451
  108SAPE   C2811130   4.217   2.625   3.215 -0.1038  0.2499  0.0759
  108SAPE   H8R11131   4.233   2.568   3.122  1.5188 -1.6426  1.4402
  108SAPE   C2911132   4.212   2.553   3.323  1.2635  0.7710 -0.2146
  108SAPE   H9R11133   4.245   2.448   3.326  1.0866  0.7246  2.1235
  108SAPE  C21011134   4.179   2.597   3.464  0.2074  0.0553  0.1494
  108SAPE  H10R11135   4.118   2.523   3.521 -0.5224  1.3878  1.1389
  108SAPE  H10S11136   4.128   2.694   3.454 -0.0057 -0.1474 -0.8895
  108SAPE  C21111137   4.294   2.598   3.563  0.0156  0.7312 -0.5606
  108SAPE  H11R11138   4.391   2.601   3.511 -0.6752  1.7036 -1.8517
  108SAPE  C21211139   4.287   2.611   3.697  0.2644 -0.1464  1.1167
  108SAPE  H12R11140   4.379   2.609   3.757 -0.1725 -2.9917  1.8033
  108SAPE  C21311141   4.162   2.605   3.773  1.0552 -0.0879  0.3828
  108SAPE  H13R11142   4.082   2.549   3.721  0.7033 -1.5411  2.3659
  108SAPE  H13S11143   4.134   2.712   3.772  2.8545  0.4651  1.7925
  108SAPE  C21411144   4.198   2.547   3.905 -0.3405 -0.4172  0.2331
  108SAPE  H14R11145   4.195   2.437   3.908 -2.4983 -0.5441 -2.6840
  108SAPE  C21511146   4.202   2.608   4.026  0.1701 -0.8743 -0.8425
  108SAPE  H15R11147   4.217   2.544   4.114 -0.1117  1.0297  0.6481
  108SAPE  C21611148   4.191   2.760   4.043  0.2614  0.3061 -0.2545
  108SAPE  H16R11149   4.180   2.801   3.940 -1.4086 -1.9521 -1.0423
  108SAPE  H16S11150   4.288   2.796   4.083  0.5554  0.8115 -1.4003
  108SAPE  C21711151   4.082   2.821   4.138  0.3202 -0.0853  0.2131
  108SAPE  H17R11152   4.088   2.931   4.127 -1.5100 -0.0868 -1.3226
  108SAPE  H17S11153   4.096   2.795   4.245 -2.1311 -0.8731  0.4036
  108SAPE  C21811154   3.942   2.786   4.098  0.6252  0.7101  0.0424
  108SAPE  H18R11155   3.916   2.679   4.115  0.0203  0.8590  0.1008
  108SAPE  H18S11156   3.933   2.815   3.991 -0.6352  1.2188  0.2688
  108SAPE  C21911157   3.834   2.873   4.167 -0.1685 -0.8755 -0.1581
  108SAPE  H19R11158   3.864   2.976   4.136 -1.0009  0.3351  2.6588
  108SAPE  H19S11159   3.830   2.870   4.278  2.2664 -1.9459 -0.0223
  108SAPE  C22011160   3.688   2.863   4.099 -0.4625  0.9131 -0.2631
  108SAPE  H20R11161   3.711   2.889   3.994  0.3285 -1.5685 -0.7613
  108SAPE  H20S11162   3.610   2.919   4.155  0.9163  2.9377 -0.2262
  108SAPE  H20T11163   3.653   2.758   4.101 -1.0969  1.1129 -0.3873
  108SAPE   C3311164   4.910   3.465   3.267  0.2502  0.2602 -0.0776
  108SAPE   H3X11165   4.989   3.389   3.248  1.2549  1.3327 -0.2838
  108SAPE   H3Y11166   4.825   3.419   3.322  1.6366 -2.7075 -0.2464
  108SAPE   C3411167   4.971   3.576   3.353  0.3103  0.1210 -0.0374
  108SAPE   H4X11168   4.890   3.649   3.376 -0.7375 -0.5315 -1.5081
  108SAPE   H4Y11169   5.053   3.628   3.300  2.7165 -2.8066  0.5596
  108SAPE   C3511170   5.026   3.520   3.478  0.3638 -0.3025 -0.2043
  108SAPE   H5X11171   5.025   3.409   3.476 -1.5634 -0.3614  1.2175
  108SAPE   H5Y11172   5.134   3.540   3.494  0.2219 -0.4414  1.0488
  108SAPE   C3611173   4.962   3.573   3.606  0.1606  0.4009  0.7163
  108SAPE   H6X11174   4.853   3.552   3.614  0.0791  0.1990 -0.7334
  108SAPE   H6Y11175   4.975   3.682   3.619  0.2670  0.4647  0.0797
  108SAPE   C3711176   5.030   3.507   3.726 -0.2123  0.1482 -0.3081
  108SAPE   H7X11177   5.135   3.541   3.737  0.0695 -1.1610  1.5464
  108SAPE   H7Y11178   5.040   3.396   3.720  1.0772  0.1817  0.8291
  108SAPE   C3811179   4.960   3.527   3.866 -0.2126  0.1774  0.4876
  108SAPE   H8X11180   4.999   3.449   3.936 -1.2242 -1.1123 -0.3405
  108SAPE   H8Y11181   4.851   3.514   3.856 -0.4247 -0.0093  2.6002
  108SAPE   C3911182   4.992   3.660   3.929  0.0920  0.1074  0.1254
  108SAPE   H9X11183   4.976   3.743   3.856  0.2798 -0.9180 -1.1076
  108SAPE   H9Y11184   5.103   3.662   3.939  0.2399  0.6181 -1.3628
  108SAPE  C31011185   4.944   3.687   4.072  0.6534 -0.6201  0.1251
  108SAPE  H10X11186   4.988   3.776   4.122 -0.1470  0.1835 -0.5712
  108SAPE  H10Y11187   4.978   3.595   4.125  1.4634  0.0694  0.8356
  108SAPE  C31111188   4.788   3.711   4.087 -0.5086 -0.5281  0.4492
  108SAPE  H11X11189   4.736   3.654   4.007  1.6852 -1.5196 -0.3404
  108SAPE  H11Y11190   4.768   3.818   4.064 -2.2836 -0.7805  0.7110
  108SAPE  C31211191   4.727   3.676   4.226 -0.1140 -0.3124  0.2799
  108SAPE  H12X11192   4.731   3.565   4.228  0.4491 -0.2896  2.2370
  108SAPE  H12Y11193   4.621   3.709   4.218  0.1130  0.1120 -1.6225
  108SAPE  C31311194   4.797   3.730   4.347 -0.3136 -0.8254 -0.2227
  108SAPE  H13X11195   4.903   3.701   4.360  0.4962  2.3387  1.2951
  108SAPE  H13Y11196   4.733   3.686   4.426 -0.5282  1.1054  0.7431
  108SAPE  C31411197   4.779   3.872   4.369  0.0890 -0.6078 -0.3384
  108SAPE  H14X11198   4.670   3.895   4.366  0.5175  1.7576 -0.1835
  108SAPE  H14Y11199   4.840   3.937   4.302  2.3835 -1.5187  0.7467
  108SAPE  C31511200   4.833   3.909   4.510  0.1796 -0.4914  0.2471
  108SAPE  H15X11201   4.807   4.015   4.528 -3.5144 -1.1759 -0.2443
  108SAPE  H15Y11202   4.941   3.887   4.491  0.7535  2.0232  0.2322
  108SAPE  C31611203   4.784   3.827   4.640 -0.1145 -0.1069 -0.2204
  108SAPE  H16X11204   4.833   3.727   4.632  0.7930  0.3809 -1.0513
  108SAPE  H16Y11205   4.674   3.830   4.629 -0.1057  0.2710 -0.2225
  108SAPE  C31711206   4.820   3.895   4.770  0.2913 -0.0921 -0.0791
  108SAPE  H17X11207   4.927   3.924   4.763  0.7963 -2.0371 -1.3352
  108SAPE  H17Y11208   4.812   3.827   4.857 -2.3780  1.5074  1.0425
  108SAPE  C31811209   4.731   4.013   4.797  0.1336 -0.6787 -0.4579
  108SAPE  H18X11210   4.710   4.010   4.906 -1.1879 -2.1983 -0.7295
  108SAPE  H18Y11211   4.642   4.015   4.731 -0.1288  2.2292 -0.1329
  108SAPE  H18Z11212   4.795   4.099   4.769  1.2399 -1.2097  0.3382
  109SAPE     N11213   2.763   2.196   2.594 -0.0889 -0.6191  0.3458
  109SAPE   HN111214   2.804   2.151   2.678  1.7260  0.3948  0.0599
  109SAPE   HN211215   2.823   2.169   2.514  0.5376 -1.6674  1.1490
  109SAPE   HN311216   2.768   2.299   2.608  0.7239 -0.6770  0.5191
  109SAPE   C1211217   2.614   2.166   2.592  0.1420  0.1371 -0.1977
  109SAPE  H12A11218   2.602   2.056   2.585 -0.6573  0.2970 -1.8664
  109SAPE  H12B11219   2.578   2.206   2.495  1.1200 -3.9645 -2.4537
  109SAPE   C1111220   2.534   2.218   2.719 -0.4150 -0.2763  0.2643
  109SAPE  H11A11221   2.586   2.181   2.810  0.5716  0.4510  0.0056
  109SAPE  H11B11222   2.431   2.176   2.716  0.3545 -2.1987 -0.4155
  109SAPE     P11223   2.441   2.441   2.820  0.0926 -0.3014 -0.0074
  109SAPE   O1311224   2.513   2.566   2.852 -0.7520  0.2105 -0.1994
  109SAPE   O1411225   2.302   2.457   2.781  0.3348  0.4870 -0.1628
  109SAPE   O1211226   2.518   2.361   2.706  0.1522 -0.4281  0.4774
  109SAPE   O1111227   2.449   2.344   2.948  0.8781 -0.2433  0.7370
  109SAPE    C111228   2.352   2.246   2.982  0.2241 -0.1212  0.0940
  109SAPE    HA11229   2.321   2.191   2.891 -0.7653 -3.8758  2.5060
  109SAPE    HB11230   2.405   2.170   3.043  1.1831  0.9438  0.6358
  109SAPE    C211231   2.225   2.292   3.060  0.4971  0.4785 -0.0307
  109SAPE    HS11232   2.151   2.344   2.996  0.6508 -0.8285 -1.3062
  109SAPE   O2111233   2.278   2.372   3.169 -0.2630 -0.4460  0.4715
  109SAPE   C2111234   2.269   2.506   3.165 -0.0148  0.7980 -0.4987
  109SAPE   O2211235   2.220   2.564   3.073 -0.3431 -0.0766 -0.0255
  109SAPE   C2211236   2.319   2.557   3.305  0.2607 -0.4615  0.4298
  109SAPE   H2R11237   2.246   2.554   3.389  0.8520 -0.4984  0.9591
  109SAPE   H2S11238   2.408   2.493   3.325  1.5606  1.6197  1.6800
  109SAPE    C311239   2.154   2.165   3.111  0.4080  0.0289 -0.5054
  109SAPE    HX11240   2.123   2.092   3.033 -0.3723 -0.2343  0.0381
  109SAPE    HY11241   2.057   2.201   3.152  0.6910  0.0748  0.1490
  109SAPE   O3111242   2.233   2.097   3.212  0.1409 -0.6941  0.3019
  109SAPE   C3111243   2.203   2.121   3.345  0.9075 -0.2860 -0.8266
  109SAPE   O3211244   2.125   2.204   3.383 -0.3352  0.3013 -0.1973
  109SAPE   C3211245   2.271   2.027   3.432 -0.0686  0.3314 -0.2802
  109SAPE   H2X11246   2.260   2.044   3.541  4.0053  2.3684 -0.0297
  109SAPE   H2Y11247   2.378   2.054   3.423  0.4541 -1.5251 -0.0781
  109SAPE   C2311248   2.370   2.698   3.281  0.2915 -0.4793 -0.0809
  109SAPE   H3R11249   2.284   2.768   3.273  1.4621  0.7699 -3.0435
  109SAPE   H3S11250   2.423   2.711   3.185 -1.3927  0.1180 -0.9694
  109SAPE   C2411251   2.441   2.768   3.396  0.3398 -0.1125 -0.4616
  109SAPE   H4R11252   2.386   2.738   3.488 -2.2487  1.4037 -1.3758
  109SAPE   H4S11253   2.432   2.879   3.388  0.0424 -0.0354  0.7893
  109SAPE   C2511254   2.582   2.728   3.416 -0.5793 -0.0230 -0.3253
  109SAPE   H5R11255   2.651   2.767   3.341 -1.1353 -1.2822 -1.5307
  109SAPE   C2611256   2.635   2.655   3.511  0.5322  0.4308 -0.0240
  109SAPE   H6R11257   2.744   2.645   3.498  0.4420 -0.4215 -0.2031
  109SAPE   C2711258   2.565   2.583   3.618 -0.6593 -0.1154 -0.5983
  109SAPE   H7R11259   2.530   2.485   3.579 -1.8944 -0.2557  0.7789
  109SAPE   H7S11260   2.472   2.639   3.640 -0.2136  0.8961 -1.2289
  109SAPE   C2811261   2.641   2.566   3.752  0.0221 -0.3746 -0.1104
  109SAPE   H8R11262   2.751   2.563   3.743  0.0395 -1.9361  0.3469
  109SAPE   C2911263   2.599   2.564   3.881 -0.3446 -0.3943  0.1347
  109SAPE   H9R11264   2.671   2.548   3.963 -0.3539  1.4056  0.5364
  109SAPE  C21011265   2.459   2.588   3.922 -0.3208  0.3053  0.1874
  109SAPE  H10R11266   2.417   2.486   3.912  0.6770 -0.0120 -1.0989
  109SAPE  H10S11267   2.403   2.640   3.842  0.7355 -1.3258 -1.7262
  109SAPE  C21111268   2.447   2.662   4.052 -0.2461 -0.7181 -0.5985
  109SAPE  H11R11269   2.522   2.742   4.062  0.2739 -1.3692  0.9742
  109SAPE  C21211270   2.359   2.642   4.154 -0.3190  0.0150  0.0791
  109SAPE  H12R11271   2.358   2.713   4.239 -0.3910 -0.5832  0.5834
  109SAPE  C21311272   2.247   2.545   4.164 -0.8026 -0.4631  0.6654
  109SAPE  H13R11273   2.228   2.531   4.273  1.2520  2.5468  1.5617
  109SAPE  H13S11274   2.279   2.448   4.121  0.7754 -0.7214  2.2840
  109SAPE  C21411275   2.118   2.591   4.097  0.0554 -0.0210  0.0601
  109SAPE  H14R11276   2.121   2.659   4.011 -3.5109 -0.3258 -0.4544
  109SAPE  C21511277   1.997   2.582   4.152 -0.4388 -0.7573 -0.4980
  109SAPE  H15R11278   1.913   2.627   4.098  0.2880 -0.3085 -1.2694
  109SAPE  C21611279   1.958   2.517   4.283  0.5083 -0.9102 -0.6820
  109SAPE  H16R11280   2.054   2.495   4.335  0.6736  1.9093  0.4052
  109SAPE  H16S11281   1.902   2.423   4.262 -3.1122  0.5825  1.3127
  109SAPE  C21711282   1.862   2.605   4.371 -0.2261 -0.4912 -0.6820
  109SAPE  H17R11283   1.818   2.539   4.450 -3.2223  0.4785 -1.4144
  109SAPE  H17S11284   1.776   2.639   4.310 -0.4190  1.4658  0.6114
  109SAPE  C21811285   1.924   2.728   4.425  0.0603  0.1302 -0.1920
  109SAPE  H18R11286   1.949   2.795   4.340 -0.5530 -0.2574 -0.6825
  109SAPE  H18S11287   2.018   2.691   4.473  0.7055  0.9398 -0.8099
  109SAPE  C21911288   1.844   2.795   4.544  0.2078  0.0625  0.6395
  109SAPE  H19R11289   1.917   2.860   4.597  0.5138  0.6278 -0.4420
  109SAPE  H19S11290   1.811   2.715   4.613 -0.5565 -1.6837 -1.6405
  109SAPE  C22011291   1.725   2.870   4.498 -0.0642 -0.5016 -0.3209
  109SAPE  H20R11292   1.738   2.928   4.404  0.0186  0.6556  0.3856
  109SAPE  H20S11293   1.696   2.937   4.582 -1.2216  1.1591 -1.9707
  109SAPE  H20T11294   1.638   2.806   4.473  0.1167 -0.9540  0.1965
  109SAPE   C3311295   2.241   1.880   3.410  0.2849  0.4546 -0.6178
  109SAPE   H3X11296   2.323   1.814   3.444 -0.6673  0.3054  1.5517
  109SAPE   H3Y11297   2.229   1.858   3.302  1.7158  0.4931 -0.7926
  109SAPE   C3411298   2.110   1.834   3.490  0.3536 -0.1250 -0.3141
  109SAPE   H4X11299   2.009   1.848   3.447 -0.4598 -0.2758  1.4319
  109SAPE   H4Y11300   2.123   1.897   3.581  1.3460 -1.0157  0.1776
  109SAPE   C3511301   2.118   1.682   3.526 -0.2139 -0.3091  0.1290
  109SAPE   H5X11302   2.219   1.667   3.568  1.6950  0.7160 -3.6005
  109SAPE   H5Y11303   2.115   1.618   3.435  0.3172  0.0331 -0.1365
  109SAPE   C3611304   2.011   1.652   3.632  0.1230  0.4332  0.2518
  109SAPE   H6X11305   1.906   1.664   3.597  0.1585 -1.8751 -0.7738
  109SAPE   H6Y11306   2.014   1.726   3.715 -0.3340  0.6577  0.0779
  109SAPE   C3711307   2.020   1.508   3.677  0.3306 -0.1328  0.3501
  109SAPE   H7X11308   2.121   1.485   3.716  2.1086  1.8368 -2.7099
  109SAPE   H7Y11309   1.999   1.441   3.590 -1.5276  2.2093 -1.1560
  109SAPE   C3811310   1.922   1.473   3.785 -0.3236 -0.3643  0.3068
  109SAPE   H8X11311   1.892   1.366   3.775  1.3857 -0.7115 -2.1475
  109SAPE   H8Y11312   1.829   1.534   3.779 -0.0340  0.2346  1.6658
  109SAPE   C3911313   1.978   1.477   3.927  0.2950 -0.2211  0.2896
  109SAPE   H9X11314   2.025   1.575   3.950  0.8569 -0.7555  1.5519
  109SAPE   H9Y11315   2.064   1.407   3.931  0.2739 -0.2230  2.8792
  109SAPE  C31011316   1.865   1.445   4.027  0.5706 -0.1780  0.2995
  109SAPE  H10X11317   1.801   1.360   3.994 -2.3727  1.1620  2.2645
  109SAPE  H10Y11318   1.803   1.534   4.049  0.5005 -0.6946  2.3737
  109SAPE  C31111319   1.918   1.405   4.165  0.5780 -0.6935  0.0934
  109SAPE  H11X11320   2.013   1.353   4.141 -0.2077 -1.5520 -1.2407
  109SAPE  H11Y11321   1.857   1.330   4.220 -0.8592  0.7039  0.4877
  109SAPE  C31211322   1.944   1.525   4.260  0.8519  0.0917 -0.3385
  109SAPE  H12X11323   1.844   1.565   4.288 -1.5350 -4.3661 -1.6177
  109SAPE  H12Y11324   2.004   1.601   4.205 -0.2325  0.0128 -1.6644
  109SAPE  C31311325   2.028   1.491   4.387 -0.1407  0.7600 -0.2430
  109SAPE  H13X11326   2.061   1.584   4.438  2.7940  0.1974 -0.9450
  109SAPE  H13Y11327   2.122   1.440   4.357 -0.2396  1.8182 -2.5545
  109SAPE  C31411328   1.947   1.412   4.492 -0.1609 -0.1526  0.4496
  109SAPE  H14X11329   1.917   1.319   4.439 -0.4354  0.6286 -0.8229
  109SAPE  H14Y11330   1.850   1.462   4.514 -0.8378 -0.5838 -1.3421
  109SAPE  C31511331   2.011   1.363   4.620  0.0267  0.0669 -0.8901
  109SAPE  H15X11332   2.078   1.277   4.602  0.0580 -0.0277 -0.3510
  109SAPE  H15Y11333   1.936   1.318   4.689  2.1824 -0.2834  1.3658
  109SAPE  C31611334   2.076   1.479   4.708  0.4282  0.1302  0.1600
  109SAPE  H16X11335   2.154   1.546   4.666 -0.4303  1.1901  0.2052
  109SAPE  H16Y11336   2.130   1.428   4.791  1.2751 -0.0945 -0.5156
  109SAPE  C31711337   1.975   1.576   4.760 -0.5644 -0.3142 -0.8562
  109SAPE  H17X11338   1.882   1.529   4.798 -0.2825 -1.0216 -1.0253
  109SAPE  H17Y11339   1.956   1.643   4.673 -1.8438  0.4729  0.0037
  109SAPE  C31811340   2.033   1.653   4.878 -0.0995  0.3225  0.3708
  109SAPE  H18X11341   1.958   1.717   4.930  0.7306 -0.5891  2.7964
  109SAPE  H18Y11342   2.127   1.705   4.849 -0.3121  0.3953 -0.2121
  109SAPE  H18Z11343   2.053   1.589   4.966 -1.3447  0.0421  0.4739
  110SAPE     N11344   4.856   5.737   2.406  0.7296  0.4933 -0.4217
  110SAPE   HN111345   4.853   5.707   2.307 -1.5970 -0.6451 -0.0929
  110SAPE   HN211346   4.765   5.702   2.444 -0.0332  0.8464 -1.8479
  110SAPE   HN311347   4.863   5.841   2.409  0.5431  0.5047  1.8728
  110SAPE   C1211348   4.972   5.676   2.479 -0.3614  0.1982 -0.3764
  110SAPE  H12A11349   4.931   5.604   2.554 -0.3829 -0.4973 -1.0446
  110SAPE  H12B11350   5.015   5.754   2.545  0.0138 -2.1273  2.2954
  110SAPE   C1111351   5.078   5.625   2.382  0.0500 -0.1339  0.2799
  110SAPE  H11A11352   5.162   5.576   2.436 -0.0917 -2.8941 -1.8073
  110SAPE  H11B11353   5.133   5.708   2.331  0.0129 -1.3721 -1.8942
  110SAPE     P11354   4.994   5.385   2.296 -0.0548  0.1878  0.2712
  110SAPE   O1311355   4.853   5.348   2.296  0.4930 -0.7223  0.0790
  110SAPE   O1411356   5.069   5.326   2.181  0.1862  0.7066 -0.5133
  110SAPE   O1211357   5.016   5.549   2.277  0.8363 -0.3375  0.7938
  110SAPE   O1111358   5.059   5.337   2.434  0.0011 -0.1374 -0.0965
  110SAPE    C111359   5.164   5.236   2.424  0.8734  0.2873  0.5385
  110SAPE    HA11360   5.121   5.144   2.378  0.0777  0.5835  0.6764
  110SAPE    HB11361   5.250   5.268   2.361 -0.3820  2.3532 -0.2145
  110SAPE    C211362   5.217   5.199   2.559  0.4768  0.3564 -0.2442
  110SAPE    HS11363   5.283   5.111   2.542 -1.8243 -1.4800 -0.0854
  110SAPE   O2111364   5.103   5.147   2.640 -0.4667 -0.5093 -0.2732
  110SAPE   C2111365   5.051   5.031   2.608 -0.5814 -0.1520  0.4242
  110SAPE   O2211366   5.090   4.954   2.522  0.4813 -0.2569 -0.4189
  110SAPE   C2211367   4.919   5.023   2.676  0.5321 -0.4583 -0.2543
  110SAPE   H2R11368   4.905   5.094   2.760  0.6228  1.7029 -1.9541
  110SAPE   H2S11369   4.838   5.041   2.602  0.6465  1.2110 -0.0119
  110SAPE    C311370   5.293   5.312   2.631 -0.1578 -0.5495 -0.8247
  110SAPE    HX11371   5.368   5.344   2.555  0.0000  1.1915  0.0051
  110SAPE    HY11372   5.225   5.400   2.641  0.4568 -0.0965 -0.5731
  110SAPE   O3111373   5.363   5.266   2.750 -0.1812 -0.0189 -0.7039
  110SAPE   C3111374   5.302   5.299   2.866 -1.2331 -0.1953  0.6662
  110SAPE   O3211375   5.208   5.381   2.876 -0.4709  0.2598  0.3050
  110SAPE   C3211376   5.381   5.240   2.982 -1.1355  0.0578 -0.3520
  110SAPE   H2X11377   5.479   5.287   2.958 -2.5314  2.2198 -2.2947
  110SAPE   H2Y11378   5.396   5.133   2.959  1.4661  0.4729 -0.8214
  110SAPE   C2311379   4.885   4.882   2.719  0.2642  0.0455 -0.0866
  110SAPE   H3R11380   4.871   4.805   2.640 -2.1094 -1.8365  2.0210
  110SAPE   H3S11381   4.788   4.898   2.769  1.4133  0.3223  2.1607
  110SAPE   C2411382   4.991   4.821   2.819 -0.5396  0.1994  0.0170
  110SAPE   H4R11383   5.086   4.802   2.763 -1.7964 -0.6143 -1.9279
  110SAPE   H4S11384   4.954   4.718   2.837  1.0882 -0.6151 -1.0540
  110SAPE   C2511385   5.006   4.901   2.943 -0.4910 -0.2231  0.5494
  110SAPE   H5R11386   4.929   4.974   2.970 -0.9109 -0.1131 -0.8628
  110SAPE   C2611387   5.108   4.913   3.023  0.0326 -0.6814 -0.0353
  110SAPE   H6R11388   5.100   4.973   3.115 -2.8832  3.3393 -2.5603
  110SAPE   C2711389   5.242   4.845   3.012  0.7100 -0.4512  0.3343
  110SAPE   H7R11390   5.297   4.883   2.923  0.4541 -0.7023  0.0629
  110SAPE   H7S11391   5.223   4.736   2.998 -0.3584 -0.3628  1.0375
  110SAPE   C2811392   5.335   4.876   3.123 -0.4627 -1.4205 -0.6874
  110SAPE   H8R11393   5.400   4.962   3.100  0.7523 -2.5604 -1.6743
  110SAPE   C2911394   5.333   4.828   3.252  0.2344 -0.2888  0.2757
  110SAPE   H9R11395   5.420   4.860   3.311  0.4600  1.0644 -0.7208
  110SAPE  C21011396   5.240   4.725   3.311 -0.7399  0.5038 -0.0100
  110SAPE  H10R11397   5.133   4.740   3.288 -1.1560 -1.1758  0.6811
  110SAPE  H10S11398   5.239   4.737   3.422  1.4757  4.1921 -0.2165
  110SAPE  C21111399   5.269   4.587   3.258  0.2955  0.3252  0.7441
  110SAPE  H11R11400   5.222   4.558   3.163  0.9753 -1.9028  1.0184
  110SAPE  C21211401   5.344   4.494   3.329  0.1259  0.6844 -0.9071
  110SAPE  H12R11402   5.346   4.386   3.308 -0.8544 -0.1324  2.5019
  110SAPE  C21311403   5.415   4.530   3.458 -0.0434 -0.6568  0.1657
  110SAPE  H13R11404   5.357   4.492   3.544  0.4504 -3.2214 -0.5612
  110SAPE  H13S11405   5.434   4.639   3.474  0.9410 -1.0637  2.0173
  110SAPE  C21411406   5.552   4.474   3.463  0.0988 -0.0019  0.3447
  110SAPE  H14R11407   5.621   4.524   3.394 -1.7436  1.4648 -0.5310
  110SAPE  C21511408   5.597   4.388   3.559 -0.2009  0.0468 -0.5083
  110SAPE  H15R11409   5.700   4.350   3.546 -0.5453 -0.7884 -0.8861
  110SAPE  C21611410   5.530   4.325   3.674  0.3750  0.1139  0.1934
  110SAPE  H16R11411   5.506   4.220   3.645 -2.3256  0.3823  1.2065
  110SAPE  H16S11412   5.432   4.374   3.690  0.4378  0.4224 -0.3520
  110SAPE  C21711413   5.598   4.328   3.810  0.0011 -0.1678 -0.3646
  110SAPE  H17R11414   5.694   4.273   3.802 -0.1659 -0.2235 -3.0662
  110SAPE  H17S11415   5.531   4.263   3.870  1.7538 -1.4610  0.2705
  110SAPE  C21811416   5.602   4.470   3.854 -0.3559  0.0926 -0.5081
  110SAPE  H18R11417   5.501   4.513   3.838 -1.5604 -3.2721 -3.0255
  110SAPE  H18S11418   5.687   4.514   3.799  0.7608 -0.2715  0.8507
  110SAPE  C21911419   5.643   4.476   3.999  0.0730 -0.3873 -0.1894
  110SAPE  H19R11420   5.736   4.416   4.011 -0.7660 -2.7608 -3.7708
  110SAPE  H19S11421   5.565   4.433   4.065  0.5358 -0.1379  0.5299
  110SAPE  C22011422   5.659   4.614   4.054 -0.2428  0.2464  0.4911
  110SAPE  H20R11423   5.679   4.617   4.163 -0.4896  2.7091  0.5157
  110SAPE  H20S11424   5.571   4.678   4.030 -0.2938 -0.6211 -1.8830
  110SAPE  H20T11425   5.751   4.662   4.014  0.1918  0.3247  1.5493
  110SAPE   C3311426   5.336   5.286   3.127 -0.2077  0.2027  0.2982
  110SAPE   H3X11427   5.234   5.244   3.143  0.2994 -1.1533  0.0954
  110SAPE   H3Y11428   5.319   5.396   3.133  0.2227  0.2478  0.8140
  110SAPE   C3411429   5.432   5.244   3.245  0.8738 -0.2440  1.0529
  110SAPE   H4X11430   5.499   5.333   3.251  1.1656 -0.5134  1.8420
  110SAPE   H4Y11431   5.497   5.159   3.215 -0.1992  0.0083 -2.5532
  110SAPE   C3511432   5.355   5.208   3.377  0.0042  0.3194 -0.2217
  110SAPE   H5X11433   5.274   5.132   3.371 -0.8500  0.4124  5.3084
  110SAPE   H5Y11434   5.324   5.309   3.411  0.7964  0.1779  0.9497
  110SAPE   C3611435   5.451   5.156   3.489 -0.0435  0.2614 -0.5218
  110SAPE   H6X11436   5.503   5.246   3.528 -0.7584 -0.4478  2.3240
  110SAPE   H6Y11437   5.529   5.090   3.445  0.3727  0.6584 -0.3891
  110SAPE   C3711438   5.384   5.081   3.607 -0.1053  0.6328  0.6751
  110SAPE   H7X11439   5.351   4.991   3.551 -2.2192  1.6969  0.1106
  110SAPE   H7Y11440   5.289   5.131   3.637 -0.9571 -1.0255  0.8882
  110SAPE   C3811441   5.490   5.053   3.711  0.7322 -0.8571  0.1192
  110SAPE   H8X11442   5.588   5.022   3.667  1.8143  0.4308  1.5271
  110SAPE   H8Y11443   5.465   4.973   3.784  2.6076  0.1974  2.0349
  110SAPE   C3911444   5.520   5.171   3.801  0.6369  0.3711  0.1199
  110SAPE   H9X11445   5.437   5.205   3.866  0.4490  2.4641 -1.1233
  110SAPE   H9Y11446   5.549   5.258   3.737 -0.5039  0.0884 -0.8106
  110SAPE  C31011447   5.637   5.137   3.893 -0.1320  0.0840 -0.2872
  110SAPE  H10X11448   5.681   5.229   3.935 -2.0798  0.7754  0.3226
  110SAPE  H10Y11449   5.715   5.071   3.849 -1.4814 -1.6540 -0.1866
  110SAPE  C31111450   5.583   5.064   4.012 -0.0069 -0.1750  0.1087
  110SAPE  H11X11451   5.532   4.969   3.985 -1.8675  0.8386 -0.1126
  110SAPE  H11Y11452   5.498   5.124   4.049  0.8314  1.7541 -0.9631
  110SAPE  C31211453   5.674   5.048   4.142 -0.7468  1.1023  1.0844
  110SAPE  H12X11454   5.732   5.141   4.158  1.5224 -0.0613  0.1480
  110SAPE  H12Y11455   5.752   4.972   4.119 -0.8581  1.3974 -0.3588
  110SAPE  C31311456   5.609   5.010   4.273  0.2516  0.4839 -0.8422
  110SAPE  H13X11457   5.537   5.091   4.297  2.9229  2.2942  1.7452
  110SAPE  H13Y11458   5.693   5.026   4.344 -1.1916  0.4240  0.9283
  110SAPE  C31411459   5.531   4.874   4.282 -0.0127 -0.5173  0.5985
  110SAPE  H14X11460   5.525   4.828   4.182 -3.0389  1.0228 -0.0531
  110SAPE  H14Y11461   5.428   4.904   4.310  0.4049  1.9062 -0.1669
  110SAPE  C31511462   5.601   4.779   4.372 -0.1107 -0.2555 -0.3961
  110SAPE  H15X11463   5.709   4.795   4.348  0.4242 -2.0121  0.6250
  110SAPE  H15Y11464   5.584   4.672   4.346 -1.1279  0.0255 -0.9255
  110SAPE  C31611465   5.572   4.796   4.524 -0.9636 -0.2157  0.4140
  110SAPE  H16X11466   5.462   4.783   4.534 -0.9288 -0.9072 -0.0562
  110SAPE  H16Y11467   5.590   4.902   4.552  1.4954 -0.4815  0.0548
  110SAPE  C31711468   5.645   4.701   4.607  0.0939  0.4867  0.4786
  110SAPE  H17X11469   5.627   4.723   4.715 -0.7374 -1.5314  0.7886
  110SAPE  H17Y11470   5.752   4.715   4.580  0.5162  0.7539  2.1501
  110SAPE  C31811471   5.597   4.559   4.581 -0.5355  0.5961 -0.1207
  110SAPE  H18X11472   5.647   4.490   4.651 -1.9536  0.7922  1.1474
  110SAPE  H18Y11473   5.623   4.518   4.481  0.0129  1.0287 -0.1594
  110SAPE  H18Z11474   5.488   4.540   4.590 -0.2591 -1.6853 -0.9666
  111SAPE     N11475   6.238   0.773   2.467  0.6869  0.0355 -0.6253
  111SAPE   HN111476   6.240   0.670   2.485 -1.1312 -0.0942 -0.9647
  111SAPE   HN211477   6.312   0.803   2.401  0.6820  1.4707  0.0060
  111SAPE   HN311478   6.240   0.826   2.556 -0.6326 -1.2274  0.2006
  111SAPE   C1211479   6.101   0.785   2.408 -0.4748  0.8666  0.0297
  111SAPE  H12A11480   6.108   0.729   2.312  1.8086  0.8205  0.1763
  111SAPE  H12B11481   6.085   0.893   2.385  1.4008  1.1975  0.1300
  111SAPE   C1111482   5.993   0.733   2.501  0.1740  0.4144  0.0779
  111SAPE  H11A11483   5.897   0.749   2.448  0.1276 -1.8164 -0.5769
  111SAPE  H11B11484   5.995   0.791   2.596 -2.2201  0.7335  0.0011
  111SAPE     P11485   5.940   0.529   2.652  0.1643 -0.0911  0.0177
  111SAPE   O1311486   5.824   0.608   2.695  0.2365 -0.2541 -0.2362
  111SAPE   O1411487   5.919   0.391   2.616  0.1870 -0.2085 -0.0845
  111SAPE   O1211488   6.002   0.593   2.529 -0.2288 -0.5385 -0.1882
  111SAPE   O1111489   6.058   0.540   2.759 -0.0629  0.6033 -0.2219
  111SAPE    C111490   6.157   0.439   2.785 -0.0533 -0.3611 -0.6103
  111SAPE    HA11491   6.166   0.371   2.698  1.3371 -0.0289 -0.7514
  111SAPE    HB11492   6.257   0.488   2.787 -1.2362  2.2668 -1.6907
  111SAPE    C211493   6.145   0.361   2.925  0.3406 -0.8297 -0.2662
  111SAPE    HS11494   6.225   0.285   2.937  1.9107  0.8571  0.6880
  111SAPE   O2111495   6.011   0.305   2.934 -0.2335  0.3427 -0.1913
  111SAPE   C2111496   5.976   0.200   2.863  0.1552  0.5063 -0.4807
  111SAPE   O2211497   6.047   0.128   2.796 -0.5957  0.2757 -0.0960
  111SAPE   C2211498   5.826   0.191   2.870 -0.1177 -0.0279  0.4021
  111SAPE   H2R11499   5.786   0.279   2.925 -0.8874 -1.9372  3.1013
  111SAPE   H2S11500   5.793   0.217   2.767  1.2097  3.0276  0.6314
  111SAPE    C311501   6.155   0.468   3.041 -0.3216 -0.1596  0.1535
  111SAPE    HX11502   6.257   0.508   3.056 -1.3326  1.8751  2.5318
  111SAPE    HY11503   6.125   0.415   3.134 -1.0136 -0.8194 -0.4383
  111SAPE   O3111504   6.077   0.589   3.017 -0.2453  0.4209 -0.0033
  111SAPE   C3111505   5.949   0.590   3.065  0.2273  0.2593  0.5358
  111SAPE   O3211506   5.900   0.507   3.134  0.4700  0.1683 -0.3156
  111SAPE   C3211507   5.894   0.723   3.028 -0.0863  0.7908  0.2782
  111SAPE   H2X11508   5.792   0.707   2.986  0.1632  1.4902 -0.6179
  111SAPE   H2Y11509   5.962   0.771   2.955 -2.1672 -2.4807 -4.3042
  111SAPE   C2311510   5.781   0.061   2.944  0.6555 -0.4253 -0.7149
  111SAPE   H3R11511   5.797  -0.030   2.883  1.4746 -2.2688  2.0647
  111SAPE   H3S11512   5.670   0.070   2.951  0.8984  2.3649  0.9888
  111SAPE   C2411513   5.851   0.034   3.081 -0.4869  0.2572  0.0982
  111SAPE   H4R11514   5.950  -0.005   3.051 -0.6652 -0.1368  0.0088
  111SAPE   H4S11515   5.789  -0.049   3.121  1.1586 -1.5589 -0.9695
  111SAPE   C2511516   5.874   0.144   3.181  0.0048 -0.7780 -0.1539
  111SAPE   H5R11517   5.857   0.244   3.136  3.0011 -1.1104 -2.3447
  111SAPE   C2611518   5.915   0.133   3.312 -0.2774 -0.3877  0.2785
  111SAPE   H6R11519   5.929   0.223   3.374  2.2870  0.0863 -0.8751
  111SAPE   C2711520   5.962  -0.001   3.372 -0.2832 -0.7545  0.0382
  111SAPE   H7R11521   5.991  -0.073   3.292  0.1092 -2.4004  1.5954
  111SAPE   H7S11522   5.896  -0.069   3.429 -2.6540 -0.5679 -2.2918
  111SAPE   C2811523   6.082   0.027   3.456 -0.1986  0.0099  0.0732
  111SAPE   H8R11524   6.169   0.041   3.390  0.7710 -0.9660  1.0989
  111SAPE   C2911525   6.089   0.023   3.588  0.2863 -0.0018 -0.2796
  111SAPE   H9R11526   6.182   0.041   3.645 -0.8589 -1.9111  2.3929
  111SAPE  C21011527   5.965   0.006   3.671 -0.0918 -0.2839 -0.0009
  111SAPE  H10R11528   5.959  -0.105   3.676 -0.5453 -0.2131  1.4039
  111SAPE  H10S11529   5.877   0.060   3.629  1.2283  1.2041 -0.9347
  111SAPE  C21111530   5.983   0.066   3.811 -0.5007 -0.0380 -0.1085
  111SAPE  H11R11531   5.983   0.176   3.811  0.9705 -0.0165 -0.7619
  111SAPE  C21211532   5.982  -0.002   3.926  0.4440  0.3841 -0.0707
  111SAPE  H12R11533   5.992   0.043   4.026 -2.4091 -2.1815  1.5527
  111SAPE  C21311534   5.975  -0.156   3.935  0.0145  0.1377 -0.3644
  111SAPE  H13R11535   6.039  -0.171   4.025 -0.9541  1.5657  0.6020
  111SAPE  H13S11536   6.022  -0.212   3.851  2.8292 -1.3199  1.9720
  111SAPE  C21411537   5.842  -0.224   3.957  0.4143 -0.6092 -0.3622
  111SAPE  H14R11538   5.796  -0.248   3.860  0.0025  1.6879 -0.8115
  111SAPE  C21511539   5.773  -0.226   4.078  1.0468  0.5683  0.1240
  111SAPE  H15R11540   5.690  -0.298   4.086  2.3941 -1.2567 -1.2027
  111SAPE  C21611541   5.826  -0.167   4.207 -0.7467  0.2822  0.4790
  111SAPE  H16R11542   5.746  -0.108   4.255 -1.2528  0.6073 -0.7326
  111SAPE  H16S11543   5.901  -0.089   4.183  1.7014 -2.9678 -3.8846
  111SAPE  C21711544   5.883  -0.277   4.290 -0.1779  0.2372  0.8622
  111SAPE  H17R11545   5.935  -0.226   4.373  0.4866  0.7174  0.1670
  111SAPE  H17S11546   5.952  -0.346   4.237 -1.2262 -0.3346  0.1922
  111SAPE  C21811547   5.776  -0.380   4.331 -0.4087  0.1527 -0.1920
  111SAPE  H18R11548   5.740  -0.443   4.247  0.9152 -1.2685  0.2563
  111SAPE  H18S11549   5.687  -0.327   4.370  0.0336  1.0014 -0.2949
  111SAPE  C21911550   5.819  -0.477   4.446  0.4822 -0.3319  0.3417
  111SAPE  H19R11551   5.837  -0.418   4.538 -0.2952 -0.2909  0.4764
  111SAPE  H19S11552   5.915  -0.530   4.431  0.7320  0.2043  0.0214
  111SAPE  C22011553   5.703  -0.574   4.477  0.3259 -0.5061  0.4836
  111SAPE  H20R11554   5.606  -0.522   4.481 -0.8803 -2.2672 -2.5997
  111SAPE  H20S11555   5.722  -0.626   4.574  1.1131  0.5949  0.9426
  111SAPE  H20T11556   5.688  -0.651   4.399 -1.0736 -0.3161  0.5443
  111SAPE   C3311557   5.903   0.820   3.150 -0.9072 -0.4134  0.4831
  111SAPE   H3X11558   5.870   0.920   3.115 -0.7881 -0.6788 -0.4155
  111SAPE   H3Y11559   6.012   0.829   3.170 -0.7683  0.5703 -0.6484
  111SAPE   C3411560   5.822   0.782   3.267  0.5965 -0.3533 -0.2938
  111SAPE   H4X11561   5.850   0.684   3.312  0.2487 -0.9146 -1.2884
  111SAPE   H4Y11562   5.715   0.762   3.244 -0.4420  1.1040  2.7363
  111SAPE   C3511563   5.842   0.886   3.378 -0.6203 -0.0133 -0.9235
  111SAPE   H5X11564   5.805   0.988   3.351 -0.3877  1.4919  3.5815
  111SAPE   H5Y11565   5.949   0.893   3.406 -1.4446 -1.8971  3.6747
  111SAPE   C3611566   5.778   0.842   3.513  0.5350 -0.4183  0.0787
  111SAPE   H6X11567   5.843   0.761   3.553  1.1856  0.8643  1.7653
  111SAPE   H6Y11568   5.674   0.805   3.500  0.7962 -2.0110  2.0904
  111SAPE   C3711569   5.787   0.959   3.617 -0.7310 -0.3243  0.5279
  111SAPE   H7X11570   5.712   1.040   3.605  0.5425  0.8995  0.6946
  111SAPE   H7Y11571   5.889   1.001   3.610 -0.0143 -1.9711  0.5909
  111SAPE   C3811572   5.769   0.897   3.755 -0.5240 -0.0646 -0.4127
  111SAPE   H8X11573   5.829   0.803   3.755 -1.7975 -0.9446  1.9505
  111SAPE   H8Y11574   5.663   0.863   3.758 -0.3837 -0.4534  0.4885
  111SAPE   C3911575   5.821   0.988   3.867 -0.9934 -0.4402 -0.5081
  111SAPE   H9X11576   5.759   1.080   3.876 -2.2590 -1.4442  1.8262
  111SAPE   H9Y11577   5.925   1.014   3.840 -1.0786  1.6756  0.9259
  111SAPE  C31011578   5.807   0.934   4.009  0.1680  0.7657  0.1786
  111SAPE  H10X11579   5.840   0.829   4.021 -0.6376  0.6067  1.1170
  111SAPE  H10Y11580   5.697   0.922   4.019  0.0827  0.0804 -1.3855
  111SAPE  C31111581   5.857   1.019   4.129 -0.6303  0.0991 -0.0803
  111SAPE  H11X11582   5.813   1.120   4.141  3.5661  1.9617  1.3252
  111SAPE  H11Y11583   5.968   1.021   4.121 -0.6825  2.9748 -0.9440
  111SAPE  C31211584   5.823   0.961   4.265 -0.2010  1.0128  0.2281
  111SAPE  H12X11585   5.816   0.850   4.259  0.1618  0.9899  0.2085
  111SAPE  H12Y11586   5.717   0.986   4.285  0.1424  2.1295  0.7253
  111SAPE  C31311587   5.906   1.012   4.382 -0.1491 -0.2319  0.2460
  111SAPE  H13X11588   5.902   1.123   4.385  1.6394  0.1036 -3.5489
  111SAPE  H13Y11589   6.009   0.983   4.353 -0.6295  0.7764 -2.9316
  111SAPE  C31411590   5.873   0.944   4.514  0.1369  0.3300 -0.8822
  111SAPE  H14X11591   5.762   0.943   4.519  0.1665  0.0067 -0.2520
  111SAPE  H14Y11592   5.910   1.012   4.593 -2.1963  2.1872 -1.2821
  111SAPE  C31511593   5.915   0.790   4.518 -0.1030  0.1290 -0.9867
  111SAPE  H15X11594   5.855   0.736   4.441  0.2413  0.0134 -1.1778
  111SAPE  H15Y11595   5.908   0.747   4.620 -1.8908 -2.1207 -1.9552
  111SAPE  C31611596   6.062   0.756   4.476  0.9781  0.1507  0.3006
  111SAPE  H16X11597   6.120   0.848   4.496 -0.6465  1.3510 -0.2584
  111SAPE  H16Y11598   6.063   0.730   4.368 -0.4055 -1.6475  0.6652
  111SAPE  C31711599   6.117   0.646   4.570  0.5844 -0.2522 -0.3868
  111SAPE  H17X11600   6.118   0.682   4.675 -1.3277  3.4200 -1.4628
  111SAPE  H17Y11601   6.221   0.624   4.536  1.9363  0.4829  2.8642
  111SAPE  C31811602   6.039   0.522   4.557  0.3758  0.1644  0.6410
  111SAPE  H18X11603   5.940   0.534   4.605 -0.6626 -0.4472 -1.2616
  111SAPE  H18Y11604   6.090   0.438   4.610  0.5196  0.4871  1.0193
  111SAPE  H18Z11605   6.023   0.482   4.455 -2.2835  0.3988  0.8980
  112SAPE     N11606   3.264   0.921   2.560 -0.6132 -0.4444 -0.3823
  112SAPE   HN111607   3.177   0.866   2.544 -1.2905  0.5511 -0.2009
  112SAPE   HN211608   3.252   1.024   2.549  0.8950 -0.1961  0.0973
  112SAPE   HN311609   3.338   0.902   2.489 -0.2637 -0.5647  0.0113
  112SAPE   C1211610   3.311   0.904   2.704  0.1736 -0.3872  0.1215
  112SAPE  H12A11611   3.289   0.800   2.738 -1.4669  0.1991  0.9533
  112SAPE  H12B11612   3.243   0.977   2.753 -0.8140  0.8257 -2.8400
  112SAPE   C1111613   3.452   0.936   2.713 -0.6224 -0.0083 -0.1905
  112SAPE  H11A11614   3.501   0.851   2.661  1.1974  2.2570 -2.4670
  112SAPE  H11B11615   3.481   0.941   2.820 -0.2792  0.5926 -0.3076
  112SAPE     P11616   3.466   1.198   2.702 -0.3392 -0.5969  0.6955
  112SAPE   O1311617   3.511   1.294   2.599 -0.3638 -0.7801  0.1823
  112SAPE   O1411618   3.343   1.219   2.785 -0.0448  0.1236 -0.5384
  112SAPE   O1211619   3.475   1.055   2.637 -0.7744  0.3116  0.0570
  112SAPE   O1111620   3.590   1.187   2.802  0.0281  0.2660 -0.1339
  112SAPE    C111621   3.715   1.134   2.770  0.4136  0.1716  0.0111
  112SAPE    HA11622   3.714   1.086   2.670  2.5906  0.1530 -0.0425
  112SAPE    HB11623   3.789   1.216   2.768 -1.0256  1.5096 -0.4080
  112SAPE    C211624   3.761   1.026   2.870 -0.5068  0.3135 -0.0515
  112SAPE    HS11625   3.676   0.957   2.891  1.7016 -2.5370  0.1109
  112SAPE   O2111626   3.796   1.090   2.987  0.6033 -0.1452 -0.2810
  112SAPE   C2111627   3.699   1.120   3.078  0.3595  1.1249  0.9706
  112SAPE   O2211628   3.581   1.085   3.076  0.1579  0.3272  0.9232
  112SAPE   C2211629   3.763   1.219   3.177 -0.0584 -0.0248 -0.2919
  112SAPE   H2R11630   3.872   1.198   3.174  0.1673  0.8375  0.9981
  112SAPE   H2S11631   3.737   1.313   3.124 -2.3002  0.3333  1.3050
  112SAPE    C311632   3.898   0.951   2.830  0.5068 -0.4984 -0.2306
  112SAPE    HX11633   3.970   1.034   2.812 -1.1687  1.3812  1.1920
  112SAPE    HY11634   3.887   0.899   2.733  1.6716 -1.4897  0.1552
  112SAPE   O3111635   3.950   0.864   2.934 -0.1475  0.0177  0.3516
  112SAPE   C3111636   3.864   0.773   2.978 -0.0539  0.3252  0.0098
  112SAPE   O3211637   3.767   0.726   2.918 -0.4644  0.1360  0.3788
  112SAPE   C3211638   3.888   0.766   3.126 -0.7158 -0.2825  0.0668
  112SAPE   H2X11639   3.859   0.866   3.165 -0.5355 -0.6012  1.0246
  112SAPE   H2Y11640   3.999   0.756   3.129 -0.6200  0.7023  0.2409
  112SAPE   C2311641   3.691   1.209   3.315  0.4568  0.0600  0.3050
  112SAPE   H3R11642   3.581   1.210   3.303  0.4752  0.6695  0.1096
  112SAPE   H3S11643   3.724   1.295   3.378  1.4093  0.5852 -0.8513
  112SAPE   C2411644   3.718   1.070   3.389  0.1481  0.1965  0.6125
  112SAPE   H4R11645   3.699   0.978   3.329  0.2519  1.1701 -0.9717
  112SAPE   H4S11646   3.638   1.054   3.464  0.3690 -0.8816  0.6358
  112SAPE   C2511647   3.862   1.070   3.430 -0.4186 -0.9146 -0.6604
  112SAPE   H5R11648   3.935   1.123   3.366  0.7804 -1.1245  0.4775
  112SAPE   C2611649   3.907   1.029   3.555  0.6242  0.8067  0.6402
  112SAPE   H6R11650   4.016   1.023   3.563  0.8407 -0.9488 -2.1664
  112SAPE   C2711651   3.819   0.960   3.653  0.1799  0.3234  0.3056
  112SAPE   H7R11652   3.712   0.990   3.644 -0.0528  0.1822  2.2464
  112SAPE   H7S11653   3.842   1.010   3.749 -1.5834  1.3825  0.2208
  112SAPE   C2811654   3.836   0.812   3.673  0.0697  0.7105 -0.2888
  112SAPE   H8R11655   3.785   0.744   3.602 -0.2113  1.1320 -0.4985
  112SAPE   C2911656   3.895   0.754   3.778 -0.1795  0.7116 -0.2462
  112SAPE   H9R11657   3.895   0.647   3.801  1.4361  0.5027 -1.1173
  112SAPE  C21011658   3.961   0.825   3.892 -0.1000  0.0480  0.3773
  112SAPE  H10R11659   3.881   0.839   3.969  2.2294 -1.5990  3.3203
  112SAPE  H10S11660   4.003   0.920   3.853 -0.9442  0.2544 -0.0608
  112SAPE  C21111661   4.073   0.748   3.967  0.2294 -1.0180  0.0423
  112SAPE  H11R11662   4.168   0.718   3.919  1.8985  1.0394  1.8217
  112SAPE  C21211663   4.067   0.723   4.094 -0.7082  0.3376 -0.6104
  112SAPE  H12R11664   4.152   0.672   4.141 -1.4652  1.6984  2.4746
  112SAPE  C21311665   3.961   0.752   4.199 -0.7260 -0.2749 -0.1647
  112SAPE  H13R11666   3.898   0.839   4.170 -1.4313 -0.4304  0.8787
  112SAPE  H13S11667   4.010   0.793   4.289  0.3414  1.7551 -1.5850
  112SAPE  C21411668   3.876   0.637   4.241  0.3279  0.4803  0.2019
  112SAPE  H14R11669   3.802   0.617   4.163 -0.0989  0.0200  0.7171
  112SAPE  C21511670   3.894   0.561   4.354 -0.0726  0.5993 -0.4238
  112SAPE  H15R11671   3.815   0.487   4.377  1.1361 -0.5600  0.0910
  112SAPE  C21611672   4.000   0.580   4.458 -0.0868  0.8589  0.3327
  112SAPE  H16R11673   4.093   0.632   4.425  0.2229 -0.5661 -1.1391
  112SAPE  H16S11674   4.035   0.478   4.485 -0.5872  1.2436  2.6466
  112SAPE  C21711675   3.946   0.636   4.588  0.1103  0.0196  0.4531
  112SAPE  H17R11676   4.020   0.610   4.667 -0.1131 -0.1488  0.6097
  112SAPE  H17S11677   3.848   0.586   4.603  0.3386 -1.5182 -2.4714
  112SAPE  C21811678   3.915   0.784   4.583  0.2124 -0.0726  0.2259
  112SAPE  H18R11679   3.844   0.807   4.501  0.1009  0.4443  0.4639
  112SAPE  H18S11680   4.000   0.854   4.567 -1.9651  2.8536  0.6425
  112SAPE  C21911681   3.837   0.833   4.708  0.3594  0.5913 -0.2765
  112SAPE  H19R11682   3.817   0.939   4.681  0.3581  0.7004  0.1384
  112SAPE  H19S11683   3.892   0.827   4.805  1.6602  0.3543 -1.0014
  112SAPE  C22011684   3.703   0.770   4.721 -0.8131 -0.6690  0.1859
  112SAPE  H20R11685   3.706   0.663   4.752 -0.0192 -0.2848  1.5252
  112SAPE  H20S11686   3.638   0.777   4.632 -1.8796 -0.8384  0.9329
  112SAPE  H20T11687   3.648   0.818   4.804 -1.8218 -0.9249 -0.3219
  112SAPE   C3311688   3.814   0.653   3.198  0.3176 -0.4502 -0.2208
  112SAPE   H3X11689   3.829   0.561   3.138  0.2074 -0.0722 -0.8434
  112SAPE   H3Y11690   3.705   0.674   3.203  0.1855 -1.0623 -0.4642
  112SAPE   C3411691   3.869   0.638   3.340 -0.2034 -0.0428  0.2995
  112SAPE   H4X11692   3.796   0.572   3.390 -0.8835  2.0676  2.3038
  112SAPE   H4Y11693   3.860   0.733   3.397 -1.3498  0.5537 -0.8389
  112SAPE   C3511694   4.010   0.589   3.359 -0.4903  0.2357  0.0305
  112SAPE   H5X11695   4.071   0.659   3.298 -2.1995  0.7156 -1.2065
  112SAPE   H5Y11696   4.009   0.492   3.305  2.9636  0.4177 -0.6437
  112SAPE   C3611697   4.068   0.585   3.504  0.2150  0.3904  0.9838
  112SAPE   H6X11698   4.007   0.512   3.562 -3.2975  0.8443 -1.7565
  112SAPE   H6Y11699   4.046   0.685   3.544  1.8198  1.6808 -1.1202
  112SAPE   C3711700   4.222   0.567   3.514 -0.8078 -0.1247  0.6375
  112SAPE   H7X11701   4.280   0.631   3.445  0.4103 -1.7416  0.0968
  112SAPE   H7Y11702   4.237   0.466   3.470 -3.6771 -0.4202  0.0898
  112SAPE   C3811703   4.277   0.587   3.658 -0.1050  0.1526  0.0932
  112SAPE   H8X11704   4.230   0.679   3.699 -0.3737  0.1396 -0.1817
  112SAPE   H8Y11705   4.388   0.595   3.655  0.2311 -1.9311  2.6579
  112SAPE   C3911706   4.239   0.472   3.747 -0.1975 -0.1482  0.8033
  112SAPE   H9X11707   4.234   0.381   3.683 -2.7542  0.5469 -0.0964
  112SAPE   H9Y11708   4.131   0.483   3.771 -0.6867  0.7499 -1.4731
  112SAPE  C31011709   4.316   0.473   3.878  0.7499  0.4484  0.4963
  112SAPE  H10X11710   4.320   0.573   3.927  0.8715  1.0233 -0.6478
  112SAPE  H10Y11711   4.418   0.432   3.859  0.7395  1.5997 -2.6933
  112SAPE  C31111712   4.265   0.375   3.985  0.4251 -0.1134  0.6546
  112SAPE  H11X11713   4.266   0.276   3.936  0.4096  0.2871 -0.1603
  112SAPE  H11Y11714   4.160   0.403   4.005  0.1064  0.9019 -2.0521
  112SAPE  C31211715   4.356   0.364   4.112 -0.9529  0.0588 -0.0372
  112SAPE  H12X11716   4.440   0.436   4.109  0.3801 -1.4203  0.4139
  112SAPE  H12Y11717   4.390   0.259   4.122 -0.1378  0.4225  1.3102
  112SAPE  C31311718   4.286   0.397   4.244 -0.5578  0.7536  0.3431
  112SAPE  H13X11719   4.198   0.333   4.268  0.4831 -0.4741  1.0582
  112SAPE  H13Y11720   4.258   0.504   4.249  0.3126  0.9433  1.3897
  112SAPE  C31411721   4.384   0.369   4.363  0.2655 -0.5213  0.4873
  112SAPE  H14X11722   4.480   0.406   4.322 -0.4933  0.3746 -0.5611
  112SAPE  H14Y11723   4.383   0.258   4.371 -0.1924 -0.6506 -1.0111
  112SAPE  C31511724   4.337   0.433   4.495 -0.1756  0.4079 -0.0321
  112SAPE  H15X11725   4.235   0.404   4.528 -0.6314  0.3019 -1.4664
  112SAPE  H15Y11726   4.342   0.544   4.485 -0.2767  0.4131 -0.0241
  112SAPE  C31611727   4.425   0.406   4.621 -0.0799 -0.1613  0.7217
  112SAPE  H16X11728   4.410   0.304   4.662  0.1608  0.7203  3.1827
  112SAPE  H16Y11729   4.391   0.476   4.701  1.5612  1.4382  0.0968
  112SAPE  C31711730   4.578   0.434   4.594  0.3350  0.0424 -0.1810
  112SAPE  H17X11731   4.585   0.531   4.540  0.8928  0.2184  0.1990
  112SAPE  H17Y11732   4.608   0.350   4.527  0.9353  0.6816 -0.7210
  112SAPE  C31811733   4.667   0.439   4.720 -0.5281  0.4971  0.1567
  112SAPE  H18X11734   4.641   0.521   4.790  0.1183  0.0153  0.9877
  112SAPE  H18Y11735   4.778   0.435   4.707 -0.4480 -2.5978  0.9771
  112SAPE  H18Z11736   4.657   0.353   4.789  0.3831  1.5796  1.7214
  113SAPE     N11737   3.623   4.076   2.233  0.2274 -0.1558 -0.0346
  113SAPE   HN111738   3.684   4.045   2.312  0.3246  1.0835  0.4009
  113SAPE   HN211739   3.573   3.992   2.198 -0.6662  0.4402 -0.2067
  113SAPE   HN311740   3.684   4.111   2.157 -0.2690 -1.2936 -0.9976
  113SAPE   C1211741   3.529   4.179   2.284 -0.1455 -0.6852  0.9176
  113SAPE  H12A11742   3.485   4.222   2.191  2.4891  1.0988  0.4101
  113SAPE  H12B11743   3.585   4.261   2.334  0.9140 -1.1252  0.4811
  113SAPE   C1111744   3.429   4.114   2.374 -0.0140  0.3195  0.3201
  113SAPE  H11A11745   3.357   4.194   2.403 -2.6458 -1.2243 -1.4653
  113SAPE  H11B11746   3.467   4.070   2.468 -2.0463 -2.0480  0.1489
  113SAPE     P11747   3.347   3.860   2.349  0.4842 -0.1050  0.3438
  113SAPE   O1311748   3.341   3.770   2.230 -0.0939  0.3459  0.7386
  113SAPE   O1411749   3.464   3.845   2.438 -0.4349  0.1402  0.2427
  113SAPE   O1211750   3.353   4.012   2.304  0.5973 -0.5084  0.6279
  113SAPE   O1111751   3.220   3.847   2.434  0.4055 -0.0114 -0.3380
  113SAPE    C111752   3.172   3.959   2.507  0.8021 -0.2996  0.0590
  113SAPE    HA11753   3.239   4.047   2.511  0.1578  0.1742  0.8772
  113SAPE    HB11754   3.079   3.996   2.459  1.0420  0.7131  0.3562
  113SAPE    C211755   3.148   3.925   2.659  0.0669  0.1083  0.0618
  113SAPE    HS11756   3.127   4.025   2.704  1.4492  1.0510 -1.3026
  113SAPE   O2111757   3.259   3.864   2.725  0.1873 -0.1860 -1.0271
  113SAPE   C2111758   3.364   3.943   2.730 -0.2283  0.4641 -0.6814
  113SAPE   O2211759   3.367   4.063   2.711  0.6491 -0.0556  0.4990
  113SAPE   C2211760   3.479   3.865   2.789  0.0759 -0.2304 -0.1566
  113SAPE   H2R11761   3.515   3.788   2.718  0.2571  0.0221 -0.3372
  113SAPE   H2S11762   3.557   3.941   2.812  0.1343 -0.4211  0.2927
  113SAPE    C311763   3.015   3.835   2.673  0.2810  0.3505 -0.1114
  113SAPE    HX11764   3.033   3.740   2.616 -2.5605 -1.1883  1.3408
  113SAPE    HY11765   2.928   3.873   2.616 -0.4290 -0.0620  0.6759
  113SAPE   O3111766   2.972   3.804   2.810  0.1039 -0.0196  0.0621
  113SAPE   C3111767   2.998   3.684   2.853 -0.2473  0.2547  0.3160
  113SAPE   O3211768   3.060   3.597   2.793  0.0325  0.2034  0.0233
  113SAPE   C3211769   2.928   3.662   2.986  0.2324  0.1326 -0.3358
  113SAPE   H2X11770   2.823   3.634   2.965 -0.3749  3.1337 -1.8166
  113SAPE   H2Y11771   2.925   3.763   3.034  1.4193  0.8002 -1.5945
  113SAPE   C2311772   3.441   3.789   2.917 -0.0495 -0.0720 -0.3612
  113SAPE   H3R11773   3.527   3.745   2.971 -0.9392 -0.1163  1.0611
  113SAPE   H3S11774   3.356   3.719   2.897 -0.0421 -0.2194  0.1065
  113SAPE   C2411775   3.378   3.883   3.031 -0.2326  0.2534  0.1889
  113SAPE   H4R11776   3.368   3.830   3.128 -0.7180 -1.2957 -0.6825
  113SAPE   H4S11777   3.273   3.909   3.007 -0.5240  0.6837  1.8080
  113SAPE   C2511778   3.462   4.004   3.054  0.2722  0.4266  0.3863
  113SAPE   H5R11779   3.422   4.094   3.006 -0.9715 -1.6642 -2.7753
  113SAPE   C2611780   3.577   4.008   3.120  0.1968 -0.0476 -0.5946
  113SAPE   H6R11781   3.626   4.104   3.142  0.1515 -0.6670  2.7212
  113SAPE   C2711782   3.643   3.891   3.189 -0.1342 -0.1781  0.0647
  113SAPE   H7R11783   3.743   3.871   3.145 -0.0382 -0.4474  0.4033
  113SAPE   H7S11784   3.586   3.798   3.165  1.6891 -1.0692 -1.0022
  113SAPE   C2811785   3.658   3.929   3.331 -0.6553  0.2933  0.0632
  113SAPE   H8R11786   3.674   4.037   3.347  0.2136  0.2435 -0.4717
  113SAPE   C2911787   3.628   3.846   3.432 -0.1001  0.5975  0.3895
  113SAPE   H9R11788   3.650   3.881   3.534  0.6865  2.4506 -0.3612
  113SAPE  C21011789   3.588   3.699   3.417 -0.1030  0.0043 -0.5743
  113SAPE  H10R11790   3.580   3.668   3.310  0.4053 -2.3006 -0.0074
  113SAPE  H10S11791   3.484   3.683   3.451 -1.8889  1.9985 -4.4533
  113SAPE  C21111792   3.688   3.607   3.483  0.5261  0.1334 -0.6071
  113SAPE  H11R11793   3.771   3.569   3.421  1.1175 -1.7922  1.2380
  113SAPE  C21211794   3.672   3.547   3.604  0.5437  1.2055  0.3769
  113SAPE  H12R11795   3.759   3.488   3.637  0.4203  0.3965 -0.6826
  113SAPE  C21311796   3.567   3.579   3.710 -0.0707  0.6871  0.0741
  113SAPE  H13R11797   3.484   3.508   3.727 -1.1901  2.1783  1.1200
  113SAPE  H13S11798   3.523   3.680   3.694  1.0356  1.3819  1.2442
  113SAPE  C21411799   3.637   3.592   3.840  0.4283  0.1813 -0.6327
  113SAPE  H14R11800   3.694   3.683   3.864 -0.3437  1.0801 -2.0738
  113SAPE  C21511801   3.619   3.509   3.946 -0.2958  0.2667  0.2791
  113SAPE  H15R11802   3.690   3.519   4.029 -0.3427  1.0677  0.2286
  113SAPE  C21611803   3.553   3.380   3.944 -0.3637 -0.1648 -0.3333
  113SAPE  H16R11804   3.556   3.336   3.842  3.7949  2.0812 -1.4178
  113SAPE  H16S11805   3.448   3.395   3.975 -0.3797  2.0818 -1.2683
  113SAPE  C21711806   3.629   3.286   4.040 -0.2568  1.0100  0.0059
  113SAPE  H17R11807   3.739   3.292   4.027 -0.0078 -1.6076  0.3856
  113SAPE  H17S11808   3.604   3.187   3.997  1.0710  1.1428 -1.1463
  113SAPE  C21811809   3.581   3.296   4.185 -0.4641 -0.4849  0.2510
  113SAPE  H18R11810   3.473   3.274   4.199  0.0044 -1.4925  2.8421
  113SAPE  H18S11811   3.595   3.405   4.203 -2.0959 -0.2483  0.2524
  113SAPE  C21911812   3.666   3.213   4.283 -0.9730 -0.0922  0.1440
  113SAPE  H19R11813   3.770   3.218   4.244 -0.5363 -2.0253  0.9579
  113SAPE  H19S11814   3.636   3.108   4.267  2.2958 -1.0346 -0.5217
  113SAPE  C22011815   3.655   3.247   4.431  0.0561 -0.9130 -0.3480
  113SAPE  H20R11816   3.728   3.188   4.491 -0.4300 -0.9173  0.2462
  113SAPE  H20S11817   3.554   3.228   4.473  0.1140 -0.3245  0.0803
  113SAPE  H20T11818   3.684   3.354   4.444 -1.7225 -0.4981  0.6676
  113SAPE   C3311819   3.006   3.552   3.066 -0.0253  1.0100  0.0256
  113SAPE   H3X11820   3.111   3.576   3.091  0.0108  0.8578  0.0179
  113SAPE   H3Y11821   3.000   3.461   3.003  1.3986  0.0325  1.2428
  113SAPE   C3411822   2.940   3.509   3.189  0.2566 -0.1116 -0.1388
  113SAPE   H4X11823   2.989   3.421   3.235  0.8624  1.1199  1.7064
  113SAPE   H4Y11824   2.842   3.468   3.155  0.1390 -0.7728  0.9575
  113SAPE   C3511825   2.916   3.614   3.302  0.3895 -0.3339  0.1356
  113SAPE   H5X11826   2.902   3.720   3.273  0.9521 -0.1404  0.5467
  113SAPE   H5Y11827   3.008   3.615   3.365 -0.9453 -1.3601  2.2187
  113SAPE   C3611828   2.805   3.576   3.398  0.5748  0.0854  0.2155
  113SAPE   H6X11829   2.837   3.475   3.430  0.8243  0.2032  0.3360
  113SAPE   H6Y11830   2.706   3.581   3.347 -0.5261  2.0575  2.3168
  113SAPE   C3711831   2.788   3.660   3.525 -0.4122 -0.0936  0.4322
  113SAPE   H7X11832   2.751   3.763   3.507  0.7546 -0.0764 -2.3525
  113SAPE   H7Y11833   2.887   3.680   3.572  0.1740 -0.0984 -0.7735
  113SAPE   C3811834   2.696   3.587   3.624 -0.0240  0.9623 -0.1082
  113SAPE   H8X11835   2.599   3.566   3.575  0.1072 -2.0903  0.7488
  113SAPE   H8Y11836   2.736   3.486   3.647 -2.0512 -0.3006 -1.7591
  113SAPE   C3911837   2.687   3.671   3.758  0.4206 -0.0540  0.1343
  113SAPE   H9X11838   2.629   3.763   3.738 -0.1728 -0.4151  0.1578
  113SAPE   H9Y11839   2.788   3.694   3.799  0.6529 -1.2208  0.2633
  113SAPE  C31011840   2.613   3.584   3.861 -0.4398  0.5598  0.2006
  113SAPE  H10X11841   2.676   3.493   3.874 -2.3620 -0.8396  0.0922
  113SAPE  H10Y11842   2.521   3.537   3.821 -0.1431 -1.0675  1.3058
  113SAPE  C31111843   2.611   3.652   3.997  0.3364 -0.6669  0.1101
  113SAPE  H11X11844   2.535   3.733   4.006  0.3694 -0.7076  0.7816
  113SAPE  H11Y11845   2.709   3.703   4.008  0.1496  0.5609 -2.8931
  113SAPE  C31211846   2.592   3.551   4.118 -0.3530  0.4758  0.7584
  113SAPE  H12X11847   2.692   3.501   4.119 -0.6576 -0.1906 -0.5440
  113SAPE  H12Y11848   2.513   3.477   4.095  0.6302  0.3613 -2.8515
  113SAPE  C31311849   2.566   3.637   4.242 -0.7636 -0.2274 -0.2125
  113SAPE  H13X11850   2.468   3.689   4.244 -1.2811 -1.1836  0.6558
  113SAPE  H13Y11851   2.636   3.723   4.249 -0.1975 -0.7148  0.1354
  113SAPE  C31411852   2.576   3.543   4.363 -0.3985  0.4781  0.2679
  113SAPE  H14X11853   2.485   3.481   4.372 -0.6175  0.9887  1.9363
  113SAPE  H14Y11854   2.580   3.610   4.452  1.0289  1.1727 -0.2955
  113SAPE  C31511855   2.697   3.444   4.363  0.1361 -0.4992 -0.3304
  113SAPE  H15X11856   2.776   3.500   4.309 -1.1242  1.2448 -0.4540
  113SAPE  H15Y11857   2.664   3.356   4.305 -2.5846  0.0141  0.3197
  113SAPE  C31611858   2.747   3.412   4.502  0.1331 -0.1355  0.8775
  113SAPE  H16X11859   2.651   3.392   4.555 -1.0073 -0.3715 -1.1825
  113SAPE  H16Y11860   2.794   3.502   4.547 -0.3972  0.6982 -0.1950
  113SAPE  C31711861   2.838   3.284   4.490  0.4516  0.0696 -0.0127
  113SAPE  H17X11862   2.935   3.324   4.452 -1.3281  2.5938 -2.2510
  113SAPE  H17Y11863   2.794   3.206   4.424 -0.1621 -0.6657  1.2169
  113SAPE  C31811864   2.855   3.218   4.625 -0.0032  0.4067  0.0043
  113SAPE  H18X11865   2.759   3.186   4.670  1.0546 -0.9964  1.4056
  113SAPE  H18Y11866   2.886   3.294   4.699 -1.1459 -0.6122  1.5851
  113SAPE  H18Z11867   2.919   3.127   4.617  1.3368  1.4308 -1.5012
  114SAPE     N11868   0.731   6.624   2.606 -0.4585 -0.3733  0.0150
  114SAPE   HN111869   0.644   6.578   2.639 -0.8651  0.8220  0.6916
  114SAPE   HN211870   0.817   6.581   2.645  1.6166  1.3439 -2.3193
  114SAPE   HN311871   0.732   6.719   2.649  1.3553 -0.2080 -0.3089
  114SAPE   C1211872   0.744   6.633   2.459 -0.3419 -0.6051  0.1991
  114SAPE  H12A11873   0.692   6.542   2.422 -0.7095 -0.6329  0.7668
  114SAPE  H12B11874   0.853   6.639   2.436 -0.7184 -0.4708 -1.6605
  114SAPE   C1111875   0.671   6.769   2.419 -0.1829 -0.5183  0.6699
  114SAPE  H11A11876   0.647   6.752   2.312 -0.8212 -2.1914  1.0420
  114SAPE  H11B11877   0.747   6.849   2.429  0.4363 -0.7997 -1.2944
  114SAPE     P11878   0.477   6.929   2.470  0.0103  0.5510  0.1728
  114SAPE   O1311879   0.571   7.028   2.410 -0.0020  0.1518 -0.1684
  114SAPE   O1411880   0.357   6.889   2.393  0.3173 -0.2296 -0.1572
  114SAPE   O1211881   0.554   6.796   2.505 -0.2466 -0.0224  0.0995
  114SAPE   O1111882   0.438   6.970   2.617 -0.0376  0.5024 -0.3659
  114SAPE    C111883   0.418   6.880   2.727 -0.3344 -0.1141  0.8847
  114SAPE    HA11884   0.455   6.778   2.702  2.2588  0.0336  3.4196
  114SAPE    HB11885   0.486   6.919   2.807  1.3385  1.1691 -1.0599
  114SAPE    C211886   0.274   6.864   2.775 -0.7369 -0.3905 -0.4362
  114SAPE    HS11887   0.207   6.833   2.692 -2.9386  1.6613  0.4620
  114SAPE   O2111888   0.240   6.989   2.840 -0.1612  0.9999 -0.3381
  114SAPE   C2111889   0.114   7.002   2.879  0.1300 -0.0230  0.3434
  114SAPE   O2211890   0.028   6.918   2.848 -0.4018  0.0569 -0.1383
  114SAPE   C2211891   0.092   7.122   2.960  0.2751 -0.0103  0.3957
  114SAPE   H2R11892   0.165   7.128   3.042 -0.7718 -0.7358  1.4212
  114SAPE   H2S11893   0.110   7.207   2.891  0.1650 -1.7787 -1.9813
  114SAPE    C311894   0.278   6.739   2.877  0.0235  0.1945 -0.4912
  114SAPE    HX11895   0.301   6.648   2.817  0.6405  0.8206 -1.2197
  114SAPE    HY11896   0.173   6.719   2.909  0.9267 -0.8397  2.0913
  114SAPE   O3111897   0.367   6.738   2.982 -0.0440 -0.1662 -0.5762
  114SAPE   C3111898   0.325   6.786   3.102  0.3780  0.4736  0.1870
  114SAPE   O3211899   0.222   6.847   3.119  0.3213 -0.2210  0.0385
  114SAPE   C3211900   0.432   6.747   3.203  0.0394 -1.1878 -0.0615
  114SAPE   H2X11901   0.530   6.763   3.154 -1.3540 -0.6431 -2.8984
  114SAPE   H2Y11902   0.428   6.638   3.227  1.8834 -0.5676  3.9337
  114SAPE   C2311903  -0.057   7.147   3.013 -0.5279 -0.1223  0.1448
  114SAPE   H3R11904  -0.091   7.055   3.065  0.1981 -0.8457 -0.6045
  114SAPE   H3S11905  -0.119   7.155   2.921 -1.6519 -2.0544  0.6892
  114SAPE   C2411906  -0.084   7.277   3.104 -0.6460  0.7364 -0.1787
  114SAPE   H4R11907  -0.192   7.277   3.126  0.0041  0.4258  3.5455
  114SAPE   H4S11908  -0.051   7.364   3.043 -0.3882  1.1044  0.4844
  114SAPE   C2511909  -0.014   7.255   3.238 -0.2822 -0.3469  0.5331
  114SAPE   H5R11910   0.089   7.216   3.243  1.0249  2.6787 -0.4762
  114SAPE   C2611911  -0.056   7.310   3.354 -0.3443 -0.4113 -0.0926
  114SAPE   H6R11912  -0.003   7.283   3.447 -0.3585 -0.1117  0.0030
  114SAPE   C2711913  -0.183   7.381   3.382 -0.1642 -0.3108 -0.6006
  114SAPE   H7R11914  -0.219   7.424   3.286  1.5655  2.1145 -0.2491
  114SAPE   H7S11915  -0.155   7.471   3.439  1.0279 -1.4184  0.6295
  114SAPE   C2811916  -0.297   7.305   3.447  0.8629  0.4982 -0.4743
  114SAPE   H8R11917  -0.356   7.235   3.386  0.0667  0.5940  0.1614
  114SAPE   C2911918  -0.323   7.296   3.579 -0.4104  0.3514 -0.0904
  114SAPE   H9R11919  -0.397   7.221   3.613  0.6016  0.2724  2.0865
  114SAPE  C21011920  -0.259   7.369   3.691  0.0883 -1.1364  0.3891
  114SAPE  H10R11921  -0.341   7.433   3.731 -0.8521 -0.5558 -2.2485
  114SAPE  H10S11922  -0.186   7.444   3.654 -0.1369 -2.0459 -2.0383
  114SAPE  C21111923  -0.200   7.285   3.791  0.3107  0.5966 -0.7527
  114SAPE  H11R11924  -0.104   7.242   3.761 -0.1836 -2.2869  1.3867
  114SAPE  C21211925  -0.251   7.245   3.908  0.3049 -0.1953  0.2327
  114SAPE  H12R11926  -0.195   7.186   3.982  2.2351  0.1676 -0.8748
  114SAPE  C21311927  -0.389   7.290   3.958 -0.2926  0.8234 -0.4425
  114SAPE  H13R11928  -0.407   7.400   3.966 -4.0434  0.3342  0.0670
  114SAPE  H13S11929  -0.381   7.256   4.064  0.2527 -1.4880 -1.1802
  114SAPE  C21411930  -0.506   7.221   3.893  0.3485 -0.5928  0.1221
  114SAPE  H14R11931  -0.483   7.127   3.840  2.9505 -0.3256  0.6582
  114SAPE  C21511932  -0.635   7.248   3.925 -0.0639  0.8911 -0.0801
  114SAPE  H15R11933  -0.703   7.172   3.883 -1.4296  1.3042  1.3059
  114SAPE  C21611934  -0.687   7.348   4.025  0.4788  0.6737  0.1432
  114SAPE  H16R11935  -0.747   7.423   3.970  0.7248 -1.0103 -2.5779
  114SAPE  H16S11936  -0.611   7.401   4.087 -0.1434  1.0180  0.6239
  114SAPE  C21711937  -0.790   7.274   4.127 -0.6484 -0.6513 -0.0005
  114SAPE  H17R11938  -0.885   7.262   4.072 -0.2068  0.8971 -1.1969
  114SAPE  H17S11939  -0.819   7.341   4.211 -1.8278 -1.1198 -0.0229
  114SAPE  C21811940  -0.735   7.140   4.196  0.0756  0.0964  0.1673
  114SAPE  H18R11941  -0.723   7.061   4.120 -0.0188 -1.6068  1.8512
  114SAPE  H18S11942  -0.802   7.103   4.277  0.4893  0.8194  0.8553
  114SAPE  C21911943  -0.596   7.143   4.262  0.7947 -0.1981 -0.4566
  114SAPE  H19R11944  -0.535   7.218   4.208  1.0430  0.6842  1.0012
  114SAPE  H19S11945  -0.554   7.040   4.256  1.9751 -0.2482  4.5249
  114SAPE  C22011946  -0.600   7.175   4.408  0.6031 -0.5681  0.3880
  114SAPE  H20R11947  -0.657   7.270   4.419  0.1737 -0.4021 -2.5388
  114SAPE  H20S11948  -0.498   7.177   4.454  1.0973 -1.4474 -0.6363
  114SAPE  H20T11949  -0.655   7.103   4.471 -0.3073  0.7574  1.1594
  114SAPE   C3311950   0.424   6.827   3.337 -0.1849  0.0619 -0.2913
  114SAPE   H3X11951   0.329   6.796   3.385 -0.1748  0.0500 -0.2786
  114SAPE   H3Y11952   0.425   6.937   3.319 -0.9675  0.1503  0.1532
  114SAPE   C3411953   0.537   6.800   3.438  0.1313 -0.2525 -0.5488
  114SAPE   H4X11954   0.631   6.820   3.383  0.0026  0.3863 -0.5391
  114SAPE   H4Y11955   0.525   6.694   3.471 -1.9548  0.4110  1.0380
  114SAPE   C3511956   0.544   6.895   3.562  0.1882  0.0244  0.5891
  114SAPE   H5X11957   0.549   7.003   3.537  0.3462 -0.1330 -0.0874
  114SAPE   H5Y11958   0.637   6.868   3.617  1.5205  1.5788 -0.7787
  114SAPE   C3611959   0.416   6.873   3.652 -0.1407  0.0391  0.3694
  114SAPE   H6X11960   0.373   6.775   3.621  0.2695  0.3927 -1.4220
  114SAPE   H6Y11961   0.347   6.957   3.629  1.2171  1.7192  2.1189
  114SAPE   C3711962   0.450   6.882   3.806  0.2733 -0.3469  0.3244
  114SAPE   H7X11963   0.530   6.959   3.805  0.6067 -0.6913 -0.4917
  114SAPE   H7Y11964   0.507   6.791   3.837  0.6067 -1.0055 -1.9980
  114SAPE   C3811965   0.328   6.924   3.885  0.3498 -0.0533 -0.7532
  114SAPE   H8X11966   0.268   6.989   3.817 -0.5106 -0.5872 -0.5234
  114SAPE   H8Y11967   0.336   6.985   3.978 -0.8093  0.4511 -0.9595
  114SAPE   C3911968   0.233   6.811   3.928  0.1272  0.2885 -0.0191
  114SAPE   H9X11969   0.284   6.744   4.000 -2.5154 -1.1529  0.6210
  114SAPE   H9Y11970   0.215   6.755   3.834  1.4632 -0.0408 -0.1043
  114SAPE  C31011971   0.109   6.872   3.989  0.0899 -0.1009  0.3656
  114SAPE  H10X11972   0.080   6.964   3.932  0.5527  1.1331  2.0560
  114SAPE  H10Y11973   0.143   6.915   4.085  0.5833 -0.9669  0.5854
  114SAPE  C31111974  -0.008   6.768   3.983  0.6089  0.2238  0.2609
  114SAPE  H11X11975  -0.011   6.696   3.899  1.2284 -1.0536  1.3010
  114SAPE  H11Y11976  -0.110   6.813   3.994  1.1466  1.2147  1.4629
  114SAPE  C31211977  -0.007   6.683   4.108 -0.0721 -0.1366 -0.9243
  114SAPE  H12X11978   0.026   6.752   4.189  1.1344 -1.4866 -0.2287
  114SAPE  H12Y11979   0.078   6.612   4.102  0.6046  0.7351 -2.3219
  114SAPE  C31311980  -0.142   6.616   4.148 -0.1319  0.4548 -0.0672
  114SAPE  H13X11981  -0.162   6.535   4.074  2.2140 -1.1452  0.9376
  114SAPE  H13Y11982  -0.225   6.690   4.148 -1.2078 -0.7023 -0.1177
  114SAPE  C31411983  -0.133   6.546   4.285  0.3817 -0.1612  0.2292
  114SAPE  H14X11984  -0.109   6.627   4.357  0.4253 -0.2065  0.2661
  114SAPE  H14Y11985  -0.045   6.479   4.286  0.3756 -0.1739 -0.1388
  114SAPE  C31511986  -0.269   6.477   4.339  0.3763 -0.6685 -0.0821
  114SAPE  H15X11987  -0.276   6.384   4.278  2.2476 -1.0536  0.2384
  114SAPE  H15Y11988  -0.357   6.545   4.337  1.1930  0.4669  0.9512
  114SAPE  C31611989  -0.271   6.420   4.484 -0.1507 -0.4531  0.5049
  114SAPE  H16X11990  -0.362   6.358   4.501  0.3171 -1.4381 -0.4729
  114SAPE  H16Y11991  -0.277   6.511   4.548  1.8313 -0.8773  1.3729
  114SAPE  C31711992  -0.149   6.335   4.527 -0.3356 -0.3749  0.5081
  114SAPE  H17X11993  -0.060   6.401   4.518 -0.9759  0.4301 -0.0304
  114SAPE  H17Y11994  -0.133   6.246   4.462  0.1576 -0.6688  1.0201
  114SAPE  C31811995  -0.149   6.285   4.676 -0.0353  0.7650 -0.3861
  114SAPE  H18X11996  -0.055   6.229   4.697 -1.5808 -1.6135  0.5718
  114SAPE  H18Y11997  -0.241   6.227   4.695  1.1097 -0.7046  0.9987
  114SAPE  H18Z11998  -0.157   6.373   4.743 -0.6616 -0.7526  1.6208
  115SAPE     N11999   2.835   1.175   2.522 -0.0782 -0.4078 -0.8027
  115SAPE   HN112000   2.883   1.150   2.433 -0.0698 -0.3499 -0.8145
  115SAPE   HN212001   2.733   1.155   2.516 -0.3481  1.1733 -2.4307
  115SAPE   HN312002   2.824   1.278   2.522  0.2812 -0.3589  0.4453
  115SAPE   C1212003   2.895   1.113   2.643  0.3144  0.3038  0.7343
  115SAPE  H12A12004   3.005   1.120   2.633  0.5231 -1.7309  1.0990
  115SAPE  H12B12005   2.873   1.004   2.644  0.8832  0.1610 -0.6175
  115SAPE   C1112006   2.841   1.168   2.768  0.7552  0.9572 -0.2378
  115SAPE  H11A12007   2.870   1.104   2.853  1.3537  0.5943 -0.7040
  115SAPE  H11B12008   2.730   1.164   2.769  0.7127  1.8949  1.5993
  115SAPE     P12009   2.823   1.400   2.893 -0.1852  0.3262 -0.2095
  115SAPE   O1312010   2.888   1.533   2.881  0.0967  0.6762  0.4543
  115SAPE   O1412011   2.675   1.390   2.881 -0.0492  0.3487 -0.2086
  115SAPE   O1212012   2.889   1.305   2.778  0.1606  0.2497 -0.7799
  115SAPE   O1112013   2.872   1.332   3.027 -0.0982 -0.2163  0.3343
  115SAPE    C112014   2.998   1.262   3.041  0.1681  0.1776  0.6496
  115SAPE    HA12015   2.993   1.151   3.037  1.8862 -0.0849  3.1375
  115SAPE    HB12016   3.080   1.307   2.981  0.9059 -0.3564  1.2445
  115SAPE    C212017   3.059   1.302   3.182 -0.1253 -0.1823 -0.4926
  115SAPE    HS12018   3.153   1.243   3.191  1.4457  1.9088 -2.1076
  115SAPE   O2112019   2.972   1.274   3.292  0.3499 -0.1303 -0.3966
  115SAPE   C2112020   2.920   1.161   3.291  1.1359 -0.6397 -0.0002
  115SAPE   O2212021   2.956   1.059   3.235  0.2267 -0.1279 -0.3540
  115SAPE   C2212022   2.793   1.157   3.384 -0.2227  0.3746  0.4162
  115SAPE   H2R12023   2.762   1.261   3.411 -2.5672 -0.2480  0.3281
  115SAPE   H2S12024   2.703   1.108   3.341  0.0320 -1.3308  1.7152
  115SAPE    C312025   3.105   1.452   3.200  0.7305  0.3335  0.1907
  115SAPE    HX12026   3.028   1.522   3.160  0.1882 -0.5254 -0.2838
  115SAPE    HY12027   3.193   1.473   3.136  1.4137  0.1437  1.0513
  115SAPE   O3112028   3.137   1.491   3.336 -0.1467  0.2286 -0.6739
  115SAPE   C3112029   3.257   1.449   3.379  1.3244 -0.2447  0.6551
  115SAPE   O3212030   3.333   1.391   3.313 -1.2650  0.3649 -0.2399
  115SAPE   C3212031   3.279   1.497   3.528 -0.5758  0.3409 -0.1368
  115SAPE   H2X12032   3.206   1.451   3.598  1.7651 -0.7526  1.7860
  115SAPE   H2Y12033   3.269   1.607   3.529  1.9255  0.6909 -2.2754
  115SAPE   C2312034   2.838   1.080   3.505 -0.9432 -0.0520  0.2864
  115SAPE   H3R12035   2.925   1.126   3.556 -0.0577 -0.8366 -0.4851
  115SAPE   H3S12036   2.875   0.980   3.476  2.0853  0.8245  0.8062
  115SAPE   C2412037   2.737   1.073   3.614  0.7245 -0.5122  0.1165
  115SAPE   H4R12038   2.646   1.039   3.561  1.3440 -0.5432 -0.9423
  115SAPE   H4S12039   2.711   1.176   3.647 -1.5937 -0.9315 -0.2376
  115SAPE   C2512040   2.766   0.984   3.732 -0.2886  0.2566 -0.0431
  115SAPE   H5R12041   2.750   0.876   3.717  1.1995  0.1435 -0.9403
  115SAPE   C2612042   2.807   1.020   3.855  0.2779  0.5229  0.1732
  115SAPE   H6R12043   2.824   0.937   3.926 -0.0938 -0.4141 -0.8007
  115SAPE   C2712044   2.845   1.157   3.902  0.0965 -0.3239  0.2182
  115SAPE   H7R12045   2.767   1.193   3.971 -1.7058  0.7644 -2.2207
  115SAPE   H7S12046   2.829   1.229   3.819 -0.4404 -1.0870 -0.3588
  115SAPE   C2812047   2.987   1.166   3.955  0.4017  0.1654  0.3077
  115SAPE   H8R12048   3.058   1.127   3.881  0.3732 -1.3079  1.0172
  115SAPE   C2912049   3.039   1.204   4.073  0.0975  0.8040 -0.9417
  115SAPE   H9R12050   3.147   1.187   4.079 -0.0539 -0.0169 -0.2119
  115SAPE  C21012051   2.950   1.237   4.195 -0.6494 -0.4345  0.1364
  115SAPE  H10R12052   2.989   1.175   4.279  0.5210  0.5673  0.3579
  115SAPE  H10S12053   2.843   1.211   4.179 -0.2726 -0.8151 -2.1453
  115SAPE  C21112054   2.959   1.382   4.234 -0.0534  0.1370  0.0207
  115SAPE  H11R12055   2.974   1.444   4.144 -0.3373 -1.5918 -1.2549
  115SAPE  C21212056   2.962   1.444   4.356  0.0959 -0.4402 -0.6865
  115SAPE  H12R12057   2.975   1.553   4.368 -0.2627 -0.4191 -0.4691
  115SAPE  C21312058   2.972   1.382   4.498  0.4935  0.0793  0.0715
  115SAPE  H13R12059   3.074   1.357   4.534  1.3362  0.8099 -1.7002
  115SAPE  H13S12060   2.917   1.285   4.499 -1.0977  0.9084 -1.2731
  115SAPE  C21412061   2.893   1.453   4.600  0.0969  0.5298 -0.2100
  115SAPE  H14R12062   2.795   1.478   4.557  0.2410 -0.3973 -1.0962
  115SAPE  C21512063   2.919   1.474   4.731  0.1517  0.0832 -0.7681
  115SAPE  H15R12064   2.850   1.537   4.789  0.3991  1.8717 -2.2943
  115SAPE  C21612065   3.045   1.431   4.795  0.1884 -0.0895 -1.1405
  115SAPE  H16R12066   3.063   1.324   4.771 -2.4444 -0.8483 -0.1532
  115SAPE  H16S12067   3.045   1.414   4.905  1.3145  0.5780 -1.0260
  115SAPE  C21712068   3.176   1.514   4.768  0.1257 -0.0133  0.1051
  115SAPE  H17R12069   3.203   1.534   4.662  1.6086  4.5904  1.0986
  115SAPE  H17S12070   3.264   1.469   4.817  0.5156 -0.5435 -1.0327
  115SAPE  C21812071   3.171   1.655   4.836 -0.2692  0.9471 -0.2180
  115SAPE  H18R12072   3.265   1.705   4.867 -0.3456  1.3156 -0.5704
  115SAPE  H18S12073   3.123   1.633   4.934  0.3183 -1.2217 -0.3566
  115SAPE  C21912074   3.100   1.752   4.749 -0.1816 -0.5412 -0.0531
  115SAPE  H19R12075   2.993   1.727   4.732 -0.3553 -0.2169  0.5500
  115SAPE  H19S12076   3.152   1.747   4.651  1.7248  2.1055  0.7279
  115SAPE  C22012077   3.115   1.902   4.800 -0.3341  0.5893  0.1567
  115SAPE  H20R12078   3.103   1.896   4.910  0.4112 -0.6803  0.1932
  115SAPE  H20S12079   3.031   1.961   4.759  0.3623 -0.5329 -3.2085
  115SAPE  H20T12080   3.212   1.947   4.770 -0.2771  0.5746  0.3181
  115SAPE   C3312081   3.422   1.466   3.582  0.3441  0.4092 -1.0357
  115SAPE   H3X12082   3.495   1.508   3.510  0.8138  1.2405 -0.0904
  115SAPE   H3Y12083   3.429   1.355   3.590  0.0405  0.3965 -0.9376
  115SAPE   C3412084   3.463   1.512   3.727 -0.0968  0.0227 -0.2529
  115SAPE   H4X12085   3.468   1.623   3.726 -1.2925  0.1442 -3.3313
  115SAPE   H4Y12086   3.569   1.481   3.735 -0.6548 -1.6753  1.6850
  115SAPE   C3512087   3.368   1.467   3.841  0.2907 -0.0764  0.3966
  115SAPE   H5X12088   3.362   1.356   3.840  1.3791 -0.2417 -2.9744
  115SAPE   H5Y12089   3.268   1.515   3.842  0.7996  1.0291  2.2220
  115SAPE   C3612090   3.411   1.510   3.979 -0.0957  0.3643 -0.7785
  115SAPE   H6X12091   3.414   1.619   4.002  0.8915  0.5677 -1.8352
  115SAPE   H6Y12092   3.510   1.462   3.991  0.1393  0.2375 -2.9188
  115SAPE   C3712093   3.321   1.456   4.087  0.8902 -0.3114 -0.4259
  115SAPE   H7X12094   3.314   1.346   4.080 -0.6102 -0.1848 -1.2580
  115SAPE   H7Y12095   3.219   1.494   4.067  1.3904  1.0745 -0.4857
  115SAPE   C3812096   3.384   1.468   4.226  0.0793 -0.1077 -0.3563
  115SAPE   H8X12097   3.298   1.448   4.294 -1.5466 -1.8052 -2.7310
  115SAPE   H8Y12098   3.419   1.572   4.244 -0.6103 -0.1946  1.8374
  115SAPE   C3912099   3.500   1.365   4.264 -0.3884  0.2459  0.3092
  115SAPE   H9X12100   3.587   1.395   4.203 -0.2992  0.7038  0.6580
  115SAPE   H9Y12101   3.460   1.267   4.229 -1.5693  1.4687 -1.9471
  115SAPE  C31012102   3.526   1.336   4.413 -0.3528  0.3488 -0.1678
  115SAPE  H10X12103   3.596   1.251   4.427 -0.3809  0.4578  0.6671
  115SAPE  H10Y12104   3.429   1.322   4.464 -0.2712  1.8829  0.4635
  115SAPE  C31112105   3.593   1.461   4.480 -0.1130  0.0856  0.0692
  115SAPE  H11X12106   3.516   1.540   4.491  0.5443  0.7356  0.0010
  115SAPE  H11Y12107   3.677   1.489   4.414  0.8588  0.3294  1.3810
  115SAPE  C31212108   3.645   1.424   4.619  0.5381 -0.6119  0.4833
  115SAPE  H12X12109   3.720   1.342   4.617  1.0181 -0.2113  1.4173
  115SAPE  H12Y12110   3.560   1.391   4.682 -1.1183  1.1469 -0.7370
  115SAPE  C31312111   3.730   1.540   4.690 -0.4824  0.4239  0.8170
  115SAPE  H13X12112   3.662   1.609   4.744 -0.1132  0.1407  1.6609
  115SAPE  H13Y12113   3.777   1.604   4.613 -0.0813  1.4260  1.8677
  115SAPE  C31412114   3.824   1.489   4.796  0.3918  0.7936  0.6808
  115SAPE  H14X12115   3.890   1.570   4.834  2.5532 -0.6398  0.1649
  115SAPE  H14Y12116   3.885   1.410   4.747  1.4129  1.5090  0.7380
  115SAPE  C31512117   3.755   1.404   4.909  0.6245 -0.3360 -0.4325
  115SAPE  H15X12118   3.705   1.315   4.867 -0.4491 -0.3134  0.7287
  115SAPE  H15Y12119   3.677   1.471   4.950 -0.5327 -0.0626 -2.8899
  115SAPE  C31612120   3.863   1.354   5.012 -0.0536 -0.4322 -0.2070
  115SAPE  H16X12121   3.862   1.412   5.106  0.1429 -0.2180 -0.3343
  115SAPE  H16Y12122   3.964   1.378   4.973 -1.2998  3.1176 -1.6824
  115SAPE  C31712123   3.835   1.206   5.046 -0.0710  0.0899 -0.1033
  115SAPE  H17X12124   3.725   1.194   5.056 -0.3002  1.4275 -0.8382
  115SAPE  H17Y12125   3.893   1.190   5.139 -1.8010  0.3344  1.0684
  115SAPE  C31812126   3.871   1.102   4.945  0.0186 -0.0728  0.2668
  115SAPE  H18X12127   3.855   0.995   4.968  1.7973 -0.5976 -0.7513
  115SAPE  H18Y12128   3.981   1.101   4.929  0.0324  1.0270  0.1849
  115SAPE  H18Z12129   3.840   1.131   4.842  0.2258 -0.6964  0.0252
  116SAPE     N12130   3.469   1.433   2.377 -0.4338  0.6072  0.0519
  116SAPE   HN112131   3.478   1.376   2.291 -0.3113  1.5414 -0.5633
  116SAPE   HN212132   3.480   1.378   2.465  0.9094  1.8725  0.7013
  116SAPE   HN312133   3.369   1.460   2.384 -0.5401 -0.1132  4.5469
  116SAPE   C1212134   3.561   1.555   2.368  0.1586  0.3608  0.2160
  116SAPE  H12A12135   3.524   1.622   2.287  0.9971 -0.4816 -0.8968
  116SAPE  H12B12136   3.666   1.532   2.337 -0.1178  1.7111 -1.9300
  116SAPE   C1112137   3.562   1.620   2.507  0.2208  0.4642 -0.1386
  116SAPE  H11A12138   3.599   1.550   2.585 -2.0914  1.2120  1.7235
  116SAPE  H11B12139   3.464   1.663   2.535  0.2414  1.3035 -1.2794
  116SAPE     P12140   3.801   1.730   2.546 -0.2508  0.1196  0.1137
  116SAPE   O1312141   3.848   1.592   2.549  0.0787  1.3349 -0.3665
  116SAPE   O1412142   3.865   1.824   2.453  0.0419  0.6987  0.2913
  116SAPE   O1212143   3.651   1.730   2.502  0.4973 -0.2469  0.1139
  116SAPE   O1112144   3.803   1.802   2.680  0.7843  0.5491 -0.2476
  116SAPE    C112145   3.930   1.823   2.747 -0.3796  0.4558 -0.3228
  116SAPE    HA12146   3.996   1.737   2.724 -1.9572 -1.0882  0.7576
  116SAPE    HB12147   3.977   1.917   2.710 -0.3837  1.6655  2.4485
  116SAPE    C212148   3.912   1.838   2.896  0.5546 -0.0796 -0.0125
  116SAPE    HS12149   3.850   1.928   2.916  2.2193  0.9265  0.8450
  116SAPE   O2112150   4.036   1.844   2.964 -0.0153  0.3078 -0.0134
  116SAPE   C2112151   4.082   1.965   2.979 -0.3685  0.2470 -0.5126
  116SAPE   O2212152   4.029   2.068   2.944 -0.1922 -0.4288  0.1930
  116SAPE   C2212153   4.216   1.953   3.056 -0.1756 -0.5968  0.2289
  116SAPE   H2R12154   4.268   1.864   3.015 -1.8749 -1.3364 -0.3908
  116SAPE   H2S12155   4.272   2.049   3.049 -0.4723 -0.2359  2.3077
  116SAPE    C312156   3.835   1.719   2.948 -0.1260 -0.1451  0.9004
  116SAPE    HX12157   3.892   1.626   2.927  0.3805  0.2224  0.6130
  116SAPE    HY12158   3.739   1.705   2.893 -0.1030  0.2739  0.7515
  116SAPE   O3112159   3.801   1.755   3.080 -0.3175 -0.4761 -0.5108
  116SAPE   C3112160   3.880   1.699   3.178  1.2903 -0.0084  0.0209
  116SAPE   O3212161   3.984   1.639   3.161 -0.4374  0.0355 -0.5294
  116SAPE   C3212162   3.815   1.723   3.320 -0.5589 -0.8743 -0.0720
  116SAPE   H2X12163   3.711   1.756   3.302 -1.2349 -2.5272  0.6182
  116SAPE   H2Y12164   3.863   1.816   3.357 -0.4446 -1.3868  1.1297
  116SAPE   C2312165   4.189   1.910   3.201  0.4582  0.3781 -0.6252
  116SAPE   H3R12166   4.288   1.882   3.242  0.2417 -0.0876 -0.4068
  116SAPE   H3S12167   4.136   1.813   3.206  2.4379 -0.7646 -0.9846
  116SAPE   C2412168   4.113   2.010   3.285 -0.4727 -0.2554 -0.3617
  116SAPE   H4R12169   4.075   1.946   3.368 -1.9454  2.4268  1.1906
  116SAPE   H4S12170   4.030   2.048   3.221 -0.8490  1.4368  1.0536
  116SAPE   C2512171   4.187   2.129   3.343 -0.5235 -0.1502 -0.3027
  116SAPE   H5R12172   4.255   2.173   3.268  2.3466  5.0877  4.5266
  116SAPE   C2612173   4.160   2.186   3.468 -0.5707  0.9284  0.5121
  116SAPE   H6R12174   4.219   2.270   3.506  1.0782 -0.2687  0.7341
  116SAPE   C2712175   4.067   2.149   3.574 -0.5411  0.2345 -0.3551
  116SAPE   H7R12176   3.992   2.072   3.546 -0.1490 -0.3962  0.3170
  116SAPE   H7S12177   4.003   2.240   3.579  0.3195  0.7908  1.6663
  116SAPE   C2812178   4.122   2.111   3.706 -0.0715  0.6813 -0.3393
  116SAPE   H8R12179   4.224   2.071   3.708  0.0368  0.9846  0.6883
  116SAPE   C2912180   4.065   2.123   3.825 -0.2134 -0.3013 -0.5346
  116SAPE   H9R12181   4.114   2.091   3.919 -0.3552  0.1920 -0.2848
  116SAPE  C21012182   3.925   2.166   3.844  0.5255  0.2394 -0.3726
  116SAPE  H10R12183   3.876   2.087   3.903  0.6215 -1.4564 -2.4312
  116SAPE  H10S12184   3.863   2.168   3.751 -1.5630 -1.0938  0.8999
  116SAPE  C21112185   3.898   2.304   3.914 -0.0291  0.0521  0.1328
  116SAPE  H11R12186   3.882   2.385   3.842 -1.7848 -1.3341 -1.1106
  116SAPE  C21212187   3.900   2.342   4.045 -0.5734 -0.1507 -0.0664
  116SAPE  H12R12188   3.882   2.448   4.067  0.1071 -0.2289  0.9322
  116SAPE  C21312189   3.914   2.254   4.171  0.5628  0.5543  0.5997
  116SAPE  H13R12190   4.005   2.287   4.226  1.3777  0.3154 -0.5698
  116SAPE  H13S12191   3.918   2.149   4.136 -0.1582  1.2484 -1.7049
  116SAPE  C21412192   3.796   2.279   4.264 -0.3487  0.5716 -0.0627
  116SAPE  H14R12193   3.698   2.292   4.215 -1.7471 -3.0589  1.4240
  116SAPE  C21512194   3.791   2.275   4.400  0.6202 -0.0690  0.3848
  116SAPE  H15R12195   3.701   2.315   4.448  1.7303  1.4210  1.3148
  116SAPE  C21612196   3.914   2.246   4.485  0.5593 -0.0741  0.7516
  116SAPE  H16R12197   4.011   2.232   4.434  0.4474 -0.1259  0.5505
  116SAPE  H16S12198   3.895   2.155   4.546 -0.4226  0.5347  1.3808
  116SAPE  C21712199   3.934   2.358   4.584 -0.3664  0.4241 -0.2230
  116SAPE  H17R12200   4.003   2.315   4.661  2.3146  2.8734 -1.0601
  116SAPE  H17S12201   3.849   2.393   4.647  0.6161  2.4549  0.0555
  116SAPE  C21812202   4.004   2.480   4.525 -0.3089  0.0832 -0.0580
  116SAPE  H18R12203   3.931   2.553   4.483  1.2272  0.8116 -1.6194
  116SAPE  H18S12204   4.074   2.445   4.446  0.9904  2.8844 -0.2981
  116SAPE  C21912205   4.096   2.550   4.630 -0.2688  0.3953  0.6281
  116SAPE  H19R12206   4.169   2.478   4.674  0.4356  2.4369  2.9989
  116SAPE  H19S12207   4.039   2.576   4.721 -0.6194 -0.5678  0.6953
  116SAPE  C22012208   4.165   2.671   4.574 -0.2622  0.0685 -0.3403
  116SAPE  H20R12209   4.096   2.738   4.518  0.5713  0.4569 -0.9274
  116SAPE  H20S12210   4.233   2.643   4.491 -2.3085  0.6264 -2.3025
  116SAPE  H20T12211   4.229   2.721   4.650 -1.0844  1.4687 -0.5303
  116SAPE   C3312212   3.836   1.602   3.401  0.0251  0.3474  0.4992
  116SAPE   H3X12213   3.904   1.523   3.363 -4.3182 -4.0934  0.9891
  116SAPE   H3Y12214   3.736   1.554   3.406 -0.5188  1.1863 -1.4757
  116SAPE   C3412215   3.883   1.633   3.543 -0.0959  0.2785 -0.0074
  116SAPE   H4X12216   3.820   1.717   3.579  0.1599  0.3984  0.1648
  116SAPE   H4Y12217   3.988   1.672   3.545 -0.1621  0.5019 -0.7073
  116SAPE   C3512218   3.883   1.505   3.624  0.2822  0.0914  0.0953
  116SAPE   H5X12219   3.939   1.422   3.576  0.1937  0.1303 -0.0750
  116SAPE   H5Y12220   3.780   1.464   3.627 -0.2742  1.4330 -0.2112
  116SAPE   C3612221   3.938   1.534   3.768  0.2628  0.1061  0.5880
  116SAPE   H6X12222   3.878   1.614   3.816 -0.3596 -0.0179  0.0328
  116SAPE   H6Y12223   4.038   1.576   3.747  0.8571 -0.8936  1.3184
  116SAPE   C3712224   3.927   1.416   3.870  0.7815 -0.0758  0.0921
  116SAPE   H7X12225   3.992   1.440   3.956 -0.4721  0.3413  0.9395
  116SAPE   H7Y12226   3.968   1.325   3.821  1.3545 -0.5020  1.3278
  116SAPE   C3812227   3.787   1.401   3.920  0.4641 -0.0139 -0.1307
  116SAPE   H8X12228   3.719   1.394   3.833 -0.5545 -0.2258  0.6652
  116SAPE   H8Y12229   3.754   1.484   3.987  2.4489 -0.1723  1.1204
  116SAPE   C3912230   3.764   1.279   4.011 -0.4177  0.2092 -0.2309
  116SAPE   H9X12231   3.792   1.186   3.956 -0.1746 -0.6865  1.3418
  116SAPE   H9Y12232   3.654   1.279   4.027 -0.7501  1.6894 -2.2127
  116SAPE  C31012233   3.846   1.284   4.138  0.7169  0.5007 -0.5382
  116SAPE  H10X12234   3.799   1.355   4.209 -0.4369  0.1084 -0.8912
  116SAPE  H10Y12235   3.951   1.315   4.115  0.2740  3.2101  0.6968
  116SAPE  C31112236   3.853   1.139   4.187  0.3799 -0.0860 -0.1408
  116SAPE  H11X12237   3.938   1.090   4.134  1.1160 -0.9583  1.7487
  116SAPE  H11Y12238   3.765   1.077   4.160 -0.2187  0.9768 -0.6601
  116SAPE  C31212239   3.890   1.132   4.341 -0.4605 -0.1412  0.4315
  116SAPE  H12X12240   3.905   1.026   4.368  0.7906 -0.1955 -0.3804
  116SAPE  H12Y12241   3.793   1.140   4.393 -0.1530  1.3075  0.8299
  116SAPE  C31312242   4.000   1.216   4.400  0.5197  0.5410 -0.0227
  116SAPE  H13X12243   3.958   1.318   4.404  1.2090  0.7977  1.0544
  116SAPE  H13Y12244   4.075   1.228   4.319 -1.6922 -0.9437 -2.4482
  116SAPE  C31412245   4.072   1.173   4.519 -0.1319  0.6392  0.3921
  116SAPE  H14X12246   4.147   1.094   4.497  0.7302  1.3164  0.8036
  116SAPE  H14Y12247   4.001   1.143   4.599  0.5344  1.6087  1.3832
  116SAPE  C31512248   4.160   1.287   4.574 -0.6900  0.0708  0.5249
  116SAPE  H15X12249   4.099   1.372   4.612 -1.7893 -1.4937  2.4159
  116SAPE  H15Y12250   4.226   1.326   4.493 -1.3608 -0.0521 -0.0905
  116SAPE  C31612251   4.254   1.231   4.688  0.2876 -0.0491 -0.0597
  116SAPE  H16X12252   4.318   1.147   4.651  0.0014 -1.3665  2.2754
  116SAPE  H16Y12253   4.202   1.188   4.776  0.4991 -2.0933 -0.8675
  116SAPE  C31712254   4.350   1.345   4.720  0.9094  0.1450 -0.8512
  116SAPE  H17X12255   4.298   1.422   4.781  1.1222 -0.1226 -0.3293
  116SAPE  H17Y12256   4.384   1.401   4.631  0.4616  0.1370 -1.0311
  116SAPE  C31812257   4.481   1.295   4.790  0.2713  0.2682 -0.0812
  116SAPE  H18X12258   4.456   1.231   4.877  2.5945  1.6165  1.6936
  116SAPE  H18Y12259   4.547   1.377   4.825 -0.9928  1.5268 -0.5482
  116SAPE  H18Z12260   4.536   1.216   4.734  2.0924 -1.0741  3.3058
  117SOPE     N12261   4.682   2.790   6.949  0.2771  0.8659  0.7794
  117SOPE   HN112262   4.628   2.862   7.002 -0.7738  0.7007 -0.0374
  117SOPE   HN212263   4.777   2.769   6.985 -0.1889 -1.2302  0.8801
  117SOPE   HN312264   4.692   2.820   6.850  1.0098 -0.7170  0.3440
  117SOPE   C1212265   4.593   2.661   6.949 -0.9730  0.0141 -0.3955
  117SOPE  H12A12266   4.548   2.648   7.050 -0.0629  1.1441  0.1778
  117SOPE  H12B12267   4.659   2.575   6.924  1.0107  1.3351  0.0333
  117SOPE   C1112268   4.472   2.687   6.855  0.9107  0.3329  1.0755
  117SOPE  H11A12269   4.415   2.592   6.856  3.1811 -1.1807 -0.5044
  117SOPE  H11B12270   4.504   2.686   6.748  1.2786  0.2803  1.1835
  117SOPE     P12271   4.267   2.807   6.961 -0.1524 -0.3657  0.0327
  117SOPE   O1312272   4.210   2.945   6.952 -0.3740 -0.3690 -0.0173
  117SOPE   O1412273   4.287   2.751   7.094 -0.2054  0.3578  0.1974
  117SOPE   O1212274   4.396   2.809   6.871  0.1652 -0.5863 -0.0380
  117SOPE   O1112275   4.175   2.700   6.888  0.8847  0.3633 -0.4685
  117SOPE    C112276   4.099   2.730   6.766 -0.3554  0.2362 -0.4268
  117SOPE    HA12277   4.126   2.654   6.689 -2.5985 -0.9158 -0.1697
  117SOPE    HB12278   4.124   2.830   6.726  2.6167 -0.7360 -1.2640
  117SOPE    C212279   3.955   2.709   6.785  0.3923  0.7990 -0.2645
  117SOPE    HS12280   3.928   2.727   6.892  1.9923 -1.1878  0.5476
  117SOPE   O2112281   3.924   2.575   6.743 -0.1393 -0.5773 -0.0345
  117SOPE   C2112282   3.912   2.483   6.837 -0.4333  0.3689  0.6289
  117SOPE   O2212283   3.897   2.491   6.954 -0.1136 -0.5756 -0.2250
  117SOPE   C2212284   3.923   2.345   6.763 -0.4465  0.4968 -0.1073
  117SOPE   H2R12285   3.945   2.280   6.851 -0.1529  3.0117  1.7977
  117SOPE   H2S12286   4.007   2.363   6.692 -0.5964 -0.8085 -0.6401
  117SOPE    C312287   3.868   2.807   6.697  0.2364  0.1724  0.0242
  117SOPE    HX12288   3.902   2.912   6.709  1.6356 -0.2810  0.3287
  117SOPE    HY12289   3.766   2.819   6.738  0.6991  1.5323  0.8477
  117SOPE   O3112290   3.864   2.782   6.554 -0.1687 -0.4105  0.3463
  117SOPE   C3112291   3.774   2.685   6.518 -0.0694  0.2742 -0.1893
  117SOPE   O3212292   3.694   2.624   6.590  0.0981 -0.2821 -0.2722
  117SOPE   C3212293   3.789   2.666   6.367  0.5722  0.0096  0.4670
  117SOPE   H2X12294   3.873   2.729   6.332 -0.5515  2.3295  1.7047
  117SOPE   H2Y12295   3.702   2.705   6.310 -0.4465 -0.4610  1.6453
  117SOPE   C2312296   3.813   2.289   6.673 -0.0752  0.5835 -0.2088
  117SOPE   H3R12297   3.763   2.371   6.616  0.7363  0.9754 -0.3824
  117SOPE   H3S12298   3.741   2.237   6.739  0.7203 -3.3592 -2.1917
  117SOPE   C2412299   3.866   2.162   6.580  0.3344  0.4930  0.4954
  117SOPE   H4R12300   3.776   2.113   6.538  1.1886 -1.7858  1.1701
  117SOPE   H4S12301   3.917   2.213   6.495  0.2235 -1.3360 -0.7045
  117SOPE   C2512302   3.935   2.055   6.661 -0.2201  0.1381  0.3738
  117SOPE   H5R12303   4.026   2.101   6.704 -0.4960 -0.1509  1.2921
  117SOPE   H5S12304   3.878   2.030   6.754  2.3180 -0.3758  1.8833
  117SOPE   C2612305   3.976   1.935   6.585 -0.3301  0.8408 -0.1008
  117SOPE   H6R12306   4.037   1.874   6.655 -1.4677  1.0009  1.0643
  117SOPE   H6S12307   3.890   1.870   6.557  0.9738 -1.8457  1.6587
  117SOPE   C2712308   4.057   1.960   6.458 -0.4310 -0.2604 -0.0271
  117SOPE   H7R12309   4.108   2.055   6.485  1.5765 -0.7190 -1.9651
  117SOPE   H7S12310   4.129   1.877   6.441  0.1399  0.5508 -1.8027
  117SOPE   C2812311   3.984   1.975   6.326 -0.0899  0.1533  0.7084
  117SOPE   H8R12312   4.008   1.892   6.257  2.7945  1.0402  0.5378
  117SOPE   H8S12313   3.875   1.963   6.346 -0.0401 -1.4651  0.1832
  117SOPE   C2912314   3.997   2.108   6.248  0.0769  0.0525  0.0103
  117SOPE   H9112315   3.913   2.177   6.257 -0.1710 -0.0636 -1.2454
  117SOPE  C21012316   4.089   2.124   6.151 -0.5445  0.3316 -0.0331
  117SOPE  H10112317   4.071   2.211   6.085  1.7054  0.8540 -0.0348
  117SOPE  C21112318   4.197   2.028   6.094  0.4993  0.0358 -0.3608
  117SOPE  H11R12319   4.203   1.935   6.155  1.2070  0.6908  0.6071
  117SOPE  H11S12320   4.297   2.074   6.110  1.0135 -1.2071  0.1006
  117SOPE  C21212321   4.194   2.005   5.944  0.0926  0.1658  0.0866
  117SOPE  H12R12322   4.093   1.979   5.907 -0.0518  0.4673  0.2701
  117SOPE  H12S12323   4.261   1.919   5.920  1.2081  0.3533  2.2868
  117SOPE  C21312324   4.237   2.126   5.851  0.3547 -0.3328 -0.8845
  117SOPE  H13R12325   4.309   2.190   5.907 -1.2259 -0.9201  2.0423
  117SOPE  H13S12326   4.142   2.179   5.831 -0.8792 -1.1434  2.2905
  117SOPE  C21412327   4.295   2.088   5.715  0.2395  0.6558 -0.0456
  117SOPE  H14R12328   4.236   2.005   5.670  0.3216 -0.4769  1.8459
  117SOPE  H14S12329   4.399   2.051   5.732 -0.5513 -1.5802  0.2296
  117SOPE  C21512330   4.304   2.203   5.613 -0.3449  0.0094 -0.2678
  117SOPE  H15R12331   4.338   2.293   5.668 -0.6631  1.3426 -2.1673
  117SOPE  H15S12332   4.203   2.235   5.579 -0.2774 -1.0810 -1.6182
  117SOPE  C21612333   4.402   2.184   5.499 -0.2205  0.2682 -0.2426
  117SOPE  H16R12334   4.380   2.082   5.460  1.0282 -2.0503  4.3723
  117SOPE  H16S12335   4.503   2.183   5.545  0.5562 -0.4706 -1.8867
  117SOPE  C21712336   4.394   2.291   5.393 -0.2224 -0.3301 -0.4298
  117SOPE  H17R12337   4.398   2.386   5.450 -0.3872  0.0398 -1.0237
  117SOPE  H17S12338   4.300   2.297   5.333  0.6458 -1.3774 -1.9745
  117SOPE  C21812339   4.513   2.290   5.300  0.3838 -1.3409  0.6202
  117SOPE  H18R12340   4.523   2.387   5.247  0.1652 -1.5761  0.1429
  117SOPE  H18S12341   4.517   2.209   5.224 -2.4733 -2.9383  2.0203
  117SOPE  H18T12342   4.598   2.295   5.372  0.9580  1.4112 -0.1237
  117SOPE   C3312343   3.803   2.517   6.330 -0.5226  0.2005  0.2640
  117SOPE   H3X12344   3.739   2.461   6.402  0.4758 -1.2898  0.0437
  117SOPE   H3Y12345   3.905   2.487   6.360 -0.2315 -0.4691 -1.2775
  117SOPE   C3412346   3.790   2.478   6.186  0.1483  0.2584  0.0812
  117SOPE   H4X12347   3.703   2.524   6.134  0.3412  0.2534 -0.2477
  117SOPE   H4Y12348   3.754   2.374   6.189 -0.5476  0.4927 -0.1114
  117SOPE   C3512349   3.928   2.495   6.110  0.1104 -0.3040  0.0457
  117SOPE   H5X12350   3.990   2.416   6.157 -0.8596 -0.7767  0.5714
  117SOPE   H5Y12351   3.980   2.589   6.137 -4.1869  1.5512  2.9926
  117SOPE   C3612352   3.909   2.474   5.965 -0.1158 -0.1347 -0.3361
  117SOPE   H6X12353   3.847   2.559   5.927 -0.6498 -0.5782 -0.4741
  117SOPE   H6Y12354   3.847   2.383   5.951 -0.4592 -0.1813  1.2959
  117SOPE   C3712355   4.041   2.477   5.877 -0.2401  0.1984 -0.0824
  117SOPE   H7X12356   4.106   2.410   5.938 -0.5086 -0.7979 -0.8577
  117SOPE   H7Y12357   4.090   2.576   5.883 -0.5103  0.5315 -2.4442
  117SOPE   C3812358   4.046   2.426   5.729 -0.5667 -0.1917 -0.9962
  117SOPE   H8X12359   4.015   2.319   5.730  1.2178 -0.7458 -0.3790
  117SOPE   H8Y12360   4.152   2.417   5.697 -0.3531  0.1083 -0.3957
  117SOPE   C3912361   3.954   2.513   5.637 -0.0166 -0.4456  0.0835
  117SOPE   H9X12362   3.976   2.621   5.653 -1.1617 -0.1747 -0.1562
  117SOPE   H9Y12363   3.850   2.496   5.671  0.3278  0.5179  1.7749
  117SOPE  C31012364   3.960   2.463   5.496 -0.2083 -0.2120  0.8572
  117SOPE  H10X12365   3.923   2.359   5.484  1.8702 -0.9943  0.9025
  117SOPE  H10Y12366   4.065   2.473   5.463 -1.7163  0.3485 -4.7611
  117SOPE  C31112367   3.873   2.552   5.402  0.4897  0.7392 -0.9764
  117SOPE  H11X12368   3.908   2.658   5.406  3.1155 -0.0713 -0.0846
  117SOPE  H11Y12369   3.769   2.548   5.439  0.3735  2.0904 -1.0861
  117SOPE  C31212370   3.859   2.509   5.256 -0.4897  0.4739  0.0298
  117SOPE  H12X12371   3.814   2.407   5.259  2.0106 -0.6892  1.9498
  117SOPE  H12Y12372   3.960   2.504   5.209 -1.0798  0.0211 -1.2578
  117SOPE  C31312373   3.777   2.607   5.173  0.5256  0.1639  0.4756
  117SOPE  H13X12374   3.802   2.714   5.190 -1.7197  0.7836  0.1436
  117SOPE  H13Y12375   3.677   2.609   5.222  1.4240  1.8517  2.3853
  117SOPE  C31412376   3.769   2.586   5.018  0.0820  0.5647 -0.4206
  117SOPE  H14X12377   3.737   2.482   4.999 -0.4284  1.0114 -2.2193
  117SOPE  H14Y12378   3.872   2.601   4.978  0.4450 -1.2037 -0.2196
  117SOPE  C31512379   3.678   2.695   4.949  0.5053 -0.4010 -0.6424
  117SOPE  H15X12380   3.694   2.801   4.980 -0.6266 -0.0136 -1.3003
  117SOPE  H15Y12381   3.569   2.680   4.965  0.2138  1.7616 -0.2162
  117SOPE  C31612382   3.690   2.693   4.796  0.4772  0.1142 -0.4749
  117SOPE  H16X12383   3.606   2.635   4.752  0.6939 -0.5204 -0.0522
  117SOPE  H16Y12384   3.775   2.624   4.777 -0.7482 -2.0835  1.5438
  117SOPE  C31712385   3.699   2.828   4.730  0.1323 -0.5323  0.0096
  117SOPE  H17X12386   3.805   2.859   4.737 -0.1142  0.0284  1.9525
  117SOPE  H17Y12387   3.639   2.906   4.782 -1.0951 -1.5772  0.2120
  117SOPE  C31812388   3.653   2.826   4.586  0.3872 -0.5340  0.1955
  117SOPE  H18X12389   3.719   2.763   4.523  0.5559  2.0370 -2.3884
  117SOPE  H18Y12390   3.636   2.930   4.552  0.1314 -0.0498  1.7031
  117SOPE  H18Z12391   3.550   2.784   4.581  0.2034 -0.2952  1.5135
  118SOPE     N12392   4.957   3.365   6.816 -0.0956  0.0086  0.0771
  118SOPE   HN112393   4.944   3.440   6.888 -0.6461  0.0268 -0.0386
  118SOPE   HN212394   4.873   3.304   6.812  0.5609 -0.8483 -1.1161
  118SOPE   HN312395   5.043   3.309   6.834  0.8012  1.9087  2.2295
  118SOPE   C1212396   4.967   3.423   6.680 -0.0703  0.0877  0.1231
  118SOPE  H12A12397   4.992   3.342   6.608  0.2792 -0.1567  0.5162
  118SOPE  H12B12398   5.048   3.499   6.679  0.7473 -0.7446 -1.5821
  118SOPE   C1112399   4.822   3.468   6.645 -0.2932  0.1972 -0.3972
  118SOPE  H11A12400   4.746   3.389   6.661 -0.6341  0.7859  1.0742
  118SOPE  H11B12401   4.837   3.485   6.537 -0.7081  0.9528 -0.3479
  118SOPE     P12402   4.800   3.737   6.666 -0.3949 -0.0207  0.1343
  118SOPE   O1312403   4.938   3.752   6.610  0.3737  0.2974  0.1220
  118SOPE   O1412404   4.767   3.828   6.775  0.0341 -0.5228 -0.2828
  118SOPE   O1212405   4.775   3.586   6.712 -0.3341 -0.0347 -0.5802
  118SOPE   O1112406   4.702   3.761   6.549  0.0853 -0.5243 -0.0102
  118SOPE    C112407   4.684   3.895   6.491 -0.5485 -0.0792  0.4626
  118SOPE    HA12408   4.757   3.966   6.537 -2.4173  2.7886 -0.7281
  118SOPE    HB12409   4.586   3.939   6.520 -0.3739 -0.5582  1.8551
  118SOPE    C212410   4.715   3.891   6.340  0.5907  0.5873  0.3448
  118SOPE    HS12411   4.689   3.992   6.303 -0.3639  1.5477  3.2809
  118SOPE   O2112412   4.637   3.806   6.262 -0.0189 -0.3532 -0.4629
  118SOPE   C2112413   4.500   3.822   6.270 -0.6999 -0.6551 -0.3123
  118SOPE   O2212414   4.440   3.903   6.338  0.2257 -0.7077  0.4673
  118SOPE   C2212415   4.438   3.739   6.159  0.2870 -0.3473  0.0199
  118SOPE   H2R12416   4.331   3.747   6.188  0.3692 -1.4082  0.6478
  118SOPE   H2S12417   4.467   3.634   6.176  0.2168 -0.0837  2.0167
  118SOPE    C312418   4.864   3.860   6.314  0.5717  0.0279 -0.6937
  118SOPE    HX12419   4.886   3.761   6.359 -0.9135  0.6185  1.5112
  118SOPE    HY12420   4.921   3.935   6.374  1.0480 -0.9861  0.1460
  118SOPE   O3112421   4.905   3.890   6.175  0.8279  0.5008  0.0219
  118SOPE   C3112422   5.037   3.852   6.156  0.3478  0.1203 -0.1943
  118SOPE   O3212423   5.097   3.785   6.234 -0.4466  0.7518  0.1327
  118SOPE   C3212424   5.081   3.907   6.024  0.0154 -1.3045 -0.0802
  118SOPE   H2X12425   5.138   4.000   6.045 -1.4394 -0.5400  0.7035
  118SOPE   H2Y12426   4.987   3.937   5.972  0.5750  2.2846  0.7051
  118SOPE   C2312427   4.487   3.794   6.026 -0.3515  0.2563  0.3787
  118SOPE   H3R12428   4.597   3.776   6.022 -0.3410  0.5005 -1.4120
  118SOPE   H3S12429   4.464   3.903   6.021 -0.0769  0.3575  1.1390
  118SOPE   C2412430   4.423   3.732   5.898  0.0420 -0.8870  0.2717
  118SOPE   H4R12431   4.449   3.625   5.887 -0.5020 -0.9585 -0.4638
  118SOPE   H4S12432   4.312   3.738   5.899 -0.0210 -1.4609 -1.2038
  118SOPE   C2512433   4.496   3.784   5.771 -0.1262 -0.2914  0.1534
  118SOPE   H5R12434   4.475   3.892   5.759 -2.1703 -0.3872  2.2845
  118SOPE   H5S12435   4.603   3.761   5.787  0.6404  2.3580 -0.6375
  118SOPE   C2612436   4.448   3.719   5.637  0.0327  0.4908  0.3059
  118SOPE   H6R12437   4.483   3.614   5.637  0.4578  0.6198 -1.0490
  118SOPE   H6S12438   4.338   3.739   5.638 -0.2991 -1.1032 -0.5233
  118SOPE   C2712439   4.510   3.794   5.521  0.0560 -0.0808 -0.2394
  118SOPE   H7R12440   4.494   3.903   5.533  2.5766  0.1607  2.0539
  118SOPE   H7S12441   4.621   3.781   5.526  0.1753  0.8619 -0.2317
  118SOPE   C2812442   4.451   3.748   5.388 -0.3154  0.0334  0.0848
  118SOPE   H8R12443   4.474   3.639   5.384  0.2172  0.1725 -3.3161
  118SOPE   H8S12444   4.341   3.766   5.389 -0.1312  1.3016  1.5298
  118SOPE   C2912445   4.534   3.806   5.272  0.1546  0.3754 -0.3105
  118SOPE   H9112446   4.643   3.808   5.289  0.1243 -1.8880  0.4025
  118SOPE  C21012447   4.493   3.842   5.148  0.1159 -0.4300  0.6103
  118SOPE  H10112448   4.556   3.901   5.079 -0.0389  1.0432  1.6850
  118SOPE  C21112449   4.359   3.842   5.090 -0.4830 -0.2583 -0.3180
  118SOPE  H11R12450   4.322   3.946   5.078 -1.4465 -0.8474 -3.0727
  118SOPE  H11S12451   4.294   3.781   5.156  0.3503 -0.1772  0.6153
  118SOPE  C21212452   4.368   3.773   4.948 -0.3319  0.3123 -0.6675
  118SOPE  H12R12453   4.426   3.679   4.954 -1.5357 -0.3825  0.9872
  118SOPE  H12S12454   4.439   3.833   4.888  1.0247  0.4762  1.0225
  118SOPE  C21312455   4.231   3.771   4.881 -0.8946  0.4007  0.2936
  118SOPE  H13R12456   4.163   3.723   4.955  0.3228 -1.8268  0.0401
  118SOPE  H13S12457   4.239   3.700   4.796 -0.6661 -0.3168  0.9060
  118SOPE  C21412458   4.172   3.899   4.825 -0.2117  0.1117 -0.2120
  118SOPE  H14R12459   4.253   3.958   4.777 -0.3457  1.5913  1.2780
  118SOPE  H14S12460   4.132   3.952   4.915  0.5366  1.0017 -0.3872
  118SOPE  C21512461   4.060   3.884   4.720  0.9837 -0.3870 -0.1737
  118SOPE  H15R12462   3.966   3.854   4.770  1.0457 -1.3009 -0.5766
  118SOPE  H15S12463   4.084   3.815   4.636 -0.2850  1.4182 -2.1191
  118SOPE  C21612464   4.034   4.018   4.647  0.2672  0.2454 -0.1559
  118SOPE  H16R12465   4.123   4.041   4.584  0.6828 -2.2448 -0.5735
  118SOPE  H16S12466   4.014   4.106   4.712 -2.1319 -1.5883  1.7853
  118SOPE  C21712467   3.919   3.998   4.559  0.2660  0.7423 -0.1035
  118SOPE  H17R12468   3.828   3.985   4.622  0.1652  0.1515 -0.3682
  118SOPE  H17S12469   3.923   3.906   4.497 -4.0606  0.7695 -0.7267
  118SOPE  C21812470   3.898   4.114   4.473  0.3476  0.3063 -0.2025
  118SOPE  H18R12471   3.973   4.122   4.391  0.4625 -0.5875 -0.1914
  118SOPE  H18S12472   3.908   4.205   4.536 -0.9499 -0.5213  1.2543
  118SOPE  H18T12473   3.798   4.099   4.426  0.4144 -1.2270  0.1173
  118SOPE   C3312474   5.165   3.812   5.948  0.7030 -0.0961 -0.1739
  118SOPE   H3X12475   5.128   3.710   5.924 -0.9718  0.6026 -0.7314
  118SOPE   H3Y12476   5.261   3.788   5.999 -0.3510 -0.6970  1.6119
  118SOPE   C3412477   5.218   3.874   5.815  0.1948  0.2490 -0.5564
  118SOPE   H4X12478   5.329   3.868   5.812  0.3474  2.6126 -2.0108
  118SOPE   H4Y12479   5.213   3.984   5.827  0.5843  0.1619  0.4626
  118SOPE   C3512480   5.148   3.820   5.692  0.2135  0.4452  0.2599
  118SOPE   H5X12481   5.043   3.853   5.713  1.0196  3.6118 -0.1862
  118SOPE   H5Y12482   5.154   3.710   5.698 -1.0517  0.4249  2.3544
  118SOPE   C3612483   5.204   3.888   5.562 -0.0336 -0.1270  0.0516
  118SOPE   H6X12484   5.314   3.907   5.572  0.1641 -0.2436 -1.6609
  118SOPE   H6Y12485   5.150   3.983   5.541  0.8595  0.1058 -1.3433
  118SOPE   C3712486   5.169   3.790   5.448  0.3217  0.6103 -0.5388
  118SOPE   H7X12487   5.059   3.783   5.460  0.3575  1.5902  0.5735
  118SOPE   H7Y12488   5.229   3.697   5.460 -0.2448  0.2062 -0.7729
  118SOPE   C3812489   5.209   3.841   5.308  0.1403 -0.4709  0.7238
  118SOPE   H8X12490   5.319   3.857   5.305 -0.0451  0.9159  0.8869
  118SOPE   H8Y12491   5.169   3.944   5.302 -0.3883 -0.7561 -1.3307
  118SOPE   C3912492   5.147   3.770   5.190 -0.2817  0.0212  0.7851
  118SOPE   H9X12493   5.037   3.775   5.203 -0.2692 -0.1573  0.9819
  118SOPE   H9Y12494   5.174   3.662   5.191 -0.1433  0.0552  1.0863
  118SOPE  C31012495   5.193   3.832   5.060  0.0466 -0.3066  0.3356
  118SOPE  H10X12496   5.301   3.857   5.071 -0.3877  1.9832 -0.2499
  118SOPE  H10Y12497   5.138   3.928   5.064 -1.7963 -1.2869 -0.3692
  118SOPE  C31112498   5.173   3.742   4.939 -0.5038 -0.9055  0.0870
  118SOPE  H11X12499   5.063   3.727   4.928 -0.4648 -0.9788 -0.2108
  118SOPE  H11Y12500   5.214   3.639   4.937 -0.9560 -1.1040  0.7388
  118SOPE  C31212501   5.221   3.819   4.805  0.7974  1.0205  0.4794
  118SOPE  H12X12502   5.323   3.853   4.834  1.5416 -0.9186  0.3150
  118SOPE  H12Y12503   5.160   3.908   4.778 -2.1271 -0.5363  1.4471
  118SOPE  C31312504   5.229   3.729   4.687 -0.9413 -0.1919 -0.1878
  118SOPE  H13X12505   5.131   3.678   4.678 -1.1685  0.4141 -1.3495
  118SOPE  H13Y12506   5.303   3.648   4.707 -1.2131 -0.3263  0.2737
  118SOPE  C31412507   5.280   3.801   4.561 -0.3717 -0.5832  0.8578
  118SOPE  H14X12508   5.371   3.861   4.583 -0.6621 -0.1898  1.0175
  118SOPE  H14Y12509   5.213   3.886   4.534  0.7089 -0.2462 -0.8815
  118SOPE  C31512510   5.298   3.703   4.449 -0.2705  1.1013  0.4062
  118SOPE  H15X12511   5.195   3.678   4.415  0.3611 -0.5225 -0.3982
  118SOPE  H15Y12512   5.349   3.612   4.487 -2.9450 -1.3629 -1.4004
  118SOPE  C31612513   5.364   3.760   4.323  0.4317 -0.4081  0.1576
  118SOPE  H16X12514   5.463   3.800   4.356 -1.0845  2.1140  1.9875
  118SOPE  H16Y12515   5.289   3.838   4.297  0.2764 -0.2742  0.9846
  118SOPE  C31712516   5.384   3.655   4.207 -0.1412 -0.4154  0.5975
  118SOPE  H17X12517   5.290   3.634   4.151  0.6027  1.1419 -1.3382
  118SOPE  H17Y12518   5.415   3.563   4.262 -0.9120 -1.3582 -0.5071
  118SOPE  C31812519   5.496   3.699   4.116 -0.1619  0.2293  0.1897
  118SOPE  H18X12520   5.461   3.788   4.059 -1.6589 -0.5551 -0.1802
  118SOPE  H18Y12521   5.519   3.617   4.045  0.7287 -0.0802  0.8266
  118SOPE  H18Z12522   5.587   3.728   4.173 -2.3223  0.7976  3.7148
  119SOPE     N12523   0.085   5.139   6.729 -0.3414 -0.6298 -0.5547
  119SOPE   HN112524   0.136   5.154   6.640 -0.0841 -0.3613 -0.3628
  119SOPE   HN212525   0.083   5.231   6.777 -0.0790 -0.2957 -1.1850
  119SOPE   HN312526   0.148   5.077   6.785  2.5979  0.1786 -2.7559
  119SOPE   C1212527  -0.050   5.067   6.723 -0.0152 -0.2795  0.4769
  119SOPE  H12A12528  -0.125   5.141   6.758 -0.2594  0.5600 -1.6235
  119SOPE  H12B12529  -0.047   4.991   6.803 -1.7891 -1.4117 -0.4563
  119SOPE   C1112530  -0.091   5.018   6.583  0.4015 -0.3783 -0.2863
  119SOPE  H11A12531  -0.087   5.097   6.504  2.2551 -0.7977 -0.6535
  119SOPE  H11B12532  -0.196   4.981   6.584  0.4711 -0.5506  1.0585
  119SOPE     P12533  -0.012   4.768   6.582  0.2852 -0.1416 -0.3014
  119SOPE   O1312534   0.014   4.691   6.461 -0.2976 -0.0641  0.0538
  119SOPE   O1412535  -0.136   4.736   6.661 -0.0560  0.0665 -0.2189
  119SOPE   O1212536  -0.011   4.912   6.532  0.0423 -0.2444  0.2680
  119SOPE   O1112537   0.114   4.754   6.676  0.4387  0.0460 -0.0359
  119SOPE    C112538   0.243   4.692   6.656  0.4865 -0.4461  0.4492
  119SOPE    HA12539   0.235   4.613   6.579 -1.4839 -0.7746  0.9427
  119SOPE    HB12540   0.272   4.644   6.752  1.1834  2.2660  1.6992
  119SOPE    C212541   0.358   4.796   6.612  0.2126  0.1548  0.3650
  119SOPE    HS12542   0.368   4.867   6.697 -0.0388  0.6154  0.0082
  119SOPE   O2112543   0.311   4.858   6.496 -0.2910 -0.7818 -0.1890
  119SOPE   C2112544   0.363   4.976   6.458  0.0961  0.0331 -0.2631
  119SOPE   O2212545   0.448   5.037   6.519  0.2738 -0.4534 -0.0572
  119SOPE   C2212546   0.287   5.026   6.336  0.4769  0.2238  0.1313
  119SOPE   H2R12547   0.345   5.114   6.301  1.6157 -0.6576 -0.2738
  119SOPE   H2S12548   0.184   5.051   6.368 -0.3049 -1.3273 -1.0360
  119SOPE    C312549   0.494   4.718   6.592  0.1390  0.8132 -0.1657
  119SOPE    HX12550   0.515   4.668   6.689 -1.0059  0.5492 -0.0402
  119SOPE    HY12551   0.575   4.787   6.560  0.8689  0.0386 -0.0309
  119SOPE   O3112552   0.482   4.613   6.494  0.2706 -0.1706 -0.1177
  119SOPE   C3112553   0.587   4.542   6.477 -1.1026  0.0430 -0.0292
  119SOPE   O3212554   0.694   4.553   6.536 -0.0834  0.1549 -0.3008
  119SOPE   C3212555   0.556   4.426   6.385 -0.6018  0.3007  0.4839
  119SOPE   H2X12556   0.451   4.431   6.348 -0.7770 -1.1834  0.7286
  119SOPE   H2Y12557   0.564   4.334   6.447 -2.5229 -1.1512 -1.2699
  119SOPE   C2312558   0.279   4.925   6.231 -0.7626  0.0724  0.5666
  119SOPE   H3R12559   0.217   4.964   6.147  1.4358  2.6625  0.0155
  119SOPE   H3S12560   0.228   4.831   6.261 -1.3806  0.0860 -0.3843
  119SOPE   C2412561   0.414   4.894   6.161  0.5324 -0.0178  0.0601
  119SOPE   H4R12562   0.471   4.989   6.166  0.1080  0.1850  1.4791
  119SOPE   H4S12563   0.480   4.829   6.223  1.6203 -0.1290 -1.1684
  119SOPE   C2512564   0.398   4.830   6.030  0.6016 -0.2675  0.3700
  119SOPE   H5R12565   0.315   4.757   6.024 -0.0209  0.1893  2.7385
  119SOPE   H5S12566   0.363   4.913   5.964  0.6571  0.2474  0.9855
  119SOPE   C2612567   0.533   4.777   5.974 -0.0003 -0.0215  0.0220
  119SOPE   H6R12568   0.607   4.860   5.977 -2.0341  2.0109 -2.2025
  119SOPE   H6S12569   0.576   4.702   6.044 -2.6397 -1.1095  0.6267
  119SOPE   C2712570   0.525   4.730   5.831  0.5148 -0.1216 -0.0611
  119SOPE   H7R12571   0.426   4.682   5.814  0.1764  1.0728 -1.6859
  119SOPE   H7S12572   0.518   4.812   5.757 -1.3626 -1.9338 -2.0430
  119SOPE   C2812573   0.645   4.641   5.786  0.6057 -0.1048 -0.2609
  119SOPE   H8R12574   0.736   4.704   5.775  0.0925  0.3774 -2.1635
  119SOPE   H8S12575   0.673   4.575   5.871 -2.1578 -0.1380  0.7034
  119SOPE   C2912576   0.620   4.563   5.660  0.4537 -0.4083  0.4427
  119SOPE   H9112577   0.556   4.474   5.660 -0.7984  0.3901 -2.2033
  119SOPE  C21012578   0.667   4.600   5.536  0.0072  0.9835 -0.0371
  119SOPE  H10112579   0.634   4.545   5.447  2.4087  2.5702 -2.0287
  119SOPE  C21112580   0.758   4.715   5.497  0.4583 -0.4974  0.5004
  119SOPE  H11R12581   0.838   4.735   5.572  1.2719 -0.2822 -0.4130
  119SOPE  H11S12582   0.701   4.811   5.496 -0.0846 -0.7905  1.6355
  119SOPE  C21212583   0.824   4.692   5.361 -1.1193  0.1211  0.6595
  119SOPE  H12R12584   0.876   4.594   5.349 -1.2266  0.1903 -0.4524
  119SOPE  H12S12585   0.898   4.775   5.358 -0.1389 -0.7453 -1.2612
  119SOPE  C21312586   0.734   4.706   5.236 -0.2071 -0.1742  0.3980
  119SOPE  H13R12587   0.786   4.661   5.149 -2.0215 -1.0479 -0.2845
  119SOPE  H13S12588   0.726   4.815   5.217 -0.3721 -0.5033 -1.6357
  119SOPE  C21412589   0.586   4.653   5.240 -0.4407 -0.2055 -0.2812
  119SOPE  H14R12590   0.527   4.705   5.319 -0.3904  1.1534 -1.1189
  119SOPE  H14S12591   0.587   4.543   5.254 -1.5994 -0.1424  0.4694
  119SOPE  C21512592   0.503   4.692   5.121 -0.6290 -0.5274 -0.6065
  119SOPE  H15R12593   0.567   4.676   5.032  2.6882 -2.5452  1.8838
  119SOPE  H15S12594   0.474   4.799   5.122  0.1146 -0.3191 -0.6127
  119SOPE  C21612595   0.378   4.603   5.102  0.0139 -0.0475 -0.1477
  119SOPE  H16R12596   0.307   4.618   5.186 -0.2868  1.1766 -0.5919
  119SOPE  H16S12597   0.407   4.496   5.094 -0.7414 -0.6686  3.7042
  119SOPE  C21712598   0.295   4.647   4.979 -0.4388  0.1702 -0.0061
  119SOPE  H17R12599   0.343   4.631   4.880 -2.5608  0.8186 -1.1901
  119SOPE  H17S12600   0.305   4.757   4.981  0.6135  0.1318 -1.3652
  119SOPE  C21812601   0.144   4.607   4.976 -0.5180  0.4406  0.0226
  119SOPE  H18R12602   0.101   4.637   5.075  1.1780 -0.8661  1.2135
  119SOPE  H18S12603   0.131   4.497   4.968 -1.4619  0.6206 -1.0723
  119SOPE  H18T12604   0.094   4.659   4.892  0.7465  0.1728 -0.9230
  119SOPE   C3312605   0.668   4.405   6.275  0.0139  0.7434 -0.6458
  119SOPE   H3X12606   0.766   4.401   6.327  0.5670 -0.0624 -1.7193
  119SOPE   H3Y12607   0.655   4.482   6.195 -1.7977  0.5005 -0.6224
  119SOPE   C3412608   0.672   4.267   6.212 -0.0952  0.3308  0.3175
  119SOPE   H4X12609   0.578   4.262   6.151 -0.4737  3.0466  0.5221
  119SOPE   H4Y12610   0.656   4.195   6.294 -0.6172  0.5290  0.3969
  119SOPE   C3512611   0.795   4.233   6.126 -0.3634  0.3265 -0.2867
  119SOPE   H5X12612   0.801   4.130   6.084 -2.3700 -1.0689  2.5202
  119SOPE   H5Y12613   0.876   4.264   6.195 -1.6379 -0.0160  1.4494
  119SOPE   C3612614   0.804   4.327   6.003  0.0645  0.0414 -0.5674
  119SOPE   H6X12615   0.801   4.431   6.041  0.8198  0.5247 -1.7640
  119SOPE   H6Y12616   0.712   4.303   5.945 -0.1402  1.1216 -0.7164
  119SOPE   C3712617   0.915   4.299   5.903  0.5049 -0.0495 -0.1020
  119SOPE   H7X12618   0.925   4.189   5.889 -0.8542  0.0359 -2.2958
  119SOPE   H7Y12619   1.011   4.338   5.944 -0.7304  0.8983  2.0582
  119SOPE   C3812620   0.889   4.370   5.765  0.3998  0.7966 -0.0052
  119SOPE   H8X12621   0.891   4.481   5.773  1.3660  0.7087  1.3228
  119SOPE   H8Y12622   0.795   4.329   5.724  0.6424 -0.5438  0.7184
  119SOPE   C3912623   0.996   4.333   5.669  0.2240 -0.3125  0.2112
  119SOPE   H9X12624   1.014   4.224   5.679  1.7218  0.0952  2.5656
  119SOPE   H9Y12625   1.094   4.383   5.685  1.1982 -0.9406 -2.9770
  119SOPE  C31012626   0.951   4.360   5.516 -0.2085  0.9236  0.2411
  119SOPE  H10X12627   0.943   4.470   5.505  1.8310  0.8830 -2.5265
  119SOPE  H10Y12628   0.854   4.307   5.499  0.0622  1.2420 -2.8741
  119SOPE  C31112629   1.050   4.304   5.410 -0.3636  0.0840 -0.5746
  119SOPE  H11X12630   1.057   4.194   5.426  2.8200  0.0525 -1.4633
  119SOPE  H11Y12631   1.153   4.339   5.432 -0.1416 -0.3288 -0.9451
  119SOPE  C31212632   1.020   4.335   5.267  0.0029 -0.0911 -0.4900
  119SOPE  H12X12633   1.024   4.445   5.252  0.0950  0.1087  0.8777
  119SOPE  H12Y12634   0.918   4.292   5.253  1.2349 -3.2284 -0.7077
  119SOPE  C31312635   1.108   4.268   5.164  0.0616 -0.5459  0.7547
  119SOPE  H13X12636   1.120   4.162   5.193 -0.5085 -0.9321 -0.3858
  119SOPE  H13Y12637   1.214   4.302   5.154 -0.2285  0.5703  1.3199
  119SOPE  C31412638   1.050   4.283   5.017 -0.3755  0.0157 -0.4453
  119SOPE  H14X12639   0.946   4.243   5.014  0.0207 -1.0039 -1.2049
  119SOPE  H14Y12640   1.117   4.219   4.957  2.9649  1.4632  1.4731
  119SOPE  C31512641   1.046   4.429   4.969  0.0184  0.4569  0.0142
  119SOPE  H15X12642   0.986   4.488   5.042 -1.8956 -1.8498  0.4291
  119SOPE  H15Y12643   1.003   4.427   4.867  2.2852 -0.4881 -1.0002
  119SOPE  C31612644   1.187   4.493   4.945 -1.0411 -0.3839 -0.4475
  119SOPE  H16X12645   1.247   4.438   4.869 -0.0657 -0.5912  0.4420
  119SOPE  H16Y12646   1.246   4.475   5.038 -0.7502 -0.9803 -0.7351
  119SOPE  C31712647   1.172   4.643   4.919  0.0142 -0.4255  0.0432
  119SOPE  H17X12648   1.134   4.690   5.013 -1.3243 -0.3189 -0.5306
  119SOPE  H17Y12649   1.107   4.659   4.830  1.0262  0.4505 -0.5539
  119SOPE  C31812650   1.310   4.703   4.884 -0.0232 -0.0364  0.3163
  119SOPE  H18X12651   1.344   4.677   4.781  0.2720 -1.9170  0.8483
  119SOPE  H18Y12652   1.389   4.660   4.949  0.8976 -1.3639 -1.5796
  119SOPE  H18Z12653   1.287   4.811   4.887 -2.3637 -0.3760 -1.7630
  120SOPE     N12654   6.659   1.312   6.885  0.3780  0.0898  0.1352
  120SOPE   HN112655   6.583   1.383   6.879 -0.9218 -1.1682  1.0729
  120SOPE   HN212656   6.746   1.365   6.867  0.6495 -1.1194 -2.6876
  120SOPE   HN312657   6.648   1.236   6.815 -2.0831 -0.0730  0.6088
  120SOPE   C1212658   6.676   1.256   7.021 -0.3656  0.0460 -0.1111
  120SOPE  H12A12659   6.578   1.221   7.058 -0.9530  2.6929  1.0506
  120SOPE  H12B12660   6.695   1.335   7.096 -0.1199  1.9422 -2.0565
  120SOPE   C1112661   6.771   1.136   7.025  0.1369  0.6963  0.5105
  120SOPE  H11A12662   6.721   1.049   6.977 -1.4396 -0.2095  3.5395
  120SOPE  H11B12663   6.781   1.094   7.127 -2.8757  0.8440  0.9540
  120SOPE     P12664   7.025   1.189   7.045  0.5615  0.0051  0.3322
  120SOPE   O1312665   7.097   1.063   7.092  0.6071 -1.1814 -0.2348
  120SOPE   O1412666   6.988   1.296   7.146 -0.3754  0.0672  0.3965
  120SOPE   O1212667   6.895   1.157   6.959  0.7178 -0.0948 -0.0775
  120SOPE   O1112668   7.119   1.260   6.938 -0.2476 -0.3850 -0.3286
  120SOPE    C112669   7.129   1.211   6.805 -0.4756 -0.0543  0.3948
  120SOPE    HA12670   7.181   1.292   6.750  0.0154  0.0266  0.9592
  120SOPE    HB12671   7.034   1.197   6.749 -0.2507 -0.6705  0.1607
  120SOPE    C212672   7.214   1.090   6.788 -0.7385 -0.2582 -0.2104
  120SOPE    HS12673   7.157   1.001   6.821 -1.8393 -0.0194 -1.3789
  120SOPE   O2112674   7.337   1.112   6.866  0.1000 -0.7971  0.1786
  120SOPE   C2112675   7.388   1.011   6.924  0.1867 -0.9698  0.0729
  120SOPE   O2212676   7.333   0.903   6.933  0.2368 -0.5359  0.0069
  120SOPE   C2212677   7.527   1.042   6.978  0.3377 -0.5298 -0.9096
  120SOPE   H2R12678   7.518   0.994   7.078 -0.4964 -1.6834 -1.5001
  120SOPE   H2S12679   7.545   1.150   6.995 -0.2369 -0.1564 -2.4076
  120SOPE    C312680   7.255   1.068   6.640 -0.6190  0.3892 -0.4369
  120SOPE    HX12681   7.288   0.962   6.640  0.3099  0.6603 -1.4503
  120SOPE    HY12682   7.335   1.133   6.599 -0.7320  1.1438  0.5082
  120SOPE   O3112683   7.134   1.102   6.559 -0.3618  0.1545  0.4415
  120SOPE   C3112684   7.074   0.990   6.512 -0.1137 -0.4526  0.4582
  120SOPE   O3212685   7.126   0.879   6.525  0.2045  0.5351  0.8339
  120SOPE   C3212686   6.947   1.033   6.428  0.3635  0.0755 -0.6056
  120SOPE   H2X12687   6.905   1.125   6.472  0.5608 -0.1898  0.1550
  120SOPE   H2Y12688   6.870   0.953   6.431  0.7624 -0.2944  0.2778
  120SOPE   C2312689   7.641   0.975   6.893  0.2776  0.5590  0.5693
  120SOPE   H3R12690   7.589   0.889   6.846 -0.1106  0.1225  1.7710
  120SOPE   H3S12691   7.705   0.933   6.974  0.7759  0.9523  0.3904
  120SOPE   C2412692   7.732   1.065   6.806  0.9641 -0.6180 -0.2880
  120SOPE   H4R12693   7.729   1.159   6.865 -1.8194  0.6284 -2.2152
  120SOPE   H4S12694   7.840   1.039   6.799  1.2140  0.6263 -1.5046
  120SOPE   C2512695   7.684   1.092   6.662  0.0483  0.1846 -1.0759
  120SOPE   H5R12696   7.727   1.011   6.599  1.3157 -0.6667  0.7961
  120SOPE   H5S12697   7.573   1.089   6.667 -0.0505  0.7174 -2.6424
  120SOPE   C2612698   7.730   1.232   6.619  0.4218  0.1892  0.0500
  120SOPE   H6R12699   7.686   1.307   6.688  1.9666  0.1735  1.1148
  120SOPE   H6S12700   7.839   1.233   6.643  0.3659  0.7929  0.3114
  120SOPE   C2712701   7.698   1.263   6.472 -0.1192  0.4229 -0.1193
  120SOPE   H7R12702   7.737   1.187   6.401  1.4793  0.2240  0.9291
  120SOPE   H7S12703   7.588   1.271   6.455 -0.1668 -0.5630 -0.3267
  120SOPE   C2812704   7.748   1.405   6.430 -0.7487  0.7316  0.0428
  120SOPE   H8R12705   7.738   1.476   6.515  1.0011  0.5311  0.4596
  120SOPE   H8S12706   7.859   1.402   6.427 -0.7728 -0.4139 -0.2649
  120SOPE   C2912707   7.683   1.459   6.300 -0.2113 -0.5573 -0.2443
  120SOPE   H9112708   7.585   1.509   6.306 -0.0597 -0.2491 -0.3223
  120SOPE  C21012709   7.717   1.417   6.181  0.1512  0.1313 -0.1261
  120SOPE  H10112710   7.669   1.460   6.091  0.4164  0.5535 -0.0668
  120SOPE  C21112711   7.825   1.320   6.139 -0.6378  0.4878 -0.2924
  120SOPE  H11R12712   7.790   1.215   6.140  0.3612  0.1210 -1.3355
  120SOPE  H11S12713   7.897   1.320   6.223 -0.3938 -0.0716 -0.4941
  120SOPE  C21212714   7.906   1.375   6.018 -0.3613 -0.0742 -0.2039
  120SOPE  H12R12715   8.008   1.332   6.029 -0.7455 -0.6242  1.4518
  120SOPE  H12S12716   7.912   1.485   6.036 -1.7600  0.0359 -0.2859
  120SOPE  C21312717   7.842   1.334   5.883  0.0271 -0.3224  0.5161
  120SOPE  H13R12718   7.741   1.380   5.876  0.8911  1.4650 -5.5472
  120SOPE  H13S12719   7.816   1.226   5.888 -0.6743 -0.4249 -3.0928
  120SOPE  C21412720   7.924   1.377   5.765 -0.3453 -0.1696 -0.4808
  120SOPE  H14R12721   8.023   1.328   5.773 -0.5470 -0.7910 -1.5572
  120SOPE  H14S12722   7.935   1.487   5.767 -2.2570  0.0545  0.4591
  120SOPE  C21512723   7.872   1.325   5.626  0.6788 -0.5305 -0.1554
  120SOPE  H15R12724   7.762   1.341   5.621  0.4965 -1.9233 -1.3359
  120SOPE  H15S12725   7.886   1.215   5.621  0.1367 -0.6949  1.4444
  120SOPE  C21612726   7.928   1.408   5.513 -0.0179  0.6431  0.1186
  120SOPE  H16R12727   8.037   1.385   5.507  0.3524  2.1183  0.6327
  120SOPE  H16S12728   7.923   1.518   5.527  1.8135  0.6995  0.6428
  120SOPE  C21712729   7.866   1.372   5.370  0.7986 -0.0258  0.7203
  120SOPE  H17R12730   7.773   1.433   5.366  0.8013  0.0134  1.1853
  120SOPE  H17S12731   7.848   1.265   5.343 -4.4527  0.2820  1.9043
  120SOPE  C21812732   7.959   1.437   5.269 -0.9665 -0.6273 -0.1599
  120SOPE  H18R12733   8.062   1.401   5.288 -0.8932  0.1462  0.9974
  120SOPE  H18S12734   7.966   1.546   5.289  0.0634 -0.7035 -0.0722
  120SOPE  H18T12735   7.927   1.422   5.164 -0.7279  0.4642 -0.3998
  120SOPE   C3312736   6.970   1.059   6.274  0.2789  0.0118 -0.0640
  120SOPE   H3X12737   7.034   1.150   6.264 -2.8401  2.2863 -1.0730
  120SOPE   H3Y12738   6.870   1.084   6.231 -0.1339 -0.7854  0.4291
  120SOPE   C3412739   7.043   0.933   6.217  0.4174  0.0666 -0.0853
  120SOPE   H4X12740   6.994   0.839   6.248  2.3497 -2.0003 -2.7585
  120SOPE   H4Y12741   7.146   0.932   6.257  0.1539 -0.1369  0.5907
  120SOPE   C3512742   7.064   0.942   6.069 -0.3168 -0.6688  0.2873
  120SOPE   H5X12743   7.151   0.884   6.032  1.2624  0.0118  2.7262
  120SOPE   H5Y12744   7.095   1.045   6.044  0.6268 -1.3389 -1.4624
  120SOPE   C3612745   6.948   0.904   5.975 -0.1190 -0.5226  0.3052
  120SOPE   H6X12746   6.857   0.965   5.993  1.0396  1.5139 -0.4508
  120SOPE   H6Y12747   6.907   0.806   6.010  1.7062 -1.4041  0.0994
  120SOPE   C3712748   6.992   0.895   5.829 -0.6828 -0.5604  0.6207
  120SOPE   H7X12749   6.909   0.861   5.763  0.9203  1.2640 -2.5754
  120SOPE   H7Y12750   7.075   0.821   5.819 -0.2774 -0.0068 -0.2345
  120SOPE   C3812751   7.044   1.030   5.770 -0.0857 -0.6067 -0.0330
  120SOPE   H8X12752   7.108   1.092   5.836 -0.5514  1.8044 -1.7215
  120SOPE   H8Y12753   6.952   1.085   5.742 -0.3000 -0.5064  0.8459
  120SOPE   C3912754   7.123   1.017   5.640  0.4247 -0.0919  0.3480
  120SOPE   H9X12755   7.215   0.958   5.663 -0.4899 -1.7452 -0.0596
  120SOPE   H9Y12756   7.150   1.122   5.616  0.7064 -0.0243  0.9445
  120SOPE  C31012757   7.043   0.944   5.531  0.7514 -0.3624 -0.1735
  120SOPE  H10X12758   6.953   1.002   5.503 -1.2919 -2.5573  1.4320
  120SOPE  H10Y12759   7.000   0.848   5.567  1.2866 -0.8102 -0.7058
  120SOPE  C31112760   7.121   0.914   5.403  0.2405 -0.2525 -0.1758
  120SOPE  H11X12761   7.207   0.844   5.410 -0.6069 -1.4395 -1.0216
  120SOPE  H11Y12762   7.167   1.005   5.358  1.5854 -0.8374 -0.0328
  120SOPE  C31212763   7.022   0.837   5.304 -0.1801  0.0488  0.4115
  120SOPE  H12X12764   6.936   0.905   5.288 -0.0034 -0.4158 -3.4210
  120SOPE  H12Y12765   6.969   0.747   5.343  0.7839 -1.3660 -1.3700
  120SOPE  C31312766   7.082   0.814   5.166  0.2458 -0.1920  0.7378
  120SOPE  H13X12767   7.127   0.714   5.179 -1.1298 -0.8736  0.4453
  120SOPE  H13Y12768   7.156   0.892   5.139 -2.3287  1.9771 -0.6168
  120SOPE  C31412769   6.978   0.823   5.050 -0.8488 -0.3298  0.0437
  120SOPE  H14X12770   6.911   0.912   5.056 -0.0857  0.3058 -0.7189
  120SOPE  H14Y12771   6.906   0.739   5.065 -0.3644 -0.6927  0.3357
  120SOPE  C31512772   7.020   0.806   4.905  0.8110 -0.3543 -0.8764
  120SOPE  H15X12773   6.931   0.816   4.839  2.1570  0.1086 -2.7049
  120SOPE  H15Y12774   7.046   0.701   4.877  0.6825 -0.1221 -1.9239
  120SOPE  C31612775   7.128   0.904   4.857  0.4607 -0.4036 -0.5452
  120SOPE  H16X12776   7.220   0.845   4.874  0.8196 -0.0643 -1.3121
  120SOPE  H16Y12777   7.125   0.996   4.920  2.0662  1.1934 -2.6486
  120SOPE  C31712778   7.116   0.935   4.703 -0.1173  0.7751  0.0284
  120SOPE  H17X12779   7.187   1.013   4.669 -1.3790  1.7222 -0.5299
  120SOPE  H17Y12780   7.010   0.964   4.687 -1.5795 -2.9415  1.7232
  120SOPE  C31812781   7.146   0.821   4.600  0.6748  0.6128 -0.7073
  120SOPE  H18X12782   7.074   0.737   4.615  0.9537  0.5545  0.3505
  120SOPE  H18Y12783   7.252   0.792   4.609  1.0704  2.1909  0.0808
  120SOPE  H18Z12784   7.135   0.862   4.497  3.5873 -3.8533 -3.1468
  121SOPE     N12785   6.110   4.459   6.311  0.6226  0.0962 -0.3016
  121SOPE   HN112786   6.157   4.440   6.402 -1.1876 -0.5377  0.5454
  121SOPE   HN212787   6.011   4.474   6.340  1.5035  3.8170  1.4479
  121SOPE   HN312788   6.117   4.376   6.249  0.4276  0.5344 -0.9196
  121SOPE   C1212789   6.162   4.589   6.264  0.1696  0.8476  0.0842
  121SOPE  H12A12790   6.153   4.663   6.347 -0.2606  1.3538 -0.4010
  121SOPE  H12B12791   6.093   4.617   6.182  0.3033 -1.3815 -0.8376
  121SOPE   C1112792   6.314   4.587   6.220  0.3887 -0.0533  0.2565
  121SOPE  H11A12793   6.351   4.688   6.191 -2.2529  0.6654 -0.9296
  121SOPE  H11B12794   6.322   4.514   6.136  1.5826  0.9175 -0.5158
  121SOPE     P12795   6.537   4.600   6.373 -0.0575  0.2082 -0.1795
  121SOPE   O1312796   6.604   4.510   6.470 -0.1729 -0.2601  0.2478
  121SOPE   O1412797   6.532   4.744   6.411  0.4126 -0.1308 -0.2856
  121SOPE   O1212798   6.394   4.539   6.338  0.3986  0.3627 -0.5066
  121SOPE   O1112799   6.624   4.590   6.237  0.1365  0.3272 -0.7279
  121SOPE    C112800   6.637   4.467   6.164  0.2268 -0.0051 -0.3815
  121SOPE    HA12801   6.541   4.460   6.109 -2.1133 -0.0719  3.3118
  121SOPE    HB12802   6.641   4.382   6.235 -3.0003 -1.1751 -1.4241
  121SOPE    C212803   6.756   4.464   6.070  0.8568 -0.2365  0.9172
  121SOPE    HS12804   6.777   4.366   6.022  0.9150  0.1015  0.2338
  121SOPE   O2112805   6.876   4.501   6.138  0.4196  0.1373 -0.8491
  121SOPE   C2112806   6.924   4.393   6.212  0.5261 -0.0028 -0.1094
  121SOPE   O2212807   6.874   4.284   6.230  0.8884 -0.3513 -0.2429
  121SOPE   C2212808   7.068   4.424   6.247  0.9507  0.3276 -0.1136
  121SOPE   H2R12809   7.087   4.392   6.351  0.3653 -2.2329 -0.7419
  121SOPE   H2S12810   7.083   4.534   6.245 -0.6532  0.6678  2.6321
  121SOPE    C312811   6.726   4.560   5.955  0.3690 -0.4239 -0.6240
  121SOPE    HX12812   6.690   4.657   5.994 -2.1969 -1.2164 -0.8371
  121SOPE    HY12813   6.642   4.514   5.898 -1.3819 -1.5197  2.5558
  121SOPE   O3112814   6.839   4.563   5.859 -0.2012 -0.1063 -1.0272
  121SOPE   C3112815   6.926   4.663   5.879 -0.0324  0.5874 -0.3195
  121SOPE   O3212816   6.917   4.739   5.974  0.1402 -0.5957 -0.0301
  121SOPE   C3212817   7.034   4.669   5.775  0.0331  0.1334  0.5058
  121SOPE   H2X12818   7.001   4.633   5.675  0.2705 -0.2570  0.5652
  121SOPE   H2Y12819   7.096   4.588   5.817  0.0580 -0.6697 -1.0034
  121SOPE   C2312820   7.164   4.335   6.167 -0.2316 -0.6543  0.1281
  121SOPE   H3R12821   7.149   4.227   6.185  0.8281 -0.6768  0.9734
  121SOPE   H3S12822   7.267   4.360   6.203 -0.7151  1.8102  0.0041
  121SOPE   C2412823   7.166   4.377   6.018  0.3253 -0.4499  0.1965
  121SOPE   H4R12824   7.073   4.342   5.968  0.7854  0.1589 -1.1339
  121SOPE   H4S12825   7.183   4.483   5.989 -0.5982 -0.5626 -0.8461
  121SOPE   C2512826   7.286   4.305   5.941  0.7357  0.1584 -0.0374
  121SOPE   H5R12827   7.278   4.328   5.833  0.8094  0.8277  0.0983
  121SOPE   H5S12828   7.381   4.339   5.987 -0.5954  0.9541  2.3167
  121SOPE   C2612829   7.284   4.152   5.954  0.5464 -0.1255  0.3951
  121SOPE   H6R12830   7.314   4.124   6.057  0.1371 -1.7173  0.1154
  121SOPE   H6S12831   7.182   4.110   5.938 -0.1056  1.0937  1.1696
  121SOPE   C2712832   7.376   4.083   5.847  0.1507 -0.2215 -0.5934
  121SOPE   H7R12833   7.350   4.127   5.749  2.1535  0.4992 -0.8466
  121SOPE   H7S12834   7.470   4.135   5.875  0.6700 -2.2997  1.9959
  121SOPE   C2812835   7.366   3.934   5.848  0.1748  0.1177  0.0864
  121SOPE   H8R12836   7.462   3.892   5.811  2.1324 -0.1263  4.7656
  121SOPE   H8S12837   7.368   3.909   5.957  0.4373 -0.2789 -0.0069
  121SOPE   C2912838   7.244   3.894   5.768 -0.2758 -0.0304 -0.6169
  121SOPE   H9112839   7.160   3.944   5.818  0.2058 -2.0347  2.5089
  121SOPE  C21012840   7.235   3.813   5.660 -0.0682  0.4029 -0.2069
  121SOPE  H10112841   7.136   3.774   5.633 -1.4530  1.1884  3.1565
  121SOPE  C21112842   7.338   3.742   5.574 -0.2087 -1.0279 -0.3149
  121SOPE  H11R12843   7.319   3.637   5.545  1.0828 -1.1680 -0.7458
  121SOPE  H11S12844   7.431   3.728   5.634  0.6321 -1.8997 -1.7596
  121SOPE  C21212845   7.367   3.826   5.456 -0.1727  0.8379 -0.1137
  121SOPE  H12R12846   7.411   3.920   5.497 -1.1814  0.4190  2.0484
  121SOPE  H12S12847   7.270   3.847   5.405  0.0839  0.8614 -0.5966
  121SOPE  C21312848   7.460   3.760   5.347 -0.0064 -0.4338 -0.5555
  121SOPE  H13R12849   7.551   3.722   5.399 -0.1960 -0.2846 -0.1121
  121SOPE  H13S12850   7.487   3.836   5.271 -0.0245 -0.1907 -0.3189
  121SOPE  C21412851   7.385   3.644   5.275 -0.1097 -0.5541  0.6968
  121SOPE  H14R12852   7.346   3.565   5.343  1.6556 -0.9975  1.2480
  121SOPE  H14S12853   7.470   3.589   5.230 -0.8144 -1.5131  0.5216
  121SOPE  C21512854   7.284   3.688   5.162 -0.5269 -0.4666 -0.1747
  121SOPE  H15R12855   7.207   3.743   5.221  0.7054 -0.3746  1.4078
  121SOPE  H15S12856   7.244   3.605   5.101 -1.8456  1.1149 -1.5765
  121SOPE  C21612857   7.338   3.789   5.063 -0.5041 -0.3858  0.5746
  121SOPE  H16R12858   7.427   3.737   5.023  0.0153  1.5616 -0.9509
  121SOPE  H16S12859   7.375   3.879   5.119 -1.3449 -0.5493  1.4208
  121SOPE  C21712860   7.249   3.827   4.939  0.1707  0.2738 -1.0377
  121SOPE  H17R12861   7.172   3.900   4.972  0.5590  0.1775  0.1313
  121SOPE  H17S12862   7.196   3.737   4.903 -0.2873  0.6121 -1.2220
  121SOPE  C21812863   7.327   3.877   4.819 -0.8480 -0.0816 -0.4037
  121SOPE  H18R12864   7.365   3.978   4.847 -3.3207  0.4967  1.2223
  121SOPE  H18S12865   7.259   3.886   4.732 -1.3902 -1.7914 -0.2026
  121SOPE  H18T12866   7.408   3.814   4.779 -1.8100 -0.2336 -2.2049
  121SOPE   C3312867   7.096   4.804   5.753  0.1352  1.0894  0.1130
  121SOPE   H3X12868   7.157   4.840   5.839  1.4146  0.5525 -0.5439
  121SOPE   H3Y12869   7.006   4.868   5.743 -0.4819  0.0200 -1.6760
  121SOPE   C3412870   7.195   4.801   5.639  1.0810 -0.2463  0.2168
  121SOPE   H4X12871   7.261   4.713   5.650 -0.3812 -1.3395  0.6872
  121SOPE   H4Y12872   7.253   4.895   5.647  0.8703 -0.2496  2.4500
  121SOPE   C3512873   7.129   4.793   5.491 -0.4748 -0.5839  0.0888
  121SOPE   H5X12874   7.066   4.701   5.487 -2.5478  0.7718 -0.0902
  121SOPE   H5Y12875   7.210   4.801   5.416 -0.0247  0.8763  0.7021
  121SOPE   C3612876   7.040   4.912   5.454  0.9083 -0.0749 -0.7140
  121SOPE   H6X12877   7.092   5.009   5.439  0.3882  0.2725 -0.3308
  121SOPE   H6Y12878   6.971   4.922   5.541  0.9617  1.1220 -0.7958
  121SOPE   C3712879   6.945   4.881   5.337 -0.0434 -0.0178 -0.0612
  121SOPE   H7X12880   6.877   4.802   5.376  0.0577  0.3951  0.9886
  121SOPE   H7Y12881   7.016   4.839   5.263  0.6285 -2.2046  1.6863
  121SOPE   C3812882   6.846   4.992   5.295  0.1273 -0.4655  0.8002
  121SOPE   H8X12883   6.901   5.080   5.255  0.6111 -1.3636 -0.5994
  121SOPE   H8Y12884   6.781   5.031   5.376 -0.3136  2.0935 -0.6945
  121SOPE   C3912885   6.755   4.958   5.171 -0.0760  0.5154  0.4785
  121SOPE   H9X12886   6.705   5.053   5.143  0.5447  0.7859  0.2750
  121SOPE   H9Y12887   6.679   4.885   5.205 -0.0767  0.8093  1.1182
  121SOPE  C31012888   6.830   4.905   5.046 -0.3048 -0.5215 -0.0409
  121SOPE  H10X12889   6.848   4.797   5.064  0.7449 -0.2514  0.5499
  121SOPE  H10Y12890   6.930   4.950   5.034  0.0844 -0.8717  1.6539
  121SOPE  C31112891   6.735   4.902   4.917  0.2445 -0.3183 -0.2637
  121SOPE  H11X12892   6.724   5.011   4.898  2.4266  0.3124  1.6279
  121SOPE  H11Y12893   6.642   4.852   4.952 -0.6880  2.4336  1.5488
  121SOPE  C31212894   6.792   4.814   4.799  0.1230 -0.5016 -0.3321
  121SOPE  H12X12895   6.704   4.787   4.738  0.6811 -3.4882  0.0391
  121SOPE  H12Y12896   6.827   4.717   4.840  1.5645  0.0817 -0.1184
  121SOPE  C31312897   6.895   4.894   4.716 -0.0143  0.2421  0.3139
  121SOPE  H13X12898   6.991   4.910   4.770 -0.8883  1.0323  1.6640
  121SOPE  H13Y12899   6.858   4.996   4.694 -1.8801  0.0875  2.4643
  121SOPE  C31412900   6.918   4.824   4.582  0.4262 -0.4564 -0.9088
  121SOPE  H14X12901   6.969   4.903   4.522 -1.2872  1.2644 -0.1851
  121SOPE  H14Y12902   6.820   4.804   4.533 -1.6315  0.7022  2.4128
  121SOPE  C31512903   6.998   4.695   4.601 -0.1924  0.0798 -0.1251
  121SOPE  H15X12904   6.921   4.621   4.633 -0.9740  0.3580 -1.2900
  121SOPE  H15Y12905   7.074   4.719   4.678 -0.3630  1.0964 -0.2540
  121SOPE  C31612906   7.072   4.644   4.477 -0.5616 -0.1863  0.0778
  121SOPE  H16X12907   6.995   4.653   4.397 -0.2615 -0.1965 -0.2157
  121SOPE  H16Y12908   7.094   4.536   4.493  1.1173 -0.1711 -1.7060
  121SOPE  C31712909   7.200   4.728   4.456 -0.3289  0.5776 -0.9345
  121SOPE  H17X12910   7.250   4.737   4.555  0.7910 -1.0301 -1.3223
  121SOPE  H17Y12911   7.173   4.833   4.434  1.4309  1.0941 -0.8288
  121SOPE  C31812912   7.285   4.676   4.350 -0.3978 -0.7931  0.5159
  121SOPE  H18X12913   7.391   4.708   4.359 -0.7568  0.6583 -0.2569
  121SOPE  H18Y12914   7.242   4.694   4.250  2.1935  0.1658 -0.5263
  121SOPE  H18Z12915   7.294   4.566   4.367 -2.4923 -0.8632  1.3863
  122SOPE     N12916   0.349   5.568   6.911  0.0690 -0.5535 -0.6744
  122SOPE   HN112917   0.366   5.554   7.013 -0.6619  0.6220 -0.3793
  122SOPE   HN212918   0.352   5.671   6.901 -0.0031 -0.1523  2.5567
  122SOPE   HN312919   0.252   5.533   6.900 -0.2637 -1.1633  2.9820
  122SOPE   C1212920   0.452   5.508   6.819 -1.4104 -0.2180 -0.0365
  122SOPE  H12A12921   0.411   5.417   6.771 -0.3691 -0.0101 -1.3837
  122SOPE  H12B12922   0.545   5.486   6.876 -0.9603  0.9496 -0.2867
  122SOPE   C1112923   0.509   5.615   6.714  0.0364 -0.2305  0.0259
  122SOPE  H11A12924   0.436   5.656   6.640  1.0654  1.7140  0.0438
  122SOPE  H11B12925   0.589   5.564   6.658  1.0375  0.0261  1.1816
  122SOPE     P12926   0.711   5.772   6.784 -0.0172 -0.3372 -0.0123
  122SOPE   O1312927   0.767   5.660   6.862  0.1625  0.1287 -0.5055
  122SOPE   O1412928   0.700   5.907   6.840 -0.1589  0.5126  0.5166
  122SOPE   O1212929   0.557   5.738   6.772 -0.2543 -0.0739  0.5001
  122SOPE   O1112930   0.770   5.777   6.635 -0.3265 -0.5717 -0.5460
  122SOPE    C112931   0.709   5.864   6.540 -0.0836 -0.1243  0.5292
  122SOPE    HA12932   0.730   5.971   6.563 -0.7417  0.3072 -0.7516
  122SOPE    HB12933   0.601   5.842   6.526 -0.5346  1.7886  0.6800
  122SOPE    C212934   0.767   5.831   6.399 -0.1373 -0.1699 -1.4896
  122SOPE    HS12935   0.865   5.885   6.402  0.2455 -0.8967  0.0602
  122SOPE   O2112936   0.681   5.884   6.297 -0.2634  0.1748 -0.0815
  122SOPE   C2112937   0.743   5.936   6.192  0.0727 -0.5623  0.1636
  122SOPE   O2212938   0.862   5.928   6.178  0.0207 -0.2746  0.0907
  122SOPE   C2212939   0.636   5.994   6.099  0.2541 -0.4922 -0.3191
  122SOPE   H2R12940   0.595   6.085   6.146  1.6237  0.5661 -1.0961
  122SOPE   H2S12941   0.564   5.911   6.081  0.3304 -0.7474  0.5451
  122SOPE    C312942   0.791   5.676   6.377  0.0442 -0.1539 -0.8645
  122SOPE    HX12943   0.695   5.624   6.399  1.9862 -3.8824 -0.3567
  122SOPE    HY12944   0.853   5.634   6.459 -0.5173 -0.1816 -0.4419
  122SOPE   O3112945   0.835   5.624   6.257 -0.4984  0.3323  0.1243
  122SOPE   C3112946   0.964   5.633   6.240 -0.3508 -0.3219 -0.3203
  122SOPE   O3212947   1.045   5.683   6.316  0.3054 -0.5129 -0.1371
  122SOPE   C3212948   0.999   5.557   6.112 -0.7995  0.0709 -0.0999
  122SOPE   H2X12949   0.921   5.482   6.087  0.0292 -1.2615  1.1669
  122SOPE   H2Y12950   1.099   5.510   6.126 -0.7895  0.1840  0.2083
  122SOPE   C2312951   0.681   6.035   5.957  0.3444  0.4799  0.0852
  122SOPE   H3R12952   0.727   5.945   5.910  0.9588 -0.3759  2.2080
  122SOPE   H3S12953   0.740   6.129   5.960 -1.6166  1.7558  0.3604
  122SOPE   C2412954   0.559   6.075   5.879 -0.8712 -0.8763  0.4375
  122SOPE   H4R12955   0.509   6.157   5.935  0.5118  0.6656 -0.4770
  122SOPE   H4S12956   0.583   6.133   5.786 -1.5191  2.7519  2.3421
  122SOPE   C2512957   0.466   5.961   5.847  0.4398 -0.4919  0.0346
  122SOPE   H5R12958   0.526   5.877   5.805 -0.3300 -1.1491  0.2313
  122SOPE   H5S12959   0.411   5.924   5.936 -1.0723  0.1298 -0.6215
  122SOPE   C2612960   0.352   5.998   5.737  0.0397  0.3050 -0.3911
  122SOPE   H6R12961   0.291   5.905   5.734 -0.5606  0.7110 -0.9835
  122SOPE   H6S12962   0.305   6.086   5.786  1.3946  0.9797 -0.2710
  122SOPE   C2712963   0.406   6.017   5.601 -0.7541 -0.6558  0.6109
  122SOPE   H7R12964   0.337   6.073   5.535  0.1990 -2.3405 -1.9948
  122SOPE   H7S12965   0.497   6.081   5.610 -0.2112 -1.3620  0.2784
  122SOPE   C2812966   0.435   5.888   5.519 -0.0136 -0.3996 -0.1660
  122SOPE   H8R12967   0.504   5.820   5.573 -0.9850 -0.7963  0.6137
  122SOPE   H8S12968   0.342   5.827   5.512 -0.2230 -0.2131  0.8692
  122SOPE   C2912969   0.495   5.925   5.380  0.1127 -0.1064 -0.7780
  122SOPE   H9112970   0.584   5.990   5.373  0.4046 -0.6751 -3.1258
  122SOPE  C21012971   0.447   5.888   5.256  0.3305 -0.3412 -0.2961
  122SOPE  H10112972   0.493   5.939   5.170  1.7710 -1.1937 -0.0622
  122SOPE  C21112973   0.331   5.794   5.238  0.2787  0.0045  0.5853
  122SOPE  H11R12974   0.338   5.712   5.313  3.1282 -1.2379 -0.8751
  122SOPE  H11S12975   0.339   5.733   5.145 -1.0755 -1.3533  1.3027
  122SOPE  C21212976   0.196   5.863   5.255  0.0195  0.1960  0.0596
  122SOPE  H12R12977   0.206   5.951   5.323  1.4562  0.1741 -0.0950
  122SOPE  H12S12978   0.121   5.794   5.298  1.6607  0.3756  3.5292
  122SOPE  C21312979   0.156   5.924   5.119  0.2677 -0.0137  0.3393
  122SOPE  H13R12980   0.162   5.843   5.042  2.0032  1.5524 -1.2660
  122SOPE  H13S12981   0.216   6.014   5.098 -3.8526  3.3150  1.4102
  122SOPE  C21412982   0.011   5.975   5.123  0.5303 -0.1246  0.2319
  122SOPE  H14R12983  -0.008   6.058   5.194 -1.2125  0.1205 -0.4791
  122SOPE  H14S12984  -0.051   5.885   5.139 -1.8120  1.0441 -1.6257
  122SOPE  C21512985  -0.029   6.039   4.986  0.0026 -0.2872  0.2486
  122SOPE  H15R12986   0.060   6.098   4.955 -1.4072  1.4966 -0.5119
  122SOPE  H15S12987  -0.106   6.117   5.004 -1.5468 -0.9861 -2.7546
  122SOPE  C21612988  -0.070   5.945   4.875 -0.2994 -0.2101  0.3544
  122SOPE  H16R12989   0.014   5.873   4.864  1.1262  1.5431 -0.9289
  122SOPE  H16S12990  -0.063   6.014   4.788 -0.1065 -1.1560 -0.4049
  122SOPE  C21712991  -0.207   5.868   4.865 -0.8714  0.1498  0.9461
  122SOPE  H17R12992  -0.283   5.948   4.878 -0.4397  0.9848 -1.2308
  122SOPE  H17S12993  -0.212   5.802   4.954 -0.4563  0.3846  1.1489
  122SOPE  C21812994  -0.250   5.810   4.729  0.1693 -0.3601 -0.0063
  122SOPE  H18R12995  -0.206   5.880   4.655  2.1107  0.0229  1.4349
  122SOPE  H18S12996  -0.361   5.808   4.722  0.1133 -0.1787  0.7920
  122SOPE  H18T12997  -0.210   5.708   4.709  1.6332 -0.0208  1.0490
  122SOPE   C3312998   1.018   5.654   5.997  0.0513  0.1046 -0.0172
  122SOPE   H3X12999   1.097   5.730   6.016 -0.4997  0.8667 -0.6982
  122SOPE   H3Y13000   0.922   5.710   5.985 -0.1516 -0.5678 -1.7826
  122SOPE   C3413001   1.046   5.578   5.869 -0.1251 -0.3855 -0.8728
  122SOPE   H4X13002   0.966   5.501   5.860  0.5690 -1.1928 -0.3767
  122SOPE   H4Y13003   1.147   5.533   5.883 -0.4524 -1.2966 -1.3717
  122SOPE   C3513004   1.043   5.673   5.748  0.0729 -0.2011  0.7192
  122SOPE   H5X13005   1.090   5.773   5.761  1.2887 -0.4326 -1.3951
  122SOPE   H5Y13006   0.935   5.695   5.732  0.3367  1.5181  1.1042
  122SOPE   C3613007   1.101   5.605   5.626 -0.4340 -0.3487 -0.4763
  122SOPE   H6X13008   1.198   5.552   5.639  1.3609  3.0729  1.8660
  122SOPE   H6Y13009   1.123   5.666   5.536  0.9584 -1.5271 -0.9754
  122SOPE   C3713010   1.001   5.499   5.573  0.0972 -0.5239  0.3624
  122SOPE   H7X13011   0.899   5.544   5.574  0.0971 -0.0799 -3.6802
  122SOPE   H7Y13012   1.008   5.412   5.641  1.4603 -0.2825  0.5579
  122SOPE   C3813013   1.043   5.445   5.432  0.8894  0.0072 -0.0199
  122SOPE   H8X13014   1.153   5.429   5.428  0.5428 -2.9761 -0.1514
  122SOPE   H8Y13015   1.008   5.518   5.356 -0.7304  0.8409  1.4640
  122SOPE   C3913016   0.989   5.304   5.402 -0.4363 -0.0499 -0.2360
  122SOPE   H9X13017   0.883   5.290   5.430 -1.3119  0.7790 -2.8525
  122SOPE   H9Y13018   1.051   5.231   5.459 -0.3780  2.2457  2.8494
  122SOPE  C31013019   1.007   5.265   5.253  0.0635 -0.7461  0.4265
  122SOPE  H10X13020   1.117   5.265   5.234 -0.0055 -2.5619 -0.1077
  122SOPE  H10Y13021   0.950   5.334   5.187 -2.7246 -1.1051  2.2927
  122SOPE  C31113022   0.956   5.122   5.222 -0.7838  0.2742  0.1475
  122SOPE  H11X13023   0.848   5.125   5.249 -0.2885  1.9228  2.2888
  122SOPE  H11Y13024   1.011   5.052   5.288  1.7220  1.3780 -0.6480
  122SOPE  C31213025   0.985   5.063   5.084 -0.1410  0.4141 -0.1360
  122SOPE  H12X13026   0.948   4.958   5.081  0.5931  0.1070  1.0515
  122SOPE  H12Y13027   1.095   5.053   5.074 -0.2397  0.1689 -1.0367
  122SOPE  C31313028   0.926   5.145   4.966 -0.8770 -1.2186 -0.5454
  122SOPE  H13X13029   0.976   5.243   4.956 -3.4312  0.4223  1.5206
  122SOPE  H13Y13030   0.821   5.167   4.993 -0.4525  1.8444 -1.0621
  122SOPE  C31413031   0.925   5.068   4.837 -0.2075 -0.3759 -0.1739
  122SOPE  H14X13032   0.836   5.001   4.844  0.3085 -1.0500  0.0442
  122SOPE  H14Y13033   1.020   5.011   4.830 -0.0896 -0.0472 -1.5223
  122SOPE  C31513034   0.908   5.158   4.710 -1.0137  0.4355  0.4886
  122SOPE  H15X13035   0.937   5.094   4.624 -0.9339  0.2283  0.6683
  122SOPE  H15Y13036   0.984   5.239   4.711  1.2197 -1.5224 -0.2088
  122SOPE  C31613037   0.773   5.212   4.679  0.3383  0.4231  0.1052
  122SOPE  H16X13038   0.698   5.131   4.693 -1.4172  2.0166  0.3969
  122SOPE  H16Y13039   0.767   5.241   4.572 -0.3929 -2.9532 -0.8826
  122SOPE  C31713040   0.730   5.339   4.759  0.0354 -0.2821  0.0433
  122SOPE  H17X13041   0.804   5.418   4.733 -0.6409  0.0301 -1.0058
  122SOPE  H17Y13042   0.735   5.319   4.868  1.3165 -0.9818 -0.1252
  122SOPE  C31813043   0.586   5.396   4.732  0.5660 -0.5979 -0.7436
  122SOPE  H18X13044   0.546   5.466   4.808 -3.3327 -1.9143 -1.3632
  122SOPE  H18Y13045   0.514   5.312   4.745 -0.8468  0.5877 -0.6513
  122SOPE  H18Z13046   0.571   5.424   4.625 -0.0151  1.6433 -0.1162
  123SOPE     N13047   1.039   1.262   2.182 -0.5907 -0.4663 -0.4944
  123SOPE   HN113048   0.970   1.204   2.129 -0.2980 -0.3259 -1.0349
  123SOPE   HN213049   1.000   1.357   2.200  1.1675  0.0187  1.0399
  123SOPE   HN313050   1.127   1.281   2.131 -1.1830  1.2827 -0.9085
  123SOPE   C1213051   1.082   1.205   2.315 -0.2187  0.0039 -0.7129
  123SOPE  H12A13052   1.190   1.232   2.321 -0.3020  0.0152  2.0230
  123SOPE  H12B13053   1.059   1.097   2.308 -0.4478  0.1149 -1.8349
  123SOPE   C1113054   0.997   1.267   2.426  0.3288  0.2021 -0.4601
  123SOPE  H11A13055   1.034   1.222   2.521  2.6929  1.0908 -0.8877
  123SOPE  H11B13056   0.887   1.255   2.420  0.5428 -1.5899 -1.4984
  123SOPE     P13057   0.938   1.525   2.382  0.7705 -0.2192 -0.1459
  123SOPE   O1313058   0.893   1.500   2.245  0.4171  0.4968  0.5864
  123SOPE   O1413059   1.018   1.646   2.411  0.6236 -0.0699 -0.2638
  123SOPE   O1213060   1.025   1.405   2.434  0.1743  0.0690 -0.1048
  123SOPE   O1113061   0.810   1.514   2.481 -0.1233  0.4532  0.5866
  123SOPE    C113062   0.807   1.483   2.614  0.5141 -0.2659 -0.5587
  123SOPE    HA13063   0.885   1.410   2.645  2.7298  1.8576 -0.8118
  123SOPE    HB13064   0.713   1.431   2.641 -0.1607  0.4856 -1.4007
  123SOPE    C213065   0.815   1.612   2.704 -0.4971 -0.4937  0.5498
  123SOPE    HS13066   0.920   1.646   2.705 -0.7597  0.5359 -1.3407
  123SOPE   O2113067   0.765   1.583   2.842 -0.0375  0.7112  0.6404
  123SOPE   C2113068   0.820   1.486   2.909  0.1886 -0.0153  0.0348
  123SOPE   O2213069   0.929   1.430   2.898  0.1431 -0.3380 -0.2173
  123SOPE   C2213070   0.737   1.466   3.029 -0.9606  0.4809  0.1568
  123SOPE   H2R13071   0.789   1.389   3.090  0.1055  0.0804 -1.2233
  123SOPE   H2S13072   0.645   1.427   2.981 -1.3502  1.7008 -0.1226
  123SOPE    C313073   0.730   1.730   2.653  0.7515 -0.0178 -0.4076
  123SOPE    HX13074   0.630   1.689   2.629 -0.2142  1.7094  0.4099
  123SOPE    HY13075   0.766   1.758   2.552  0.4140 -1.5784 -0.9830
  123SOPE   O3113076   0.718   1.827   2.753  0.3259 -0.4466  0.4088
  123SOPE   C3113077   0.659   1.945   2.710  0.4118 -0.6670  0.1483
  123SOPE   O3213078   0.609   1.959   2.602 -0.1301 -0.1794  0.0549
  123SOPE   C3213079   0.649   2.033   2.828  0.1940 -0.4853 -0.4308
  123SOPE   H2X13080   0.660   2.135   2.784  4.6295 -1.3022 -1.6523
  123SOPE   H2Y13081   0.738   2.014   2.892  2.5047  0.2405 -3.2161
  123SOPE   C2313082   0.696   1.598   3.107 -0.0949 -0.9613 -0.0756
  123SOPE   H3R13083   0.592   1.591   3.145  0.0116 -1.3897  0.1551
  123SOPE   H3S13084   0.683   1.681   3.035 -2.3074 -1.1115  0.0705
  123SOPE   C2413085   0.786   1.628   3.229 -0.5195 -0.3215  0.0714
  123SOPE   H4R13086   0.804   1.536   3.289 -1.4012  0.6267  1.8788
  123SOPE   H4S13087   0.881   1.671   3.190 -1.2208 -0.2035 -1.6210
  123SOPE   C2513088   0.725   1.723   3.335 -0.4310 -0.5903 -0.4845
  123SOPE   H5R13089   0.671   1.813   3.297  1.7758  1.2139  0.4527
  123SOPE   H5S13090   0.648   1.672   3.397  1.2721 -0.1415  2.1728
  123SOPE   C2613091   0.831   1.766   3.444  0.3476 -0.7799 -0.3942
  123SOPE   H6R13092   0.882   1.857   3.405 -1.7029 -0.1299 -1.7051
  123SOPE   H6S13093   0.770   1.807   3.528  0.7279  1.3408 -1.0843
  123SOPE   C2713094   0.916   1.660   3.517 -0.3984 -0.4235 -0.8537
  123SOPE   H7R13095   0.854   1.588   3.574  0.9702  0.3872  1.8280
  123SOPE   H7S13096   0.986   1.608   3.448  0.3189  1.1989 -1.4029
  123SOPE   C2813097   0.996   1.753   3.619 -1.0776  0.1553  0.3940
  123SOPE   H8R13098   1.038   1.842   3.567  2.5477  1.4061  4.8139
  123SOPE   H8S13099   0.937   1.804   3.698 -0.2880  0.6476  0.6825
  123SOPE   C2913100   1.113   1.671   3.656 -0.7897  0.5793 -0.2415
  123SOPE   H9113101   1.155   1.617   3.569 -1.9636  0.6690 -0.8838
  123SOPE  C21013102   1.173   1.662   3.775  0.1142 -1.0100  0.5310
  123SOPE  H10113103   1.250   1.587   3.795  1.0250 -0.1675  0.3050
  123SOPE  C21113104   1.137   1.738   3.898 -0.0692  0.2350 -0.0265
  123SOPE  H11R13105   1.074   1.662   3.949  0.3811  0.8194  1.4320
  123SOPE  H11S13106   1.074   1.827   3.879 -1.5316 -0.9078 -0.8005
  123SOPE  C21213107   1.241   1.767   3.998 -0.0804 -0.1801 -0.7057
  123SOPE  H12R13108   1.298   1.857   3.965 -1.7362  0.4369 -2.0452
  123SOPE  H12S13109   1.323   1.693   4.008  1.1914  1.3445  0.7830
  123SOPE  C21313110   1.174   1.798   4.130 -0.3466  0.1183  0.5645
  123SOPE  H13R13111   1.124   1.704   4.161  1.6671 -1.5931 -1.0570
  123SOPE  H13S13112   1.099   1.879   4.116 -0.2972 -0.0777 -0.9655
  123SOPE  C21413113   1.277   1.850   4.232 -0.1851 -0.5243 -0.6968
  123SOPE  H14R13114   1.212   1.896   4.309  0.1305  1.5508 -1.6014
  123SOPE  H14S13115   1.334   1.934   4.186  1.3241  0.6773  3.0024
  123SOPE  C21513116   1.359   1.743   4.294  0.3280  0.2238 -0.2413
  123SOPE  H15R13117   1.427   1.691   4.224  1.9556 -0.5768  1.8131
  123SOPE  H15S13118   1.299   1.666   4.347 -0.8519  1.5075  0.3541
  123SOPE  C21613119   1.454   1.805   4.395 -0.8872  0.5211  0.3446
  123SOPE  H16R13120   1.399   1.882   4.454  1.6067  2.2852  0.5301
  123SOPE  H16S13121   1.518   1.874   4.336 -2.4919  3.6551  2.0264
  123SOPE  C21713122   1.528   1.708   4.477  0.6490  0.0988 -0.1810
  123SOPE  H17R13123   1.606   1.756   4.540  1.4688 -1.1755 -0.1774
  123SOPE  H17S13124   1.585   1.631   4.421 -0.6400 -1.7615  0.9147
  123SOPE  C21813125   1.429   1.620   4.568  0.1395 -0.0297  0.4375
  123SOPE  H18R13126   1.374   1.553   4.498 -0.5661 -0.0479  0.9942
  123SOPE  H18S13127   1.363   1.698   4.613 -2.1602 -1.7335  0.2210
  123SOPE  H18T13128   1.480   1.571   4.654 -0.3514  0.7242  1.1673
  123SOPE   C3313129   0.518   2.008   2.899 -0.3049 -0.5647 -0.5963
  123SOPE   H3X13130   0.529   1.937   2.985  0.0658 -1.3815 -1.3041
  123SOPE   H3Y13131   0.442   1.973   2.826 -1.2855 -1.2288  0.6915
  123SOPE   C3413132   0.463   2.135   2.970  0.3807  0.8875 -0.0986
  123SOPE   H4X13133   0.468   2.209   2.888  0.1503  0.5329 -0.4358
  123SOPE   H4Y13134   0.537   2.154   3.051  1.5994  0.3891 -1.0526
  123SOPE   C3513135   0.327   2.123   3.033  0.7585  0.5841 -0.0696
  123SOPE   H5X13136   0.257   2.066   2.968  0.2813  0.5336  0.4832
  123SOPE   H5Y13137   0.277   2.223   3.035  1.0921  0.7355  0.9005
  123SOPE   C3613138   0.333   2.056   3.169  0.1518 -0.2800  0.4342
  123SOPE   H6X13139   0.411   1.977   3.161 -0.5267 -0.8823 -0.4105
  123SOPE   H6Y13140   0.237   2.002   3.184 -0.5588  0.8092 -0.0221
  123SOPE   C3713141   0.365   2.141   3.288  0.7864 -0.2420  0.5841
  123SOPE   H7X13142   0.273   2.200   3.304 -1.1452 -2.6887 -0.8610
  123SOPE   H7Y13143   0.448   2.212   3.265  0.2125  1.0265  2.2269
  123SOPE   C3813144   0.394   2.060   3.416 -0.1027  0.4522  0.5880
  123SOPE   H8X13145   0.466   1.978   3.392 -0.9976 -0.1965  0.0497
  123SOPE   H8Y13146   0.309   2.014   3.470 -0.5721 -0.2942 -0.7287
  123SOPE   C3913147   0.459   2.147   3.525  0.2585 -0.4310 -0.4549
  123SOPE   H9X13148   0.386   2.230   3.534  0.9554  0.2364 -0.8657
  123SOPE   H9Y13149   0.553   2.195   3.493  0.0933  0.3699  0.2193
  123SOPE  C31013150   0.496   2.065   3.655 -0.0112  0.2941 -0.0138
  123SOPE  H10X13151   0.569   1.985   3.630 -0.0448 -0.5067  2.2878
  123SOPE  H10Y13152   0.403   2.015   3.689  0.7041 -0.2768  1.1602
  123SOPE  C31113153   0.551   2.161   3.763  0.5982 -0.1623 -0.2031
  123SOPE  H11X13154   0.464   2.223   3.794  0.3875  0.7084 -2.3631
  123SOPE  H11Y13155   0.636   2.216   3.718  1.0816 -1.3867 -0.8312
  123SOPE  C31213156   0.601   2.078   3.878 -0.4539 -0.1824 -1.1319
  123SOPE  H12X13157   0.685   2.010   3.853  0.5012  0.6052 -0.1349
  123SOPE  H12Y13158   0.524   2.005   3.911  0.7635 -2.8281 -3.7137
  123SOPE  C31313159   0.664   2.168   3.987 -0.2456 -0.1404  0.3169
  123SOPE  H13X13160   0.589   2.246   4.015  0.9921  0.2203  2.9239
  123SOPE  H13Y13161   0.753   2.215   3.941  0.2360 -1.5348 -0.2258
  123SOPE  C31413162   0.706   2.083   4.105 -0.0185  0.5560 -0.1693
  123SOPE  H14X13163   0.764   1.996   4.067  0.4139  0.8990 -0.3054
  123SOPE  H14Y13164   0.617   2.044   4.159  0.8845  0.7241  1.5123
  123SOPE  C31513165   0.801   2.144   4.211 -0.0253  0.1309  0.7774
  123SOPE  H15X13166   0.750   2.218   4.276  0.9300  0.3732  1.2616
  123SOPE  H15Y13167   0.889   2.196   4.169 -0.5492  0.8506  0.5505
  123SOPE  C31613168   0.852   2.040   4.313 -0.4581 -0.4338  0.1407
  123SOPE  H16X13169   0.935   1.987   4.261 -1.5088 -0.4970 -1.5514
  123SOPE  H16Y13170   0.768   1.972   4.338 -1.1845  0.2206 -0.4637
  123SOPE  C31713171   0.904   2.104   4.446 -0.0171 -0.4972 -0.2663
  123SOPE  H17X13172   0.891   2.027   4.525 -1.9986  0.1367  0.0970
  123SOPE  H17Y13173   0.835   2.188   4.471  0.5915  0.5621 -1.9949
  123SOPE  C31813174   1.046   2.165   4.428  0.4928 -0.2236 -0.3977
  123SOPE  H18X13175   1.054   2.246   4.352  0.2154  0.2153  0.0340
  123SOPE  H18Y13176   1.096   2.069   4.406 -0.9065 -0.5420 -2.5761
  123SOPE  H18Z13177   1.066   2.194   4.533  0.8607  0.6330 -0.6948
  124SOPE     N13178   3.301   2.677   2.745  0.0709  0.2794  0.6445
  124SOPE   HN113179   3.350   2.669   2.837 -0.4013 -0.7187  0.8208
  124SOPE   HN213180   3.266   2.775   2.740 -1.6950 -0.3669 -3.2588
  124SOPE   HN313181   3.218   2.615   2.742  0.7355 -0.7006  1.6767
  124SOPE   C1213182   3.399   2.662   2.631  0.5074 -0.8279  0.4497
  124SOPE  H12A13183   3.346   2.664   2.533  0.0515 -2.0018  0.6536
  124SOPE  H12B13184   3.447   2.562   2.640 -2.8318 -2.7505 -0.9519
  124SOPE   C1113185   3.495   2.784   2.633  0.7966  0.2491 -0.4599
  124SOPE  H11A13186   3.441   2.877   2.607 -0.8580  0.6655  3.5786
  124SOPE  H11B13187   3.568   2.764   2.552 -0.3735 -0.7618 -1.3017
  124SOPE     P13188   3.700   2.825   2.783  0.3378  0.1452 -0.4054
  124SOPE   O1313189   3.712   2.947   2.851 -0.0914 -0.2153 -0.8650
  124SOPE   O1413190   3.773   2.812   2.662  0.5013  0.2412 -0.0876
  124SOPE   O1213191   3.545   2.793   2.765  0.0664 -0.3148  0.3165
  124SOPE   O1113192   3.751   2.710   2.881  0.2312  0.3741 -0.1699
  124SOPE    C113193   3.676   2.591   2.904  0.4396  0.7707 -0.4340
  124SOPE    HA13194   3.734   2.499   2.882  1.3304  0.7383  1.7838
  124SOPE    HB13195   3.582   2.589   2.845  0.0002  0.8533  0.2503
  124SOPE    C213196   3.631   2.578   3.053 -0.5636  0.6897 -0.2667
  124SOPE    HS13197   3.543   2.512   3.041 -1.2936  1.8532 -1.6428
  124SOPE   O2113198   3.596   2.707   3.109  0.4534 -0.1169  0.2439
  124SOPE   C2113199   3.473   2.745   3.075 -0.2465 -0.3103 -0.0965
  124SOPE   O2213200   3.394   2.693   2.995 -0.8430  0.2541  0.1723
  124SOPE   C2213201   3.446   2.879   3.154 -0.1213 -0.6864 -0.0150
  124SOPE   H2R13202   3.478   2.949   3.074  1.4363 -1.2683  0.0652
  124SOPE   H2S13203   3.512   2.882   3.243 -0.5035 -1.0938  0.2859
  124SOPE    C313204   3.747   2.508   3.131  0.7183 -0.6955  0.0044
  124SOPE    HX13205   3.836   2.572   3.112 -0.8033  1.6880  0.5073
  124SOPE    HY13206   3.757   2.409   3.081 -0.3777 -0.2505 -1.1660
  124SOPE   O3113207   3.726   2.484   3.275  0.6280 -0.2661 -0.1242
  124SOPE   C3113208   3.773   2.582   3.358 -0.3521 -0.0789  0.0353
  124SOPE   O3213209   3.826   2.683   3.318 -0.2537  0.0049  0.0234
  124SOPE   C3213210   3.764   2.554   3.510 -0.3539  0.2648 -0.2951
  124SOPE   H2X13211   3.856   2.498   3.538 -0.6660  0.1258  0.4544
  124SOPE   H2Y13212   3.668   2.499   3.513 -1.8207  2.6718 -1.0242
  124SOPE   C2313213   3.304   2.912   3.198  0.4223  0.2114  0.1355
  124SOPE   H3R13214   3.229   2.878   3.123 -1.1461  0.3716  1.5547
  124SOPE   H3S13215   3.283   3.020   3.212  2.6648  1.1357 -2.7322
  124SOPE   C2413216   3.267   2.844   3.328  0.5665 -0.0409  0.2487
  124SOPE   H4R13217   3.285   2.736   3.308 -1.5183 -0.3991  0.0550
  124SOPE   H4S13218   3.334   2.875   3.411  0.3127 -1.0783  0.8634
  124SOPE   C2513219   3.124   2.857   3.369  0.1147 -0.1291  0.5535
  124SOPE   H5R13220   3.110   2.961   3.404  0.3962 -0.1627  0.7736
  124SOPE   H5S13221   3.060   2.848   3.279  0.9057  0.3846 -0.0682
  124SOPE   C2613222   3.064   2.761   3.485  0.3370 -0.6232  0.5658
  124SOPE   H6R13223   2.960   2.795   3.500 -0.2014 -0.9562 -1.9673
  124SOPE   H6S13224   3.057   2.656   3.451  2.0588 -0.6053  0.0485
  124SOPE   C2713225   3.153   2.764   3.607 -0.4109  0.3236  0.0332
  124SOPE   H7R13226   3.256   2.728   3.589 -1.0750 -0.8428 -1.5917
  124SOPE   H7S13227   3.163   2.871   3.634  0.6575  0.3913 -0.6178
  124SOPE   C2813228   3.100   2.668   3.722  0.2768  0.3267 -0.2157
  124SOPE   H8R13229   3.051   2.581   3.672 -0.2799 -1.4430  3.1224
  124SOPE   H8S13230   3.186   2.635   3.784  1.0443 -1.1019 -1.9542
  124SOPE   C2913231   2.992   2.732   3.808 -0.0352 -0.2115 -0.5693
  124SOPE   H9113232   2.924   2.799   3.753 -1.9849 -1.5630  0.0992
  124SOPE  C21013233   2.973   2.720   3.938  0.4781 -0.1928 -0.2628
  124SOPE  H10113234   2.891   2.778   3.983  0.0423  0.3011 -1.6751
  124SOPE  C21113235   3.070   2.652   4.034 -0.2900  0.1224 -0.4715
  124SOPE  H11R13236   3.109   2.737   4.094  1.0144 -0.6967 -0.1064
  124SOPE  H11S13237   3.158   2.598   3.994 -0.6688 -1.2751  0.5024
  124SOPE  C21213238   3.003   2.560   4.137  0.0525  0.4187  0.3246
  124SOPE  H12R13239   2.913   2.606   4.184  0.9382  0.5882  1.9147
  124SOPE  H12S13240   3.066   2.526   4.221 -0.6309  0.7208  0.9708
  124SOPE  C21313241   2.961   2.434   4.061  0.3755  0.4653  0.4541
  124SOPE  H13R13242   3.053   2.380   4.030  0.9203  0.5287  1.8724
  124SOPE  H13S13243   2.902   2.453   3.969  1.9233  0.8011 -0.5017
  124SOPE  C21413244   2.880   2.325   4.139 -0.0697 -0.1524  0.3117
  124SOPE  H14R13245   2.946   2.297   4.224 -0.4636 -1.0161  0.3485
  124SOPE  H14S13246   2.847   2.239   4.077  0.1650 -0.1013  0.1140
  124SOPE  C21513247   2.749   2.381   4.202  0.2162  0.4790  0.1757
  124SOPE  H15R13248   2.695   2.421   4.113 -2.2169 -0.5541  1.1174
  124SOPE  H15S13249   2.768   2.470   4.266 -0.1355  0.7764 -0.1217
  124SOPE  C21613250   2.654   2.276   4.268 -0.0801  0.1353 -0.8328
  124SOPE  H16R13251   2.689   2.225   4.360 -1.2430  0.3070 -0.2711
  124SOPE  H16S13252   2.638   2.189   4.201  1.4147 -0.9856  0.1878
  124SOPE  C21713253   2.520   2.343   4.305  0.0748  0.2508  0.2671
  124SOPE  H17R13254   2.458   2.364   4.215  1.1968  0.4888 -0.4648
  124SOPE  H17S13255   2.521   2.441   4.358 -1.9682  0.5143 -0.0954
  124SOPE  C21813256   2.434   2.248   4.389 -0.4989  0.0600  0.0859
  124SOPE  H18R13257   2.400   2.160   4.331 -0.8031  0.8439 -0.9817
  124SOPE  H18S13258   2.357   2.314   4.436 -0.8106  1.5639 -2.3101
  124SOPE  H18T13259   2.486   2.224   4.483 -0.5083  2.1577  0.6865
  124SOPE   C3313260   3.742   2.679   3.603  0.6669 -0.6489 -0.0182
  124SOPE   H3X13261   3.824   2.753   3.597  0.2355 -0.1117  0.5321
  124SOPE   H3Y13262   3.757   2.650   3.709  0.3013  0.2992  0.3024
  124SOPE   C3413263   3.599   2.744   3.605  0.0281 -0.2068 -0.2470
  124SOPE   H4X13264   3.521   2.689   3.661 -0.4767  0.1696 -0.5670
  124SOPE   H4Y13265   3.562   2.770   3.503 -0.9130  1.8579  0.5695
  124SOPE   C3513266   3.611   2.876   3.685 -1.1114 -0.1469 -0.0123
  124SOPE   H5X13267   3.696   2.932   3.641 -2.1624  1.1694 -0.4267
  124SOPE   H5Y13268   3.636   2.857   3.792 -0.8338  2.0630  0.3625
  124SOPE   C3613269   3.493   2.964   3.685 -0.1114  0.1640 -0.3854
  124SOPE   H6X13270   3.428   2.950   3.595 -0.4772 -0.3952 -0.0433
  124SOPE   H6Y13271   3.519   3.071   3.686 -1.7995  0.6194 -0.7668
  124SOPE   C3713272   3.413   2.934   3.814 -0.0249 -0.5894 -0.1439
  124SOPE   H7X13273   3.475   2.896   3.898  0.1513 -0.2053 -0.0955
  124SOPE   H7Y13274   3.343   2.848   3.813  1.6866 -2.0280 -0.6152
  124SOPE   C3813275   3.355   3.068   3.874  0.0133  0.1353 -0.6007
  124SOPE   H8X13276   3.312   3.119   3.786  3.8823  1.9879 -1.6252
  124SOPE   H8Y13277   3.436   3.124   3.927 -0.4560 -0.1237  0.4238
  124SOPE   C3913278   3.248   3.029   3.985 -0.0093 -0.4570  0.1939
  124SOPE   H9X13279   3.169   2.972   3.932  0.1457 -0.7939  0.3274
  124SOPE   H9Y13280   3.186   3.118   4.011  0.6350 -0.2805  1.1784
  124SOPE  C31013281   3.296   2.963   4.116  0.7745  0.0815 -0.1761
  124SOPE  H10X13282   3.404   2.976   4.139  0.7985 -1.1718  0.5008
  124SOPE  H10Y13283   3.283   2.853   4.104 -1.1609  0.2693  0.0143
  124SOPE  C31113284   3.228   3.040   4.235  0.6279  0.3803  0.4077
  124SOPE  H11X13285   3.119   3.045   4.212  0.7769  2.1819 -0.0248
  124SOPE  H11Y13286   3.258   3.146   4.224 -1.3438  0.9919  0.4671
  124SOPE  C31213287   3.245   2.972   4.375 -0.1240 -0.1314 -0.0077
  124SOPE  H12X13288   3.353   2.964   4.399 -0.3746 -3.1635  0.4701
  124SOPE  H12Y13289   3.226   2.866   4.349  4.2451 -0.2368 -3.9657
  124SOPE  C31313290   3.165   3.029   4.490  0.0115 -0.2909  0.5066
  124SOPE  H13X13291   3.055   3.016   4.476 -0.1948  1.6292  0.0451
  124SOPE  H13Y13292   3.190   3.135   4.512  0.2983 -0.2276 -0.0865
  124SOPE  C31413293   3.213   2.951   4.607  0.4620 -0.0670  0.0752
  124SOPE  H14X13294   3.323   2.962   4.613  0.3566  0.7326  0.7938
  124SOPE  H14Y13295   3.180   2.845   4.606 -0.4158  0.1387 -2.6466
  124SOPE  C31513296   3.155   3.009   4.737  0.1538  0.5903 -0.3901
  124SOPE  H15X13297   3.054   2.963   4.744  0.1271  0.6815 -0.1699
  124SOPE  H15Y13298   3.151   3.118   4.717  1.1689  0.1901 -3.2545
  124SOPE  C31613299   3.226   2.965   4.870  0.2069  0.1628  0.1021
  124SOPE  H16X13300   3.180   3.017   4.957 -1.6587 -3.1499  1.2595
  124SOPE  H16Y13301   3.327   3.007   4.851  0.0059 -0.0852 -1.7117
  124SOPE  C31713302   3.223   2.816   4.901  0.0276  0.5508 -0.2227
  124SOPE  H17X13303   3.282   2.767   4.820 -0.4815  0.8321 -0.7784
  124SOPE  H17Y13304   3.119   2.782   4.883  0.9416 -0.5506 -4.5852
  124SOPE  C31813305   3.288   2.778   5.037  0.4474 -0.0593 -0.4810
  124SOPE  H18X13306   3.251   2.846   5.116  1.3734  0.5068 -0.5117
  124SOPE  H18Y13307   3.398   2.798   5.040  0.5520 -0.7326  0.7954
  124SOPE  H18Z13308   3.273   2.674   5.071 -0.4705 -0.3805 -1.7886
  125SOPE     N13309   2.290   6.021   2.339 -0.4357  0.0348 -0.1769
  125SOPE   HN113310   2.240   6.112   2.335  1.3195  0.9979 -2.3996
  125SOPE   HN213311   2.364   6.028   2.266  2.0936  0.5744  2.2532
  125SOPE   HN313312   2.233   5.935   2.322 -1.4475  1.1100 -2.6595
  125SOPE   C1213313   2.363   6.011   2.472  0.5288  0.3374  0.2822
  125SOPE  H12A13314   2.289   6.023   2.554 -0.5810  0.4887 -0.7260
  125SOPE  H12B13315   2.434   6.095   2.488  1.1260  0.0874 -0.9121
  125SOPE   C1113316   2.421   5.866   2.487 -0.4479 -0.0907  0.3039
  125SOPE  H11A13317   2.337   5.794   2.472 -2.1145  1.0715  3.1776
  125SOPE  H11B13318   2.454   5.847   2.592  0.6260 -2.3579 -0.3862
  125SOPE     P13319   2.602   5.706   2.382  0.3195  0.0088  0.0743
  125SOPE   O1313320   2.700   5.707   2.272 -0.2949  0.2952 -0.4987
  125SOPE   O1413321   2.496   5.603   2.366 -0.0320 -0.0358 -0.9727
  125SOPE   O1213322   2.530   5.844   2.391  0.1101 -0.6401  0.0989
  125SOPE   O1113323   2.668   5.701   2.521  0.0225 -0.0873 -0.0385
  125SOPE    C113324   2.779   5.781   2.555  0.3142 -0.1533 -0.0288
  125SOPE    HA13325   2.776   5.881   2.506  0.3838  0.5199  1.2960
  125SOPE    HB13326   2.871   5.726   2.525  0.3414 -0.5969  0.8269
  125SOPE    C213327   2.805   5.815   2.707 -0.7722  0.4542 -0.4341
  125SOPE    HS13328   2.878   5.899   2.710 -2.3375  1.8808 -0.6087
  125SOPE   O2113329   2.853   5.695   2.769 -0.4786 -0.0167 -0.2295
  125SOPE   C2113330   2.983   5.673   2.788 -0.2655 -0.9893 -0.5926
  125SOPE   O2213331   3.069   5.744   2.736  0.1105  0.4421  0.4281
  125SOPE   C2213332   2.996   5.536   2.866  0.1239  0.2447  0.5513
  125SOPE   H2R13333   3.010   5.462   2.784  0.1790 -0.7397  1.4225
  125SOPE   H2S13334   2.907   5.499   2.921 -1.2693 -0.6320 -2.1289
  125SOPE    C313335   2.676   5.859   2.779 -0.9512 -0.4559 -0.8961
  125SOPE    HX13336   2.600   5.778   2.779 -0.8470 -0.6897 -3.8197
  125SOPE    HY13337   2.633   5.944   2.721 -2.3022 -0.4373  0.0969
  125SOPE   O3113338   2.729   5.916   2.902  0.0639 -0.2698  0.5025
  125SOPE   C3113339   2.690   5.861   3.015  0.6752  0.1013 -0.0073
  125SOPE   O3213340   2.609   5.771   3.023  0.0300  0.4442  0.3672
  125SOPE   C3213341   2.758   5.937   3.123  0.3891 -1.0291  1.4016
  125SOPE   H2X13342   2.727   6.044   3.115 -1.0199 -1.4949  0.1841
  125SOPE   H2Y13343   2.867   5.918   3.113  0.2289 -1.2126 -0.2514
  125SOPE   C2313344   3.126   5.527   2.947 -0.0152 -0.1581  0.2372
  125SOPE   H3R13345   3.224   5.552   2.900  0.7038 -0.1213  1.7052
  125SOPE   H3S13346   3.128   5.425   2.991 -2.4839  1.0319  3.4739
  125SOPE   C2413347   3.121   5.615   3.071  0.7675  0.1030 -0.2165
  125SOPE   H4R13348   3.116   5.723   3.045 -0.6360  0.0742 -0.1358
  125SOPE   H4S13349   3.030   5.584   3.127  1.9387 -0.9667  1.1575
  125SOPE   C2513350   3.244   5.589   3.156 -0.6178 -0.6137  0.4990
  125SOPE   H5R13351   3.255   5.481   3.180 -0.1110 -0.2863  1.8686
  125SOPE   H5S13352   3.325   5.622   3.088 -1.6847  0.4215 -0.2945
  125SOPE   C2613353   3.261   5.682   3.284  0.0047  0.4036  0.3291
  125SOPE   H6R13354   3.245   5.782   3.238 -1.8042 -0.0800 -0.1584
  125SOPE   H6S13355   3.187   5.644   3.358  0.6560 -2.4247 -0.3670
  125SOPE   C2713356   3.401   5.673   3.355 -0.2331 -0.2243 -0.1258
  125SOPE   H7R13357   3.419   5.570   3.393 -1.2017 -1.1736 -2.1301
  125SOPE   H7S13358   3.473   5.682   3.271  0.2149 -0.7432  0.1928
  125SOPE   C2813359   3.412   5.772   3.473  0.6207  0.2142 -0.4041
  125SOPE   H8R13360   3.515   5.771   3.516  0.6649  2.4387 -0.3497
  125SOPE   H8S13361   3.391   5.876   3.442 -1.9022 -0.1480 -0.1271
  125SOPE   C2913362   3.315   5.753   3.584 -0.9002 -0.4710 -0.5029
  125SOPE   H9113363   3.213   5.786   3.563 -0.9233 -1.7426 -2.7141
  125SOPE  C21013364   3.352   5.706   3.707  0.7260  0.3909  0.0428
  125SOPE  H10113365   3.285   5.717   3.794  0.5649  0.0612 -0.0361
  125SOPE  C21113366   3.487   5.655   3.746  0.2989 -0.6015 -0.1562
  125SOPE  H11R13367   3.542   5.615   3.658 -0.5492 -1.1672 -0.4484
  125SOPE  H11S13368   3.488   5.575   3.823 -2.0161  0.1670  0.7544
  125SOPE  C21213369   3.576   5.761   3.812 -0.1228  0.2258  0.1439
  125SOPE  H12R13370   3.521   5.819   3.889 -2.2147  0.8744 -1.7368
  125SOPE  H12S13371   3.626   5.830   3.741 -1.9783  3.7974  2.0278
  125SOPE  C21313372   3.700   5.695   3.879 -0.1819 -0.0722 -0.5649
  125SOPE  H13R13373   3.780   5.671   3.806  0.7005 -1.5539  0.8180
  125SOPE  H13S13374   3.661   5.607   3.936  1.1044 -0.7680 -0.7297
  125SOPE  C21413375   3.771   5.797   3.974 -0.5305 -0.2532 -0.6144
  125SOPE  H14R13376   3.702   5.810   4.060 -0.3501  1.2020 -0.6589
  125SOPE  H14S13377   3.783   5.894   3.921  1.6918  0.4235  0.9755
  125SOPE  C21513378   3.908   5.738   4.020  0.0903 -0.8720  0.4098
  125SOPE  H15R13379   3.980   5.734   3.935 -0.6994 -1.3659 -0.2541
  125SOPE  H15S13380   3.900   5.633   4.056 -0.6966 -0.5809  1.1253
  125SOPE  C21613381   3.968   5.813   4.135 -0.5462  0.6041  0.0031
  125SOPE  H16R13382   3.895   5.824   4.217  0.6318  0.9683  1.0199
  125SOPE  H16S13383   3.990   5.917   4.104 -2.3804  1.3908  1.1976
  125SOPE  C21713384   4.106   5.756   4.182 -1.1185  0.3527  0.4941
  125SOPE  H17R13385   4.175   5.830   4.228 -1.6494 -0.0082  1.9214
  125SOPE  H17S13386   4.162   5.738   4.087 -1.0204  1.2964  0.3625
  125SOPE  C21813387   4.082   5.635   4.268 -0.7529 -0.2096 -0.3058
  125SOPE  H18R13388   4.174   5.619   4.329  0.5063 -0.1619 -2.1094
  125SOPE  H18S13389   4.067   5.547   4.202 -0.4183 -2.3928  2.3637
  125SOPE  H18T13390   3.998   5.658   4.336 -2.6361  0.4470 -2.7051
  125SOPE   C3313391   2.711   5.886   3.255 -1.0932  0.4729  0.3768
  125SOPE   H3X13392   2.710   5.775   3.264  0.3625  0.2870 -1.2040
  125SOPE   H3Y13393   2.610   5.920   3.287 -1.6130  0.1980 -0.8649
  125SOPE   C3413394   2.796   5.953   3.367  0.1142 -0.0988  0.0330
  125SOPE   H4X13395   2.805   6.063   3.364  1.5435 -0.1555  1.1135
  125SOPE   H4Y13396   2.903   5.924   3.369  0.7004  1.9338  1.4091
  125SOPE   C3513397   2.735   5.914   3.506  0.5252  0.2266 -0.5613
  125SOPE   H5X13398   2.763   5.811   3.536  0.2378  0.7095  1.5345
  125SOPE   H5Y13399   2.629   5.943   3.522  0.3436 -1.0063  0.6579
  125SOPE   C3613400   2.825   5.994   3.607 -0.1770  0.4201  0.1340
  125SOPE   H6X13401   2.826   6.105   3.600  0.5931  0.5627  2.0085
  125SOPE   H6Y13402   2.926   5.952   3.586  0.1155  0.5322  1.2641
  125SOPE   C3713403   2.789   5.957   3.750 -0.4557  0.0155 -0.6226
  125SOPE   H7X13404   2.812   5.851   3.775 -1.1443  0.2864  1.2628
  125SOPE   H7Y13405   2.680   5.971   3.765 -0.9701 -1.0183 -2.8989
  125SOPE   C3813406   2.875   6.032   3.852  0.9212 -0.0562 -0.3436
  125SOPE   H8X13407   2.863   6.139   3.827  1.3884  0.0215 -0.2379
  125SOPE   H8Y13408   2.984   6.015   3.840  0.6841 -0.3940 -2.4880
  125SOPE   C3913409   2.831   6.020   3.998  0.0761  0.4177  0.7000
  125SOPE   H9X13410   2.721   6.008   4.005  0.1921  0.3314  3.0519
  125SOPE   H9Y13411   2.852   6.120   4.040 -1.1334  0.1630  1.9891
  125SOPE  C31013412   2.919   5.906   4.064 -0.0102 -0.1812 -0.1606
  125SOPE  H10X13413   3.025   5.922   4.033  0.8459  0.4958  2.8117
  125SOPE  H10Y13414   2.883   5.806   4.033  0.4601  0.6548 -3.8530
  125SOPE  C31113415   2.911   5.920   4.225 -0.1819  0.6461  0.2746
  125SOPE  H11X13416   2.803   5.915   4.252  0.0209 -2.0079  0.8367
  125SOPE  H11Y13417   2.947   6.022   4.249  0.0685  0.2426  1.6901
  125SOPE  C31213418   2.994   5.824   4.306  0.5472 -0.1713 -1.0214
  125SOPE  H12X13419   3.086   5.801   4.248  0.3720  1.3841 -1.9719
  125SOPE  H12Y13420   2.943   5.726   4.321 -2.0004  0.9934 -1.5524
  125SOPE  C31313421   3.042   5.879   4.443 -0.2654 -0.2894 -0.1748
  125SOPE  H13X13422   2.991   5.973   4.473 -2.0460 -1.7820  1.7766
  125SOPE  H13Y13423   3.148   5.911   4.438  0.0479 -1.4277 -1.7427
  125SOPE  C31413424   3.029   5.786   4.567 -0.2835 -0.8165  0.2337
  125SOPE  H14X13425   2.922   5.773   4.593 -0.1175 -0.9853  0.8676
  125SOPE  H14Y13426   3.073   5.848   4.649 -0.7245 -0.4330  0.1807
  125SOPE  C31513427   3.090   5.650   4.542 -0.1347  0.4267 -0.6193
  125SOPE  H15X13428   3.190   5.665   4.495  0.2917 -2.2204 -0.7402
  125SOPE  H15Y13429   3.022   5.593   4.475 -0.5751  0.0980  0.1020
  125SOPE  C31613430   3.113   5.579   4.674  0.1073 -0.2088  0.3191
  125SOPE  H16X13431   3.022   5.582   4.737  0.2830  1.8739  0.5342
  125SOPE  H16Y13432   3.197   5.626   4.731  1.4330 -1.1467 -0.7901
  125SOPE  C31713433   3.142   5.428   4.663 -0.1250  0.0177  0.0954
  125SOPE  H17X13434   3.067   5.380   4.596  1.0364 -1.0244 -0.5091
  125SOPE  H17Y13435   3.114   5.394   4.765  0.6661  3.0495  1.4112
  125SOPE  C31813436   3.289   5.401   4.622 -0.6412 -0.0495 -0.2537
  125SOPE  H18X13437   3.313   5.295   4.642 -1.1674  0.1772  1.8291
  125SOPE  H18Y13438   3.355   5.445   4.700 -0.4362 -2.4437  0.9983
  125SOPE  H18Z13439   3.309   5.423   4.515 -2.0079 -0.4987 -0.6173
  126SOPE     N13440   6.789   2.796   1.950 -0.2272  1.0331 -0.8731
  126SOPE   HN113441   6.722   2.768   2.024  0.0146  0.4948 -0.8573
  126SOPE   HN213442   6.763   2.896   1.936 -1.8272  1.1745  2.2855
  126SOPE   HN313443   6.773   2.742   1.863 -0.5666 -1.6211  0.7172
  126SOPE   C1213444   6.932   2.794   2.000  0.8061 -0.3200 -0.6410
  126SOPE  H12A13445   6.991   2.839   1.917 -0.4016 -0.3114 -1.5193
  126SOPE  H12B13446   6.955   2.687   2.018  1.5555  0.1852  1.6852
  126SOPE   C1113447   6.955   2.867   2.130 -0.5954 -0.5830 -0.0933
  126SOPE  H11A13448   7.055   2.835   2.168 -0.3421 -1.0734 -1.1321
  126SOPE  H11B13449   6.882   2.842   2.209  2.7672  1.5111  4.1254
  126SOPE     P13450   7.075   3.103   2.157 -0.6526  0.0589  0.6926
  126SOPE   O1313451   7.042   3.249   2.160  0.3858  0.4406 -0.0087
  126SOPE   O1413452   7.199   3.059   2.092  0.4009  0.7925  0.3903
  126SOPE   O1213453   6.951   3.016   2.115  0.5071 -0.4262  0.1046
  126SOPE   O1113454   7.078   3.062   2.307  0.1969  0.1917 -0.6338
  126SOPE    C113455   7.174   3.134   2.389  0.3630  0.3681  0.0121
  126SOPE    HA13456   7.147   3.242   2.386 -1.1922 -0.0164 -1.3371
  126SOPE    HB13457   7.277   3.122   2.347 -0.6197 -0.8872 -2.2168
  126SOPE    C213458   7.161   3.089   2.533 -0.4991 -0.8886 -0.5034
  126SOPE    HS13459   7.058   3.094   2.574 -0.8236 -0.3760 -1.3465
  126SOPE   O2113460   7.257   3.167   2.608 -0.2556 -0.2387 -0.1106
  126SOPE   C2113461   7.199   3.276   2.659  0.2685  0.2335  0.6376
  126SOPE   O2213462   7.087   3.310   2.633  0.0302  0.0843 -0.3558
  126SOPE   C2213463   7.294   3.358   2.728  0.0543  0.2434  0.4118
  126SOPE   H2R13464   7.339   3.437   2.664  0.8796  0.7818  1.6228
  126SOPE   H2S13465   7.377   3.293   2.761 -1.4645 -1.3324  1.3360
  126SOPE    C313466   7.201   2.938   2.544  0.3350  1.2065 -0.1700
  126SOPE    HX13467   7.309   2.938   2.517  0.7246  1.0473  1.3003
  126SOPE    HY13468   7.146   2.892   2.460 -1.0287  3.5481 -0.6486
  126SOPE   O3113469   7.171   2.874   2.664 -0.1802  0.2189  0.3933
  126SOPE   C3113470   7.210   2.746   2.670  0.3381  1.1329 -0.2545
  126SOPE   O3213471   7.278   2.692   2.592 -0.2853  0.1403  0.3654
  126SOPE   C3213472   7.148   2.687   2.793 -0.6615 -0.1662 -0.4424
  126SOPE   H2X13473   7.041   2.663   2.776 -0.5369 -2.1870  1.2496
  126SOPE   H2Y13474   7.134   2.763   2.873 -3.4093 -0.8989 -0.1413
  126SOPE   C2313475   7.236   3.428   2.851 -0.0109 -0.3262  0.2458
  126SOPE   H3R13476   7.128   3.454   2.838 -0.1427 -0.8729  0.2072
  126SOPE   H3S13477   7.288   3.526   2.859 -1.0359  0.3546 -1.0283
  126SOPE   C2413478   7.235   3.355   2.978 -0.8659  0.7231 -0.9921
  126SOPE   H4R13479   7.165   3.270   2.966 -0.3544  0.0839  0.3781
  126SOPE   H4S13480   7.335   3.321   3.010 -1.2531 -4.4291 -4.2672
  126SOPE   C2513481   7.174   3.437   3.096 -0.4379  0.5080 -0.1726
  126SOPE   H5R13482   7.093   3.503   3.056  2.1535  3.2304 -1.2970
  126SOPE   H5S13483   7.147   3.362   3.174 -0.7720  1.6994  0.9118
  126SOPE   C2613484   7.285   3.522   3.162 -0.1133  0.2429  0.2525
  126SOPE   H6R13485   7.380   3.473   3.191  0.5022  1.6282  0.6579
  126SOPE   H6S13486   7.321   3.591   3.082  0.5003  1.3491  1.4541
  126SOPE   C2713487   7.243   3.597   3.289  0.2573  0.0657 -0.4683
  126SOPE   H7R13488   7.330   3.666   3.300  2.4402 -2.5287 -0.3971
  126SOPE   H7S13489   7.156   3.662   3.267 -0.3496 -0.9146 -0.9970
  126SOPE   C2813490   7.235   3.512   3.408  0.0627  1.2306 -0.3653
  126SOPE   H8R13491   7.149   3.442   3.398  1.1856 -0.3416  0.6051
  126SOPE   H8S13492   7.318   3.438   3.416 -0.3469  0.6031 -1.5776
  126SOPE   C2913493   7.220   3.579   3.540  0.5876 -0.2391 -0.0681
  126SOPE   H9113494   7.294   3.657   3.563 -1.5759  2.2527 -1.0450
  126SOPE  C21013495   7.127   3.563   3.638 -0.0345 -0.2064 -0.1001
  126SOPE  H10113496   7.133   3.629   3.726  1.2269  0.5612 -0.7368
  126SOPE  C21113497   6.992   3.495   3.637 -0.7411 -0.3481 -0.2700
  126SOPE  H11R13498   6.998   3.405   3.572 -0.8542 -0.4375 -0.1572
  126SOPE  H11S13499   6.909   3.562   3.609 -0.7637  0.6534  1.9787
  126SOPE  C21213500   6.957   3.445   3.778  0.3707  0.0880 -0.2990
  126SOPE  H12R13501   6.940   3.530   3.848 -1.4914  0.8615 -1.6276
  126SOPE  H12S13502   7.032   3.378   3.826  1.0463  2.5591  2.4303
  126SOPE  C21313503   6.822   3.363   3.772  0.2343  0.6434 -0.9117
  126SOPE  H13R13504   6.833   3.293   3.687 -1.8290 -1.5377  0.4802
  126SOPE  H13S13505   6.738   3.435   3.764 -0.5893  0.1459  1.9857
  126SOPE  C21413506   6.801   3.271   3.891  0.1601  0.1337  0.0822
  126SOPE  H14R13507   6.890   3.205   3.900 -0.9921 -1.4357  0.4272
  126SOPE  H14S13508   6.715   3.207   3.864  0.5878  0.2502 -1.6679
  126SOPE  C21513509   6.767   3.346   4.018  0.2564  0.3085  0.0871
  126SOPE  H15R13510   6.670   3.397   3.998 -1.2448 -2.4946 -0.2504
  126SOPE  H15S13511   6.851   3.415   4.040  2.4072 -1.4867 -1.9952
  126SOPE  C21613512   6.744   3.253   4.133 -0.2761 -0.3365  0.1415
  126SOPE  H16R13513   6.835   3.189   4.132  1.2531  1.6858  0.7514
  126SOPE  H16S13514   6.656   3.188   4.119 -2.3305  2.1438  0.6661
  126SOPE  C21713515   6.730   3.334   4.265  0.6155  0.3164  0.0965
  126SOPE  H17R13516   6.714   3.271   4.354  1.4309  2.0138  1.5163
  126SOPE  H17S13517   6.641   3.398   4.244  1.3961  1.0788 -1.0374
  126SOPE  C21813518   6.850   3.422   4.302  0.4482 -0.4033  0.3302
  126SOPE  H18R13519   6.824   3.467   4.400  2.3059  0.3056  0.5196
  126SOPE  H18S13520   6.878   3.506   4.235 -0.7594 -2.5460 -3.2013
  126SOPE  H18T13521   6.946   3.369   4.318  1.4732 -0.0712 -3.5849
  126SOPE   C3313522   7.230   2.569   2.850  0.2035 -0.2940 -0.2862
  126SOPE   H3X13523   7.332   2.599   2.880  0.5188 -0.4465 -1.1571
  126SOPE   H3Y13524   7.232   2.486   2.775 -0.7669 -1.1693  0.6233
  126SOPE   C3413525   7.162   2.517   2.974 -0.3812  0.2758 -1.0518
  126SOPE   H4X13526   7.226   2.435   3.014 -1.9723  0.6657  2.7205
  126SOPE   H4Y13527   7.057   2.488   2.956 -0.6251  0.4998 -0.0776
  126SOPE   C3513528   7.165   2.623   3.087  0.0976 -0.1003 -0.3547
  126SOPE   H5X13529   7.093   2.705   3.062  0.6084 -0.1372 -2.0336
  126SOPE   H5Y13530   7.266   2.668   3.095  0.7166 -0.9519 -2.7273
  126SOPE   C3613531   7.126   2.565   3.221  0.0233 -0.3656 -0.1479
  126SOPE   H6X13532   7.203   2.496   3.263 -0.8059  0.8962  3.9233
  126SOPE   H6Y13533   7.034   2.507   3.196 -0.6944  0.2869  0.9089
  126SOPE   C3713534   7.096   2.668   3.336 -0.4097 -0.4228 -0.1304
  126SOPE   H7X13535   7.031   2.755   3.312  2.6610  3.4244  3.9119
  126SOPE   H7Y13536   7.194   2.711   3.364 -0.7908  0.1702  0.2956
  126SOPE   C3813537   7.035   2.588   3.451 -0.0321  0.0578  0.8158
  126SOPE   H8X13538   7.061   2.480   3.452 -1.1138 -0.2420 -0.8116
  126SOPE   H8Y13539   6.925   2.601   3.451  0.1025  1.3176  0.4272
  126SOPE   C3913540   7.078   2.635   3.592 -0.5095 -0.0573 -0.1046
  126SOPE   H9X13541   7.090   2.745   3.593  0.3202 -0.1411 -0.2609
  126SOPE   H9Y13542   7.171   2.576   3.605  0.0601  0.3554 -1.9823
  126SOPE  C31013543   6.990   2.604   3.717  0.4187  0.2088 -1.0661
  126SOPE  H10X13544   6.968   2.495   3.717  3.4713 -0.5200 -2.3741
  126SOPE  H10Y13545   6.894   2.655   3.696 -0.0132 -0.0948  0.0556
  126SOPE  C31113546   7.035   2.657   3.849 -0.0535 -0.0976  0.6751
  126SOPE  H11X13547   6.956   2.643   3.926 -1.9095  4.5945 -0.0391
  126SOPE  H11Y13548   7.034   2.767   3.834 -2.2834 -0.4064 -2.2567
  126SOPE  C31213549   7.156   2.591   3.901 -0.6855 -0.2063  0.0367
  126SOPE  H12X13550   7.242   2.624   3.839 -0.9261 -1.3021 -0.9305
  126SOPE  H12Y13551   7.149   2.480   3.900  0.8453 -0.3397  1.0831
  126SOPE  C31313552   7.176   2.633   4.045  0.5377  0.3050  0.1942
  126SOPE  H13X13553   7.075   2.649   4.091  0.2419 -0.3685 -0.2129
  126SOPE  H13Y13554   7.226   2.732   4.043  0.1399  0.5067 -0.0239
  126SOPE  C31413555   7.257   2.544   4.144 -0.2480 -0.1582  1.1147
  126SOPE  H14X13556   7.201   2.449   4.157 -1.1020  0.4269  1.8881
  126SOPE  H14Y13557   7.254   2.603   4.238  0.4610 -0.5516  1.3856
  126SOPE  C31513558   7.403   2.518   4.098  0.9379 -0.1262 -0.1455
  126SOPE  H15X13559   7.442   2.615   4.062  2.1485 -1.1975 -1.9250
  126SOPE  H15Y13560   7.398   2.447   4.013  2.1388  0.6771 -0.9206
  126SOPE  C31613561   7.492   2.470   4.206 -0.1615 -0.0015 -0.2956
  126SOPE  H16X13562   7.461   2.367   4.233  0.7939 -0.1071  0.4641
  126SOPE  H16Y13563   7.468   2.528   4.298  1.9158  0.7294 -0.1684
  126SOPE  C31713564   7.641   2.504   4.183 -0.0940 -0.1405  0.5017
  126SOPE  H17X13565   7.657   2.600   4.131  3.1743 -1.5164 -1.3185
  126SOPE  H17Y13566   7.669   2.431   4.104 -1.1030  1.9102 -1.8568
  126SOPE  C31813567   7.728   2.490   4.314 -0.5192 -0.0083 -0.5630
  126SOPE  H18X13568   7.726   2.582   4.377 -1.5147 -0.0169 -0.5730
  126SOPE  H18Y13569   7.835   2.464   4.296 -0.6317 -1.1627  0.3404
  126SOPE  H18Z13570   7.688   2.418   4.388  2.0314  1.0091  2.0305
  127SOPE     N13571   2.710   2.685   2.714 -0.4734 -0.0149 -0.2504
  127SOPE   HN113572   2.692   2.787   2.711  1.1837  0.3013  0.1840
  127SOPE   HN213573   2.700   2.644   2.618  2.3084  1.1128 -1.1135
  127SOPE   HN313574   2.641   2.641   2.779 -0.4645 -1.2002 -1.0019
  127SOPE   C1213575   2.843   2.658   2.786 -0.3953 -0.1399  0.0494
  127SOPE  H12A13576   2.830   2.697   2.889  0.6249 -0.6233  0.3766
  127SOPE  H12B13577   2.921   2.722   2.739 -3.0766  1.2617 -2.9203
  127SOPE   C1113578   2.874   2.507   2.794 -1.0544  0.4492  0.4661
  127SOPE  H11A13579   2.791   2.453   2.843  0.3497 -1.3433  0.9591
  127SOPE  H11B13580   2.965   2.490   2.856  1.8559  1.4794 -3.1425
  127SOPE     P13581   3.044   2.490   2.588  0.1018 -0.0809 -0.1011
  127SOPE   O1313582   3.054   2.634   2.563 -0.3265 -0.4825 -0.3404
  127SOPE   O1413583   3.062   2.401   2.469 -0.3298  0.7300 -0.8491
  127SOPE   O1213584   2.899   2.454   2.661  0.5411 -0.2678  0.0909
  127SOPE   O1113585   3.134   2.439   2.707 -0.1306 -0.0142  0.1000
  127SOPE    C113586   3.150   2.296   2.723  0.0278  0.2549  0.1582
  127SOPE    HA13587   3.258   2.275   2.708 -0.1011  0.3191 -0.9885
  127SOPE    HB13588   3.088   2.230   2.658  1.0509 -3.6478  2.7788
  127SOPE    C213589   3.109   2.253   2.864 -0.2402  0.5017 -0.1640
  127SOPE    HS13590   3.001   2.276   2.879 -0.4156 -0.3478 -0.0842
  127SOPE   O2113591   3.193   2.326   2.963  0.3237  0.6280 -0.0219
  127SOPE   C2113592   3.142   2.331   3.083  1.0087 -0.7123 -0.2740
  127SOPE   O2213593   3.023   2.306   3.116 -0.1550  0.4241 -0.2501
  127SOPE   C2213594   3.246   2.387   3.180  0.1911 -0.0696 -0.4725
  127SOPE   H2R13595   3.242   2.497   3.161 -0.9426 -0.3428 -2.0343
  127SOPE   H2S13596   3.345   2.339   3.169 -0.0514 -0.6480 -0.1719
  127SOPE    C313597   3.103   2.095   2.874  0.3325  0.1597  1.2061
  127SOPE    HX13598   3.207   2.054   2.870  0.2518  0.0161 -2.0355
  127SOPE    HY13599   3.052   2.059   2.782  0.1874  1.4805  0.7512
  127SOPE   O3113600   3.037   2.038   2.988 -0.5152 -0.0536 -0.3408
  127SOPE   C3113601   2.906   2.043   2.978  0.6616 -0.2969 -0.6534
  127SOPE   O3213602   2.848   2.088   2.882 -0.5258  0.0862  0.3619
  127SOPE   C3213603   2.834   1.979   3.100  0.4713 -0.0800 -0.4679
  127SOPE   H2X13604   2.910   1.972   3.181  0.8689 -0.2070 -0.8460
  127SOPE   H2Y13605   2.803   1.881   3.059 -1.1879  1.5665 -3.4837
  127SOPE   C2313606   3.210   2.368   3.337  0.9683 -0.1199 -0.0179
  127SOPE   H3R13607   3.202   2.258   3.348 -0.4206 -0.4081 -2.8961
  127SOPE   H3S13608   3.117   2.421   3.364  2.1544  1.9368  0.2820
  127SOPE   C2413609   3.306   2.422   3.444 -0.5472 -0.0257  0.7039
  127SOPE   H4R13610   3.410   2.385   3.434 -0.9111 -1.4939  1.9344
  127SOPE   H4S13611   3.311   2.533   3.433  0.7620 -0.1766 -0.4843
  127SOPE   C2513612   3.261   2.375   3.579  0.8554  0.2882 -0.1279
  127SOPE   H5R13613   3.166   2.426   3.604  0.4715  0.6413 -2.0898
  127SOPE   H5S13614   3.248   2.265   3.570  0.8431  0.3699 -1.3814
  127SOPE   C2613615   3.370   2.397   3.682  0.7618 -0.5813  0.3187
  127SOPE   H6R13616   3.465   2.351   3.649 -0.2264 -1.9898 -0.6558
  127SOPE   H6S13617   3.392   2.506   3.677  1.5735 -0.7826 -3.3911
  127SOPE   C2713618   3.334   2.357   3.826  0.0941 -0.5421 -0.5804
  127SOPE   H7R13619   3.237   2.407   3.848  0.1560 -0.6463 -0.0817
  127SOPE   H7S13620   3.308   2.249   3.827 -1.4849 -0.1858  0.5094
  127SOPE   C2813621   3.445   2.379   3.931 -0.3648 -0.3768 -0.3192
  127SOPE   H8R13622   3.434   2.297   4.006 -2.5375 -0.6247 -0.8574
  127SOPE   H8S13623   3.543   2.365   3.882 -1.0392  1.4967 -2.3482
  127SOPE   C2913624   3.440   2.516   3.989 -0.3664  0.5363  0.5438
  127SOPE   H9113625   3.458   2.597   3.916  1.6756  0.3441  0.7940
  127SOPE  C21013626   3.407   2.552   4.116  0.3703  0.1440 -0.2608
  127SOPE  H10113627   3.412   2.659   4.139  0.7721  0.0729 -0.0147
  127SOPE  C21113628   3.368   2.464   4.231 -0.4279 -0.0356 -0.7236
  127SOPE  H11R13629   3.444   2.385   4.247 -0.7968 -0.5600 -1.5016
  127SOPE  H11S13630   3.268   2.415   4.221  0.2649 -1.5541 -0.4994
  127SOPE  C21213631   3.373   2.540   4.364  0.4624 -0.4609  0.2743
  127SOPE  H12R13632   3.284   2.607   4.359 -0.3260 -1.5855 -3.4519
  127SOPE  H12S13633   3.464   2.601   4.380 -1.5027  2.7668 -0.1690
  127SOPE  C21313634   3.371   2.437   4.476 -0.1074  0.2858  0.7329
  127SOPE  H13R13635   3.473   2.393   4.477 -0.2170 -0.0321  3.5183
  127SOPE  H13S13636   3.301   2.353   4.453 -1.0425  0.6673  2.0811
  127SOPE  C21413637   3.341   2.499   4.612  0.5281  0.7627 -0.2076
  127SOPE  H14R13638   3.238   2.540   4.602 -0.1894 -0.9084  0.0658
  127SOPE  H14S13639   3.405   2.586   4.638  0.5634  0.8483 -0.5739
  127SOPE  C21513640   3.332   2.384   4.713 -0.4171  0.2364  0.4781
  127SOPE  H15R13641   3.423   2.322   4.696 -0.7968 -0.1426 -0.1966
  127SOPE  H15S13642   3.235   2.342   4.681 -0.9907  2.1270 -0.4287
  127SOPE  C21613643   3.332   2.441   4.858 -0.1691  0.6093 -0.3041
  127SOPE  H16R13644   3.261   2.527   4.854 -0.5207  0.2872 -1.6704
  127SOPE  H16S13645   3.424   2.499   4.882  0.0674 -0.0816  0.4804
  127SOPE  C21713646   3.287   2.347   4.963  0.0014  1.2420  0.0688
  127SOPE  H17R13647   3.248   2.404   5.051 -0.0425 -1.2485  1.7448
  127SOPE  H17S13648   3.378   2.299   5.005  2.0399  5.3094  0.8403
  127SOPE  C21813649   3.185   2.244   4.917  0.4409 -0.0401  0.0662
  127SOPE  H18R13650   3.232   2.159   4.863  0.3503 -1.1961  1.7232
  127SOPE  H18S13651   3.116   2.300   4.850  2.3644  1.6915 -0.5505
  127SOPE  H18T13652   3.144   2.189   5.005  1.9846 -0.2192  0.7102
  127SOPE   C3313653   2.704   2.048   3.130 -0.0160 -0.6338 -0.4738
  127SOPE   H3X13654   2.644   1.985   3.199  0.3206 -0.3714  0.0671
  127SOPE   H3Y13655   2.646   2.058   3.036  0.8712 -2.2617 -1.2498
  127SOPE   C3413656   2.717   2.190   3.199 -0.2626 -0.4384  0.5734
  127SOPE   H4X13657   2.613   2.223   3.222 -0.6705 -1.7246  0.6279
  127SOPE   H4Y13658   2.775   2.267   3.143 -0.3563 -1.2157 -0.6038
  127SOPE   C3513659   2.777   2.172   3.341 -0.1186 -0.1125  0.2602
  127SOPE   H5X13660   2.884   2.146   3.324 -0.7694 -1.3483 -2.6555
  127SOPE   H5Y13661   2.726   2.089   3.394  0.8392 -1.2171 -0.4958
  127SOPE   C3613662   2.775   2.302   3.421 -0.3162  0.4677 -0.3052
  127SOPE   H6X13663   2.670   2.311   3.454 -0.4343 -0.2311 -0.4856
  127SOPE   H6Y13664   2.808   2.385   3.354 -1.2194 -0.1439 -1.5491
  127SOPE   C3713665   2.867   2.304   3.550  0.2111 -0.1122  0.0137
  127SOPE   H7X13666   2.845   2.400   3.601 -1.7441  0.3415 -1.5846
  127SOPE   H7Y13667   2.969   2.316   3.506  0.1595  0.8661  0.1436
  127SOPE   C3813668   2.828   2.182   3.639 -0.1523  0.1594  0.5700
  127SOPE   H8X13669   2.907   2.149   3.710  0.0680 -0.4407  0.0526
  127SOPE   H8Y13670   2.823   2.095   3.571  0.3136  1.1893 -0.8468
  127SOPE   C3913671   2.700   2.208   3.720 -0.2990 -0.2797 -0.0299
  127SOPE   H9X13672   2.618   2.238   3.652  0.4916  0.3146 -0.7494
  127SOPE   H9Y13673   2.719   2.293   3.789  1.5452 -1.1645  0.6264
  127SOPE  C31013674   2.651   2.082   3.799  0.0874 -0.5622 -0.0292
  127SOPE  H10X13675   2.580   2.116   3.878 -0.8000 -0.5082 -0.8305
  127SOPE  H10Y13676   2.738   2.033   3.847  0.7226  0.5582 -0.0175
  127SOPE  C31113677   2.570   1.987   3.709 -0.1460  0.3666 -0.9828
  127SOPE  H11X13678   2.634   1.959   3.623  0.9956  1.7960 -0.6260
  127SOPE  H11Y13679   2.489   2.048   3.665 -1.3187 -1.0458 -0.8753
  127SOPE  C31213680   2.499   1.867   3.782  0.5086  0.5297 -0.0920
  127SOPE  H12X13681   2.573   1.836   3.859  2.2378  0.5270 -1.6866
  127SOPE  H12Y13682   2.485   1.785   3.709 -0.6913  1.4316 -0.9189
  127SOPE  C31313683   2.360   1.897   3.840  0.4432 -0.4678 -0.3093
  127SOPE  H13X13684   2.299   1.934   3.755  1.5710  0.2246 -0.8460
  127SOPE  H13Y13685   2.380   1.979   3.913  1.9450  1.9395 -3.1884
  127SOPE  C31413686   2.284   1.786   3.915  0.1690  0.2420 -0.7417
  127SOPE  H14X13687   2.272   1.705   3.840 -2.6366 -0.2006  0.0988
  127SOPE  H14Y13688   2.180   1.805   3.948  0.1332  1.0935 -1.3172
  127SOPE  C31513689   2.357   1.744   4.040  0.3606 -1.2246  0.1473
  127SOPE  H15X13690   2.382   1.836   4.098  0.9910 -1.7882  0.7840
  127SOPE  H15Y13691   2.450   1.691   4.012  0.9422 -0.3167  0.2949
  127SOPE  C31613692   2.271   1.657   4.132  0.0067 -0.0150 -0.3523
  127SOPE  H16X13693   2.222   1.578   4.071 -3.2139  1.1725  0.4937
  127SOPE  H16Y13694   2.187   1.714   4.177 -1.1177  0.0657 -2.4444
  127SOPE  C31713695   2.355   1.579   4.230  0.6806 -0.1699 -0.6608
  127SOPE  H17X13696   2.451   1.537   4.193  1.5520  0.2325  1.0230
  127SOPE  H17Y13697   2.285   1.494   4.242  1.4404 -0.8148 -0.7063
  127SOPE  C31813698   2.396   1.638   4.364 -0.1603  0.7572  0.4012
  127SOPE  H18X13699   2.435   1.557   4.430 -1.1155  0.6848  0.8981
  127SOPE  H18Y13700   2.313   1.670   4.431 -1.5678 -0.2455 -0.7865
  127SOPE  H18Z13701   2.471   1.719   4.359  1.1227 -0.4468 -0.7303
  128SOPE     N13702   4.845   4.616   1.831 -0.4836 -0.7215  0.3668
  128SOPE   HN113703   4.864   4.660   1.924  0.1252 -1.0703  0.4113
  128SOPE   HN213704   4.924   4.556   1.800 -0.3847  0.9001 -2.9419
  128SOPE   HN313705   4.845   4.691   1.759  0.7827 -1.0649 -0.0142
  128SOPE   C1213706   4.720   4.534   1.841  0.1803  0.6140 -0.0023
  128SOPE  H12A13707   4.702   4.498   1.738 -1.8664  0.6704  0.2873
  128SOPE  H12B13708   4.647   4.609   1.878 -0.2900 -0.9310  2.4382
  128SOPE   C1113709   4.715   4.421   1.957  0.3430  0.3189 -0.3348
  128SOPE  H11A13710   4.613   4.378   1.965  0.1700  0.9875  1.3559
  128SOPE  H11B13711   4.730   4.476   2.052 -1.3769  0.1744  0.0438
  128SOPE     P13712   4.913   4.259   2.046 -0.0881  0.1496  0.6993
  128SOPE   O1313713   5.051   4.239   1.995  0.2559 -0.5930 -0.1193
  128SOPE   O1413714   4.855   4.135   2.103 -0.4401  0.5617 -0.7160
  128SOPE   O1213715   4.818   4.323   1.943 -0.2434  0.6957 -0.3683
  128SOPE   O1113716   4.913   4.362   2.167  0.6606  0.5740 -0.3214
  128SOPE    C113717   5.029   4.375   2.242 -0.4114 -0.1515 -0.5099
  128SOPE    HA13718   5.018   4.471   2.297  0.7525 -0.7696  0.8263
  128SOPE    HB13719   5.116   4.393   2.175 -0.3231  0.4965 -0.2295
  128SOPE    C213720   5.082   4.258   2.330 -0.6263 -0.0255 -0.1803
  128SOPE    HS13721   5.112   4.178   2.259  0.7497  0.2219  0.0939
  128SOPE   O2113722   4.979   4.214   2.423  0.4958 -0.3084  0.2143
  128SOPE   C2113723   4.990   4.095   2.463 -0.8728  0.1050 -0.0083
  128SOPE   O2213724   5.063   4.006   2.415  0.1418  0.1111  0.3610
  128SOPE   C2213725   4.901   4.065   2.584 -0.3798  0.0074  0.6981
  128SOPE   H2R13726   4.871   3.959   2.566  1.1277 -0.4606  0.8302
  128SOPE   H2S13727   4.804   4.118   2.572 -0.9152 -0.9727  0.5065
  128SOPE    C313728   5.218   4.296   2.399  0.0511 -0.3050  0.6287
  128SOPE    HX13729   5.195   4.378   2.471 -0.2869  1.8327 -1.7690
  128SOPE    HY13730   5.284   4.333   2.318  0.2516 -0.6852  0.6185
  128SOPE   O3113731   5.287   4.180   2.468  0.2726  0.1476  0.3784
  128SOPE   C3113732   5.420   4.198   2.476 -0.4573 -0.1369 -0.4479
  128SOPE   O3213733   5.487   4.287   2.425 -0.1794 -0.1358 -0.8707
  128SOPE   C3213734   5.474   4.090   2.572  0.0336  0.0597  0.3029
  128SOPE   H2X13735   5.515   4.144   2.660 -0.1733 -1.2229  1.2136
  128SOPE   H2Y13736   5.551   4.037   2.512  0.6433 -0.7646  1.7508
  128SOPE   C2313737   4.973   4.080   2.718 -0.2085 -0.0048 -0.2646
  128SOPE   H3R13738   4.931   4.168   2.772 -0.6186 -1.4480  1.8704
  128SOPE   H3S13739   5.083   4.096   2.709 -0.0072  0.6644  2.5911
  128SOPE   C2413740   4.975   3.958   2.806  0.2450  0.2576  0.0289
  128SOPE   H4R13741   5.033   3.874   2.762 -3.5255 -2.5578 -0.0920
  128SOPE   H4S13742   5.034   3.975   2.899  1.3676  0.1394 -0.6400
  128SOPE   C2513743   4.841   3.902   2.851 -0.0816  0.2494  0.0371
  128SOPE   H5R13744   4.773   3.887   2.765 -0.1695 -0.4361  0.2209
  128SOPE   H5S13745   4.850   3.795   2.880  1.4310 -0.0639 -1.4262
  128SOPE   C2613746   4.768   3.987   2.958 -0.2851 -0.3333  0.3211
  128SOPE   H6R13747   4.767   4.095   2.933  0.9658 -0.3962 -0.0824
  128SOPE   H6S13748   4.664   3.951   2.966 -0.8010  0.6879 -1.3125
  128SOPE   C2713749   4.824   3.968   3.098  0.0144  0.2170 -0.9424
  128SOPE   H7R13750   4.827   3.862   3.131 -3.1580 -0.0897 -1.3049
  128SOPE   H7S13751   4.930   3.995   3.076 -0.3970  1.6205 -1.3258
  128SOPE   C2813752   4.764   4.069   3.209  0.2703 -1.1057 -0.5780
  128SOPE   H8R13753   4.844   4.092   3.282 -1.1939 -2.7557  1.7192
  128SOPE   H8S13754   4.752   4.165   3.154  1.9186 -0.9109 -0.6257
  128SOPE   C2913755   4.632   4.021   3.268 -0.7149  0.2625 -0.1938
  128SOPE   H9113756   4.558   3.995   3.191  2.4907 -3.5469 -2.3221
  128SOPE  C21013757   4.613   4.005   3.407 -0.2937  0.0621 -0.2392
  128SOPE  H10113758   4.517   3.966   3.441  0.3396 -1.7669 -0.4236
  128SOPE  C21113759   4.717   4.024   3.513  0.0660 -0.2706  0.4279
  128SOPE  H11R13760   4.804   4.080   3.472  0.0912  0.0580  0.9299
  128SOPE  H11S13761   4.757   3.925   3.544  0.1125 -0.0614  1.0362
  128SOPE  C21213762   4.656   4.112   3.626 -0.4918  0.2909 -0.1677
  128SOPE  H12R13763   4.565   4.070   3.674 -0.2848 -0.8551 -0.7399
  128SOPE  H12S13764   4.637   4.218   3.597 -2.6140  0.3395  1.1871
  128SOPE  C21313765   4.770   4.116   3.741  0.1657 -0.1743  0.4083
  128SOPE  H13R13766   4.851   4.184   3.706 -0.5109  0.5880  0.2651
  128SOPE  H13S13767   4.801   4.012   3.762  0.3663  0.2571  2.4645
  128SOPE  C21413768   4.712   4.175   3.869 -0.9890  0.8328  0.3035
  128SOPE  H14R13769   4.639   4.107   3.917 -1.6302 -0.8538 -2.8262
  128SOPE  H14S13770   4.661   4.271   3.847 -1.7129  0.2388 -0.6623
  128SOPE  C21513771   4.823   4.196   3.970 -0.1509  0.6106 -0.1800
  128SOPE  H15R13772   4.906   4.248   3.919  0.7806 -1.1805 -0.5682
  128SOPE  H15S13773   4.870   4.100   4.001 -1.3462  0.3777  1.0154
  128SOPE  C21613774   4.772   4.260   4.096 -0.1860  0.3497 -0.6998
  128SOPE  H16R13775   4.695   4.195   4.140 -0.0217 -0.1108 -1.0837
  128SOPE  H16S13776   4.721   4.357   4.079  1.0907  1.4857  1.4995
  128SOPE  C21713777   4.881   4.278   4.202 -0.5163  0.3743  0.3523
  128SOPE  H17R13778   4.955   4.347   4.156 -2.4909  1.6525 -1.1217
  128SOPE  H17S13779   4.924   4.183   4.240 -1.1831 -0.3326 -0.6005
  128SOPE  C21813780   4.832   4.344   4.335 -0.2519  0.1167  0.6865
  128SOPE  H18R13781   4.744   4.307   4.392  0.3816 -0.5789  1.2415
  128SOPE  H18S13782   4.825   4.455   4.334  2.0257  0.3165 -0.3341
  128SOPE  H18T13783   4.923   4.346   4.399 -0.7346  2.7051  1.4067
  128SOPE   C3313784   5.373   3.983   2.628  0.6842  0.0649  0.3882
  128SOPE   H3X13785   5.313   3.924   2.555 -1.2052  1.3734  0.8164
  128SOPE   H3Y13786   5.303   4.043   2.691  0.7050 -1.1274  1.5831
  128SOPE   C3413787   5.446   3.889   2.726 -0.1185 -0.1027 -0.1391
  128SOPE   H4X13788   5.376   3.817   2.773 -1.0116 -0.0894 -1.4209
  128SOPE   H4Y13789   5.471   3.951   2.815 -0.9780  0.5903 -0.3750
  128SOPE   C3513790   5.576   3.828   2.664 -0.5977 -0.4095 -0.3107
  128SOPE   H5X13791   5.646   3.914   2.676 -1.2553 -0.0085  0.8786
  128SOPE   H5Y13792   5.553   3.800   2.559 -0.6173 -1.7385  0.0346
  128SOPE   C3613793   5.627   3.706   2.735 -0.4239  0.3224  0.2233
  128SOPE   H6X13794   5.549   3.667   2.803 -0.4027  0.3091  0.2400
  128SOPE   H6Y13795   5.716   3.734   2.797  0.8904  2.0373 -2.2675
  128SOPE   C3713796   5.654   3.591   2.639  0.3054 -0.1199  0.2520
  128SOPE   H7X13797   5.726   3.634   2.566  1.0050 -1.5556  0.0540
  128SOPE   H7Y13798   5.571   3.562   2.570  2.7360  1.8065 -3.9006
  128SOPE   C3813799   5.703   3.460   2.706  0.1510 -0.0541  0.0943
  128SOPE   H8X13800   5.798   3.501   2.747 -0.8522  2.4783  0.0061
  128SOPE   H8Y13801   5.729   3.383   2.630  0.6471 -1.6751  1.8193
  128SOPE   C3913802   5.623   3.412   2.821  0.5283 -0.0016  0.2921
  128SOPE   H9X13803   5.523   3.372   2.790 -0.7167 -0.2688  4.0887
  128SOPE   H9Y13804   5.605   3.489   2.898  0.8226 -1.2137  1.6255
  128SOPE  C31013805   5.685   3.284   2.882  0.2120 -0.6130 -0.5572
  128SOPE  H10X13806   5.760   3.239   2.813 -0.0736 -2.4542  0.2882
  128SOPE  H10Y13807   5.597   3.217   2.891 -0.6173  0.3989 -0.8492
  128SOPE  C31113808   5.737   3.325   3.021 -0.4083  0.2319 -0.0812
  128SOPE  H11X13809   5.667   3.395   3.072 -1.1815  0.1677 -1.0182
  128SOPE  H11Y13810   5.826   3.390   3.007 -0.2978  0.5048  1.6721
  128SOPE  C31213811   5.775   3.214   3.127 -0.5011  0.4650  0.5102
  128SOPE  H12X13812   5.857   3.155   3.083 -1.9739  0.3250 -2.2871
  128SOPE  H12Y13813   5.683   3.151   3.130 -0.2523  0.0879  0.2995
  128SOPE  C31313814   5.815   3.279   3.266  0.2218 -0.3453  0.1195
  128SOPE  H13X13815   5.735   3.346   3.303  0.9132  0.5956 -0.0628
  128SOPE  H13Y13816   5.898   3.352   3.258 -1.3176  1.4845  0.1562
  128SOPE  C31413817   5.838   3.178   3.379 -0.1778  0.0601  0.3320
  128SOPE  H14X13818   5.898   3.093   3.341 -0.6232 -1.1531  2.2199
  128SOPE  H14Y13819   5.741   3.132   3.406  0.0795 -0.0277  1.1439
  128SOPE  C31513820   5.915   3.249   3.497 -0.2266 -0.3637 -0.2482
  128SOPE  H15X13821   6.019   3.281   3.474  0.0125 -0.4920  0.6197
  128SOPE  H15Y13822   5.924   3.166   3.570 -1.1013 -2.5490 -2.4732
  128SOPE  C31613823   5.831   3.363   3.549 -0.5009  0.9615 -0.2246
  128SOPE  H16X13824   5.728   3.330   3.577  0.2897 -0.1809  1.5915
  128SOPE  H16Y13825   5.819   3.446   3.477 -0.8376  1.7481  0.7124
  128SOPE  C31713826   5.881   3.411   3.683  0.1553  0.3611  0.0519
  128SOPE  H17X13827   5.831   3.509   3.702 -3.9438 -1.4969 -0.1326
  128SOPE  H17Y13828   5.991   3.426   3.685  0.4350 -1.3893 -1.1310
  128SOPE  C31813829   5.846   3.314   3.806  0.8812 -0.7938  0.3349
  128SOPE  H18X13830   5.741   3.277   3.803  0.9357 -1.1437  1.8589
  128SOPE  H18Y13831   5.860   3.358   3.907 -0.7364 -2.4231  1.3254
  128SOPE  H18Z13832   5.911   3.225   3.809 -1.2530 -2.4077  2.2389
  129OSM      N13833   6.535   4.129   6.503 -0.0169 -0.6316 -0.1767
  129OSM    C1513834   6.548   3.993   6.456  0.3448 -0.1509  0.5474
  129OSM   H15A13835   6.548   3.991   6.348  0.6960  1.4707  0.4975
  129OSM   H15B13836   6.475   3.919   6.487 -0.5194  1.2176  1.9828
  129OSM   H15C13837   6.646   3.954   6.478  0.7012  1.5345  2.1927
  129OSM    C1413838   6.536   4.127   6.652 -0.1318  0.4019  0.3224
  129OSM   H14A13839   6.523   4.227   6.691 -1.7494 -0.0731  1.0932
  129OSM   H14B13840   6.635   4.088   6.667  0.5172  2.5058  1.8780
  129OSM   H14C13841   6.460   4.064   6.696  0.4266 -0.0111  0.7120
  129OSM    C1313842   6.653   4.201   6.452  0.5103  0.7138 -0.0355
  129OSM   H13A13843   6.662   4.198   6.345 -0.3516  2.1698 -0.1850
  129OSM   H13B13844   6.741   4.160   6.499 -0.9676  0.1723  2.4268
  129OSM   H13C13845   6.648   4.306   6.479 -1.4633  0.6231  0.0727
  129OSM    C1213846   6.407   4.191   6.444  0.3340 -0.0970  0.5952
  129OSM   H12A13847   6.419   4.213   6.339  0.7617  0.5027  0.7641
  129OSM   H12B13848   6.395   4.290   6.486  1.6731 -0.9556  3.2222
  129OSM    C1113849   6.277   4.125   6.482 -0.1436  0.0532  0.7950
  129OSM   H11A13850   6.197   4.196   6.454  0.2453  0.0457 -0.3907
  129OSM   H11B13851   6.277   4.108   6.592 -0.5946 -1.1115  0.6320
  129OSM      P13852   6.139   3.901   6.465  0.4699  0.1358 -0.2696
  129OSM    O1313853   6.161   3.883   6.613 -0.1331 -0.1292  0.2419
  129OSM    O1413854   6.002   3.944   6.424  0.0696  0.1235  0.5199
  129OSM    O1113855   6.174   3.767   6.397  0.1176 -0.5334 -0.2291
  129OSM    O1213856   6.253   3.998   6.412  0.2624 -0.8926  0.7685
  129OSM    C1S13857   6.234   3.791   6.261 -0.0778 -0.5631 -0.1106
  129OSM    H1S13858   6.343   3.812   6.268 -0.1452 -0.3965  0.4800
  129OSM    H1T13859   6.189   3.873   6.201  0.0897 -0.3133  0.1021
  129OSM     NF13860   6.311   3.687   6.059 -0.1997  0.0550 -0.2124
  129OSM    HNF13861   6.261   3.684   5.972 -0.6013 -3.5949 -0.0092
  129OSM    C2S13862   6.225   3.665   6.172 -0.4892 -0.3102  0.3717
  129OSM    H2S13863   6.270   3.584   6.234 -2.2369 -1.3562  0.3304
  129OSM    C3S13864   6.077   3.622   6.144 -0.2531 -0.4192  0.1390
  129OSM    H3S13865   6.042   3.695   6.067  1.5261  0.5854  0.2277
  129OSM     O313866   5.989   3.645   6.248 -0.1961  0.3551  0.3896
  129OSM    HO313867   6.039   3.706   6.303  0.3597  1.2959 -1.0902
  129OSM    C4S13868   6.065   3.488   6.092  0.3044 -0.2667  0.5533
  129OSM    H4S13869   6.021   3.483   5.992  0.6107 -1.2285  0.4607
  129OSM    C5S13870   6.059   3.375   6.160  0.0150 -0.2545 -0.2418
  129OSM    H5S13871   6.073   3.382   6.269  0.7966 -1.9171 -0.1923
  129OSM    C6S13872   6.017   3.238   6.109  0.3459  0.0931  0.4257
  129OSM    H6S13873   5.941   3.201   6.182 -1.8310  2.3494 -0.5349
  129OSM    H6T13874   6.101   3.166   6.117  0.3733  0.0693 -0.0742
  129OSM    C7S13875   5.954   3.235   5.967  0.4704  0.1971 -0.3475
  129OSM    H7S13876   5.858   3.291   5.966 -0.5069 -1.3738  0.6841
  129OSM    H7T13877   5.912   3.134   5.950 -0.1345  0.3404  0.2341
  129OSM    C8S13878   6.040   3.268   5.843 -0.4862  0.3719 -0.0753
  129OSM    H8S13879   6.124   3.196   5.850 -1.0486 -0.2393  0.5033
  129OSM    H8T13880   6.102   3.361   5.847  0.2336  0.0662 -2.6159
  129OSM    C9S13881   5.959   3.264   5.713  0.5123  0.0608 -0.3220
  129OSM    H9S13882   5.883   3.343   5.730 -1.4145 -1.2815 -2.2756
  129OSM    H9T13883   5.896   3.173   5.717 -0.4460  0.6818 -0.9061
  129OSM   C10S13884   6.039   3.258   5.582  0.3025  0.0203 -0.8206
  129OSM   H10S13885   6.105   3.169   5.589  0.1330  0.0127  2.0029
  129OSM   H10T13886   6.096   3.353   5.573 -0.7691  0.6733 -0.9172
  129OSM   C11S13887   5.947   3.247   5.465 -0.5554  0.2282 -0.2965
  129OSM   H11S13888   5.866   3.322   5.459 -1.2731 -0.6206 -1.9083
  129OSM   H11T13889   5.898   3.147   5.461  0.1448 -0.0846 -1.4106
  129OSM   C12S13890   6.037   3.264   5.333  0.2740 -0.7773 -1.4212
  129OSM   H12S13891   6.097   3.173   5.310 -0.8037 -1.7700 -0.4172
  129OSM   H12T13892   6.109   3.348   5.341  1.6287 -1.9880 -0.1187
  129OSM   C13S13893   5.949   3.290   5.212 -0.2931  0.0585  0.0137
  129OSM   H13S13894   5.903   3.391   5.210  0.4810  0.4151 -0.1724
  129OSM   H13T13895   5.866   3.218   5.233 -0.2664  0.3418  1.1953
  129OSM   C14S13896   6.008   3.245   5.079  0.2793  0.0511  0.3856
  129OSM   H14S13897   6.085   3.166   5.081 -1.1194 -1.3493  1.9671
  129OSM   H14T13898   6.057   3.339   5.045 -1.7425  1.1187  0.2400
  129OSM   C15S13899   5.904   3.190   4.973  0.0109  0.5406 -0.2642
  129OSM   H15S13900   5.830   3.273   4.962  0.8353  1.2057 -1.0312
  129OSM   H15T13901   5.852   3.102   5.015  1.7554 -1.5961 -2.3471
  129OSM   C16S13902   5.968   3.155   4.838 -0.0855  0.0054 -0.0237
  129OSM   H16S13903   5.886   3.181   4.768 -2.0599  3.3275  3.1310
  129OSM   H16T13904   5.991   3.047   4.826  2.6017  0.4405  0.4936
  129OSM   C17S13905   6.089   3.242   4.801 -0.0673  0.5346  0.4926
  129OSM   H17S13906   6.177   3.217   4.864  0.7507 -0.4441 -0.9536
  129OSM   H17T13907   6.071   3.350   4.820  2.0402  1.1656 -0.7122
  129OSM   C18S13908   6.139   3.231   4.657  0.8569  0.3868  0.4005
  129OSM   H18S13909   6.239   3.279   4.646  2.2182 -2.3229  0.1508
  129OSM   H18T13910   6.069   3.295   4.600  0.6463 -0.6847 -0.5804
  129OSM   H18U13911   6.153   3.130   4.613  0.7883 -0.3036  1.9079
  129OSM    C1F13912   6.444   3.708   6.068  0.1549 -0.0372 -0.1393
  129OSM     OF13913   6.506   3.663   6.163 -0.5279 -0.3008  0.4629
  129OSM    C2F13914   6.502   3.796   5.961  0.1029  0.4800  0.1956
  129OSM    H2F13915   6.474   3.904   5.965 -0.4944  0.2904  1.9721
  129OSM    H2G13916   6.451   3.770   5.866  0.0272  1.2202  0.0241
  129OSM    C3F13917   6.654   3.774   5.945  0.0467 -0.2429 -0.1259
  129OSM    H3F13918   6.676   3.666   5.958  1.1436  0.1214  1.3474
  129OSM    H3G13919   6.703   3.810   6.038  3.4798 -1.8379 -1.1383
  129OSM    C4F13920   6.715   3.834   5.818 -0.2734 -0.0334  0.0568
  129OSM    H4F13921   6.818   3.867   5.842  0.4846 -0.8948 -1.8379
  129OSM    H4G13922   6.651   3.923   5.804 -1.2115 -0.8719 -1.2380
  129OSM    C5F13923   6.693   3.753   5.688  0.0766 -0.5494 -0.5880
  129OSM    H5F13924   6.584   3.746   5.666 -0.1008  0.4977 -0.0921
  129OSM    H5G13925   6.750   3.658   5.694  0.5890 -0.2284 -0.3203
  129OSM    C6F13926   6.754   3.821   5.562 -0.2223 -0.5370 -0.6254
  129OSM    H6F13927   6.862   3.846   5.564 -0.1596 -0.8244 -0.3646
  129OSM    H6G13928   6.707   3.922   5.559  1.7284  0.6541  3.2584
  129OSM    C7F13929   6.731   3.734   5.441  0.1671 -0.3436  0.3359
  129OSM    H7F13930   6.631   3.684   5.447  0.0724 -0.0300  1.6342
  129OSM    H7G13931   6.808   3.655   5.429  0.0811 -0.5759  1.2522
  129OSM    C8F13932   6.733   3.810   5.308 -0.3673 -0.2699 -0.2028
  129OSM    H8F13933   6.649   3.882   5.313  1.3083  1.7164  1.1013
  129OSM    H8G13934   6.700   3.732   5.236 -1.3156 -0.2262  0.1824
  129OSM    C9F13935   6.866   3.874   5.267  0.2574 -0.3930 -0.4568
  129OSM    H9F13936   6.893   3.961   5.329 -0.5845 -0.7405  0.4194
  129OSM   C10F13937   6.938   3.854   5.155 -0.0303 -0.2625  0.2115
  129OSM   H10F13938   7.035   3.902   5.134  0.2088 -1.1044 -0.6968
  129OSM   C11F13939   6.889   3.756   5.045 -0.2025  0.4572  0.0021
  129OSM   H11F13940   6.850   3.663   5.092 -0.2262 -0.2148 -1.2876
  129OSM   H11G13941   6.974   3.718   4.984 -0.7166 -0.2925 -0.2620
  129OSM   C12F13942   6.783   3.809   4.951 -0.3889  0.2056 -0.0029
  129OSM   H12F13943   6.694   3.850   5.004 -0.6478 -0.8057  0.3576
  129OSM   H12G13944   6.759   3.718   4.893  3.2236 -1.5572  0.9726
  129OSM   C13F13945   6.828   3.900   4.837 -0.3393  0.2942  0.6890
  129OSM   H13F13946   6.754   3.911   4.756  0.0705 -2.0229 -0.0539
  129OSM   H13G13947   6.912   3.845   4.789 -1.5341  0.2207 -1.4275
  129OSM   C14F13948   6.887   4.040   4.867 -0.6253 -0.1929 -0.0361
  129OSM   H14F13949   6.881   4.099   4.773 -1.2726  1.9946  1.2996
  129OSM   H14G13950   6.998   4.037   4.878 -0.3712 -0.9733 -2.3136
  129OSM   C15F13951   6.817   4.127   4.971 -0.1648  0.2042 -0.8490
  129OSM   H15F13952   6.789   4.058   5.054  1.7584 -1.5191 -1.5440
  129OSM   H15G13953   6.718   4.159   4.932  0.5855  1.5267 -1.7643
  129OSM   C16F13954   6.906   4.238   5.025 -0.2939 -0.0988  0.4363
  129OSM   H16F13955   6.964   4.282   4.940 -2.8971  2.0391 -0.3854
  129OSM   H16G13956   6.981   4.189   5.092  0.8387 -1.0552 -1.4340
  129OSM   C17F13957   6.844   4.354   5.103  0.2689 -0.9047  0.0221
  129OSM   H17F13958   6.772   4.407   5.037  1.5922 -0.2420 -0.9401
  129OSM   H17G13959   6.919   4.429   5.137 -1.4198  1.0066 -0.2331
  129OSM   C18F13960   6.765   4.304   5.226 -0.9288 -0.4996  0.4361
  129OSM   H18F13961   6.708   4.213   5.194 -0.9021  0.0792 -1.3797
  129OSM   H18G13962   6.691   4.375   5.269 -0.9736 -0.8549  0.9593
  129OSM   H18H13963   6.832   4.275   5.309 -0.7512  1.1152  0.8805
  130OSM      N13964   6.253   6.831   6.914 -0.1374  0.1835  0.2918
  130OSM    C1513965   6.314   6.716   6.996 -0.6036 -0.3901  0.7242
  130OSM   H15A13966   6.371   6.749   7.081  1.5257 -0.6120 -0.5656
  130OSM   H15B13967   6.382   6.660   6.934 -1.3419 -1.7326  1.0799
  130OSM   H15C13968   6.232   6.657   7.035 -1.3940  0.3481  0.2155
  130OSM    C1413969   6.166   6.908   7.005 -0.1515 -0.8224  0.0490
  130OSM   H14A13970   6.216   6.940   7.095 -0.5677 -2.0367  0.7291
  130OSM   H14B13971   6.079   6.848   7.025 -0.8288  0.7515  2.0862
  130OSM   H14C13972   6.115   6.987   6.953 -0.2798 -1.1689 -0.3611
  130OSM    C1313973   6.361   6.921   6.861  0.2724 -0.1916  0.5081
  130OSM   H13A13974   6.331   7.018   6.824  2.1275 -1.3054 -4.7735
  130OSM   H13B13975   6.417   6.872   6.783  2.3134  2.2954  0.2931
  130OSM   H13C13976   6.436   6.940   6.936  0.0803  0.1001  0.6288
  130OSM    C1213977   6.173   6.769   6.793 -0.3493 -0.6831 -0.4347
  130OSM   H12A13978   6.246   6.720   6.731  1.7697  1.1153  0.4795
  130OSM   H12B13979   6.138   6.850   6.730  1.3867  2.9704  2.8075
  130OSM    C1113980   6.052   6.677   6.837  0.1113  0.6231  0.4321
  130OSM   H11A13981   6.088   6.598   6.907  1.2441  2.3995  1.9482
  130OSM   H11B13982   6.024   6.619   6.746  0.9282  0.3601  0.3315
  130OSM      P13983   5.855   6.852   6.823  0.1509  0.2883 -0.0241
  130OSM    O1313984   5.716   6.807   6.837  0.3636  0.3348  0.4729
  130OSM    O1413985   5.894   6.982   6.869  0.5124 -0.2050 -0.4483
  130OSM    O1113986   5.893   6.815   6.671  0.1737  0.3868  0.0802
  130OSM    O1213987   5.934   6.745   6.902 -0.2224 -0.1346 -0.0104
  130OSM    C1S13988   5.803   6.865   6.574  0.3836 -0.8201 -0.4148
  130OSM    H1S13989   5.818   6.975   6.567 -1.0434 -0.4645  1.3825
  130OSM    H1T13990   5.697   6.854   6.606  0.7566  1.4437  1.9380
  130OSM     NF13991   5.786   6.869   6.324  0.2330  1.3651  0.5179
  130OSM    HNF13992   5.701   6.843   6.279  0.3946  2.4753 -0.4558
  130OSM    C2S13993   5.827   6.788   6.440 -0.4051  1.0291  0.1858
  130OSM    H2S13994   5.937   6.778   6.436 -0.5385 -0.4917 -0.6618
  130OSM    C3S13995   5.761   6.647   6.447  0.2440  0.0600 -0.0103
  130OSM    H3S13996   5.650   6.653   6.453  0.2561 -0.1625  0.4522
  130OSM     O313997   5.800   6.562   6.558  0.5921  0.0327 -0.3912
  130OSM    HO313998   5.866   6.615   6.603  0.0328 -0.4406  1.0431
  130OSM    C4S13999   5.793   6.573   6.318  0.4664 -0.6600  0.0868
  130OSM    H4S14000   5.701   6.578   6.257 -0.4500 -1.0939  1.3728
  130OSM    C5S14001   5.913   6.513   6.292 -0.0251  0.0600  0.1286
  130OSM    H5S14002   5.989   6.506   6.371  0.5431 -0.2991 -0.4379
  130OSM    C6S14003   5.947   6.439   6.164  0.3200  0.0908  0.5189
  130OSM    H6S14004   5.956   6.330   6.183  0.5076  0.0505  0.1980
  130OSM    H6T14005   6.039   6.486   6.124  0.7470 -0.6838  0.5720
  130OSM    C7S14006   5.837   6.440   6.056  0.6447  0.1261 -0.3015
  130OSM    H7S14007   5.824   6.545   6.023 -1.4730 -0.7625 -2.6459
  130OSM    H7T14008   5.747   6.403   6.110  0.5543  0.3839 -0.2739
  130OSM    C8S14009   5.868   6.342   5.941  1.3819  0.6102  0.2213
  130OSM    H8S14010   5.874   6.236   5.972  0.3969  0.1781 -0.9819
  130OSM    H8T14011   5.967   6.362   5.895  2.1969 -0.1883  1.5502
  130OSM    C9S14012   5.750   6.334   5.834 -0.1505 -0.3160 -0.4981
  130OSM    H9S14013   5.744   6.436   5.790 -1.4453 -0.5261 -0.8415
  130OSM    H9T14014   5.652   6.317   5.882  0.6875  0.3972  1.6008
  130OSM   C10S14015   5.768   6.233   5.729  0.3479 -0.5849 -0.2536
  130OSM   H10S14016   5.780   6.130   5.770 -2.1849 -0.5436  0.8189
  130OSM   H10T14017   5.866   6.252   5.680  0.3442  3.3431  0.9513
  130OSM   C11S14018   5.662   6.242   5.620  0.1633  0.1003 -0.1618
  130OSM   H11S14019   5.657   6.350   5.595  1.0862  0.7851  2.2900
  130OSM   H11T14020   5.564   6.208   5.661 -0.0262  2.4444  1.5283
  130OSM   C12S14021   5.688   6.142   5.504 -0.7541 -0.3398  0.4108
  130OSM   H12S14022   5.686   6.037   5.539  1.3465 -0.8613 -0.8834
  130OSM   H12T14023   5.790   6.160   5.465 -1.5721  2.2867 -0.7738
  130OSM   C13S14024   5.587   6.159   5.394  0.3116  0.4426  0.4573
  130OSM   H13S14025   5.613   6.248   5.332 -0.8143 -0.2728 -1.1124
  130OSM   H13T14026   5.483   6.165   5.430  0.3566  0.1221  0.6434
  130OSM   C14S14027   5.594   6.036   5.305  0.2050  0.1253 -0.6340
  130OSM   H14S14028   5.559   5.942   5.353 -0.9942  1.3083  0.9133
  130OSM   H14T14029   5.702   6.029   5.283 -0.1659 -0.1980 -2.4557
  130OSM   C15S14030   5.519   6.042   5.176  0.7223 -0.4728 -0.2553
  130OSM   H15S14031   5.549   6.134   5.122 -0.8272 -0.0949 -0.4984
  130OSM   H15T14032   5.413   6.043   5.208  1.1174  0.7808  1.1579
  130OSM   C16S14033   5.533   5.917   5.101 -0.1207 -0.4179  0.5633
  130OSM   H16S14034   5.497   5.831   5.162 -2.0797  0.2339  0.3856
  130OSM   H16T14035   5.642   5.898   5.091  0.1945  0.1316  2.5189
  130OSM   C17S14036   5.457   5.926   4.967 -0.1880  0.2545 -0.0391
  130OSM   H17S14037   5.468   6.029   4.926  1.2848  0.9003  1.8487
  130OSM   H17T14038   5.350   5.922   4.994 -0.6653  0.8843 -1.6947
  130OSM   C18S14039   5.483   5.826   4.851 -0.3253 -0.0453  0.7201
  130OSM   H18S14040   5.398   5.830   4.780  0.5779 -0.3299 -0.4011
  130OSM   H18T14041   5.485   5.718   4.874 -0.3110 -0.4586 -1.0979
  130OSM   H18U14042   5.574   5.855   4.793 -1.2127 -1.0621 -1.2814
  130OSM    C1F14043   5.833   6.985   6.291  0.1878  0.5631 -0.2107
  130OSM     OF14044   5.953   7.008   6.318 -0.2217  0.2371 -0.0077
  130OSM    C2F14045   5.733   7.087   6.228 -0.4175  0.0494 -0.0783
  130OSM    H2F14046   5.686   7.139   6.314 -0.4639 -2.8283  1.7723
  130OSM    H2G14047   5.658   7.042   6.160 -1.0583  2.0455 -0.7759
  130OSM    C3F14048   5.807   7.205   6.151 -0.0364  0.3121 -0.3561
  130OSM    H3F14049   5.871   7.278   6.205 -2.3485  3.4812 -1.6036
  130OSM    H3G14050   5.724   7.263   6.105  1.1267  1.2287 -1.3740
  130OSM    C4F14051   5.884   7.156   6.034  0.2637  1.1794  0.1794
  130OSM    H4F14052   5.843   7.062   5.991 -0.2164  0.9947  1.0337
  130OSM    H4G14053   5.987   7.122   6.060 -0.2895 -0.5850  0.2076
  130OSM    C5F14054   5.885   7.265   5.923  0.4172  0.0194 -0.4562
  130OSM    H5F14055   5.946   7.347   5.967 -0.8221 -0.7293  3.0224
  130OSM    H5G14056   5.784   7.301   5.893  0.0310 -2.2833 -2.1763
  130OSM    C6F14057   5.944   7.212   5.794 -0.3195  0.2850 -0.6884
  130OSM    H6F14058   6.025   7.138   5.815  0.8683  1.8897  0.6197
  130OSM    H6G14059   5.987   7.302   5.744  0.6788 -0.2309 -0.8005
  130OSM    C7F14060   5.840   7.149   5.698  0.2113 -0.1162 -0.3372
  130OSM    H7F14061   5.741   7.197   5.706 -0.2387 -1.0083 -0.4427
  130OSM    H7G14062   5.818   7.045   5.730  1.1623  0.4412  2.3269
  130OSM    C8F14063   5.896   7.136   5.558  0.1449 -0.1784  0.2493
  130OSM    H8F14064   5.926   7.238   5.527 -1.1929  1.1670  2.9350
  130OSM    H8G14065   5.816   7.100   5.490  1.2604 -2.6456  0.1363
  130OSM    C9F14066   6.018   7.048   5.555  0.1647  0.8252 -0.0416
  130OSM    H9F14067   6.106   7.082   5.612 -0.1469  1.6060 -0.0178
  130OSM   C10F14068   6.031   6.938   5.478  0.3286  0.4811 -0.1555
  130OSM   H10F14069   6.114   6.872   5.504 -0.9152 -0.3418  1.9890
  130OSM   C11F14070   5.929   6.884   5.384 -0.6101  0.1040  0.4848
  130OSM   H11F14071   5.828   6.930   5.396 -0.2584  0.6886  1.2809
  130OSM   H11G14072   5.917   6.775   5.400  0.3611 -0.1652 -0.4802
  130OSM   C12F14073   5.978   6.907   5.239  0.2397  0.1712 -0.0424
  130OSM   H12F14074   6.066   6.844   5.213 -0.6130 -1.1461  0.1617
  130OSM   H12G14075   6.027   7.006   5.228  1.4412 -0.4922 -0.9134
  130OSM   C13F14076   5.855   6.890   5.139  0.1422 -0.1179 -0.1572
  130OSM   H13F14077   5.764   6.947   5.168  1.8087  2.0298  1.2129
  130OSM   H13G14078   5.820   6.786   5.155  0.7829 -0.1167  1.4998
  130OSM   C14F14079   5.890   6.901   4.991  0.5365 -0.1261 -0.5255
  130OSM   H14F14080   5.977   6.836   4.967  3.7078  3.9240 -1.1439
  130OSM   H14G14081   5.929   7.003   4.967 -0.2596 -0.2233 -2.4135
  130OSM   C15F14082   5.775   6.867   4.899 -0.6331 -0.1080 -0.7051
  130OSM   H15F14083   5.688   6.931   4.924  0.9701  1.9405 -0.0968
  130OSM   H15G14084   5.745   6.760   4.904  2.2611 -1.0272 -1.4522
  130OSM   C16F14085   5.807   6.903   4.754 -0.1060 -0.0166 -1.2571
  130OSM   H16F14086   5.862   7.000   4.755  1.8239 -0.9777  2.2924
  130OSM   H16G14087   5.714   6.908   4.693 -1.5739  0.9658  0.9215
  130OSM   C17F14088   5.886   6.791   4.685  0.3308 -0.1538  0.8577
  130OSM   H17F14089   5.868   6.821   4.580 -0.6710  1.5990  1.4726
  130OSM   H17G14090   5.852   6.688   4.704 -1.0478  0.2779  0.7928
  130OSM   C18F14091   6.036   6.822   4.689 -0.2356  0.0752  0.5893
  130OSM   H18F14092   6.085   6.765   4.607  1.2177 -1.7917  2.6497
  130OSM   H18G14093   6.082   6.791   4.785  2.4896  1.4914 -0.1582
  130OSM   H18H14094   6.053   6.930   4.673  0.0611 -0.1249 -0.5206
  131OSM      N14095   5.481   1.157   6.789 -0.1814  0.4908 -0.1530
  131OSM    C1514096   5.430   1.079   6.909 -0.7767  0.4629  0.4449
  131OSM   H15A14097   5.413   1.147   6.991  1.0541  0.8529  0.5420
  131OSM   H15B14098   5.495   0.994   6.922 -1.1620 -0.5602 -3.0814
  131OSM   H15C14099   5.337   1.029   6.887 -0.7990  0.5188  0.4116
  131OSM    C1414100   5.514   1.072   6.666 -0.2372  0.3618 -0.1172
  131OSM   H14A14101   5.552   1.139   6.590  2.3804 -0.1340  0.6220
  131OSM   H14B14102   5.428   1.018   6.632  1.5958 -2.1618 -1.0693
  131OSM   H14C14103   5.589   0.999   6.693 -1.7335 -0.6081  1.6567
  131OSM    C1314104   5.372   1.253   6.740  0.1370  0.2041  0.4881
  131OSM   H13A14105   5.278   1.204   6.721 -0.3572  0.0351  3.0122
  131OSM   H13B14106   5.409   1.326   6.670 -1.2429  1.6064  1.1725
  131OSM   H13C14107   5.341   1.314   6.823 -2.5231  0.4165 -0.5876
  131OSM    C1214108   5.611   1.225   6.823  0.3895 -0.3413 -0.0400
  131OSM   H12A14109   5.583   1.310   6.883 -1.7353 -1.5688  0.7950
  131OSM   H12B14110   5.655   1.268   6.734  0.7588  0.5929  0.5829
  131OSM    C1114111   5.717   1.145   6.903  0.2412 -0.3896  0.2347
  131OSM   H11A14112   5.667   1.098   6.990  0.6568 -0.5174  0.4084
  131OSM   H11B14113   5.782   1.218   6.956 -0.0540 -0.6311  0.9398
  131OSM      P14114   5.911   1.073   6.762  0.2251 -0.2146 -0.5835
  131OSM    O1314115   5.912   1.207   6.697  0.0820  0.2760 -0.2180
  131OSM    O1414116   6.016   1.066   6.867 -0.0529  0.0769 -0.0860
  131OSM    O1114117   5.949   0.971   6.653 -0.1320  0.0929 -0.5423
  131OSM    O1214118   5.771   1.041   6.826  0.3637  0.4735 -0.1959
  131OSM    C1S14119   5.863   0.867   6.604 -0.3268  0.1482 -0.2109
  131OSM    H1S14120   5.775   0.916   6.558  0.0084  0.6262 -0.3478
  131OSM    H1T14121   5.837   0.802   6.690 -0.4115  0.0964 -0.2756
  131OSM     NF14122   5.847   0.709   6.405 -0.8662 -0.0373  0.2621
  131OSM    HNF14123   5.867   0.612   6.398 -0.1533  0.1267 -0.0880
  131OSM    C2S14124   5.941   0.796   6.486 -0.1978  0.4255 -0.3923
  131OSM    H2S14125   5.975   0.879   6.420 -2.5244  2.3261  0.6108
  131OSM    C3S14126   6.059   0.713   6.546  0.0901  0.5052  0.4608
  131OSM    H3S14127   6.020   0.650   6.630  3.1355  0.6868  2.1334
  131OSM     O314128   6.154   0.792   6.612 -0.1160 -0.5506  0.1536
  131OSM    HO314129   6.104   0.874   6.611 -2.8384 -2.1067 -0.1646
  131OSM    C4S14130   6.124   0.630   6.445  0.1266 -0.4069 -0.9475
  131OSM    H4S14131   6.091   0.525   6.449 -3.1601  0.5338  2.2214
  131OSM    C5S14132   6.213   0.664   6.350  0.3104 -0.1747  0.0405
  131OSM    H5S14133   6.252   0.766   6.337  1.3839 -0.6410 -0.5869
  131OSM    C6S14134   6.276   0.567   6.250  0.1449 -1.0274 -0.0556
  131OSM    H6S14135   6.386   0.565   6.267 -0.2832  0.1266  3.9275
  131OSM    H6T14136   6.243   0.611   6.153  3.6769  0.8157 -0.5832
  131OSM    C7S14137   6.236   0.421   6.253  1.4665 -0.2955 -0.2951
  131OSM    H7S14138   6.127   0.402   6.236  1.2724  1.0257 -0.6365
  131OSM    H7T14139   6.255   0.375   6.353 -2.1010  1.6034  1.4971
  131OSM    C8S14140   6.312   0.340   6.146  0.2574 -0.6752  0.0689
  131OSM    H8S14141   6.294   0.231   6.162  0.4543 -0.5770  1.0297
  131OSM    H8T14142   6.415   0.367   6.179 -0.5530  2.2261  0.4818
  131OSM    C9S14143   6.296   0.381   5.998 -0.0854  0.9715  0.4692
  131OSM    H9S14144   6.346   0.479   5.984  1.4214  0.2502  0.6570
  131OSM    H9T14145   6.188   0.403   5.984 -0.4780  0.0787  1.8639
  131OSM   C10S14146   6.345   0.275   5.894 -0.1177  0.0161 -0.2682
  131OSM   H10S14147   6.299   0.176   5.916  0.0199 -0.2384 -1.0839
  131OSM   H10T14148   6.454   0.268   5.916 -0.0138  1.3795 -0.2995
  131OSM   C11S14149   6.305   0.305   5.759 -0.3781  0.5130  0.1364
  131OSM   H11S14150   6.268   0.410   5.751  1.8692  1.4484  1.1197
  131OSM   H11T14151   6.214   0.244   5.747  1.3896 -2.7091  1.8487
  131OSM   C12S14152   6.413   0.275   5.657 -0.2688 -0.7424  0.6021
  131OSM   H12S14153   6.442   0.168   5.661 -3.7816 -1.7703  2.6711
  131OSM   H12T14154   6.508   0.332   5.668 -0.9076  0.3390  0.5864
  131OSM   C13S14155   6.344   0.290   5.514  0.2264 -0.5339 -0.0452
  131OSM   H13S14156   6.373   0.391   5.477  0.7406 -0.4831  0.4801
  131OSM   H13T14157   6.233   0.287   5.513 -0.0037  3.1434 -1.1078
  131OSM   C14S14158   6.394   0.184   5.414 -0.3359 -0.7194  0.3167
  131OSM   H14S14159   6.368   0.084   5.453 -2.3842 -0.1903  0.4639
  131OSM   H14T14160   6.504   0.200   5.418 -0.4463 -0.1716  1.8012
  131OSM   C15S14161   6.352   0.199   5.268 -0.0607 -0.4005  0.0119
  131OSM   H15S14162   6.401   0.292   5.231  0.6166 -1.0090 -0.6443
  131OSM   H15T14163   6.245   0.218   5.244 -0.3583 -2.1493 -0.1881
  131OSM   C16S14164   6.393   0.079   5.190 -0.1039 -0.2411  0.4030
  131OSM   H16S14165   6.343  -0.013   5.226 -2.4307  0.6712 -0.2906
  131OSM   H16T14166   6.501   0.056   5.197  0.4994  0.4089 -3.8028
  131OSM   C17S14167   6.377   0.099   5.045  0.7767 -0.0870  0.7003
  131OSM   H17S14168   6.442   0.031   4.986  1.1029  1.8324 -1.2721
  131OSM   H17T14169   6.421   0.199   5.026 -1.2359  0.5364 -0.9065
  131OSM   C18S14170   6.226   0.079   5.001 -0.2304  0.6899  0.7774
  131OSM   H18S14171   6.156   0.125   5.074  0.4740  0.9151  1.3272
  131OSM   H18T14172   6.212  -0.030   4.987 -0.3923  0.9715 -1.6817
  131OSM   H18U14173   6.202   0.124   4.903 -3.7815  0.8365  1.5688
  131OSM    C1F14174   5.758   0.757   6.320  0.2427 -0.6323  0.3002
  131OSM     OF14175   5.709   0.868   6.336  0.0825 -0.7516 -0.4325
  131OSM    C2F14176   5.715   0.669   6.207 -0.2469  0.7220 -0.4145
  131OSM    H2F14177   5.718   0.566   6.248  0.5776  0.9719  0.1808
  131OSM    H2G14178   5.793   0.665   6.127 -0.7163  0.3393 -0.8541
  131OSM    C3F14179   5.584   0.702   6.147 -0.0413 -0.1540  0.0834
  131OSM    H3F14180   5.577   0.811   6.126  0.6656 -0.1273 -0.0346
  131OSM    H3G14181   5.499   0.681   6.215 -2.4327  0.8019 -2.4085
  131OSM    C4F14182   5.566   0.627   6.009  0.3300 -0.1358 -0.1573
  131OSM    H4F14183   5.465   0.663   5.978 -0.4649  0.0345  2.4066
  131OSM    H4G14184   5.562   0.517   6.025  0.1299 -0.3776 -1.6709
  131OSM    C5F14185   5.666   0.648   5.899  0.4230 -0.7375 -0.0619
  131OSM    H5F14186   5.760   0.596   5.929 -0.0476 -2.3877 -1.3447
  131OSM    H5G14187   5.685   0.757   5.884 -1.2703 -0.5468 -1.1123
  131OSM    C6F14188   5.632   0.589   5.755 -0.0858  0.7165 -0.0740
  131OSM    H6F14189   5.525   0.613   5.736 -0.8708 -0.4393  2.5465
  131OSM    H6G14190   5.642   0.478   5.756  0.0947  0.7296 -0.3178
  131OSM    C7F14191   5.726   0.636   5.644  0.0234  0.4295  0.5465
  131OSM    H7F14192   5.829   0.599   5.666  0.0075  1.0614  1.7742
  131OSM    H7G14193   5.722   0.743   5.614  1.1975  0.6207  1.0219
  131OSM    C8F14194   5.694   0.567   5.506 -1.2798 -0.0767 -0.6656
  131OSM    H8F14195   5.673   0.460   5.524 -0.4891  0.3614  4.0193
  131OSM    H8G14196   5.786   0.563   5.443 -0.4759 -2.1464  0.5523
  131OSM    C9F14197   5.579   0.625   5.427  0.8428 -0.3560 -0.7092
  131OSM    H9F14198   5.485   0.585   5.469  0.8058  0.1053 -0.3272
  131OSM   C10F14199   5.578   0.701   5.319 -0.1376  0.1568  0.0700
  131OSM   H10F14200   5.483   0.718   5.266  0.8643 -1.7475 -2.5860
  131OSM   C11F14201   5.699   0.743   5.249  0.1504  0.4096  0.1238
  131OSM   H11F14202   5.672   0.761   5.143  1.4477 -0.6857 -0.4227
  131OSM   H11G14203   5.778   0.665   5.246  0.0442  0.2805  0.5654
  131OSM   C12F14204   5.768   0.871   5.294 -0.2999  0.3361  0.1968
  131OSM   H12F14205   5.865   0.881   5.241 -1.1454  0.7176 -1.3207
  131OSM   H12G14206   5.801   0.857   5.400 -1.0407  0.3135  0.4316
  131OSM   C13F14207   5.680   0.994   5.275 -0.6634  0.1380  0.4092
  131OSM   H13F14208   5.739   1.082   5.308  0.9902 -0.5914 -0.4782
  131OSM   H13G14209   5.596   0.981   5.346 -1.5743  1.2570 -0.4208
  131OSM   C14F14210   5.634   1.019   5.134  0.4401 -0.6465 -0.0602
  131OSM   H14F14211   5.588   1.120   5.141  0.5777 -0.7073  2.8678
  131OSM   H14G14212   5.561   0.938   5.111  1.2022 -1.2144 -0.5603
  131OSM   C15F14213   5.733   1.014   5.024 -0.8362  0.8485 -0.3171
  131OSM   H15F14214   5.670   1.001   4.934 -1.4654 -0.4154  0.2807
  131OSM   H15G14215   5.795   0.922   5.032 -0.9550  0.8557  0.8872
  131OSM   C16F14216   5.822   1.138   5.000  0.7712  0.5805 -0.2953
  131OSM   H16F14217   5.901   1.142   5.077 -2.1997  1.3810  2.9685
  131OSM   H16G14218   5.756   1.227   5.005  1.4180  1.0506 -0.0210
  131OSM   C17F14219   5.875   1.133   4.858  0.2804  0.5842  0.3429
  131OSM   H17F14220   5.921   1.039   4.821  0.0116  0.4870  0.2488
  131OSM   H17G14221   5.961   1.203   4.863  0.9867 -0.3364  1.6261
  131OSM   C18F14222   5.787   1.195   4.747 -0.0890  0.1264  0.1386
  131OSM   H18F14223   5.752   1.295   4.779 -1.0447 -0.4538  0.9879
  131OSM   H18G14224   5.690   1.141   4.737  0.2882 -0.3283 -1.3517
  131OSM   H18H14225   5.831   1.193   4.645  0.9915 -2.9589  0.5670
  132OSM      N14226   1.071   3.438   7.294 -0.3389  0.5563 -0.3996
  132OSM    C1514227   1.090   3.296   7.349 -0.0466  0.3489  0.1732
  132OSM   H15A14228   1.188   3.278   7.389 -0.1658  0.7066  0.6421
  132OSM   H15B14229   1.074   3.220   7.274  0.0262 -0.0294  0.5401
  132OSM   H15C14230   1.013   3.281   7.423  1.0757  2.0684  1.7597
  132OSM    C1414231   1.034   3.538   7.401  0.3000 -0.4910  0.3563
  132OSM   H14A14232   1.116   3.547   7.471  0.1462  2.6792  0.2952
  132OSM   H14B14233   0.941   3.512   7.450  0.8696 -1.3199  1.0303
  132OSM   H14C14234   1.014   3.634   7.356  0.5165 -0.5921  0.0480
  132OSM    C1314235   1.202   3.479   7.248  0.1242 -0.3601  0.2882
  132OSM   H13A14236   1.215   3.582   7.217 -2.4547 -0.2478 -0.6612
  132OSM   H13B14237   1.234   3.426   7.159 -0.8914  1.3583 -1.1687
  132OSM   H13C14238   1.277   3.457   7.323  0.5457 -1.0329 -0.3197
  132OSM    C1214239   0.962   3.432   7.184  0.2166  1.1086  0.5919
  132OSM   H12A14240   0.867   3.400   7.224  0.4119 -0.1953  0.0512
  132OSM   H12B14241   0.983   3.355   7.112 -1.5690  0.8520  0.2925
  132OSM    C1114242   0.929   3.564   7.106 -0.0701  0.3470  0.8581
  132OSM   H11A14243   0.861   3.616   7.177  0.2887  1.5463  0.3493
  132OSM   H11B14244   0.866   3.533   7.020 -0.3872 -0.5737  1.4074
  132OSM      P14245   1.024   3.781   6.999  0.1259 -0.0417 -0.0315
  132OSM    O1314246   0.939   3.855   7.100  0.3946  0.0075  0.6257
  132OSM    O1414247   1.155   3.835   6.960  0.0235  0.2053 -0.0332
  132OSM    O1114248   0.932   3.764   6.866 -0.6618  0.3073  0.5450
  132OSM    O1214249   1.039   3.638   7.054  0.0195  0.2811 -0.1884
  132OSM    C1S14250   0.959   3.654   6.778 -0.1180  0.0146 -0.0181
  132OSM    H1S14251   0.881   3.579   6.801  1.5484 -1.3655  1.3423
  132OSM    H1T14252   1.061   3.612   6.791 -0.2952 -1.9431 -3.7267
  132OSM     NF14253   0.961   3.563   6.548 -0.3190  0.5570  0.0697
  132OSM    HNF14254   1.043   3.552   6.492  0.9294  1.0985  1.7011
  132OSM    C2S14255   0.953   3.690   6.624 -0.2850  0.1129  0.1976
  132OSM    H2S14256   0.856   3.737   6.598 -1.3026 -1.4518  1.0190
  132OSM    C3S14257   1.062   3.790   6.592  0.0406 -0.1674 -0.1137
  132OSM    H3S14258   1.156   3.735   6.616 -1.0504 -0.8469  3.0400
  132OSM     O314259   1.067   3.904   6.677  0.1460 -0.2569 -0.5040
  132OSM    HO314260   1.026   3.875   6.759  1.4393 -0.6800  0.0251
  132OSM    C4S14261   1.063   3.835   6.446  0.0800  0.2383 -0.0469
  132OSM    H4S14262   1.145   3.797   6.382 -0.7488  0.1923 -1.1076
  132OSM    C5S14263   0.985   3.932   6.398 -0.3592  0.3188  0.5526
  132OSM    H5S14264   0.916   3.979   6.469 -1.7102 -1.0713  0.2179
  132OSM    C6S14265   0.992   3.993   6.257  0.1881  0.0587 -0.0382
  132OSM    H6S14266   1.000   4.103   6.268 -0.7072  0.0287  1.1056
  132OSM    H6T14267   0.899   3.978   6.199 -0.7881 -3.4389  2.1499
  132OSM    C7S14268   1.111   3.941   6.174  0.0420  0.5875  0.0633
  132OSM    H7S14269   1.158   3.840   6.172  3.5610  2.0988 -1.4888
  132OSM    H7T14270   1.195   4.004   6.210 -0.8334  1.2331  1.0692
  132OSM    C8S14271   1.089   3.979   6.026 -0.3652 -0.2205 -0.4914
  132OSM    H8S14272   1.063   4.087   6.016 -2.3917 -0.7202 -1.0769
  132OSM    H8T14273   0.995   3.935   5.985  0.7342 -0.8361 -2.4809
  132OSM    C9S14274   1.210   3.937   5.935 -0.2141 -0.1986 -0.7511
  132OSM    H9S14275   1.215   3.826   5.931 -1.5920 -0.3025 -0.1834
  132OSM    H9T14276   1.306   3.966   5.982 -0.7816 -0.2012  0.4544
  132OSM   C10S14277   1.204   3.996   5.793 -0.1373  0.6570 -0.6548
  132OSM   H10S14278   1.213   4.107   5.804  1.5426  0.4550  0.5153
  132OSM   H10T14279   1.111   3.969   5.740 -0.1522  0.2432 -0.4216
  132OSM   C11S14280   1.326   3.955   5.710 -0.2328 -0.0760 -0.3378
  132OSM   H11S14281   1.328   3.844   5.699  1.5481 -0.0182 -0.8863
  132OSM   H11T14282   1.421   3.978   5.761 -1.0004 -0.4570  1.3243
  132OSM   C12S14283   1.315   4.019   5.577  0.3343 -0.0230  0.7050
  132OSM   H12S14284   1.330   4.129   5.582  0.5045 -0.0745  1.5474
  132OSM   H12T14285   1.216   4.008   5.528 -0.0608  2.9362  0.6763
  132OSM   C13S14286   1.421   3.986   5.464 -0.2039  0.1192  0.9030
  132OSM   H13S14287   1.383   3.888   5.426  1.0477 -0.7553  1.7996
  132OSM   H13T14288   1.526   3.962   5.493  0.3233  0.3885 -0.6925
  132OSM   C14S14289   1.418   4.083   5.338  0.3918 -0.5861 -0.3085
  132OSM   H14S14290   1.446   4.181   5.383 -2.5487  0.8022 -1.2331
  132OSM   H14T14291   1.316   4.080   5.294  0.2921 -2.2313 -0.0524
  132OSM   C15S14292   1.521   4.029   5.241  0.1220  0.2339 -0.4784
  132OSM   H15S14293   1.505   3.920   5.238 -1.3286  0.3946  0.3078
  132OSM   H15T14294   1.621   4.059   5.278 -1.4128  3.1617  1.8540
  132OSM   C16S14295   1.512   4.105   5.111  0.7771 -0.0297  0.0668
  132OSM   H16S14296   1.561   4.203   5.132  2.4898 -0.4852 -1.5085
  132OSM   H16T14297   1.408   4.117   5.074  0.2187 -3.0850  0.3501
  132OSM   C17S14298   1.596   4.042   4.998 -0.8573  0.7782  0.4942
  132OSM   H17S14299   1.570   3.937   4.972 -1.3390  1.2245 -0.8887
  132OSM   H17T14300   1.704   4.033   5.024 -0.8440 -1.5632 -0.1268
  132OSM   C18S14301   1.579   4.121   4.871 -0.0998 -0.2456  0.3017
  132OSM   H18S14302   1.572   4.230   4.892 -2.5390 -0.0116 -1.3052
  132OSM   H18T14303   1.479   4.106   4.824 -0.2596 -0.0904  0.5931
  132OSM   H18U14304   1.663   4.103   4.800  1.5108  1.3742  1.7230
  132OSM    C1F14305   0.878   3.459   6.554  0.1366 -0.3816 -0.4400
  132OSM     OF14306   0.763   3.467   6.595 -0.6455 -0.1079 -0.3741
  132OSM    C2F14307   0.924   3.327   6.494 -0.3114 -0.8183  0.1023
  132OSM    H2F14308   0.828   3.278   6.467 -1.5198  0.3464  1.9762
  132OSM    H2G14309   0.985   3.274   6.570  0.9590  0.9775  0.4122
  132OSM    C3F14310   1.012   3.341   6.371  0.3970  0.6000  0.2735
  132OSM    H3F14311   1.033   3.237   6.339 -2.4634  0.2838 -0.8666
  132OSM    H3G14312   1.103   3.402   6.392 -1.1011  2.3127  2.1681
  132OSM    C4F14313   0.944   3.425   6.263 -0.2732 -0.3121 -0.1540
  132OSM    H4F14314   0.991   3.525   6.255  0.0880 -0.3128  1.4269
  132OSM    H4G14315   0.841   3.449   6.297  0.1440 -0.4279  1.2526
  132OSM    C5F14316   0.957   3.361   6.122  0.0365 -0.6751 -0.6983
  132OSM    H5F14317   0.895   3.426   6.056  0.0166  0.2017  0.1487
  132OSM    H5G14318   0.903   3.265   6.130 -1.6148  0.3557  1.9527
  132OSM    C6F14319   1.099   3.336   6.073 -0.0851 -0.3333 -0.2497
  132OSM    H6F14320   1.137   3.272   6.156 -0.9141  0.2097  0.5621
  132OSM    H6G14321   1.150   3.435   6.072 -0.7345  0.0042 -1.0620
  132OSM    C7F14322   1.108   3.259   5.940  0.5290 -0.0440  0.8674
  132OSM    H7F14323   1.068   3.157   5.958  0.7144 -0.2383  0.2057
  132OSM    H7G14324   1.211   3.251   5.899 -0.4064  0.2676 -1.7080
  132OSM    C8F14325   1.009   3.311   5.828 -0.1391  0.0370  0.1278
  132OSM    H8F14326   1.043   3.414   5.802  1.6308  0.2705  2.8960
  132OSM    H8G14327   0.909   3.317   5.875 -0.9708 -0.5889 -1.4954
  132OSM    C9F14328   1.000   3.234   5.701  0.1925  0.9624 -0.3395
  132OSM    H9F14329   0.930   3.149   5.702  1.5989 -0.2533  1.4925
  132OSM   C10F14330   1.055   3.274   5.585  0.3433  1.4551  0.2082
  132OSM   H10F14331   1.038   3.204   5.502 -0.6588  1.9478 -0.0155
  132OSM   C11F14332   1.139   3.398   5.558  0.2592  1.2792  0.3606
  132OSM   H11F14333   1.201   3.424   5.647  0.4545  1.3103  0.2152
  132OSM   H11G14334   1.090   3.494   5.532  0.6697  1.0982 -1.1371
  132OSM   C12F14335   1.228   3.379   5.432  0.2304 -0.3672  0.1052
  132OSM   H12F14336   1.159   3.379   5.345  1.0194  1.2023 -0.5547
  132OSM   H12G14337   1.275   3.280   5.448  2.2271  0.1825 -1.8489
  132OSM   C13F14338   1.344   3.484   5.422  0.0730  0.7044  0.2983
  132OSM   H13F14339   1.419   3.484   5.504  0.2239 -0.0984  0.1671
  132OSM   H13G14340   1.295   3.582   5.439 -0.9445  0.2107  0.2896
  132OSM   C14F14341   1.422   3.496   5.286  0.0803 -0.2717  0.7957
  132OSM   H14F14342   1.443   3.396   5.243 -1.2681 -0.3215  0.1951
  132OSM   H14G14343   1.521   3.546   5.297 -0.2176  0.3793  0.5976
  132OSM   C15F14344   1.344   3.578   5.187  0.3104 -1.2814  0.2797
  132OSM   H15F14345   1.295   3.667   5.231 -2.1870 -1.8658 -1.1089
  132OSM   H15G14346   1.253   3.529   5.147 -1.5681  1.2878  1.1204
  132OSM   C16F14347   1.429   3.628   5.067 -0.4512 -0.7667  0.7210
  132OSM   H16F14348   1.527   3.664   5.105 -0.7365 -1.3785  2.0746
  132OSM   H16G14349   1.380   3.710   5.010  2.1762 -0.3258 -1.0602
  132OSM   C17F14350   1.462   3.513   4.963 -0.1098 -0.6022  0.1112
  132OSM   H17F14351   1.368   3.459   4.937  0.0470 -1.2260  0.7892
  132OSM   H17G14352   1.524   3.438   5.017  0.4900 -0.1433  0.0716
  132OSM   C18F14353   1.522   3.566   4.829  0.4544  0.0962  0.4124
  132OSM   H18F14354   1.452   3.626   4.767  1.0224 -1.0003 -1.3592
  132OSM   H18G14355   1.552   3.485   4.759  2.5031 -0.7401  2.1748
  132OSM   H18H14356   1.611   3.631   4.839  2.8126 -2.7113 -0.9036
  133OSM      N14357   3.282   5.316   7.036  0.2318 -0.5394 -0.3826
  133OSM    C1514358   3.132   5.294   7.020 -0.1011 -0.4979  0.4547
  133OSM   H15A14359   3.091   5.393   7.031  0.1160 -0.5158  1.5006
  133OSM   H15B14360   3.097   5.226   7.096 -1.5830  2.0362  2.1661
  133OSM   H15C14361   3.117   5.245   6.924  1.6700  0.7917 -0.5394
  133OSM    C1414362   3.289   5.338   7.184 -0.4580 -0.2890 -0.7139
  133OSM   H14A14363   3.284   5.244   7.236 -0.1696 -0.5563 -1.1645
  133OSM   H14B14364   3.213   5.399   7.231  1.2879 -0.1176  2.1157
  133OSM   H14C14365   3.383   5.376   7.220 -0.4508 -2.4531  1.8369
  133OSM    C1314366   3.352   5.196   6.996 -0.0095 -0.0423 -0.5417
  133OSM   H13A14367   3.459   5.200   7.010 -0.1737  0.6932  0.6902
  133OSM   H13B14368   3.324   5.175   6.894 -2.0579 -1.3624  0.2184
  133OSM   H13C14369   3.329   5.110   7.058 -0.0168 -0.2584 -0.8422
  133OSM    C1214370   3.329   5.439   6.953 -0.4577  0.0842 -0.0452
  133OSM   H12A14371   3.308   5.406   6.852 -1.3958 -4.7769  1.4230
  133OSM   H12B14372   3.434   5.456   6.971  0.0384 -1.0240 -1.6979
  133OSM    C1114373   3.259   5.574   6.972  0.0170 -0.6677 -0.6983
  133OSM   H11A14374   3.308   5.658   6.919 -0.5201  0.2450  0.2110
  133OSM   H11B14375   3.270   5.603   7.079 -0.7124  5.0188 -1.8725
  133OSM      P14376   3.027   5.695   6.942  0.1072  0.2748  0.1271
  133OSM    O1314377   2.889   5.671   6.894  0.1691  0.1598  0.9345
  133OSM    O1414378   3.041   5.748   7.077 -1.1371 -0.6802  0.3194
  133OSM    O1114379   3.095   5.799   6.842 -0.6231  0.1421 -0.9013
  133OSM    O1214380   3.120   5.565   6.933  0.2592 -0.8489  0.4405
  133OSM    C1S14381   3.148   5.759   6.714  0.5359 -0.1662  0.3361
  133OSM    H1S14382   3.093   5.669   6.680  0.8386 -0.4059  0.4698
  133OSM    H1T14383   3.257   5.738   6.721  0.3480 -0.8309  1.8182
  133OSM     NF14384   3.176   5.803   6.479  0.6508  0.8041  0.5351
  133OSM    HNF14385   3.262   5.826   6.435 -0.1289 -0.1480 -1.6264
  133OSM    C2S14386   3.134   5.867   6.599 -0.2550 -0.4598  0.4392
  133OSM    H2S14387   3.035   5.916   6.591  0.2039  0.6214  1.1455
  133OSM    C3S14388   3.235   5.985   6.637  0.9219 -0.6333  0.6049
  133OSM    H3S14389   3.334   5.935   6.649  0.4135 -2.1613 -1.0119
  133OSM     O314390   3.225   6.042   6.766  0.4395  0.5381 -0.4112
  133OSM    HO314391   3.176   5.969   6.806  0.0349  0.3499 -1.2237
  133OSM    C4S14392   3.241   6.093   6.526 -0.2046 -0.1319  0.2654
  133OSM    H4S14393   3.154   6.160   6.528  0.1664  0.3443  1.3385
  133OSM    C5S14394   3.363   6.117   6.465  0.3310 -0.5003 -0.8880
  133OSM    H5S14395   3.449   6.058   6.498 -2.3552 -3.6934  0.9821
  133OSM    C6S14396   3.378   6.222   6.353  0.1252 -0.0911 -0.6232
  133OSM    H6S14397   3.477   6.271   6.361 -0.5547  1.0284  1.5498
  133OSM    H6T14398   3.300   6.297   6.372  1.2502  0.6138  1.5249
  133OSM    C7S14399   3.345   6.170   6.211  0.5061  0.4634  0.2270
  133OSM    H7S14400   3.243   6.127   6.203  1.2365 -1.1262 -1.4356
  133OSM    H7T14401   3.413   6.084   6.192  0.2754  0.0623  1.1835
  133OSM    C8S14402   3.370   6.270   6.099  0.4296 -0.2751  0.4954
  133OSM    H8S14403   3.478   6.288   6.079  0.6974 -0.7976  1.4420
  133OSM    H8T14404   3.314   6.361   6.129  1.0276 -0.1169  1.1836
  133OSM    C9S14405   3.308   6.205   5.976 -1.1288  0.1120  0.0401
  133OSM    H9S14406   3.202   6.177   5.995 -0.8625 -3.1417 -2.3754
  133OSM    H9T14407   3.360   6.107   5.963  1.1969  0.9329  2.2727
  133OSM   C10S14408   3.338   6.286   5.848 -0.1641  0.6703 -0.1297
  133OSM   H10S14409   3.447   6.310   5.855  0.4544 -1.4490 -1.5594
  133OSM   H10T14410   3.279   6.380   5.857 -1.3206 -0.2238  2.6288
  133OSM   C11S14411   3.325   6.203   5.717  0.0260 -0.0338  0.0055
  133OSM   H11S14412   3.234   6.146   5.689  0.6910 -0.2110 -1.9720
  133OSM   H11T14413   3.416   6.139   5.711 -0.9668 -1.3579 -3.1954
  133OSM   C12S14414   3.345   6.311   5.612  0.1291  0.2740 -0.2836
  133OSM   H12S14415   3.435   6.373   5.633  0.0575 -0.3325  2.1269
  133OSM   H12T14416   3.254   6.374   5.604  1.4098  2.0580 -1.7837
  133OSM   C13S14417   3.366   6.251   5.474  0.1285 -0.2716 -0.0192
  133OSM   H13S14418   3.275   6.195   5.444  1.2130 -1.9623 -0.3453
  133OSM   H13T14419   3.439   6.167   5.478 -0.3128 -0.6409  0.4589
  133OSM   C14S14420   3.422   6.344   5.366 -0.3652  0.5751 -0.4037
  133OSM   H14S14421   3.522   6.384   5.395  0.3674  0.2583 -2.3032
  133OSM   H14T14422   3.347   6.426   5.373 -1.2007 -0.2548  0.6719
  133OSM   C15S14423   3.407   6.275   5.227  0.4064 -0.2201 -0.0359
  133OSM   H15S14424   3.303   6.258   5.192  0.6887  0.3471 -1.1964
  133OSM   H15T14425   3.465   6.182   5.245 -0.5780 -0.4315  2.3607
  133OSM   C16S14426   3.474   6.347   5.108 -0.2640 -0.7024  0.0936
  133OSM   H16S14427   3.584   6.343   5.123 -0.2821 -0.8199  0.1955
  133OSM   H16T14428   3.433   6.449   5.100  1.2486 -0.0643  0.1966
  133OSM   C17S14429   3.465   6.254   4.983  0.0189 -0.2848  0.7632
  133OSM   H17S14430   3.360   6.220   4.968  0.9682 -2.9056 -0.6777
  133OSM   H17T14431   3.522   6.165   5.016  0.3016  0.0556  1.1858
  133OSM   C18S14432   3.532   6.316   4.855  0.4168  0.4224  0.0912
  133OSM   H18S14433   3.482   6.269   4.768  1.9394 -0.3755 -0.4009
  133OSM   H18T14434   3.640   6.289   4.855  0.1456 -0.7290  0.9406
  133OSM   H18U14435   3.513   6.425   4.856  1.5172  0.6784 -1.6335
  133OSM    C1F14436   3.097   5.715   6.418 -0.2346 -0.0289 -0.6244
  133OSM     OF14437   2.985   5.691   6.465 -0.2969 -0.2060  0.5045
  133OSM    C2F14438   3.163   5.630   6.315  0.8931  0.4281  0.0808
  133OSM    H2F14439   3.083   5.567   6.272  0.7150 -0.1408  1.2404
  133OSM    H2G14440   3.245   5.570   6.360 -1.0759 -1.1896  1.6309
  133OSM    C3F14441   3.217   5.700   6.190 -0.0665 -0.2682 -0.1720
  133OSM    H3F14442   3.288   5.778   6.224 -0.3037  0.3907 -1.1516
  133OSM    H3G14443   3.139   5.758   6.136  1.2201  1.0563 -0.6733
  133OSM    C4F14444   3.288   5.613   6.084 -0.3173 -0.1934  0.4192
  133OSM    H4F14445   3.209   5.551   6.036  0.1076 -1.3323  1.1332
  133OSM    H4G14446   3.358   5.541   6.133  0.8133 -0.5986 -1.6731
  133OSM    C5F14447   3.358   5.694   5.981 -0.4832  0.0857 -0.0617
  133OSM    H5F14448   3.440   5.751   6.030 -1.1205  0.9831  0.0005
  133OSM    H5G14449   3.287   5.768   5.938 -0.9784 -0.3886 -0.0708
  133OSM    C6F14450   3.406   5.622   5.849 -0.3652  0.1444 -0.0062
  133OSM    H6F14451   3.314   5.609   5.788  0.2017  0.0104 -0.8570
  133OSM    H6G14452   3.454   5.529   5.884 -0.2726  0.0139 -0.4673
  133OSM    C7F14453   3.513   5.700   5.765  0.5625 -0.8151  0.1357
  133OSM    H7F14454   3.595   5.718   5.838  1.2574  0.5625 -0.9461
  133OSM    H7G14455   3.479   5.801   5.733 -1.1942 -1.3687  0.1328
  133OSM    C8F14456   3.558   5.614   5.644  0.5047  0.8168  0.4219
  133OSM    H8F14457   3.480   5.618   5.565  0.0239 -0.6708  0.7870
  133OSM    H8G14458   3.558   5.505   5.667 -0.5409  0.5009 -0.9438
  133OSM    C9F14459   3.694   5.655   5.587 -0.1888 -0.4584  0.8541
  133OSM    H9F14460   3.767   5.708   5.650  1.7667 -1.8727 -0.1293
  133OSM   C10F14461   3.733   5.652   5.457 -0.1711  0.4455 -0.5653
  133OSM   H10F14462   3.831   5.693   5.429 -1.0623  1.8410 -1.7314
  133OSM   C11F14463   3.653   5.592   5.342  0.5466  0.4139 -0.1571
  133OSM   H11F14464   3.633   5.672   5.268  1.6043  0.4261 -0.4461
  133OSM   H11G14465   3.551   5.558   5.371  0.0932  0.7586 -1.3087
  133OSM   C12F14466   3.718   5.468   5.271 -0.2434 -0.7233  0.3384
  133OSM   H12F14467   3.741   5.384   5.340 -0.3209  0.0185  1.2969
  133OSM   H12G14468   3.815   5.502   5.228 -0.3703 -0.9915 -0.1618
  133OSM   C13F14469   3.641   5.434   5.147 -0.0364  0.7840 -0.4156
  133OSM   H13F14470   3.580   5.515   5.102  0.9202  2.4482  1.1348
  133OSM   H13G14471   3.562   5.360   5.173 -0.3216  0.3631 -2.3118
  133OSM   C14F14472   3.725   5.371   5.037 -0.0524  0.1278  0.3070
  133OSM   H14F14473   3.812   5.305   5.059  1.2956  1.6020 -0.3638
  133OSM   H14G14474   3.762   5.463   4.985 -1.6674 -1.9300 -5.2845
  133OSM   C15F14475   3.632   5.306   4.934  0.1996  0.9752  0.0514
  133OSM   H15F14476   3.559   5.382   4.898  0.1318  0.3968 -1.0734
  133OSM   H15G14477   3.571   5.221   4.971  1.5144 -0.4613 -0.9423
  133OSM   C16F14478   3.705   5.269   4.805  0.3092  0.1999 -0.9140
  133OSM   H16F14479   3.782   5.191   4.822 -1.4849 -1.1905  1.6082
  133OSM   H16G14480   3.759   5.364   4.784 -1.4738  2.4312  3.2918
  133OSM   C17F14481   3.620   5.234   4.686  0.4163  0.5013  0.0524
  133OSM   H17F14482   3.676   5.200   4.596 -0.2611 -0.6413  0.0579
  133OSM   H17G14483   3.556   5.319   4.654  0.2791 -0.5209 -2.5682
  133OSM   C18F14484   3.546   5.108   4.730 -0.0920 -0.4716  0.2135
  133OSM   H18F14485   3.614   5.046   4.791 -0.2636  0.4933  1.4408
  133OSM   H18G14486   3.506   5.050   4.644  0.5147 -0.0925 -0.3347
  133OSM   H18H14487   3.459   5.135   4.794 -1.5975  0.2079 -2.0112
  134OSM      N14488   3.806   3.431   7.031 -0.8337  1.0651 -0.3877
  134OSM    C1514489   3.728   3.563   7.028  0.2638 -0.1146  0.2320
  134OSM   H15A14490   3.690   3.606   7.119  3.5008  1.2106  1.0770
  134OSM   H15B14491   3.639   3.551   6.967 -1.5650 -1.1616  2.9113
  134OSM   H15C14492   3.787   3.642   6.985  0.8448 -0.4692  0.3792
  134OSM    C1414493   3.754   3.342   7.142 -0.4167  0.4159 -0.3998
  134OSM   H14A14494   3.820   3.257   7.144  0.5014  0.9853 -2.8608
  134OSM   H14B14495   3.650   3.312   7.131 -1.1589  1.8667  1.9538
  134OSM   H14C14496   3.754   3.400   7.232  0.2321 -0.0001 -0.1263
  134OSM    C1314497   3.788   3.360   6.899 -0.4270 -0.5702 -0.0503
  134OSM   H13A14498   3.685   3.330   6.888 -0.6133  0.1784 -0.4475
  134OSM   H13B14499   3.852   3.273   6.896 -1.2407 -1.2739  1.7844
  134OSM   H13C14500   3.812   3.425   6.816 -1.3071 -1.9064 -1.3842
  134OSM    C1214501   3.959   3.456   7.049  0.1715  0.6426 -0.1769
  134OSM   H12A14502   3.968   3.492   7.151 -2.3507  0.9493 -0.0160
  134OSM   H12B14503   3.988   3.537   6.984 -0.6254  1.3154  0.2904
  134OSM    C1114504   4.057   3.326   7.052 -0.3096 -0.3151 -0.4321
  134OSM   H11A14505   4.015   3.248   7.119  0.4331 -2.7939 -2.7172
  134OSM   H11B14506   4.149   3.356   7.107 -0.1008 -1.5865 -0.0644
  134OSM      P14507   4.161   3.335   6.818  0.0843 -0.0733 -0.2036
  134OSM    O1314508   4.116   3.471   6.787  0.1920 -0.3246 -0.0138
  134OSM    O1414509   4.289   3.325   6.882  0.1681 -0.5316 -0.3182
  134OSM    O1114510   4.140   3.249   6.694  0.2140 -1.2025 -0.0364
  134OSM    O1214511   4.074   3.261   6.924  1.2003 -0.0353  0.3978
  134OSM    C1S14512   4.004   3.241   6.645  0.1157 -0.1695 -0.6323
  134OSM    H1S14513   3.945   3.334   6.660  1.2330  0.2778  1.2942
  134OSM    H1T14514   3.952   3.161   6.702  3.2516  0.4505  3.6074
  134OSM     NF14515   3.856   3.216   6.448  0.4544  0.0913 -0.2429
  134OSM    HNF14516   3.805   3.131   6.435 -2.2572  1.3789  1.2753
  134OSM    C2S14517   3.994   3.199   6.499  0.0906  0.1662 -0.0631
  134OSM    H2S14518   4.058   3.255   6.428 -1.1001  0.8243 -0.6473
  134OSM    C3S14519   4.055   3.060   6.488 -1.0911  0.4445 -0.1534
  134OSM    H3S14520   4.000   2.992   6.556  0.2495 -1.3873 -0.8194
  134OSM     O314521   4.184   3.041   6.544  0.2772  0.1821  0.1013
  134OSM    HO314522   4.188   3.093   6.625  0.2250 -0.6677  0.6757
  134OSM    C4S14523   4.047   3.005   6.348  0.3269 -0.2425 -0.5482
  134OSM    H4S14524   3.951   2.955   6.326 -1.0561  1.7986  0.4889
  134OSM    C5S14525   4.144   3.008   6.254  0.3577  1.1525  0.0679
  134OSM    H5S14526   4.245   3.049   6.272  1.6968 -1.9300  0.1182
  134OSM    C6S14527   4.127   2.944   6.118 -0.3175 -0.0559  0.4430
  134OSM    H6S14528   4.028   2.985   6.088 -0.1845  1.1152  1.4907
  134OSM    H6T14529   4.123   2.833   6.117 -3.1978 -0.0190 -1.3875
  134OSM    C7S14530   4.229   2.996   6.025  0.1528  0.0039 -0.5135
  134OSM    H7S14531   4.327   2.955   6.057 -0.0720 -0.5697 -0.5441
  134OSM    H7T14532   4.241   3.107   6.030  1.5680 -0.1765  1.3238
  134OSM    C8S14533   4.218   2.942   5.878 -0.5223 -0.0934 -0.9925
  134OSM    H8S14534   4.132   2.996   5.833  0.9437  1.4341 -2.1121
  134OSM    H8T14535   4.181   2.838   5.891 -1.0302  0.3538  1.7138
  134OSM    C9S14536   4.336   2.969   5.777  0.5100 -0.0749  0.2568
  134OSM    H9S14537   4.432   2.923   5.810  0.8603 -0.0719 -0.7162
  134OSM    H9T14538   4.344   3.078   5.757  0.6519 -0.3564 -1.3467
  134OSM   C10S14539   4.303   2.927   5.636  0.2276 -0.1846  1.0630
  134OSM   H10S14540   4.376   2.974   5.566  0.1529 -0.9788  0.4288
  134OSM   H10T14541   4.201   2.957   5.605  0.4319  0.0328  0.5881
  134OSM   C11S14542   4.317   2.774   5.607  0.4810  0.3693 -0.4277
  134OSM   H11S14543   4.237   2.726   5.667  2.1409 -0.0054  1.6058
  134OSM   H11T14544   4.418   2.757   5.651  1.0743  2.3061 -0.9459
  134OSM   C12S14545   4.320   2.737   5.460 -0.0811 -0.1678 -0.1781
  134OSM   H12S14546   4.224   2.747   5.406  1.0339 -0.6807 -2.3668
  134OSM   H12T14547   4.330   2.628   5.442  2.7454  0.2336 -1.5333
  134OSM   C13S14548   4.421   2.806   5.369  0.6527  0.1060  0.1113
  134OSM   H13S14549   4.508   2.818   5.438  0.7084  0.8899 -0.0786
  134OSM   H13T14550   4.387   2.911   5.358 -0.8568 -0.3115  0.5911
  134OSM   C14S14551   4.453   2.736   5.242 -0.4409  0.5102 -0.0196
  134OSM   H14S14552   4.519   2.649   5.267 -1.0497 -0.4468 -1.5799
  134OSM   H14T14553   4.507   2.805   5.173 -1.2249  2.2243  1.0172
  134OSM   C15S14554   4.341   2.669   5.154 -0.2799 -0.1665  0.5267
  134OSM   H15S14555   4.254   2.739   5.157 -0.4501 -0.3893  2.2950
  134OSM   H15T14556   4.308   2.571   5.195  0.1083 -1.4206 -2.0225
  134OSM   C16S14557   4.392   2.632   5.016 -0.4432  0.1164 -0.2905
  134OSM   H16S14558   4.477   2.563   5.033 -2.3584 -2.3334 -0.1286
  134OSM   H16T14559   4.436   2.720   4.965  2.7427 -1.1757 -0.0194
  134OSM   C17S14560   4.290   2.559   4.935 -0.8035 -0.0105 -0.1456
  134OSM   H17S14561   4.337   2.558   4.834 -0.1795 -1.9785  0.1198
  134OSM   H17T14562   4.200   2.623   4.921  0.5642  1.6577 -1.9506
  134OSM   C18S14563   4.249   2.419   4.972  0.1612  0.6212 -0.2027
  134OSM   H18S14564   4.334   2.372   5.026 -1.2198 -0.4932  1.0854
  134OSM   H18T14565   4.214   2.371   4.879 -1.9117  2.9653 -0.7546
  134OSM   H18U14566   4.166   2.431   5.045 -0.3183 -0.9711 -0.4516
  134OSM    C1F14567   3.791   3.330   6.436 -0.6779 -0.6235 -0.1442
  134OSM     OF14568   3.847   3.436   6.457 -0.6415  0.2035 -0.9184
  134OSM    C2F14569   3.652   3.322   6.395 -0.1312 -0.3003 -0.9671
  134OSM    H2F14570   3.594   3.375   6.474 -0.0244 -0.8429 -0.5134
  134OSM    H2G14571   3.612   3.218   6.395  0.2411 -0.4470 -1.9898
  134OSM    C3F14572   3.620   3.378   6.253 -0.6057 -0.6324  0.5756
  134OSM    H3F14573   3.667   3.476   6.232 -3.1513  0.5375 -0.0933
  134OSM    H3G14574   3.509   3.387   6.251 -0.7249 -2.0984 -0.5296
  134OSM    C4F14575   3.652   3.281   6.140  0.2579 -0.1989  0.4427
  134OSM    H4F14576   3.589   3.191   6.156  2.2535 -1.5902  0.8516
  134OSM    H4G14577   3.757   3.255   6.115 -0.6251 -3.4036 -0.4932
  134OSM    C5F14578   3.600   3.340   6.000 -0.3333  0.1956 -0.1680
  134OSM    H5F14579   3.638   3.444   5.994  1.1625 -0.3920 -5.7398
  134OSM    H5G14580   3.491   3.358   6.013 -0.6708 -0.4727 -1.8529
  134OSM    C6F14581   3.625   3.253   5.882  0.6236  0.2034 -0.7045
  134OSM    H6F14582   3.566   3.159   5.887 -0.2449  0.7999  0.8543
  134OSM    H6G14583   3.731   3.224   5.897  0.8121  1.5337  0.8784
  134OSM    C7F14584   3.604   3.315   5.753 -0.4625 -0.2569 -0.3643
  134OSM    H7F14585   3.685   3.388   5.735 -0.2899 -0.0433  1.1480
  134OSM    H7G14586   3.510   3.375   5.756 -0.9170 -0.9414  2.5438
  134OSM    C8F14587   3.594   3.210   5.638 -0.7116  0.2614 -0.4953
  134OSM    H8F14588   3.510   3.148   5.675 -0.1329 -0.6246 -0.6245
  134OSM    H8G14589   3.686   3.151   5.621  0.2466  1.6112 -0.1944
  134OSM    C9F14590   3.579   3.285   5.511 -0.0436 -0.8706 -0.5742
  134OSM    H9F14591   3.671   3.334   5.474  0.6983 -1.8636 -0.1074
  134OSM   C10F14592   3.462   3.284   5.441  1.0866 -0.6881 -0.0126
  134OSM   H10F14593   3.443   3.343   5.350 -2.2551  0.2203  1.1270
  134OSM   C11F14594   3.328   3.216   5.485  0.0232  0.1752  0.4232
  134OSM   H11F14595   3.283   3.278   5.566  1.4865  0.3847  1.1265
  134OSM   H11G14596   3.351   3.118   5.532  3.3476  0.3330 -0.5876
  134OSM   C12F14597   3.225   3.209   5.378  0.4506 -0.3315 -0.3324
  134OSM   H12F14598   3.264   3.160   5.286  1.9504  2.2989 -1.1855
  134OSM   H12G14599   3.193   3.311   5.351 -0.8335 -0.5597  0.2476
  134OSM   C13F14600   3.100   3.132   5.430 -0.3183 -0.1882  0.3668
  134OSM   H13F14601   3.072   3.174   5.529  2.0976 -1.4612  1.6671
  134OSM   H13G14602   3.124   3.025   5.447  0.3634 -0.3471 -1.4143
  134OSM   C14F14603   2.971   3.150   5.346  0.1039  0.2168  0.4958
  134OSM   H14F14604   2.950   3.257   5.325  1.3426  0.3762 -0.0202
  134OSM   H14G14605   2.888   3.113   5.409  2.3486 -1.1129  2.8526
  134OSM   C15F14606   2.967   3.082   5.210 -0.3884  0.2789  0.1516
  134OSM   H15F14607   2.984   2.974   5.223  1.2459  0.4266 -0.5332
  134OSM   H15G14608   3.054   3.140   5.173  1.7123 -1.1504  2.5416
  134OSM   C16F14609   2.834   3.090   5.124 -0.2007 -0.2975 -0.4775
  134OSM   H16F14610   2.809   3.198   5.119  1.1040  0.0919  0.7856
  134OSM   H16G14611   2.748   3.039   5.173  1.0804 -1.8052  0.2724
  134OSM   C17F14612   2.849   3.033   4.982  0.4401 -0.2846 -0.6579
  134OSM   H17F14613   2.891   2.931   4.988  1.8367  0.2559 -0.7665
  134OSM   H17G14614   2.930   3.089   4.929  1.2269 -0.1099  0.6985
  134OSM   C18F14615   2.713   3.027   4.901 -0.2541 -0.4569 -0.4509
  134OSM   H18F14616   2.728   2.975   4.804  1.9394  1.6665 -1.3445
  134OSM   H18G14617   2.680   3.134   4.897  0.0538 -0.3595 -0.3817
  134OSM   H18H14618   2.648   2.954   4.952 -0.4609 -0.0068 -0.0609
  135OSM      N14619   4.835   0.427   7.182 -0.2748  0.4472 -0.5142
  135OSM    C1514620   4.751   0.549   7.181 -0.3413 -0.7028 -0.1117
  135OSM   H15A14621   4.808   0.634   7.216  0.7942 -1.1625 -0.7976
  135OSM   H15B14622   4.667   0.537   7.249  0.4267 -0.9990  0.8160
  135OSM   H15C14623   4.713   0.563   7.081 -0.3362 -0.5427 -0.0912
  135OSM    C1414624   4.883   0.400   7.317  0.5721  0.2054  0.4544
  135OSM   H14A14625   4.924   0.489   7.362 -0.0531 -0.2905  2.0843
  135OSM   H14B14626   4.965   0.329   7.315 -0.4793 -1.0881  1.2915
  135OSM   H14C14627   4.806   0.363   7.383 -1.3159 -0.2004 -1.8656
  135OSM    C1314628   4.753   0.308   7.143 -0.2735  0.1894 -0.7454
  135OSM   H13A14629   4.665   0.293   7.205 -0.9202 -1.3991 -1.9646
  135OSM   H13B14630   4.814   0.219   7.143  0.8243  0.8792  1.0176
  135OSM   H13C14631   4.706   0.324   7.047 -0.8971 -2.0563 -0.8870
  135OSM    C1214632   4.953   0.463   7.091  0.2218 -0.3563 -0.3954
  135OSM   H12A14633   5.025   0.382   7.095  1.2461  0.4758 -1.3767
  135OSM   H12B14634   5.001   0.546   7.140  2.1236 -0.5147 -1.8602
  135OSM    C1114635   4.917   0.511   6.944  0.6613 -0.0193 -0.1141
  135OSM   H11A14636   4.854   0.432   6.899 -0.0143  1.9613 -2.9061
  135OSM   H11B14637   5.015   0.509   6.892  1.0589  0.8838  0.5620
  135OSM      P14638   4.940   0.773   6.966  0.1735 -0.0969  0.0977
  135OSM    O1314639   4.849   0.891   6.968 -0.3795  0.2431  0.2534
  135OSM    O1414640   5.034   0.756   7.079 -0.7147 -0.0463  0.3511
  135OSM    O1114641   5.030   0.771   6.841 -0.5553  0.0275  0.4407
  135OSM    O1214642   4.854   0.641   6.942  0.2370  0.8224 -0.4415
  135OSM    C1S14643   4.992   0.748   6.706 -0.8367  0.8108 -0.9137
  135OSM    H1S14644   4.904   0.683   6.691  1.0166 -2.4162  1.0300
  135OSM    H1T14645   5.076   0.694   6.655 -1.0176 -0.5069  0.1122
  135OSM     NF14646   4.928   0.869   6.503  0.8201  0.9594 -0.9656
  135OSM    HNF14647   4.998   0.878   6.432  1.6540 -1.3929 -0.5343
  135OSM    C2S14648   4.973   0.884   6.636  0.0418 -0.2515  0.5812
  135OSM    H2S14649   4.895   0.942   6.689  0.5648  1.2190 -0.2098
  135OSM    C3S14650   5.099   0.980   6.647 -0.3884 -0.3725 -0.4377
  135OSM    H3S14651   5.180   0.931   6.588 -1.2154 -0.4655 -1.5388
  135OSM     O314652   5.149   1.007   6.781  0.2955  0.2325  0.4747
  135OSM    HO314653   5.101   0.949   6.839  0.0810 -0.2931 -0.2110
  135OSM    C4S14654   5.084   1.113   6.579  0.8447  0.5420 -0.0797
  135OSM    H4S14655   5.000   1.172   6.618  0.4210 -0.5649  0.7270
  135OSM    C5S14656   5.163   1.163   6.480 -0.1208 -0.2836 -0.0361
  135OSM    H5S14657   5.246   1.096   6.450  0.2190  0.4667 -0.8132
  135OSM    C6S14658   5.171   1.304   6.430 -0.7505  0.2513  0.1406
  135OSM    H6S14659   5.134   1.371   6.510  2.1768 -0.7552  2.5321
  135OSM    H6T14660   5.109   1.310   6.338  1.0386  2.1488 -1.0372
  135OSM    C7S14661   5.307   1.365   6.381 -0.6371 -0.0581 -0.4105
  135OSM    H7S14662   5.345   1.286   6.311 -0.9201 -1.3611  0.8549
  135OSM    H7T14663   5.377   1.381   6.466  0.4539 -0.4488 -1.1978
  135OSM    C8S14664   5.289   1.491   6.294  0.5016 -0.0451  0.4360
  135OSM    H8S14665   5.240   1.462   6.199 -2.7629 -1.4441  2.3859
  135OSM    H8T14666   5.388   1.535   6.271  0.1522  0.5916  0.1223
  135OSM    C9S14667   5.197   1.589   6.356 -0.4364  0.0180  0.1073
  135OSM    H9S14668   5.253   1.632   6.442 -3.7592  2.6258  1.1766
  135OSM    H9T14669   5.099   1.558   6.398 -0.0333 -1.6695 -0.1336
  135OSM   C10S14670   5.184   1.716   6.270 -0.4371  0.0796 -0.2351
  135OSM   H10S14671   5.254   1.714   6.183 -1.1491  0.7724 -0.8449
  135OSM   H10T14672   5.206   1.800   6.340  1.8087 -0.5907 -0.0680
  135OSM   C11S14673   5.036   1.745   6.221 -0.2005 -0.3152 -0.4723
  135OSM   H11S14674   4.967   1.754   6.307 -0.4918  1.5273 -0.8564
  135OSM   H11T14675   5.020   1.651   6.164 -1.8244  0.3618 -1.1956
  135OSM   C12S14676   5.021   1.858   6.113 -0.0339 -0.6854 -0.4911
  135OSM   H12S14677   5.063   1.952   6.154 -0.3421  0.0232 -1.7641
  135OSM   H12T14678   4.916   1.885   6.093  0.0664  0.6606  0.6216
  135OSM   C13S14679   5.097   1.837   5.977 -0.4492 -0.6312  1.0738
  135OSM   H13S14680   5.026   1.758   5.942 -0.4238 -1.1654  2.1926
  135OSM   H13T14681   5.202   1.805   5.987  0.4240  1.3297 -0.9455
  135OSM   C14S14682   5.077   1.965   5.885  0.6436 -0.3711 -0.3591
  135OSM   H14S14683   5.133   2.059   5.905 -1.7597  1.3232 -1.0922
  135OSM   H14T14684   4.975   2.005   5.906  0.5815  0.7303 -2.5145
  135OSM   C15S14685   5.063   1.930   5.737  0.0574 -0.2269 -0.0188
  135OSM   H15S14686   4.973   1.865   5.730 -0.0622 -0.0193 -0.4625
  135OSM   H15T14687   5.156   1.877   5.706 -1.6907 -2.6760 -1.4406
  135OSM   C16S14688   5.036   2.060   5.652  0.7229  0.5204  0.3993
  135OSM   H16S14689   5.135   2.109   5.647  1.5127 -0.7259  2.5358
  135OSM   H16T14690   4.951   2.115   5.699 -0.4639 -0.4527 -0.5665
  135OSM   C17S14691   5.007   2.020   5.510  0.1681 -0.2761  0.1162
  135OSM   H17S14692   4.976   1.915   5.495 -0.8933  0.1535 -0.8496
  135OSM   H17T14693   5.102   2.045   5.457  0.1316  0.1322  0.2421
  135OSM   C18S14694   4.886   2.097   5.439 -0.3403  0.4869 -0.1956
  135OSM   H18S14695   4.791   2.105   5.497  0.5960  0.3692  1.4080
  135OSM   H18T14696   4.868   2.043   5.344  2.2307  0.0008 -0.4745
  135OSM   H18U14697   4.926   2.197   5.413 -1.2688  2.2504  4.1901
  135OSM    C1F14698   4.808   0.827   6.479  0.2369 -0.4431  0.2215
  135OSM     OF14699   4.726   0.828   6.568 -0.3833 -0.4919  0.0104
  135OSM    C2F14700   4.778   0.783   6.341 -0.2573 -0.1602  0.7490
  135OSM    H2F14701   4.687   0.720   6.348 -0.1267 -0.7874 -1.9762
  135OSM    H2G14702   4.856   0.715   6.300  1.0723  0.6340  1.8597
  135OSM    C3F14703   4.726   0.893   6.244 -0.0418  0.3267  0.1797
  135OSM    H3F14704   4.807   0.966   6.223  2.1386 -1.9462  0.2130
  135OSM    H3G14705   4.639   0.948   6.286 -0.7326 -1.6985  1.5895
  135OSM    C4F14706   4.692   0.816   6.113  0.3157  0.5909 -0.0459
  135OSM    H4F14707   4.780   0.755   6.086  0.7175  1.9156 -1.8323
  135OSM    H4G14708   4.601   0.752   6.124 -0.3229  1.2253 -1.3885
  135OSM    C5F14709   4.670   0.907   5.994  0.8740 -0.2662 -0.1408
  135OSM    H5F14710   4.758   0.968   5.963  1.6454 -2.4703 -2.6383
  135OSM    H5G14711   4.588   0.977   6.021  0.4327 -0.3471 -1.2117
  135OSM    C6F14712   4.621   0.819   5.879  0.0432  0.1642  0.8295
  135OSM    H6F14713   4.546   0.747   5.918  0.7486 -0.5917  0.8361
  135OSM    H6G14714   4.710   0.758   5.851 -0.3916 -0.4635  0.7814
  135OSM    C7F14715   4.566   0.891   5.751  0.2066  1.0059 -1.2368
  135OSM    H7F14716   4.640   0.953   5.696  1.5692 -0.4577 -1.1210
  135OSM    H7G14717   4.485   0.954   5.793 -2.8191 -1.5414 -2.7721
  135OSM    C8F14718   4.493   0.799   5.666  0.4308 -0.2430 -0.1059
  135OSM    H8F14719   4.422   0.860   5.607 -2.0013 -0.8007  2.0540
  135OSM    H8G14720   4.422   0.727   5.712 -2.2056  0.0620 -3.3112
  135OSM    C9F14721   4.585   0.720   5.580 -0.6827  0.7329 -0.4346
  135OSM    H9F14722   4.638   0.642   5.637  0.1608  0.8111 -1.0788
  135OSM   C10F14723   4.610   0.734   5.451  0.1994 -0.3229  0.2068
  135OSM   H10F14724   4.686   0.664   5.414 -1.1282 -1.8687  0.2788
  135OSM   C11F14725   4.549   0.828   5.355  0.1451  0.1798  0.7494
  135OSM   H11F14726   4.461   0.881   5.397 -0.2289  1.9995 -2.0702
  135OSM   H11G14727   4.503   0.780   5.266 -1.9363  0.1806  1.7361
  135OSM   C12F14728   4.632   0.946   5.305 -0.0404 -0.3195 -0.8028
  135OSM   H12F14729   4.568   1.011   5.242 -0.0455  0.4837  0.0105
  135OSM   H12G14730   4.729   0.918   5.258  0.8016 -2.1382  1.8040
  135OSM   C13F14731   4.664   1.053   5.418 -0.0533  0.3422  0.5586
  135OSM   H13F14732   4.743   1.014   5.486  0.4247  1.2124  0.5176
  135OSM   H13G14733   4.570   1.064   5.475 -0.7288 -1.7679 -0.0662
  135OSM   C14F14734   4.706   1.186   5.357 -0.2401 -0.1128  0.4642
  135OSM   H14F14735   4.618   1.233   5.309 -0.8743 -1.3630  0.3758
  135OSM   H14G14736   4.770   1.151   5.273 -1.4560 -1.3029  0.0081
  135OSM   C15F14737   4.789   1.274   5.452 -0.3974 -0.0772  0.3746
  135OSM   H15F14738   4.879   1.215   5.479 -1.3392 -0.8926  1.8126
  135OSM   H15G14739   4.721   1.271   5.539 -1.1303  0.6054 -0.1570
  135OSM   C16F14740   4.821   1.407   5.394  0.2325 -0.8727 -0.0768
  135OSM   H16F14741   4.782   1.478   5.470  2.4713 -0.7679  1.0589
  135OSM   H16G14742   4.769   1.428   5.298  0.3391 -0.9678 -0.1567
  135OSM   C17F14743   4.970   1.441   5.372 -0.2965  0.5961 -0.5367
  135OSM   H17F14744   5.011   1.395   5.280  1.7704  0.2123  0.5203
  135OSM   H17G14745   5.037   1.408   5.454  0.9466 -1.7894 -2.3986
  135OSM   C18F14746   4.984   1.589   5.352 -0.6619 -0.7003  0.6476
  135OSM   H18F14747   4.975   1.652   5.442 -0.7291  0.9483 -0.4695
  135OSM   H18G14748   4.908   1.630   5.282  2.1754  2.2975 -0.9950
  135OSM   H18H14749   5.079   1.613   5.298 -1.0677 -1.0356 -0.2397
  136OSM      N14750   0.146   3.037   7.194 -0.2000  0.2251  0.0307
  136OSM    C1514751   0.278   2.966   7.184  0.2168 -0.5928 -0.2786
  136OSM   H15A14752   0.329   2.967   7.279  0.4414  0.2977 -0.3961
  136OSM   H15B14753   0.342   3.017   7.113  0.4137  0.8974  0.9183
  136OSM   H15C14754   0.270   2.861   7.161  0.8199 -0.9356  1.0108
  136OSM    C1414755   0.053   2.964   7.288  0.4372  0.1958 -0.1239
  136OSM   H14A14756   0.028   2.870   7.242  0.9394  0.7415 -1.5871
  136OSM   H14B14757  -0.039   3.020   7.298 -0.3490 -0.6130 -2.3000
  136OSM   H14C14758   0.107   2.969   7.381  1.8097  2.4049 -0.9407
  136OSM    C1314759   0.187   3.171   7.248 -0.4954 -0.0364  0.0078
  136OSM   H13A14760   0.240   3.157   7.341  0.2353  2.2477 -0.0087
  136OSM   H13B14761   0.105   3.239   7.262 -0.9621 -0.9877  2.2470
  136OSM   H13C14762   0.254   3.229   7.186 -1.2077  0.8276  0.0232
  136OSM    C1214763   0.087   3.048   7.053  0.0398  0.5788 -0.6434
  136OSM   H12A14764  -0.012   3.089   7.064  0.5756  1.5642  0.9030
  136OSM   H12B14765   0.078   2.947   7.015 -0.4434  0.5403 -0.4355
  136OSM    C1114766   0.163   3.123   6.942 -0.3745  0.1097  0.1223
  136OSM   H11A14767   0.174   3.229   6.972  0.8252  0.0478 -0.0726
  136OSM   H11B14768   0.101   3.113   6.850  1.6886 -0.3423 -1.2854
  136OSM      P14769   0.310   2.942   6.842  0.3966  0.1228 -0.2189
  136OSM    O1314770   0.452   2.904   6.836  0.3708  0.1255 -0.3625
  136OSM    O1414771   0.212   2.841   6.895 -0.1361  0.1786  0.0843
  136OSM    O1114772   0.252   2.967   6.696  0.1369 -0.7498 -0.3323
  136OSM    O1214773   0.295   3.073   6.928  0.2973 -0.5723 -0.2338
  136OSM    C1S14774   0.307   3.063   6.604 -0.0581  0.4891  0.3309
  136OSM    H1S14775   0.418   3.060   6.605 -0.0662 -0.2763  1.5146
  136OSM    H1T14776   0.275   3.165   6.631  0.6641  0.5684  0.9168
  136OSM     NF14777   0.318   3.099   6.357 -0.9662 -0.0729 -0.7891
  136OSM    HNF14778   0.276   3.185   6.327  1.0496  1.5751  0.8572
  136OSM    C2S14779   0.249   3.029   6.466  0.4976  0.0841  0.2554
  136OSM    H2S14780   0.267   2.921   6.445 -0.1567 -0.1283  0.7571
  136OSM    C3S14781   0.096   3.049   6.466  0.4423 -0.2237 -0.3415
  136OSM    H3S14782   0.087   3.160   6.459 -1.3423 -0.4179 -2.1919
  136OSM     O314783   0.018   3.001   6.577  0.1558 -1.0047 -0.4765
  136OSM    HO314784   0.082   3.013   6.648 -0.1857  2.5489 -0.5634
  136OSM    C4S14785   0.023   2.993   6.347 -0.0315  0.6070  0.8363
  136OSM    H4S14786   0.017   2.885   6.326 -2.7777  0.9932 -0.8413
  136OSM    C5S14787  -0.038   3.065   6.248  0.5992 -0.1668 -0.7027
  136OSM    H5S14788  -0.025   3.174   6.248 -1.6994  0.1623  1.1908
  136OSM    C6S14789  -0.111   2.998   6.136 -0.1569 -0.2688  0.2750
  136OSM    H6S14790  -0.221   3.013   6.134 -0.5288 -2.6100 -1.4296
  136OSM    H6T14791  -0.087   2.890   6.145 -0.5818 -0.3978 -0.0800
  136OSM    C7S14792  -0.053   3.033   6.002  0.4538  0.5039  0.2372
  136OSM    H7S14793   0.054   3.012   5.983  0.3771 -1.1818  1.4396
  136OSM    H7T14794  -0.076   3.139   5.979 -1.6883 -0.0060 -0.1808
  136OSM    C8S14795  -0.118   2.937   5.895 -0.2850 -0.7887 -0.0671
  136OSM    H8S14796  -0.225   2.967   5.889 -0.9368 -2.3847  2.0233
  136OSM    H8T14797  -0.125   2.831   5.927 -2.8067 -0.0323  2.2861
  136OSM    C9S14798  -0.041   2.946   5.762  0.4067  0.3258  0.5909
  136OSM    H9S14799   0.037   2.867   5.772 -0.0383  0.0152  1.7763
  136OSM    H9T14800   0.005   3.046   5.746  0.9581 -0.2250 -1.6151
  136OSM   C10S14801  -0.122   2.905   5.640  0.4816 -1.0511  1.0741
  136OSM   H10S14802  -0.213   2.968   5.634  0.2897 -1.3895  0.2965
  136OSM   H10T14803  -0.166   2.804   5.656 -1.7544 -0.4522 -0.7146
  136OSM   C11S14804  -0.051   2.897   5.503  0.3434 -0.4005  0.3869
  136OSM   H11S14805   0.051   2.861   5.526  0.6201  0.6975  0.9349
  136OSM   H11T14806  -0.039   3.004   5.476  0.4577 -0.3460  0.6580
  136OSM   C12S14807  -0.115   2.807   5.391  0.5968  0.2206 -0.0046
  136OSM   H12S14808  -0.223   2.830   5.378 -0.3424 -3.7100 -0.5224
  136OSM   H12T14809  -0.115   2.704   5.434 -0.3799 -0.2256 -1.0229
  136OSM   C13S14810  -0.053   2.816   5.250 -0.5374 -0.3232 -0.2526
  136OSM   H13S14811   0.054   2.785   5.259 -0.4235  0.3091  0.7967
  136OSM   H13T14812  -0.062   2.921   5.216  1.3080 -0.2070 -0.4899
  136OSM   C14S14813  -0.126   2.722   5.151  0.1565 -0.0900 -0.4441
  136OSM   H14S14814  -0.233   2.741   5.172  0.0943 -1.4498  0.5634
  136OSM   H14T14815  -0.104   2.615   5.167 -0.9980 -0.4050 -0.8715
  136OSM   C15S14816  -0.107   2.766   5.005 -0.3634  0.8616 -0.2959
  136OSM   H15S14817  -0.123   2.873   4.981 -0.1132  1.1957  0.9403
  136OSM   H15T14818  -0.174   2.701   4.944  1.3495 -1.0031 -0.2946
  136OSM   C16S14819   0.033   2.723   4.965  0.1753  0.6945 -0.0056
  136OSM   H16S14820   0.043   2.613   4.977 -1.7995  0.5523  0.6457
  136OSM   H16T14821   0.111   2.764   5.034  1.1377 -2.3328  0.8462
  136OSM   C17S14822   0.044   2.746   4.813 -0.3905 -0.1114 -0.4147
  136OSM   H17S14823   0.038   2.855   4.795 -0.0080 -0.4234 -2.8729
  136OSM   H17T14824  -0.052   2.711   4.769 -0.6337 -2.4385  1.7557
  136OSM   C18S14825   0.161   2.679   4.751 -0.3380  0.0349 -0.5428
  136OSM   H18S14826   0.203   2.727   4.660  0.4975  0.5027  0.0769
  136OSM   H18T14827   0.133   2.574   4.731  1.2288 -0.9105  1.7025
  136OSM   H18U14828   0.240   2.675   4.830 -0.9670  0.2046  0.1098
  136OSM    C1F14829   0.434   3.055   6.314 -0.8766  0.0346 -0.4781
  136OSM     OF14830   0.489   2.954   6.358 -0.6076 -0.1229  0.0091
  136OSM    C2F14831   0.509   3.146   6.214 -0.2376  0.7163  0.3246
  136OSM    H2F14832   0.596   3.186   6.270 -0.5874  2.3280 -0.2296
  136OSM    H2G14833   0.445   3.230   6.181 -1.1593  0.0509  0.3875
  136OSM    C3F14834   0.559   3.054   6.100 -0.5344  1.3172 -0.1535
  136OSM    H3F14835   0.465   3.018   6.055  0.4389  0.2706 -1.4126
  136OSM    H3G14836   0.612   2.969   6.149 -1.3969  1.5255  1.2045
  136OSM    C4F14837   0.630   3.120   5.984  0.1171  0.1933 -0.4035
  136OSM    H4F14838   0.660   3.034   5.920  0.0874 -0.5436  0.5551
  136OSM    H4G14839   0.721   3.169   6.024  0.5546  0.5453 -1.7754
  136OSM    C5F14840   0.535   3.226   5.911 -0.0061  0.1021 -0.4814
  136OSM    H5F14841   0.539   3.325   5.962  1.4550 -0.4224  0.5215
  136OSM    H5G14842   0.435   3.179   5.900 -1.0028  1.5389  1.7286
  136OSM    C6F14843   0.565   3.259   5.763 -0.7478 -0.4801  0.0426
  136OSM    H6F14844   0.596   3.167   5.710  0.1425 -0.5419  0.6603
  136OSM    H6G14845   0.653   3.328   5.763 -1.7231  0.8171 -0.5380
  136OSM    C7F14846   0.459   3.340   5.684  1.1793  0.2165 -0.0331
  136OSM    H7F14847   0.457   3.443   5.725  2.9611  0.5505 -0.6955
  136OSM    H7G14848   0.361   3.290   5.698  1.4266  0.1297  1.6411
  136OSM    C8F14849   0.493   3.364   5.538 -0.4002 -0.1146 -0.5812
  136OSM    H8F14850   0.408   3.423   5.497  0.1170 -0.7267 -2.6482
  136OSM    H8G14851   0.471   3.272   5.480 -0.2968 -1.3184  1.2002
  136OSM    C9F14852   0.636   3.413   5.503  0.6448 -0.4271  0.1454
  136OSM    H9F14853   0.672   3.513   5.530  2.1480 -0.4498 -1.5610
  136OSM   C10F14854   0.718   3.362   5.410 -0.1856  0.2126 -0.4196
  136OSM   H10F14855   0.813   3.414   5.394  0.3271 -0.3831  0.6293
  136OSM   C11F14856   0.692   3.228   5.347  0.1522 -0.5624 -0.4906
  136OSM   H11F14857   0.591   3.235   5.303 -0.3647 -1.2552  0.5335
  136OSM   H11G14858   0.677   3.159   5.433 -0.4524 -1.1371 -1.0448
  136OSM   C12F14859   0.793   3.174   5.235 -0.0465  0.2910 -0.2759
  136OSM   H12F14860   0.747   3.077   5.206  1.0554 -0.1708 -0.5467
  136OSM   H12G14861   0.891   3.153   5.282  1.1419  1.2826 -2.1691
  136OSM   C13F14862   0.821   3.269   5.120  0.0137 -0.1919 -0.2344
  136OSM   H13F14863   0.884   3.231   5.037  0.1529 -1.4247  0.4175
  136OSM   H13G14864   0.866   3.364   5.159  0.6436 -0.7715  0.4823
  136OSM   C14F14865   0.687   3.312   5.049  0.1374 -0.7893  0.7310
  136OSM   H14F14866   0.619   3.360   5.124 -0.5710 -1.7186  0.7103
  136OSM   H14G14867   0.631   3.220   5.024  1.0366 -1.1501  0.0250
  136OSM   C15F14868   0.706   3.399   4.921 -0.0341 -0.1561 -0.5246
  136OSM   H15F14869   0.751   3.326   4.851  2.6930 -0.9676  1.8705
  136OSM   H15G14870   0.782   3.477   4.943  0.1686  0.1378 -2.1339
  136OSM   C16F14871   0.574   3.454   4.872  0.1005  0.4744  0.3597
  136OSM   H16F14872   0.527   3.518   4.949 -2.1633 -0.1642 -0.4118
  136OSM   H16G14873   0.503   3.381   4.828 -0.3050  1.0886 -0.0171
  136OSM   C17F14874   0.591   3.562   4.759  0.3219 -0.1240  0.2170
  136OSM   H17F14875   0.649   3.641   4.811  0.3420 -1.6359  2.6687
  136OSM   H17G14876   0.497   3.600   4.714 -0.2680 -2.0350 -0.2542
  136OSM   C18F14877   0.668   3.512   4.640 -0.2378 -0.1177 -0.3319
  136OSM   H18F14878   0.614   3.443   4.571  3.0612  0.1718 -3.5063
  136OSM   H18G14879   0.751   3.447   4.673 -0.8907  0.0901  1.9189
  136OSM   H18H14880   0.706   3.595   4.577  3.7207 -2.2921 -1.0935
  137OSM      N14881   4.663   6.605   7.258 -0.2692 -0.5684 -0.1371
  137OSM    C1514882   4.533   6.590   7.326 -0.0938 -0.2610 -0.3023
  137OSM   H15A14883   4.552   6.558   7.428 -1.9622  1.3253  0.6008
  137OSM   H15B14884   4.465   6.517   7.283 -0.9351 -1.1550  2.3436
  137OSM   H15C14885   4.467   6.675   7.319 -1.8906 -1.4196  1.3629
  137OSM    C1414886   4.737   6.723   7.330  0.4433  0.9374  0.8684
  137OSM   H14A14887   4.693   6.818   7.304 -1.4000  0.0531  0.6314
  137OSM   H14B14888   4.840   6.725   7.295  0.4774 -0.0569  0.8829
  137OSM   H14C14889   4.740   6.714   7.437 -1.8088  1.4676  1.0075
  137OSM    C1314890   4.745   6.482   7.261 -0.7602  0.4884  0.1414
  137OSM   H13A14891   4.832   6.489   7.198  0.9620 -0.4235  2.2747
  137OSM   H13B14892   4.693   6.400   7.214  0.9375 -0.1763 -0.6629
  137OSM   H13C14893   4.759   6.444   7.361 -0.2944 -0.3584 -0.2324
  137OSM    C1214894   4.645   6.653   7.115  0.4490  0.6212  0.1943
  137OSM   H12A14895   4.744   6.680   7.081  0.5072 -0.8453 -0.8935
  137OSM   H12B14896   4.596   6.749   7.110  2.2613  1.5300 -1.4977
  137OSM    C1114897   4.597   6.552   7.010 -0.2234 -0.2537  0.4452
  137OSM   H11A14898   4.672   6.471   6.998 -3.5588 -3.5692  0.2132
  137OSM   H11B14899   4.594   6.603   6.911  0.2482  0.6457  0.8887
  137OSM      P14900   4.336   6.572   7.001 -0.3243 -0.0789  0.6283
  137OSM    O1314901   4.217   6.481   7.017 -0.1291  0.0026  0.0855
  137OSM    O1414902   4.331   6.696   7.084  0.2216  0.3421 -0.0174
  137OSM    O1114903   4.355   6.609   6.848  0.5548 -0.3269  0.5581
  137OSM    O1214904   4.467   6.490   7.037 -0.2798  0.1733 -0.3429
  137OSM    C1S14905   4.333   6.509   6.749 -0.0768 -0.4333  0.8868
  137OSM    H1S14906   4.228   6.472   6.754 -0.3857  0.5701  3.8871
  137OSM    H1T14907   4.402   6.426   6.777 -0.2357 -0.9318 -0.1511
  137OSM     NF14908   4.360   6.442   6.516 -0.1610 -0.3448  0.0627
  137OSM    HNF14909   4.439   6.416   6.461 -0.5097  0.3344 -0.7770
  137OSM    C2S14910   4.381   6.550   6.607  0.1948 -0.1573 -0.0074
  137OSM    H2S14911   4.308   6.631   6.583  0.3032  0.4495  1.6041
  137OSM    C3S14912   4.521   6.619   6.602 -0.2330  0.5223  0.3250
  137OSM    H3S14913   4.598   6.541   6.619  1.7424  2.5364  1.2204
  137OSM     O314914   4.530   6.711   6.707 -0.0415 -0.2015 -0.0706
  137OSM    HO314915   4.450   6.687   6.754  1.0985 -1.5083  1.3110
  137OSM    C4S14916   4.563   6.666   6.461  0.0154  0.2735 -0.7124
  137OSM    H4S14917   4.630   6.595   6.409 -0.7021  1.2697 -3.1271
  137OSM    C5S14918   4.525   6.776   6.393 -0.2506 -0.1712  0.2382
  137OSM    H5S14919   4.466   6.854   6.444 -2.6636 -2.3899  1.0293
  137OSM    C6S14920   4.563   6.813   6.256  0.0039  0.2130 -0.4409
  137OSM    H6S14921   4.645   6.888   6.261  0.1255  0.0292  0.4793
  137OSM    H6T14922   4.473   6.863   6.215 -2.1308 -0.3585  3.1005
  137OSM    C7S14923   4.615   6.703   6.163  0.3261 -0.1574 -0.6086
  137OSM    H7S14924   4.701   6.648   6.208  1.1303  2.6557  1.5854
  137OSM    H7T14925   4.651   6.759   6.074 -0.9670  1.3223 -0.2343
  137OSM    C8S14926   4.511   6.594   6.122  0.2123 -0.6320  0.3518
  137OSM    H8S14927   4.482   6.538   6.213  0.7544 -0.8471  0.3937
  137OSM    H8T14928   4.574   6.524   6.063 -0.2724 -0.8697  0.1099
  137OSM    C9S14929   4.404   6.633   6.025  0.1751  0.4722 -0.1118
  137OSM    H9S14930   4.321   6.697   6.062 -0.5172 -1.3711  1.7481
  137OSM    H9T14931   4.356   6.535   6.002 -1.1305  0.8901  0.7684
  137OSM   C10S14932   4.451   6.693   5.890 -0.4839  0.7073 -0.7507
  137OSM   H10S14933   4.546   6.643   5.860  1.7701  4.3782 -0.3852
  137OSM   H10T14934   4.466   6.802   5.910 -2.5858  1.2540 -1.8476
  137OSM   C11S14935   4.350   6.676   5.775  0.0846 -0.3637  0.3887
  137OSM   H11S14936   4.259   6.731   5.808  1.4220  1.6010  1.0091
  137OSM   H11T14937   4.338   6.566   5.766  2.1371 -0.9438  3.3890
  137OSM   C12S14938   4.406   6.730   5.650  0.2293 -0.5414  0.3513
  137OSM   H12S14939   4.502   6.677   5.639  1.0685  0.7736  1.1069
  137OSM   H12T14940   4.424   6.839   5.658  0.0012 -0.4595 -0.2041
  137OSM   C13S14941   4.316   6.712   5.526  0.2120  0.4313 -0.2391
  137OSM   H13S14942   4.213   6.739   5.559 -0.4675  0.5250 -2.3122
  137OSM   H13T14943   4.320   6.603   5.502 -1.4257  0.2060  0.3774
  137OSM   C14S14944   4.361   6.798   5.405 -0.5288 -0.0643 -0.2419
  137OSM   H14S14945   4.462   6.757   5.381 -0.2108  0.5733 -0.0288
  137OSM   H14T14946   4.372   6.904   5.437 -0.7401 -0.2535  0.4927
  137OSM   C15S14947   4.275   6.795   5.280 -0.3532  0.5170  0.3152
  137OSM   H15S14948   4.214   6.702   5.279  0.1363  0.1721  0.9977
  137OSM   H15T14949   4.333   6.802   5.186 -1.3888  1.4539 -0.2688
  137OSM   C16S14950   4.179   6.909   5.272 -0.3036  0.3835 -0.1257
  137OSM   H16S14951   4.239   7.002   5.270  1.5731 -0.7102  1.2958
  137OSM   H16T14952   4.097   6.909   5.347 -2.6073 -0.1337 -2.5251
  137OSM   C17S14953   4.094   6.911   5.139 -0.0289  0.5082 -0.0761
  137OSM   H17S14954   4.044   6.815   5.115 -1.9658  1.6833 -0.9805
  137OSM   H17T14955   4.162   6.919   5.051 -0.4701 -3.2446 -0.9183
  137OSM   C18S14956   3.997   7.031   5.129  0.3553 -0.4077 -0.4113
  137OSM   H18S14957   3.917   7.007   5.202  0.4092  1.9336  0.4986
  137OSM   H18T14958   3.954   7.032   5.027 -1.0310  1.7270  0.1327
  137OSM   H18U14959   4.046   7.131   5.134 -2.7708  1.6007 -4.1745
  137OSM    C1F14960   4.243   6.390   6.496 -0.2616  0.6711 -0.4181
  137OSM     OF14961   4.143   6.438   6.541  0.0422  0.1711 -0.6929
  137OSM    C2F14962   4.251   6.271   6.406 -0.4702 -0.0075  0.2614
  137OSM    H2F14963   4.296   6.180   6.453 -1.0995  0.2568  1.4098
  137OSM    H2G14964   4.324   6.304   6.330 -0.8600 -0.4876 -0.3264
  137OSM    C3F14965   4.122   6.235   6.327  0.0904 -0.2349  0.0844
  137OSM    H3F14966   4.036   6.206   6.391  1.2110 -1.3714  1.1328
  137OSM    H3G14967   4.144   6.141   6.272 -0.8194 -0.8033  0.6741
  137OSM    C4F14968   4.085   6.338   6.224  0.5374 -0.7831 -0.1282
  137OSM    H4F14969   4.087   6.444   6.256 -1.0592 -0.6279 -0.4329
  137OSM    H4G14970   3.982   6.319   6.185  0.2136  0.7233 -0.0457
  137OSM    C5F14971   4.172   6.330   6.099  0.0230 -0.0076 -0.0257
  137OSM    H5F14972   4.276   6.317   6.136  0.3162  1.1776 -0.3970
  137OSM    H5G14973   4.178   6.430   6.050  2.2212 -0.0630  0.0625
  137OSM    C6F14974   4.123   6.243   5.985 -0.0987  0.4521 -0.4804
  137OSM    H6F14975   4.018   6.259   5.954 -0.7517 -2.5452 -0.1899
  137OSM    H6G14976   4.113   6.137   6.019  0.5529  0.3185 -0.6735
  137OSM    C7F14977   4.214   6.233   5.863  0.3969  0.5871 -0.1289
  137OSM    H7F14978   4.301   6.166   5.881  1.1179  0.9665 -1.9721
  137OSM    H7G14979   4.252   6.337   5.855  0.3040  0.9520  2.8955
  137OSM    C8F14980   4.134   6.189   5.744  0.6049 -0.0497  1.3264
  137OSM    H8F14981   4.086   6.282   5.706 -1.5472 -2.0435 -1.2552
  137OSM    H8G14982   4.053   6.120   5.777  0.5821 -1.3696 -1.2356
  137OSM    C9F14983   4.237   6.134   5.638  0.5819 -0.2788  0.4247
  137OSM    H9F14984   4.306   6.053   5.668 -0.7862 -2.0345 -0.9046
  137OSM   C10F14985   4.273   6.204   5.528 -0.5273  0.0440 -0.1803
  137OSM   H10F14986   4.345   6.163   5.456 -0.0953  1.9137 -0.8688
  137OSM   C11F14987   4.206   6.330   5.475  0.3307  0.1105  0.0233
  137OSM   H11F14988   4.254   6.416   5.527  1.2281  1.2383 -2.5104
  137OSM   H11G14989   4.097   6.323   5.495 -0.3679  3.1833 -1.9694
  137OSM   C12F14990   4.235   6.369   5.328 -0.9616 -0.2257  0.0061
  137OSM   H12F14991   4.345   6.375   5.314 -0.6079  2.1222  2.8861
  137OSM   H12G14992   4.203   6.473   5.302 -0.0361  0.1145  0.2228
  137OSM   C13F14993   4.171   6.264   5.231  0.1396  0.2358  0.2208
  137OSM   H13F14994   4.060   6.268   5.230  0.1693  1.0759 -0.5462
  137OSM   H13G14995   4.197   6.165   5.274 -0.0694 -0.1195 -0.4432
  137OSM   C14F14996   4.235   6.268   5.086 -0.0619 -0.9757 -0.3274
  137OSM   H14F14997   4.196   6.177   5.036 -3.6998 -0.6612  1.6044
  137OSM   H14G14998   4.345   6.276   5.100 -0.1896  0.2426  0.1501
  137OSM   C15F14999   4.181   6.392   5.009  0.2244 -0.1346 -0.2406
  137OSM   H15F15000   4.228   6.481   5.056 -2.7538  1.5831 -0.3171
  137OSM   H15G15001   4.073   6.411   5.022 -0.4294 -3.3400 -0.3485
  137OSM   C16F15002   4.221   6.381   4.860 -0.2701 -0.0334 -0.0965
  137OSM   H16F15003   4.155   6.313   4.802  0.4396 -0.6167 -0.2391
  137OSM   H16G15004   4.325   6.343   4.863  0.8556  2.8042  0.2549
  137OSM   C17F15005   4.220   6.508   4.779  0.1852  0.4381  0.3375
  137OSM   H17F15006   4.241   6.481   4.673  0.4997  1.8668  0.0169
  137OSM   H17G15007   4.301   6.576   4.814  1.4126  0.0807 -1.6646
  137OSM   C18F15008   4.076   6.568   4.791 -1.0939  0.4855 -0.0508
  137OSM   H18F15009   3.991   6.506   4.757 -0.6721 -0.9968  1.4368
  137OSM   H18G15010   4.073   6.659   4.727 -1.4306 -0.0305 -0.7925
  137OSM   H18H15011   4.066   6.599   4.897  3.2163  0.3866  0.5688
  138OSM      N15012   5.995   6.219   6.961  0.4087 -0.4545  0.0348
  138OSM    C1515013   6.082   6.250   7.075 -0.6241  0.1426  0.3755
  138OSM   H15A15014   6.038   6.318   7.147  0.6381 -0.4717  1.7851
  138OSM   H15B15015   6.162   6.312   7.037 -2.2792  0.7969 -2.3538
  138OSM   H15C15016   6.111   6.162   7.130  0.0276  0.3307  0.3385
  138OSM    C1415017   5.871   6.154   7.009  0.6502  0.1134  0.0198
  138OSM   H14A15018   5.895   6.057   7.050  1.3110  1.0503  2.0018
  138OSM   H14B15019   5.804   6.150   6.925  0.3124  3.3271  0.0148
  138OSM   H14C15020   5.811   6.204   7.084 -0.0198 -1.2307  0.4016
  138OSM    C1315021   5.963   6.353   6.905 -0.8227  0.2249 -0.3648
  138OSM   H13A15022   5.882   6.347   6.833 -0.2415  3.2088 -1.4271
  138OSM   H13B15023   6.045   6.402   6.855 -1.0888  0.0990 -0.9447
  138OSM   H13C15024   5.926   6.419   6.981 -0.4936  0.1884 -0.1696
  138OSM    C1215025   6.062   6.144   6.852  0.0399 -0.2957 -0.4530
  138OSM   H12A15026   5.995   6.134   6.768 -1.0679  1.0803  0.2339
  138OSM   H12B15027   6.070   6.046   6.897 -1.6106  0.3799  1.4714
  138OSM    C1115028   6.200   6.186   6.803  1.0062  0.6769  1.0085
  138OSM   H11A15029   6.221   6.128   6.711 -1.5286 -0.8048  1.2752
  138OSM   H11B15030   6.275   6.155   6.879  2.1422  1.1941  0.1354
  138OSM      P15031   6.342   6.399   6.821 -0.1098 -0.1026  0.0943
  138OSM    O1315032   6.345   6.528   6.748 -0.0056 -0.2440  0.2216
  138OSM    O1415033   6.334   6.407   6.969 -0.2948  0.0561  0.1947
  138OSM    O1115034   6.448   6.296   6.768 -0.7705 -0.1405 -0.0828
  138OSM    O1215035   6.219   6.324   6.768  0.0665  0.1607 -0.1562
  138OSM    C1S15036   6.461   6.260   6.626  0.4385  0.1890 -0.0617
  138OSM    H1S15037   6.366   6.265   6.568  0.5783 -0.6431 -0.3704
  138OSM    H1T15038   6.501   6.157   6.620 -0.6091 -0.1410 -3.6248
  138OSM     NF15039   6.579   6.299   6.409  0.2351 -0.3997  0.0378
  138OSM    HNF15040   6.646   6.228   6.389  0.5854 -0.2477  0.6370
  138OSM    C2S15041   6.573   6.346   6.548 -0.2339 -0.0134  0.5201
  138OSM    H2S15042   6.530   6.448   6.553 -1.9610 -0.6322 -0.9493
  138OSM    C3S15043   6.710   6.349   6.616 -0.2352 -0.9938  0.1057
  138OSM    H3S15044   6.762   6.252   6.608  2.0067  0.0596  1.1886
  138OSM     O315045   6.699   6.374   6.757  0.1003 -0.0318 -0.0496
  138OSM    HO315046   6.612   6.338   6.777  0.2038 -0.1972  0.1084
  138OSM    C4S15047   6.798   6.454   6.555 -0.3385  0.3792  0.4083
  138OSM    H4S15048   6.829   6.414   6.457  0.5529 -2.4598  1.7408
  138OSM    C5S15049   6.835   6.572   6.597 -0.0139  0.2546  0.0760
  138OSM    H5S15050   6.801   6.596   6.699 -0.3868  0.1750 -0.0269
  138OSM    C6S15051   6.944   6.658   6.527 -0.1649 -0.3754 -0.1961
  138OSM    H6S15052   7.033   6.679   6.591  0.8778 -1.4187 -1.2514
  138OSM    H6T15053   6.894   6.757   6.523  1.7695  0.7383  1.2148
  138OSM    C7S15054   6.979   6.618   6.390 -0.1014  0.1266  0.5338
  138OSM    H7S15055   6.888   6.616   6.328  0.7982  0.4293 -0.8287
  138OSM    H7T15056   7.019   6.514   6.388 -1.4266 -0.4275  1.6208
  138OSM    C8S15057   7.073   6.714   6.316 -0.3030  0.2356 -0.1414
  138OSM    H8S15058   7.179   6.698   6.345 -0.6819  1.2441  1.9874
  138OSM    H8T15059   7.056   6.815   6.358 -0.6305  0.4236 -0.7213
  138OSM    C9S15060   7.074   6.707   6.164  0.3776 -0.2843  1.0633
  138OSM    H9S15061   6.973   6.722   6.120  0.7308 -2.4527 -0.6795
  138OSM    H9T15062   7.119   6.611   6.131 -0.0028  0.5726 -2.3088
  138OSM   C10S15063   7.154   6.824   6.107  0.5476 -0.2199  0.4344
  138OSM   H10S15064   7.263   6.806   6.119  0.4349 -0.4827  1.1226
  138OSM   H10T15065   7.139   6.906   6.180  1.0707 -0.4648  0.8218
  138OSM   C11S15066   7.127   6.864   5.960 -0.0776  0.3498 -0.4535
  138OSM   H11S15067   7.019   6.890   5.950 -0.9424 -2.9153 -0.9133
  138OSM   H11T15068   7.148   6.772   5.901  0.1684  0.2666 -0.2381
  138OSM   C12S15069   7.213   6.978   5.933 -0.0792  0.4075 -0.1301
  138OSM   H12S15070   7.322   6.957   5.941 -0.0288  1.0031  1.1028
  138OSM   H12T15071   7.192   7.062   6.003  2.4802  1.4991 -0.5582
  138OSM   C13S15072   7.169   7.052   5.801  0.1995 -0.4281 -0.4562
  138OSM   H13S15073   7.239   7.137   5.786  0.3055 -0.5701 -0.7666
  138OSM   H13T15074   7.067   7.093   5.817 -0.6817 -2.9373  0.9953
  138OSM   C14S15075   7.167   6.964   5.678  0.1827 -0.0685  0.4145
  138OSM   H14S15076   7.103   6.875   5.697 -2.1219  1.1835 -1.0644
  138OSM   H14T15077   7.265   6.916   5.653  0.6605  0.0027  2.0371
  138OSM   C15S15078   7.110   7.029   5.554  0.1561 -0.7481 -0.2780
  138OSM   H15S15079   7.160   7.125   5.530 -1.1615  0.3092  1.0472
  138OSM   H15T15080   7.003   7.050   5.574  0.8061 -0.6679  3.9166
  138OSM   C16S15081   7.143   6.944   5.427 -0.4620 -0.6316 -0.7168
  138OSM   H16S15082   7.250   6.915   5.415 -0.2242 -0.8461  1.5749
  138OSM   H16T15083   7.121   6.994   5.330 -1.0279  0.5187 -0.0085
  138OSM   C17S15084   7.061   6.821   5.421 -0.3829 -0.2239 -0.1459
  138OSM   H17S15085   6.952   6.841   5.423 -0.6225 -1.1951 -1.8138
  138OSM   H17T15086   7.069   6.764   5.517  1.0312 -1.0804 -0.7362
  138OSM   C18S15087   7.097   6.723   5.310 -0.5115 -0.3302  0.6366
  138OSM   H18S15088   7.080   6.764   5.208  2.1745 -0.7046 -0.0141
  138OSM   H18T15089   7.024   6.640   5.325 -0.0859 -0.7186  0.5663
  138OSM   H18U15090   7.200   6.684   5.321 -0.5748 -0.1468  2.1578
  138OSM    C1F15091   6.472   6.316   6.331 -0.3798  0.6187 -0.1969
  138OSM     OF15092   6.384   6.396   6.363 -0.2535  0.0192 -0.5036
  138OSM    C2F15093   6.468   6.243   6.206 -1.0393 -0.6172 -0.8560
  138OSM    H2F15094   6.496   6.141   6.238  2.1996 -0.2092 -2.0299
  138OSM    H2G15095   6.529   6.289   6.125 -1.1576 -0.2820 -0.7565
  138OSM    C3F15096   6.329   6.247   6.150  1.2701 -0.1280  0.0290
  138OSM    H3F15097   6.310   6.348   6.107  1.8834 -0.2571 -0.5563
  138OSM    H3G15098   6.251   6.235   6.229  1.3728  2.2823  0.5887
  138OSM    C4F15099   6.311   6.150   6.027 -0.5550 -0.0345  0.1934
  138OSM    H4F15100   6.311   6.044   6.061 -3.0169 -0.0303  0.3774
  138OSM    H4G15101   6.388   6.156   5.947 -1.3729 -0.3595 -0.6372
  138OSM    C5F15102   6.179   6.157   5.946  0.1787  0.0277 -0.1133
  138OSM    H5F15103   6.162   6.254   5.895  2.8876  0.9170  0.5476
  138OSM    H5G15104   6.101   6.138   6.023  1.2460  0.0017  0.9957
  138OSM    C6F15105   6.168   6.055   5.837 -0.8568 -0.0079  0.6260
  138OSM    H6F15106   6.258   6.073   5.775 -0.6227  3.4147  1.7598
  138OSM    H6G15107   6.083   6.084   5.771  0.4987  2.5012 -0.1587
  138OSM    C7F15108   6.176   5.908   5.884 -0.1420 -0.1443 -0.4268
  138OSM    H7F15109   6.113   5.904   5.976 -1.0179 -1.2736 -1.0532
  138OSM    H7G15110   6.279   5.885   5.919  0.5885 -1.0107 -2.9324
  138OSM    C8F15111   6.129   5.791   5.785  0.2907  1.0886 -0.0929
  138OSM    H8F15112   6.019   5.793   5.768  0.3564 -0.4622 -0.8803
  138OSM    H8G15113   6.142   5.703   5.850 -0.3290  0.5800 -0.6430
  138OSM    C9F15114   6.217   5.774   5.664  0.4141 -0.0910  1.0520
  138OSM    H9F15115   6.221   5.871   5.612 -0.3370  1.0522  3.0279
  138OSM   C10F15116   6.287   5.670   5.616  0.1511 -0.4005 -0.0308
  138OSM   H10F15117   6.351   5.687   5.528  1.1463 -3.6690 -0.0776
  138OSM   C11F15118   6.289   5.534   5.669  0.1732  0.7465  0.2081
  138OSM   H11F15119   6.236   5.462   5.603 -0.6076 -1.4306  2.9816
  138OSM   H11G15120   6.228   5.526   5.762 -1.0214  1.1984 -0.5236
  138OSM   C12F15121   6.426   5.475   5.686 -0.2371 -0.0332  0.4681
  138OSM   H12F15122   6.418   5.374   5.731  0.9862 -0.8766 -1.0909
  138OSM   H12G15123   6.485   5.540   5.754  0.5543 -0.4563  0.1978
  138OSM   C13F15124   6.508   5.470   5.549 -0.7187  0.4043 -0.9033
  138OSM   H13F15125   6.605   5.419   5.567  1.1200  3.8611  0.0684
  138OSM   H13G15126   6.534   5.576   5.524 -2.0351  1.1939  0.8290
  138OSM   C14F15127   6.434   5.413   5.425  1.0472  0.5870  0.0582
  138OSM   H14F15128   6.345   5.475   5.399 -1.2333 -2.7304 -0.7966
  138OSM   H14G15129   6.415   5.304   5.434 -0.2703  0.6077 -1.8624
  138OSM   C15F15130   6.521   5.436   5.302  0.2198  0.1639  0.0281
  138OSM   H15F15131   6.599   5.357   5.312  1.4196  0.9475 -2.2603
  138OSM   H15G15132   6.570   5.536   5.302  0.9328 -0.1389  2.0934
  138OSM   C16F15133   6.443   5.408   5.173  0.6582  0.3879 -0.1598
  138OSM   H16F15134   6.370   5.490   5.156 -1.3720 -1.4466 -0.8124
  138OSM   H16G15135   6.378   5.319   5.192 -1.3526  1.7719 -0.1682
  138OSM   C17F15136   6.533   5.383   5.053  1.1388  0.4646 -0.4086
  138OSM   H17F15137   6.497   5.300   4.988 -0.6826  1.2094 -0.4281
  138OSM   H17G15138   6.631   5.348   5.091  0.7273 -0.6297 -0.3177
  138OSM   C18F15139   6.563   5.499   4.967 -0.5569 -0.3383  0.6780
  138OSM   H18F15140   6.617   5.577   5.024 -1.5782  1.4117 -0.6674
  138OSM   H18G15141   6.465   5.549   4.951 -0.5640 -0.0276  1.6456
  138OSM   H18H15142   6.615   5.492   4.869 -0.3647  1.9671  0.5715
  139OSM      N15143   1.479   2.470   6.944 -0.1694  1.3985  0.1903
  139OSM    C1515144   1.587   2.519   6.854  0.5789  0.6814  0.0931
  139OSM   H15A15145   1.619   2.430   6.800 -3.1232 -0.2167 -0.8988
  139OSM   H15B15146   1.671   2.555   6.911 -0.3693  2.0032  0.6901
  139OSM   H15C15147   1.549   2.589   6.782  0.6869  1.5986  0.9050
  139OSM    C1415148   1.549   2.381   7.051  0.2673 -0.2920  0.3035
  139OSM   H14A15149   1.464   2.348   7.109  1.1101  1.3912  2.6501
  139OSM   H14B15150   1.617   2.433   7.117  0.1895 -0.7449  0.7465
  139OSM   H14C15151   1.606   2.303   7.003 -1.7346 -1.2063 -0.6745
  139OSM    C1315152   1.434   2.590   7.016  0.1397  0.4854 -0.2246
  139OSM   H13A15153   1.467   2.594   7.119  2.1862 -3.8172 -0.5021
  139OSM   H13B15154   1.327   2.578   7.028  0.5524 -1.7163  1.9573
  139OSM   H13C15155   1.459   2.680   6.961  0.8119  0.3436 -0.1500
  139OSM    C1215156   1.368   2.404   6.865  0.9538  0.2507 -0.3103
  139OSM   H12A15157   1.416   2.345   6.788  1.3633  2.2202 -1.6210
  139OSM   H12B15158   1.311   2.476   6.809 -1.1466  0.1597  1.5462
  139OSM    C1115159   1.260   2.322   6.939  0.6689 -0.0007 -0.4038
  139OSM   H11A15160   1.319   2.249   6.999  1.3390  0.6796 -0.2151
  139OSM   H11B15161   1.198   2.259   6.872 -0.0805 -0.8878  1.0853
  139OSM      P15162   1.068   2.494   6.971 -0.4001 -0.2935  0.1607
  139OSM    O1315163   0.944   2.454   7.035 -0.1647  0.2130 -0.7107
  139OSM    O1415164   1.121   2.631   6.999 -0.2887 -0.0903  0.4413
  139OSM    O1115165   1.069   2.472   6.809  0.3272  0.1083  0.3552
  139OSM    O1215166   1.184   2.404   7.023  0.0179  0.2979  0.1722
  139OSM    C1S15167   0.991   2.561   6.731 -0.6091  0.0649  0.5569
  139OSM    H1S15168   1.026   2.666   6.745 -0.0003  0.2636 -1.8765
  139OSM    H1T15169   0.881   2.560   6.744 -0.9052  2.5461 -1.0530
  139OSM     NF15170   0.958   2.634   6.497  0.6146 -0.2176 -0.3343
  139OSM    HNF15171   0.872   2.617   6.449  0.6791 -1.2534 -0.0929
  139OSM    C2S15172   1.011   2.522   6.581  0.9427  0.7560  0.2479
  139OSM    H2S15173   1.121   2.525   6.567  0.9321  2.2953  0.2338
  139OSM    C3S15174   0.952   2.383   6.548  0.5754  0.0299 -0.4836
  139OSM    H3S15175   0.844   2.392   6.575  0.8247 -0.1403  0.6374
  139OSM     O315176   0.989   2.273   6.636  0.0123  0.0141 -0.0751
  139OSM    HO315177   1.048   2.312   6.701  0.2336  0.5576 -0.5896
  139OSM    C4S15178   0.966   2.337   6.405  0.0995  0.1378 -0.1404
  139OSM    H4S15179   0.888   2.382   6.342  0.4406  0.5573 -0.2653
  139OSM    C5S15180   1.057   2.258   6.346  0.2157 -0.0768 -0.7635
  139OSM    H5S15181   1.146   2.234   6.407 -1.2621  0.0385  1.5366
  139OSM    C6S15182   1.079   2.222   6.201 -0.4934  0.3014 -0.3878
  139OSM    H6S15183   0.984   2.213   6.144  0.5310 -4.2893 -1.7851
  139OSM    H6T15184   1.111   2.116   6.195  0.6037  0.6037  0.0282
  139OSM    C7S15185   1.182   2.313   6.110  0.3739  0.6196 -1.1661
  139OSM    H7S15186   1.284   2.321   6.153  0.1409 -0.0562 -0.4614
  139OSM    H7T15187   1.132   2.412   6.095  0.1056  0.5591 -0.6992
  139OSM    C8S15188   1.199   2.247   5.971 -0.8506 -0.2459  0.0261
  139OSM    H8S15189   1.104   2.221   5.920  0.6636 -1.7565 -2.1745
  139OSM    H8T15190   1.262   2.157   5.984 -0.9387 -0.2727  0.2703
  139OSM    C9S15191   1.287   2.350   5.891 -0.7041  0.1296 -0.6988
  139OSM    H9S15192   1.377   2.367   5.954  1.7390  0.6210 -4.0166
  139OSM    H9T15193   1.225   2.441   5.893  1.0264  1.3724 -0.8869
  139OSM   C10S15194   1.318   2.296   5.746 -0.0983  0.5343 -0.4734
  139OSM   H10S15195   1.345   2.190   5.765 -1.9833  0.1460  0.3377
  139OSM   H10T15196   1.399   2.355   5.699 -1.5887  1.4205 -2.0213
  139OSM   C11S15197   1.198   2.314   5.660 -0.3844 -0.9172 -0.5684
  139OSM   H11S15198   1.182   2.424   5.658  1.0065 -0.7003 -0.9124
  139OSM   H11T15199   1.109   2.250   5.680 -1.0760 -0.9424 -3.3374
  139OSM   C12S15200   1.232   2.283   5.520 -0.5420 -0.1835  0.8435
  139OSM   H12S15201   1.256   2.175   5.509  1.9026  0.2915  1.0029
  139OSM   H12T15202   1.318   2.336   5.473 -0.7897 -1.3940 -1.0765
  139OSM   C13S15203   1.120   2.305   5.422 -0.1528 -0.2621  0.5139
  139OSM   H13S15204   1.095   2.413   5.420 -0.4584 -0.3432 -0.0833
  139OSM   H13T15205   1.036   2.240   5.457  0.0157  0.1861  1.8122
  139OSM   C14S15206   1.139   2.260   5.274  0.0268  0.0630  0.5711
  139OSM   H14S15207   1.065   2.180   5.252  0.5007 -0.5813  1.2684
  139OSM   H14T15208   1.238   2.211   5.263  1.1485  2.3444 -0.1878
  139OSM   C15S15209   1.143   2.371   5.172  0.4432 -0.6415 -0.1000
  139OSM   H15S15210   1.204   2.451   5.220  2.2080 -0.5978 -2.2626
  139OSM   H15T15211   1.046   2.425   5.160  0.5614 -0.3186  0.3791
  139OSM   C16S15212   1.189   2.332   5.032 -0.0533 -1.0351 -0.2737
  139OSM   H16S15213   1.280   2.269   5.029 -0.4447 -1.6151 -0.1101
  139OSM   H16T15214   1.220   2.425   4.980  1.8192  0.1844  2.7525
  139OSM   C17S15215   1.078   2.291   4.941  1.2505  0.6367 -0.4494
  139OSM   H17S15216   0.988   2.355   4.940 -0.5277 -1.6331  1.8088
  139OSM   H17T15217   1.048   2.191   4.978 -0.2054  0.4836 -1.9620
  139OSM   C18S15218   1.126   2.263   4.792  0.3769 -0.2097 -0.5215
  139OSM   H18S15219   1.151   2.361   4.746 -0.8541  0.6595  0.5831
  139OSM   H18T15220   1.051   2.199   4.740 -2.3031  0.0602  2.7040
  139OSM   H18U15221   1.213   2.196   4.808 -0.5914 -1.5346 -0.6012
  139OSM    C1F15222   1.006   2.758   6.475 -0.0884 -0.4341  0.1271
  139OSM     OF15223   1.121   2.786   6.494  0.1846  0.1833 -0.6150
  139OSM    C2F15224   0.916   2.868   6.428 -0.2602  0.3493  0.0094
  139OSM    H2F15225   0.907   2.946   6.506  1.0160 -1.0105  1.5710
  139OSM    H2G15226   0.814   2.823   6.425 -0.0671 -0.2504  1.7824
  139OSM    C3F15227   0.973   2.922   6.293  0.7443  0.1517 -0.3863
  139OSM    H3F15228   1.073   2.966   6.312  1.0490 -0.4827 -0.4704
  139OSM    H3G15229   0.911   3.004   6.252 -1.2816 -1.1329 -0.0769
  139OSM    C4F15230   0.958   2.816   6.178 -0.1270 -0.8855  0.3795
  139OSM    H4F15231   0.861   2.762   6.187 -0.3451 -0.2981  1.7027
  139OSM    H4G15232   1.044   2.746   6.183 -0.9073 -1.8194  1.0185
  139OSM    C5F15233   0.982   2.889   6.046  0.0458 -0.4578 -0.4729
  139OSM    H5F15234   1.020   2.991   6.068  0.7477 -0.9403  0.6582
  139OSM    H5G15235   0.877   2.898   6.009  0.0084  1.4056 -0.0268
  139OSM    C6F15236   1.068   2.811   5.949  0.1572  0.7690  0.0595
  139OSM    H6F15237   1.020   2.713   5.930 -0.6600  0.6083  2.5785
  139OSM    H6G15238   1.167   2.797   5.998  0.6278  0.0159 -1.0689
  139OSM    C7F15239   1.088   2.890   5.817  0.4950 -0.1698  0.1178
  139OSM    H7F15240   1.160   2.971   5.839  0.1470  0.5178 -1.1909
  139OSM    H7G15241   0.990   2.938   5.793  1.1625  1.6770  0.9285
  139OSM    C8F15242   1.148   2.814   5.697 -0.4563  0.4020  0.1676
  139OSM    H8F15243   1.085   2.730   5.660  1.5200 -1.2952  0.4423
  139OSM    H8G15244   1.241   2.767   5.736 -0.4654  0.2440 -0.0001
  139OSM    C9F15245   1.183   2.904   5.578 -0.2499  0.4721 -0.1797
  139OSM    H9F15246   1.259   2.977   5.610 -0.4746  0.1184  1.2547
  139OSM   C10F15247   1.135   2.906   5.451  0.2378 -0.1097 -0.0010
  139OSM   H10F15248   1.171   2.968   5.367  0.1594 -0.1374 -0.0551
  139OSM   C11F15249   1.018   2.820   5.408  0.8406  0.0390  0.0973
  139OSM   H11F15250   0.929   2.885   5.398 -0.7777 -2.1771 -0.6681
  139OSM   H11G15251   0.999   2.756   5.496  2.9730  0.7275  1.1387
  139OSM   C12F15252   1.017   2.728   5.284 -0.2772  0.4596 -0.7045
  139OSM   H12F15253   0.928   2.662   5.274 -1.2193  1.6907 -0.7430
  139OSM   H12G15254   1.106   2.663   5.295  1.1152  2.4985  0.9752
  139OSM   C13F15255   1.031   2.798   5.147 -0.4820 -0.4634  0.0441
  139OSM   H13F15256   1.126   2.855   5.151  0.3202 -1.7747  3.1809
  139OSM   H13G15257   0.952   2.871   5.121 -1.1704 -0.2198  2.4950
  139OSM   C14F15258   1.036   2.694   5.030  0.2171  0.9815  0.5552
  139OSM   H14F15259   0.938   2.642   5.030  0.3458  0.7356  0.8320
  139OSM   H14G15260   1.112   2.617   5.055 -0.4122  0.3336  0.5253
  139OSM   C15F15261   1.063   2.753   4.894 -0.1853 -0.4348 -1.1166
  139OSM   H15F15262   1.166   2.793   4.884 -0.8524  1.8453  0.5376
  139OSM   H15G15263   0.994   2.838   4.878  1.0607  0.5675 -1.3323
  139OSM   C16F15264   1.050   2.652   4.780 -0.7901 -0.7630 -0.3716
  139OSM   H16F15265   0.945   2.634   4.748 -0.3863 -1.5862 -1.2966
  139OSM   H16G15266   1.085   2.560   4.831  1.8728  1.3429  1.9286
  139OSM   C17F15267   1.145   2.679   4.668  0.5613 -0.1551  0.1117
  139OSM   H17F15268   1.242   2.634   4.698  0.1962 -0.0935  1.4288
  139OSM   H17G15269   1.172   2.785   4.649  1.3849 -0.1304  1.3162
  139OSM   C18F15270   1.094   2.617   4.538  0.1551 -0.1542  0.3634
  139OSM   H18F15271   1.066   2.509   4.543  0.4102 -0.3847 -2.0504
  139OSM   H18G15272   1.163   2.623   4.452 -2.1194 -0.0583 -1.5796
  139OSM   H18H15273   1.002   2.670   4.505 -1.6966 -2.7906  0.9438
  140OSM      N15274   3.574   6.665   6.935 -0.5090  0.0936  0.8676
  140OSM    C1515275   3.658   6.628   6.817  0.2144 -0.0256  0.6435
  140OSM   H15A15276   3.599   6.656   6.730  0.5548  0.7892  0.6567
  140OSM   H15B15277   3.686   6.524   6.810  0.1885  0.0362 -0.7089
  140OSM   H15C15278   3.746   6.691   6.811 -1.0214  1.6324 -2.2797
  140OSM    C1415279   3.653   6.624   7.056 -0.7022  0.1364  0.2863
  140OSM   H14A15280   3.749   6.672   7.063 -0.1910 -1.0590  2.2906
  140OSM   H14B15281   3.659   6.516   7.066 -4.8691 -0.3780 -0.7181
  140OSM   H14C15282   3.598   6.654   7.144 -1.3980 -0.5525  0.1041
  140OSM    C1315283   3.553   6.814   6.950 -0.3241 -0.0867  0.0689
  140OSM   H13A15284   3.643   6.862   6.915 -0.1918 -1.3314 -1.4004
  140OSM   H13B15285   3.533   6.849   7.050  0.1588  2.8692 -0.7639
  140OSM   H13C15286   3.473   6.848   6.886 -0.3261 -2.2910 -1.2026
  140OSM    C1215287   3.439   6.590   6.929  0.1858  0.8259 -0.2152
  140OSM   H12A15288   3.382   6.627   7.013  0.4820  1.9147 -0.4829
  140OSM   H12B15289   3.461   6.484   6.930 -0.2813  0.5934 -3.5313
  140OSM    C1115290   3.341   6.628   6.813 -0.0667  0.4865 -0.6277
  140OSM   H11A15291   3.258   6.554   6.823 -0.3533  0.8300 -0.4576
  140OSM   H11B15292   3.389   6.618   6.714 -2.6373  1.4453 -2.0793
  140OSM      P15293   3.164   6.786   6.918 -0.1493 -0.1978 -0.0189
  140OSM    O1315294   3.177   6.692   7.035  0.9520 -0.0434  0.8674
  140OSM    O1415295   3.151   6.929   6.951  0.8890 -0.1966  0.0162
  140OSM    O1115296   3.052   6.741   6.820  0.0201 -0.1383 -0.3078
  140OSM    O1215297   3.297   6.765   6.826  0.1203 -0.0653 -0.0135
  140OSM    C1S15298   3.039   6.809   6.694  0.1082  0.3376  0.1151
  140OSM    H1S15299   3.132   6.809   6.634 -1.0156  0.1658 -1.6863
  140OSM    H1T15300   3.013   6.916   6.708 -1.1497  0.1209 -0.4866
  140OSM     NF15301   2.926   6.807   6.478 -0.2390  0.3003 -0.4047
  140OSM    HNF15302   2.866   6.885   6.468 -0.9225  0.2634  2.4377
  140OSM    C2S15303   2.929   6.746   6.613  0.2073 -0.2177 -0.2663
  140OSM    H2S15304   2.940   6.636   6.600 -1.8828 -0.2085 -3.1404
  140OSM    C3S15305   2.799   6.769   6.689 -0.4581  0.5936  0.1711
  140OSM    H3S15306   2.770   6.876   6.693 -2.7100  0.0343  0.3567
  140OSM     O315307   2.787   6.742   6.829  0.2254  0.0642  0.2432
  140OSM    HO315308   2.874   6.712   6.858  1.5020  0.8355 -2.4876
  140OSM    C4S15309   2.698   6.690   6.603  0.8550 -0.2563 -0.1327
  140OSM    H4S15310   2.651   6.758   6.530  0.8750 -0.8466 -0.7044
  140OSM    C5S15311   2.650   6.562   6.606 -0.6823 -1.2070  0.1925
  140OSM    H5S15312   2.685   6.490   6.681  1.2483 -0.7173 -0.1891
  140OSM    C6S15313   2.534   6.519   6.519  0.0404 -0.3968  0.7819
  140OSM    H6S15314   2.456   6.472   6.582 -1.9866 -1.0017 -2.0196
  140OSM    H6T15315   2.566   6.429   6.461 -0.5126 -0.2092  0.1759
  140OSM    C7S15316   2.468   6.617   6.415 -0.1591 -0.3343 -0.4095
  140OSM    H7S15317   2.432   6.706   6.470  0.5768  0.0990 -0.6106
  140OSM    H7T15318   2.379   6.569   6.369  0.7571 -1.4779 -1.0857
  140OSM    C8S15319   2.560   6.670   6.303 -0.0906 -0.0394 -0.0654
  140OSM    H8S15320   2.666   6.644   6.323 -0.4751 -3.0195 -1.3320
  140OSM    H8T15321   2.542   6.779   6.306  1.2084  0.1811  0.3409
  140OSM    C9S15322   2.534   6.611   6.169 -0.0842 -0.1362  0.8854
  140OSM    H9S15323   2.429   6.636   6.141  0.0737  1.0736  1.3222
  140OSM    H9T15324   2.545   6.501   6.166  1.4602  0.0228 -1.3781
  140OSM   C10S15325   2.631   6.676   6.066  0.0887 -0.5156  0.4279
  140OSM   H10S15326   2.739   6.674   6.092  0.0957  1.2468  0.6730
  140OSM   H10T15327   2.605   6.784   6.069 -1.4492 -0.7579 -1.8659
  140OSM   C11S15328   2.598   6.629   5.924 -0.0041  0.7553 -0.2716
  140OSM   H11S15329   2.488   6.639   5.914 -0.3547  0.7701  2.7221
  140OSM   H11T15330   2.619   6.520   5.919  2.4284  0.9599  2.6894
  140OSM   C12S15331   2.682   6.686   5.803 -0.1991 -0.2390 -0.6550
  140OSM   H12S15332   2.790   6.660   5.812 -0.3510 -0.6581 -0.0043
  140OSM   H12T15333   2.671   6.796   5.814  1.1965 -0.0480 -1.0330
  140OSM   C13S15334   2.642   6.639   5.667  0.3665  0.5785  0.0968
  140OSM   H13S15335   2.536   6.665   5.652 -0.0327 -0.0533  1.6355
  140OSM   H13T15336   2.638   6.528   5.658 -2.0570  0.6566 -0.2575
  140OSM   C14S15337   2.718   6.692   5.554 -1.0111 -1.0125  0.3930
  140OSM   H14S15338   2.820   6.648   5.565 -1.2491 -2.1958 -1.5743
  140OSM   H14T15339   2.726   6.802   5.566  0.2887 -1.0437  0.0230
  140OSM   C15S15340   2.667   6.635   5.414  0.7516  0.5686 -0.5303
  140OSM   H15S15341   2.557   6.653   5.418  0.6195 -0.0222 -1.3341
  140OSM   H15T15342   2.667   6.525   5.427 -0.5707  0.7655  1.8231
  140OSM   C16S15343   2.751   6.664   5.293 -0.2876  0.3275 -0.6743
  140OSM   H16S15344   2.847   6.609   5.305 -1.1135 -1.0352 -0.0663
  140OSM   H16T15345   2.784   6.770   5.296 -0.4399  0.3628  0.9268
  140OSM   C17S15346   2.676   6.637   5.164  0.6412  0.4294  0.1656
  140OSM   H17S15347   2.586   6.700   5.153  1.5513  1.8908  0.7426
  140OSM   H17T15348   2.657   6.528   5.157  0.9735  0.4867 -2.7557
  140OSM   C18S15349   2.764   6.666   5.042  0.1725 -0.3273 -0.3353
  140OSM   H18S15350   2.809   6.767   5.045  0.8657 -0.5774 -1.4949
  140OSM   H18T15351   2.707   6.675   4.946 -1.6314  1.0625  0.8009
  140OSM   H18U15352   2.833   6.582   5.018 -0.8162 -1.4249  0.5147
  140OSM    C1F15353   3.009   6.767   6.379  0.0759  0.0754  0.2042
  140OSM     OF15354   3.102   6.692   6.406 -0.5610  0.1200 -0.0748
  140OSM    C2F15355   2.991   6.824   6.240  0.3858  0.3957  0.4977
  140OSM    H2F15356   3.025   6.930   6.242  0.3691  0.4864 -1.5117
  140OSM    H2G15357   2.884   6.814   6.214  0.6517  0.6879 -0.7818
  140OSM    C3F15358   3.083   6.761   6.124  0.2321 -0.0995  0.1019
  140OSM    H3F15359   3.074   6.650   6.116 -1.6994  0.0834 -0.8216
  140OSM    H3G15360   3.192   6.779   6.138  0.5443 -0.3718 -1.7381
  140OSM    C4F15361   3.038   6.819   5.991 -0.1811 -0.6808  0.6420
  140OSM    H4F15362   3.046   6.929   6.006  2.0922 -0.8807  1.3132
  140OSM    H4G15363   2.931   6.797   5.970 -0.7694  2.1275  0.3667
  140OSM    C5F15364   3.137   6.772   5.888  0.0562  0.1210  0.4446
  140OSM    H5F15365   3.129   6.661   5.877 -1.4545  0.4047 -2.1701
  140OSM    H5G15366   3.243   6.804   5.893 -0.0577  0.4973  0.4690
  140OSM    C6F15367   3.100   6.832   5.749  0.6062  0.3032 -1.4627
  140OSM    H6F15368   3.135   6.937   5.751 -0.4196  0.6478 -0.3971
  140OSM    H6G15369   2.990   6.832   5.731  0.6115 -0.6112 -1.5353
  140OSM    C7F15370   3.152   6.753   5.636  0.2429 -0.1246 -0.2334
  140OSM    H7F15371   3.113   6.649   5.645  0.0411  0.0974  2.6354
  140OSM    H7G15372   3.263   6.747   5.640  0.1934 -0.4705  1.7668
  140OSM    C8F15373   3.097   6.802   5.501 -0.2464 -0.3467 -0.7117
  140OSM    H8F15374   2.991   6.825   5.521  0.4930  1.0032  2.2126
  140OSM    H8G15375   3.107   6.709   5.441 -0.5807 -2.2203  1.9954
  140OSM    C9F15376   3.166   6.919   5.441 -0.5920 -0.1319 -0.2614
  140OSM    H9F15377   3.173   7.007   5.507 -0.8571  0.7334 -1.3521
  140OSM   C10F15378   3.221   6.927   5.320  0.4477 -0.5589 -0.9096
  140OSM   H10F15379   3.258   7.025   5.285 -1.8927  0.7899  0.1522
  140OSM   C11F15380   3.235   6.809   5.227  1.0092  0.1645  0.0380
  140OSM   H11F15381   3.175   6.726   5.270  1.2227  0.5500  1.0900
  140OSM   H11G15382   3.338   6.768   5.213  0.4205 -1.7834  1.0083
  140OSM   C12F15383   3.180   6.839   5.091 -0.1397 -0.9043  0.4927
  140OSM   H12F15384   3.257   6.897   5.036 -1.6010 -0.5444 -1.2762
  140OSM   H12G15385   3.085   6.898   5.092  1.3416  1.7059 -0.8649
  140OSM   C13F15386   3.153   6.717   5.009 -0.5975  0.0606 -0.2059
  140OSM   H13F15387   3.072   6.664   5.063 -0.6596 -0.7294 -1.0459
  140OSM   H13G15388   3.242   6.651   5.020 -0.7757 -0.3536 -1.1417
  140OSM   C14F15389   3.119   6.746   4.857 -0.0440  0.3785  0.2796
  140OSM   H14F15390   3.113   6.645   4.810  1.5653 -0.9553  2.7527
  140OSM   H14G15391   3.213   6.791   4.820  0.4458 -0.6425  0.2474
  140OSM   C15F15392   2.998   6.841   4.836 -0.2979 -0.0850 -0.4520
  140OSM   H15F15393   2.947   6.847   4.934  2.5094  0.4104  1.0951
  140OSM   H15G15394   2.937   6.806   4.750  1.4383  0.6299 -2.0484
  140OSM   C16F15395   3.038   6.976   4.783  0.0428  0.5069  0.2469
  140OSM   H16F15396   3.125   6.966   4.714  1.3123  2.4125  1.4595
  140OSM   H16G15397   3.084   7.027   4.870 -0.5182  0.2148  0.7189
  140OSM   C17F15398   2.921   7.057   4.727 -0.1751 -0.2699 -0.0706
  140OSM   H17F15399   2.833   7.020   4.784  0.1387  1.2163  1.4672
  140OSM   H17G15400   2.890   7.022   4.626 -1.0228 -0.4132  0.2298
  140OSM   C18F15401   2.947   7.201   4.739 -0.5154 -0.4714  0.8208
  140OSM   H18F15402   3.035   7.226   4.677 -2.4447  2.0052 -1.1238
  140OSM   H18G15403   2.977   7.221   4.844  1.1334  2.4127 -0.1195
  140OSM   H18H15404   2.859   7.265   4.718 -0.3019 -0.7261 -1.0296
  141OSM      N15405   2.083   0.863   7.531  0.4729  0.6847 -0.8980
  141OSM    C1515406   2.216   0.856   7.608 -0.1342  0.0871 -0.0326
  141OSM   H15A15407   2.210   0.917   7.696  0.8149  0.0439  0.0699
  141OSM   H15B15408   2.292   0.898   7.543  0.8130  0.5446  1.3273
  141OSM   H15C15409   2.230   0.753   7.637  0.5232 -0.1198 -1.0270
  141OSM    C1415410   1.976   0.806   7.620 -0.0218  0.9015  0.1080
  141OSM   H14A15411   2.001   0.704   7.647 -2.1633  0.9003  2.5782
  141OSM   H14B15412   1.886   0.802   7.560 -0.0046 -1.2026  0.1587
  141OSM   H14C15413   1.957   0.874   7.702 -0.3645  1.1828 -0.2038
  141OSM    C1315414   2.052   1.006   7.499 -0.2729 -0.0508 -0.4732
  141OSM   H13A15415   2.041   1.063   7.591  0.9869 -1.5721  0.6760
  141OSM   H13B15416   1.960   1.015   7.442  0.9178  0.8912 -2.3346
  141OSM   H13C15417   2.133   1.050   7.444 -0.9342  0.7257 -0.8490
  141OSM    C1215418   2.106   0.785   7.396 -0.4100  0.0123 -0.1242
  141OSM   H12A15419   2.015   0.773   7.338 -2.4325 -1.0722  3.0457
  141OSM   H12B15420   2.137   0.687   7.428 -0.1207  0.0606 -0.2548
  141OSM    C1115421   2.209   0.839   7.286 -0.2954 -0.3538  0.1195
  141OSM   H11A15422   2.254   0.762   7.219  0.9049 -0.0631  0.5544
  141OSM   H11B15423   2.294   0.878   7.347 -0.9717 -2.4559  2.6153
  141OSM      P15424   2.239   1.057   7.158  0.1553  0.1429  0.0323
  141OSM    O1315425   2.155   1.136   7.066 -0.5702 -0.5867  0.3655
  141OSM    O1415426   2.285   1.131   7.274 -0.4776 -0.0112 -0.2384
  141OSM    O1115427   2.359   0.991   7.082 -0.7722 -0.7010  0.3614
  141OSM    O1215428   2.151   0.935   7.204 -0.0523 -0.8931 -0.0963
  141OSM    C1S15429   2.325   0.924   6.960  0.1667 -0.0307 -0.0207
  141OSM    H1S15430   2.225   0.876   6.967 -1.3553  2.7790 -0.9261
  141OSM    H1T15431   2.396   0.839   6.950  1.3563  1.1505 -2.7371
  141OSM     NF15432   2.306   0.900   6.722  0.1991  0.3925  0.2472
  141OSM    HNF15433   2.386   0.868   6.672  0.3838  1.8595 -0.4692
  141OSM    C2S15434   2.335   1.002   6.827 -0.4070  0.5256  0.8893
  141OSM    H2S15435   2.248   1.072   6.823 -0.0402  0.9300 -0.5731
  141OSM    C3S15436   2.465   1.081   6.803 -0.4367  0.0206  0.2310
  141OSM    H3S15437   2.553   1.014   6.807 -0.8090 -0.6190 -1.4056
  141OSM     O315438   2.491   1.171   6.909  0.0303  0.6417 -0.5099
  141OSM    HO315439   2.442   1.128   6.980  0.7833 -0.0732 -0.4037
  141OSM    C4S15440   2.450   1.161   6.674  0.0342 -0.1292 -0.3008
  141OSM    H4S15441   2.378   1.244   6.677  0.3774  0.2620 -1.7874
  141OSM    C5S15442   2.512   1.132   6.563 -0.3686 -0.5260  1.4249
  141OSM    H5S15443   2.578   1.044   6.556  1.5403  0.7621  2.3038
  141OSM    C6S15444   2.506   1.212   6.436  0.3625 -0.4222 -0.0048
  141OSM    H6S15445   2.473   1.315   6.463  0.3546  0.6771 -3.6691
  141OSM    H6T15446   2.435   1.157   6.371  1.5150 -1.7554 -0.1873
  141OSM    C7S15447   2.646   1.244   6.377  0.8419  0.2101  0.4624
  141OSM    H7S15448   2.708   1.159   6.342  0.7628  0.8918 -1.5207
  141OSM    H7T15449   2.706   1.296   6.455  1.4034 -1.2029  0.9984
  141OSM    C8S15450   2.638   1.334   6.258 -0.0979 -0.4687 -0.1097
  141OSM    H8S15451   2.733   1.345   6.202 -0.9956  0.8398 -1.4374
  141OSM    H8T15452   2.594   1.432   6.286  0.2990 -0.3508  0.1238
  141OSM    C9S15453   2.538   1.281   6.157  0.1180  0.4978  0.2959
  141OSM    H9S15454   2.529   1.335   6.060  3.5534  0.7924  0.0009
  141OSM    H9T15455   2.433   1.278   6.191 -0.1528  2.0843 -0.2982
  141OSM   C10S15456   2.581   1.139   6.105 -0.5276 -0.9159 -0.1166
  141OSM   H10S15457   2.548   1.066   6.182 -2.7679 -0.7503 -0.8584
  141OSM   H10T15458   2.692   1.132   6.100 -0.5827 -1.4995 -0.4957
  141OSM   C11S15459   2.523   1.099   5.966 -0.0832 -0.1629  0.0990
  141OSM   H11S15460   2.424   1.148   5.954  0.4625  1.1246  0.7080
  141OSM   H11T15461   2.519   0.988   5.960 -1.1052 -0.1352  0.1389
  141OSM   C12S15462   2.610   1.143   5.852 -0.2245 -0.3832 -0.1516
  141OSM   H12S15463   2.689   1.067   5.833 -0.7212 -0.4881 -2.0928
  141OSM   H12T15464   2.661   1.236   5.883 -1.0821  0.3742 -0.9536
  141OSM   C13S15465   2.540   1.177   5.718  0.5357  0.3594 -0.5747
  141OSM   H13S15466   2.475   1.267   5.726 -0.7805 -0.5069 -1.2336
  141OSM   H13T15467   2.471   1.092   5.698 -0.5398  0.4983  2.0657
  141OSM   C14S15468   2.644   1.195   5.603  0.5605  0.1672  0.2944
  141OSM   H14S15469   2.691   1.095   5.592 -0.5128 -0.2008 -1.4192
  141OSM   H14T15470   2.721   1.271   5.630  3.7757 -3.0183  0.9621
  141OSM   C15S15471   2.579   1.219   5.471  0.0655 -0.3676  0.4541
  141OSM   H15S15472   2.504   1.301   5.480  1.1670  0.6501  0.7255
  141OSM   H15T15473   2.537   1.122   5.436 -0.3298  0.0544 -0.2780
  141OSM   C16S15474   2.684   1.267   5.364  0.5534 -0.3927  0.0084
  141OSM   H16S15475   2.748   1.188   5.320  2.0154  1.3874 -1.2529
  141OSM   H16T15476   2.758   1.340   5.404 -0.4165  0.2155  0.7471
  141OSM   C17S15477   2.608   1.323   5.243 -0.0297  0.2402 -0.3216
  141OSM   H17S15478   2.676   1.364   5.165  4.1676 -2.9258  1.2988
  141OSM   H17T15479   2.561   1.416   5.280  1.4399  1.8311 -2.1756
  141OSM   C18S15480   2.507   1.225   5.186 -0.5283  0.4699  0.0405
  141OSM   H18S15481   2.409   1.216   5.238 -1.1089  0.2081 -1.0499
  141OSM   H18T15482   2.551   1.124   5.170  0.0922  0.6881  0.3502
  141OSM   H18U15483   2.477   1.266   5.087  2.5665 -0.0297 -1.2093
  141OSM    C1F15484   2.189   0.853   6.696  1.1578 -0.4273  0.5111
  141OSM     OF15485   2.091   0.868   6.772  0.6901  0.4613  0.4591
  141OSM    C2F15486   2.170   0.792   6.559  0.5696 -0.5058 -0.6002
  141OSM    H2F15487   2.256   0.734   6.521 -0.3125 -0.8047 -2.2150
  141OSM    H2G15488   2.135   0.866   6.484  0.2291  0.6974  0.6790
  141OSM    C3F15489   2.067   0.679   6.571  0.2021  0.6839  0.2520
  141OSM    H3F15490   1.964   0.719   6.587  0.9733  4.0569 -2.1630
  141OSM    H3G15491   2.084   0.622   6.665  0.2853  2.5511  1.4124
  141OSM    C4F15492   2.068   0.584   6.448 -0.4992  0.2689  0.3512
  141OSM    H4F15493   2.171   0.542   6.454 -0.7987 -0.7355 -1.1180
  141OSM    H4G15494   2.068   0.645   6.355  2.8167 -0.1847 -0.0755
  141OSM    C5F15495   1.945   0.500   6.446  0.4805 -0.0271 -0.1461
  141OSM    H5F15496   1.871   0.574   6.409  0.8835  1.0073  1.0503
  141OSM    H5G15497   1.918   0.468   6.549  3.1887 -2.1973 -0.0133
  141OSM    C6F15498   1.950   0.378   6.347  0.8524  0.7605  0.3435
  141OSM    H6F15499   1.846   0.348   6.321  1.5165  0.1606 -1.7416
  141OSM    H6G15500   2.000   0.288   6.390 -0.5084 -1.5474 -2.5250
  141OSM    C7F15501   2.012   0.422   6.212 -0.1994 -0.0174 -0.0748
  141OSM    H7F15502   2.119   0.442   6.232 -0.2639 -0.5878  0.8905
  141OSM    H7G15503   1.972   0.519   6.174  1.5265  1.0960  0.8235
  141OSM    C8F15504   2.019   0.320   6.096  0.5730 -0.7069  0.5989
  141OSM    H8F15505   2.054   0.217   6.119  1.6569 -0.9644 -1.8837
  141OSM    H8G15506   2.100   0.358   6.030 -0.0175  2.4897  1.5583
  141OSM    C9F15507   1.879   0.315   6.035  0.4036  0.2150  0.2698
  141OSM    H9F15508   1.819   0.225   6.058 -0.9721  0.8788 -0.5244
  141OSM   C10F15509   1.825   0.411   5.961  0.1758 -0.1877  0.0824
  141OSM   H10F15510   1.727   0.400   5.912  0.9582  2.3417 -2.2869
  141OSM   C11F15511   1.886   0.539   5.929  0.0793  0.1660  0.1630
  141OSM   H11F15512   1.988   0.559   5.968  0.7538 -0.0518 -1.4281
  141OSM   H11G15513   1.829   0.627   5.965 -1.6131 -1.1152  0.7994
  141OSM   C12F15514   1.902   0.559   5.768  0.6616 -0.9371 -0.4795
  141OSM   H12F15515   1.967   0.648   5.752 -0.5165  0.1221  0.4494
  141OSM   H12G15516   1.807   0.588   5.719  0.8125 -1.5969 -1.1775
  141OSM   C13F15517   1.979   0.444   5.703  0.3239  0.2619 -0.2234
  141OSM   H13F15518   1.925   0.348   5.715  4.0397 -2.2435 -1.8306
  141OSM   H13G15519   2.076   0.421   5.751 -0.0090  0.1798  0.4152
  141OSM   C14F15520   2.010   0.459   5.547 -0.3123  0.6010 -0.0796
  141OSM   H14F15521   2.075   0.549   5.546 -0.2224  0.5338 -0.8337
  141OSM   H14G15522   1.921   0.474   5.483  0.3738  0.2882 -1.1513
  141OSM   C15F15523   2.091   0.347   5.483  0.5681 -0.0636  0.6787
  141OSM   H15F15524   2.017   0.265   5.475 -0.6268  0.9462  1.1269
  141OSM   H15G15525   2.178   0.309   5.540  0.8976 -0.2697  0.0556
  141OSM   C16F15526   2.140   0.400   5.342 -0.5949  0.0152 -0.0453
  141OSM   H16F15527   2.227   0.468   5.350 -0.8129  0.1785  1.1037
  141OSM   H16G15528   2.052   0.444   5.290 -2.1480 -2.3709  0.4152
  141OSM   C17F15529   2.187   0.283   5.246  0.9099 -0.0545 -0.2898
  141OSM   H17F15530   2.098   0.216   5.241  1.1018 -0.3225 -0.1438
  141OSM   H17G15531   2.277   0.236   5.292  0.2793  1.0954  2.2655
  141OSM   C18F15532   2.223   0.330   5.108 -0.3075 -0.4114  0.1281
  141OSM   H18F15533   2.127   0.364   5.062  0.3355 -0.2917 -1.1412
  141OSM   H18G15534   2.271   0.249   5.051 -1.6097 -1.7579  0.8600
  141OSM   H18H15535   2.295   0.414   5.114 -0.2974 -0.4362  0.3866
  142OSM      N15536   1.577   1.562   7.195 -0.8880  0.5347  0.5656
  142OSM    C1515537   1.564   1.518   7.338 -0.3716 -0.3360 -0.1998
  142OSM   H15A15538   1.520   1.420   7.342 -0.1339 -0.4157  1.0023
  142OSM   H15B15539   1.516   1.591   7.402 -0.8592 -1.4189  0.7065
  142OSM   H15C15540   1.665   1.496   7.371 -0.8660 -2.8208 -0.1490
  142OSM    C1415541   1.443   1.592   7.138  0.1632  0.0917 -0.2025
  142OSM   H14A15542   1.381   1.507   7.162  0.0037  0.1187 -0.5101
  142OSM   H14B15543   1.445   1.591   7.030  0.7918  1.3807 -0.2203
  142OSM   H14C15544   1.405   1.691   7.162 -0.6919 -0.2626 -0.0625
  142OSM    C1315545   1.675   1.680   7.193  0.4352  0.0614  0.2525
  142OSM   H13A15546   1.669   1.735   7.101 -0.0821  1.8082  1.2804
  142OSM   H13B15547   1.776   1.643   7.198  0.3385 -0.3425 -0.5487
  142OSM   H13C15548   1.654   1.749   7.273  0.8153  0.2703  0.1709
  142OSM    C1215549   1.633   1.442   7.117  0.2374  0.3563 -0.4990
  142OSM   H12A15550   1.658   1.475   7.017  0.6352 -0.1304 -0.5634
  142OSM   H12B15551   1.564   1.362   7.093  0.6021 -0.0484 -0.2174
  142OSM    C1115552   1.767   1.370   7.175  0.6843  0.0735  0.3957
  142OSM   H11A15553   1.829   1.457   7.205 -2.4782  2.5340  0.3632
  142OSM   H11B15554   1.815   1.309   7.096  0.7410  0.2769  0.2744
  142OSM      P15555   1.663   1.155   7.301  0.2375 -0.2302 -0.0986
  142OSM    O1315556   1.730   1.071   7.403  0.2901  0.4801 -0.5714
  142OSM    O1415557   1.522   1.195   7.323  0.0144 -0.3872  0.0686
  142OSM    O1115558   1.687   1.100   7.157  0.1267 -0.1853  0.3580
  142OSM    O1215559   1.737   1.288   7.292  0.6557  0.4353  0.1808
  142OSM    C1S15560   1.800   1.025   7.112  0.5401  0.0280  0.7670
  142OSM    H1S15561   1.825   0.953   7.193 -1.6021  0.7565  2.1418
  142OSM    H1T15562   1.882   1.098   7.098 -1.3069  2.4406  1.8303
  142OSM     NF15563   1.873   0.857   6.958  0.7012 -0.1082 -0.0800
  142OSM    HNF15564   1.956   0.878   6.907  0.1593  1.3761 -0.4075
  142OSM    C2S15565   1.778   0.964   6.973  0.4706  0.4398  0.0266
  142OSM    H2S15566   1.680   0.914   6.986  0.6514  0.4118  1.4750
  142OSM    C3S15567   1.780   1.070   6.866  0.0431  0.6663 -0.1887
  142OSM    H3S15568   1.878   1.122   6.864  1.0699 -1.1059  1.1745
  142OSM     O315569   1.702   1.177   6.896 -0.1605  0.1310 -0.3093
  142OSM    HO315570   1.677   1.154   6.986  2.1539 -0.7601  0.1863
  142OSM    C4S15571   1.768   1.008   6.728 -0.4445  0.1306 -0.3425
  142OSM    H4S15572   1.864   0.988   6.678  1.2138 -0.7483  2.9070
  142OSM    C5S15573   1.650   0.982   6.666 -0.3123  0.0002 -0.4329
  142OSM    H5S15574   1.563   1.015   6.724  1.7986  2.4275  1.6048
  142OSM    C6S15575   1.619   0.934   6.528 -0.4486 -0.3864 -1.3072
  142OSM    H6S15576   1.555   1.007   6.474 -2.4089  0.8141  2.3439
  142OSM    H6T15577   1.563   0.838   6.533 -1.3557  0.1466 -1.0780
  142OSM    C7S15578   1.727   0.899   6.422 -0.3739 -0.3474 -0.4637
  142OSM    H7S15579   1.772   0.807   6.464 -1.1020  0.7498  3.0730
  142OSM    H7T15580   1.787   0.993   6.423 -0.9845  0.1174 -2.6071
  142OSM    C8S15581   1.657   0.877   6.293  0.2509 -0.0349 -0.2146
  142OSM    H8S15582   1.605   0.973   6.270 -0.8114  0.0071  2.0213
  142OSM    H8T15583   1.580   0.797   6.306  1.3296 -0.9378  0.8301
  142OSM    C9S15584   1.743   0.846   6.170  0.6922 -0.1918 -1.0792
  142OSM    H9S15585   1.753   0.736   6.157  0.4294 -0.2645 -0.6766
  142OSM    H9T15586   1.845   0.888   6.182  0.7024 -0.4626 -0.1784
  142OSM   C10S15587   1.675   0.895   6.040 -0.0251 -0.2802  0.3121
  142OSM   H10S15588   1.739   0.858   5.958 -0.2844 -0.1233  0.0378
  142OSM   H10T15589   1.680   1.006   6.038 -2.8829 -0.0432  1.2494
  142OSM   C11S15590   1.532   0.849   6.032 -0.0962 -0.1088 -0.3541
  142OSM   H11S15591   1.469   0.921   6.088 -1.4071 -0.0685 -1.8074
  142OSM   H11T15592   1.526   0.743   6.063 -0.4895  0.1433  0.4575
  142OSM   C12S15593   1.470   0.861   5.887 -0.4739  0.2252  0.2989
  142OSM   H12S15594   1.494   0.964   5.853  1.5849 -0.6149 -1.0053
  142OSM   H12T15595   1.361   0.840   5.899 -0.2643 -0.5765  0.8456
  142OSM   C13S15596   1.507   0.740   5.804 -0.1190  0.2628 -0.2139
  142OSM   H13S15597   1.476   0.643   5.849 -1.2534 -0.5654 -2.5658
  142OSM   H13T15598   1.618   0.730   5.803 -0.1302 -2.6643  3.7086
  142OSM   C14S15599   1.470   0.761   5.660  0.2392 -0.1106 -0.1804
  142OSM   H14S15600   1.485   0.869   5.638  0.0447  0.1981  1.1650
  142OSM   H14T15601   1.361   0.739   5.652 -0.0157  0.6717  0.9984
  142OSM   C15S15602   1.547   0.688   5.556 -0.5180 -0.0765  0.3326
  142OSM   H15S15603   1.571   0.584   5.590 -1.3426 -0.5850 -0.6019
  142OSM   H15T15604   1.647   0.731   5.539 -0.4855  0.1313  1.0081
  142OSM   C16S15605   1.474   0.677   5.417 -0.3105 -0.0453 -0.3031
  142OSM   H16S15606   1.371   0.641   5.438  0.1623  0.5727  3.9702
  142OSM   H16T15607   1.533   0.595   5.370  0.4035 -0.6305  1.5026
  142OSM   C17S15608   1.480   0.800   5.327 -0.3884 -0.4179 -0.1302
  142OSM   H17S15609   1.584   0.839   5.322 -1.1889  2.1348  1.4027
  142OSM   H17T15610   1.417   0.879   5.372  0.2669 -1.5536  3.0143
  142OSM   C18S15611   1.435   0.767   5.182  0.2632 -0.1320 -0.8839
  142OSM   H18S15612   1.325   0.751   5.180 -0.1240  1.9832  0.6447
  142OSM   H18T15613   1.493   0.681   5.140  2.3551  1.1526 -0.7737
  142OSM   H18U15614   1.449   0.859   5.121 -0.6384 -1.1060 -2.6568
  142OSM    C1F15615   1.880   0.738   7.027  0.1489  0.2445 -0.3891
  142OSM     OF15616   1.805   0.718   7.122  0.7413 -0.3912  0.1361
  142OSM    C2F15617   1.996   0.646   6.975 -0.0471  0.1748 -0.5435
  142OSM    H2F15618   2.081   0.718   6.968 -1.2342  1.9645  1.8108
  142OSM    H2G15619   1.976   0.613   6.871  2.7417 -0.2968 -1.0132
  142OSM    C3F15620   2.039   0.536   7.070  0.6804  0.1173 -0.5190
  142OSM    H3F15621   1.956   0.464   7.082  0.6130  0.2488 -0.1924
  142OSM    H3G15622   2.072   0.588   7.162 -0.9070 -0.3465  0.3355
  142OSM    C4F15623   2.166   0.465   7.022  0.0441 -0.2826  0.6835
  142OSM    H4F15624   2.205   0.395   7.099 -1.8871 -0.2820  1.7325
  142OSM    H4G15625   2.247   0.536   6.995  1.0332 -1.4254  0.5493
  142OSM    C5F15626   2.128   0.364   6.902  0.1346 -1.4078 -0.0671
  142OSM    H5F15627   2.225   0.339   6.854  1.5243 -1.1034  2.4109
  142OSM    H5G15628   2.070   0.416   6.823  0.7717  0.2217  0.5072
  142OSM    C6F15629   2.040   0.247   6.949 -0.5171  0.1218 -0.5323
  142OSM    H6F15630   1.939   0.284   6.974  0.3011  0.9430  1.8829
  142OSM    H6G15631   2.082   0.188   7.034  0.8652 -0.3151 -1.4869
  142OSM    C7F15632   2.015   0.140   6.833  0.1724 -0.1799  0.0441
  142OSM    H7F15633   1.944   0.185   6.761  0.4413  0.8272  0.3914
  142OSM    H7G15634   1.964   0.054   6.882 -2.3027  0.9943 -0.3428
  142OSM    C8F15635   2.138   0.106   6.763  0.2936 -0.2900 -0.0243
  142OSM    H8F15636   2.218   0.076   6.834  0.3065  0.0025  0.0847
  142OSM    H8G15637   2.178   0.194   6.708 -1.0292  2.0211  2.5056
  142OSM    C9F15638   2.116  -0.011   6.669  0.0601 -0.5870 -0.2814
  142OSM    H9F15639   2.037  -0.085   6.693  0.5958 -0.8714  0.6959
  142OSM   C10F15640   2.197  -0.032   6.566 -1.0087 -0.1417  0.2070
  142OSM   H10F15641   2.187  -0.125   6.507 -0.0256  1.6603 -3.0474
  142OSM   C11F15642   2.324   0.046   6.526 -0.5309  0.2599 -0.0831
  142OSM   H11F15643   2.412  -0.022   6.533 -1.0917 -0.5910 -1.0641
  142OSM   H11G15644   2.345   0.143   6.577  1.8843 -0.2670  0.0359
  142OSM   C12F15645   2.307   0.074   6.375 -0.3526  0.2652 -0.0613
  142OSM   H12F15646   2.222   0.143   6.358  0.1628  0.4308 -2.1559
  142OSM   H12G15647   2.291  -0.020   6.319  1.1125 -0.1129  0.1089
  142OSM   C13F15648   2.439   0.134   6.321  0.0669 -0.3698 -1.0362
  142OSM   H13F15649   2.522   0.077   6.367 -1.0739  0.1663  1.9060
  142OSM   H13G15650   2.443   0.242   6.344  3.7608 -0.7874  1.0221
  142OSM   C14F15651   2.451   0.119   6.169 -0.0717 -0.6178  0.2569
  142OSM   H14F15652   2.389   0.197   6.119 -0.2079 -0.3377  0.8490
  142OSM   H14G15653   2.396   0.027   6.140 -0.9334  0.0133 -0.1712
  142OSM   C15F15654   2.599   0.150   6.134  0.1438  0.5313 -0.0169
  142OSM   H15F15655   2.650   0.064   6.181 -1.0264 -0.0851  0.1771
  142OSM   H15G15656   2.624   0.249   6.177 -1.7105  1.1737 -0.2983
  142OSM   C16F15657   2.629   0.140   5.987 -0.6992  0.1954 -0.2349
  142OSM   H16F15658   2.566   0.210   5.928 -0.7469  1.5699  1.3626
  142OSM   H16G15659   2.607   0.038   5.949  1.2504 -0.5490  0.5054
  142OSM   C17F15660   2.772   0.183   5.954 -0.4327  0.1969  0.5783
  142OSM   H17F15661   2.842   0.134   6.025 -0.0482 -0.6193 -0.3556
  142OSM   H17G15662   2.788   0.292   5.970 -1.9589  0.6313 -0.6388
  142OSM   C18F15663   2.813   0.147   5.813  0.3143 -0.8265 -0.0349
  142OSM   H18F15664   2.779   0.052   5.767 -0.5296 -0.0258 -1.1468
  142OSM   H18G15665   2.923   0.136   5.817  0.4976  1.0500  1.0279
  142OSM   H18H15666   2.803   0.226   5.735 -0.2500 -3.0165 -2.3202
  143OSM      N15667   1.745   4.669   6.783  0.5519 -0.2277 -0.8693
  143OSM    C1515668   1.640   4.649   6.675  0.0532 -0.1538  0.7360
  143OSM   H15A15669   1.546   4.695   6.702 -0.0465 -0.7593  1.4601
  143OSM   H15B15670   1.623   4.546   6.647 -1.1330  0.3419 -0.4754
  143OSM   H15C15671   1.671   4.698   6.583 -0.2291 -0.7274  0.3272
  143OSM    C1415672   1.745   4.815   6.796 -0.5505 -0.4472  0.1545
  143OSM   H14A15673   1.786   4.851   6.703  0.2184 -1.2619  0.1678
  143OSM   H14B15674   1.821   4.841   6.868  0.9016  0.6473 -1.6777
  143OSM   H14C15675   1.648   4.860   6.814 -0.3501  1.5340 -2.9615
  143OSM    C1315676   1.700   4.602   6.903  0.1014 -0.2629  0.0004
  143OSM   H13A15677   1.779   4.611   6.976  0.2764 -1.5617 -0.0092
  143OSM   H13B15678   1.691   4.496   6.885 -2.2279  0.0166 -0.7917
  143OSM   H13C15679   1.606   4.641   6.940  0.3382  0.5004 -0.1753
  143OSM    C1215680   1.877   4.605   6.743  0.1131 -0.6506 -0.2788
  143OSM   H12A15681   1.948   4.627   6.822 -1.7686 -1.0507  1.6280
  143OSM   H12B15682   1.910   4.655   6.654 -1.9279  0.6180 -0.3956
  143OSM    C1115683   1.874   4.447   6.719  0.5383  0.5597  0.2537
  143OSM   H11A15684   1.967   4.425   6.662  0.9068  1.9634  0.2730
  143OSM   H11B15685   1.792   4.425   6.647  1.6066  1.4188 -1.2877
  143OSM      P15686   1.935   4.233   6.869 -0.3627 -0.0798  0.0428
  143OSM    O1315687   2.061   4.246   6.944  0.8730  0.3890  0.5231
  143OSM    O1415688   1.830   4.138   6.921 -0.4915  0.6780  0.4619
  143OSM    O1115689   1.972   4.194   6.718  0.0527  0.4508  0.1227
  143OSM    O1215690   1.865   4.381   6.846 -0.1408  0.1392  0.6071
  143OSM    C1S15691   2.022   4.063   6.690  0.0630  0.1547 -0.3738
  143OSM    H1S15692   1.965   3.989   6.751 -1.1431  1.6301  0.3372
  143OSM    H1T15693   2.131   4.058   6.712  0.3171  1.1806 -1.3296
  143OSM     NF15694   2.066   3.892   6.516  0.1915  0.7624 -0.4233
  143OSM    HNF15695   2.139   3.890   6.448  1.3442  0.9840  0.7740
  143OSM    C2S15696   2.015   4.025   6.535  0.7078  0.0230  0.1905
  143OSM    H2S15697   1.905   4.021   6.521  0.5264 -0.2903  1.5714
  143OSM    C3S15698   2.079   4.136   6.451  0.7063 -0.1356  0.8295
  143OSM    H3S15699   2.181   4.152   6.493  1.6198 -3.2954  0.0224
  143OSM     O315700   2.023   4.264   6.474  0.7537 -1.2556  0.8500
  143OSM    HO315701   1.976   4.256   6.557 -2.4427 -0.2911 -0.7304
  143OSM    C4S15702   2.103   4.100   6.310 -0.5131  0.5370  0.2400
  143OSM    H4S15703   2.200   4.048   6.299 -0.7785  0.1124 -0.1228
  143OSM    C5S15704   2.027   4.125   6.199 -0.1722  0.5774 -0.4851
  143OSM    H5S15705   1.931   4.175   6.220  0.9692  1.6490  2.9086
  143OSM    C6S15706   2.059   4.089   6.059 -0.2459 -0.7299  0.7711
  143OSM    H6S15707   2.145   4.148   6.019  0.3172 -1.2180  1.2400
  143OSM    H6T15708   1.979   4.115   5.987  1.5749  1.1879 -0.7338
  143OSM    C7S15709   2.104   3.945   6.040  0.9672  0.0432  0.6116
  143OSM    H7S15710   2.033   3.873   6.088 -1.1877  0.2671 -2.0198
  143OSM    H7T15711   2.196   3.915   6.094 -0.0791 -0.7628  2.0458
  143OSM    C8S15712   2.118   3.906   5.896  0.2100  0.1623 -0.2767
  143OSM    H8S15713   2.022   3.919   5.842 -0.6215 -2.2994  0.4581
  143OSM    H8T15714   2.132   3.796   5.909  1.1160  0.3463  0.4364
  143OSM    C9S15715   2.242   3.963   5.826  0.3172 -0.1293  0.3313
  143OSM    H9S15716   2.333   3.923   5.874  0.1460 -0.8208  0.0850
  143OSM    H9T15717   2.264   4.071   5.839  1.0509 -0.3184  0.7012
  143OSM   C10S15718   2.257   3.931   5.683 -0.6159  0.5011  0.7021
  143OSM   H10S15719   2.177   3.988   5.631 -1.8750 -2.3587 -0.7155
  143OSM   H10T15720   2.232   3.825   5.662  0.4825  0.7100 -2.0685
  143OSM   C11S15721   2.389   3.966   5.610  0.0585 -0.1790 -0.5957
  143OSM   H11S15722   2.472   3.901   5.645 -2.1867 -2.1298  1.5925
  143OSM   H11T15723   2.422   4.068   5.641 -2.0431  0.8077 -1.4037
  143OSM   C12S15724   2.374   3.982   5.462  0.0994  0.4266  0.1601
  143OSM   H12S15725   2.472   3.992   5.411 -0.9599  1.6096 -1.7676
  143OSM   H12T15726   2.312   4.072   5.441 -0.0616  0.7028  1.7145
  143OSM   C13S15727   2.306   3.862   5.395 -0.4956 -0.3187  0.4758
  143OSM   H13S15728   2.201   3.841   5.426  0.1233 -0.3617  2.7395
  143OSM   H13T15729   2.360   3.778   5.444  0.3029  0.4060  0.8549
  143OSM   C14S15730   2.331   3.834   5.247 -0.1390 -0.2179 -0.1713
  143OSM   H14S15731   2.300   3.728   5.234 -0.8979 -0.0096 -0.1075
  143OSM   H14T15732   2.441   3.830   5.228  0.1034 -2.1938  1.2672
  143OSM   C15S15733   2.282   3.928   5.135 -0.4082  0.4704 -0.2509
  143OSM   H15S15734   2.302   4.036   5.155 -0.5505  0.5002 -0.2696
  143OSM   H15T15735   2.172   3.930   5.121 -0.2604 -1.8229 -2.4926
  143OSM   C16S15736   2.361   3.904   5.011  0.0605 -0.4956 -0.4147
  143OSM   H16S15737   2.470   3.927   5.018  0.3693 -2.2418  1.4439
  143OSM   H16T15738   2.332   3.975   4.931  1.4311 -0.1096 -0.6016
  143OSM   C17S15739   2.358   3.764   4.957 -0.0604 -0.4889  0.4390
  143OSM   H17S15740   2.252   3.733   4.958 -0.1244 -0.3420  2.6496
  143OSM   H17T15741   2.401   3.692   5.030  2.4088 -0.2702 -0.6789
  143OSM   C18S15742   2.427   3.735   4.822 -0.3490 -0.5883  0.1944
  143OSM   H18S15743   2.395   3.797   4.736 -1.1780 -0.5828  0.5028
  143OSM   H18T15744   2.394   3.636   4.785  0.4424  0.1085 -2.6341
  143OSM   H18U15745   2.538   3.728   4.829 -0.0245  0.6272 -2.3159
  143OSM    C1F15746   2.014   3.779   6.567 -0.5747 -0.2630 -1.4470
  143OSM     OF15747   1.910   3.778   6.636  0.4153 -0.3667  0.3923
  143OSM    C2F15748   2.088   3.648   6.531 -0.6500 -0.3516 -0.2216
  143OSM    H2F15749   2.075   3.580   6.617 -0.7306 -0.9989 -0.7341
  143OSM    H2G15750   2.196   3.668   6.514 -0.4155 -0.4224  1.0979
  143OSM    C3F15751   2.029   3.590   6.411  0.1696 -0.5915 -0.2887
  143OSM    H3F15752   2.046   3.659   6.325 -1.5303  0.2763  0.0223
  143OSM    H3G15753   1.918   3.588   6.421  0.3515 -0.4183  2.3014
  143OSM    C4F15754   2.084   3.456   6.373 -0.0929  0.4507 -0.0420
  143OSM    H4F15755   2.067   3.403   6.469 -0.1897  0.7326  0.0968
  143OSM    H4G15756   2.193   3.453   6.351 -0.4578 -1.0686 -1.9724
  143OSM    C5F15757   2.012   3.403   6.253  0.6463 -0.3919 -0.1624
  143OSM    H5F15758   2.033   3.468   6.165 -0.5092  0.3871  0.1232
  143OSM    H5G15759   1.904   3.418   6.274  0.6804 -1.2588  0.6842
  143OSM    C6F15760   2.036   3.259   6.221 -0.6133 -0.1994  0.3055
  143OSM    H6F15761   2.020   3.188   6.304  0.0264  1.1293  1.6256
  143OSM    H6G15762   2.146   3.261   6.202 -0.3085 -0.5319  1.9246
  143OSM    C7F15763   1.945   3.211   6.108  0.2863 -0.3588  0.2972
  143OSM    H7F15764   1.942   3.289   6.028 -0.1695 -1.6942 -1.0344
  143OSM    H7G15765   1.842   3.186   6.140  1.2659 -1.1144  3.0998
  143OSM    C8F15766   1.996   3.086   6.036 -0.6215 -0.0519  0.0524
  143OSM    H8F15767   1.921   3.061   5.958  0.9241 -2.8273 -0.7127
  143OSM    H8G15768   2.005   3.007   6.114  1.1977  0.6371  0.6078
  143OSM    C9F15769   2.129   3.099   5.977 -1.0406 -0.0692 -0.0613
  143OSM    H9F15770   2.211   3.082   6.049 -1.0492  0.5541  0.0959
  143OSM   C10F15771   2.158   3.100   5.844 -0.7226  0.3237 -0.3930
  143OSM   H10F15772   2.264   3.099   5.814 -1.0648 -2.1674 -1.7376
  143OSM   C11F15773   2.056   3.119   5.733 -0.0498 -0.2283  0.2573
  143OSM   H11F15774   2.075   3.211   5.674  0.3680 -0.4768  0.0012
  143OSM   H11G15775   1.960   3.150   5.780  0.8992 -0.3885  2.4165
  143OSM   C12F15776   2.021   3.003   5.630  0.6162  0.3510  0.4220
  143OSM   H12F15777   1.934   3.040   5.572  0.3987  2.4625  1.9519
  143OSM   H12G15778   1.989   2.914   5.689  1.6887  0.0080  0.5085
  143OSM   C13F15779   2.145   2.969   5.543 -0.1455 -0.1563 -0.2363
  143OSM   H13F15780   2.229   2.938   5.608 -0.8787 -0.4531  0.6035
  143OSM   H13G15781   2.186   3.065   5.504  0.4208 -0.4892 -0.4716
  143OSM   C14F15782   2.119   2.874   5.429  0.7346  0.0836 -0.4955
  143OSM   H14F15783   2.067   2.788   5.476 -0.0008  1.6010  1.6363
  143OSM   H14G15784   2.209   2.838   5.374  0.7756  2.3672 -2.0677
  143OSM   C15F15785   2.014   2.926   5.336 -0.3426  0.6997 -0.3834
  143OSM   H15F15786   2.037   3.031   5.310 -1.1519  1.0961  0.4480
  143OSM   H15G15787   1.913   2.922   5.383  0.1878 -2.0807  0.7245
  143OSM   C16F15788   1.996   2.834   5.202 -0.3089  0.2106 -0.3749
  143OSM   H16F15789   1.986   2.726   5.225 -2.8434  0.3166 -0.6916
  143OSM   H16G15790   2.084   2.847   5.136  1.4808 -0.0328  1.8631
  143OSM   C17F15791   1.868   2.876   5.131 -0.4504  0.2938  0.1042
  143OSM   H17F15792   1.866   2.987   5.124  1.8223  0.3677 -0.2072
  143OSM   H17G15793   1.784   2.854   5.199  0.4105  0.5227  1.2696
  143OSM   C18F15794   1.858   2.818   4.985  0.5005  0.8586 -0.1738
  143OSM   H18F15795   1.851   2.709   5.004  0.5032  0.7705 -0.6848
  143OSM   H18G15796   1.938   2.845   4.914 -2.1685  0.3153 -3.6785
  143OSM   H18H15797   1.765   2.851   4.934 -0.4587 -0.3692  0.7150
  144OSM      N15798   2.773   2.281   7.626  0.0373 -0.9651  0.3664
  144OSM    C1515799   2.630   2.315   7.592 -0.2061 -0.1027  0.4948
  144OSM   H15A15800   2.613   2.289   7.489 -0.5782  1.6276  0.0835
  144OSM   H15B15801   2.610   2.421   7.598  0.4197 -0.0632  3.2324
  144OSM   H15C15802   2.552   2.275   7.655 -0.0438  0.9839  1.4357
  144OSM    C1415803   2.807   2.327   7.761  0.6046  0.1468 -0.0281
  144OSM   H14A15804   2.911   2.308   7.781 -0.0257 -1.5369  1.9426
  144OSM   H14B15805   2.757   2.272   7.838  1.2034  1.6059  1.4734
  144OSM   H14C15806   2.783   2.432   7.774 -1.6063 -0.5650  2.4230
  144OSM    C1315807   2.780   2.135   7.645  0.4715  0.6019 -0.4676
  144OSM   H13A15808   2.754   2.071   7.562  0.3522  0.8808 -0.6476
  144OSM   H13B15809   2.720   2.109   7.730  2.0053 -0.5043  0.3365
  144OSM   H13C15810   2.883   2.105   7.664 -0.0176 -1.8003 -1.2432
  144OSM    C1215811   2.872   2.332   7.518 -0.0066 -0.0472  0.1945
  144OSM   H12A15812   2.973   2.310   7.549  0.4550  0.2953 -1.0342
  144OSM   H12B15813   2.870   2.440   7.513 -0.3322 -0.1218 -2.7574
  144OSM    C1115814   2.842   2.288   7.375  0.6301  0.6140  0.6121
  144OSM   H11A15815   2.822   2.179   7.367  1.9749  0.4951 -1.9472
  144OSM   H11B15816   2.930   2.313   7.312  1.5993  0.7159  1.9749
  144OSM      P15817   2.640   2.355   7.213  0.0717 -0.1954 -0.4670
  144OSM    O1315818   2.566   2.227   7.247  0.5106 -0.4109 -0.1103
  144OSM    O1415819   2.558   2.476   7.207 -0.4730  0.2492  0.1500
  144OSM    O1115820   2.721   2.334   7.087  0.6092  0.5008  0.2548
  144OSM    O1215821   2.742   2.374   7.325 -0.4435 -0.3366 -0.5866
  144OSM    C1S15822   2.808   2.440   7.032  0.1384  0.5907  0.2391
  144OSM    H1S15823   2.910   2.409   7.064 -0.5129  0.4998  2.3444
  144OSM    H1T15824   2.794   2.538   7.082  3.8471  2.0861 -1.2916
  144OSM     NF15825   2.900   2.523   6.825 -0.1747  1.1643  0.1428
  144OSM    HNF15826   2.893   2.609   6.774 -0.4554  1.0058 -0.0871
  144OSM    C2S15827   2.783   2.460   6.881 -0.7634 -0.0620 -0.1675
  144OSM    H2S15828   2.775   2.361   6.829 -2.4809 -0.0591  0.0140
  144OSM    C3S15829   2.645   2.523   6.848  0.2999  0.0248  0.1012
  144OSM    H3S15830   2.650   2.620   6.903 -0.9183 -0.0239  0.3308
  144OSM     O315831   2.533   2.451   6.890  0.3426 -0.1208 -0.4198
  144OSM    HO315832   2.576   2.388   6.947  1.1228  0.6269 -0.1540
  144OSM    C4S15833   2.636   2.548   6.698 -0.3055 -0.2188  0.5319
  144OSM    H4S15834   2.660   2.652   6.673 -1.7799 -0.3741 -1.8184
  144OSM    C5S15835   2.583   2.466   6.605 -0.7000 -0.2546  0.1149
  144OSM    H5S15836   2.552   2.367   6.641  0.0106 -0.8298 -0.8194
  144OSM    C6S15837   2.583   2.488   6.454 -0.2981  0.1116 -0.6109
  144OSM    H6S15838   2.485   2.461   6.410  0.2391 -0.1407 -1.7235
  144OSM    H6T15839   2.667   2.429   6.410 -1.5569 -2.1930 -0.0556
  144OSM    C7S15840   2.602   2.644   6.412 -0.8028 -0.1982  0.7232
  144OSM    H7S15841   2.674   2.704   6.470 -1.9891  0.8585  1.1546
  144OSM    H7T15842   2.503   2.691   6.429 -2.0418 -2.2698 -0.1912
  144OSM    C8S15843   2.648   2.640   6.266  0.3659 -0.1548 -0.4514
  144OSM    H8S15844   2.742   2.581   6.269 -0.1605 -1.0720  3.3864
  144OSM    H8T15845   2.675   2.747   6.255  0.7964  0.0477  1.9540
  144OSM    C9S15846   2.545   2.594   6.165 -0.2982  0.3841  0.1094
  144OSM    H9S15847   2.456   2.660   6.154 -0.8266  0.3278  3.1670
  144OSM    H9T15848   2.485   2.511   6.208 -1.0144  1.2177  0.7696
  144OSM   C10S15849   2.603   2.539   6.035  0.5813 -0.8101 -0.2092
  144OSM   H10S15850   2.523   2.504   5.966  0.1335  1.5007 -0.9522
  144OSM   H10T15851   2.672   2.453   6.054 -0.2448 -0.9902  2.2377
  144OSM   C11S15852   2.681   2.653   5.962 -0.1513 -0.0018 -0.4180
  144OSM   H11S15853   2.768   2.686   6.022 -0.9023  2.6586 -0.6232
  144OSM   H11T15854   2.607   2.734   5.940 -0.9235 -1.0690 -1.9852
  144OSM   C12S15855   2.732   2.607   5.822  0.0600  0.8871 -0.0313
  144OSM   H12S15856   2.641   2.603   5.758 -1.3560 -0.1332  1.9399
  144OSM   H12T15857   2.773   2.504   5.832  1.0500  1.1778 -0.9963
  144OSM   C13S15858   2.851   2.683   5.756 -0.4145 -0.0586 -0.4524
  144OSM   H13S15859   2.862   2.628   5.660 -0.8722  1.4063 -1.3639
  144OSM   H13T15860   2.944   2.656   5.811 -1.2997 -2.0216  0.1986
  144OSM   C14S15861   2.834   2.836   5.738 -0.1458  0.3782 -0.0112
  144OSM   H14S15862   2.922   2.869   5.678  0.1246  0.8136  0.6193
  144OSM   H14T15863   2.835   2.873   5.842  0.0102  0.1672  0.0631
  144OSM   C15S15864   2.699   2.878   5.674  0.3688  0.2352  0.9726
  144OSM   H15S15865   2.713   2.988   5.672  0.5458  0.2143 -0.7424
  144OSM   H15T15866   2.616   2.845   5.739  0.7185 -2.0815  0.3246
  144OSM   C16S15867   2.684   2.828   5.528 -0.1997  0.0217  0.2749
  144OSM   H16S15868   2.717   2.722   5.527 -0.1111  0.0505  0.0905
  144OSM   H16T15869   2.761   2.884   5.472 -0.7364  1.6304  1.0833
  144OSM   C17S15870   2.546   2.852   5.464 -0.5544  0.3909  0.2388
  144OSM   H17S15871   2.463   2.813   5.528 -0.6298 -1.7410 -1.0454
  144OSM   H17T15872   2.550   2.793   5.370  1.5643  0.3569  0.3163
  144OSM   C18S15873   2.522   2.991   5.419 -0.4975  0.0358 -0.4915
  144OSM   H18S15874   2.608   3.030   5.361 -0.2010 -0.6125 -0.5002
  144OSM   H18T15875   2.490   3.057   5.502  0.3873 -0.5605  0.3333
  144OSM   H18U15876   2.435   2.986   5.349 -2.1601 -0.8027  1.5328
  144OSM    C1F15877   3.023   2.469   6.831 -0.1884  0.5819 -0.1536
  144OSM     OF15878   3.041   2.352   6.876  0.1009 -0.3776 -0.0327
  144OSM    C2F15879   3.141   2.539   6.778 -0.2948  0.5017  0.5819
  144OSM    H2F15880   3.233   2.479   6.787 -1.7027 -1.8612  0.2046
  144OSM    H2G15881   3.176   2.625   6.838  3.4688 -0.4274 -0.0595
  144OSM    C3F15882   3.123   2.567   6.627  0.4125 -0.6785  0.1133
  144OSM    H3F15883   3.030   2.625   6.613  0.7490 -0.1972 -0.1514
  144OSM    H3G15884   3.130   2.472   6.568 -0.9661 -0.6282 -0.1433
  144OSM    C4F15885   3.247   2.650   6.581 -0.1490 -0.3005 -0.8216
  144OSM    H4F15886   3.343   2.604   6.612  0.4009  1.4742  0.2348
  144OSM    H4G15887   3.251   2.747   6.634 -0.0377  0.0224 -1.4071
  144OSM    C5F15888   3.255   2.652   6.424  0.0331  0.6083 -1.0119
  144OSM    H5F15889   3.167   2.703   6.379 -0.2445  1.5356  0.5010
  144OSM    H5G15890   3.260   2.547   6.389 -1.9758  0.3765 -0.7568
  144OSM    C6F15891   3.382   2.707   6.371  0.1949 -0.0322  0.0610
  144OSM    H6F15892   3.464   2.636   6.396  2.6651  2.0652 -1.5774
  144OSM    H6G15893   3.399   2.810   6.408 -1.4727  0.1883  0.2775
  144OSM    C7F15894   3.359   2.713   6.213  0.6771  0.2585 -0.3550
  144OSM    H7F15895   3.279   2.789   6.199 -1.2037 -1.4265  0.6440
  144OSM    H7G15896   3.306   2.620   6.184 -0.7966  1.2039 -0.8330
  144OSM    C8F15897   3.486   2.728   6.124  0.0036  0.1702 -0.7281
  144OSM    H8F15898   3.472   2.710   6.016  0.3763  0.6403 -0.8578
  144OSM    H8G15899   3.563   2.656   6.157 -1.5448 -0.7271  1.0842
  144OSM    C9F15900   3.543   2.866   6.147 -0.1799  0.7903  0.1074
  144OSM    H9F15901   3.491   2.928   6.221 -0.8434  0.0751  0.2512
  144OSM   C10F15902   3.663   2.897   6.100 -0.9605 -0.2289  0.7401
  144OSM   H10F15903   3.710   2.994   6.122  1.7639 -1.5366  1.1501
  144OSM   C11F15904   3.740   2.818   5.992  0.2083  0.1522 -0.3497
  144OSM   H11F15905   3.687   2.730   5.951  0.9575  0.6809 -2.5561
  144OSM   H11G15906   3.838   2.778   6.026  0.0386 -0.0799 -0.1250
  144OSM   C12F15907   3.764   2.899   5.860  0.1982 -0.2845 -0.0092
  144OSM   H12F15908   3.833   2.984   5.879  0.1579 -0.0583 -0.8411
  144OSM   H12G15909   3.665   2.938   5.829  0.5157 -0.5021 -1.3496
  144OSM   C13F15910   3.829   2.807   5.758 -0.7062  0.3216 -0.2380
  144OSM   H13F15911   3.778   2.709   5.747 -0.7080  0.5169 -2.4940
  144OSM   H13G15912   3.933   2.783   5.790 -0.8965  0.9532  0.9138
  144OSM   C14F15913   3.845   2.871   5.619 -0.6838  0.1887 -0.4573
  144OSM   H14F15914   3.917   2.819   5.552 -0.8898 -1.4508  0.5559
  144OSM   H14G15915   3.885   2.974   5.634 -1.5528  0.2887  1.4512
  144OSM   C15F15916   3.708   2.874   5.540 -0.2890 -0.6640 -0.0261
  144OSM   H15F15917   3.631   2.920   5.605  0.6082 -0.9339  1.2460
  144OSM   H15G15918   3.674   2.768   5.535 -0.3867 -0.5934 -1.2234
  144OSM   C16F15919   3.721   2.933   5.400  0.0579 -0.5157  0.5847
  144OSM   H16F15920   3.790   2.872   5.339 -0.1677 -1.3644  1.1611
  144OSM   H16G15921   3.772   3.031   5.414 -0.0916 -0.2532 -0.6423
  144OSM   C17F15922   3.591   2.954   5.332  0.7662  0.1211 -0.8820
  144OSM   H17F15923   3.520   3.014   5.392  0.0612 -1.7258  0.2152
  144OSM   H17G15924   3.544   2.854   5.323  1.2032 -0.3135  1.1668
  144OSM   C18F15925   3.593   3.037   5.204  0.1712 -0.9268  0.6200
  144OSM   H18F15926   3.645   3.001   5.113 -1.7878  0.3481 -1.0868
  144OSM   H18G15927   3.629   3.140   5.225  1.1780 -1.0400 -0.4335
  144OSM   H18H15928   3.487   3.044   5.171 -0.0793  0.7592  1.6391
  145OSM      N15929   2.738   5.954   7.209 -0.6711  0.2207 -0.0349
  145OSM    C1515930   2.608   6.030   7.230 -0.9413 -0.5798  1.0274
  145OSM   H15A15931   2.552   6.007   7.141 -0.3552  0.5644  0.3294
  145OSM   H15B15932   2.618   6.138   7.231  0.0042 -0.6603  1.1284
  145OSM   H15C15933   2.567   6.001   7.325 -1.5831 -1.2683  0.5544
  145OSM    C1415934   2.835   5.959   7.328 -0.0953 -0.2379 -0.3471
  145OSM   H14A15935   2.908   5.881   7.318  0.3573  0.2101 -0.6091
  145OSM   H14B15936   2.793   5.929   7.423  2.0044 -0.3602  0.6066
  145OSM   H14C15937   2.891   6.050   7.343  1.0275 -0.8695 -0.6103
  145OSM    C1315938   2.704   5.811   7.188  0.3256 -0.2570  0.5580
  145OSM   H13A15939   2.636   5.822   7.105  2.2435  3.1814 -0.7916
  145OSM   H13B15940   2.653   5.768   7.273 -2.6249 -0.3837 -1.1541
  145OSM   H13C15941   2.789   5.752   7.157  0.9773  0.4914  0.8684
  145OSM    C1215942   2.817   6.005   7.086  0.0980  0.5253  0.5539
  145OSM   H12A15943   2.913   5.956   7.094 -0.8671 -2.3098 -2.8317
  145OSM   H12B15944   2.829   6.111   7.101 -0.9751  0.8402 -0.6535
  145OSM    C1115945   2.757   5.979   6.942  0.2928  0.0863 -0.9247
  145OSM   H11A15946   2.767   5.868   6.932 -0.0606  0.1924 -3.0138
  145OSM   H11B15947   2.815   6.020   6.856  0.1111 -0.9399 -1.5680
  145OSM      P15948   2.584   6.162   6.897  0.1850  0.0870 -0.0138
  145OSM    O1315949   2.432   6.166   6.913 -0.1792  0.2364 -0.4001
  145OSM    O1415950   2.668   6.253   6.980 -1.0174 -0.1586  0.0549
  145OSM    O1115951   2.633   6.172   6.750  0.4753  0.2206  0.1630
  145OSM    O1215952   2.619   6.011   6.927 -0.4998 -0.1025  0.0495
  145OSM    C1S15953   2.605   6.062   6.654  0.0951 -0.4642 -0.6407
  145OSM    H1S15954   2.503   6.016   6.656  0.9091 -2.3657 -0.0689
  145OSM    H1T15955   2.687   5.987   6.665 -0.7122 -1.4299 -0.9999
  145OSM     NF15956   2.567   6.021   6.403  0.4708 -0.3191 -0.1070
  145OSM    HNF15957   2.631   5.976   6.341  1.3549  1.5467 -0.5882
  145OSM    C2S15958   2.616   6.111   6.508  0.3954  0.3664  0.1827
  145OSM    H2S15959   2.558   6.205   6.499 -0.6013 -0.1887  0.6404
  145OSM    C3S15960   2.762   6.153   6.479 -0.1299 -1.0443  0.1222
  145OSM    H3S15961   2.817   6.056   6.480  0.5853 -0.6485  0.2595
  145OSM     O315962   2.823   6.229   6.587 -0.0876 -0.0732 -0.0306
  145OSM    HO315963   2.756   6.229   6.656 -2.4730  1.2643 -2.1954
  145OSM    C4S15964   2.802   6.223   6.349  0.9503  0.0805  0.6048
  145OSM    H4S15965   2.799   6.157   6.261  0.6609  0.4911  0.3039
  145OSM    C5S15966   2.834   6.347   6.329  0.2106 -0.8103  0.5253
  145OSM    H5S15967   2.839   6.425   6.407  3.5670 -1.5276  1.2043
  145OSM    C6S15968   2.870   6.400   6.191 -0.1943 -0.2336  0.1245
  145OSM    H6S15969   2.979   6.423   6.198  0.1070 -1.6071  0.2768
  145OSM    H6T15970   2.847   6.508   6.192  0.4615 -0.0972  1.0611
  145OSM    C7S15971   2.832   6.324   6.061 -0.0540  0.6995  0.1948
  145OSM    H7S15972   2.722   6.320   6.044 -0.0792 -0.4248  0.5368
  145OSM    H7T15973   2.870   6.220   6.066 -0.1657  0.6928  1.3924
  145OSM    C8S15974   2.908   6.391   5.943 -0.1787 -0.0848 -0.5143
  145OSM    H8S15975   3.018   6.389   5.962 -0.0643 -0.6048 -1.1951
  145OSM    H8T15976   2.878   6.498   5.940  0.3414  0.1073  0.5662
  145OSM    C9S15977   2.869   6.332   5.811  0.4382  0.6849  0.2753
  145OSM    H9S15978   2.758   6.336   5.800  0.2341 -2.4324  0.4459
  145OSM    H9T15979   2.894   6.225   5.821 -0.3252  0.2966 -1.6530
  145OSM   C10S15980   2.937   6.382   5.687 -0.2348  0.1052  0.5183
  145OSM   H10S15981   3.045   6.389   5.711  0.5337 -2.0711 -1.7909
  145OSM   H10T15982   2.897   6.484   5.672  0.1138  0.3247  1.0489
  145OSM   C11S15983   2.921   6.291   5.555  0.3584  0.0606  0.0025
  145OSM   H11S15984   2.813   6.265   5.555  0.0684  1.2134  0.5248
  145OSM   H11T15985   2.978   6.197   5.575 -1.0086 -0.4970  1.5203
  145OSM   C12S15986   2.965   6.362   5.424  0.1646  0.3811 -0.2294
  145OSM   H12S15987   3.076   6.368   5.417  0.4066 -0.8193  1.7767
  145OSM   H12T15988   2.926   6.466   5.421 -1.1908 -0.0990  0.1992
  145OSM   C13S15989   2.913   6.293   5.290 -0.1543  0.1305  0.4431
  145OSM   H13S15990   2.802   6.293   5.292 -0.2102  0.1032 -1.0880
  145OSM   H13T15991   2.936   6.184   5.293 -0.9917 -0.0294  1.3916
  145OSM   C14S15992   2.956   6.354   5.157 -0.0034 -0.2562 -0.2843
  145OSM   H14S15993   3.066   6.350   5.140  0.1359 -2.1090  0.7858
  145OSM   H14T15994   2.930   6.462   5.148 -0.4492 -0.2431  0.9861
  145OSM   C15S15995   2.899   6.276   5.037 -0.6985  0.5687 -0.0081
  145OSM   H15S15996   2.819   6.339   4.993 -0.8628 -0.0546 -0.6174
  145OSM   H15T15997   2.858   6.184   5.085 -1.7364  1.0128 -0.0016
  145OSM   C16S15998   2.997   6.235   4.921  0.1325  0.2572  0.1490
  145OSM   H16S15999   2.948   6.149   4.871  2.6996 -0.2967 -1.5987
  145OSM   H16T16000   3.088   6.196   4.971 -0.0723  0.4695  0.6861
  145OSM   C17S16001   3.032   6.347   4.822 -0.3485 -0.0582  0.1135
  145OSM   H17S16002   3.058   6.433   4.886 -0.0192 -1.8480  2.5571
  145OSM   H17T16003   2.945   6.359   4.755 -1.1744 -0.3503  1.1057
  145OSM   C18S16004   3.149   6.303   4.726  0.2333  0.5833 -0.0561
  145OSM   H18S16005   3.230   6.253   4.785 -0.9619 -1.1022  0.2301
  145OSM   H18T16006   3.194   6.384   4.666  3.0532 -0.7640  0.0606
  145OSM   H18U16007   3.110   6.224   4.657  3.3744 -1.7313  0.5614
  145OSM    C1F16008   2.444   5.975   6.405  0.0450  0.3597 -1.1426
  145OSM     OF16009   2.355   6.040   6.464 -0.3480  0.7375 -0.7542
  145OSM    C2F16010   2.419   5.839   6.346  0.0465 -0.2405  0.6455
  145OSM    H2F16011   2.371   5.780   6.427  0.0370  0.2331  0.9854
  145OSM    H2G16012   2.516   5.794   6.316  0.1836  0.2053  0.4221
  145OSM    C3F16013   2.325   5.855   6.219 -0.2555 -0.0623  0.4931
  145OSM    H3F16014   2.379   5.923   6.151  1.8587 -3.1465 -1.1470
  145OSM    H3G16015   2.230   5.885   6.269 -1.1560 -2.4056  0.3231
  145OSM    C4F16016   2.312   5.716   6.164 -0.3411  0.1921 -0.5779
  145OSM    H4F16017   2.286   5.646   6.246 -2.7080 -1.7712 -2.8147
  145OSM    H4G16018   2.410   5.678   6.130 -0.0535  0.9218 -0.5821
  145OSM    C5F16019   2.213   5.705   6.045  0.1866 -0.0840  0.7415
  145OSM    H5F16020   2.115   5.745   6.079  0.1555 -0.9063  1.6727
  145OSM    H5G16021   2.187   5.599   6.027  1.7805 -0.4491  0.4787
  145OSM    C6F16022   2.269   5.765   5.913  0.4710  0.2664  0.2143
  145OSM    H6F16023   2.343   5.686   5.886 -1.1777 -1.4943  0.5761
  145OSM    H6G16024   2.311   5.866   5.930  2.2568 -0.7451  2.4662
  145OSM    C7F16025   2.177   5.768   5.794 -0.2955  0.1962 -0.5411
  145OSM    H7F16026   2.092   5.839   5.801 -0.3152  0.0686  0.5826
  145OSM    H7G16027   2.130   5.668   5.782 -1.3851  0.7193 -0.7536
  145OSM    C8F16028   2.257   5.798   5.662 -0.0691 -0.3048 -0.3273
  145OSM    H8F16029   2.349   5.735   5.669  0.1639  0.0913  0.2665
  145OSM    H8G16030   2.300   5.899   5.650  1.5727 -1.3091 -4.5402
  145OSM    C9F16031   2.184   5.786   5.531  0.2328  0.6082  0.0104
  145OSM    H9F16032   2.075   5.770   5.528 -0.1959  2.9386  1.0879
  145OSM   C10F16033   2.254   5.768   5.419 -0.1559 -0.2622 -0.5334
  145OSM   H10F16034   2.202   5.764   5.322  0.1582  1.2622 -0.7799
  145OSM   C11F16035   2.404   5.772   5.406  0.0403  0.3128  0.3113
  145OSM   H11F16036   2.456   5.744   5.500 -1.3348 -1.3856  0.6380
  145OSM   H11G16037   2.438   5.877   5.405 -0.9181  0.6353  0.3296
  145OSM   C12F16038   2.460   5.662   5.313 -0.0806 -0.0301  0.1715
  145OSM   H12F16039   2.458   5.562   5.360  0.6980  0.1039  0.4985
  145OSM   H12G16040   2.566   5.688   5.297 -0.3982  0.4721 -1.2796
  145OSM   C13F16041   2.402   5.662   5.171 -1.0679  0.6643  0.0030
  145OSM   H13F16042   2.295   5.631   5.177 -0.7915 -0.7422 -1.8182
  145OSM   H13G16043   2.451   5.579   5.117 -2.5055 -0.1158 -0.1539
  145OSM   C14F16044   2.410   5.787   5.078  0.1172  0.6670 -0.1311
  145OSM   H14F16045   2.334   5.862   5.108  1.5193  1.0636  2.7598
  145OSM   H14G16046   2.366   5.755   4.981 -1.4716  1.1237  0.4120
  145OSM   C15F16047   2.546   5.845   5.047  0.3221  0.0929 -0.1556
  145OSM   H15F16048   2.625   5.768   5.034  0.5855 -0.1023  2.1438
  145OSM   H15G16049   2.586   5.913   5.125  0.8007 -1.3085  0.8822
  145OSM   C16F16050   2.537   5.926   4.909 -0.0422 -0.0261  0.5646
  145OSM   H16F16051   2.463   6.008   4.917  0.2382  0.2785  0.1016
  145OSM   H16G16052   2.506   5.857   4.828  0.6088  0.6509 -0.3002
  145OSM   C17F16053   2.672   5.987   4.875 -0.6468  0.0746  0.4431
  145OSM   H17F16054   2.749   5.914   4.907  1.5488  2.2322  0.3317
  145OSM   H17G16055   2.695   6.078   4.934  0.4771 -1.1634  2.0214
  145OSM   C18F16056   2.689   6.027   4.732  0.1714  0.7480  0.6949
  145OSM   H18F16057   2.627   6.111   4.694  2.5055  1.2636 -2.3880
  145OSM   H18G16058   2.655   5.937   4.675  1.5992 -0.9872  2.4468
  145OSM   H18H16059   2.793   6.032   4.693  0.4925 -2.7123  0.7506
  146OSM      N16060   1.584   6.249   7.180  0.1931 -0.4022 -0.3680
  146OSM    C1516061   1.464   6.171   7.131 -0.4897 -0.7166  0.0168
  146OSM   H15A16062   1.490   6.107   7.048 -0.1420 -2.5269  1.4561
  146OSM   H15B16063   1.396   6.244   7.090  1.4228  0.0876 -1.9559
  146OSM   H15C16064   1.410   6.123   7.211  0.3140 -1.8303 -0.0940
  146OSM    C1416065   1.535   6.328   7.300 -1.0196 -0.2682  0.8608
  146OSM   H14A16066   1.483   6.275   7.378  0.2445 -0.4627  1.5987
  146OSM   H14B16067   1.469   6.408   7.271 -2.6324 -1.3122  1.4613
  146OSM   H14C16068   1.618   6.372   7.352 -0.1432  1.0615 -1.5133
  146OSM    C1316069   1.683   6.158   7.245 -0.6208 -0.5568  0.5249
  146OSM   H13A16070   1.771   6.204   7.289  0.3790 -0.4251 -1.5042
  146OSM   H13B16071   1.727   6.089   7.174  2.6282  0.0802  1.7216
  146OSM   H13C16072   1.631   6.106   7.324 -0.5739 -2.4591 -0.6411
  146OSM    C1216073   1.637   6.355   7.086  0.1805 -0.5724  0.4483
  146OSM   H12A16074   1.710   6.416   7.137  0.8181 -0.6978 -0.2903
  146OSM   H12B16075   1.563   6.430   7.061  0.7596 -0.1408 -0.0084
  146OSM    C1116076   1.693   6.312   6.952  0.3276 -1.1152  0.0358
  146OSM   H11A16077   1.721   6.405   6.897 -0.5041 -0.4983  0.6321
  146OSM   H11B16078   1.611   6.262   6.896 -0.1101  0.0754 -0.4390
  146OSM      P16079   1.947   6.297   7.014 -0.1252 -0.1068  0.2316
  146OSM    O1316080   1.918   6.427   7.075 -0.1124 -0.1697 -0.0874
  146OSM    O1416081   2.023   6.202   7.099 -0.6018  0.3680 -0.4483
  146OSM    O1116082   2.022   6.329   6.879 -0.4151  0.0008 -0.1612
  146OSM    O1216083   1.806   6.228   6.970  0.0166 -0.2238  0.8320
  146OSM    C1S16084   2.027   6.246   6.759 -0.2721  0.4615  0.0792
  146OSM    H1S16085   1.960   6.158   6.774 -1.1310  0.8303 -1.4538
  146OSM    H1T16086   2.126   6.202   6.732 -0.6491 -0.8620  0.7578
  146OSM     NF16087   1.973   6.237   6.525 -0.2780  0.2610  0.7511
  146OSM    HNF16088   2.047   6.244   6.458 -2.1303 -2.3227 -1.8444
  146OSM    C2S16089   1.963   6.322   6.635 -0.4535 -0.4983 -0.6653
  146OSM    H2S16090   1.857   6.340   6.663  0.2080  1.8522  0.6165
  146OSM    C3S16091   2.046   6.456   6.625  0.2162  0.2674  0.2380
  146OSM    H3S16092   2.156   6.437   6.622  0.1784  0.1623 -0.8461
  146OSM     O316093   2.031   6.545   6.730  0.3244 -0.6995  0.1942
  146OSM    HO316094   2.031   6.484   6.804  0.2420 -0.0284  0.7526
  146OSM    C4S16095   2.012   6.533   6.491  0.3432 -0.6379  0.2201
  146OSM    H4S16096   2.084   6.508   6.412 -1.5256 -1.5930 -1.2615
  146OSM    C5S16097   1.918   6.631   6.472 -0.0818 -0.2033  0.0518
  146OSM    H5S16098   1.849   6.661   6.552  1.0856  0.6637  0.7670
  146OSM    C6S16099   1.890   6.725   6.359 -0.1775  0.4409  0.0976
  146OSM    H6S16100   1.847   6.820   6.399  1.5693  1.2010  0.2708
  146OSM    H6T16101   1.814   6.684   6.289 -1.2616  1.8195  0.4294
  146OSM    C7S16102   2.010   6.733   6.273  0.2346 -0.3385  0.7537
  146OSM    H7S16103   2.029   6.632   6.231  0.7597  0.3859 -0.8334
  146OSM    H7T16104   2.104   6.754   6.327  1.5104  1.9143 -2.0446
  146OSM    C8S16105   2.025   6.831   6.155 -0.1804  0.2150  0.0832
  146OSM    H8S16106   2.035   6.934   6.194  2.4187  1.1283 -2.5917
  146OSM    H8T16107   1.938   6.832   6.086  0.1418  0.4033 -0.3307
  146OSM    C9S16108   2.147   6.793   6.064  0.1908 -0.0273 -0.1030
  146OSM    H9S16109   2.128   6.713   5.988 -1.8860  1.8324 -1.6572
  146OSM    H9T16110   2.240   6.774   6.123 -0.1825 -0.9306  0.2183
  146OSM   C10S16111   2.172   6.916   5.975  0.3667  0.2601 -0.3536
  146OSM   H10S16112   2.210   7.007   6.026 -0.8455  0.7543 -0.3026
  146OSM   H10T16113   2.075   6.955   5.939  0.7582  1.1891 -0.4184
  146OSM   C11S16114   2.262   6.887   5.861 -0.2624 -0.4377  0.0786
  146OSM   H11S16115   2.219   6.811   5.793 -0.6014  2.5179 -3.3077
  146OSM   H11T16116   2.360   6.844   5.892 -0.0309 -0.7160 -1.0081
  146OSM   C12S16117   2.308   7.018   5.787  0.0987  0.2840 -0.4296
  146OSM   H12S16118   2.363   7.088   5.853  0.3463  1.0122 -1.3926
  146OSM   H12T16119   2.221   7.067   5.737  0.9723  0.3424 -1.9545
  146OSM   C13S16120   2.416   6.981   5.679 -0.9616 -0.1790 -0.4245
  146OSM   H13S16121   2.377   6.892   5.626  1.8989 -1.0336 -1.2271
  146OSM   H13T16122   2.505   6.940   5.730  0.8430  0.5375 -2.8080
  146OSM   C14S16123   2.450   7.085   5.576  0.7060  0.0892 -0.4452
  146OSM   H14S16124   2.482   7.181   5.621  0.4486  0.5544 -1.2397
  146OSM   H14T16125   2.351   7.115   5.535  0.4271 -1.5223 -1.0364
  146OSM   C15S16126   2.533   7.036   5.461  0.2240  0.0705  0.0488
  146OSM   H15S16127   2.482   6.956   5.403  1.0315  0.0242 -0.6123
  146OSM   H15T16128   2.628   6.993   5.500  0.3482 -0.5979 -0.9415
  146OSM   C16S16129   2.584   7.154   5.380  0.0553 -0.2205  0.0813
  146OSM   H16S16130   2.630   7.226   5.451  1.4805  1.8168 -2.7104
  146OSM   H16T16131   2.495   7.206   5.338 -0.5646 -0.9150  0.4941
  146OSM   C17S16132   2.693   7.117   5.279 -1.3654  0.4401 -0.0335
  146OSM   H17S16133   2.659   7.028   5.222 -2.0912  1.3308 -1.0165
  146OSM   H17T16134   2.789   7.079   5.321 -0.1442 -0.1350 -3.0928
  146OSM   C18S16135   2.730   7.227   5.179 -0.4509  0.5783 -0.7497
  146OSM   H18S16136   2.639   7.244   5.118 -0.8384  2.0754  0.2027
  146OSM   H18T16137   2.817   7.198   5.116 -0.2774  0.6188 -0.5304
  146OSM   H18U16138   2.767   7.324   5.218 -0.2578  0.5569 -0.8783
  146OSM    C1F16139   1.901   6.127   6.514 -0.5709 -0.2637  0.3190
  146OSM     OF16140   1.819   6.097   6.596  0.6844  0.0516  0.5729
  146OSM    C2F16141   1.925   6.045   6.395 -0.3629 -0.4828  0.1065
  146OSM    H2F16142   2.013   5.979   6.408  0.1690  0.3369  0.8100
  146OSM    H2G16143   1.960   6.111   6.313 -0.6598  2.4608  2.1836
  146OSM    C3F16144   1.801   5.979   6.329 -0.2287 -0.0939 -0.0350
  146OSM    H3F16145   1.720   6.054   6.321  2.2126  2.5663 -2.1336
  146OSM    H3G16146   1.776   5.900   6.403 -0.6937  0.7380  0.7139
  146OSM    C4F16147   1.817   5.925   6.188 -0.1842  0.5976  0.6500
  146OSM    H4F16148   1.764   5.828   6.185  0.4225  0.2764 -2.0784
  146OSM    H4G16149   1.920   5.885   6.173 -0.4016  0.6821 -1.2069
  146OSM    C5F16150   1.778   6.018   6.078  0.2859  0.2959 -0.0076
  146OSM    H5F16151   1.828   6.116   6.088  2.5970 -1.0020  2.6032
  146OSM    H5G16152   1.670   6.046   6.078  0.2542  0.2575  1.6408
  146OSM    C6F16153   1.815   5.965   5.940  0.4383 -0.8811  0.1213
  146OSM    H6F16154   1.747   5.878   5.927 -0.7921 -0.4383  2.7998
  146OSM    H6G16155   1.917   5.924   5.925  0.9421  0.8636 -1.8086
  146OSM    C7F16156   1.799   6.081   5.839  0.6527 -0.8424 -0.2051
  146OSM    H7F16157   1.832   6.178   5.880 -2.1566  0.5125 -0.8826
  146OSM    H7G16158   1.692   6.096   5.815  0.7607 -1.0435 -0.8432
  146OSM    C8F16159   1.871   6.056   5.705 -0.0779 -0.4926 -0.1212
  146OSM    H8F16160   1.971   6.024   5.742 -1.2178 -1.4228  2.4145
  146OSM    H8G16161   1.868   6.152   5.649 -0.2943 -0.5181 -0.1519
  146OSM    C9F16162   1.803   5.959   5.613  0.0987  0.3106  0.6283
  146OSM    H9F16163   1.784   5.864   5.665  0.7597 -1.2614 -1.8255
  146OSM   C10F16164   1.755   5.974   5.487 -0.0972 -0.1058 -0.4012
  146OSM   H10F16165   1.696   5.896   5.437  0.8841 -0.0969 -1.6397
  146OSM   C11F16166   1.751   6.092   5.402  0.9317 -0.3053  0.1964
  146OSM   H11F16167   1.822   6.167   5.442  2.8360 -2.9333  2.1073
  146OSM   H11G16168   1.648   6.131   5.397  1.3738  1.2088  1.9646
  146OSM   C12F16169   1.778   6.064   5.257 -0.7626  0.3673 -1.0594
  146OSM   H12F16170   1.770   6.158   5.198 -1.6622  0.5510 -0.6620
  146OSM   H12G16171   1.712   5.988   5.211 -1.6818  0.0326  0.7291
  146OSM   C13F16172   1.924   6.023   5.244  0.0247  0.9806  0.3705
  146OSM   H13F16173   1.937   5.924   5.294  0.7370  0.5712 -0.5962
  146OSM   H13G16174   1.993   6.100   5.284 -0.1780  0.9546  0.7732
  146OSM   C14F16175   1.958   5.996   5.094 -0.3057 -0.0082 -0.5067
  146OSM   H14F16176   1.882   5.925   5.054 -0.7008 -0.0009  0.2275
  146OSM   H14G16177   1.941   6.096   5.048 -1.7358  0.6512  1.3654
  146OSM   C15F16178   2.104   5.945   5.071 -0.4354 -0.1563 -0.3039
  146OSM   H15F16179   2.104   5.837   5.097  1.6354 -0.5035 -1.5795
  146OSM   H15G16180   2.182   5.988   5.138  2.3162 -0.8005 -2.8589
  146OSM   C16F16181   2.143   5.963   4.925  0.4166  0.1149  0.1747
  146OSM   H16F16182   2.250   5.931   4.916  0.2057 -0.5519 -0.0797
  146OSM   H16G16183   2.142   6.066   4.885 -0.2174 -0.1413 -0.4982
  146OSM   C17F16184   2.054   5.892   4.825 -0.2780  0.0110 -0.2817
  146OSM   H17F16185   1.959   5.947   4.809 -0.5584 -1.4041 -5.0565
  146OSM   H17G16186   2.051   5.788   4.866  0.5376 -0.0586 -0.3877
  146OSM   C18F16187   2.111   5.882   4.689  0.5219 -0.0104 -0.7631
  146OSM   H18F16188   2.218   5.853   4.692  0.5910  0.3013  0.0654
  146OSM   H18G16189   2.104   5.982   4.641 -2.1438  0.5554  0.6311
  146OSM   H18H16190   2.060   5.797   4.638 -0.3565 -0.7282  1.2010
  147OSM      N16191   0.098   5.539   2.339 -0.7359  0.0084 -0.4343
  147OSM    C1516192   0.054   5.400   2.295  0.2357 -0.1222  0.3131
  147OSM   H15A16193  -0.054   5.396   2.288  0.0859 -2.9784  2.3521
  147OSM   H15B16194   0.085   5.321   2.362 -0.7101 -0.3370  0.5043
  147OSM   H15C16195   0.094   5.381   2.197  1.2101 -1.7733  0.9785
  147OSM    C1416196   0.026   5.638   2.250  0.4316  0.6529 -0.2117
  147OSM   H14A16197   0.009   5.608   2.147  0.5226  1.2147 -0.3946
  147OSM   H14B16198   0.085   5.728   2.241  1.4378 -0.0919 -1.4784
  147OSM   H14C16199  -0.070   5.657   2.295  1.5467 -0.5886  2.9632
  147OSM    C1316200   0.049   5.565   2.478  0.7748 -0.2503  0.7426
  147OSM   H13A16201  -0.058   5.563   2.488  0.7560 -1.0408  0.5217
  147OSM   H13B16202   0.082   5.661   2.516  0.7809  1.0027 -2.2014
  147OSM   H13C16203   0.086   5.483   2.539 -0.6914 -3.0656 -1.8797
  147OSM    C1216204   0.255   5.549   2.327 -0.1348  0.1536 -0.2446
  147OSM   H12A16205   0.287   5.537   2.224  1.9281 -2.0047  0.5525
  147OSM   H12B16206   0.297   5.458   2.369  0.4392 -0.2660 -1.6586
  147OSM    C1116207   0.316   5.673   2.385  0.3210 -0.5531 -0.1225
  147OSM   H11A16208   0.301   5.692   2.493  3.1097 -0.0800  0.2529
  147OSM   H11B16209   0.264   5.756   2.331 -1.8152 -0.2410  2.2349
  147OSM      P16210   0.568   5.625   2.441  0.2423 -0.1817 -0.6024
  147OSM    O1316211   0.590   5.482   2.403 -0.2027  0.5896  0.2461
  147OSM    O1416212   0.678   5.721   2.422  0.1350  0.2908 -0.2724
  147OSM    O1116213   0.506   5.639   2.592 -0.1437  0.1852  0.4089
  147OSM    O1216214   0.447   5.682   2.349 -0.5225  0.2145  0.1257
  147OSM    C1S16215   0.574   5.581   2.701  0.2465  0.2862 -0.3373
  147OSM    H1S16216   0.661   5.646   2.723  0.0254  1.1841 -1.9691
  147OSM    H1T16217   0.616   5.483   2.669  2.1189  1.0083 -0.2335
  147OSM     NF16218   0.601   5.517   2.923  0.0041 -0.3750  0.5578
  147OSM    HNF16219   0.622   5.419   2.916 -0.9676 -0.4950 -3.0741
  147OSM    C2S16220   0.499   5.566   2.835  0.4875  0.9376  0.2050
  147OSM    H2S16221   0.473   5.670   2.865  0.0535  0.8848  0.0202
  147OSM    C3S16222   0.378   5.471   2.822  0.4662 -0.2887 -0.5497
  147OSM    H3S16223   0.414   5.368   2.801  0.8975 -0.2610  0.0066
  147OSM     O316224   0.294   5.503   2.710  0.4873  0.6728  0.2625
  147OSM    HO316225   0.334   5.578   2.665  0.9750  0.0919 -0.2793
  147OSM    C4S16226   0.296   5.455   2.953  0.1634  0.1225  0.2285
  147OSM    H4S16227   0.309   5.366   3.017 -0.6519  0.3187  0.6854
  147OSM    C5S16228   0.214   5.553   3.006 -0.4825  0.2311  0.1953
  147OSM    H5S16229   0.223   5.649   2.953  1.0385  1.7886  3.0760
  147OSM    C6S16230   0.148   5.549   3.138 -0.5502 -0.4206  0.2461
  147OSM    H6S16231   0.048   5.502   3.124 -0.2860 -0.7176 -0.7217
  147OSM    H6T16232   0.132   5.653   3.172 -0.0340 -0.7189  1.4904
  147OSM    C7S16233   0.219   5.479   3.261 -0.4973 -1.2865 -0.2187
  147OSM    H7S16234   0.219   5.374   3.226  2.6529 -1.0545 -1.1906
  147OSM    H7T16235   0.161   5.485   3.356  2.0294  0.7788  1.3268
  147OSM    C8S16236   0.359   5.535   3.288 -0.9215  0.3631  0.0275
  147OSM    H8S16237   0.340   5.644   3.298  0.3483  0.7544 -1.4882
  147OSM    H8T16238   0.433   5.541   3.206  1.3818 -0.7354  1.8994
  147OSM    C9S16239   0.425   5.488   3.417 -0.5581  0.3667  0.7665
  147OSM    H9S16240   0.408   5.379   3.422 -2.0444  0.4833 -0.9934
  147OSM    H9T16241   0.362   5.534   3.497 -2.2163 -1.3314  0.5070
  147OSM   C10S16242   0.573   5.529   3.434 -0.0084 -0.7534 -0.3122
  147OSM   H10S16243   0.582   5.640   3.437  0.8980 -0.8400  0.5141
  147OSM   H10T16244   0.639   5.492   3.353  0.0721 -0.9900 -0.1394
  147OSM   C11S16245   0.629   5.468   3.559 -0.0656 -0.1044  0.2326
  147OSM   H11S16246   0.734   5.439   3.537 -0.1894  1.2694 -2.7155
  147OSM   H11T16247   0.568   5.384   3.597  1.7739 -1.2724  0.7520
  147OSM   C12S16248   0.636   5.571   3.677  0.2127  1.0732 -0.1589
  147OSM   H12S16249   0.534   5.584   3.718  0.2778  0.3014  0.2712
  147OSM   H12T16250   0.672   5.670   3.641  0.8891  1.7970  2.3096
  147OSM   C13S16251   0.713   5.519   3.799  0.1669  0.5352  0.0827
  147OSM   H13S16252   0.824   5.521   3.785  0.4561 -0.6011  1.8831
  147OSM   H13T16253   0.684   5.412   3.810  1.9017  0.1710  1.5941
  147OSM   C14S16254   0.686   5.600   3.924  0.0794 -0.8102 -1.2308
  147OSM   H14S16255   0.578   5.613   3.949  0.4251  0.6157 -0.4309
  147OSM   H14T16256   0.719   5.702   3.899  0.5033 -0.0976  1.8252
  147OSM   C15S16257   0.759   5.554   4.045  0.8452  0.4802 -0.2506
  147OSM   H15S16258   0.869   5.547   4.031  0.9095  1.0787 -0.0768
  147OSM   H15T16259   0.721   5.452   4.067 -1.1591  1.6427  2.3312
  147OSM   C16S16260   0.724   5.641   4.166 -0.6567  0.5249 -0.4249
  147OSM   H16S16261   0.614   5.635   4.183 -0.4763  0.5013  0.7800
  147OSM   H16T16262   0.756   5.743   4.133  0.2623  0.6089  0.6765
  147OSM   C17S16263   0.804   5.608   4.295  0.3960 -0.9011 -0.1538
  147OSM   H17S16264   0.812   5.699   4.359  1.6677  0.3623 -1.9854
  147OSM   H17T16265   0.908   5.583   4.263  0.2710  0.6381 -1.9308
  147OSM   C18S16266   0.737   5.500   4.388  0.2373  0.0176 -0.0109
  147OSM   H18S16267   0.638   5.530   4.427  1.9134  4.1963  1.5141
  147OSM   H18T16268   0.801   5.484   4.477 -0.1733 -2.1439 -0.0386
  147OSM   H18U16269   0.730   5.401   4.337 -0.2849 -0.5514  1.1348
  147OSM    C1F16270   0.683   5.604   2.982 -0.1719  0.2111  0.6361
  147OSM     OF16271   0.681   5.721   2.946 -0.7864  0.8296 -0.0698
  147OSM    C2F16272   0.784   5.543   3.073  0.3103  0.3985  0.0468
  147OSM    H2F16273   0.856   5.484   3.012  0.7690 -0.5314  1.4136
  147OSM    H2G16274   0.727   5.457   3.114  1.2650 -0.3137 -0.0841
  147OSM    C3F16275   0.843   5.633   3.180  0.0556  0.1885 -0.5079
  147OSM    H3F16276   0.748   5.669   3.225 -0.3434 -2.1232  0.6276
  147OSM    H3G16277   0.907   5.701   3.119  0.2153 -1.7380 -2.6347
  147OSM    C4F16278   0.929   5.564   3.285  0.0918 -0.3923  0.1505
  147OSM    H4F16279   1.024   5.531   3.238  0.9436 -0.1329  1.6288
  147OSM    H4G16280   0.878   5.474   3.326 -2.8911  2.1276  2.4745
  147OSM    C5F16281   0.947   5.643   3.415  0.2659  0.3180 -0.1776
  147OSM    H5F16282   0.843   5.666   3.447  0.0217 -0.5604 -0.3034
  147OSM    H5G16283   1.002   5.736   3.393 -0.2297  0.4550 -0.8793
  147OSM    C6F16284   1.007   5.554   3.523  0.3251  0.3194 -0.4690
  147OSM    H6F16285   0.955   5.456   3.525 -1.6692  1.3438 -0.0204
  147OSM    H6G16286   0.982   5.594   3.624 -1.6019  0.1207 -0.8401
  147OSM    C7F16287   1.163   5.540   3.501 -0.0545  0.2213  0.7232
  147OSM    H7F16288   1.210   5.641   3.503  1.4272 -0.3987 -0.3860
  147OSM    H7G16289   1.170   5.508   3.394 -1.6163  0.8055  0.4217
  147OSM    C8F16290   1.234   5.438   3.592 -0.7145  0.3031  0.6294
  147OSM    H8F16291   1.335   5.444   3.547 -1.7968  2.6958 -1.7630
  147OSM    H8G16292   1.195   5.341   3.555  2.8003 -1.5624  1.3975
  147OSM    C9F16293   1.212   5.446   3.740 -0.0559 -0.4021  0.4292
  147OSM    H9F16294   1.121   5.499   3.770 -0.3134 -0.5986  0.0030
  147OSM   C10F16295   1.295   5.401   3.833  0.1671 -0.4756  0.0275
  147OSM   H10F16296   1.262   5.406   3.938 -1.2648 -2.7692 -0.2321
  147OSM   C11F16297   1.415   5.324   3.804  0.0369  0.3978  0.1160
  147OSM   H11F16298   1.489   5.348   3.884 -0.8191 -0.8736  1.3275
  147OSM   H11G16299   1.464   5.358   3.710  0.7881 -1.1733 -0.1054
  147OSM   C12F16300   1.393   5.164   3.795 -1.2548  0.0459 -0.2654
  147OSM   H12F16301   1.473   5.135   3.723 -0.3717 -0.4305  0.8723
  147OSM   H12G16302   1.290   5.151   3.758 -1.9350 -0.4396  1.6883
  147OSM   C13F16303   1.424   5.078   3.917 -0.1157 -0.1374  0.1523
  147OSM   H13F16304   1.509   5.127   3.969 -0.3434  2.8852 -2.0256
  147OSM   H13G16305   1.457   4.973   3.898 -0.6414 -0.7294  2.2516
  147OSM   C14F16306   1.307   5.071   4.012  0.5177  0.6735 -0.3076
  147OSM   H14F16307   1.225   5.017   3.960 -1.2459  1.8416  1.1515
  147OSM   H14G16308   1.265   5.171   4.034  2.1104  1.6936 -1.6401
  147OSM   C15F16309   1.341   4.978   4.125 -0.4998  0.2213  0.0757
  147OSM   H15F16310   1.414   5.034   4.186 -2.3916  1.3617  1.3695
  147OSM   H15G16311   1.385   4.886   4.080 -0.9688  1.0465 -2.2523
  147OSM   C16F16312   1.222   4.930   4.207 -0.0550 -1.5341 -0.1520
  147OSM   H16F16313   1.154   4.872   4.141 -0.9555  0.2855 -0.8784
  147OSM   H16G16314   1.170   5.020   4.247  1.4796  0.9543 -3.2996
  147OSM   C17F16315   1.274   4.862   4.339 -0.1471 -0.9813  0.3949
  147OSM   H17F16316   1.344   4.927   4.395 -0.6247  0.7351 -0.9274
  147OSM   H17G16317   1.333   4.770   4.316 -0.5680 -1.1610  0.0100
  147OSM   C18F16318   1.162   4.815   4.442 -1.0475 -0.0731  0.0990
  147OSM   H18F16319   1.196   4.747   4.522 -1.3380  0.3444  0.5880
  147OSM   H18G16320   1.085   4.760   4.385 -2.2982 -1.3616  2.8313
  147OSM   H18H16321   1.102   4.902   4.478 -0.3303  0.7742 -0.7047
  148OSM      N16322   5.328   6.609   2.230 -0.9377  0.1453  0.4604
  148OSM    C1516323   5.302   6.470   2.274  0.1408 -0.8129  0.2970
  148OSM   H15A16324   5.243   6.485   2.363  0.1207  0.5114  0.0785
  148OSM   H15B16325   5.399   6.424   2.281  1.3143  0.6877 -3.4714
  148OSM   H15C16326   5.250   6.420   2.194  0.3519  1.6834 -1.5529
  148OSM    C1416327   5.427   6.613   2.113 -0.5895  0.1160  0.5183
  148OSM   H14A16328   5.527   6.583   2.139 -0.5937 -1.2001 -0.8891
  148OSM   H14B16329   5.428   6.705   2.057 -1.0630  0.4124  0.9863
  148OSM   H14C16330   5.385   6.548   2.037 -0.8565  1.7162 -0.7509
  148OSM    C1316331   5.200   6.670   2.188 -0.5764  0.2028 -0.0112
  148OSM   H13A16332   5.216   6.766   2.140 -0.2085  0.4650  0.6155
  148OSM   H13B16333   5.136   6.689   2.273  1.0371 -0.9827  1.5620
  148OSM   H13C16334   5.149   6.611   2.114  3.0283 -0.6648 -2.0729
  148OSM    C1216335   5.382   6.692   2.346 -0.0517  0.9194  0.9020
  148OSM   H12A16336   5.404   6.790   2.307 -1.9974  0.8732 -0.4001
  148OSM   H12B16337   5.470   6.638   2.378 -0.9339 -1.0598  0.1394
  148OSM    C1116338   5.292   6.707   2.469 -0.5103  0.2707  0.1251
  148OSM   H11A16339   5.206   6.770   2.438  0.3298  0.0069 -3.0713
  148OSM   H11B16340   5.350   6.763   2.545 -1.1322 -1.0719  1.6847
  148OSM      P16341   5.119   6.562   2.600 -0.5463 -0.0943 -0.2686
  148OSM    O1316342   5.082   6.683   2.675 -0.2618 -0.5173  0.7570
  148OSM    O1416343   5.023   6.504   2.508  0.1228  0.7806  0.7259
  148OSM    O1116344   5.163   6.445   2.699  0.1746  0.0873  0.0071
  148OSM    O1216345   5.253   6.584   2.527  0.0602  0.6636 -0.4012
  148OSM    C1S16346   5.231   6.329   2.659 -0.9167 -0.5315  0.2413
  148OSM    H1S16347   5.327   6.354   2.610 -1.1331 -3.5788 -1.9934
  148OSM    H1T16348   5.175   6.270   2.584 -2.2666  0.3066  0.5521
  148OSM     NF16349   5.378   6.134   2.725  0.0886  0.5310 -0.3375
  148OSM    HNF16350   5.345   6.058   2.669 -1.5097  0.3853  0.7463
  148OSM    C2S16351   5.278   6.229   2.774 -0.4607 -0.8261 -0.4810
  148OSM    H2S16352   5.325   6.298   2.848 -0.0548  0.3337 -1.7892
  148OSM    C3S16353   5.147   6.164   2.834 -0.3610  1.1341 -0.0600
  148OSM    H3S16354   5.093   6.114   2.750  1.3730 -0.1968 -0.4457
  148OSM     O316355   5.043   6.252   2.881 -0.2343 -0.4945  0.0127
  148OSM    HO316356   5.073   6.342   2.866  0.5883 -0.8006 -0.2578
  148OSM    C4S16357   5.171   6.064   2.937  0.0127 -0.2012  0.8621
  148OSM    H4S16358   5.170   5.965   2.889 -0.0478  0.3208 -0.2735
  148OSM    C5S16359   5.183   6.081   3.069  0.5994  0.3259  0.6383
  148OSM    H5S16360   5.181   6.187   3.099 -0.4795  1.0258 -1.6460
  148OSM    C6S16361   5.206   5.976   3.176 -0.7302  0.2169 -0.2415
  148OSM    H6S16362   5.107   5.961   3.223 -0.7371  1.2871  0.1337
  148OSM    H6T16363   5.280   6.012   3.252  0.5889 -0.8234 -0.9851
  148OSM    C7S16364   5.237   5.830   3.124  0.0256 -0.1672  0.1442
  148OSM    H7S16365   5.325   5.836   3.056  0.1456 -1.2044  0.2033
  148OSM    H7T16366   5.148   5.794   3.068 -0.8120  2.7711 -0.6171
  148OSM    C8S16367   5.264   5.720   3.229  0.9040 -0.1104  0.3886
  148OSM    H8S16368   5.287   5.625   3.176 -0.2670  0.7372 -1.7946
  148OSM    H8T16369   5.171   5.713   3.290  1.2481  0.8975  1.0518
  148OSM    C9S16370   5.377   5.752   3.326  0.4269  0.1720  0.0924
  148OSM    H9S16371   5.357   5.834   3.398 -0.0503  0.4056 -0.2919
  148OSM    H9T16372   5.454   5.793   3.257 -0.9968  0.4110 -1.4402
  148OSM   C10S16373   5.412   5.632   3.425  0.7037  0.5666  0.1916
  148OSM   H10S16374   5.455   5.554   3.358  3.9435  1.2645  1.2352
  148OSM   H10T16375   5.322   5.587   3.472  0.3684 -0.0800 -1.0368
  148OSM   C11S16376   5.501   5.679   3.537  0.3644 -0.4579 -0.5734
  148OSM   H11S16377   5.433   5.742   3.597  0.7753 -1.9465  1.5740
  148OSM   H11T16378   5.589   5.736   3.501  0.5125  0.8339  1.6497
  148OSM   C12S16379   5.554   5.567   3.621 -0.3717  0.3844  0.1069
  148OSM   H12S16380   5.632   5.507   3.570 -0.4155  0.0360  0.4402
  148OSM   H12T16381   5.473   5.496   3.649  0.8678 -0.6833  1.2010
  148OSM   C13S16382   5.624   5.620   3.749  0.1801 -0.2440 -0.1956
  148OSM   H13S16383   5.563   5.665   3.831  3.0031  1.1492  1.2735
  148OSM   H13T16384   5.686   5.706   3.715  0.3083  0.2711  1.2565
  148OSM   C14S16385   5.701   5.510   3.829  0.7127 -0.0268  0.3635
  148OSM   H14S16386   5.775   5.456   3.767  0.2717  0.8981 -1.0303
  148OSM   H14T16387   5.619   5.443   3.863  0.3365 -0.1358 -0.7305
  148OSM   C15S16388   5.764   5.563   3.961 -0.6719 -0.3713 -0.0889
  148OSM   H15S16389   5.691   5.638   3.998  1.8416  1.8987  0.5821
  148OSM   H15T16390   5.853   5.625   3.939 -1.0848  0.4534  0.5419
  148OSM   C16S16391   5.798   5.458   4.066  0.5072  0.2558  0.6419
  148OSM   H16S16392   5.886   5.406   4.023 -0.0271  1.0599 -1.5664
  148OSM   H16T16393   5.709   5.393   4.080  0.5404 -0.0539 -0.4948
  148OSM   C17S16394   5.844   5.514   4.199 -0.2855  0.0628  0.6607
  148OSM   H17S16395   5.758   5.563   4.250  2.4068  3.5992  2.2399
  148OSM   H17T16396   5.915   5.599   4.192 -0.8664  0.5347  0.4012
  148OSM   C18S16397   5.915   5.406   4.291 -0.1813 -0.1255 -0.2689
  148OSM   H18S16398   5.840   5.341   4.340  1.1746 -0.9662  0.7952
  148OSM   H18T16399   5.969   5.448   4.379 -0.8465  0.5022 -0.1598
  148OSM   H18U16400   5.991   5.361   4.223 -0.4014 -1.6570  0.4458
  148OSM    C1F16401   5.503   6.176   2.713  0.0968  0.1268  0.1028
  148OSM     OF16402   5.540   6.286   2.739 -0.3930 -0.2532  0.5115
  148OSM    C2F16403   5.598   6.084   2.644 -0.2646  0.0590 -0.3322
  148OSM    H2F16404   5.700   6.108   2.679 -0.5029  1.7053 -0.6721
  148OSM    H2G16405   5.608   6.110   2.536 -0.6386  0.1795 -0.3414
  148OSM    C3F16406   5.562   5.934   2.661  0.0807 -1.0799 -0.4306
  148OSM    H3F16407   5.641   5.881   2.603  0.6356 -2.1265  1.1973
  148OSM    H3G16408   5.475   5.907   2.598 -0.2999 -0.4154 -0.1888
  148OSM    C4F16409   5.562   5.876   2.804  0.1618 -0.8324 -0.2240
  148OSM    H4F16410   5.544   5.766   2.813 -1.1637 -0.5211  1.2304
  148OSM    H4G16411   5.466   5.923   2.833  0.0422  2.6966 -5.1069
  148OSM    C5F16412   5.679   5.920   2.895  0.0292  1.0665 -0.6957
  148OSM    H5F16413   5.728   6.014   2.859  2.0985 -0.8104 -3.1414
  148OSM    H5G16414   5.758   5.843   2.884  0.7358  1.8062 -0.8830
  148OSM    C6F16415   5.635   5.932   3.046  0.5765  0.1484 -0.2196
  148OSM    H6F16416   5.619   5.830   3.089  0.0176  0.2139 -0.2540
  148OSM    H6G16417   5.534   5.979   3.041  0.9703  1.2158  1.3076
  148OSM    C7F16418   5.726   6.001   3.147 -0.6161 -0.3953  1.2967
  148OSM    H7F16419   5.756   6.102   3.111 -1.5822  0.5209  2.9222
  148OSM    H7G16420   5.820   5.944   3.164 -0.9310 -1.1163  0.6404
  148OSM    C8F16421   5.647   6.003   3.276 -0.5451 -0.2252 -0.6020
  148OSM    H8F16422   5.626   5.902   3.317 -2.6053  0.3586 -0.0744
  148OSM    H8G16423   5.542   6.033   3.253 -0.9220 -1.6799 -0.8782
  148OSM    C9F16424   5.701   6.105   3.368  0.4203 -0.5304  0.0371
  148OSM    H9F16425   5.655   6.205   3.365  0.4934 -0.3728  2.2917
  148OSM   C10F16426   5.780   6.083   3.474  0.6619 -0.2420  0.4655
  148OSM   H10F16427   5.817   6.161   3.542  0.5495  0.8554 -0.7079
  148OSM   C11F16428   5.846   5.951   3.486 -0.1669  0.6044 -0.2622
  148OSM   H11F16429   5.927   5.929   3.413  1.1381  0.7187  1.0998
  148OSM   H11G16430   5.768   5.873   3.472 -0.4173  0.3735  2.1179
  148OSM   C12F16431   5.908   5.906   3.621 -0.4101  0.2287 -0.2470
  148OSM   H12F16432   6.014   5.937   3.628 -0.2483 -0.3353 -0.1477
  148OSM   H12G16433   5.895   5.796   3.635 -1.4500  0.4761  0.9288
  148OSM   C13F16434   5.821   5.957   3.733  0.1899 -0.4968  0.4139
  148OSM   H13F16435   5.724   5.904   3.730  0.3785 -0.7935 -1.3218
  148OSM   H13G16436   5.798   6.065   3.724 -1.0134 -0.6496  1.4003
  148OSM   C14F16437   5.886   5.932   3.870  0.5156 -0.8402 -0.6010
  148OSM   H14F16438   5.989   5.969   3.890 -0.4816  1.7189  0.2717
  148OSM   H14G16439   5.892   5.823   3.887  1.5874 -0.6158  0.5705
  148OSM   C15F16440   5.800   5.974   3.988 -0.2150  0.5173 -0.1280
  148OSM   H15F16441   5.692   5.957   3.966 -0.2963  0.1181  0.5737
  148OSM   H15G16442   5.793   6.085   3.984  1.9767  0.6825 -2.4269
  148OSM   C16F16443   5.842   5.913   4.120  0.4650 -0.2871 -0.6715
  148OSM   H16F16444   5.948   5.935   4.147  0.4168 -1.3322  0.4466
  148OSM   H16G16445   5.835   5.802   4.118  1.3542 -0.3484 -1.0873
  148OSM   C17F16446   5.759   5.971   4.246 -0.6552 -0.7767  0.4453
  148OSM   H17F16447   5.649   5.976   4.232 -1.0738 -2.6117  2.5602
  148OSM   H17G16448   5.800   6.074   4.254  0.5508 -1.0969 -1.1462
  148OSM   C18F16449   5.775   5.896   4.380  0.4521 -0.1300  0.6497
  148OSM   H18F16450   5.877   5.911   4.419 -0.3036  1.2288  2.2066
  148OSM   H18G16451   5.756   5.787   4.371  0.8475 -0.3420  2.1407
  148OSM   H18H16452   5.701   5.956   4.438 -1.9672  0.7754 -2.9878
  149OSM      N16453   6.288   4.880   1.547 -0.0587  0.3817  0.4030
  149OSM    C1516454   6.433   4.926   1.545 -0.5413  0.5591  0.4805
  149OSM   H15A16455   6.468   4.938   1.443  2.5510  0.5717  1.4455
  149OSM   H15B16456   6.494   4.851   1.593  1.3750  1.4751 -0.4050
  149OSM   H15C16457   6.448   5.016   1.603 -2.3004  1.2722 -0.1186
  149OSM    C1416458   6.215   4.996   1.487 -0.0124  0.4363  0.4519
  149OSM   H14A16459   6.269   5.033   1.401  1.1415  0.4126  1.1452
  149OSM   H14B16460   6.201   5.067   1.567  0.5597  0.2592  0.7165
  149OSM   H14C16461   6.119   4.973   1.444  0.9372 -0.0161 -1.5300
  149OSM    C1316462   6.282   4.763   1.451  0.2657 -0.5719  0.5052
  149OSM   H13A16463   6.183   4.720   1.457  0.5007 -1.2397 -0.2680
  149OSM   H13B16464   6.352   4.686   1.478  2.6210  0.4441 -2.1667
  149OSM   H13C16465   6.305   4.795   1.350  1.5699  2.2073  1.5806
  149OSM    C1216466   6.246   4.852   1.688 -0.0998  0.5124 -0.5936
  149OSM   H12A16467   6.300   4.762   1.712 -1.7738 -0.9731 -2.0728
  149OSM   H12B16468   6.140   4.829   1.687 -0.2632  0.6866  2.4913
  149OSM    C1116469   6.269   4.965   1.793  0.6075 -0.2501 -0.2660
  149OSM   H11A16470   6.376   4.993   1.802  0.8802 -1.5923  1.0439
  149OSM   H11B16471   6.247   4.915   1.890 -0.7098 -0.7772 -0.8086
  149OSM      P16472   6.043   5.092   1.817  0.2354  0.2852  0.4443
  149OSM    O1316473   5.987   5.219   1.768  0.3011 -0.4488 -0.2437
  149OSM    O1416474   5.968   4.974   1.776  0.4725 -0.1235 -0.2152
  149OSM    O1116475   6.061   5.086   1.974  0.1148 -0.3896 -0.0882
  149OSM    O1216476   6.187   5.078   1.766  0.1242 -0.1712 -0.1374
  149OSM    C1S16477   5.950   5.091   2.065  0.5003 -0.6007 -0.1399
  149OSM    H1S16478   5.861   5.035   2.029  0.1387 -0.6423  0.7919
  149OSM    H1T16479   5.917   5.194   2.091 -2.4944 -1.0572 -1.6596
  149OSM     NF16480   5.873   5.003   2.285  0.0120  0.4615  0.1614
  149OSM    HNF16481   5.873   5.060   2.367  1.8964 -1.8800  1.9423
  149OSM    C2S16482   5.992   5.019   2.203 -0.7844 -0.4278  0.0771
  149OSM    H2S16483   6.028   4.915   2.184 -0.3283 -0.1206 -0.8104
  149OSM    C3S16484   6.110   5.101   2.275 -0.5368 -0.4103 -0.0189
  149OSM    H3S16485   6.054   5.192   2.303 -1.1578 -0.6458 -0.4669
  149OSM     O316486   6.208   5.146   2.180 -0.3142  0.7400  0.1088
  149OSM    HO316487   6.167   5.123   2.096 -0.3124 -1.7998  0.7260
  149OSM    C4S16488   6.166   5.045   2.400  0.3721  0.7445 -0.8345
  149OSM    H4S16489   6.219   4.949   2.393 -0.2910  0.0308  2.2733
  149OSM    C5S16490   6.146   5.095   2.522  0.0387  0.5483 -0.3214
  149OSM    H5S16491   6.084   5.183   2.544 -1.1866 -0.5802  0.9393
  149OSM    C6S16492   6.222   5.034   2.636  0.5031 -0.4460 -0.9992
  149OSM    H6S16493   6.233   5.117   2.709  0.6922 -1.1905 -0.1610
  149OSM    H6T16494   6.325   4.998   2.617  2.0906  1.1409  3.3163
  149OSM    C7S16495   6.145   4.927   2.709  0.3957  0.0384  0.0999
  149OSM    H7S16496   6.109   4.848   2.641  0.1356 -0.4980  0.8428
  149OSM    H7T16497   6.051   4.961   2.758 -0.3857 -0.2733 -1.1448
  149OSM    C8S16498   6.234   4.874   2.824 -0.1498 -0.0241  0.7090
  149OSM    H8S16499   6.244   4.959   2.895 -0.5793  0.2663  0.4229
  149OSM    H8T16500   6.334   4.852   2.780 -0.3391 -0.4382  0.4723
  149OSM    C9S16501   6.187   4.759   2.906 -0.1347  0.2270  0.3403
  149OSM    H9S16502   6.162   4.669   2.845 -0.2512  0.0224  0.6888
  149OSM    H9T16503   6.092   4.780   2.958 -0.8787 -0.9290 -0.5078
  149OSM   C10S16504   6.295   4.720   3.021 -0.1660  0.0315  0.3334
  149OSM   H10S16505   6.325   4.818   3.065 -0.6262  0.5564 -0.4922
  149OSM   H10T16506   6.387   4.682   2.970 -0.3288 -0.0752  0.1197
  149OSM   C11S16507   6.249   4.634   3.130  0.2629 -0.4145 -0.6448
  149OSM   H11S16508   6.219   4.534   3.094 -0.6831 -0.3662 -0.0287
  149OSM   H11T16509   6.151   4.666   3.172  0.5505 -2.0999  1.4571
  149OSM   C12S16510   6.361   4.627   3.243 -0.0236 -0.5050  0.2107
  149OSM   H12S16511   6.378   4.732   3.274  0.1595 -0.7050  0.8008
  149OSM   H12T16512   6.456   4.585   3.203 -0.6927 -2.6170  0.6902
  149OSM   C13S16513   6.316   4.552   3.373  0.2160 -0.3870 -0.1373
  149OSM   H13S16514   6.254   4.461   3.355 -0.5054 -0.4249  2.2292
  149OSM   H13T16515   6.250   4.614   3.437  0.5690  0.2315 -0.3613
  149OSM   C14S16516   6.437   4.506   3.454  0.3048 -0.1956  1.2979
  149OSM   H14S16517   6.499   4.598   3.443 -0.5463  0.0818 -3.0555
  149OSM   H14T16518   6.493   4.434   3.390 -1.5021  0.0291 -0.6553
  149OSM   C15S16519   6.404   4.445   3.596 -0.0326 -0.4331 -0.0798
  149OSM   H15S16520   6.322   4.371   3.583 -0.9020  0.3958  0.5160
  149OSM   H15T16521   6.366   4.535   3.649 -1.0742  0.8766 -2.8663
  149OSM   C16S16522   6.531   4.385   3.669 -0.1820  0.2909  0.8485
  149OSM   H16S16523   6.595   4.472   3.696 -0.2210  0.0561  1.7177
  149OSM   H16T16524   6.589   4.325   3.596 -0.4403 -0.0799  0.9394
  149OSM   C17S16525   6.489   4.296   3.788  0.2910  0.7419  0.0463
  149OSM   H17S16526   6.473   4.192   3.752 -3.4690  0.6990  1.4270
  149OSM   H17T16527   6.392   4.336   3.825  0.1082 -0.2423  0.6512
  149OSM   C18S16528   6.581   4.289   3.907 -0.2674 -0.4971 -0.0813
  149OSM   H18S16529   6.543   4.225   3.989 -1.0820  2.9214  2.4202
  149OSM   H18T16530   6.592   4.387   3.957  1.2090 -1.0622  0.7695
  149OSM   H18U16531   6.674   4.245   3.864  0.2517  0.4755  0.0256
  149OSM    C1F16532   5.773   4.919   2.266 -0.2336 -0.9251  0.6215
  149OSM     OF16533   5.760   4.858   2.160 -0.4031  0.0895  0.4361
  149OSM    C2F16534   5.691   4.887   2.385  0.0548 -0.4076 -0.1468
  149OSM    H2F16535   5.703   4.970   2.457  2.0216 -0.1178 -0.7486
  149OSM    H2G16536   5.742   4.801   2.434  1.3047 -0.7064 -1.8537
  149OSM    C3F16537   5.539   4.853   2.348  0.5153  0.8781 -0.5172
  149OSM    H3F16538   5.537   4.777   2.266 -0.8271 -0.4774  0.7268
  149OSM    H3G16539   5.485   4.944   2.314 -0.5043  0.2840 -0.5326
  149OSM    C4F16540   5.453   4.815   2.466 -0.2379  0.2513 -0.3845
  149OSM    H4F16541   5.345   4.838   2.454 -0.8360 -1.1279  1.7024
  149OSM    H4G16542   5.498   4.861   2.557 -1.7398  1.5465 -0.2412
  149OSM    C5F16543   5.462   4.661   2.501  0.4735 -0.0185 -1.0333
  149OSM    H5F16544   5.568   4.631   2.508 -0.1804 -2.5004 -0.7729
  149OSM    H5G16545   5.423   4.602   2.415 -1.5593  0.8981 -0.7959
  149OSM    C6F16546   5.387   4.632   2.636 -1.0046 -0.1523  0.3394
  149OSM    H6F16547   5.278   4.624   2.621 -1.3727 -0.4970  2.8206
  149OSM    H6G16548   5.415   4.719   2.699  0.6341  0.6465 -1.3627
  149OSM    C7F16549   5.436   4.500   2.696  0.0005  0.6457  0.6203
  149OSM    H7F16550   5.546   4.491   2.702 -0.0796  0.1969  1.5905
  149OSM    H7G16551   5.404   4.422   2.624  0.8034  0.2348  0.7049
  149OSM    C8F16552   5.383   4.469   2.836 -0.0099  0.6637  0.6971
  149OSM    H8F16553   5.410   4.549   2.908  1.3503  0.5316  0.3669
  149OSM    H8G16554   5.424   4.374   2.877  0.3021  0.3933 -0.2118
  149OSM    C9F16555   5.233   4.452   2.850 -0.1784  0.9275  0.4282
  149OSM    H9F16556   5.162   4.516   2.797 -0.8247  0.8526  1.1862
  149OSM   C10F16557   5.170   4.358   2.927 -0.5662 -0.0328  0.1634
  149OSM   H10F16558   5.061   4.344   2.930 -0.8779  2.0604  0.3486
  149OSM   C11F16559   5.253   4.262   3.007  0.5501 -0.0434  0.5898
  149OSM   H11F16560   5.324   4.317   3.072 -0.3753  1.2060  0.6007
  149OSM   H11G16561   5.306   4.196   2.936 -0.8818 -0.8123  0.1819
  149OSM   C12F16562   5.175   4.186   3.109  0.1703  0.7800 -0.0624
  149OSM   H12F16563   5.083   4.145   3.062 -1.1202 -0.3727  3.2056
  149OSM   H12G16564   5.135   4.255   3.186 -2.8758  0.9033 -1.5908
  149OSM   C13F16565   5.255   4.069   3.172 -0.4897  0.1224 -0.1289
  149OSM   H13F16566   5.338   4.113   3.232  0.9775 -0.7043 -1.4700
  149OSM   H13G16567   5.300   3.997   3.101 -0.7745  0.3776 -0.5701
  149OSM   C14F16568   5.181   3.996   3.284 -0.2067  0.1380 -0.5992
  149OSM   H14F16569   5.120   3.905   3.263 -1.6057  0.2182  2.6371
  149OSM   H14G16570   5.103   4.058   3.333  0.9888 -1.2070  3.3489
  149OSM   C15F16571   5.272   3.948   3.396 -0.0777 -0.1612 -0.4606
  149OSM   H15F16572   5.332   4.030   3.439 -1.6355  1.1569 -0.7019
  149OSM   H15G16573   5.340   3.881   3.340  0.4601 -0.2141  0.2453
  149OSM   C16F16574   5.198   3.868   3.503  0.6192  0.3602 -0.5942
  149OSM   H16F16575   5.234   3.763   3.501  0.1782  0.2069 -3.5888
  149OSM   H16G16576   5.091   3.865   3.474  0.8466  1.4432 -1.5970
  149OSM   C17F16577   5.213   3.925   3.643 -0.8143 -0.2071  0.4472
  149OSM   H17F16578   5.320   3.940   3.666 -0.3603 -0.9244 -1.0360
  149OSM   H17G16579   5.191   3.853   3.724  0.0869  0.0220  0.9014
  149OSM   C18F16580   5.134   4.054   3.665 -0.1841  0.6304  0.0623
  149OSM   H18F16581   5.140   4.109   3.761 -0.0990  2.1903 -0.8009
  149OSM   H18G16582   5.029   4.037   3.634  0.2227 -0.8550 -0.5790
  149OSM   H18H16583   5.170   4.127   3.589  1.2803 -0.0187  0.0940
  150OSM      N16584   3.844   3.035   2.370  0.5708  1.0595  0.1020
  150OSM    C1516585   3.984   2.984   2.393 -0.3041 -0.2504 -0.0309
  150OSM   H15A16586   3.996   2.900   2.459 -1.9084 -1.4412 -1.1619
  150OSM   H15B16587   4.037   3.065   2.442 -0.3956 -0.6369  0.7209
  150OSM   H15C16588   4.031   2.964   2.298  2.9628 -3.0995  1.9405
  150OSM    C1416589   3.833   3.150   2.280 -0.3565 -0.2415 -0.0133
  150OSM   H14A16590   3.730   3.173   2.261 -0.7116  0.0208  2.0035
  150OSM   H14B16591   3.900   3.145   2.195  0.8002  1.0813  0.7901
  150OSM   H14C16592   3.879   3.230   2.335 -1.0173  0.3368 -0.3012
  150OSM    C1316593   3.770   2.926   2.295  0.8159 -0.0106 -0.0908
  150OSM   H13A16594   3.794   2.827   2.329  1.0345  0.1461  0.2238
  150OSM   H13B16595   3.799   2.915   2.192 -0.3829 -1.9898 -0.2579
  150OSM   H13C16596   3.664   2.946   2.300  0.4839 -0.9655 -2.3375
  150OSM    C1216597   3.799   3.067   2.506  0.4090  0.0087 -0.1070
  150OSM   H12A16598   3.860   3.146   2.547 -2.7413  3.1168 -0.9268
  150OSM   H12B16599   3.799   2.976   2.564  1.1811 -1.7155 -2.6270
  150OSM    C1116600   3.663   3.126   2.528 -0.3629  0.4050  1.1680
  150OSM   H11A16601   3.621   3.138   2.630 -0.4643 -1.9559  1.4456
  150OSM   H11B16602   3.585   3.057   2.490  1.5456 -1.6236  0.7483
  150OSM      P16603   3.722   3.379   2.529  0.1600  0.0178  0.4531
  150OSM    O1316604   3.869   3.361   2.535  0.5352 -0.2555 -0.2937
  150OSM    O1416605   3.675   3.494   2.449 -0.0990  0.2089  0.2536
  150OSM    O1116606   3.666   3.390   2.672  0.2371  0.0806  0.5183
  150OSM    O1216607   3.658   3.255   2.468 -0.4361  0.3211 -0.4867
  150OSM    C1S16608   3.750   3.387   2.781 -0.8079 -0.3834  0.2503
  150OSM    H1S16609   3.833   3.461   2.778 -1.1378  0.0061  0.6037
  150OSM    H1T16610   3.792   3.284   2.788  1.3156  0.3710 -0.6165
  150OSM     NF16611   3.776   3.427   3.033  0.0668  0.1010  0.6184
  150OSM    HNF16612   3.786   3.355   3.101 -0.6711 -1.2603 -0.6596
  150OSM    C2S16613   3.681   3.418   2.918 -0.0284 -0.0770 -0.9241
  150OSM    H2S16614   3.637   3.519   2.904 -0.5640 -0.4651 -2.0969
  150OSM    C3S16615   3.569   3.318   2.937 -0.1669 -0.0595 -0.4176
  150OSM    H3S16616   3.606   3.213   2.945 -1.1061 -0.3105  1.1236
  150OSM     O316617   3.480   3.315   2.830 -0.3097  0.0499 -0.0868
  150OSM    HO316618   3.527   3.367   2.765  1.3999 -1.0870  0.2005
  150OSM    C4S16619   3.500   3.356   3.070  0.4641 -0.5458  0.0036
  150OSM    H4S16620   3.553   3.324   3.161 -1.1596  1.5222  1.7725
  150OSM    C5S16621   3.393   3.430   3.091 -0.0403  0.1875  0.6608
  150OSM    H5S16622   3.361   3.486   3.002  0.3479  0.4755  0.7007
  150OSM    C6S16623   3.335   3.452   3.230  0.3445 -0.0758  0.4798
  150OSM    H6S16624   3.231   3.414   3.221  0.8230 -1.6279  1.1507
  150OSM    H6T16625   3.327   3.562   3.247 -0.1834 -0.2786  1.6953
  150OSM    C7S16626   3.403   3.396   3.356  0.2502 -0.0326 -0.5922
  150OSM    H7S16627   3.508   3.428   3.371 -0.1874  0.8032  0.9429
  150OSM    H7T16628   3.408   3.286   3.339 -1.8020 -0.5754  1.7481
  150OSM    C8S16629   3.334   3.421   3.489 -0.0291 -0.0293 -0.2424
  150OSM    H8S16630   3.341   3.527   3.518  1.4662  0.3777 -1.9177
  150OSM    H8T16631   3.395   3.363   3.562 -0.2257 -0.1016 -0.1346
  150OSM    C9S16632   3.190   3.375   3.499  0.8273  0.0730 -1.1202
  150OSM    H9S16633   3.203   3.265   3.510 -0.6848  0.1400  3.2924
  150OSM    H9T16634   3.136   3.406   3.407 -0.4475  3.1298  0.5012
  150OSM   C10S16635   3.105   3.438   3.605  0.3418 -0.1410 -0.3349
  150OSM   H10S16636   3.019   3.373   3.632 -0.9561  1.4293 -0.5308
  150OSM   H10T16637   3.049   3.527   3.569 -1.2845  1.3517  4.9307
  150OSM   C11S16638   3.169   3.486   3.741 -0.2059  0.5930 -0.3039
  150OSM   H11S16639   3.254   3.553   3.717 -0.6848  1.3465  0.0715
  150OSM   H11T16640   3.202   3.404   3.808  0.0455  0.0876 -1.0365
  150OSM   C12S16641   3.078   3.574   3.829  0.4980 -0.3749  0.0488
  150OSM   H12S16642   2.999   3.502   3.858 -0.0962  0.0264 -0.5369
  150OSM   H12T16643   3.032   3.650   3.761  0.0026  1.1786  2.0250
  150OSM   C13S16644   3.150   3.639   3.941 -0.1009  0.5192 -0.1590
  150OSM   H13S16645   3.082   3.723   3.967  0.5447  0.7554  0.7818
  150OSM   H13T16646   3.245   3.672   3.894 -0.3307  0.8525 -0.3987
  150OSM   C14S16647   3.179   3.555   4.064 -0.0815  0.1179 -0.5483
  150OSM   H14S16648   3.258   3.481   4.042  0.4876  0.6789 -0.4271
  150OSM   H14T16649   3.085   3.507   4.099 -0.9826  3.0417  1.4803
  150OSM   C15S16650   3.232   3.649   4.172 -0.3962 -0.0184  0.7432
  150OSM   H15S16651   3.140   3.693   4.216  0.1006 -0.2286  2.0226
  150OSM   H15T16652   3.284   3.733   4.122 -0.4353 -0.5464 -0.2311
  150OSM   C16S16653   3.330   3.589   4.274  0.4016 -0.1351  0.1676
  150OSM   H16S16654   3.371   3.661   4.349 -2.0383  0.6639  0.8230
  150OSM   H16T16655   3.411   3.543   4.215  0.1394 -0.3096 -0.0573
  150OSM   C17S16656   3.259   3.483   4.363 -0.2533  0.1584  0.4688
  150OSM   H17S16657   3.327   3.412   4.413 -0.2065  0.8490  1.4263
  150OSM   H17T16658   3.183   3.427   4.305  0.0037  1.2921 -1.0300
  150OSM   C18S16659   3.183   3.552   4.477  0.0447  1.0386  0.1744
  150OSM   H18S16660   3.143   3.650   4.443  0.4772  1.3711  0.6016
  150OSM   H18T16661   3.254   3.576   4.559 -1.5934  1.9447  1.4095
  150OSM   H18U16662   3.104   3.486   4.518 -1.0019  1.0791 -1.6520
  150OSM    C1F16663   3.868   3.528   3.037 -0.0840 -0.2859 -0.3775
  150OSM     OF16664   3.853   3.612   2.952 -0.4691 -0.5963  0.3029
  150OSM    C2F16665   3.973   3.531   3.148 -0.0087  0.1041 -0.1998
  150OSM    H2F16666   4.073   3.496   3.113 -0.6017 -1.6301 -0.2789
  150OSM    H2G16667   3.963   3.468   3.238  1.4533 -0.0993 -0.1493
  150OSM    C3F16668   3.979   3.675   3.205 -0.8987  0.0500 -0.5023
  150OSM    H3F16669   3.885   3.718   3.246 -0.5467  1.1244 -0.7898
  150OSM    H3G16670   4.005   3.753   3.130 -0.9441  1.3245  0.7751
  150OSM    C4F16671   4.077   3.683   3.322  0.3567 -0.1738 -0.5728
  150OSM    H4F16672   4.103   3.790   3.315 -0.2331  0.2545  2.3569
  150OSM    H4G16673   4.161   3.610   3.312  0.3379 -0.0938 -1.3127
  150OSM    C5F16674   4.003   3.666   3.459 -0.5278 -0.3474 -0.1119
  150OSM    H5F16675   3.977   3.559   3.474 -1.3118 -0.2665 -0.8062
  150OSM    H5G16676   3.918   3.736   3.475 -0.2223  0.1686 -0.7306
  150OSM    C6F16677   4.081   3.708   3.589  0.5094  0.3887 -0.0542
  150OSM    H6F16678   4.127   3.807   3.573 -0.9823  1.1589  0.3016
  150OSM    H6G16679   4.165   3.637   3.606 -0.6580 -1.1749 -0.5100
  150OSM    C7F16680   3.993   3.715   3.715 -0.0689 -0.3711  0.3993
  150OSM    H7F16681   3.942   3.618   3.733 -0.3860 -0.3727 -0.4851
  150OSM    H7G16682   3.912   3.779   3.676  0.4170 -0.4949 -0.8538
  150OSM    C8F16683   4.059   3.774   3.841 -0.0815  0.0609  0.2380
  150OSM    H8F16684   3.985   3.782   3.924  0.7180 -1.5992  1.1638
  150OSM    H8G16685   4.098   3.877   3.829  1.1003 -0.3461  0.3837
  150OSM    C9F16686   4.167   3.691   3.901 -0.3189 -0.3054  0.6245
  150OSM    H9F16687   4.136   3.606   3.963 -1.4728 -1.0637 -0.8975
  150OSM   C10F16688   4.301   3.708   3.894  0.4538  0.4368 -0.9943
  150OSM   H10F16689   4.371   3.635   3.937 -2.4744 -1.5512  0.8676
  150OSM   C11F16690   4.371   3.813   3.829 -0.4019  0.0617  0.6098
  150OSM   H11F16691   4.415   3.888   3.898  0.3413  0.3128 -0.1079
  150OSM   H11G16692   4.300   3.876   3.772 -1.7702 -0.1249  2.0435
  150OSM   C12F16693   4.488   3.759   3.746 -0.5340 -0.0568  0.3173
  150OSM   H12F16694   4.565   3.700   3.800 -0.1731 -1.7654 -1.8981
  150OSM   H12G16695   4.551   3.846   3.718  0.2600 -0.9470 -0.7736
  150OSM   C13F16696   4.453   3.703   3.614  0.1473 -0.5587  0.0564
  150OSM   H13F16697   4.402   3.780   3.553 -1.1326  0.6118  2.4485
  150OSM   H13G16698   4.385   3.617   3.629 -2.4611  1.7899  3.2722
  150OSM   C14F16699   4.577   3.638   3.538  0.4532 -0.8531  0.5513
  150OSM   H14F16700   4.607   3.561   3.611 -0.3750 -0.9335  0.8132
  150OSM   H14G16701   4.648   3.721   3.518 -0.4416 -0.4942 -1.4268
  150OSM   C15F16702   4.532   3.570   3.405  0.1509  0.6753  0.1781
  150OSM   H15F16703   4.459   3.496   3.446  2.1568 -1.2222  0.5068
  150OSM   H15G16704   4.620   3.517   3.362  0.7220  1.2581  0.6187
  150OSM   C16F16705   4.470   3.656   3.300 -0.4465 -0.1367 -0.0521
  150OSM   H16F16706   4.550   3.721   3.261  0.1399 -0.1492  1.1045
  150OSM   H16G16707   4.386   3.716   3.339 -1.7590 -0.7310 -1.8119
  150OSM   C17F16708   4.418   3.564   3.191  0.1692  0.1725 -0.1928
  150OSM   H17F16709   4.340   3.499   3.236  0.8896  0.5184  1.6377
  150OSM   H17G16710   4.499   3.503   3.146 -0.8194 -0.5089 -1.1097
  150OSM   C18F16711   4.366   3.633   3.068 -0.4406 -0.7309  0.0334
  150OSM   H18F16712   4.274   3.689   3.098  0.3537  0.4282  0.3685
  150OSM   H18G16713   4.341   3.556   2.992 -2.3239  0.3479 -0.5062
  150OSM   H18H16714   4.440   3.702   3.023  0.2033 -0.1770  1.8381
  151OSM      N16715   3.630   5.268   1.985 -0.3249  0.8210  0.2121
  151OSM    C1516716   3.776   5.308   1.960  0.1586 -0.1455 -0.5455
  151OSM   H15A16717   3.839   5.220   1.960  0.3556 -0.0057 -0.6550
  151OSM   H15B16718   3.808   5.386   2.027 -0.0583 -0.7059  0.2290
  151OSM   H15C16719   3.780   5.342   1.858 -0.5893 -0.8961 -0.8378
  151OSM    C1416720   3.554   5.393   1.958 -0.0469  0.2188  0.4049
  151OSM   H14A16721   3.580   5.431   1.860 -1.4267 -0.1110 -0.1254
  151OSM   H14B16722   3.552   5.467   2.037 -1.8059 -2.3441  2.9685
  151OSM   H14C16723   3.448   5.373   1.948  0.2436 -0.9926 -0.4589
  151OSM    C1316724   3.595   5.162   1.888 -0.1976 -0.0840 -0.3147
  151OSM   H13A16725   3.646   5.070   1.912  2.0552  1.7271  2.5176
  151OSM   H13B16726   3.620   5.191   1.788  0.2204 -0.1977 -0.2428
  151OSM   H13C16727   3.487   5.151   1.890 -0.2575  0.5281  0.4049
  151OSM    C1216728   3.619   5.233   2.134 -0.2743  0.1364 -0.1065
  151OSM   H12A16729   3.514   5.221   2.155 -0.4390 -0.9105 -1.4172
  151OSM   H12B16730   3.644   5.320   2.193 -0.9940  0.0378  0.3573
  151OSM    C1116731   3.712   5.112   2.176  0.3710 -0.1661 -0.4891
  151OSM   H11A16732   3.733   5.124   2.285  0.7253  0.7216 -0.6515
  151OSM   H11B16733   3.819   5.117   2.146  1.1190  2.8494  2.1669
  151OSM      P16734   3.573   4.895   2.210 -0.5511 -0.2190  0.5166
  151OSM    O1316735   3.452   4.961   2.255 -0.2813  0.3003 -0.4067
  151OSM    O1416736   3.561   4.770   2.124  0.4541 -0.4062 -0.0357
  151OSM    O1116737   3.652   4.864   2.336 -0.6313  0.5728 -0.2768
  151OSM    O1216738   3.667   4.985   2.132 -0.0172  0.6198 -0.6660
  151OSM    C1S16739   3.581   4.861   2.460  0.3482 -0.4348 -0.0715
  151OSM    H1S16740   3.505   4.780   2.465  0.4084 -0.4684  0.3491
  151OSM    H1T16741   3.521   4.953   2.477  0.5401  0.1971 -2.4480
  151OSM     NF16742   3.614   4.833   2.698  0.2193 -0.2296 -0.0205
  151OSM    HNF16743   3.571   4.904   2.753 -0.5078 -1.8673  1.6380
  151OSM    C2S16744   3.687   4.860   2.579 -0.2743  0.3894  0.1574
  151OSM    H2S16745   3.753   4.773   2.557 -2.6328 -1.0702 -1.6887
  151OSM    C3S16746   3.768   4.989   2.574 -0.0139  0.2570 -0.5628
  151OSM    H3S16747   3.693   5.070   2.567  1.5783  1.6849 -1.8989
  151OSM     O316748   3.843   4.999   2.454 -0.4881  0.2850 -0.5174
  151OSM    HO316749   3.788   4.959   2.386 -0.3192 -0.5765 -0.1639
  151OSM    C4S16750   3.841   5.037   2.690  0.0206 -0.3580 -0.6752
  151OSM    H4S16751   3.778   5.095   2.759 -2.6675 -0.7062 -2.6879
  151OSM    C5S16752   3.968   5.014   2.723  0.2197  0.7931 -0.3648
  151OSM    H5S16753   4.031   4.947   2.663 -0.2405  0.5978 -0.6379
  151OSM    C6S16754   4.036   5.057   2.849  1.0067 -0.3042  0.3496
  151OSM    H6S16755   3.980   5.142   2.895  0.4531  0.1333 -1.0483
  151OSM    H6T16756   4.134   5.103   2.827  0.4123  1.4856  1.2227
  151OSM    C7S16757   4.055   4.942   2.947 -0.5174 -0.1225  0.1002
  151OSM    H7S16758   4.128   4.875   2.897 -1.9383 -0.9075 -1.0101
  151OSM    H7T16759   3.957   4.892   2.964 -2.1546  1.9767 -2.3527
  151OSM    C8S16760   4.106   4.988   3.081  0.1664 -0.6759 -0.1065
  151OSM    H8S16761   4.038   5.064   3.125  2.4030  2.6969 -1.9541
  151OSM    H8T16762   4.200   5.045   3.063 -0.4662  0.2317 -0.5959
  151OSM    C9S16763   4.121   4.874   3.185  0.2359  0.5404 -0.1311
  151OSM    H9S16764   4.199   4.803   3.151 -0.7747 -0.8071  0.3089
  151OSM    H9T16765   4.029   4.815   3.205  1.5866 -1.5153  0.3323
  151OSM   C10S16766   4.184   4.914   3.321  0.2115  0.4411  0.4570
  151OSM   H10S16767   4.107   4.974   3.375 -0.1356 -0.7341  1.3120
  151OSM   H10T16768   4.281   4.967   3.310  1.1941 -1.6533 -1.6850
  151OSM   C11S16769   4.209   4.804   3.422  0.8651  0.7163  0.1667
  151OSM   H11S16770   4.252   4.712   3.376 -2.1693 -1.7005  1.7552
  151OSM   H11T16771   4.111   4.765   3.457  0.9677  0.3733  0.0718
  151OSM   C12S16772   4.294   4.845   3.545  0.2703  0.4041 -0.1912
  151OSM   H12S16773   4.225   4.907   3.606 -0.0367  1.0229 -1.1449
  151OSM   H12T16774   4.389   4.890   3.509  0.5487 -0.9327 -1.2180
  151OSM   C13S16775   4.340   4.729   3.634 -0.4583 -0.4490 -0.5283
  151OSM   H13S16776   4.251   4.668   3.661 -0.6688 -1.1890 -2.6601
  151OSM   H13T16777   4.378   4.777   3.726 -1.5100 -0.1591 -0.2311
  151OSM   C14S16778   4.450   4.632   3.578  0.1606  0.8998 -0.0909
  151OSM   H14S16779   4.520   4.695   3.518  0.8401 -1.1535 -1.5478
  151OSM   H14T16780   4.390   4.558   3.522 -1.1726  2.3186 -0.6225
  151OSM   C15S16781   4.541   4.556   3.676 -0.4687 -0.8196 -0.7320
  151OSM   H15S16782   4.592   4.476   3.619  0.6294  1.1894 -2.7267
  151OSM   H15T16783   4.471   4.502   3.744 -2.2075  1.9793 -0.1223
  151OSM   C16S16784   4.646   4.642   3.751  1.0508 -0.5382  0.2312
  151OSM   H16S16785   4.605   4.744   3.764  0.9289 -0.7139  1.2316
  151OSM   H16T16786   4.742   4.648   3.694  1.5956  1.3706  1.2901
  151OSM   C17S16787   4.677   4.587   3.891 -0.1428 -0.1396  0.3025
  151OSM   H17S16788   4.716   4.484   3.874  2.1633  0.4560  1.5310
  151OSM   H17T16789   4.576   4.578   3.937  0.9217 -1.1655  2.6035
  151OSM   C18S16790   4.772   4.673   3.976 -0.1959 -0.2800 -0.0534
  151OSM   H18S16791   4.873   4.688   3.933 -0.4540  2.0680  0.0372
  151OSM   H18T16792   4.772   4.623   4.076  1.8641 -0.9115 -0.3166
  151OSM   H18U16793   4.730   4.774   3.992 -1.0124 -0.4635 -0.9725
  151OSM    C1F16794   3.563   4.718   2.723 -0.1291 -1.1948 -0.0309
  151OSM     OF16795   3.593   4.619   2.667 -0.6006 -0.2811  0.4858
  151OSM    C2F16796   3.458   4.725   2.828 -0.0438  0.0482  0.3371
  151OSM    H2F16797   3.393   4.634   2.830  1.7095 -1.2827 -0.5872
  151OSM    H2G16798   3.396   4.816   2.810  0.9748  0.6918  0.0332
  151OSM    C3F16799   3.512   4.736   2.971 -0.2636 -0.6004  0.1122
  151OSM    H3F16800   3.548   4.840   2.989  0.3403 -0.8650  0.4721
  151OSM    H3G16801   3.603   4.672   2.982 -0.2214 -1.0483 -2.1853
  151OSM    C4F16802   3.416   4.686   3.077  0.1573 -0.1589 -0.2132
  151OSM    H4F16803   3.405   4.577   3.062 -0.0122 -0.0388 -1.0041
  151OSM    H4G16804   3.319   4.739   3.071 -0.5208 -1.3809 -0.3066
  151OSM    C5F16805   3.466   4.733   3.212 -0.5581 -0.0225  0.5591
  151OSM    H5F16806   3.468   4.844   3.217 -0.0435 -0.0644  1.6553
  151OSM    H5G16807   3.573   4.710   3.233  0.0266  2.1893  0.2288
  151OSM    C6F16808   3.373   4.685   3.322 -0.5090  0.3050 -0.7197
  151OSM    H6F16809   3.382   4.574   3.326 -0.3960  0.3419  0.0722
  151OSM    H6G16810   3.269   4.713   3.294 -0.3775 -0.5646 -2.2084
  151OSM    C7F16811   3.399   4.743   3.457 -0.7537  0.1793 -0.0406
  151OSM    H7F16812   3.395   4.854   3.454  0.4611  0.3385  2.1485
  151OSM    H7G16813   3.502   4.725   3.494 -0.9121  2.3106  1.5804
  151OSM    C8F16814   3.319   4.686   3.574 -0.0932 -0.2373  1.4465
  151OSM    H8F16815   3.340   4.577   3.578 -0.0300 -0.3142 -0.4347
  151OSM    H8G16816   3.217   4.713   3.540  0.9866  0.1090 -1.9278
  151OSM    C9F16817   3.361   4.750   3.701 -0.4670 -0.0411  0.2730
  151OSM    H9F16818   3.434   4.832   3.697 -1.0058  0.3920 -1.5405
  151OSM   C10F16819   3.319   4.704   3.826  1.4370 -0.0515  0.5789
  151OSM   H10F16820   3.352   4.757   3.917  3.1093  1.2453 -0.7131
  151OSM   C11F16821   3.219   4.590   3.849 -0.3608  0.1888 -0.0696
  151OSM   H11F16822   3.188   4.565   3.746  0.5240  2.6358 -1.0116
  151OSM   H11G16823   3.129   4.619   3.907  0.8445 -1.7424  3.0220
  151OSM   C12F16824   3.291   4.469   3.918 -0.6229  0.2072  0.2224
  151OSM   H12F16825   3.370   4.435   3.847  1.1298 -1.4542  2.7922
  151OSM   H12G16826   3.228   4.378   3.930 -0.2555 -0.4728 -2.3299
  151OSM   C13F16827   3.360   4.498   4.056 -0.1496  0.6301  0.0866
  151OSM   H13F16828   3.448   4.562   4.035  0.4427  0.7259  2.5669
  151OSM   H13G16829   3.395   4.400   4.095 -1.6799  0.8302  2.1548
  151OSM   C14F16830   3.278   4.578   4.157 -0.0816  0.1553 -0.3921
  151OSM   H14F16831   3.276   4.684   4.125 -2.7983  0.6562  1.1691
  151OSM   H14G16832   3.325   4.566   4.257 -0.1689 -2.6562 -0.5982
  151OSM   C15F16833   3.131   4.535   4.175  0.8145  0.1562 -0.5743
  151OSM   H15F16834   3.147   4.426   4.191  3.0546  0.3091 -1.5261
  151OSM   H15G16835   3.068   4.563   4.088 -0.3679 -1.3822 -0.2619
  151OSM   C16F16836   3.057   4.608   4.294 -0.0376 -0.2455  0.2133
  151OSM   H16F16837   3.043   4.714   4.263  0.9459 -0.0827  0.2832
  151OSM   H16G16838   3.112   4.610   4.390  0.1987  1.9902  0.0906
  151OSM   C17F16839   2.926   4.541   4.321 -0.2407  0.8537  0.2607
  151OSM   H17F16840   2.881   4.512   4.223  1.4762  1.0521 -0.6343
  151OSM   H17G16841   2.859   4.616   4.369  1.8002  2.4699  0.7451
  151OSM   C18F16842   2.929   4.412   4.407 -0.5640  0.1102  0.3349
  151OSM   H18F16843   2.825   4.375   4.395  0.1022 -1.2791 -1.4993
  151OSM   H18G16844   2.948   4.447   4.511  0.9506 -3.0471  1.2369
  151OSM   H18H16845   3.007   4.342   4.371 -1.6365  0.6794 -3.4850
  152OSM      N16846   0.697   6.095   2.574  0.0585  0.7678  0.2693
  152OSM    C1516847   0.673   6.151   2.432 -0.1985  0.4077 -0.4157
  152OSM   H15A16848   0.735   6.238   2.416  0.6535 -0.1944 -0.4053
  152OSM   H15B16849   0.566   6.169   2.430 -0.4682 -0.8388  0.9065
  152OSM   H15C16850   0.689   6.077   2.356  2.1890 -1.5885  1.8420
  152OSM    C1416851   0.629   5.961   2.586 -0.3668 -0.0713 -0.5238
  152OSM   H14A16852   0.624   5.935   2.691  2.2533  2.2725  0.3412
  152OSM   H14B16853   0.678   5.880   2.534 -2.6362 -0.7048 -1.7856
  152OSM   H14C16854   0.533   5.965   2.538 -0.7647 -0.7845  0.1867
  152OSM    C1316855   0.845   6.082   2.582 -0.1274 -0.1578  0.7786
  152OSM   H13A16856   0.863   6.027   2.673 -1.2150 -1.2149  0.3734
  152OSM   H13B16857   0.896   6.177   2.592  0.5084 -0.6236  2.2299
  152OSM   H13C16858   0.876   6.024   2.497 -3.1645  2.2895 -2.2824
  152OSM    C1216859   0.640   6.173   2.680 -0.0640  0.8534  0.4442
  152OSM   H12A16860   0.688   6.270   2.679  0.1064  0.7817  1.1809
  152OSM   H12B16861   0.677   6.132   2.773  2.3695  1.7792 -0.0401
  152OSM    C1116862   0.484   6.191   2.685  0.0261 -0.5529  0.0224
  152OSM   H11A16863   0.475   6.244   2.782  0.7827  0.9536 -0.6899
  152OSM   H11B16864   0.431   6.095   2.697 -1.4179  0.0334 -1.3017
  152OSM      P16865   0.417   6.426   2.589 -0.1450  0.2697 -0.2853
  152OSM    O1316866   0.528   6.479   2.663  0.0209  0.3568  0.2083
  152OSM    O1416867   0.402   6.474   2.450  0.1533  0.2074  0.2828
  152OSM    O1116868   0.282   6.435   2.670 -0.4909  0.0684 -0.2533
  152OSM    O1216869   0.435   6.269   2.574 -0.4889  0.2914 -0.4577
  152OSM    C1S16870   0.202   6.321   2.716  0.0368 -0.1091 -0.7094
  152OSM    H1S16871   0.266   6.264   2.786  0.2474  2.9279  1.8464
  152OSM    H1T16872   0.166   6.255   2.635 -0.1794  0.1363 -0.8165
  152OSM     NF16873   0.009   6.257   2.858 -0.2108 -0.2141 -0.1725
  152OSM    HNF16874  -0.081   6.246   2.816  0.1868 -1.4300 -0.7330
  152OSM    C2S16875   0.080   6.371   2.797 -0.4052  0.1155 -0.5018
  152OSM    H2S16876   0.114   6.440   2.877 -0.6056  1.2082 -1.3288
  152OSM    C3S16877  -0.016   6.460   2.713 -0.2664  0.0156  0.3789
  152OSM    H3S16878  -0.041   6.412   2.616  0.5526  0.2401  0.0469
  152OSM     O316879   0.050   6.586   2.685 -0.1398  0.0907 -0.1803
  152OSM    HO316880   0.143   6.565   2.694  0.0542  0.4513 -1.1511
  152OSM    C4S16881  -0.140   6.481   2.780  0.1546  0.7407 -0.9944
  152OSM    H4S16882  -0.218   6.428   2.724 -0.8922 -0.2540  1.2600
  152OSM    C5S16883  -0.160   6.555   2.889  0.1822  0.0344 -0.1954
  152OSM    H5S16884  -0.076   6.612   2.932  1.4006 -1.3684 -0.6491
  152OSM    C6S16885  -0.294   6.568   2.957 -0.9189  0.3326  0.8217
  152OSM    H6S16886  -0.350   6.652   2.911 -1.5889  0.1823  1.3416
  152OSM    H6T16887  -0.275   6.586   3.065 -3.4878 -1.1449  1.6256
  152OSM    C7S16888  -0.374   6.433   2.954  0.0760 -0.0492  0.3167
  152OSM    H7S16889  -0.312   6.348   2.990  0.5254  0.9841  2.1199
  152OSM    H7T16890  -0.399   6.416   2.847 -0.8261  0.9255  0.3532
  152OSM    C8S16891  -0.511   6.435   3.018 -0.0050  0.0861 -0.6825
  152OSM    H8S16892  -0.573   6.355   2.972 -0.1120 -1.2587  1.6442
  152OSM    H8T16893  -0.554   6.536   3.001 -0.0576 -0.1197 -1.8660
  152OSM    C9S16894  -0.504   6.413   3.169  0.1107 -0.2570  0.4994
  152OSM    H9S16895  -0.435   6.494   3.202 -1.3019  1.5276 -0.6648
  152OSM    H9T16896  -0.469   6.312   3.197 -0.4258 -0.8988 -1.0172
  152OSM   C10S16897  -0.641   6.429   3.243  0.0317  0.8111  0.1245
  152OSM   H10S16898  -0.709   6.343   3.225  1.2433 -0.3972  1.0928
  152OSM   H10T16899  -0.685   6.525   3.208 -0.7110  0.4713  0.1148
  152OSM   C11S16900  -0.609   6.454   3.390  0.2006 -0.0565 -0.3833
  152OSM   H11S16901  -0.505   6.483   3.414 -0.7677 -0.0098  4.8943
  152OSM   H11T16902  -0.628   6.357   3.441 -1.1969 -0.2960 -1.2920
  152OSM   C12S16903  -0.696   6.569   3.459 -0.0217 -0.2714  0.4476
  152OSM   H12S16904  -0.730   6.651   3.393 -0.8254 -0.1342  1.0115
  152OSM   H12T16905  -0.634   6.611   3.541 -1.6416 -0.8050  2.0312
  152OSM   C13S16906  -0.815   6.514   3.544 -0.3978 -0.7728 -0.2010
  152OSM   H13S16907  -0.884   6.453   3.482  2.1884 -1.0047 -3.0819
  152OSM   H13T16908  -0.881   6.601   3.562 -2.7013 -2.1490 -1.4861
  152OSM   C14S16909  -0.771   6.440   3.675  0.8312 -0.1472 -0.4619
  152OSM   H14S16910  -0.682   6.486   3.724  0.8687 -1.2224  0.5011
  152OSM   H14T16911  -0.743   6.337   3.645 -1.5013 -0.8342 -0.5155
  152OSM   C15S16912  -0.888   6.427   3.774 -0.0958 -0.2327  0.0117
  152OSM   H15S16913  -0.976   6.375   3.730 -0.5759 -1.3492  2.1451
  152OSM   H15T16914  -0.916   6.533   3.790  0.5728  0.0944 -0.9115
  152OSM   C16S16915  -0.839   6.362   3.904 -0.1760  1.0140 -1.0122
  152OSM   H16S16916  -0.755   6.411   3.956  0.8001 -2.2190  0.7717
  152OSM   H16T16917  -0.796   6.261   3.884 -0.4755  0.6009  0.2721
  152OSM   C17S16918  -0.950   6.357   4.012  0.5705 -0.5097  0.0436
  152OSM   H17S16919  -1.032   6.302   3.961  0.4535 -1.0073  0.7438
  152OSM   H17T16920  -0.986   6.459   4.033  0.9350  0.0592 -1.9245
  152OSM   C18S16921  -0.913   6.271   4.132  0.2126  0.0054 -0.1194
  152OSM   H18S16922  -0.995   6.276   4.208 -0.3160 -3.7517 -0.2884
  152OSM   H18T16923  -0.828   6.320   4.184 -1.0237  1.4100  0.6866
  152OSM   H18U16924  -0.903   6.164   4.105 -1.9394 -1.0888  2.8104
  152OSM    C1F16925   0.055   6.161   2.944  0.1360  0.0634  0.1715
  152OSM     OF16926   0.169   6.139   2.955 -0.6317 -0.4443 -0.3276
  152OSM    C2F16927  -0.049   6.068   3.007 -0.3173  0.0816  0.0976
  152OSM    H2F16928  -0.076   5.981   2.944 -0.3509  0.7571 -0.8308
  152OSM    H2G16929  -0.138   6.131   3.026  0.5469  1.5946 -0.6896
  152OSM    C3F16930   0.008   6.020   3.138  0.2891 -0.1304 -0.5014
  152OSM    H3F16931   0.033   6.107   3.203 -0.1995  0.6941 -1.3819
  152OSM    H3G16932   0.103   5.963   3.129  0.5254  0.2423 -0.4337
  152OSM    C4F16933  -0.069   5.929   3.229  0.0708 -0.3674 -0.0364
  152OSM    H4F16934  -0.087   5.831   3.181 -0.9543 -0.6302  0.8490
  152OSM    H4G16935  -0.166   5.976   3.257 -0.9642 -0.0461 -3.6848
  152OSM    C5F16936   0.014   5.892   3.351  0.4357  0.3158 -0.0190
  152OSM    H5F16937   0.038   5.986   3.406 -0.4367 -0.4434  1.7508
  152OSM    H5G16938   0.100   5.826   3.329 -1.5353 -2.2687 -0.5301
  152OSM    C6F16939  -0.064   5.808   3.463 -0.2372 -0.1928  0.3867
  152OSM    H6F16940  -0.080   5.709   3.415  1.5829 -0.2510 -0.1919
  152OSM    H6G16941  -0.155   5.862   3.497  0.9818  1.6655  0.8173
  152OSM    C7F16942   0.033   5.787   3.580  0.2450 -0.4899  0.4081
  152OSM    H7F16943   0.058   5.891   3.611  0.5898  1.5691 -5.4664
  152OSM    H7G16944   0.125   5.746   3.533  0.0981 -0.4159  0.0506
  152OSM    C8F16945  -0.005   5.684   3.691  0.6324 -1.3122 -0.3475
  152OSM    H8F16946   0.089   5.667   3.747  0.5856  0.3209  0.3070
  152OSM    H8G16947  -0.036   5.588   3.646  1.7005 -0.1985 -3.7173
  152OSM    C9F16948  -0.112   5.745   3.779 -0.3187  0.3594 -0.5203
  152OSM    H9F16949  -0.188   5.795   3.717  0.6661  2.6059  0.0102
  152OSM   C10F16950  -0.101   5.767   3.910  0.0210 -0.3664 -0.3198
  152OSM   H10F16951  -0.195   5.790   3.962 -0.0300 -0.7676 -0.2308
  152OSM   C11F16952   0.009   5.713   4.005  0.3162 -0.1421 -1.0750
  152OSM   H11F16953   0.035   5.785   4.085 -0.4604 -0.1858 -0.7753
  152OSM   H11G16954   0.109   5.710   3.957  0.2403  0.6198 -1.2997
  152OSM   C12F16955  -0.038   5.579   4.064 -1.2564  0.0948  0.0617
  152OSM   H12F16956   0.045   5.511   4.092 -0.3145  0.9606 -0.6003
  152OSM   H12G16957  -0.103   5.524   3.993 -1.0800  0.6834 -0.5678
  152OSM   C13F16958  -0.140   5.596   4.180  0.1317  0.4950  0.3712
  152OSM   H13F16959  -0.237   5.638   4.146  0.4916  1.7573  0.8456
  152OSM   H13G16960  -0.095   5.651   4.266 -0.6917  2.0155 -0.1301
  152OSM   C14F16961  -0.178   5.460   4.242  0.0418  0.7839 -0.5634
  152OSM   H14F16962  -0.227   5.404   4.159 -2.6148  0.7594  0.9017
  152OSM   H14G16963  -0.261   5.471   4.316  0.3275 -0.1948 -0.0707
  152OSM   C15F16964  -0.071   5.367   4.300  0.0376 -0.2733 -0.3771
  152OSM   H15F16965  -0.013   5.317   4.219  1.8586 -0.2524  0.8538
  152OSM   H15G16966  -0.128   5.286   4.352  0.5545  0.4895  1.4536
  152OSM   C16F16967   0.017   5.438   4.408  0.5295  0.4450  0.3509
  152OSM   H16F16968  -0.053   5.491   4.475  0.7144 -0.1569  1.0399
  152OSM   H16G16969   0.083   5.501   4.344 -0.8877 -0.7718 -2.5024
  152OSM   C17F16970   0.109   5.342   4.492  0.7454  0.0779 -0.0350
  152OSM   H17F16971   0.179   5.401   4.555 -1.3107  0.9312  1.5745
  152OSM   H17G16972   0.151   5.282   4.409 -2.3918  1.1517 -2.6208
  152OSM   C18F16973   0.019   5.252   4.582  0.3628 -0.2119  1.3002
  152OSM   H18F16974  -0.052   5.318   4.635 -0.1975 -0.7459  1.2216
  152OSM   H18G16975   0.067   5.185   4.656 -1.7284 -1.6472  1.4304
  152OSM   H18H16976  -0.042   5.180   4.524  1.3858  0.1132 -0.2396
  153OSM      N16977   4.708   6.784   2.390  0.3901 -0.4286  0.4439
  153OSM    C1516978   4.802   6.714   2.484 -0.8003 -0.0997 -0.1667
  153OSM   H15A16979   4.743   6.663   2.559  0.0823  1.1905  1.4833
  153OSM   H15B16980   4.875   6.777   2.534  0.6260 -0.3414 -1.8292
  153OSM   H15C16981   4.861   6.641   2.430  0.4483  0.2335  0.6951
  153OSM    C1416982   4.682   6.923   2.445  0.1274 -0.3605 -0.0374
  153OSM   H14A16983   4.644   6.918   2.546 -1.3300 -2.9910 -0.6169
  153OSM   H14B16984   4.631   6.986   2.374  1.8496  0.0372 -0.9622
  153OSM   H14C16985   4.776   6.972   2.462 -0.3146 -0.0296  1.5971
  153OSM    C1316986   4.788   6.804   2.263  0.0294 -0.0219  0.1103
  153OSM   H13A16987   4.877   6.860   2.288  0.8701 -1.1659 -0.2243
  153OSM   H13B16988   4.733   6.871   2.198  1.3513 -1.0661 -2.2335
  153OSM   H13C16989   4.816   6.709   2.219 -1.1951 -0.1718 -0.3823
  153OSM    C1216990   4.574   6.710   2.359 -0.5055  0.6050  0.0779
  153OSM   H12A16991   4.605   6.623   2.303  0.0697 -0.1601  1.5382
  153OSM   H12B16992   4.516   6.770   2.290 -0.6936  0.4686  0.1170
  153OSM    C1116993   4.487   6.674   2.484  0.3170  0.4675 -0.7214
  153OSM   H11A16994   4.385   6.645   2.449  0.3307  0.2227 -0.5567
  153OSM   H11B16995   4.492   6.762   2.552  0.3325 -0.6056  0.7051
  153OSM      P16996   4.553   6.425   2.496  0.0869 -0.3320  0.3369
  153OSM    O1316997   4.440   6.346   2.548  0.0051 -0.4674  0.0547
  153OSM    O1416998   4.558   6.427   2.349  0.3623  0.1393 -0.5707
  153OSM    O1116999   4.683   6.358   2.545  0.0798  0.9575 -0.0623
  153OSM    O1217000   4.553   6.569   2.555 -0.4550 -0.8685 -0.4314
  153OSM    C1S17001   4.732   6.382   2.681  0.6153  0.1441 -0.5844
  153OSM    H1S17002   4.706   6.483   2.719 -0.2839 -0.6726  1.0928
  153OSM    H1T17003   4.843   6.384   2.675  0.5564  0.3228 -2.4902
  153OSM     NF17004   4.766   6.300   2.909  1.1645  0.0702  0.2455
  153OSM    HNF17005   4.847   6.242   2.910  0.2002 -1.3634 -1.0542
  153OSM    C2S17006   4.692   6.276   2.784  0.4978 -0.9223 -0.1485
  153OSM    H2S17007   4.587   6.287   2.818  0.9236 -0.7621  1.1709
  153OSM    C3S17008   4.711   6.144   2.721  0.0055  0.4212  0.0775
  153OSM    H3S17009   4.802   6.145   2.658  0.5591  1.6586  0.8557
  153OSM     O317010   4.612   6.111   2.626  0.2048  0.3008  0.8121
  153OSM    HO317011   4.583   6.199   2.604  2.3531  0.6710 -0.7609
  153OSM    C4S17012   4.713   6.032   2.811  0.6994  0.1278  0.6088
  153OSM    H4S17013   4.618   6.011   2.864  0.2192 -2.7402 -1.1478
  153OSM    C5S17014   4.823   5.960   2.841 -0.8703  0.0100  0.9219
  153OSM    H5S17015   4.923   5.985   2.804 -1.3502 -0.4688 -0.8292
  153OSM    C6S17016   4.822   5.861   2.950  0.5471  0.2624  0.0576
  153OSM    H6S17017   4.924   5.851   2.994  0.9272  0.4363 -0.7786
  153OSM    H6T17018   4.791   5.764   2.904  0.4190 -0.9830  2.5451
  153OSM    C7S17019   4.748   5.896   3.079 -0.0674  0.4398  0.1852
  153OSM    H7S17020   4.755   5.803   3.140 -3.1578  0.1059  0.2242
  153OSM    H7T17021   4.639   5.895   3.057 -0.1521 -0.1212  0.5924
  153OSM    C8S17022   4.802   6.013   3.153 -0.7667  0.0338  0.4343
  153OSM    H8S17023   4.820   6.104   3.092 -2.2849 -0.6079 -1.0674
  153OSM    H8T17024   4.901   5.980   3.190 -1.0452 -0.0132  1.1601
  153OSM    C9S17025   4.723   6.041   3.275 -0.3036  0.4245 -0.6952
  153OSM    H9S17026   4.666   5.950   3.303  0.5554  0.5004  1.5851
  153OSM    H9T17027   4.649   6.120   3.252  0.3809  0.7687 -1.7820
  153OSM   C10S17028   4.813   6.078   3.400 -0.9824  0.6158  0.2625
  153OSM   H10S17029   4.875   6.170   3.386  0.7954 -0.4660  0.6745
  153OSM   H10T17030   4.892   6.002   3.419 -1.1326 -0.2227 -2.0718
  153OSM   C11S17031   4.717   6.091   3.522  0.2692 -0.0946 -0.1999
  153OSM   H11S17032   4.638   6.014   3.535 -1.8338  1.9342 -0.3019
  153OSM   H11T17033   4.655   6.180   3.496 -0.8485 -0.3866  1.3189
  153OSM   C12S17034   4.781   6.105   3.659 -0.2404 -0.7495  0.8567
  153OSM   H12S17035   4.860   6.182   3.650 -0.7449 -0.3639 -0.5436
  153OSM   H12T17036   4.819   6.006   3.692 -0.1744 -0.1342  2.7124
  153OSM   C13S17037   4.664   6.133   3.757 -0.0804  0.0099 -0.5491
  153OSM   H13S17038   4.574   6.070   3.746 -1.1675  1.6127 -1.1381
  153OSM   H13T17039   4.632   6.239   3.751 -1.5400 -0.4184 -0.5327
  153OSM   C14S17040   4.705   6.109   3.910  0.3828  0.0021  0.1823
  153OSM   H14S17041   4.806   6.150   3.934 -0.2943  2.3580 -0.7051
  153OSM   H14T17042   4.721   5.999   3.911 -0.5365 -0.2489 -3.0362
  153OSM   C15S17043   4.595   6.146   4.014  0.5421  0.3728 -0.1420
  153OSM   H15S17044   4.585   6.256   4.021 -1.2982  0.4849 -2.8768
  153OSM   H15T17045   4.617   6.101   4.113 -0.4897  0.0745 -0.0380
  153OSM   C16S17046   4.457   6.095   3.986  1.0688  0.0947  0.0606
  153OSM   H16S17047   4.456   5.988   3.956  1.0488  0.1695 -0.2076
  153OSM   H16T17048   4.424   6.147   3.893 -1.3280 -1.7560 -0.2019
  153OSM   C17S17049   4.371   6.121   4.110  0.1330 -0.3868 -0.6032
  153OSM   H17S17050   4.392   6.225   4.145  0.4608 -1.0393  1.2882
  153OSM   H17T17051   4.403   6.050   4.189 -1.6058  0.8589  1.3112
  153OSM   C18S17052   4.217   6.114   4.094 -0.3288 -0.2663  0.8702
  153OSM   H18S17053   4.153   6.141   4.180 -1.4100  2.6798 -0.7251
  153OSM   H18T17054   4.203   6.012   4.052  0.1155 -0.0491  0.1734
  153OSM   H18U17055   4.191   6.174   4.004 -0.4390 -2.4212 -0.6359
  153OSM    C1F17056   4.760   6.407   2.985 -0.5391 -0.1297  0.3303
  153OSM     OF17057   4.678   6.501   2.970 -0.3204  0.4472 -0.0395
  153OSM    C2F17058   4.872   6.434   3.085  0.6484 -0.2666 -0.7477
  153OSM    H2F17059   4.940   6.514   3.049  0.4105 -0.5618 -1.8929
  153OSM    H2G17060   4.929   6.339   3.091  1.2156  0.1397  2.2338
  153OSM    C3F17061   4.799   6.441   3.222 -0.1730  0.4371  0.0567
  153OSM    H3F17062   4.760   6.339   3.243  0.6596  0.0646 -0.1875
  153OSM    H3G17063   4.720   6.519   3.222 -1.3497 -0.7115  0.1322
  153OSM    C4F17064   4.884   6.461   3.345 -0.2672 -0.4922  0.6837
  153OSM    H4F17065   4.962   6.539   3.332 -0.3404 -0.2469  1.6251
  153OSM    H4G17066   4.944   6.368   3.360  1.3178  0.3196 -0.4214
  153OSM    C5F17067   4.808   6.492   3.476  0.0086 -0.2847  0.2068
  153OSM    H5F17068   4.752   6.405   3.518 -0.7294  0.0718 -0.0314
  153OSM    H5G17069   4.738   6.572   3.445  1.0072  1.0871  1.3236
  153OSM    C6F17070   4.901   6.556   3.585  0.1790  0.0730 -0.2004
  153OSM    H6F17071   4.962   6.643   3.551 -0.6581  1.0678  0.7645
  153OSM    H6G17072   4.981   6.480   3.599 -0.2477 -0.4159 -0.3881
  153OSM    C7F17073   4.827   6.599   3.707  0.0942  0.1674  0.2105
  153OSM    H7F17074   4.733   6.640   3.664  1.2787  2.3021 -0.4880
  153OSM    H7G17075   4.899   6.670   3.753  1.9917  0.1148 -2.4491
  153OSM    C8F17076   4.784   6.493   3.808 -1.0541  0.3717 -0.1407
  153OSM    H8F17077   4.723   6.419   3.753 -2.4706  1.7197 -0.4544
  153OSM    H8G17078   4.712   6.536   3.882 -0.9153 -0.8581  0.7498
  153OSM    C9F17079   4.907   6.430   3.869  0.6828  0.1071  0.1251
  153OSM    H9F17080   4.974   6.387   3.793 -0.8259 -0.2960 -1.0418
  153OSM   C10F17081   4.937   6.436   4.003  0.1338 -0.2019 -0.3624
  153OSM   H10F17082   5.036   6.396   4.033  0.8958 -0.3863 -2.9405
  153OSM   C11F17083   4.852   6.485   4.114 -0.4929  0.3813 -0.7766
  153OSM   H11F17084   4.837   6.396   4.179  0.1671  1.0339  0.2933
  153OSM   H11G17085   4.757   6.534   4.085 -1.2001 -1.4539 -1.7737
  153OSM   C12F17086   4.941   6.586   4.197  0.5651 -0.1754 -0.0738
  153OSM   H12F17087   4.963   6.677   4.138 -1.6238 -0.2520 -1.1049
  153OSM   H12G17088   5.040   6.545   4.225  1.5416  1.7502 -0.5282
  153OSM   C13F17089   4.876   6.616   4.344 -0.2293 -0.5651 -0.0900
  153OSM   H13F17090   4.899   6.527   4.407 -1.6181 -0.9629 -0.0982
  153OSM   H13G17091   4.767   6.636   4.337  0.0028  0.5729 -0.6302
  153OSM   C14F17092   4.946   6.736   4.401 -0.8806  0.3682  0.0579
  153OSM   H14F17093   4.925   6.822   4.335  1.1614  0.9672  0.1041
  153OSM   H14G17094   5.055   6.715   4.399 -0.9921 -0.1827 -1.0601
  153OSM   C15F17095   4.897   6.777   4.540  0.2813  0.1149  0.3133
  153OSM   H15F17096   4.955   6.865   4.576 -2.3652  1.7288  0.8970
  153OSM   H15G17097   4.896   6.702   4.622 -2.2331  0.7051  0.9034
  153OSM   C16F17098   4.746   6.817   4.538 -0.0265 -0.1790 -0.5474
  153OSM   H16F17099   4.681   6.731   4.563  0.1057 -0.1254 -0.0053
  153OSM   H16G17100   4.716   6.858   4.439 -1.2727 -0.4669 -0.3070
  153OSM   C17F17101   4.710   6.909   4.651 -0.1636 -0.3728  0.6316
  153OSM   H17F17102   4.792   6.983   4.644  1.0939 -1.9207 -3.0064
  153OSM   H17G17103   4.729   6.852   4.745 -1.7084 -0.0210  1.1920
  153OSM   C18F17104   4.571   6.974   4.653 -0.3949 -0.5122 -0.0085
  153OSM   H18F17105   4.562   7.016   4.550  0.3645  0.1627  0.1909
  153OSM   H18G17106   4.573   7.052   4.732  0.8348  0.1409 -0.6457
  153OSM   H18H17107   4.494   6.896   4.672 -0.9915 -0.0617 -0.5221
  154OSM      N17108   4.030   3.650   2.281  0.5496 -0.4821  0.4935
  154OSM    C1517109   4.066   3.637   2.131 -0.2627 -0.1311 -0.3754
  154OSM   H15A17110   4.173   3.636   2.121 -0.2336  1.3672 -0.5414
  154OSM   H15B17111   4.044   3.728   2.076 -1.5532  0.0942  0.4710
  154OSM   H15C17112   4.033   3.544   2.087 -1.0812 -0.0127 -0.0383
  154OSM    C1417113   3.892   3.696   2.301  0.8997 -0.6149 -0.0625
  154OSM   H14A17114   3.826   3.611   2.309 -0.4528  0.3818 -0.3625
  154OSM   H14B17115   3.865   3.774   2.231  2.2686 -0.5422 -0.5558
  154OSM   H14C17116   3.866   3.740   2.396 -0.8109 -0.3604 -0.6098
  154OSM    C1317117   4.052   3.523   2.361  0.5116 -0.3690  0.1433
  154OSM   H13A17118   4.043   3.535   2.468 -1.3028 -2.9376  0.3595
  154OSM   H13B17119   4.141   3.468   2.335  0.7700  0.4082 -0.6835
  154OSM   H13C17120   3.973   3.456   2.329 -0.2142  1.5511 -2.4654
  154OSM    C1217121   4.124   3.763   2.338  0.8118  0.5324 -0.3037
  154OSM   H12A17122   4.224   3.725   2.346 -0.1376 -2.3673 -1.1304
  154OSM   H12B17123   4.095   3.769   2.442 -1.4813  1.5032 -0.9305
  154OSM    C1117124   4.133   3.900   2.276 -0.1848 -0.0137  0.3418
  154OSM   H11A17125   4.164   3.884   2.171 -0.4328  1.5893  0.0055
  154OSM   H11B17126   4.209   3.959   2.332 -1.2290  0.5696  1.1827
  154OSM      P17127   3.974   4.045   2.417 -0.2180 -0.9961  0.0170
  154OSM    O1317128   3.829   4.045   2.423  0.6141 -0.2348  0.2396
  154OSM    O1417129   4.064   3.991   2.523  0.5698 -0.3036  0.4521
  154OSM    O1117130   4.034   4.185   2.398 -0.0979 -0.3688 -0.3637
  154OSM    O1217131   4.008   3.964   2.284 -0.4204 -0.4409 -0.0374
  154OSM    C1S17132   4.008   4.288   2.497  0.7532  0.0348  0.5738
  154OSM    H1S17133   3.909   4.271   2.545  0.8094  0.0961  0.7126
  154OSM    H1T17134   4.013   4.384   2.442  2.2381  0.9666  2.2414
  154OSM     NF17135   4.092   4.410   2.695  1.1700 -0.2649 -0.2811
  154OSM    HNF17136   4.101   4.504   2.663 -1.4440  0.2651  0.2649
  154OSM    C2S17137   4.119   4.296   2.603  0.0740 -0.1207 -0.4359
  154OSM    H2S17138   4.124   4.206   2.668  0.5371  0.2652  0.0759
  154OSM    C3S17139   4.263   4.303   2.542 -1.0961 -0.1736  0.9182
  154OSM    H3S17140   4.265   4.405   2.497  1.1319 -0.2648  0.6685
  154OSM     O317141   4.293   4.203   2.446 -0.5947 -0.2455 -0.1699
  154OSM    HO317142   4.216   4.199   2.389 -0.8347 -1.1237  0.2046
  154OSM    C4S17143   4.362   4.295   2.647  0.0731 -0.0534  0.2532
  154OSM    H4S17144   4.387   4.190   2.669  1.7684  0.4341  0.8031
  154OSM    C5S17145   4.418   4.394   2.713  0.0286  0.4603  0.1856
  154OSM    H5S17146   4.379   4.496   2.707 -1.2809  0.2048  2.9816
  154OSM    C6S17147   4.527   4.371   2.815 -0.1335  0.7685 -0.7229
  154OSM    H6S17148   4.551   4.263   2.829 -3.0847  0.0881 -0.4409
  154OSM    H6T17149   4.489   4.392   2.917 -1.8564  0.5586 -1.2883
  154OSM    C7S17150   4.655   4.450   2.793  0.6368 -0.2667 -0.5625
  154OSM    H7S17151   4.622   4.556   2.799 -0.4335 -0.6421  0.4877
  154OSM    H7T17152   4.695   4.424   2.693 -1.7696 -0.5058 -1.5172
  154OSM    C8S17153   4.761   4.417   2.893  0.2833 -0.1865  0.0299
  154OSM    H8S17154   4.857   4.465   2.866  0.1061 -0.7144 -1.6235
  154OSM    H8T17155   4.779   4.307   2.890  2.3286  0.0666  1.0929
  154OSM    C9S17156   4.734   4.446   3.039 -0.0063 -0.1051  0.0874
  154OSM    H9S17157   4.651   4.382   3.076 -1.2520  0.9261 -0.8672
  154OSM    H9T17158   4.690   4.545   3.061 -1.7653 -1.2691  2.2238
  154OSM   C10S17159   4.856   4.417   3.130 -0.0130 -0.5219 -0.0146
  154OSM   H10S17160   4.915   4.507   3.103 -2.4633  1.2484  0.2005
  154OSM   H10T17161   4.899   4.319   3.100  0.0956 -0.0692 -1.4292
  154OSM   C11S17162   4.829   4.436   3.279  0.3256 -0.8197  0.4292
  154OSM   H11S17163   4.763   4.355   3.316 -1.4117 -0.0666 -0.8665
  154OSM   H11T17164   4.787   4.536   3.305  0.4627 -0.3613 -0.9831
  154OSM   C12S17165   4.948   4.436   3.369 -0.5783 -0.2132 -0.0916
  154OSM   H12S17166   5.000   4.533   3.377  1.9750 -1.6199  1.3308
  154OSM   H12T17167   5.018   4.363   3.322 -0.6096 -0.2511 -0.0799
  154OSM   C13S17168   4.921   4.404   3.516  1.0476  0.1060 -0.1551
  154OSM   H13S17169   4.877   4.302   3.505  1.4717 -0.4523  2.6446
  154OSM   H13T17170   4.837   4.464   3.555 -1.5392 -2.9858 -0.5074
  154OSM   C14S17171   5.030   4.394   3.619  0.3560 -0.5638 -0.2384
  154OSM   H14S17172   5.125   4.364   3.572 -0.3670  0.1307 -2.2488
  154OSM   H14T17173   5.000   4.325   3.701 -1.2994  0.5226  0.1386
  154OSM   C15S17174   5.051   4.540   3.690  0.0011  0.3484  0.1712
  154OSM   H15S17175   4.955   4.575   3.734  0.6038  2.1919  0.1345
  154OSM   H15T17176   5.065   4.608   3.603  0.0930 -0.9514 -0.8562
  154OSM   C16S17177   5.171   4.537   3.778  0.1613  0.7924  0.5382
  154OSM   H16S17178   5.224   4.634   3.792  2.3796 -0.3100  0.2604
  154OSM   H16T17179   5.246   4.461   3.747 -0.5994  0.3459 -0.2516
  154OSM   C17S17180   5.122   4.497   3.921  0.1479 -1.2511  0.0585
  154OSM   H17S17181   5.028   4.440   3.910 -0.3109 -0.7036  1.0498
  154OSM   H17T17182   5.104   4.590   3.980  1.8280  0.0685 -1.4006
  154OSM   C18S17183   5.227   4.428   4.003 -0.1329 -0.7323  0.1211
  154OSM   H18S17184   5.313   4.497   3.992  0.4832 -1.7947 -2.4895
  154OSM   H18T17185   5.260   4.331   3.960 -0.3496 -0.4174 -0.7885
  154OSM   H18U17186   5.195   4.413   4.108  0.2345 -0.1967  0.3153
  154OSM    C1F17187   4.007   4.399   2.796  0.0672 -0.0071  0.1083
  154OSM     OF17188   3.965   4.291   2.833  0.6247 -0.3030  0.0143
  154OSM    C2F17189   3.957   4.532   2.846 -0.0624 -0.5738  0.2905
  154OSM    H2F17190   3.920   4.584   2.755 -0.1493 -2.1653 -0.6130
  154OSM    H2G17191   4.032   4.595   2.899  0.6716 -1.9244  0.9168
  154OSM    C3F17192   3.841   4.515   2.943  0.4287  0.3386 -0.0534
  154OSM    H3F17193   3.779   4.427   2.916  1.3678  0.0342 -1.3236
  154OSM    H3G17194   3.784   4.611   2.946  1.2106  0.7921  0.7481
  154OSM    C4F17195   3.884   4.488   3.092  0.1449  0.0347 -0.1166
  154OSM    H4F17196   3.946   4.575   3.122 -0.3596 -0.0383  1.1757
  154OSM    H4G17197   3.936   4.391   3.078 -1.6793 -1.0882  0.4607
  154OSM    C5F17198   3.763   4.471   3.191  0.1250  0.4574 -0.3000
  154OSM    H5F17199   3.709   4.385   3.146 -2.8228  0.6864  2.4776
  154OSM    H5G17200   3.714   4.571   3.196  2.5558  1.7030  1.0732
  154OSM    C6F17201   3.799   4.448   3.338  0.2219  0.0950 -0.8686
  154OSM    H6F17202   3.868   4.526   3.377 -1.8238  0.4602  2.5349
  154OSM    H6G17203   3.837   4.345   3.352  0.2693 -0.0298 -1.9038
  154OSM    C7F17204   3.673   4.466   3.427 -0.6641  0.2130  0.4326
  154OSM    H7F17205   3.592   4.402   3.386  0.0792  0.7004 -1.9426
  154OSM    H7G17206   3.633   4.570   3.424 -2.6102 -0.4576  1.6266
  154OSM    C8F17207   3.703   4.425   3.571 -0.5884  0.1007  0.2542
  154OSM    H8F17208   3.741   4.321   3.576 -2.7662 -0.8227 -1.0921
  154OSM    H8G17209   3.611   4.418   3.633 -2.4288  1.2599 -2.1836
  154OSM    C9F17210   3.794   4.535   3.635 -0.4993  0.0573  0.0196
  154OSM    H9F17211   3.867   4.581   3.567 -0.7762 -0.9758 -1.0144
  154OSM   C10F17212   3.795   4.573   3.762  0.3417  0.3340  0.4688
  154OSM   H10F17213   3.862   4.653   3.795  2.1370 -0.6815 -0.5183
  154OSM   C11F17214   3.709   4.518   3.871  0.1026 -0.1579  0.1768
  154OSM   H11F17215   3.607   4.503   3.829  0.4410  1.0849 -1.2119
  154OSM   H11G17216   3.705   4.597   3.948  3.5997 -0.4146  0.7993
  154OSM   C12F17217   3.779   4.399   3.939 -1.3281 -0.6709 -0.0647
  154OSM   H12F17218   3.883   4.429   3.962 -1.5573  2.1299 -2.1444
  154OSM   H12G17219   3.785   4.309   3.874 -0.1966  0.5275 -1.6878
  154OSM   C13F17220   3.715   4.376   4.073  0.3701  0.3122 -0.0297
  154OSM   H13F17221   3.751   4.282   4.119  2.8325  0.9161 -0.6049
  154OSM   H13G17222   3.606   4.376   4.053  0.3881  2.5689 -0.3878
  154OSM   C14F17223   3.754   4.490   4.172  0.0486  0.9499 -0.1172
  154OSM   H14F17224   3.707   4.587   4.144 -0.4264  0.8193  0.2139
  154OSM   H14G17225   3.864   4.482   4.161 -0.0603 -2.6004  0.3640
  154OSM   C15F17226   3.707   4.453   4.314  0.3184 -0.2667 -0.4095
  154OSM   H15F17227   3.737   4.352   4.350  2.4116  1.3649  2.8600
  154OSM   H15G17228   3.596   4.462   4.310  0.3573  0.3930 -0.1281
  154OSM   C16F17229   3.761   4.558   4.427 -0.2715  0.6309 -0.0925
  154OSM   H16F17230   3.719   4.535   4.527  0.5915 -0.4963  0.0241
  154OSM   H16G17231   3.741   4.662   4.394  2.7494  0.9081 -1.3811
  154OSM   C17F17232   3.910   4.549   4.464  0.1946 -0.0507 -0.1333
  154OSM   H17F17233   3.977   4.586   4.385 -1.6404  0.2093 -1.6415
  154OSM   H17G17234   3.940   4.442   4.470  1.0947  0.2472  1.3995
  154OSM   C18F17235   3.953   4.615   4.595 -0.3890 -0.4907 -0.6798
  154OSM   H18F17236   4.062   4.597   4.613 -0.2180  0.6934 -0.4799
  154OSM   H18G17237   3.894   4.572   4.678  0.2313  0.1389  0.1001
  154OSM   H18H17238   3.939   4.725   4.587 -0.6342 -0.6196 -2.8319
  155OSM      N17239   6.493   1.314   2.594  0.4711 -0.4088  0.6776
  155OSM    C1517240   6.347   1.321   2.610  0.9884  0.0705 -0.0336
  155OSM   H15A17241   6.314   1.412   2.658 -0.0900  0.3076 -1.1597
  155OSM   H15B17242   6.313   1.236   2.666  0.5234  0.3700  0.1462
  155OSM   H15C17243   6.298   1.318   2.513 -0.1326  0.1641  0.5137
  155OSM    C1417244   6.528   1.201   2.500 -0.0535  0.3071 -0.1008
  155OSM   H14A17245   6.447   1.196   2.429  0.1445  1.5528 -0.4368
  155OSM   H14B17246   6.518   1.105   2.548 -0.9219 -0.3651 -1.5524
  155OSM   H14C17247   6.623   1.215   2.451  1.3500 -0.2529  2.2855
  155OSM    C1317248   6.529   1.445   2.534  0.5339 -0.5159  0.1380
  155OSM   H13A17249   6.490   1.455   2.434 -0.0074 -2.3807  0.1144
  155OSM   H13B17250   6.635   1.461   2.520  0.1077  1.5166 -1.1563
  155OSM   H13C17251   6.483   1.522   2.595 -2.6363 -2.1756  0.0594
  155OSM    C1217252   6.540   1.299   2.733 -0.0887 -0.2901 -0.3045
  155OSM   H12A17253   6.482   1.223   2.783 -1.9714  0.7706 -0.8019
  155OSM   H12B17254   6.513   1.388   2.787 -0.6202  0.7883 -2.2432
  155OSM    C1117255   6.693   1.268   2.746 -0.4576 -0.2547  0.1221
  155OSM   H11A17256   6.725   1.179   2.689  1.2985  0.0479  0.5740
  155OSM   H11B17257   6.719   1.251   2.853  0.2478  2.2813  0.4147
  155OSM      P17258   6.906   1.365   2.623  0.4293 -0.1783 -0.2286
  155OSM    O1317259   6.929   1.225   2.579 -0.3471 -0.3598 -0.3871
  155OSM    O1417260   6.908   1.460   2.519  0.1504  0.4133 -0.1863
  155OSM    O1117261   7.014   1.407   2.734 -0.2877  0.3862  0.1159
  155OSM    O1217262   6.774   1.381   2.705 -0.1862 -0.7785  0.0947
  155OSM    C1S17263   7.059   1.338   2.844 -0.5709 -0.6289 -0.3925
  155OSM    H1S17264   7.116   1.247   2.818 -0.4390 -0.2341 -1.5406
  155OSM    H1T17265   6.968   1.314   2.905  1.1415 -0.5784  2.3619
  155OSM     NF17266   7.197   1.345   3.049 -0.2031  0.5253  0.2760
  155OSM    HNF17267   7.148   1.349   3.136  2.0206  0.2264  1.6288
  155OSM    C2S17268   7.147   1.426   2.937  0.1159 -0.5151 -0.5945
  155OSM    H2S17269   7.234   1.452   2.874  0.2359  0.7789  0.0641
  155OSM    C3S17270   7.079   1.559   2.979 -0.0610  0.5286  0.3507
  155OSM    H3S17271   6.983   1.534   3.030  0.8852 -0.0718  1.9024
  155OSM     O317272   7.042   1.636   2.869  0.4140 -0.0584 -0.1522
  155OSM    HO317273   7.050   1.584   2.789 -3.1169  1.6821 -1.9033
  155OSM    C4S17274   7.168   1.629   3.088 -0.0056  0.3893  0.7189
  155OSM    H4S17275   7.268   1.655   3.048  0.2173 -0.2987  0.8264
  155OSM    C5S17276   7.135   1.669   3.208 -0.2773  0.4900 -0.0915
  155OSM    H5S17277   7.030   1.658   3.242 -0.4240 -0.5596 -0.8233
  155OSM    C6S17278   7.218   1.746   3.311  0.6523  0.1724  0.5871
  155OSM    H6S17279   7.152   1.823   3.357  0.7780  0.5712  0.0953
  155OSM    H6T17280   7.305   1.796   3.265  0.5734 -2.3470 -2.6251
  155OSM    C7S17281   7.265   1.645   3.422  0.1790  0.2376 -0.2689
  155OSM    H7S17282   7.316   1.560   3.372 -0.1869 -0.0534 -0.1491
  155OSM    H7T17283   7.173   1.610   3.473  0.6941  1.3129  1.4994
  155OSM    C8S17284   7.353   1.705   3.535  0.6018 -0.1755 -0.3854
  155OSM    H8S17285   7.284   1.767   3.597  0.2262 -1.6425  0.7167
  155OSM    H8T17286   7.431   1.773   3.497  0.9591  0.2562  1.0442
  155OSM    C9S17287   7.422   1.602   3.619 -0.5775  0.7218 -0.0455
  155OSM    H9S17288   7.490   1.536   3.561  0.1953  1.0689  0.4561
  155OSM    H9T17289   7.340   1.532   3.648 -2.3096  3.1331  1.2989
  155OSM   C10S17290   7.490   1.675   3.728  0.0126 -0.2725 -0.4885
  155OSM   H10S17291   7.431   1.764   3.759  1.2329  0.9889 -1.6756
  155OSM   H10T17292   7.578   1.730   3.688  0.1105  0.3105  0.4981
  155OSM   C11S17293   7.528   1.592   3.852 -0.1696  0.1716 -0.4861
  155OSM   H11S17294   7.609   1.523   3.820 -0.5566  0.8768 -3.1889
  155OSM   H11T17295   7.438   1.535   3.882  0.8187 -0.5824  1.2292
  155OSM   C12S17296   7.566   1.680   3.974  1.1382 -0.1133  0.5034
  155OSM   H12S17297   7.489   1.758   3.991  0.9834 -0.0639 -0.3554
  155OSM   H12T17298   7.659   1.732   3.942  0.8015  1.1932  1.5730
  155OSM   C13S17299   7.590   1.604   4.096 -0.2253  0.3933 -0.5294
  155OSM   H13S17300   7.687   1.550   4.095 -0.8468 -0.8860  1.6659
  155OSM   H13T17301   7.503   1.540   4.123 -0.5668  1.2353  0.4368
  155OSM   C14S17302   7.617   1.699   4.210 -0.6690 -0.6724 -0.1890
  155OSM   H14S17303   7.543   1.781   4.225 -1.4639 -1.1859 -1.2175
  155OSM   H14T17304   7.719   1.737   4.187  0.6792 -2.7118  1.9281
  155OSM   C15S17305   7.631   1.635   4.343 -0.2892  0.2407 -0.3423
  155OSM   H15S17306   7.694   1.697   4.410 -1.8315  0.1125  1.2955
  155OSM   H15T17307   7.683   1.539   4.323 -1.2982 -0.1382 -1.2310
  155OSM   C16S17308   7.501   1.615   4.410  0.4947  0.8711  0.0671
  155OSM   H16S17309   7.453   1.529   4.357  2.0363  0.8959 -1.4617
  155OSM   H16T17310   7.440   1.707   4.408  0.9614  1.1759 -0.7914
  155OSM   C17S17311   7.524   1.570   4.562  0.1207 -0.6827 -0.2121
  155OSM   H17S17312   7.582   1.476   4.552 -3.4124 -3.3035  1.7183
  155OSM   H17T17313   7.430   1.544   4.614 -0.3917 -0.5940 -1.0828
  155OSM   C18S17314   7.602   1.670   4.649 -0.1384  0.4370 -0.2814
  155OSM   H18S17315   7.569   1.776   4.648  1.4703  1.0034  1.1319
  155OSM   H18T17316   7.712   1.663   4.633  0.0027  0.7154  0.4869
  155OSM   H18U17317   7.592   1.634   4.754 -0.8716 -0.7249 -0.7316
  155OSM    C1F17318   7.286   1.250   3.044  0.4252 -0.4071 -0.4642
  155OSM     OF17319   7.340   1.218   2.941 -0.1991  0.2552  0.6398
  155OSM    C2F17320   7.321   1.194   3.178 -0.0419  0.3969  0.1401
  155OSM    H2F17321   7.248   1.120   3.216  0.7286  0.1816  1.2552
  155OSM    H2G17322   7.319   1.283   3.245  0.0521  0.4933  0.0145
  155OSM    C3F17323   7.469   1.150   3.181 -0.3457  0.6019  0.6236
  155OSM    H3F17324   7.539   1.209   3.118 -0.7733  1.1433  0.6521
  155OSM    H3G17325   7.471   1.053   3.128  3.1963  0.1651  1.2973
  155OSM    C4F17326   7.523   1.119   3.322 -0.2841 -0.1063  0.4940
  155OSM    H4F17327   7.609   1.049   3.324 -0.0833 -0.0375 -2.4301
  155OSM    H4G17328   7.442   1.073   3.384  2.0135 -1.8871  2.3762
  155OSM    C5F17329   7.558   1.246   3.393 -0.1098 -0.1751  0.3268
  155OSM    H5F17330   7.490   1.329   3.363  2.3077  1.4333 -1.1459
  155OSM    H5G17331   7.661   1.270   3.357 -0.3069 -1.5902 -1.2966
  155OSM    C6F17332   7.559   1.223   3.545  0.0239 -0.0328 -0.6054
  155OSM    H6F17333   7.610   1.305   3.599  0.7495 -1.3376  0.7909
  155OSM    H6G17334   7.616   1.131   3.572 -0.4948  0.2146  1.4766
  155OSM    C7F17335   7.413   1.226   3.608  0.0302 -0.0913  0.8830
  155OSM    H7F17336   7.361   1.131   3.581  2.3586 -0.6953 -2.0685
  155OSM    H7G17337   7.357   1.309   3.559 -2.7664 -1.6638  1.1833
  155OSM    C8F17338   7.414   1.260   3.751  0.5381 -0.7442 -0.0986
  155OSM    H8F17339   7.323   1.318   3.776  0.7089 -0.4708 -0.1077
  155OSM    H8G17340   7.492   1.335   3.774 -1.1286  0.7891  0.7849
  155OSM    C9F17341   7.418   1.135   3.841  0.0131  0.3890  0.1390
  155OSM    H9F17342   7.416   1.035   3.795 -2.4502 -0.0533  1.0830
  155OSM   C10F17343   7.433   1.140   3.976 -0.0290  0.3723  0.2688
  155OSM   H10F17344   7.438   1.045   4.032 -3.0817 -1.6012 -2.4156
  155OSM   C11F17345   7.451   1.267   4.055  0.3514 -0.8269 -0.5374
  155OSM   H11F17346   7.355   1.317   4.080  0.6462 -1.0165  1.0639
  155OSM   H11G17347   7.508   1.340   3.993  0.4743 -1.0017 -0.6285
  155OSM   C12F17348   7.534   1.251   4.187  0.5210 -0.5539 -0.5672
  155OSM   H12F17349   7.549   1.354   4.227  0.1103  0.2389 -2.3646
  155OSM   H12G17350   7.633   1.207   4.165  0.7461  1.1029 -3.4100
  155OSM   C13F17351   7.465   1.160   4.298  0.3963 -0.0320  0.0675
  155OSM   H13F17352   7.443   1.063   4.247 -2.9269  0.3704  0.5097
  155OSM   H13G17353   7.365   1.199   4.328 -0.2177 -0.8337 -0.8498
  155OSM   C14F17354   7.539   1.141   4.431 -0.3563  0.0349 -0.0964
  155OSM   H14F17355   7.540   1.231   4.497  1.1881 -1.1574  1.6119
  155OSM   H14G17356   7.648   1.132   4.412 -0.0126  1.0453  1.2244
  155OSM   C15F17357   7.489   1.029   4.523 -0.6156 -0.5787  0.4093
  155OSM   H15F17358   7.473   0.931   4.474 -0.6585 -0.2656 -0.2185
  155OSM   H15G17359   7.387   1.060   4.556 -0.6051  1.2084 -1.0480
  155OSM   C16F17360   7.576   1.018   4.645 -0.2194 -0.0898  0.0321
  155OSM   H16F17361   7.577   1.117   4.696  0.6246 -1.0053  1.8544
  155OSM   H16G17362   7.680   1.011   4.605 -0.2314  0.6593 -0.1595
  155OSM   C17F17363   7.540   0.907   4.738 -0.2574  0.5100  0.0724
  155OSM   H17F17364   7.443   0.941   4.782  0.1304  1.8080 -0.0221
  155OSM   H17G17365   7.616   0.907   4.819 -0.7069 -1.3238  0.5293
  155OSM   C18F17366   7.537   0.764   4.678  0.6820  0.0685 -0.7070
  155OSM   H18F17367   7.499   0.693   4.754  0.2974 -0.1552 -1.1068
  155OSM   H18G17368   7.636   0.731   4.639  1.3541  0.4843  0.5992
  155OSM   H18H17369   7.461   0.763   4.597 -0.1175  2.3888 -0.0674
  156OSM      N17370   2.540   6.605   1.981 -0.6491  0.1902 -0.1862
  156OSM    C1517371   2.471   6.715   2.044  0.4710 -0.2010 -0.5788
  156OSM   H15A17372   2.389   6.746   1.981 -0.1333 -0.9760 -0.2011
  156OSM   H15B17373   2.529   6.804   2.060 -1.5933  1.5492 -2.2909
  156OSM   H15C17374   2.426   6.677   2.135  0.2091 -1.5512 -1.2408
  156OSM    C1417375   2.442   6.492   1.961 -0.6151 -0.4706  0.1228
  156OSM   H14A17376   2.426   6.427   2.046 -0.1331 -0.0188  0.5677
  156OSM   H14B17377   2.488   6.418   1.897 -0.1553 -0.8776  0.9054
  156OSM   H14C17378   2.352   6.534   1.919 -0.2535  1.0823  0.8245
  156OSM    C1317379   2.588   6.658   1.852  0.6363 -0.6862 -0.2854
  156OSM   H13A17380   2.665   6.733   1.860 -0.3998  0.3884 -0.0425
  156OSM   H13B17381   2.506   6.705   1.800  0.6847  0.6513  0.8068
  156OSM   H13C17382   2.634   6.587   1.785 -1.8250 -1.8339 -0.8767
  156OSM    C1217383   2.659   6.557   2.060  0.3348  0.0429  0.4962
  156OSM   H12A17384   2.719   6.645   2.073  0.9930 -0.3515  0.1631
  156OSM   H12B17385   2.719   6.488   2.002  0.2954 -0.7494  1.3751
  156OSM    C1117386   2.642   6.488   2.195  0.3171 -0.2873  0.1850
  156OSM   H11A17387   2.604   6.568   2.262 -2.1876 -0.9717 -0.3391
  156OSM   H11B17388   2.740   6.466   2.242  1.4349  1.6234 -1.0927
  156OSM      P17389   2.611   6.235   2.231 -0.6768 -0.2065 -0.2091
  156OSM    O1317390   2.507   6.130   2.212 -0.6846 -0.5671 -0.4111
  156OSM    O1417391   2.735   6.216   2.156  0.6310 -0.2264  0.3286
  156OSM    O1117392   2.642   6.235   2.388  0.0057 -0.5293  0.3291
  156OSM    O1217393   2.551   6.376   2.198  0.3867  0.6101  0.4843
  156OSM    C1S17394   2.592   6.326   2.486 -1.2090 -0.6193 -0.6136
  156OSM    H1S17395   2.481   6.319   2.497 -1.2088 -1.2271 -0.9548
  156OSM    H1T17396   2.611   6.434   2.465 -1.5896 -0.8551 -2.3113
  156OSM     NF17397   2.579   6.327   2.737 -0.4038 -0.2054 -0.6849
  156OSM    HNF17398   2.624   6.398   2.792  1.1820 -0.4454 -1.6019
  156OSM    C2S17399   2.657   6.283   2.622  0.2498 -0.6177 -0.2654
  156OSM    H2S17400   2.659   6.172   2.624 -0.5927 -0.6399 -0.3386
  156OSM    C3S17401   2.804   6.335   2.615 -1.3669  0.2390 -0.4741
  156OSM    H3S17402   2.798   6.445   2.626  0.4982  0.1504  3.0507
  156OSM     O317403   2.872   6.312   2.490 -0.0177  0.2427 -0.1444
  156OSM    HO317404   2.804   6.264   2.442 -1.5182  1.9451  0.1448
  156OSM    C4S17405   2.883   6.291   2.725 -0.0920  0.1683  0.2933
  156OSM    H4S17406   2.860   6.351   2.815 -1.8337 -0.9434  0.6296
  156OSM    C5S17407   2.970   6.184   2.740 -0.2046 -0.2213  0.2075
  156OSM    H5S17408   2.997   6.121   2.654 -0.6469  1.1801 -0.9931
  156OSM    C6S17409   3.037   6.141   2.873 -0.4523 -0.1891  0.3199
  156OSM    H6S17410   3.146   6.159   2.863 -0.1855 -1.2339  1.1419
  156OSM    H6T17411   3.028   6.036   2.907  0.9521  0.4792  3.0796
  156OSM    C7S17412   2.988   6.215   2.996  0.0366 -0.3887  0.5193
  156OSM    H7S17413   2.880   6.195   3.013 -0.3532  1.8612  1.0202
  156OSM    H7T17414   3.006   6.324   2.982 -0.8238 -0.3205 -0.1646
  156OSM    C8S17415   3.043   6.170   3.135 -0.1273  0.5716  0.3467
  156OSM    H8S17416   3.023   6.062   3.155 -4.0250  1.1326  0.2128
  156OSM    H8T17417   2.986   6.215   3.219 -1.4381  2.7950 -1.5973
  156OSM    C9S17418   3.191   6.202   3.154  0.6608 -0.1057 -0.0846
  156OSM    H9S17419   3.213   6.308   3.126  2.0387 -0.5858 -0.9435
  156OSM    H9T17420   3.251   6.151   3.076 -0.8657  2.0702 -2.8824
  156OSM   C10S17421   3.235   6.180   3.300 -0.3631 -0.2969 -0.0800
  156OSM   H10S17422   3.325   6.115   3.302 -0.6883 -0.9261 -2.4679
  156OSM   H10T17423   3.157   6.125   3.357 -0.3224  1.5130  1.8103
  156OSM   C11S17424   3.272   6.317   3.368  0.5573 -0.1335  0.1842
  156OSM   H11S17425   3.176   6.371   3.385  1.4661  1.0591  1.8740
  156OSM   H11T17426   3.328   6.382   3.296 -0.0718 -0.4753 -0.6284
  156OSM   C12S17427   3.346   6.291   3.490 -0.0706  0.0364 -0.5180
  156OSM   H12S17428   3.393   6.383   3.531 -1.1638  0.7529 -0.8357
  156OSM   H12T17429   3.430   6.227   3.458 -0.8264 -0.3140 -1.8592
  156OSM   C13S17430   3.270   6.230   3.607  0.8633 -0.3917 -0.6926
  156OSM   H13S17431   3.240   6.125   3.589 -2.2804  0.2904 -0.0884
  156OSM   H13T17432   3.181   6.292   3.633  1.1448 -0.3078  0.0798
  156OSM   C14S17433   3.350   6.235   3.741  1.3030  0.0153 -0.6257
  156OSM   H14S17434   3.337   6.335   3.788 -1.2413 -0.4207 -0.2943
  156OSM   H14T17435   3.458   6.229   3.715  1.0340 -0.8856 -1.6103
  156OSM   C15S17436   3.305   6.129   3.843 -0.1114  0.4357  0.2373
  156OSM   H15S17437   3.301   6.028   3.796 -1.2121  0.1968  0.8084
  156OSM   H15T17438   3.199   6.158   3.856 -0.3914 -0.2724 -0.4046
  156OSM   C16S17439   3.378   6.125   3.977  0.1266  0.2162  0.1654
  156OSM   H16S17440   3.487   6.116   3.956 -0.0516 -0.4085 -0.5520
  156OSM   H16T17441   3.357   6.036   4.040 -1.0589  0.3390 -0.0283
  156OSM   C17S17442   3.369   6.250   4.063 -0.9403 -0.4341  0.2803
  156OSM   H17S17443   3.387   6.338   3.997 -2.2841  0.2099  0.7304
  156OSM   H17T17444   3.445   6.261   4.143  1.6940 -1.2904 -1.9434
  156OSM   C18S17445   3.236   6.256   4.137 -0.3636  0.2894 -0.1679
  156OSM   H18S17446   3.208   6.354   4.182 -2.5163 -0.6915  0.7531
  156OSM   H18T17447   3.246   6.186   4.222  1.5128 -0.3640 -0.8736
  156OSM   H18U17448   3.160   6.221   4.064  1.6466  1.1494 -2.8346
  156OSM    C1F17449   2.464   6.280   2.776 -0.1908  0.7189  0.5386
  156OSM     OF17450   2.414   6.176   2.724  0.6590 -0.3277 -0.0237
  156OSM    C2F17451   2.398   6.363   2.884 -0.6265  0.6138  0.5699
  156OSM    H2F17452   2.288   6.348   2.888 -0.7837  1.8635  3.0550
  156OSM    H2G17453   2.419   6.472   2.885 -0.8767  0.7294  3.6430
  156OSM    C3F17454   2.443   6.316   3.027  0.9050 -0.4560  0.3287
  156OSM    H3F17455   2.420   6.397   3.100 -2.5797  0.5164 -1.6018
  156OSM    H3G17456   2.554   6.320   3.029  0.8990  0.3890  2.8678
  156OSM    C4F17457   2.364   6.199   3.077  0.3895  0.7972  0.3756
  156OSM    H4F17458   2.385   6.107   3.019 -2.2505 -0.1636  0.7953
  156OSM    H4G17459   2.254   6.213   3.067  0.6247  2.5483 -0.2878
  156OSM    C5F17460   2.367   6.167   3.232 -0.5427  0.3890  0.2858
  156OSM    H5F17461   2.360   6.258   3.295  0.1055 -0.7366  2.0825
  156OSM    H5G17462   2.459   6.110   3.257 -0.7356 -0.9643 -1.8300
  156OSM    C6F17463   2.245   6.077   3.274 -0.0472 -0.1520 -0.0693
  156OSM    H6F17464   2.230   6.002   3.194  0.4961 -2.5284  1.9087
  156OSM    H6G17465   2.155   6.141   3.285  0.7934  0.9476  0.6452
  156OSM    C7F17466   2.259   6.002   3.407 -0.5764  0.3677  0.2072
  156OSM    H7F17467   2.268   6.089   3.476  0.2040  1.0666 -0.7463
  156OSM    H7G17468   2.347   5.935   3.421 -1.1442 -0.4837 -0.2748
  156OSM    C8F17469   2.133   5.929   3.446 -0.4405  0.5914 -0.7817
  156OSM    H8F17470   2.144   5.879   3.545  0.5454  2.6204  0.1983
  156OSM    H8G17471   2.119   5.844   3.376  0.6720 -0.3245  0.0699
  156OSM    C9F17472   2.013   6.017   3.454  0.2992 -0.2286  0.0808
  156OSM    H9F17473   1.954   6.024   3.361 -2.9062 -3.1440  1.6301
  156OSM   C10F17474   1.974   6.090   3.556 -0.6580  0.1209 -0.0118
  156OSM   H10F17475   1.875   6.138   3.559  0.1026  1.7352  2.0653
  156OSM   C11F17476   2.041   6.093   3.686 -0.1815  0.4433 -0.4960
  156OSM   H11F17477   2.140   6.043   3.684 -0.4214 -0.0634  0.1121
  156OSM   H11G17478   1.982   6.035   3.759  0.2685 -1.5447 -1.6423
  156OSM   C12F17479   2.061   6.242   3.724  0.8303 -0.4124 -1.3659
  156OSM   H12F17480   2.104   6.293   3.634  0.1939 -1.0858 -2.0700
  156OSM   H12G17481   2.137   6.246   3.805 -2.0113 -0.4149  1.4879
  156OSM   C13F17482   1.931   6.309   3.778 -0.0313 -0.3137  0.4568
  156OSM   H13F17483   1.888   6.251   3.863 -0.2803 -0.8854 -0.0573
  156OSM   H13G17484   1.864   6.312   3.691  0.0008  0.5628  0.4548
  156OSM   C14F17485   1.936   6.457   3.831  0.0861 -0.2854  0.1189
  156OSM   H14F17486   1.948   6.513   3.736 -0.2335 -0.4045  0.0039
  156OSM   H14G17487   2.036   6.470   3.878  0.5577  2.9369 -1.4907
  156OSM   C15F17488   1.821   6.504   3.916 -0.2445  0.0025  0.0361
  156OSM   H15F17489   1.827   6.463   4.019  0.8963  0.5149  0.1919
  156OSM   H15G17490   1.731   6.452   3.877  1.3593 -1.7820 -1.4586
  156OSM   C16F17491   1.803   6.658   3.924  0.3829 -0.2799  0.6672
  156OSM   H16F17492   1.752   6.685   3.829  1.2933  1.0636  0.5315
  156OSM   H16G17493   1.896   6.719   3.923 -0.0121  0.3302  0.5405
  156OSM   C17F17494   1.731   6.705   4.044 -0.6828  0.5400  0.1949
  156OSM   H17F17495   1.785   6.657   4.128  1.4708 -0.1047 -1.4653
  156OSM   H17G17496   1.627   6.665   4.047 -0.2003 -0.7945 -0.3634
  156OSM   C18F17497   1.711   6.861   4.056  0.3673 -0.3306  0.1909
  156OSM   H18F17498   1.641   6.876   4.141 -0.2253 -2.4430  0.1397
  156OSM   H18G17499   1.660   6.882   3.960  2.3051  2.8176 -0.3038
  156OSM   H18H17500   1.806   6.918   4.059  0.0820  0.1145  0.8369
  157OSM      N17501   1.320   6.005   2.281 -0.3653 -0.5210 -0.9685
  157OSM    C1517502   1.392   5.927   2.174  0.2789 -0.3138  0.5779
  157OSM   H15A17503   1.354   5.826   2.182 -1.8717  0.4470  0.3425
  157OSM   H15B17504   1.499   5.927   2.188  0.3682  1.7508  0.1814
  157OSM   H15C17505   1.362   5.966   2.077 -0.6565 -0.9068  0.6206
  157OSM    C1417506   1.174   5.970   2.280 -0.5729  0.6295 -0.3223
  157OSM   H14A17507   1.120   6.031   2.352 -1.0098 -0.5876  0.4147
  157OSM   H14B17508   1.168   5.872   2.325 -1.2246  1.7058  2.1500
  157OSM   H14C17509   1.132   5.982   2.181 -0.2046  0.4645 -0.4998
  157OSM    C1317510   1.372   5.945   2.410 -0.0857 -0.6046  0.0003
  157OSM   H13A17511   1.336   6.009   2.489  0.1371  0.0255 -0.3983
  157OSM   H13B17512   1.479   5.946   2.421 -0.1006  2.6038  0.8760
  157OSM   H13C17513   1.348   5.840   2.417  1.6132 -1.0383 -0.1524
  157OSM    C1217514   1.334   6.152   2.271  0.6901  0.0498 -0.7983
  157OSM   H12A17515   1.287   6.182   2.179 -0.9376  0.1287  0.0135
  157OSM   H12B17516   1.440   6.170   2.272  0.6385  0.3722 -0.2844
  157OSM    C1117517   1.278   6.245   2.388 -0.6482 -0.5173  0.1896
  157OSM   H11A17518   1.170   6.258   2.366  0.3209  3.0584 -3.6594
  157OSM   H11B17519   1.316   6.348   2.372 -0.5687 -0.7566 -1.3018
  157OSM      P17520   1.258   6.272   2.652 -0.3256  0.0082 -0.3104
  157OSM    O1317521   1.350   6.379   2.692  0.5120 -0.1227 -0.0346
  157OSM    O1417522   1.111   6.304   2.635 -0.1118 -0.7495  0.6220
  157OSM    O1117523   1.283   6.155   2.760 -0.3550  0.4805  0.2590
  157OSM    O1217524   1.307   6.205   2.523 -0.4521 -0.5480  0.3233
  157OSM    C1S17525   1.206   6.035   2.764 -0.8651 -0.0254 -0.2808
  157OSM    H1S17526   1.267   5.955   2.716  1.4993  2.7055 -2.1778
  157OSM    H1T17527   1.110   6.037   2.707 -1.2216 -0.8907  0.2725
  157OSM     NF17528   1.164   5.839   2.904  0.3902 -0.1334 -0.5331
  157OSM    HNF17529   1.070   5.806   2.889 -0.5026  1.0147  2.0210
  157OSM    C2S17530   1.175   5.981   2.907  0.1245  0.2604 -0.6701
  157OSM    H2S17531   1.254   6.006   2.981  1.2085  0.7544 -1.9511
  157OSM    C3S17532   1.047   6.057   2.954 -0.1258  0.3018  0.1691
  157OSM    H3S17533   0.962   6.008   2.902 -0.3125  2.0616 -1.2764
  157OSM     O317534   1.036   6.188   2.908 -0.1510  0.1568  0.1498
  157OSM    HO317535   1.111   6.204   2.850  0.6668  0.4483  1.2489
  157OSM    C4S17536   1.015   6.046   3.103  0.4608 -0.4262  0.1187
  157OSM    H4S17537   1.001   5.945   3.144  0.3190 -0.6700 -0.5166
  157OSM    C5S17538   1.024   6.147   3.187 -0.2593 -1.0217 -0.6577
  157OSM    H5S17539   1.045   6.243   3.138 -1.4592 -0.2473  0.2771
  157OSM    C6S17540   1.005   6.150   3.338 -0.1889  0.2148  0.0083
  157OSM    H6S17541   0.911   6.205   3.357 -0.5701 -0.7975  1.1383
  157OSM    H6T17542   1.094   6.197   3.387  1.3780 -2.4133 -0.1089
  157OSM    C7S17543   0.981   6.015   3.404 -0.5413 -0.4628 -0.0259
  157OSM    H7S17544   1.069   5.948   3.406 -0.8096 -0.9292 -2.0948
  157OSM    H7T17545   0.904   5.957   3.350  1.0679 -2.9923  0.2556
  157OSM    C8S17546   0.927   6.045   3.546  0.3252  0.1355 -0.7178
  157OSM    H8S17547   0.830   6.099   3.549 -0.8513 -1.7827 -2.1527
  157OSM    H8T17548   1.005   6.107   3.596 -0.3622 -0.6158  1.4173
  157OSM    C9S17549   0.896   5.918   3.629  0.2864 -0.1206 -0.8283
  157OSM    H9S17550   0.978   5.844   3.623  1.0969  0.6791  0.0818
  157OSM    H9T17551   0.798   5.882   3.591 -0.3145 -1.5906  1.8439
  157OSM   C10S17552   0.876   5.963   3.780 -0.1299  0.6035  0.3192
  157OSM   H10S17553   0.819   5.886   3.837 -0.3420  0.9550  0.5810
  157OSM   H10T17554   0.821   6.059   3.784 -2.0776 -0.4910  1.1861
  157OSM   C11S17555   1.010   5.963   3.848 -0.6780 -0.6719 -0.0016
  157OSM   H11S17556   0.995   6.003   3.951 -2.5356 -1.3980  0.0556
  157OSM   H11T17557   1.084   6.027   3.796 -0.2430  0.1823  1.6017
  157OSM   C12S17558   1.086   5.834   3.875 -1.4744 -0.4129 -0.1423
  157OSM   H12S17559   1.194   5.857   3.864 -1.9087  2.0616  0.2174
  157OSM   H12T17560   1.062   5.751   3.805  0.8091 -1.9661  0.7967
  157OSM   C13S17561   1.066   5.790   4.020  0.0672 -0.2078  0.1536
  157OSM   H13S17562   1.060   5.680   4.035 -0.5405 -0.2232 -0.1683
  157OSM   H13T17563   0.965   5.823   4.052  0.6633  1.1830  0.6764
  157OSM   C14S17564   1.167   5.854   4.120 -0.0599  0.0197  0.3743
  157OSM   H14S17565   1.171   5.962   4.091 -2.4107  0.1448  0.2622
  157OSM   H14T17566   1.269   5.819   4.095  0.6936  1.8498  0.7007
  157OSM   C15S17567   1.148   5.833   4.273  0.1597  0.0222  0.9021
  157OSM   H15S17568   1.156   5.723   4.282  2.1927 -0.0477 -0.9068
  157OSM   H15T17569   1.041   5.852   4.295 -0.8696 -0.1400 -3.0776
  157OSM   C16S17570   1.242   5.929   4.344  0.3537  0.1490 -0.0702
  157OSM   H16S17571   1.321   5.944   4.268  1.4416 -4.4661 -0.1275
  157OSM   H16T17572   1.280   5.874   4.433  1.3894 -1.6390 -1.5561
  157OSM   C17S17573   1.184   6.062   4.398 -0.6139  0.5069  0.5474
  157OSM   H17S17574   1.139   6.105   4.307  0.3421 -0.4669 -0.4094
  157OSM   H17T17575   1.270   6.130   4.416 -1.1690  1.2684  0.3452
  157OSM   C18S17576   1.083   6.052   4.515 -0.8399  0.6869 -0.1769
  157OSM   H18S17577   1.071   6.154   4.557  2.3011  0.9123  0.4528
  157OSM   H18T17578   1.111   5.967   4.582  0.0792 -0.1351 -1.5590
  157OSM   H18U17579   0.991   6.016   4.465  0.4590 -1.1084 -1.3990
  157OSM    C1F17580   1.260   5.755   2.903  0.2034 -0.0479 -0.7339
  157OSM     OF17581   1.368   5.799   2.878 -0.6320  0.9346  0.0665
  157OSM    C2F17582   1.232   5.608   2.933 -0.4238 -0.4243  0.4815
  157OSM    H2F17583   1.253   5.542   2.846 -0.4249 -1.3941  1.2081
  157OSM    H2G17584   1.123   5.596   2.949 -0.4134 -1.7627 -0.3281
  157OSM    C3F17585   1.313   5.551   3.054  0.2234  0.3945  0.0465
  157OSM    H3F17586   1.309   5.623   3.139  0.7979  0.5293 -0.0372
  157OSM    H3G17587   1.419   5.548   3.021  1.3156 -2.2511  3.2140
  157OSM    C4F17588   1.269   5.408   3.091 -0.2785 -0.2903 -0.3921
  157OSM    H4F17589   1.278   5.346   2.998  1.5815  1.8601 -1.7319
  157OSM    H4G17590   1.160   5.413   3.115  0.3211  1.5849  2.2802
  157OSM    C5F17591   1.350   5.349   3.207  0.0187  0.6269  0.4333
  157OSM    H5F17592   1.300   5.384   3.300 -1.1731  3.6036 -1.1908
  157OSM    H5G17593   1.448   5.402   3.211 -0.3750  1.3143  1.3485
  157OSM    C6F17594   1.362   5.190   3.191 -0.6624 -0.3190 -0.8035
  157OSM    H6F17595   1.415   5.165   3.286 -1.3407  0.1849 -0.2821
  157OSM    H6G17596   1.424   5.164   3.102 -0.7205 -2.0182 -0.3908
  157OSM    C7F17597   1.231   5.104   3.189  0.4202 -0.1610 -0.3019
  157OSM    H7F17598   1.256   4.996   3.187 -0.6890 -0.4228 -0.7944
  157OSM    H7G17599   1.178   5.122   3.093  0.1409  0.6997  0.0014
  157OSM    C8F17600   1.126   5.148   3.291 -0.2414  0.6140  0.0971
  157OSM    H8F17601   1.031   5.094   3.269  1.8699 -2.5241 -2.0583
  157OSM    H8G17602   1.111   5.258   3.289  1.2170  0.8839  1.7311
  157OSM    C9F17603   1.180   5.105   3.427 -0.8685 -0.3357  0.9600
  157OSM    H9F17604   1.287   5.124   3.444 -0.5952 -2.7192  2.1781
  157OSM   C10F17605   1.112   5.060   3.533  0.1861  0.6568  0.1711
  157OSM   H10F17606   1.167   5.031   3.624 -0.5422 -3.3827 -0.4985
  157OSM   C11F17607   0.965   5.028   3.532  0.1893 -0.2985 -1.1433
  157OSM   H11F17608   0.942   4.921   3.551 -1.9012  0.1934 -0.6592
  157OSM   H11G17609   0.921   5.054   3.433  0.0516 -1.3013 -1.3630
  157OSM   C12F17610   0.902   5.107   3.655  0.2774  0.3724  0.0364
  157OSM   H12F17611   0.796   5.073   3.653  0.2455  0.4443  0.4263
  157OSM   H12G17612   0.903   5.210   3.614 -0.6364 -0.4824 -2.3167
  157OSM   C13F17613   0.979   5.102   3.789  0.4443  0.8562  0.3260
  157OSM   H13F17614   1.067   5.169   3.788 -0.2865  1.8636  0.9391
  157OSM   H13G17615   1.001   4.996   3.816 -5.7249 -0.5351  1.3698
  157OSM   C14F17616   0.884   5.153   3.893 -0.1197 -0.0194 -0.0278
  157OSM   H14F17617   0.788   5.103   3.866 -1.5045  2.1964  0.5560
  157OSM   H14G17618   0.857   5.260   3.880 -0.7169 -0.2023 -0.3749
  157OSM   C15F17619   0.939   5.122   4.036  0.2848 -0.4474 -0.0347
  157OSM   H15F17620   1.049   5.136   4.027  0.5763 -2.8301 -0.9539
  157OSM   H15G17621   0.929   5.016   4.069 -0.9871 -0.4977 -0.5359
  157OSM   C16F17622   0.874   5.208   4.147  0.9726  0.6514  0.2482
  157OSM   H16F17623   0.769   5.170   4.148  0.9892  0.6062  0.3162
  157OSM   H16G17624   0.868   5.314   4.116 -1.7264  0.1065 -1.4350
  157OSM   C17F17625   0.937   5.175   4.282  0.2184 -0.1501 -0.3390
  157OSM   H17F17626   0.966   5.069   4.298  0.4404  0.0586  0.7540
  157OSM   H17G17627   0.866   5.183   4.367  1.7337 -1.8961  1.1833
  157OSM   C18F17628   1.066   5.258   4.313  0.1452  0.9785  0.0240
  157OSM   H18F17629   1.055   5.368   4.304 -0.9441  1.0691  2.0224
  157OSM   H18G17630   1.143   5.231   4.237 -1.5591 -1.0941 -1.0850
  157OSM   H18H17631   1.102   5.227   4.413 -0.6603 -2.1470 -0.5460
  158OSM      N17632   5.751   0.454   2.276  0.5619 -0.3436  0.4688
  158OSM    C1517633   5.872   0.532   2.246  0.2662 -0.6189 -0.4252
  158OSM   H15A17634   5.928   0.556   2.335 -0.4604  2.6648 -0.7498
  158OSM   H15B17635   5.839   0.627   2.208 -0.0885 -1.1654 -1.5268
  158OSM   H15C17636   5.938   0.489   2.172  1.7818  0.1799  0.4101
  158OSM    C1417637   5.774   0.316   2.323  0.0546 -0.0214  0.2946
  158OSM   H14A17638   5.683   0.269   2.356  0.7575 -0.6233  1.4642
  158OSM   H14B17639   5.839   0.303   2.409 -1.8974 -0.5099  1.7789
  158OSM   H14C17640   5.803   0.253   2.240 -1.2543 -2.2499  1.4144
  158OSM    C1317641   5.676   0.521   2.391 -0.3075  0.8332  0.3207
  158OSM   H13A17642   5.681   0.628   2.379  1.5510  0.7426 -0.0277
  158OSM   H13B17643   5.722   0.489   2.483 -0.2472  0.0678  0.0293
  158OSM   H13C17644   5.573   0.488   2.391  0.1576 -1.2254 -3.6739
  158OSM    C1217645   5.658   0.462   2.153  0.1309 -0.0230 -0.0910
  158OSM   H12A17646   5.704   0.413   2.068 -0.0356  0.1996 -0.3135
  158OSM   H12B17647   5.639   0.565   2.127  0.5810  0.5263  1.6184
  158OSM    C1117648   5.513   0.402   2.158  0.5340 -0.1094 -0.4224
  158OSM   H11A17649   5.464   0.423   2.060  1.6586 -0.4225 -1.0661
  158OSM   H11B17650   5.466   0.456   2.243  1.2551 -0.6355  0.3296
  158OSM      P17651   5.412   0.185   2.270 -0.0024  0.0910 -0.1058
  158OSM    O1317652   5.273   0.236   2.259 -0.5703 -0.0780  0.6387
  158OSM    O1417653   5.422   0.042   2.230  0.1903 -0.0291 -0.4879
  158OSM    O1117654   5.461   0.208   2.414  0.4251 -0.3351 -0.4524
  158OSM    O1217655   5.511   0.263   2.189 -0.4446  0.4563 -0.1563
  158OSM    C1S17656   5.428   0.109   2.516  0.4052 -0.3449  0.7130
  158OSM    H1S17657   5.493   0.020   2.504 -0.9765 -1.4620  1.2944
  158OSM    H1T17658   5.324   0.071   2.519 -0.4555  1.8864  1.6224
  158OSM     NF17659   5.434   0.047   2.762  0.1991 -0.1674 -0.0901
  158OSM    HNF17660   5.361   0.066   2.827 -0.6231 -1.4671 -0.6009
  158OSM    C2S17661   5.461   0.157   2.662 -0.5998 -0.1421  0.6474
  158OSM    H2S17662   5.571   0.173   2.669 -0.8366  0.9963  2.4578
  158OSM    C3S17663   5.399   0.292   2.695  0.2720 -1.1634 -0.8536
  158OSM    H3S17664   5.291   0.285   2.719 -0.0758  2.0496 -1.0585
  158OSM     O317665   5.412   0.400   2.605 -0.2819 -0.0757  0.4681
  158OSM    HO317666   5.436   0.357   2.523 -1.0390 -1.1266  0.7796
  158OSM    C4S17667   5.463   0.345   2.824 -0.2706  0.1074  0.2467
  158OSM    H4S17668   5.419   0.292   2.909 -0.6874  1.1429  0.6924
  158OSM    C5S17669   5.548   0.446   2.855 -0.8350  0.1077  0.1009
  158OSM    H5S17670   5.583   0.509   2.772  0.4180 -0.5725  0.0726
  158OSM    C6S17671   5.591   0.489   2.990 -0.1552  0.2477  0.5800
  158OSM    H6S17672   5.594   0.599   3.005 -0.5379  0.5785 -1.4148
  158OSM    H6T17673   5.699   0.464   3.001 -0.3298 -1.0705 -0.4713
  158OSM    C7S17674   5.532   0.402   3.104 -0.0810 -0.9429  0.7351
  158OSM    H7S17675   5.575   0.300   3.095  2.4099 -0.0041  1.1123
  158OSM    H7T17676   5.422   0.394   3.094 -0.1708  2.1443 -2.7435
  158OSM    C8S17677   5.568   0.448   3.251 -1.0553 -0.4815 -0.3043
  158OSM    H8S17678   5.528   0.550   3.266  0.1670 -0.1308  0.6732
  158OSM    H8T17679   5.678   0.436   3.244 -0.9157 -0.1244  1.0698
  158OSM    C9S17680   5.515   0.359   3.366  0.0760 -0.6844  0.3738
  158OSM    H9S17681   5.556   0.257   3.351 -0.8593 -1.0492  0.1906
  158OSM    H9T17682   5.404   0.359   3.352  0.0199  1.4723  0.4898
  158OSM   C10S17683   5.544   0.419   3.507  0.5180  0.8637  0.2972
  158OSM   H10S17684   5.482   0.368   3.584  0.0122 -0.3150 -0.8587
  158OSM   H10T17685   5.528   0.529   3.517  0.3594  0.8701 -0.0087
  158OSM   C11S17686   5.690   0.388   3.541  0.1017  0.6649 -0.0593
  158OSM   H11S17687   5.744   0.460   3.476 -0.0575  1.4289  0.6412
  158OSM   H11T17688   5.729   0.289   3.510 -0.3719  1.1911 -2.6027
  158OSM   C12S17689   5.714   0.418   3.691  0.0665  0.0437 -0.7161
  158OSM   H12S17690   5.675   0.520   3.713 -0.2222  0.0332 -1.1662
  158OSM   H12T17691   5.825   0.414   3.696  0.0044 -0.3559  0.3825
  158OSM   C13S17692   5.655   0.316   3.791 -0.4487 -0.6243 -0.2873
  158OSM   H13S17693   5.713   0.229   3.754  2.7869  1.0719  0.4933
  158OSM   H13T17694   5.548   0.292   3.769 -0.6949  1.1529 -1.2074
  158OSM   C14S17695   5.662   0.355   3.940 -0.1709 -0.4740  0.7534
  158OSM   H14S17696   5.617   0.453   3.965 -2.4234 -1.5308  1.0197
  158OSM   H14T17697   5.772   0.361   3.958  0.3297 -1.2086 -1.6641
  158OSM   C15S17698   5.596   0.249   4.029 -0.2310  0.0311  0.0304
  158OSM   H15S17699   5.650   0.155   4.005  2.9141  1.9955 -1.2435
  158OSM   H15T17700   5.486   0.247   4.011 -0.3143  1.9853  0.1678
  158OSM   C16S17701   5.629   0.269   4.180  0.0901  0.0669  0.0368
  158OSM   H16S17702   5.551   0.219   4.241 -0.5764  0.9319 -0.0963
  158OSM   H16T17703   5.629   0.378   4.197  0.0146  0.1563 -0.5138
  158OSM   C17S17704   5.763   0.211   4.229  0.5325  0.3210  1.0458
  158OSM   H17S17705   5.841   0.237   4.154  1.4830  0.6773  2.1343
  158OSM   H17T17706   5.766   0.101   4.237  1.8810  0.4278  2.3913
  158OSM   C18S17707   5.820   0.264   4.363  0.4606  0.0358 -0.4668
  158OSM   H18S17708   5.918   0.217   4.388  0.0753 -0.4497  0.1475
  158OSM   H18T17709   5.750   0.242   4.446 -2.1220  0.9889 -2.2455
  158OSM   H18U17710   5.847   0.371   4.353  1.6293  0.0440  2.0743
  158OSM    C1F17711   5.503  -0.067   2.764 -0.4429  0.7453 -0.2988
  158OSM     OF17712   5.602  -0.074   2.691  0.1583 -0.3698 -0.2898
  158OSM    C2F17713   5.452  -0.180   2.845  0.9055  1.0164 -0.5665
  158OSM    H2F17714   5.371  -0.224   2.784  0.6424  0.9375 -0.1604
  158OSM    H2G17715   5.417  -0.143   2.944  0.6096  4.6235 -1.8774
  158OSM    C3F17716   5.568  -0.278   2.875 -0.1231  0.1583 -0.6933
  158OSM    H3F17717   5.645  -0.232   2.940  0.3922  0.5683 -1.5902
  158OSM    H3G17718   5.617  -0.317   2.783  2.3891  0.0383  0.6045
  158OSM    C4F17719   5.513  -0.402   2.937  0.1318 -0.0357  0.9618
  158OSM    H4F17720   5.589  -0.484   2.935  1.1744  0.8898 -1.9970
  158OSM    H4G17721   5.436  -0.432   2.863  0.8853 -0.0133  0.1628
  158OSM    C5F17722   5.465  -0.382   3.081 -0.6086  0.0192  0.0721
  158OSM    H5F17723   5.400  -0.293   3.097  0.0215  0.3196  1.0265
  158OSM    H5G17724   5.556  -0.358   3.139 -1.5391 -1.4665  2.2838
  158OSM    C6F17725   5.392  -0.499   3.151 -0.6229  0.5803 -0.1500
  158OSM    H6F17726   5.445  -0.596   3.142  2.7454  2.2681 -0.0451
  158OSM    H6G17727   5.294  -0.500   3.097  0.6149 -0.0355 -2.5384
  158OSM    C7F17728   5.365  -0.466   3.299  0.1982 -0.8707  0.8121
  158OSM    H7F17729   5.284  -0.389   3.298  0.0664 -1.0003 -0.4176
  158OSM    H7G17730   5.458  -0.427   3.344  0.9798  0.8823 -2.0090
  158OSM    C8F17731   5.311  -0.589   3.371  0.8563 -0.1976 -0.3831
  158OSM    H8F17732   5.385  -0.671   3.362  1.9911  0.8737 -1.1489
  158OSM    H8G17733   5.218  -0.622   3.321  1.8737 -0.3103 -2.3128
  158OSM    C9F17734   5.292  -0.567   3.523  0.4752  0.4519  0.0615
  158OSM    H9F17735   5.335  -0.477   3.570 -1.4483 -0.1827  3.3730
  158OSM   C10F17736   5.237  -0.653   3.608 -0.0916  0.2654 -0.2882
  158OSM   H10F17737   5.207  -0.615   3.706 -1.2884  3.0436 -1.6026
  158OSM   C11F17738   5.184  -0.786   3.569  0.1146 -0.3548 -0.5244
  158OSM   H11F17739   5.183  -0.805   3.459 -1.4599 -1.0508 -0.4188
  158OSM   H11G17740   5.075  -0.781   3.587 -0.1934 -0.3124 -2.2078
  158OSM   C12F17741   5.238  -0.905   3.632 -0.2982  0.1390  0.6063
  158OSM   H12F17742   5.333  -0.914   3.576 -0.3880  1.5266  0.1913
  158OSM   H12G17743   5.166  -0.981   3.596  0.4908 -0.7449  0.8641
  158OSM   C13F17744   5.239  -0.907   3.787  0.7209 -0.5614  0.3179
  158OSM   H13F17745   5.266  -0.805   3.820 -1.5418  0.2278 -0.0691
  158OSM   H13G17746   5.317  -0.982   3.813  3.1334  1.8451  0.5266
  158OSM   C14F17747   5.109  -0.956   3.862  0.6729 -0.1300  0.8561
  158OSM   H14F17748   5.090  -1.064   3.843 -2.1081 -0.1709  3.1478
  158OSM   H14G17749   5.020  -0.898   3.829 -0.0912 -3.0013 -2.8159
  158OSM   C15F17750   5.102  -0.942   4.017 -1.2055 -0.3463 -0.2504
  158OSM   H15F17751   5.028  -1.011   4.065  0.9569 -0.5323  3.1817
  158OSM   H15G17752   5.080  -0.834   4.033  0.1670 -0.2071  0.8890
  158OSM   C16F17753   5.236  -0.969   4.092 -0.1801 -0.5771  0.5499
  158OSM   H16F17754   5.310  -0.894   4.058 -2.2860  1.0400 -0.6327
  158OSM   H16G17755   5.281  -1.069   4.074  1.1009  0.2694 -1.2461
  158OSM   C17F17756   5.242  -0.954   4.242  0.5088  0.3846  0.4618
  158OSM   H17F17757   5.155  -1.007   4.286 -0.3884  0.5430 -1.0697
  158OSM   H17G17758   5.224  -0.845   4.257  1.4244  0.7324 -0.7883
  158OSM   C18F17759   5.375  -0.984   4.317  0.2900 -0.1677  0.3825
  158OSM   H18F17760   5.407  -1.089   4.295  0.0953  0.0585 -1.1099
  158OSM   H18G17761   5.369  -0.982   4.427  3.1111  0.1223  0.6149
  158OSM   H18H17762   5.459  -0.920   4.283  0.2337 -1.0469 -1.5981
  159OSM      N17763   1.860   6.730   2.860  0.0585  0.3061  0.3122
  159OSM    C1517764   1.765   6.726   2.745  0.0287  0.0066 -0.1798
  159OSM   H15A17765   1.724   6.627   2.730  3.2227 -1.1748 -2.2777
  159OSM   H15B17766   1.796   6.773   2.653 -0.1660  0.9563  0.2294
  159OSM   H15C17767   1.683   6.794   2.765 -1.2894 -0.4859 -3.3040
  159OSM    C1417768   1.815   6.644   2.978 -0.4459 -0.5667  0.2109
  159OSM   H14A17769   1.790   6.549   2.935 -1.9959  0.4250 -1.1941
  159OSM   H14B17770   1.727   6.676   3.033 -0.6123  0.0113 -0.3793
  159OSM   H14C17771   1.891   6.646   3.055 -1.0462  2.0405  0.8556
  159OSM    C1317772   1.986   6.669   2.817  0.5710  0.0295  0.2787
  159OSM   H13A17773   2.027   6.714   2.728 -0.2925 -1.3531 -0.8467
  159OSM   H13B17774   1.974   6.568   2.784  2.5379 -0.9200  2.1906
  159OSM   H13C17775   2.061   6.667   2.895  0.4628 -0.8875  0.3668
  159OSM    C1217776   1.888   6.867   2.906 -0.1498  0.1627 -0.4666
  159OSM   H12A17777   1.917   6.918   2.816  1.0548  0.0743 -0.1437
  159OSM   H12B17778   1.979   6.877   2.963  0.5774  1.2284 -1.7526
  159OSM    C1117779   1.772   6.933   2.980  0.3761  0.3565  0.8770
  159OSM   H11A17780   1.820   7.032   2.994  1.1167  0.3221 -1.1382
  159OSM   H11B17781   1.743   6.888   3.078 -0.7872 -0.0951  0.3483
  159OSM      P17782   1.555   7.047   2.925  0.3217  0.2733 -0.2903
  159OSM    O1317783   1.608   7.180   2.958  0.6176 -0.0835  0.2892
  159OSM    O1417784   1.466   7.051   2.809 -0.0168 -0.3758  0.1542
  159OSM    O1117785   1.485   6.989   3.046  0.2935 -0.0630 -0.3398
  159OSM    O1217786   1.666   6.938   2.895  0.5623  0.2540  0.4350
  159OSM    C1S17787   1.393   6.877   3.033 -0.3777 -0.3493  0.5209
  159OSM    H1S17788   1.445   6.792   2.984 -2.1464 -0.8272 -0.6111
  159OSM    H1T17789   1.301   6.894   2.974 -0.5487 -3.3824 -0.2147
  159OSM     NF17790   1.293   6.684   3.143  0.0311  0.0048 -0.2809
  159OSM    HNF17791   1.195   6.664   3.150 -0.2565  0.2833 -2.6095
  159OSM    C2S17792   1.345   6.819   3.170 -0.4057  0.1749  0.6901
  159OSM    H2S17793   1.434   6.804   3.235  1.0299 -1.9101 -1.5927
  159OSM    C3S17794   1.248   6.919   3.239 -0.7022 -0.6794  0.4316
  159OSM    H3S17795   1.160   6.908   3.172 -0.3091 -0.0769 -0.1927
  159OSM     O317796   1.284   7.060   3.224  0.1604 -0.2440  0.8565
  159OSM    HO317797   1.361   7.058   3.166  1.3894  2.2293  2.2186
  159OSM    C4S17798   1.196   6.887   3.374 -0.6732  0.0799  0.2524
  159OSM    H4S17799   1.246   6.801   3.421 -1.6763 -1.1610 -0.8800
  159OSM    C5S17800   1.081   6.927   3.434 -0.3877  0.7452 -0.2145
  159OSM    H5S17801   1.008   6.987   3.377 -1.3815 -2.4032 -2.5313
  159OSM    C6S17802   1.044   6.876   3.569  0.0610  0.7373  0.2507
  159OSM    H6S17803   1.127   6.875   3.642  0.4617  2.1386 -0.1603
  159OSM    H6T17804   1.011   6.770   3.559  1.1896  0.5059 -1.6263
  159OSM    C7S17805   0.936   6.960   3.631  0.0906 -0.4345 -0.0163
  159OSM    H7S17806   0.840   6.941   3.579 -0.0061  1.2616 -0.5270
  159OSM    H7T17807   0.967   7.067   3.629  1.8652 -0.8961  1.1069
  159OSM    C8S17808   0.904   6.931   3.780 -0.4547  0.0094 -0.0875
  159OSM    H8S17809   0.809   6.983   3.802 -1.5764 -0.3579 -3.4352
  159OSM    H8T17810   0.994   6.966   3.835  1.6950 -2.4985 -1.7624
  159OSM    C9S17811   0.903   6.779   3.796  0.3823 -0.2415 -0.6721
  159OSM    H9S17812   1.005   6.734   3.792  0.4241 -0.6327  2.2597
  159OSM    H9T17813   0.831   6.727   3.730 -1.8334 -1.4436  2.4427
  159OSM   C10S17814   0.854   6.757   3.941 -0.0828  0.0382 -0.5607
  159OSM   H10S17815   0.756   6.807   3.953 -0.3777 -0.5982 -0.3137
  159OSM   H10T17816   0.906   6.830   4.007  0.7750 -2.4413  1.6884
  159OSM   C11S17817   0.865   6.614   3.995  1.0983 -0.2777 -0.0875
  159OSM   H11S17818   0.966   6.570   3.979  0.8128 -0.5094 -1.4179
  159OSM   H11T17819   0.793   6.560   3.929  1.3958  1.6281 -2.1035
  159OSM   C12S17820   0.822   6.616   4.147 -0.2138 -0.2942 -0.0175
  159OSM   H12S17821   0.733   6.682   4.158  1.6733  2.3206  0.3475
  159OSM   H12T17822   0.905   6.654   4.209  0.7638  0.0570 -1.4800
  159OSM   C13S17823   0.779   6.475   4.192  0.5566  0.4554 -0.0721
  159OSM   H13S17824   0.717   6.430   4.112 -1.0833 -1.6722  2.2200
  159OSM   H13T17825   0.719   6.483   4.285  0.4090  1.6821 -0.2589
  159OSM   C14S17826   0.892   6.374   4.203 -0.6218  0.6896 -0.1901
  159OSM   H14S17827   0.939   6.404   4.299 -1.8119 -0.3780  0.7599
  159OSM   H14T17828   0.967   6.388   4.123 -0.7023 -0.8699 -0.5654
  159OSM   C15S17829   0.845   6.223   4.191 -0.3654  0.7138  0.4895
  159OSM   H15S17830   0.936   6.160   4.179 -0.5793  0.5407 -0.2733
  159OSM   H15T17831   0.785   6.208   4.099  0.6960 -2.8048  0.2431
  159OSM   C16S17832   0.765   6.173   4.310 -0.2733 -0.4954  0.4997
  159OSM   H16S17833   0.667   6.224   4.310  0.5356  1.1482  0.6361
  159OSM   H16T17834   0.821   6.207   4.400 -0.5791  2.0946 -0.2056
  159OSM   C17S17835   0.751   6.017   4.313 -0.3361 -1.1919  0.0758
  159OSM   H17S17836   0.853   5.975   4.307  0.0570 -0.3236  0.4990
  159OSM   H17T17837   0.693   5.980   4.226 -0.9168 -1.3868  0.5370
  159OSM   C18S17838   0.679   5.962   4.437 -0.0978  0.6168  0.7670
  159OSM   H18S17839   0.715   5.995   4.537 -0.5884 -2.8579  2.2660
  159OSM   H18T17840   0.685   5.851   4.440 -0.2271  0.5909  3.9935
  159OSM   H18U17841   0.573   5.990   4.425  0.6904  2.4751 -4.8187
  159OSM    C1F17842   1.365   6.576   3.103 -0.6624  0.2181  0.0974
  159OSM     OF17843   1.484   6.578   3.097 -0.1977  0.9489  0.2763
  159OSM    C2F17844   1.282   6.456   3.056 -0.0014 -0.1075  0.3909
  159OSM    H2F17845   1.264   6.469   2.947  0.9005 -1.8357 -0.0050
  159OSM    H2G17846   1.182   6.436   3.100 -0.5286 -3.2773 -1.8882
  159OSM    C3F17847   1.369   6.328   3.060  0.2309 -0.1809  0.1190
  159OSM    H3F17848   1.468   6.334   3.010 -0.2302  0.3112 -0.7603
  159OSM    H3G17849   1.315   6.243   3.013 -0.3270 -0.3943  1.1124
  159OSM    C4F17850   1.380   6.284   3.210 -0.2607  0.0335  0.2780
  159OSM    H4F17851   1.277   6.268   3.248 -0.2068 -2.4266 -0.4404
  159OSM    H4G17852   1.432   6.361   3.271 -0.1996  0.4194 -0.2556
  159OSM    C5F17853   1.462   6.157   3.227 -0.4381  0.4438 -0.0268
  159OSM    H5F17854   1.565   6.165   3.185 -0.3014 -0.5858  0.0706
  159OSM    H5G17855   1.405   6.084   3.166  1.6913 -0.8977 -0.5126
  159OSM    C6F17856   1.457   6.119   3.376  0.1044  0.4172  0.5934
  159OSM    H6F17857   1.352   6.141   3.407 -0.5649  1.7792 -2.2606
  159OSM    H6G17858   1.536   6.167   3.438  0.6129 -1.0716  1.1210
  159OSM    C7F17859   1.486   5.981   3.416 -0.2903 -0.2022  0.9052
  159OSM    H7F17860   1.596   5.962   3.412 -0.6662 -2.5625  0.0987
  159OSM    H7G17861   1.450   5.909   3.340  1.0128  1.9408 -1.9038
  159OSM    C8F17862   1.431   5.942   3.553  0.1917  0.0747  0.0256
  159OSM    H8F17863   1.322   5.950   3.573  0.1226 -2.5690  1.1123
  159OSM    H8G17864   1.480   6.001   3.634  0.9057 -0.4400 -0.0178
  159OSM    C9F17865   1.451   5.794   3.593  0.1091 -0.0619 -0.0177
  159OSM    H9F17866   1.398   5.720   3.532  0.3989 -1.4282  1.3142
  159OSM   C10F17867   1.530   5.743   3.689 -0.0758 -0.4356 -0.4714
  159OSM   H10F17868   1.520   5.633   3.688 -1.8728 -0.2972 -0.4290
  159OSM   C11F17869   1.607   5.811   3.809  0.4965 -0.1117 -0.2041
  159OSM   H11F17870   1.621   5.916   3.775  0.5876 -0.1089 -0.1570
  159OSM   H11G17871   1.709   5.767   3.818 -0.4262 -2.8143 -1.7656
  159OSM   C12F17872   1.560   5.794   3.955 -0.2247  0.0105  0.2207
  159OSM   H12F17873   1.454   5.828   3.956  0.1980  1.5447 -1.1837
  159OSM   H12G17874   1.628   5.851   4.022  0.5034  1.0350 -1.3006
  159OSM   C13F17875   1.570   5.648   3.998 -0.0603  0.1143 -0.7963
  159OSM   H13F17876   1.671   5.639   4.042 -1.1794 -1.3178  1.6872
  159OSM   H13G17877   1.553   5.582   3.910  0.3095 -1.2780  0.1492
  159OSM   C14F17878   1.475   5.608   4.120 -0.4453  0.1279  0.0153
  159OSM   H14F17879   1.368   5.598   4.093 -0.4492  0.6598 -0.1805
  159OSM   H14G17880   1.483   5.697   4.185 -0.2246 -0.9524  1.5323
  159OSM   C15F17881   1.535   5.500   4.216  0.0331 -0.4683  0.6789
  159OSM   H15F17882   1.619   5.536   4.279 -0.3916  1.5873  0.1384
  159OSM   H15G17883   1.568   5.417   4.151 -2.2981 -0.7946 -0.1721
  159OSM   C16F17884   1.426   5.446   4.299 -0.4928 -0.4519 -0.0151
  159OSM   H16F17885   1.327   5.449   4.249  0.3611  2.5126 -1.8055
  159OSM   H16G17886   1.423   5.514   4.387  0.0105  0.1579 -0.4618
  159OSM   C17F17887   1.452   5.299   4.348 -0.0459 -0.3879  0.0712
  159OSM   H17F17888   1.484   5.234   4.264  1.4583  0.6275 -0.1728
  159OSM   H17G17889   1.361   5.261   4.399  0.9063  0.2670  2.3665
  159OSM   C18F17890   1.564   5.294   4.450  0.7476 -0.5094 -0.1597
  159OSM   H18F17891   1.547   5.378   4.520 -0.2852  0.2479 -1.2661
  159OSM   H18G17892   1.660   5.309   4.396  1.1699  0.3217  0.8022
  159OSM   H18H17893   1.568   5.194   4.497 -1.2785  0.1968  1.6421
  160OSM      N17894   6.280   2.535   2.212 -0.2693 -0.2141  0.6583
  160OSM    C1517895   6.225   2.399   2.256 -0.0276  0.1585  0.0694
  160OSM   H15A17896   6.219   2.340   2.166 -0.7736 -1.1591  0.9556
  160OSM   H15B17897   6.130   2.407   2.306 -0.5906  2.1662 -1.1864
  160OSM   H15C17898   6.297   2.345   2.315 -1.9334 -1.5364  0.9784
  160OSM    C1417899   6.175   2.612   2.140 -0.3912  0.6517  0.3730
  160OSM   H14A17900   6.220   2.697   2.090  2.5985  1.2296  3.6245
  160OSM   H14B17901   6.113   2.668   2.208 -0.6897 -0.7017  1.2622
  160OSM   H14C17902   6.110   2.553   2.078  0.6955  1.5555 -1.7410
  160OSM    C1317903   6.311   2.619   2.337  0.5212  0.2622  0.4744
  160OSM   H13A17904   6.414   2.597   2.364  0.9699  2.3352  0.6435
  160OSM   H13B17905   6.233   2.599   2.409 -0.5606  1.1034 -0.4369
  160OSM   H13C17906   6.301   2.725   2.321  3.8856  0.3836 -1.9537
  160OSM    C1217907   6.409   2.521   2.127  0.1724  0.1720 -0.0385
  160OSM   H12A17908   6.435   2.622   2.103 -2.2301  1.1341  1.0578
  160OSM   H12B17909   6.372   2.473   2.037  1.1974  1.0196 -0.9338
  160OSM    C1117910   6.537   2.449   2.185 -0.5240 -0.0814 -0.4645
  160OSM   H11A17911   6.608   2.440   2.100  0.4257 -1.4983  0.4428
  160OSM   H11B17912   6.499   2.347   2.207 -0.3931 -0.4473 -1.8356
  160OSM      P17913   6.679   2.629   2.310 -0.2663 -0.1610 -0.2597
  160OSM    O1317914   6.817   2.582   2.328 -0.0469 -0.1595  0.3732
  160OSM    O1417915   6.644   2.718   2.194  0.4142  0.1176 -0.3193
  160OSM    O1117916   6.634   2.690   2.451 -0.0737 -0.6730 -0.4861
  160OSM    O1217917   6.585   2.500   2.306 -0.3567  0.4548 -0.4571
  160OSM    C1S17918   6.622   2.602   2.564  0.3527  0.3934  1.0053
  160OSM    H1S17919   6.717   2.547   2.575  0.8880  1.0543 -0.0803
  160OSM    H1T17920   6.540   2.532   2.539 -1.6291  3.4362 -2.0671
  160OSM     NF17921   6.598   2.590   2.802 -0.0636  0.4868  0.2277
  160OSM    HNF17922   6.507   2.591   2.843  0.4924  2.0090  1.5297
  160OSM    C2S17923   6.601   2.690   2.691 -0.0949  0.6421  0.0992
  160OSM    H2S17924   6.693   2.750   2.701  0.2970  0.3970 -1.7009
  160OSM    C3S17925   6.481   2.791   2.678  0.4732 -0.3974 -0.1044
  160OSM    H3S17926   6.385   2.736   2.670 -1.4126  2.8239 -1.6742
  160OSM     O317927   6.485   2.880   2.561 -0.0699  0.7804 -0.0271
  160OSM    HO317928   6.563   2.852   2.514 -1.4645  0.1557 -2.1124
  160OSM    C4S17929   6.479   2.882   2.799 -0.4190 -0.1126 -0.5307
  160OSM    H4S17930   6.572   2.932   2.831 -0.1465  0.0619 -1.5565
  160OSM    C5S17931   6.364   2.910   2.873 -0.0391 -0.0635  0.0466
  160OSM    H5S17932   6.264   2.873   2.845  1.1333 -3.5786 -0.0682
  160OSM    C6S17933   6.358   3.006   2.991 -0.0273  0.0013 -0.0671
  160OSM    H6S17934   6.290   3.091   2.967 -0.8488 -0.7113 -0.3179
  160OSM    H6T17935   6.460   3.042   3.015 -0.4062  0.1543  1.4150
  160OSM    C7S17936   6.313   2.943   3.124  0.5311 -0.2450 -0.2430
  160OSM    H7S17937   6.393   2.872   3.152 -1.4095 -2.1784  0.6692
  160OSM    H7T17938   6.217   2.887   3.114  0.5088 -0.2622  0.0540
  160OSM    C8S17939   6.297   3.047   3.235 -0.5164 -0.5403 -0.3813
  160OSM    H8S17940   6.210   3.108   3.203 -0.3135 -0.5956 -1.0557
  160OSM    H8T17941   6.399   3.092   3.237 -0.7372 -0.0518  0.1155
  160OSM    C9S17942   6.272   2.998   3.378 -0.0042 -0.0825 -0.1242
  160OSM    H9S17943   6.329   2.908   3.409 -0.2303  0.4411  1.9057
  160OSM    H9T17944   6.165   2.968   3.375 -0.4848  1.2992  1.7206
  160OSM   C10S17945   6.283   3.109   3.480 -0.8924 -0.0993  0.2040
  160OSM   H10S17946   6.224   3.193   3.436  0.1432  1.0529  0.9345
  160OSM   H10T17947   6.391   3.137   3.475  0.0156 -2.9145  1.7206
  160OSM   C11S17948   6.230   3.067   3.616  0.0771 -0.2595  0.4633
  160OSM   H11S17949   6.291   2.980   3.646  2.5594  1.6106  1.1892
  160OSM   H11T17950   6.127   3.025   3.622  0.3624 -0.7382  2.8237
  160OSM   C12S17951   6.244   3.163   3.727  0.1351 -0.1405 -0.2235
  160OSM   H12S17952   6.160   3.236   3.732  1.7496  1.9595 -1.9121
  160OSM   H12T17953   6.332   3.230   3.722 -0.9029  1.2699 -0.1495
  160OSM   C13S17954   6.248   3.100   3.869 -0.4558  0.3567  0.0430
  160OSM   H13S17955   6.317   3.013   3.866 -2.9972 -1.7562 -1.9480
  160OSM   H13T17956   6.149   3.059   3.900 -0.3076  2.0858  3.1842
  160OSM   C14S17957   6.291   3.198   3.978  0.5337 -0.6744 -0.0873
  160OSM   H14S17958   6.212   3.274   3.998  1.0873 -0.3289  0.8430
  160OSM   H14T17959   6.372   3.261   3.935 -0.5491 -1.1114 -3.0212
  160OSM   C15S17960   6.340   3.132   4.106  0.1550  0.5904 -0.5409
  160OSM   H15S17961   6.422   3.059   4.092  0.1783  0.5156 -0.0326
  160OSM   H15T17962   6.257   3.072   4.149 -1.0847  0.5111 -2.8513
  160OSM   C16S17963   6.393   3.221   4.218  0.2339  0.0227  0.3638
  160OSM   H16S17964   6.410   3.316   4.162 -1.5562  0.5323  0.6117
  160OSM   H16T17965   6.490   3.182   4.256  0.5086 -0.3708 -0.6952
  160OSM   C17S17966   6.293   3.259   4.329  0.7675 -0.5964  0.6189
  160OSM   H17S17967   6.348   3.339   4.382  0.5910 -0.2746  0.3209
  160OSM   H17T17968   6.266   3.170   4.390  1.8186 -0.2690  1.6057
  160OSM   C18S17969   6.159   3.321   4.274 -0.2135 -0.0782 -0.2025
  160OSM   H18S17970   6.127   3.249   4.195 -1.2599  0.4015 -0.2356
  160OSM   H18T17971   6.170   3.416   4.217 -1.3032  0.9002  1.1384
  160OSM   H18U17972   6.080   3.329   4.352 -0.3240  2.2141 -0.4619
  160OSM    C1F17973   6.702   2.510   2.840 -0.8470  0.5035  0.3491
  160OSM     OF17974   6.807   2.511   2.779 -0.0014 -0.6111 -0.9409
  160OSM    C2F17975   6.699   2.444   2.971 -0.3615 -0.3874 -0.4271
  160OSM    H2F17976   6.600   2.477   3.007 -0.0321 -0.0219  0.1627
  160OSM    H2G17977   6.788   2.482   3.026  0.7956  0.9851 -3.0844
  160OSM    C3F17978   6.713   2.292   2.954 -0.2965  0.0207  0.0563
  160OSM    H3F17979   6.810   2.262   2.908 -0.0342  0.1662  0.5115
  160OSM    H3G17980   6.629   2.242   2.902  0.4151 -1.5695  0.3645
  160OSM    C4F17981   6.713   2.211   3.085  0.8523  0.0298  0.5586
  160OSM    H4F17982   6.682   2.107   3.061  0.7835  0.4342 -1.2467
  160OSM    H4G17983   6.627   2.237   3.150 -0.7762 -1.1157 -1.0488
  160OSM    C5F17984   6.837   2.212   3.167 -0.2189  0.5416  0.5758
  160OSM    H5F17985   6.828   2.289   3.247 -2.0741  2.1646 -1.0952
  160OSM    H5G17986   6.925   2.243   3.105 -0.1503  0.4750  0.6389
  160OSM    C6F17987   6.874   2.078   3.229 -0.6709 -0.1522 -0.0267
  160OSM    H6F17988   6.955   2.092   3.305 -1.4118  1.0216  0.5758
  160OSM    H6G17989   6.917   2.014   3.149 -0.5170  0.6342 -0.5840
  160OSM    C7F17990   6.765   2.003   3.305 -0.1050 -0.4346 -0.2416
  160OSM    H7F17991   6.665   2.015   3.258  0.0279  3.0948  0.1173
  160OSM    H7G17992   6.762   2.050   3.406 -2.0042  0.6756 -0.7710
  160OSM    C8F17993   6.799   1.861   3.308  0.8164  0.7815  0.2272
  160OSM    H8F17994   6.897   1.855   3.360  1.1422  0.2212 -0.4333
  160OSM    H8G17995   6.828   1.837   3.203  0.5325 -1.2106  0.5650
  160OSM    C9F17996   6.710   1.746   3.345  0.0491 -0.4773 -0.3725
  160OSM    H9F17997   6.631   1.721   3.272  0.1847  0.7348 -0.9592
  160OSM   C10F17998   6.740   1.657   3.450  0.0340 -1.0294 -0.3484
  160OSM   H10F17999   6.661   1.588   3.484 -0.6464  0.0686  0.3619
  160OSM   C11F18000   6.864   1.661   3.542  0.3999  0.1996  0.1000
  160OSM   H11F18001   6.950   1.687   3.477  0.4996 -0.2168  0.0653
  160OSM   H11G18002   6.879   1.571   3.604  1.7725  0.2074 -0.1843
  160OSM   C12F18003   6.849   1.778   3.647  0.5280  0.5395  0.5146
  160OSM   H12F18004   6.761   1.760   3.713 -0.1337 -0.6547 -0.6548
  160OSM   H12G18005   6.840   1.878   3.599  2.8175 -0.5081 -2.4308
  160OSM   C13F18006   6.975   1.777   3.733  1.0357  0.9203  0.1484
  160OSM   H13F18007   7.067   1.781   3.671  1.3144 -0.2789  0.4566
  160OSM   H13G18008   6.987   1.682   3.789  0.0143 -0.4713 -1.8768
  160OSM   C14F18009   6.978   1.908   3.821  0.0140 -0.3837  0.6532
  160OSM   H14F18010   6.890   1.919   3.887 -2.4150 -0.0475 -2.4266
  160OSM   H14G18011   6.978   1.997   3.754  3.1245 -0.9151 -0.1968
  160OSM   C15F18012   7.112   1.922   3.905  0.1402 -0.1149  0.1847
  160OSM   H15F18013   7.196   1.945   3.837 -1.1672  0.9933 -1.1168
  160OSM   H15G18014   7.129   1.824   3.956 -1.0742 -0.2101  0.4348
  160OSM   C16F18015   7.085   2.025   4.018 -0.0538 -0.4101  0.2244
  160OSM   H16F18016   6.982   2.003   4.053 -0.4954  1.1533 -0.0554
  160OSM   H16G18017   7.083   2.130   3.985 -0.5526 -0.2444  0.7557
  160OSM   C17F18018   7.187   2.007   4.133  0.0557  0.4322 -0.1968
  160OSM   H17F18019   7.281   1.980   4.081 -1.0239  0.4890 -2.2417
  160OSM   H17G18020   7.160   1.921   4.199 -0.1225 -0.4155 -1.3356
  160OSM   C18F18021   7.206   2.130   4.210  0.0229 -0.3713 -0.6437
  160OSM   H18F18022   7.266   2.105   4.300  0.1031  0.6087 -0.4093
  160OSM   H18G18023   7.112   2.185   4.233  0.6839  1.1807 -1.4641
  160OSM   H18H18024   7.263   2.199   4.144  2.0442 -2.8739 -1.6511
  161OSM      N18025   3.772   0.070   2.196 -0.0888  0.4165 -0.5061
  161OSM    C1518026   3.823   0.020   2.065 -0.4086 -0.0165 -0.2299
  161OSM   H15A18027   3.800   0.080   1.978  3.5887  0.4269 -1.1787
  161OSM   H15B18028   3.795  -0.082   2.040 -0.7300  0.1577 -0.5935
  161OSM   H15C18029   3.930   0.010   2.071 -0.5671 -2.6919 -0.3008
  161OSM    C1418030   3.843   0.008   2.308  0.7989 -0.0643  1.0326
  161OSM   H14A18031   3.836  -0.100   2.300 -2.4493 -0.1456  2.8652
  161OSM   H14B18032   3.784   0.024   2.398 -3.4756 -3.7257 -0.7284
  161OSM   H14C18033   3.945   0.040   2.323  0.7251 -0.3614  2.3147
  161OSM    C1318034   3.806   0.218   2.188  0.3337 -0.4681 -0.8578
  161OSM   H13A18035   3.774   0.271   2.099  1.1525  0.7590 -0.4396
  161OSM   H13B18036   3.911   0.233   2.206  0.2182 -0.6744  0.0196
  161OSM   H13C18037   3.758   0.273   2.267  0.3087 -1.8606  0.1359
  161OSM    C1218038   3.626   0.056   2.204 -0.2312 -0.3282 -0.3723
  161OSM   H12A18039   3.574   0.102   2.121  0.0026  0.5921 -0.0197
  161OSM   H12B18040   3.584   0.110   2.288 -0.3110  2.6756 -2.1999
  161OSM    C1118041   3.581  -0.087   2.200  0.2799  0.4249 -0.0818
  161OSM   H11A18042   3.578  -0.130   2.303  0.9600 -1.1851 -0.7035
  161OSM   H11B18043   3.647  -0.154   2.141 -1.9559 -1.9638 -0.0685
  161OSM      P18044   3.327  -0.036   2.221 -0.0260 -0.4433 -0.0265
  161OSM    O1318045   3.272   0.067   2.134  0.4767 -0.1948  0.3192
  161OSM    O1418046   3.239  -0.148   2.263  0.4212 -0.1996 -0.2157
  161OSM    O1118047   3.386   0.037   2.353  0.1272  0.1784  0.3800
  161OSM    O1218048   3.451  -0.097   2.142  0.0477 -0.2696  0.0901
  161OSM    C1S18049   3.391  -0.028   2.480 -0.0012  0.7104 -0.5582
  161OSM    H1S18050   3.470  -0.105   2.482  0.0656  0.7763 -0.7181
  161OSM    H1T18051   3.292  -0.066   2.515  0.4928 -0.4459 -0.3948
  161OSM     NF18052   3.470   0.010   2.722 -0.0162 -0.4014 -0.5768
  161OSM    HNF18053   3.392  -0.000   2.783  0.6800 -1.1375  0.1976
  161OSM    C2S18054   3.431   0.073   2.595 -0.5946  0.0611  0.8914
  161OSM    H2S18055   3.527   0.118   2.562  0.0918 -1.5296  0.6430
  161OSM    C3S18056   3.316   0.188   2.599 -0.6480 -0.0534 -0.6381
  161OSM    H3S18057   3.221   0.140   2.633  0.2446 -1.8512 -0.5518
  161OSM     O318058   3.280   0.247   2.474 -0.1287  0.2500 -0.4906
  161OSM    HO318059   3.328   0.187   2.417  0.1622 -0.6676  0.6775
  161OSM    C4S18060   3.354   0.297   2.703 -0.3147 -0.5457 -0.7896
  161OSM    H4S18061   3.455   0.338   2.687  0.1429 -1.5856 -0.6041
  161OSM    C5S18062   3.277   0.359   2.794  0.4603 -0.0824  0.0115
  161OSM    H5S18063   3.176   0.318   2.808 -0.5552  2.0098 -0.8103
  161OSM    C6S18064   3.312   0.467   2.890  0.1125 -0.9619  0.3050
  161OSM    H6S18065   3.250   0.558   2.875 -1.5366 -1.5788  2.7152
  161OSM    H6T18066   3.418   0.492   2.870 -0.2928  0.0966 -0.5853
  161OSM    C7S18067   3.304   0.433   3.044 -0.4214 -0.1320 -0.0189
  161OSM    H7S18068   3.198   0.420   3.071 -0.0652 -0.3963  1.3129
  161OSM    H7T18069   3.337   0.523   3.101 -0.4531 -0.0407 -0.1438
  161OSM    C8S18070   3.403   0.320   3.074 -0.7064  0.5412  0.2824
  161OSM    H8S18071   3.495   0.331   3.013  0.8124  0.3257  2.4131
  161OSM    H8T18072   3.365   0.221   3.042 -1.0290  0.3802  1.1354
  161OSM    C9S18073   3.435   0.324   3.223 -0.2640 -0.4048 -1.2358
  161OSM    H9S18074   3.344   0.286   3.274  1.4335 -2.4913  0.5018
  161OSM    H9T18075   3.449   0.427   3.262 -0.6376 -0.3821 -1.1590
  161OSM   C10S18076   3.551   0.231   3.262 -0.0051  0.0137  0.3970
  161OSM   H10S18077   3.638   0.286   3.219 -0.8025  1.2041  0.2794
  161OSM   H10T18078   3.526   0.140   3.204 -1.0087 -0.1505  1.0707
  161OSM   C11S18079   3.572   0.215   3.410 -0.3126 -0.0329  0.0433
  161OSM   H11S18080   3.657   0.145   3.426 -0.5216  0.3028  3.3288
  161OSM   H11T18081   3.481   0.171   3.457 -0.0711 -1.4498 -0.7723
  161OSM   C12S18082   3.615   0.331   3.505 -0.4508 -0.0181 -0.1512
  161OSM   H12S18083   3.534   0.405   3.523 -1.8630 -2.0759  2.6530
  161OSM   H12T18084   3.692   0.390   3.450 -1.2090  1.2157  0.0574
  161OSM   C13S18085   3.665   0.285   3.645 -0.3747 -0.3737 -0.7165
  161OSM   H13S18086   3.742   0.207   3.626  1.5638  1.5252 -0.9921
  161OSM   H13T18087   3.589   0.233   3.708  0.1512 -1.1942 -0.7437
  161OSM   C14S18088   3.732   0.407   3.716 -1.1573 -1.1582  0.4093
  161OSM   H14S18089   3.651   0.482   3.726  0.8793  1.1002  0.9421
  161OSM   H14T18090   3.811   0.448   3.650 -1.5058  2.5878  2.0808
  161OSM   C15S18091   3.802   0.371   3.854  0.0232  0.3822  0.6161
  161OSM   H15S18092   3.871   0.453   3.884  3.4534 -2.1559  0.3286
  161OSM   H15T18093   3.865   0.281   3.841  0.2715  0.8663 -2.0697
  161OSM   C16S18094   3.699   0.367   3.970 -0.0488 -0.0038  0.4513
  161OSM   H16S18095   3.621   0.306   3.921  1.4617 -1.2740 -0.4579
  161OSM   H16T18096   3.667   0.467   4.008 -1.7028 -1.0114  1.8617
  161OSM   C17S18097   3.748   0.284   4.084 -0.1331  0.0311 -0.2668
  161OSM   H17S18098   3.837   0.333   4.128 -1.4231  0.9816  1.3908
  161OSM   H17T18099   3.782   0.189   4.036 -0.4459 -0.7003  0.8989
  161OSM   C18S18100   3.644   0.262   4.190  0.0424  0.6755  0.9231
  161OSM   H18S18101   3.635   0.345   4.263  1.6977 -0.0497  2.0327
  161OSM   H18T18102   3.673   0.172   4.248  0.6175 -0.5253 -1.1273
  161OSM   H18U18103   3.548   0.238   4.139  1.3685 -0.8733 -1.0042
  161OSM    C1F18104   3.585  -0.056   2.753  0.0326 -0.6512 -0.7282
  161OSM     OF18105   3.670  -0.069   2.663  0.4666 -0.1123 -0.0298
  161OSM    C2F18106   3.611  -0.117   2.889 -1.3954  0.3488 -0.8753
  161OSM    H2F18107   3.603  -0.228   2.886  1.2739 -0.0111  1.1611
  161OSM    H2G18108   3.528  -0.078   2.952 -0.3805  0.9736  0.1075
  161OSM    C3F18109   3.743  -0.071   2.959 -0.5658 -0.0639 -0.1436
  161OSM    H3F18110   3.735   0.032   3.002  1.3464 -0.1841  0.6016
  161OSM    H3G18111   3.818  -0.078   2.878 -2.6048  1.3333 -2.2619
  161OSM    C4F18112   3.768  -0.155   3.084 -0.0382  0.0555 -0.3202
  161OSM    H4F18113   3.867  -0.142   3.133 -0.3038  0.1372  0.1951
  161OSM    H4G18114   3.743  -0.262   3.066  0.8472  0.2254 -3.1669
  161OSM    C5F18115   3.676  -0.114   3.195  0.3669  0.4729  0.0406
  161OSM    H5F18116   3.568  -0.114   3.166  0.2646 -2.8245  0.0217
  161OSM    H5G18117   3.701  -0.012   3.228  0.5136  0.6952 -0.7270
  161OSM    C6F18118   3.682  -0.222   3.310  0.4110  0.6464 -0.3199
  161OSM    H6F18119   3.777  -0.277   3.296 -0.1600 -0.1947 -0.9525
  161OSM    H6G18120   3.601  -0.295   3.295  0.5653  0.3913  0.0782
  161OSM    C7F18121   3.682  -0.150   3.447 -0.2673  0.0001  0.7853
  161OSM    H7F18122   3.582  -0.102   3.458 -0.9813 -1.2639  0.1127
  161OSM    H7G18123   3.750  -0.062   3.451  3.0318 -2.2410 -1.3494
  161OSM    C8F18124   3.717  -0.236   3.567  0.0524  0.7001 -0.4608
  161OSM    H8F18125   3.720  -0.159   3.647 -2.2569  0.2423  0.1483
  161OSM    H8G18126   3.816  -0.286   3.559 -0.3674 -0.0356 -1.2669
  161OSM    C9F18127   3.606  -0.331   3.596  0.0367 -0.0264 -0.0576
  161OSM    H9F18128   3.589  -0.407   3.518 -1.9811  0.0175  0.2948
  161OSM   C10F18129   3.511  -0.311   3.689  0.4073 -0.3836 -0.4872
  161OSM   H10F18130   3.429  -0.382   3.708 -1.0844  1.3909  0.0415
  161OSM   C11F18131   3.491  -0.197   3.785  0.0113 -0.5655 -0.2253
  161OSM   H11F18132   3.428  -0.127   3.726  0.4702 -1.1271 -1.4117
  161OSM   H11G18133   3.588  -0.144   3.800  0.4284 -0.0924 -3.8534
  161OSM   C12F18134   3.424  -0.219   3.919  0.0576  0.3234 -0.3404
  161OSM   H12F18135   3.332  -0.279   3.910 -1.0917  1.9627  0.0685
  161OSM   H12G18136   3.391  -0.122   3.963 -0.4728 -0.2193  0.4850
  161OSM   C13F18137   3.524  -0.279   4.022  0.4639 -0.2265 -0.3516
  161OSM   H13F18138   3.598  -0.197   4.035  0.3955 -0.4027  1.4776
  161OSM   H13G18139   3.577  -0.373   3.996 -0.6659 -0.2318 -2.9776
  161OSM   C14F18140   3.454  -0.310   4.156  0.1163 -0.2814 -0.2211
  161OSM   H14F18141   3.363  -0.370   4.136 -0.3359  0.0950  0.6470
  161OSM   H14G18142   3.418  -0.213   4.197 -0.2325  0.3732 -1.9554
  161OSM   C15F18143   3.549  -0.383   4.257  0.5178 -0.6896  0.4736
  161OSM   H15F18144   3.617  -0.306   4.300  0.4252 -0.7054  0.6465
  161OSM   H15G18145   3.604  -0.462   4.202 -0.9962 -0.9627 -0.7319
  161OSM   C16F18146   3.463  -0.456   4.351 -0.6617  0.0764 -0.1903
  161OSM   H16F18147   3.407  -0.525   4.283 -1.0236  0.9562 -0.7952
  161OSM   H16G18148   3.387  -0.385   4.388  0.0836  1.5900 -1.4821
  161OSM   C17F18149   3.544  -0.525   4.460  0.1166  0.0522  0.1827
  161OSM   H17F18150   3.615  -0.592   4.408 -1.2250 -1.5935  0.3725
  161OSM   H17G18151   3.474  -0.585   4.522 -0.5650 -0.3665 -0.9628
  161OSM   C18F18152   3.602  -0.431   4.559 -0.4771  0.4882 -1.2208
  161OSM   H18F18153   3.522  -0.385   4.620  0.0439  0.1447 -0.2578
  161OSM   H18G18154   3.643  -0.344   4.504  0.4034  0.6931 -0.2700
  161OSM   H18H18155   3.680  -0.466   4.630  0.6999  2.3060 -1.5658
  162OSM      N18156   5.454   1.501   2.478 -0.3707  0.5066  0.1688
  162OSM    C1518157   5.511   1.402   2.386 -0.3500  0.4994  0.6471
  162OSM   H15A18158   5.434   1.343   2.339  0.3112  0.0391  0.1109
  162OSM   H15B18159   5.581   1.333   2.432  0.4503  1.3261  0.7046
  162OSM   H15C18160   5.560   1.458   2.308 -1.0981 -0.9497 -0.9382
  162OSM    C1418161   5.546   1.613   2.497 -0.1187 -0.2639 -0.1308
  162OSM   H14A18162   5.508   1.672   2.580  0.1234 -0.2982  0.0049
  162OSM   H14B18163   5.558   1.682   2.415 -1.5642 -0.8597 -0.8815
  162OSM   H14C18164   5.636   1.565   2.531 -0.5292 -1.4627 -0.7136
  162OSM    C1318165   5.333   1.562   2.413  0.5083 -0.5542  0.3288
  162OSM   H13A18166   5.261   1.487   2.383  1.7483 -2.4079  1.7407
  162OSM   H13B18167   5.358   1.611   2.321 -0.6031  1.5710  1.1019
  162OSM   H13C18168   5.286   1.632   2.481  1.1949 -0.5388  0.8008
  162OSM    C1218169   5.425   1.440   2.613  0.5874 -0.0489  1.0577
  162OSM   H12A18170   5.515   1.384   2.637  1.3461 -0.9354 -3.1181
  162OSM   H12B18171   5.348   1.366   2.598  0.9601 -0.3569  0.6069
  162OSM    C1118172   5.365   1.528   2.728  0.3856 -0.2833 -0.1955
  162OSM   H11A18173   5.340   1.457   2.809  2.3623 -1.0244 -0.1632
  162OSM   H11B18174   5.271   1.570   2.686  0.6026  0.5045  0.0809
  162OSM      P18175   5.434   1.767   2.826  0.0986 -0.1367  0.3856
  162OSM    O1318176   5.518   1.799   2.946 -0.4733  0.5603  0.3412
  162OSM    O1418177   5.467   1.856   2.714 -0.4457  0.1690  0.0093
  162OSM    O1118178   5.282   1.782   2.868 -0.4305  0.1602 -0.1886
  162OSM    O1218179   5.463   1.621   2.775 -0.4030  0.0487  0.9677
  162OSM    C1S18180   5.246   1.760   3.006  0.0917  0.0160  0.4264
  162OSM    H1S18181   5.259   1.851   3.068  0.1861  0.8791 -0.8378
  162OSM    H1T18182   5.306   1.674   3.043 -0.8901 -1.0688 -0.4250
  162OSM     NF18183   5.062   1.664   3.156  0.0127 -0.2728  0.1856
  162OSM    HNF18184   5.047   1.566   3.164 -0.5786 -0.1896  0.1327
  162OSM    C2S18185   5.096   1.718   3.022 -0.3281  0.1204 -0.1252
  162OSM    H2S18186   5.039   1.812   3.011 -2.6707 -0.7570  3.1854
  162OSM    C3S18187   5.063   1.622   2.900  0.1625  0.5478 -0.0543
  162OSM    H3S18188   5.131   1.535   2.890 -0.2363  0.1161  0.9158
  162OSM     O318189   5.057   1.696   2.772  0.2461  0.1328  0.0740
  162OSM    HO318190   5.131   1.757   2.775 -0.4665  1.0111 -0.0801
  162OSM    C4S18191   4.926   1.555   2.921  0.7724 -1.0041 -0.0425
  162OSM    H4S18192   4.843   1.627   2.913  0.3928 -1.2276  1.5783
  162OSM    C5S18193   4.895   1.430   2.963  0.3680  1.0825  0.2968
  162OSM    H5S18194   4.973   1.362   3.000 -3.2083 -3.2343  0.8011
  162OSM    C6S18195   4.750   1.385   2.992  0.0643  0.2123  0.4048
  162OSM    H6S18196   4.746   1.303   3.066 -0.6272 -0.8387 -0.7760
  162OSM    H6T18197   4.699   1.350   2.900  1.6761 -0.0278 -0.4376
  162OSM    C7S18198   4.646   1.487   3.046 -0.2507 -0.8141 -0.4787
  162OSM    H7S18199   4.546   1.439   3.040  0.2029 -1.8488 -0.0845
  162OSM    H7T18200   4.640   1.574   2.978  0.4998 -1.1535 -1.0004
  162OSM    C8S18201   4.688   1.538   3.192 -0.0763 -0.9014  0.0330
  162OSM    H8S18202   4.774   1.608   3.184 -0.1195 -0.7653  0.7496
  162OSM    H8T18203   4.719   1.459   3.263 -1.0852 -1.2519  0.1079
  162OSM    C9S18204   4.574   1.621   3.263  0.0996 -0.6086 -0.1644
  162OSM    H9S18205   4.475   1.571   3.270 -1.1557  1.2939 -2.6713
  162OSM    H9T18206   4.546   1.706   3.198 -1.8547 -1.8755 -1.0997
  162OSM   C10S18207   4.620   1.679   3.397 -0.1286 -0.2910  0.5132
  162OSM   H10S18208   4.698   1.757   3.387  0.5687 -0.9943  0.3620
  162OSM   H10T18209   4.648   1.598   3.468  1.3920  0.4635  0.8049
  162OSM   C11S18210   4.501   1.742   3.476  0.0729 -0.5158 -0.0923
  162OSM   H11S18211   4.439   1.664   3.523  2.4933 -2.0563  0.7372
  162OSM   H11T18212   4.427   1.792   3.411 -0.3853  0.5099  1.1731
  162OSM   C12S18213   4.552   1.824   3.593  0.6500 -0.0208 -0.0229
  162OSM   H12S18214   4.620   1.904   3.555 -0.8832  0.5105 -1.7461
  162OSM   H12T18215   4.616   1.759   3.657  1.6372  0.6348 -0.3045
  162OSM   C13S18216   4.435   1.881   3.669 -0.9284  0.0779  0.2201
  162OSM   H13S18217   4.375   1.790   3.694 -1.0889  0.0211 -0.3714
  162OSM   H13T18218   4.373   1.948   3.606  0.1364  1.6094  0.7706
  162OSM   C14S18219   4.473   1.948   3.796  0.9191 -0.5240  0.5148
  162OSM   H14S18220   4.561   1.891   3.834 -0.1402 -2.6764 -0.1330
  162OSM   H14T18221   4.385   1.949   3.863 -0.8700 -1.5925 -1.7012
  162OSM   C15S18222   4.536   2.087   3.792 -0.6436  0.5227  0.0506
  162OSM   H15S18223   4.465   2.157   3.743 -1.9644  0.2528  1.5213
  162OSM   H15T18224   4.639   2.085   3.750 -0.8247  1.3095 -0.4462
  162OSM   C16S18225   4.558   2.143   3.932  0.1952 -0.4745 -0.4508
  162OSM   H16S18226   4.592   2.062   4.000  0.4302  0.3369  0.4166
  162OSM   H16T18227   4.466   2.178   3.983  0.8729  0.3062  0.2713
  162OSM   C17S18228   4.673   2.239   3.950 -0.3393  0.1613 -1.4795
  162OSM   H17S18229   4.774   2.194   3.935  2.0995  4.8416 -0.7565
  162OSM   H17T18230   4.693   2.272   4.054 -0.4815  0.1467 -1.4468
  162OSM   C18S18231   4.659   2.351   3.860 -0.5597 -0.4438 -0.0560
  162OSM   H18S18232   4.674   2.319   3.754 -2.0651  0.4550 -0.5713
  162OSM   H18T18233   4.737   2.427   3.880 -0.0605 -0.0662 -2.9773
  162OSM   H18U18234   4.559   2.398   3.846 -0.9019 -1.8360 -3.3284
  162OSM    C1F18235   5.056   1.740   3.261  0.5909 -0.3482 -0.8198
  162OSM     OF18236   5.080   1.861   3.260 -0.4462  0.0818  0.3409
  162OSM    C2F18237   5.024   1.668   3.390  0.2949  0.0825  0.6034
  162OSM    H2F18238   5.109   1.600   3.411 -0.4665 -0.9627  0.3705
  162OSM    H2G18239   4.933   1.607   3.369  0.0171  1.1682 -1.6222
  162OSM    C3F18240   5.001   1.774   3.502 -0.1093  0.1799  0.3033
  162OSM    H3F18241   4.917   1.840   3.473 -1.0279 -0.6276  1.0653
  162OSM    H3G18242   5.090   1.835   3.529 -1.3211  0.9184  2.8960
  162OSM    C4F18243   4.957   1.707   3.631 -0.4619  0.6188 -0.4785
  162OSM    H4F18244   5.022   1.624   3.664  0.7297  1.5523 -0.4077
  162OSM    H4G18245   4.861   1.655   3.610  1.0826 -2.1655 -1.2059
  162OSM    C5F18246   4.938   1.807   3.739  1.1326 -0.6215 -0.3012
  162OSM    H5F18247   4.881   1.889   3.691  3.6804  0.8335 -1.0593
  162OSM    H5G18248   5.033   1.862   3.759  1.1636  0.0462 -2.1360
  162OSM    C6F18249   4.859   1.769   3.872  0.3153  0.7328  0.5449
  162OSM    H6F18250   4.915   1.689   3.926 -1.8696 -1.6730 -0.5139
  162OSM    H6G18251   4.764   1.720   3.840  1.0841  0.3314 -1.2448
  162OSM    C7F18252   4.833   1.896   3.953  0.3881 -0.0490 -0.4049
  162OSM    H7F18253   4.770   1.958   3.886 -1.7348 -1.7820 -0.1184
  162OSM    H7G18254   4.926   1.954   3.972  0.0303  0.4663 -0.1979
  162OSM    C8F18255   4.768   1.884   4.088 -0.3947 -0.1216  0.6766
  162OSM    H8F18256   4.671   1.834   4.068  0.1283 -1.6172  1.6919
  162OSM    H8G18257   4.740   1.986   4.121  2.1379  0.9114 -0.1147
  162OSM    C9F18258   4.848   1.816   4.187 -0.0386  0.0830 -0.4861
  162OSM    H9F18259   4.861   1.709   4.169 -0.5127 -0.0500 -0.0756
  162OSM   C10F18260   4.889   1.862   4.307 -0.5879 -0.5700 -0.3457
  162OSM   H10F18261   4.961   1.802   4.365  0.2314  0.5264 -0.2084
  162OSM   C11F18262   4.866   2.007   4.361 -0.3404  0.1629 -0.1878
  162OSM   H11F18263   4.780   2.047   4.304  0.6313  2.3738 -0.1944
  162OSM   H11G18264   4.960   2.067   4.356  0.5748 -0.7131  3.2275
  162OSM   C12F18265   4.821   1.985   4.510  0.2854  0.2379  0.1259
  162OSM   H12F18266   4.888   1.916   4.565  0.8303 -0.6550 -1.5944
  162OSM   H12G18267   4.728   1.925   4.502  0.3015  0.4199 -1.8941
  162OSM   C13F18268   4.802   2.118   4.574  0.5095  0.6400  0.3587
  162OSM   H13F18269   4.753   2.189   4.503 -2.8769  0.4660  2.3423
  162OSM   H13G18270   4.899   2.171   4.583  0.7275  0.6379 -1.5040
  162OSM   C14F18271   4.733   2.108   4.713  0.4229 -0.4278  0.4079
  162OSM   H14F18272   4.773   2.200   4.760  0.0367  0.6389 -1.2864
  162OSM   H14G18273   4.780   2.033   4.781 -1.2497  1.4288  3.8717
  162OSM   C15F18274   4.580   2.102   4.714  0.0793  0.0444 -0.0475
  162OSM   H15F18275   4.548   2.005   4.668  1.5047  0.5522 -2.2825
  162OSM   H15G18276   4.527   2.173   4.647 -0.2294  1.4603  1.6467
  162OSM   C16F18277   4.516   2.111   4.852 -0.0925 -0.3721 -0.3415
  162OSM   H16F18278   4.549   2.205   4.901 -0.2040  0.1453 -1.2505
  162OSM   H16G18279   4.548   2.018   4.905 -1.4217 -0.6759 -0.0305
  162OSM   C17F18280   4.363   2.090   4.851  0.4578 -0.3037  0.5351
  162OSM   H17F18281   4.329   2.018   4.773 -0.4818  1.3601 -0.6849
  162OSM   H17G18282   4.325   2.191   4.823 -1.6471 -0.8143  1.3772
  162OSM   C18F18283   4.297   2.067   4.980 -0.0484 -0.1991 -0.0608
  162OSM   H18F18284   4.322   1.970   5.027 -0.8025 -0.5965 -0.4575
  162OSM   H18G18285   4.187   2.064   4.964 -0.0219 -0.8976 -0.1393
  162OSM   H18H18286   4.324   2.145   5.056  2.3609  0.0135 -1.0428
  163OSM      N18287   1.781   0.395   2.411 -0.3094 -0.4231 -0.6929
  163OSM    C1518288   1.874   0.513   2.410  0.0336 -0.3797  0.8843
  163OSM   H15A18289   1.839   0.606   2.367  2.1465  0.2216  0.3660
  163OSM   H15B18290   1.966   0.483   2.364 -0.6550 -2.3687  0.7155
  163OSM   H15C18291   1.906   0.533   2.511 -0.8414  1.0173  0.9229
  163OSM    C1418292   1.652   0.457   2.460  0.3741 -0.0660 -0.3163
  163OSM   H14A18293   1.575   0.383   2.471  1.0507 -0.5023  1.8347
  163OSM   H14B18294   1.621   0.533   2.389 -2.2849 -0.5845  0.2026
  163OSM   H14C18295   1.671   0.493   2.560  0.4403 -1.8702  0.3573
  163OSM    C1318296   1.756   0.357   2.267 -0.2143  0.1169 -0.3865
  163OSM   H13A18297   1.853   0.359   2.218 -0.2123  0.0793 -0.3844
  163OSM   H13B18298   1.704   0.440   2.222  3.7308  3.4489  0.5770
  163OSM   H13C18299   1.701   0.267   2.248  0.7296 -0.3218 -1.1437
  163OSM    C1218300   1.824   0.276   2.493 -0.1711 -0.0150  0.1686
  163OSM   H12A18301   1.906   0.221   2.449 -1.5263 -3.1530  1.2817
  163OSM   H12B18302   1.742   0.206   2.486 -1.0661  1.1699 -2.2890
  163OSM    C1118303   1.859   0.300   2.639 -0.3551 -0.1385  0.4928
  163OSM   H11A18304   1.880   0.198   2.677 -0.3704 -0.5187 -0.5143
  163OSM   H11B18305   1.762   0.325   2.686 -0.2638  2.0005 -0.3418
  163OSM      P18306   2.116   0.370   2.683 -0.1512 -0.0961  0.3016
  163OSM    O1318307   2.145   0.249   2.609 -0.0599 -0.4501  0.1334
  163OSM    O1418308   2.187   0.495   2.649 -0.2964  0.5620  0.1922
  163OSM    O1118309   2.140   0.339   2.838 -0.1987 -0.4227 -0.2937
  163OSM    O1218310   1.959   0.391   2.675 -0.5335 -0.2098 -0.2181
  163OSM    C1S18311   2.039   0.361   2.943  0.4016 -0.2255  0.4626
  163OSM    H1S18312   1.955   0.288   2.944 -0.1167  0.3533  0.1667
  163OSM    H1T18313   1.993   0.461   2.928  1.5734  0.5754  2.0215
  163OSM     NF18314   2.023   0.362   3.194 -0.2668  0.0738 -0.8950
  163OSM    HNF18315   2.016   0.432   3.265  0.5728 -1.4977  0.8144
  163OSM    C2S18316   2.108   0.389   3.082 -0.6583  0.4819 -0.0230
  163OSM    H2S18317   2.199   0.325   3.090  1.1880  2.5435 -2.7103
  163OSM    C3S18318   2.166   0.535   3.086 -0.2598  0.0923  0.0515
  163OSM    H3S18319   2.077   0.601   3.076 -1.5822 -1.5445  0.5157
  163OSM     O318320   2.241   0.569   2.969  0.3570  0.2188 -1.0484
  163OSM    HO318321   2.225   0.497   2.908  0.9820 -1.2567  0.4433
  163OSM    C4S18322   2.251   0.566   3.211 -0.4644 -0.2037 -0.1891
  163OSM    H4S18323   2.188   0.592   3.297 -1.7980  0.2282 -1.2804
  163OSM    C5S18324   2.387   0.567   3.222  0.1742 -0.9749 -0.0773
  163OSM    H5S18325   2.446   0.550   3.131 -0.3155  0.4515 -0.6789
  163OSM    C6S18326   2.463   0.600   3.347 -0.9027 -0.0865  0.6613
  163OSM    H6S18327   2.550   0.667   3.327  1.2802 -1.5986  4.0421
  163OSM    H6T18328   2.521   0.510   3.375 -0.4294  0.8097  2.8292
  163OSM    C7S18329   2.380   0.648   3.459  0.0927 -0.4445 -0.1482
  163OSM    H7S18330   2.300   0.578   3.494  0.6730  0.2365  2.8452
  163OSM    H7T18331   2.337   0.745   3.426  2.2602  1.6156  2.5822
  163OSM    C8S18332   2.467   0.689   3.577  0.3020 -0.5927 -0.0085
  163OSM    H8S18333   2.544   0.769   3.568  1.9845 -1.9600  1.5059
  163OSM    H8T18334   2.525   0.597   3.598  1.1217 -0.5079 -1.7185
  163OSM    C9S18335   2.372   0.724   3.697  0.4197  0.3601  0.3947
  163OSM    H9S18336   2.333   0.628   3.735  0.5407  1.0309  2.3479
  163OSM    H9T18337   2.280   0.779   3.667 -0.0597 -0.1870  0.8499
  163OSM   C10S18338   2.449   0.788   3.815 -0.0998  0.2486  0.8475
  163OSM   H10S18339   2.449   0.898   3.800  1.9775 -0.0638 -2.5317
  163OSM   H10T18340   2.552   0.745   3.817 -0.3613 -0.4777 -0.3429
  163OSM   C11S18341   2.391   0.743   3.946  0.4621  0.4582  0.1173
  163OSM   H11S18342   2.379   0.635   3.925  1.1230  0.6901 -1.6649
  163OSM   H11T18343   2.288   0.784   3.954  1.4683  3.1815  0.2219
  163OSM   C12S18344   2.474   0.788   4.067  0.5068  0.2400  0.2733
  163OSM   H12S18345   2.414   0.784   4.161 -0.0582 -1.3681 -0.1275
  163OSM   H12T18346   2.486   0.899   4.064 -0.9533  0.4139  0.0856
  163OSM   C13S18347   2.599   0.703   4.099 -0.2102  1.0283 -0.2366
  163OSM   H13S18348   2.654   0.689   4.004  0.6214  3.1344 -0.0949
  163OSM   H13T18349   2.562   0.605   4.138  1.7084  0.1791 -0.4435
  163OSM   C14S18350   2.688   0.773   4.194  0.6239 -0.1970  0.1656
  163OSM   H14S18351   2.628   0.788   4.287  1.9240 -2.1379  1.3890
  163OSM   H14T18352   2.718   0.872   4.153 -1.3507 -0.3569 -1.8587
  163OSM   C15S18353   2.817   0.697   4.224  0.0419 -0.3557  0.1309
  163OSM   H15S18354   2.904   0.763   4.246 -0.7454  0.0128  2.5154
  163OSM   H15T18355   2.852   0.645   4.133  0.4810 -0.3525  0.2987
  163OSM   C16S18356   2.792   0.592   4.333 -0.5478  0.0645 -0.3763
  163OSM   H16S18357   2.707   0.532   4.294  0.3306 -0.6392 -1.2721
  163OSM   H16T18358   2.763   0.638   4.429 -3.6488  0.8617 -1.5797
  163OSM   C17S18359   2.911   0.492   4.351  0.3464  0.3721 -0.0989
  163OSM   H17S18360   2.954   0.487   4.248  1.7861  1.2382  0.4334
  163OSM   H17T18361   2.878   0.392   4.386 -0.1086  0.8735  0.9450
  163OSM   C18S18362   3.034   0.530   4.445 -0.7787 -0.4680  0.2868
  163OSM   H18S18363   3.009   0.523   4.553  0.1252 -0.4912  0.5043
  163OSM   H18T18364   3.087   0.624   4.418 -1.4581 -0.0901  0.2248
  163OSM   H18U18365   3.115   0.456   4.430 -1.3826 -1.1611  0.4099
  163OSM    C1F18366   1.988   0.235   3.229 -0.3622  0.0161  0.3220
  163OSM     OF18367   2.036   0.139   3.169 -0.3198  0.5499 -0.0459
  163OSM    C2F18368   1.893   0.219   3.343 -0.1144  0.2930 -0.0841
  163OSM    H2F18369   1.842   0.316   3.361 -0.0607  0.0875  1.2822
  163OSM    H2G18370   1.951   0.191   3.434  1.0664  0.3617 -0.8006
  163OSM    C3F18371   1.797   0.101   3.312 -0.7189 -0.4610 -0.7915
  163OSM    H3F18372   1.855   0.008   3.290  2.9700  1.3073  0.5354
  163OSM    H3G18373   1.739   0.132   3.222 -1.1953  1.0988  0.0251
  163OSM    C4F18374   1.700   0.068   3.426  0.8049  0.2836  0.7571
  163OSM    H4F18375   1.743   0.025   3.519  1.7993 -0.1648  0.1071
  163OSM    H4G18376   1.642  -0.016   3.381  0.6340  0.9818 -0.3732
  163OSM    C5F18377   1.594   0.179   3.460  0.1972 -0.1908 -0.2144
  163OSM    H5F18378   1.546   0.223   3.370 -1.7888  1.1139  1.3982
  163OSM    H5G18379   1.666   0.258   3.491  0.2328  0.0042 -0.7915
  163OSM    C6F18380   1.507   0.155   3.586  0.2061 -0.2941 -0.0422
  163OSM    H6F18381   1.578   0.109   3.658  2.2384  0.8224 -1.2496
  163OSM    H6G18382   1.432   0.082   3.548  0.2843 -0.5334  0.2529
  163OSM    C7F18383   1.433   0.280   3.653  0.2918 -0.0208  0.3776
  163OSM    H7F18384   1.361   0.327   3.582 -0.6015 -1.5923  0.2013
  163OSM    H7G18385   1.507   0.363   3.662 -1.7448  2.0509 -0.8901
  163OSM    C8F18386   1.346   0.243   3.779 -0.3836 -0.2419 -0.1385
  163OSM    H8F18387   1.279   0.161   3.744 -0.3904  0.4312 -1.8297
  163OSM    H8G18388   1.280   0.325   3.815 -0.8373  0.0522 -1.5457
  163OSM    C9F18389   1.450   0.192   3.881 -0.1284 -0.6520 -0.1892
  163OSM    H9F18390   1.542   0.145   3.844 -0.1879 -1.9744  1.2170
  163OSM   C10F18391   1.449   0.222   4.010  0.7122  0.0013 -0.0547
  163OSM   H10F18392   1.536   0.184   4.066  0.0807 -2.1518 -0.4219
  163OSM   C11F18393   1.349   0.299   4.094 -0.1677  0.5062  0.2570
  163OSM   H11F18394   1.277   0.353   4.030  0.7700  1.2992 -0.1470
  163OSM   H11G18395   1.398   0.374   4.160  1.1474 -0.7331  0.7479
  163OSM   C12F18396   1.273   0.200   4.190 -0.6323  0.2876  0.3390
  163OSM   H12F18397   1.342   0.124   4.233 -1.2869  0.1700  1.2210
  163OSM   H12G18398   1.205   0.150   4.118 -0.4692 -0.5450  0.7508
  163OSM   C13F18399   1.200   0.273   4.295  0.0332 -0.5451  0.4303
  163OSM   H13F18400   1.100   0.313   4.268 -0.4855 -1.5396  0.8101
  163OSM   H13G18401   1.260   0.362   4.321  0.6496 -1.0933  0.9203
  163OSM   C14F18402   1.180   0.206   4.426  0.3652 -0.2669 -0.0409
  163OSM   H14F18403   1.153   0.289   4.494  0.9035 -0.1644  0.0576
  163OSM   H14G18404   1.271   0.154   4.463 -0.0176 -0.8077  0.1568
  163OSM   C15F18405   1.069   0.104   4.431  0.0166  0.1617 -0.0722
  163OSM   H15F18406   1.067   0.019   4.360  2.3866 -0.7339  0.8157
  163OSM   H15G18407   0.978   0.156   4.395 -1.0605 -0.4279  1.6730
  163OSM   C16F18408   1.046   0.054   4.573  0.2896 -0.0129 -0.2409
  163OSM   H16F18409   1.032   0.145   4.636  0.6245  2.0403 -2.9562
  163OSM   H16G18410   1.143   0.009   4.603  0.6050  1.0961  0.4620
  163OSM   C17F18411   0.925  -0.045   4.578  0.3512  0.7575  0.4517
  163OSM   H17F18412   0.962  -0.128   4.515  1.9467  0.9256  1.1161
  163OSM   H17G18413   0.831  -0.008   4.531  0.7549  1.8824  0.5021
  163OSM   C18F18414   0.902  -0.086   4.719 -0.4250  0.1429  0.1625
  163OSM   H18F18415   0.982  -0.141   4.774 -1.4370 -1.5260  0.0601
  163OSM   H18G18416   0.815  -0.154   4.730 -0.3399 -0.5404 -2.6991
  163OSM   H18H18417   0.873   0.008   4.769  0.2504  2.0436 -2.7913
  164OSM      N18418   5.629   3.193   2.216 -0.1360 -0.3206  1.0318
  164OSM    C1518419   5.525   3.216   2.107 -1.0302  0.2066 -0.2409
  164OSM   H15A18420   5.478   3.125   2.073 -0.4951  0.8302 -2.8409
  164OSM   H15B18421   5.580   3.241   2.017 -2.5469 -2.1066 -1.9386
  164OSM   H15C18422   5.460   3.294   2.144 -1.0634  0.5698 -1.0324
  164OSM    C1418423   5.741   3.103   2.172 -0.0338  0.1168 -0.1220
  164OSM   H14A18424   5.707   3.023   2.108  1.5758 -1.1493  0.5402
  164OSM   H14B18425   5.787   3.062   2.260 -1.1671  1.4180  1.1296
  164OSM   H14C18426   5.810   3.163   2.115 -0.3210 -0.1551 -0.7636
  164OSM    C1318427   5.695   3.325   2.252 -0.0688 -0.0289  1.0124
  164OSM   H13A18428   5.752   3.364   2.169  1.5676  0.9553  2.5166
  164OSM   H13B18429   5.758   3.316   2.339  1.5238  2.3850  0.1930
  164OSM   H13C18430   5.619   3.400   2.268  2.0053  2.4421  0.0025
  164OSM    C1218431   5.555   3.136   2.343 -0.0934 -0.2860  0.1748
  164OSM   H12A18432   5.626   3.085   2.406 -0.6010 -0.4463  0.6244
  164OSM   H12B18433   5.486   3.058   2.316 -1.1555  0.1534  1.4769
  164OSM    C1118434   5.459   3.229   2.419 -0.6581 -0.2058  0.0330
  164OSM   H11A18435   5.512   3.316   2.463 -0.1679  0.0202 -0.9753
  164OSM   H11B18436   5.441   3.179   2.516 -1.0276 -0.5539 -0.2134
  164OSM      P18437   5.208   3.162   2.354  0.4059  0.3481  0.1330
  164OSM    O1318438   5.124   3.202   2.236  0.3198  0.0664 -0.0641
  164OSM    O1418439   5.257   3.019   2.367  0.0108  0.1666  0.0230
  164OSM    O1118440   5.133   3.198   2.492  0.0399  0.2610  0.0460
  164OSM    O1218441   5.335   3.263   2.350 -0.3796  0.5841 -0.2430
  164OSM    C1S18442   5.160   3.141   2.626  0.2030  0.1296  0.4686
  164OSM    H1S18443   5.229   3.055   2.617  0.7568  0.7109 -1.2532
  164OSM    H1T18444   5.065   3.099   2.666  0.7847  1.3920  3.4549
  164OSM     NF18445   5.234   3.177   2.853  0.1143 -0.3666 -0.2350
  164OSM    HNF18446   5.159   3.179   2.919 -3.7427  0.6528 -4.1865
  164OSM    C2S18447   5.218   3.248   2.729 -0.2978  0.0222  0.1326
  164OSM    H2S18448   5.318   3.283   2.695 -0.4122  1.5657  1.2521
  164OSM    C3S18449   5.127   3.373   2.743  0.3034  0.1536 -0.4418
  164OSM    H3S18450   5.024   3.334   2.758  0.7279 -0.7656  0.1905
  164OSM     O318451   5.122   3.442   2.616  0.2452  0.2911  0.2398
  164OSM    HO318452   5.098   3.375   2.551 -0.7208  2.4273 -1.7696
  164OSM    C4S18453   5.166   3.457   2.860  1.1678 -0.9741  0.0320
  164OSM    H4S18454   5.118   3.424   2.953 -0.7420  0.2958 -0.4525
  164OSM    C5S18455   5.238   3.570   2.862 -0.3310 -0.0273 -0.2578
  164OSM    H5S18456   5.286   3.607   2.770 -1.2331  1.1866 -0.2543
  164OSM    C6S18457   5.258   3.658   2.979 -0.2961  0.6228  0.6780
  164OSM    H6S18458   5.175   3.732   2.986 -0.7654  0.4575 -2.0662
  164OSM    H6T18459   5.346   3.723   2.965  0.5418 -0.6374 -0.1261
  164OSM    C7S18460   5.262   3.588   3.121 -0.3763  0.5936 -0.2074
  164OSM    H7S18461   5.172   3.524   3.133 -1.0974  1.8227  1.3189
  164OSM    H7T18462   5.252   3.664   3.201  0.1003 -0.9656  1.3760
  164OSM    C8S18463   5.390   3.502   3.139  0.1206 -0.2296 -0.8398
  164OSM    H8S18464   5.480   3.565   3.159  0.5793 -0.8643 -0.9022
  164OSM    H8T18465   5.411   3.458   3.039 -1.7885 -2.1581 -0.4560
  164OSM    C9S18466   5.388   3.383   3.238 -0.2663  0.7633  0.4097
  164OSM    H9S18467   5.483   3.331   3.216 -0.7918  1.1999 -3.6703
  164OSM    H9T18468   5.303   3.312   3.228  1.2868 -1.0307 -0.5992
  164OSM   C10S18469   5.388   3.432   3.381  0.1335  0.0579 -0.6866
  164OSM   H10S18470   5.300   3.498   3.397 -0.8271 -1.1578 -0.8596
  164OSM   H10T18471   5.481   3.491   3.398  1.4212 -1.8357 -0.9143
  164OSM   C11S18472   5.378   3.322   3.483 -0.8576  0.0768  0.3403
  164OSM   H11S18473   5.461   3.251   3.461 -0.1581  1.6589 -2.6928
  164OSM   H11T18474   5.277   3.275   3.484 -0.3997 -1.0060  2.8673
  164OSM   C12S18475   5.398   3.384   3.622  0.6301  0.3719 -0.1198
  164OSM   H12S18476   5.337   3.477   3.616 -0.8599 -0.3857  1.9659
  164OSM   H12T18477   5.501   3.416   3.646  0.5912 -0.6028  1.5191
  164OSM   C13S18478   5.365   3.280   3.735 -0.3438  0.2524  0.0037
  164OSM   H13S18479   5.443   3.201   3.732 -2.1587 -1.6319  0.3452
  164OSM   H13T18480   5.263   3.237   3.734 -0.4830  0.5863  0.0458
  164OSM   C14S18481   5.369   3.334   3.878  0.2073 -0.4489 -0.3222
  164OSM   H14S18482   5.286   3.401   3.908 -0.4380 -0.4869 -1.9141
  164OSM   H14T18483   5.459   3.398   3.892  0.2039 -0.2631 -1.0956
  164OSM   C15S18484   5.380   3.220   3.983  0.1335 -0.3831  0.2850
  164OSM   H15S18485   5.460   3.157   3.938  0.8948  2.2636 -2.3907
  164OSM   H15T18486   5.276   3.185   3.995 -0.9132  2.4427  0.1286
  164OSM   C16S18487   5.432   3.274   4.116  0.1092 -0.4191  0.2321
  164OSM   H16S18488   5.373   3.234   4.201  1.0750 -1.2028  0.5427
  164OSM   H16T18489   5.401   3.380   4.133 -0.8959 -0.4498 -1.1979
  164OSM   C17S18490   5.582   3.267   4.130 -0.7628 -0.2952  0.8057
  164OSM   H17S18491   5.615   3.328   4.216 -2.9554  0.2315  1.3302
  164OSM   H17T18492   5.629   3.310   4.039  0.7740  0.5128  1.9403
  164OSM   C18S18493   5.635   3.127   4.150  0.7862 -1.0439  0.2590
  164OSM   H18S18494   5.567   3.054   4.101  1.3405 -0.8913 -0.7758
  164OSM   H18T18495   5.654   3.101   4.256 -1.4445 -2.6871  0.3274
  164OSM   H18U18496   5.734   3.117   4.100  1.6174  1.7050  1.1874
  164OSM    C1F18497   5.343   3.097   2.875  0.1700  0.0877 -0.3480
  164OSM     OF18498   5.404   3.055   2.778  0.0961  0.3043  0.1617
  164OSM    C2F18499   5.376   3.070   3.022 -0.1051 -0.5549  0.1835
  164OSM    H2F18500   5.280   3.064   3.078  0.2707 -0.9671  0.7929
  164OSM    H2G18501   5.426   3.162   3.058 -2.3293  0.2332  1.5220
  164OSM    C3F18502   5.461   2.941   3.039  0.5010 -0.5173 -0.0013
  164OSM    H3F18503   5.556   2.937   2.980  0.8485 -0.6825  0.5600
  164OSM    H3G18504   5.409   2.844   3.026  0.6452 -0.9663  2.2630
  164OSM    C4F18505   5.518   2.940   3.184 -0.1776 -0.8557  0.2079
  164OSM    H4F18506   5.544   3.047   3.202  2.6653 -1.5335  0.7068
  164OSM    H4G18507   5.615   2.886   3.195  0.3493 -0.2736 -1.3973
  164OSM    C5F18508   5.411   2.894   3.281  0.0404  0.4040  0.2539
  164OSM    H5F18509   5.393   2.785   3.266 -0.0607  0.0844  2.3661
  164OSM    H5G18510   5.317   2.950   3.265  0.2760  0.4829 -0.9318
  164OSM    C6F18511   5.458   2.912   3.423  0.7049 -0.5230 -0.2596
  164OSM    H6F18512   5.384   2.855   3.483 -0.5809  1.9696  0.6520
  164OSM    H6G18513   5.457   3.019   3.453  2.6137 -0.0800 -1.5995
  164OSM    C7F18514   5.598   2.859   3.456 -0.5608 -0.6037  0.1616
  164OSM    H7F18515   5.679   2.927   3.421 -2.1322  2.4213  2.0300
  164OSM    H7G18516   5.613   2.760   3.406  0.4535 -0.3303 -0.1065
  164OSM    C8F18517   5.615   2.823   3.602 -0.3701  0.1226 -0.7686
  164OSM    H8F18518   5.707   2.762   3.611  0.1819  1.0991  0.6647
  164OSM    H8G18519   5.528   2.765   3.639  0.0605  0.7518  1.3714
  164OSM    C9F18520   5.638   2.947   3.688  1.0087  0.3177  0.3528
  164OSM    H9F18521   5.592   3.045   3.667 -0.3196  0.2365  2.5443
  164OSM   C10F18522   5.719   2.960   3.792  0.1670  0.1362 -0.2289
  164OSM   H10F18523   5.724   3.053   3.851 -1.7325 -0.2616  0.6454
  164OSM   C11F18524   5.797   2.850   3.845 -0.3013  0.7627  0.7578
  164OSM   H11F18525   5.857   2.795   3.769  0.4400  0.6142  1.4349
  164OSM   H11G18526   5.724   2.784   3.896  1.1129 -0.6784  1.0133
  164OSM   C12F18527   5.889   2.901   3.956  0.0717  0.6613  0.0083
  164OSM   H12F18528   5.837   2.955   4.038 -0.1640  0.4168  0.0233
  164OSM   H12G18529   5.975   2.962   3.921 -1.3573  1.2408 -2.6985
  164OSM   C13F18530   5.971   2.787   4.029  0.6378 -0.0593 -0.3719
  164OSM   H13F18531   6.018   2.709   3.966  3.9800  1.8448 -0.4741
  164OSM   H13G18532   5.898   2.727   4.089  0.7119 -1.7222 -1.8453
  164OSM   C14F18533   6.089   2.837   4.115 -0.1492  0.0250  0.1719
  164OSM   H14F18534   6.063   2.926   4.175  0.4793  0.1500  0.2698
  164OSM   H14G18535   6.162   2.866   4.036  0.4662  1.5933  1.2628
  164OSM   C15F18536   6.147   2.735   4.211  0.6313  0.3768  0.1471
  164OSM   H15F18537   6.186   2.653   4.148 -3.6314 -0.4960 -1.7149
  164OSM   H15G18538   6.065   2.682   4.265 -0.6828  0.9467 -1.2253
  164OSM   C16F18539   6.249   2.787   4.306 -1.0765  0.4292 -0.5373
  164OSM   H16F18540   6.227   2.765   4.412 -1.0958 -0.6344 -0.7467
  164OSM   H16G18541   6.242   2.897   4.294 -3.6218  0.3139 -0.5394
  164OSM   C17F18542   6.394   2.728   4.288  0.1681 -1.1097 -0.1603
  164OSM   H17F18543   6.424   2.762   4.186 -2.6377  1.3553 -0.2854
  164OSM   H17G18544   6.392   2.617   4.292  0.9726 -1.1745 -1.0141
  164OSM   C18F18545   6.496   2.773   4.385 -0.6351 -0.1246  0.4585
  164OSM   H18F18546   6.599   2.780   4.343 -1.0556 -0.5312 -0.6898
  164OSM   H18G18547   6.511   2.707   4.473  0.6062 -0.2920  0.1530
  164OSM   H18H18548   6.492   2.879   4.417  2.1634 -0.4869  2.3609
  165SAPS     N18549   5.428   2.871   6.385  0.7300 -0.2714  0.4383
  165SAPS   HN118550   5.518   2.836   6.346  1.8800  0.8784  1.8986
  165SAPS   HN218551   5.372   2.794   6.425  0.1287  1.0569  2.3150
  165SAPS   HN318552   5.374   2.915   6.308  0.5289 -0.4141  0.4983
  165SAPS   C1218553   5.451   2.966   6.501  0.0766 -0.2224 -0.4232
  165SAPS  H12A18554   5.505   3.056   6.477  0.5393 -1.2154 -3.5278
  165SAPS   C1318555   5.316   2.986   6.575 -0.5468  0.0236 -0.4392
  165SAPS  O13A18556   5.219   2.915   6.539 -0.6904  0.3415  0.0710
  165SAPS  O13B18557   5.313   3.059   6.679  0.1752 -0.5392 -0.5270
  165SAPS   C1118558   5.543   2.880   6.596 -0.1874 -1.1093  0.4387
  165SAPS  H11A18559   5.499   2.780   6.619 -1.3627 -0.1452  2.6472
  165SAPS  H11B18560   5.542   2.939   6.690 -0.8443  0.1230 -0.3174
  165SAPS     P18561   5.777   2.794   6.637  0.2132  0.1974  0.4067
  165SAPS   O1318562   5.914   2.837   6.597  0.5802 -0.6331  0.3610
  165SAPS   O1418563   5.738   2.819   6.778 -0.0089  0.5869 -0.1124
  165SAPS   O1218564   5.674   2.869   6.541  0.0129  0.0399 -0.5393
  165SAPS   O1118565   5.749   2.646   6.604 -0.0772 -0.5646  0.4241
  165SAPS    C118566   5.838   2.563   6.536 -0.1273  0.3416 -0.6393
  165SAPS    HA18567   5.946   2.568   6.563  0.2677  1.9237 -2.2645
  165SAPS    HB18568   5.819   2.457   6.563  0.9964  0.5168  0.9976
  165SAPS    C218569   5.819   2.559   6.379  0.0744  0.4041  0.2256
  165SAPS    HS18570   5.878   2.472   6.345 -0.1655  0.5931 -0.7168
  165SAPS   O2118571   5.862   2.677   6.309 -0.1578 -0.0091 -0.1268
  165SAPS   C2118572   5.992   2.710   6.325 -0.0178  0.0969 -0.0471
  165SAPS   O2218573   6.082   2.650   6.377 -0.4448  0.0247  0.1934
  165SAPS   C2218574   6.014   2.837   6.245  0.3218  0.6756 -0.1090
  165SAPS   H2R18575   5.959   2.818   6.151 -2.1773 -1.9492  1.6910
  165SAPS   H2S18576   5.971   2.920   6.305 -1.2719 -0.4469  0.4054
  165SAPS    C318577   5.678   2.527   6.338 -0.3205 -0.1863 -0.3400
  165SAPS    HX18578   5.609   2.601   6.383 -0.9443 -0.5939 -0.6067
  165SAPS    HY18579   5.659   2.427   6.384 -1.5398  0.5158  0.7641
  165SAPS   O3118580   5.657   2.526   6.192 -0.4113  0.2224  0.5051
  165SAPS   C3118581   5.622   2.636   6.143  0.0205  0.0936  0.8866
  165SAPS   O3218582   5.574   2.732   6.200 -0.0669 -0.3063  0.7454
  165SAPS   C3218583   5.647   2.637   5.991  0.0855  0.3120  0.0087
  165SAPS   H2X18584   5.553   2.665   5.940  0.1663  0.3969 -0.0957
  165SAPS   H2Y18585   5.664   2.531   5.963 -1.2036  0.0700  0.0902
  165SAPS   C2318586   6.166   2.875   6.214 -0.0893  0.2070 -0.1364
  165SAPS   H3R18587   6.244   2.835   6.281 -0.3421 -2.2272 -1.2052
  165SAPS   H3S18588   6.161   2.986   6.225  0.7404  0.3269 -0.8719
  165SAPS   C2418589   6.199   2.856   6.062  0.1881  0.0356  0.6272
  165SAPS   H4R18590   6.125   2.887   5.985  2.9665 -0.0266 -2.3136
  165SAPS   H4S18591   6.199   2.746   6.046 -1.5320  0.3898 -2.5021
  165SAPS   C2518592   6.327   2.925   6.023 -0.7089  0.4461 -0.3806
  165SAPS   H5R18593   6.390   2.960   6.107 -0.1688 -0.9532 -0.1767
  165SAPS   C2618594   6.367   2.959   5.903 -0.1965  0.2996  0.3877
  165SAPS   H6R18595   6.463   3.009   5.881  0.0844  0.2910  1.5278
  165SAPS   C2718596   6.285   2.920   5.779 -0.1099  0.3982  0.3506
  165SAPS   H7R18597   6.244   3.010   5.728 -2.0598 -1.4497 -1.5206
  165SAPS   H7S18598   6.199   2.852   5.796  0.9441 -1.0551  0.1245
  165SAPS   C2818599   6.375   2.841   5.687 -0.2769 -0.8025  0.0172
  165SAPS   H8R18600   6.424   2.759   5.740 -0.2011  0.7098  2.4359
  165SAPS   C2918601   6.394   2.847   5.553  0.0486  0.2035 -0.1399
  165SAPS   H9R18602   6.471   2.775   5.520 -0.6964 -0.3504 -0.6976
  165SAPS  C21018603   6.332   2.936   5.454 -0.6221  0.6230 -0.2191
  165SAPS  H10R18604   6.271   3.007   5.513 -0.5295 -0.1642  0.8611
  165SAPS  H10S18605   6.263   2.880   5.387 -1.2012  0.9168  0.1304
  165SAPS  C21118606   6.432   3.018   5.375  0.3497  0.2562  0.5166
  165SAPS  H11R18607   6.527   3.042   5.427  0.6494 -0.3271  0.2478
  165SAPS  C21218608   6.417   3.046   5.242 -0.9214  0.1143  0.3905
  165SAPS  H12R18609   6.505   3.093   5.196 -0.0898 -1.6571  0.0883
  165SAPS  C21318610   6.301   3.003   5.151  0.0860  0.0817  0.3431
  165SAPS  H13R18611   6.290   3.078   5.071  2.4656 -0.1462 -0.2678
  165SAPS  H13S18612   6.204   2.990   5.204 -0.1117  1.0286  0.2149
  165SAPS  C21418613   6.350   2.871   5.093  0.0026  0.5259  0.3776
  165SAPS  H14R18614   6.365   2.794   5.170 -1.3489  0.9127  1.0538
  165SAPS  C21518615   6.368   2.850   4.961 -0.4168  0.8242 -0.4328
  165SAPS  H15R18616   6.384   2.745   4.931 -3.2799 -0.3898  1.7349
  165SAPS  C21618617   6.371   2.945   4.844 -0.4084  0.3028 -0.6202
  165SAPS  H16R18618   6.438   3.030   4.866  1.2564 -1.1428  0.1590
  165SAPS  H16S18619   6.272   2.986   4.812  0.3669  1.3801 -1.7100
  165SAPS  C21718620   6.450   2.870   4.735 -0.1925 -0.4077  0.4439
  165SAPS  H17R18621   6.429   2.930   4.644  1.0883  2.4005  1.8747
  165SAPS  H17S18622   6.399   2.775   4.707 -1.1848  0.5787 -1.3350
  165SAPS  C21818623   6.600   2.870   4.765 -0.4258 -0.3094 -0.6226
  165SAPS  H18R18624   6.651   2.783   4.716  0.9498 -0.0698  0.3253
  165SAPS  H18S18625   6.608   2.855   4.874  2.9554  2.3151 -0.3377
  165SAPS  C21918626   6.672   3.005   4.727  0.7311  0.2208 -0.0440
  165SAPS  H19R18627   6.770   3.009   4.778  0.7119  2.9175 -0.0624
  165SAPS  H19S18628   6.608   3.079   4.780  0.8768 -1.0390  1.9884
  165SAPS  C22018629   6.665   3.049   4.575  0.0831 -0.0636  0.0418
  165SAPS  H20R18630   6.561   3.073   4.544  0.6119  0.8565 -1.1328
  165SAPS  H20S18631   6.692   2.966   4.506 -2.7166  0.5530 -2.0022
  165SAPS  H20T18632   6.724   3.141   4.553 -0.8991  0.5388 -0.1622
  165SAPS   C3318633   5.765   2.727   5.945  0.5328  0.0817 -0.1570
  165SAPS   H3X18634   5.848   2.694   6.011 -0.6430  0.1914  1.4524
  165SAPS   H3Y18635   5.735   2.834   5.950 -1.1002 -0.3854  0.9881
  165SAPS   C3418636   5.792   2.705   5.794 -0.3691 -0.4874  0.9796
  165SAPS   H4X18637   5.702   2.735   5.736  2.5392  1.2284 -3.1357
  165SAPS   H4Y18638   5.819   2.598   5.779 -0.3757 -0.3894  0.2041
  165SAPS   C3518639   5.904   2.793   5.755  0.0750  0.0185  0.7751
  165SAPS   H5X18640   5.987   2.785   5.829  1.0546 -0.5276 -0.3442
  165SAPS   H5Y18641   5.866   2.897   5.764 -0.6813  0.1454 -2.5492
  165SAPS   C3618642   5.972   2.780   5.617  0.5372  0.0899  0.2347
  165SAPS   H6X18643   6.002   2.674   5.608 -1.2216 -0.7082  2.6926
  165SAPS   H6Y18644   6.068   2.834   5.625  0.9134 -0.1442 -1.9327
  165SAPS   C3718645   5.883   2.822   5.500  0.1826  0.2011  0.4875
  165SAPS   H7X18646   5.871   2.933   5.503  0.3862  0.2364  0.0748
  165SAPS   H7Y18647   5.784   2.773   5.514 -1.5087  3.5941  1.6818
  165SAPS   C3818648   5.953   2.786   5.370  0.5926  0.4292 -0.7279
  165SAPS   H8X18649   5.967   2.678   5.351  0.0998  0.0060  1.1598
  165SAPS   H8Y18650   6.056   2.828   5.376  1.9637 -2.7743  0.4610
  165SAPS   C3918651   5.892   2.841   5.239 -0.0448 -0.6801 -0.3921
  165SAPS   H9X18652   5.951   2.799   5.155  1.2577  1.4208 -0.6122
  165SAPS   H9Y18653   5.901   2.952   5.241 -1.6063 -0.4755 -2.0777
  165SAPS  C31018654   5.747   2.821   5.222 -0.8144 -0.7822 -0.1593
  165SAPS  H10X18655   5.683   2.897   5.272 -0.8193  1.0560 -2.7424
  165SAPS  H10Y18656   5.728   2.718   5.258  0.1984 -0.4492  1.4315
  165SAPS  C31118657   5.695   2.807   5.079 -0.6952 -0.1521 -0.4260
  165SAPS  H11X18658   5.747   2.719   5.037 -0.3245 -0.2312  0.1841
  165SAPS  H11Y18659   5.722   2.897   5.020  0.7546 -2.7621 -4.1230
  165SAPS  C31218660   5.551   2.772   5.076  0.1290  0.1946  0.3144
  165SAPS  H12X18661   5.490   2.863   5.089 -2.6160 -1.4864  0.0699
  165SAPS  H12Y18662   5.523   2.692   5.149 -1.6844 -0.9051 -1.4922
  165SAPS  C31318663   5.508   2.711   4.942  0.5342  0.0266  0.1477
  165SAPS  H13X18664   5.557   2.752   4.851 -0.4147 -0.2776 -0.5137
  165SAPS  H13Y18665   5.400   2.732   4.929 -0.2102 -0.0105  4.7348
  165SAPS  C31418666   5.505   2.559   4.929  0.1475 -0.1825 -0.5990
  165SAPS  H14X18667   5.454   2.527   5.022 -2.5401  1.9399 -1.2232
  165SAPS  H14Y18668   5.605   2.511   4.923  0.3495  0.2030 -0.4095
  165SAPS  C31518669   5.425   2.498   4.806  0.3886  0.1212  0.2401
  165SAPS  H15X18670   5.460   2.546   4.712 -2.2631  0.9453 -0.4169
  165SAPS  H15Y18671   5.317   2.525   4.812  0.2190 -0.4923  0.1130
  165SAPS  C31618672   5.438   2.343   4.794  0.1533 -0.9401 -0.7793
  165SAPS  H16X18673   5.358   2.305   4.726 -0.8703  0.7066 -0.5532
  165SAPS  H16Y18674   5.408   2.315   4.898 -1.8971 -2.7438 -1.7755
  165SAPS  C31718675   5.581   2.290   4.757  0.6678 -0.2674  0.7300
  165SAPS  H17X18676   5.636   2.316   4.851 -2.6226  1.8176  2.2802
  165SAPS  H17Y18677   5.623   2.357   4.679  4.2591 -0.2979  2.4383
  165SAPS  C31818678   5.588   2.144   4.714 -1.0160 -0.1365  0.1913
  165SAPS  H18X18679   5.484   2.105   4.711 -1.8748  1.8903  1.2837
  165SAPS  H18Y18680   5.644   2.079   4.785 -1.1183 -0.8600 -0.3779
  165SAPS  H18Z18681   5.634   2.141   4.613  1.3329  1.9091  1.0961
  166SAPS     N18682   3.869   4.794   6.965  0.4555 -0.5035  0.1261
  166SAPS   HN118683   3.927   4.722   6.917 -1.2800 -2.9969  1.5517
  166SAPS   HN218684   3.815   4.850   6.896  0.3970  1.2644  1.5355
  166SAPS   HN318685   3.944   4.851   7.010 -1.6968  3.5720 -0.9798
  166SAPS   C1218686   3.772   4.738   7.060 -0.2143  0.2461 -0.6006
  166SAPS  H12A18687   3.805   4.639   7.088 -0.7276  0.5819  1.4147
  166SAPS   C1318688   3.749   4.808   7.200 -0.0464 -0.6890 -0.3763
  166SAPS  O13A18689   3.795   4.922   7.215 -0.6394 -0.1694  0.5357
  166SAPS  O13B18690   3.662   4.761   7.277  0.8602  0.0207  0.1678
  166SAPS   C1118691   3.629   4.723   6.996  0.0909 -0.1011  1.0858
  166SAPS  H11A18692   3.563   4.666   7.064  2.3419 -0.8398  2.7408
  166SAPS  H11B18693   3.644   4.649   6.914 -1.3686  1.3405 -0.5691
  166SAPS     P18694   3.415   4.844   6.916  0.1454 -0.1051 -0.2300
  166SAPS   O1318695   3.344   4.839   7.043  1.0994  0.3121 -0.2316
  166SAPS   O1418696   3.385   4.949   6.816  0.5330 -0.3103 -0.8860
  166SAPS   O1218697   3.571   4.841   6.944 -0.4171 -0.2163  0.4806
  166SAPS   O1118698   3.390   4.715   6.854  0.4852 -0.1561  0.0116
  166SAPS    C118699   3.430   4.676   6.727  0.2477  0.6000  0.0934
  166SAPS    HA18700   3.497   4.749   6.677 -0.4166  0.7349 -0.6203
  166SAPS    HB18701   3.493   4.585   6.728 -1.5829 -0.7389 -0.5583
  166SAPS    C218702   3.311   4.634   6.630 -0.3585 -0.1628  0.2820
  166SAPS    HS18703   3.366   4.617   6.534  1.0041 -2.2968  1.3622
  166SAPS   O2118704   3.217   4.745   6.621  0.2726 -0.4801 -0.7463
  166SAPS   C2118705   3.180   4.774   6.494  0.2476  0.9520 -0.3103
  166SAPS   O2218706   3.220   4.724   6.395  0.1062  0.9012  0.1037
  166SAPS   C2218707   3.090   4.897   6.503 -0.0885  0.8858  0.5055
  166SAPS   H2R18708   3.031   4.878   6.595  1.5335 -0.7631  1.2706
  166SAPS   H2S18709   3.156   4.986   6.516 -1.7110  2.1462  0.4574
  166SAPS    C318710   3.250   4.502   6.677 -0.4326 -0.6019 -0.4026
  166SAPS    HX18711   3.244   4.511   6.788  0.0976 -1.5352 -0.2890
  166SAPS    HY18712   3.321   4.418   6.661  0.9912  0.2882  0.9073
  166SAPS   O3118713   3.115   4.473   6.635  0.1441 -1.0369 -0.1907
  166SAPS   C3118714   3.106   4.406   6.513  0.9336 -0.1409 -0.3074
  166SAPS   O3218715   3.191   4.344   6.458 -0.0765 -0.1650  0.1691
  166SAPS   C3218716   2.968   4.425   6.459 -0.0551 -0.4244 -0.7267
  166SAPS   H2X18717   2.920   4.505   6.518  0.8794  0.4385 -1.0926
  166SAPS   H2Y18718   2.913   4.329   6.453 -0.5807 -0.0559 -3.8361
  166SAPS   C2318719   2.988   4.910   6.383 -0.0689  0.2386 -0.4268
  166SAPS   H3R18720   2.920   4.823   6.385  2.0868 -1.5696  2.0651
  166SAPS   H3S18721   3.055   4.914   6.294  1.4429 -0.9512  0.5980
  166SAPS   C2418722   2.907   5.033   6.378 -1.1498  0.0321  0.0336
  166SAPS   H4R18723   2.845   5.057   6.467  1.0002  2.0413  1.1303
  166SAPS   H4S18724   2.846   5.037   6.286 -1.3349  2.0769  0.1928
  166SAPS   C2518725   3.012   5.143   6.387  0.2822  0.3883  0.1126
  166SAPS   H5R18726   3.037   5.175   6.489 -0.2641  1.5957 -0.1021
  166SAPS   C2618727   3.072   5.209   6.293 -0.3185 -0.7564  0.3416
  166SAPS   H6R18728   3.146   5.286   6.318 -0.1427 -0.6022 -0.6181
  166SAPS   C2718729   3.042   5.197   6.144  0.5461  0.0063 -0.6895
  166SAPS   H7R18730   2.966   5.117   6.130  0.4299  0.0946 -0.5607
  166SAPS   H7S18731   3.137   5.157   6.101  0.0088  0.5257 -2.4768
  166SAPS   C2818732   2.994   5.319   6.072  0.4742  0.3614  0.0566
  166SAPS   H8R18733   2.932   5.385   6.134  1.0281 -0.2173  1.2823
  166SAPS   C2918734   3.026   5.350   5.944 -0.0099 -0.6188  0.0195
  166SAPS   H9R18735   2.992   5.441   5.894  1.7392  0.1210  0.1203
  166SAPS  C21018736   3.089   5.256   5.849  0.3687 -0.7878  0.3289
  166SAPS  H10R18737   3.016   5.256   5.764 -0.4746  0.8305  1.0075
  166SAPS  H10S18738   3.089   5.151   5.883  1.8937 -0.7056  0.6393
  166SAPS  C21118739   3.229   5.305   5.811  0.4590 -0.1541  0.0695
  166SAPS  H11R18740   3.294   5.310   5.900 -1.5049  2.1021  1.4932
  166SAPS  C21218741   3.268   5.348   5.691 -0.6805  0.1995  0.5757
  166SAPS  H12R18742   3.372   5.383   5.683 -0.7195  0.1170 -0.3978
  166SAPS  C21318743   3.192   5.359   5.560 -0.3056 -0.1577 -0.1868
  166SAPS  H13R18744   3.240   5.434   5.493  0.0905  0.3926  0.6873
  166SAPS  H13S18745   3.092   5.403   5.581 -0.7443 -0.0011 -2.2949
  166SAPS  C21418746   3.178   5.223   5.497 -0.2773 -0.0892 -0.1433
  166SAPS  H14R18747   3.139   5.147   5.566 -3.0668  0.7271 -0.6821
  166SAPS  C21518748   3.205   5.188   5.370  0.9509  0.4241  0.2779
  166SAPS  H15R18749   3.207   5.081   5.345 -0.4991 -0.5793  3.8494
  166SAPS  C21618750   3.258   5.289   5.267 -0.0962  0.5277  0.1277
  166SAPS  H16R18751   3.351   5.334   5.307 -0.3229  0.6027  0.5739
  166SAPS  H16S18752   3.178   5.362   5.241 -1.3633 -0.2611  1.6351
  166SAPS  C21718753   3.287   5.212   5.134  0.1681 -0.0446  0.5211
  166SAPS  H17R18754   3.345   5.122   5.162 -3.6705 -1.8042  3.7872
  166SAPS  H17S18755   3.344   5.285   5.072  1.7660  0.9567  2.9954
  166SAPS  C21818756   3.153   5.178   5.059 -0.2680  0.2035 -0.0010
  166SAPS  H18R18757   3.089   5.262   5.023  0.0905  1.1469  1.4500
  166SAPS  H18S18758   3.090   5.120   5.130 -0.1943  0.0946 -0.0240
  166SAPS  C21918759   3.186   5.088   4.936  0.0958 -0.5567  1.3442
  166SAPS  H19R18760   3.247   5.144   4.863 -0.0559 -1.1776  0.7267
  166SAPS  H19S18761   3.094   5.065   4.877  0.5243  0.0162  0.4475
  166SAPS  C22018762   3.241   4.958   4.980  0.2609  0.0262 -0.2886
  166SAPS  H20R18763   3.179   4.911   5.059  0.1282 -0.7820 -0.8655
  166SAPS  H20S18764   3.348   4.957   5.011 -0.8190 -0.7192  4.0297
  166SAPS  H20T18765   3.233   4.889   4.893 -0.7435  0.8834 -0.9012
  166SAPS   C3318766   2.963   4.477   6.311  0.0833  0.0824  0.7381
  166SAPS   H3X18767   3.052   4.541   6.292 -0.8728  1.0804 -0.5719
  166SAPS   H3Y18768   2.873   4.542   6.297  0.4989  0.5614  0.2438
  166SAPS   C3418769   2.954   4.362   6.202 -0.2592 -0.7362 -0.0683
  166SAPS   H4X18770   2.889   4.281   6.243  2.5878 -2.9057  0.4426
  166SAPS   H4Y18771   3.053   4.312   6.196 -0.4842 -1.0424 -1.3651
  166SAPS   C3518772   2.902   4.403   6.063  0.8948 -0.1065  0.3021
  166SAPS   H5X18773   2.972   4.478   6.021 -0.8138  0.9509 -0.8146
  166SAPS   H5Y18774   2.803   4.453   6.068 -0.0273 -1.9131  1.2841
  166SAPS   C3618775   2.893   4.279   5.967  0.5542 -0.8473 -0.1255
  166SAPS   H6X18776   2.798   4.231   6.000  0.1261 -0.7303 -1.1476
  166SAPS   H6Y18777   2.975   4.206   5.984  1.8461  0.4559 -0.6668
  166SAPS   C3718778   2.888   4.319   5.823  0.7884  0.1025  0.3768
  166SAPS   H7X18779   2.977   4.385   5.810 -0.2371  1.5407  0.3575
  166SAPS   H7Y18780   2.792   4.373   5.806 -0.3676 -1.9090  0.2318
  166SAPS   C3818781   2.907   4.199   5.727 -0.7050  0.0480  0.7818
  166SAPS   H8X18782   2.842   4.112   5.748  0.4151 -0.9270  0.3300
  166SAPS   H8Y18783   3.010   4.157   5.736 -0.5751 -0.0120 -0.8072
  166SAPS   C3918784   2.898   4.249   5.584 -0.2613 -0.5144 -0.0276
  166SAPS   H9X18785   2.985   4.315   5.564 -0.3858 -0.3814 -0.1373
  166SAPS   H9Y18786   2.806   4.312   5.575 -2.0842 -3.0031  0.2581
  166SAPS  C31018787   2.903   4.135   5.479  0.1296 -0.5051  0.2035
  166SAPS  H10X18788   2.804   4.085   5.483 -1.0446  1.6517 -0.1538
  166SAPS  H10Y18789   2.987   4.071   5.512 -0.2311 -0.5006  1.1773
  166SAPS  C31118790   2.915   4.180   5.333 -0.4568  0.6629 -0.6067
  166SAPS  H11X18791   3.003   4.245   5.323 -0.5195  1.0614  1.0993
  166SAPS  H11Y18792   2.831   4.240   5.291 -0.1884  0.3905 -1.5528
  166SAPS  C31218793   2.931   4.069   5.234  0.3152 -0.0328 -0.3848
  166SAPS  H12X18794   2.986   3.980   5.271 -0.3969 -0.3997 -0.1778
  166SAPS  H12Y18795   2.987   4.116   5.150  2.9522 -1.5855  0.3873
  166SAPS  C31318796   2.799   4.002   5.177  0.0537 -0.2653  0.4786
  166SAPS  H13X18797   2.737   4.081   5.130 -1.0283  0.0192  2.2905
  166SAPS  H13Y18798   2.736   3.974   5.263 -0.8235  1.7616  0.5505
  166SAPS  C31418799   2.836   3.896   5.077 -0.1559 -0.4636  0.0079
  166SAPS  H14X18800   2.745   3.833   5.064 -1.6300  1.2242  1.6749
  166SAPS  H14Y18801   2.919   3.829   5.108  0.4053 -0.2336 -0.9452
  166SAPS  C31518802   2.876   3.944   4.936  0.5952  0.5476  0.6174
  166SAPS  H15X18803   2.956   4.021   4.942 -1.1825  2.6988 -1.1023
  166SAPS  H15Y18804   2.791   4.001   4.893  1.7329  1.1549 -0.9116
  166SAPS  C31618805   2.907   3.835   4.835  0.4192 -0.1926 -1.3760
  166SAPS  H16X18806   2.834   3.756   4.863 -0.5646  1.3659  0.7850
  166SAPS  H16Y18807   3.009   3.797   4.861  0.0158  0.4504  1.6096
  166SAPS  C31718808   2.890   3.869   4.690 -0.4362  0.6602  0.0667
  166SAPS  H17X18809   2.785   3.884   4.656  0.0774  1.7744 -1.1040
  166SAPS  H17Y18810   2.931   3.782   4.634 -0.8711  1.3795 -1.4213
  166SAPS  C31818811   2.961   3.994   4.648  0.4239  0.1898  0.1115
  166SAPS  H18X18812   2.913   4.091   4.675  1.7671  1.0628 -0.5312
  166SAPS  H18Y18813   2.969   3.992   4.537  2.1699 -0.0486  0.2247
  166SAPS  H18Z18814   3.065   4.002   4.687 -0.3316  0.1638  2.2541
  167SAPS     N18815   6.810   5.536   6.694 -0.6504 -0.0841 -0.6167
  167SAPS   HN118816   6.869   5.495   6.619  1.1471 -1.3682  1.3882
  167SAPS   HN218817   6.744   5.467   6.734 -0.0871  0.8251  2.0673
  167SAPS   HN318818   6.752   5.609   6.647  0.9041  2.3608  1.0297
  167SAPS   C1218819   6.908   5.588   6.789  0.0659 -0.2272  0.0853
  167SAPS  H12A18820   6.847   5.648   6.855  0.8622  0.3121  0.3479
  167SAPS   C1318821   6.972   5.479   6.880 -0.0495  0.5773 -0.0957
  167SAPS  O13A18822   6.942   5.352   6.873  0.3141 -0.3622 -0.4524
  167SAPS  O13B18823   7.026   5.524   6.984  0.3559  0.3749 -0.2209
  167SAPS   C1118824   7.015   5.678   6.718  0.2916  0.5504 -0.4811
  167SAPS  H11A18825   7.077   5.739   6.788 -0.9076  2.0034 -0.6480
  167SAPS  H11B18826   6.971   5.754   6.649 -0.3478 -0.1188 -0.8146
  167SAPS     P18827   7.120   5.559   6.509 -0.3141  0.1770 -0.1995
  167SAPS   O1318828   7.244   5.488   6.486  0.4719  0.0228  0.4404
  167SAPS   O1418829   6.993   5.483   6.496 -0.0439 -0.1750  0.1964
  167SAPS   O1218830   7.128   5.607   6.655  0.1384  0.3566 -0.5764
  167SAPS   O1118831   7.107   5.698   6.430 -0.4188  0.1292 -0.1600
  167SAPS    C118832   7.222   5.792   6.431 -0.4667 -0.4924  0.5949
  167SAPS    HA18833   7.190   5.884   6.484 -1.6944 -0.6130  0.0920
  167SAPS    HB18834   7.312   5.760   6.488  0.6126  2.6966  0.8589
  167SAPS    C218835   7.284   5.811   6.292  0.2390 -0.2806  0.3856
  167SAPS    HS18836   7.366   5.885   6.306  0.3808 -0.6515  1.6902
  167SAPS   O2118837   7.192   5.856   6.193 -0.3606 -0.0503 -0.2715
  167SAPS   C2118838   7.156   5.984   6.200 -0.8350 -0.2634  0.3520
  167SAPS   O2218839   7.170   6.065   6.290 -0.5828 -0.1628  0.5098
  167SAPS   C2218840   7.084   6.014   6.073 -0.1477  0.2783  0.0081
  167SAPS   H2R18841   7.155   6.013   5.986 -0.5428 -0.0990 -0.3136
  167SAPS   H2S18842   7.009   5.933   6.065  1.6198 -1.3922 -0.5969
  167SAPS    C318843   7.341   5.678   6.241  0.0260  0.7828  0.5607
  167SAPS    HX18844   7.256   5.606   6.241  0.2122  0.5426  1.6706
  167SAPS    HY18845   7.413   5.652   6.322  1.5778 -0.5357 -1.1500
  167SAPS   O3118846   7.409   5.688   6.110 -0.3727 -0.0935  0.2313
  167SAPS   C3118847   7.461   5.572   6.070 -0.9351  0.6442  0.1457
  167SAPS   O3218848   7.427   5.466   6.116 -0.3245  0.0415  0.1276
  167SAPS   C3218849   7.580   5.603   5.979  0.2686  0.5984 -0.2456
  167SAPS   H2X18850   7.669   5.610   6.045 -0.4746 -1.5326  1.0816
  167SAPS   H2Y18851   7.571   5.698   5.923  1.5577  0.5890 -0.4835
  167SAPS   C2318852   7.002   6.142   6.081 -0.1973  0.8524  0.1990
  167SAPS   H3R18853   7.081   6.215   6.107  0.7588 -0.1775  0.2895
  167SAPS   H3S18854   6.933   6.145   6.167 -2.4817  1.1315 -1.5417
  167SAPS   C2418855   6.948   6.185   5.952  0.4704  0.0463  0.8671
  167SAPS   H4R18856   6.884   6.097   5.928 -0.8132  1.0359  0.4986
  167SAPS   H4S18857   7.023   6.190   5.871 -2.2528  2.1415 -1.7830
  167SAPS   C2518858   6.855   6.308   5.951 -0.5175  0.4424 -0.7104
  167SAPS   H5R18859   6.761   6.295   6.006 -0.3172 -3.1618 -0.9799
  167SAPS   C2618860   6.885   6.434   5.915 -0.5992  0.1640 -1.1883
  167SAPS   H6R18861   6.810   6.510   5.941  0.3048  0.6242  0.1783
  167SAPS   C2718862   7.016   6.472   5.845  0.5978 -0.7600  0.0874
  167SAPS   H7R18863   7.087   6.388   5.835  1.3183 -0.0233 -1.4215
  167SAPS   H7S18864   7.070   6.559   5.889 -1.9710  2.0238 -1.7964
  167SAPS   C2818865   6.988   6.526   5.701  0.5838  0.1192  0.2321
  167SAPS   H8R18866   6.950   6.629   5.701  3.2800  1.2214 -1.7140
  167SAPS   C2918867   7.010   6.462   5.580  0.0584 -0.4607  0.5778
  167SAPS   H9R18868   6.987   6.511   5.484 -1.0760 -1.3379  0.3867
  167SAPS  C21018869   7.058   6.320   5.550 -0.2520 -0.1670 -0.0514
  167SAPS  H10R18870   6.984   6.268   5.485  1.1084  0.4551 -2.2181
  167SAPS  H10S18871   7.066   6.256   5.640 -0.2210 -1.5991 -1.0538
  167SAPS  C21118872   7.188   6.328   5.479  0.0812 -0.2239 -0.5942
  167SAPS  H11R18873   7.266   6.318   5.556 -1.2377  1.5256  1.0494
  167SAPS  C21218874   7.209   6.348   5.349 -0.2186  0.7389  0.3454
  167SAPS  H12R18875   7.312   6.359   5.311  0.2640  1.2556  1.7410
  167SAPS  C21318876   7.097   6.347   5.245 -0.5220 -0.5312 -0.1674
  167SAPS  H13R18877   7.025   6.430   5.263  0.4791  0.3507 -0.1994
  167SAPS  H13S18878   7.047   6.248   5.255 -0.1608 -0.6147  0.9609
  167SAPS  C21418879   7.142   6.350   5.101 -0.0924  0.7292  0.3095
  167SAPS  H14R18880   7.239   6.305   5.075 -1.5949 -0.4579 -4.2457
  167SAPS  C21518881   7.075   6.392   4.994  0.1704 -0.1681  0.4107
  167SAPS  H15R18882   7.123   6.389   4.895 -0.1151  1.4980  0.2042
  167SAPS  C21618883   6.944   6.469   4.999 -0.1847  0.0942 -0.3355
  167SAPS  H16R18884   6.901   6.477   5.102 -2.2532 -2.2770 -0.9164
  167SAPS  H16S18885   6.871   6.416   4.935  2.4052  0.1103 -3.5552
  167SAPS  C21718886   6.953   6.615   4.953 -0.0760  0.1194 -0.1658
  167SAPS  H17R18887   7.035   6.674   5.000 -0.5227  0.2600  0.4467
  167SAPS  H17S18888   6.864   6.673   4.985 -0.2533  0.4904 -1.2868
  167SAPS  C21818889   6.970   6.627   4.803  0.4943 -0.4337 -0.4032
  167SAPS  H18R18890   6.886   6.585   4.743 -0.1871  1.3403 -0.7608
  167SAPS  H18S18891   7.066   6.580   4.773  0.9952 -0.6422  1.4496
  167SAPS  C21918892   6.995   6.765   4.744 -0.7784  0.1212  0.1052
  167SAPS  H19R18893   7.090   6.802   4.788  1.5605 -3.7646 -1.1501
  167SAPS  H19S18894   6.917   6.832   4.786 -0.5836  0.1263  0.4581
  167SAPS  C22018895   6.994   6.771   4.594 -0.2010  0.3388 -0.3546
  167SAPS  H20R18896   6.893   6.739   4.559 -1.1683 -0.0120  2.5132
  167SAPS  H20S18897   7.067   6.702   4.547 -0.5736  0.6271 -1.4068
  167SAPS  H20T18898   7.014   6.875   4.559 -3.8929  0.9317 -1.1673
  167SAPS   C3318899   7.602   5.482   5.877 -0.5488 -0.4684 -0.2079
  167SAPS   H3X18900   7.627   5.384   5.923  1.7525  0.2643  0.2334
  167SAPS   H3Y18901   7.696   5.512   5.825 -1.1750  1.4860 -0.2979
  167SAPS   C3418902   7.493   5.457   5.765 -0.7837 -0.1384  0.9388
  167SAPS   H4X18903   7.397   5.513   5.775  0.2735  1.4598  2.8788
  167SAPS   H4Y18904   7.473   5.347   5.767  1.1092 -0.5190  0.9884
  167SAPS   C3518905   7.557   5.495   5.633 -0.4047 -0.0051 -0.0545
  167SAPS   H5X18906   7.655   5.443   5.623 -0.4312 -0.1093  0.2142
  167SAPS   H5Y18907   7.579   5.603   5.628  1.2626 -0.1590  2.3976
  167SAPS   C3618908   7.465   5.455   5.515 -0.1077 -0.5505 -0.0570
  167SAPS   H6X18909   7.361   5.483   5.544 -0.6544 -2.1007 -0.4112
  167SAPS   H6Y18910   7.452   5.345   5.508 -1.4298 -0.5102  1.1853
  167SAPS   C3718911   7.491   5.522   5.382 -0.2159  0.4588  0.5103
  167SAPS   H7X18912   7.470   5.629   5.402  1.2088  1.1004 -1.2061
  167SAPS   H7Y18913   7.421   5.492   5.302  2.0709  1.0141 -1.8236
  167SAPS   C3818914   7.637   5.509   5.321 -0.6546  0.1134  0.3680
  167SAPS   H8X18915   7.649   5.401   5.298  0.4773  0.0173  1.3134
  167SAPS   H8Y18916   7.712   5.543   5.396 -0.1994  0.1837 -0.1201
  167SAPS   C3918917   7.659   5.599   5.202 -0.0609  0.2951  0.1136
  167SAPS   H9X18918   7.764   5.581   5.172 -0.1665 -0.6103  0.2333
  167SAPS   H9Y18919   7.635   5.704   5.229  0.8718  0.9953 -1.6056
  167SAPS  C31018920   7.576   5.572   5.075  0.4333  0.6801 -1.1662
  167SAPS  H10X18921   7.469   5.588   5.100  0.4919  0.9304 -1.0747
  167SAPS  H10Y18922   7.577   5.469   5.035 -0.9733 -0.1699  0.8471
  167SAPS  C31118923   7.614   5.676   4.973  0.0170  0.1191  0.3244
  167SAPS  H11X18924   7.690   5.636   4.902  0.5302  0.3826  0.7225
  167SAPS  H11Y18925   7.678   5.753   5.021  1.0037 -0.0530 -0.6508
  167SAPS  C31218926   7.494   5.751   4.903  0.3005  0.3278 -0.0135
  167SAPS  H12X18927   7.423   5.774   4.986  0.0305  0.2035 -0.2078
  167SAPS  H12Y18928   7.441   5.679   4.837  1.1290 -0.2495 -0.0645
  167SAPS  C31318929   7.534   5.876   4.831 -0.0469 -0.0701 -0.2489
  167SAPS  H13X18930   7.567   5.858   4.726 -0.8278  2.9725 -1.1308
  167SAPS  H13Y18931   7.624   5.913   4.884  0.2898 -4.7257  2.9275
  167SAPS  C31418932   7.423   5.991   4.833  0.6757  0.0169 -0.3333
  167SAPS  H14X18933   7.448   6.072   4.761 -1.1437  1.4143  0.5294
  167SAPS  H14Y18934   7.419   6.024   4.938  1.4649 -3.8960  1.1011
  167SAPS  C31518935   7.279   5.946   4.781 -0.1729  0.2462  0.0871
  167SAPS  H15X18936   7.210   6.033   4.789 -1.0163 -0.3564 -0.5826
  167SAPS  H15Y18937   7.228   5.873   4.846  0.1022  0.2465  0.3054
  167SAPS  C31618938   7.267   5.892   4.639 -0.7463  0.0433 -0.5678
  167SAPS  H16X18939   7.329   5.802   4.626 -1.3202 -0.6091  0.9398
  167SAPS  H16Y18940   7.305   5.964   4.563 -0.3518 -0.3385 -0.7323
  167SAPS  C31718941   7.120   5.879   4.582 -0.0755 -0.4123 -0.0274
  167SAPS  H17X18942   7.072   5.979   4.582  1.1334  0.1878  0.4434
  167SAPS  H17Y18943   7.066   5.812   4.652 -2.0437  1.4535  0.3601
  167SAPS  C31818944   7.114   5.827   4.437  0.0459 -0.6379  0.5660
  167SAPS  H18X18945   7.012   5.810   4.395  0.5736 -0.5134 -0.8087
  167SAPS  H18Y18946   7.167   5.729   4.436  0.1280 -0.6281 -1.3105
  167SAPS  H18Z18947   7.154   5.901   4.364 -0.4675 -1.0866 -0.1813
  168SAPS     N18948   4.442   4.912   6.822 -0.1639 -0.4172  0.3896
  168SAPS   HN118949   4.339   4.923   6.809  0.0568  0.7492 -0.5457
  168SAPS   HN218950   4.479   4.983   6.756 -3.8337 -0.9601 -2.5973
  168SAPS   HN318951   4.480   4.819   6.799 -1.7342 -1.2124  0.8345
  168SAPS   C1218952   4.487   4.937   6.955  1.1505 -0.1293 -0.0815
  168SAPS  H12A18953   4.482   4.845   7.010  0.0682  0.2703  0.5126
  168SAPS   C1318954   4.630   4.977   6.959 -0.1227  0.3690  0.6670
  168SAPS  O13A18955   4.706   4.982   6.854 -0.2200  0.0934 -0.3499
  168SAPS  O13B18956   4.681   5.016   7.067 -0.2634  0.1407 -0.6899
  168SAPS   C1118957   4.407   5.054   7.012 -0.7524 -0.4657  0.2875
  168SAPS  H11A18958   4.402   5.130   6.931  1.6317 -0.3601  0.1570
  168SAPS  H11B18959   4.463   5.096   7.098 -0.0928  1.4370 -1.0026
  168SAPS     P18960   4.147   5.045   6.970 -0.6872  0.0360 -0.3072
  168SAPS   O1318961   4.045   4.971   7.038 -0.3518 -0.0078 -0.2141
  168SAPS   O1418962   4.133   5.191   6.954 -0.1398 -0.1242 -0.0209
  168SAPS   O1218963   4.282   5.011   7.053  0.2002  0.5222  0.1907
  168SAPS   O1118964   4.179   4.988   6.824 -0.5157  0.3522  0.2986
  168SAPS    C118965   4.068   4.967   6.733  0.0588  0.0855 -0.0289
  168SAPS    HA18966   4.006   4.880   6.763  0.0610 -0.3889 -1.3188
  168SAPS    HB18967   4.000   5.054   6.723 -0.6542 -0.4291  0.2888
  168SAPS    C218968   4.110   4.926   6.587  0.3278 -0.0165 -0.5382
  168SAPS    HS18969   4.020   4.874   6.550 -0.9545  0.3902  1.7694
  168SAPS   O2118970   4.229   4.838   6.588 -0.5903  0.3572  0.7417
  168SAPS   C2118971   4.202   4.713   6.623 -0.1279 -0.2485  0.1042
  168SAPS   O2218972   4.097   4.678   6.670 -0.2662  0.1724  0.4151
  168SAPS   C2218973   4.304   4.619   6.577  0.0046 -0.1105  0.2086
  168SAPS   H2R18974   4.403   4.668   6.588  0.4582 -0.5025 -1.7018
  168SAPS   H2S18975   4.298   4.527   6.639  0.3051 -1.0573 -1.1129
  168SAPS    C318976   4.129   5.057   6.499  0.3736  0.7354  0.2138
  168SAPS    HX18977   4.214   5.107   6.550  0.1691  0.1185  1.1870
  168SAPS    HY18978   4.036   5.118   6.501  0.7572  1.3327  0.2300
  168SAPS   O3118979   4.141   5.029   6.358  0.0602 -0.2009  0.2181
  168SAPS   C3118980   4.258   5.000   6.304  0.2995 -0.4316  0.1800
  168SAPS   O3218981   4.365   5.003   6.351 -0.2336  0.0441 -0.3013
  168SAPS   C3218982   4.235   4.927   6.169  0.4737  0.2355 -0.7408
  168SAPS   H2X18983   4.180   4.999   6.105  1.6299  0.9130 -1.0035
  168SAPS   H2Y18984   4.168   4.842   6.195  0.9002  0.3161  0.6999
  168SAPS   C2318985   4.287   4.565   6.428  0.0125 -0.2018 -0.5733
  168SAPS   H3R18986   4.379   4.504   6.414  0.3477  0.0660  0.3885
  168SAPS   H3S18987   4.290   4.654   6.362 -0.6249  0.5361  0.3826
  168SAPS   C2418988   4.179   4.461   6.402  0.5251 -0.0346  1.3375
  168SAPS   H4R18989   4.182   4.389   6.487 -1.1387 -1.9602 -0.1685
  168SAPS   H4S18990   4.202   4.400   6.312  0.3943  0.5450  0.9086
  168SAPS   C2518991   4.038   4.522   6.390  0.3377 -0.2187 -0.1683
  168SAPS   H5R18992   3.969   4.499   6.472 -1.0055 -2.7193 -1.8680
  168SAPS   C2618993   3.979   4.565   6.283 -0.0770  0.7251  0.1814
  168SAPS   H6R18994   3.875   4.599   6.293 -0.0463  1.4143 -1.5488
  168SAPS   C2718995   4.037   4.559   6.142 -0.0852  0.3079 -0.1454
  168SAPS   H7R18996   4.148   4.553   6.148 -0.1857 -0.6618  1.2637
  168SAPS   H7S18997   4.015   4.649   6.082 -2.2090 -1.5945 -2.4560
  168SAPS   C2818998   3.994   4.432   6.078 -0.2069  0.4259  0.0735
  168SAPS   H8R18999   4.063   4.349   6.098 -0.8310  0.2084  1.4731
  168SAPS   C2919000   3.898   4.417   5.984 -0.2262  0.6921  0.1392
  168SAPS   H9R19001   3.870   4.319   5.941 -0.5784  1.8829 -2.6022
  168SAPS  C21019002   3.809   4.514   5.918  0.2780 -0.3219 -0.5437
  168SAPS  H10R19003   3.778   4.580   6.002 -1.3482 -0.7065 -0.8098
  168SAPS  H10S19004   3.714   4.459   5.903  0.0320 -1.3775  3.6699
  168SAPS  C21119005   3.869   4.591   5.810 -0.2617 -0.0285 -0.4064
  168SAPS  H11R19006   3.961   4.645   5.837 -0.5523 -0.5794  1.9136
  168SAPS  C21219007   3.799   4.609   5.694  0.0122 -0.0700 -0.3173
  168SAPS  H12R19008   3.845   4.659   5.608  2.1876  0.5344  1.1164
  168SAPS  C21319009   3.667   4.555   5.656 -0.0840  0.4776 -0.9866
  168SAPS  H13R19010   3.582   4.566   5.728 -0.0396  0.1583 -0.8848
  168SAPS  H13S19011   3.684   4.445   5.660  3.0137  0.8638 -1.3805
  168SAPS  C21419012   3.625   4.596   5.514  0.2928  0.6263  0.1039
  168SAPS  H14R19013   3.551   4.677   5.503  0.7642  0.9029 -1.2075
  168SAPS  C21519014   3.658   4.536   5.396 -0.8694  0.4615 -0.3912
  168SAPS  H15R19015   3.635   4.592   5.304 -0.3901 -0.2415 -0.9512
  168SAPS  C21619016   3.761   4.424   5.364  0.0142  0.1136  0.2081
  168SAPS  H16R19017   3.713   4.323   5.364 -0.8764  0.5198  1.0375
  168SAPS  H16S19018   3.842   4.408   5.438 -0.0156 -0.8519  0.0529
  168SAPS  C21719019   3.843   4.440   5.232  1.0224 -0.1477  0.2839
  168SAPS  H17R19020   3.922   4.363   5.221  3.3787  2.4499 -3.5556
  168SAPS  H17S19021   3.887   4.542   5.231 -1.5587  1.0799 -2.0848
  168SAPS  C21819022   3.754   4.429   5.110  0.1472  0.1779 -0.0174
  168SAPS  H18R19023   3.676   4.507   5.116 -0.9550 -0.7887 -1.2480
  168SAPS  H18S19024   3.693   4.337   5.126 -0.5146  0.2427 -1.9437
  168SAPS  C21919025   3.815   4.419   4.972  0.6655 -0.2360 -0.1484
  168SAPS  H19R19026   3.885   4.334   4.962  1.4894  0.6828 -2.9614
  168SAPS  H19S19027   3.870   4.509   4.937  1.0634 -0.8687 -1.1896
  168SAPS  C22019028   3.705   4.382   4.867 -0.2789 -0.2127  0.4706
  168SAPS  H20R19029   3.644   4.472   4.844 -2.9029 -1.7090  1.2026
  168SAPS  H20S19030   3.623   4.319   4.907 -1.6283  1.1501 -0.0502
  168SAPS  H20T19031   3.746   4.338   4.774  0.7432 -1.5606  1.5103
  168SAPS   C3319032   4.366   4.879   6.106  0.1088  0.0764  0.1728
  168SAPS   H3X19033   4.438   4.837   6.179 -0.2560 -1.1924 -0.1769
  168SAPS   H3Y19034   4.408   4.971   6.059 -0.4377  0.4330  0.3700
  168SAPS   C3419035   4.350   4.777   5.992 -0.8631  0.1991 -1.0158
  168SAPS   H4X19036   4.312   4.680   6.031 -0.7421  1.6830  3.3427
  168SAPS   H4Y19037   4.448   4.770   5.939 -0.3810 -0.7632 -0.0482
  168SAPS   C3519038   4.256   4.815   5.878  0.1800  0.7454  0.0615
  168SAPS   H5X19039   4.289   4.910   5.830  2.1689  1.4142  2.5455
  168SAPS   H5Y19040   4.152   4.846   5.903 -0.4741 -0.8547 -0.5423
  168SAPS   C3619041   4.255   4.702   5.776 -0.7768 -0.4889 -0.0893
  168SAPS   H6X19042   4.204   4.613   5.818 -1.3204 -1.3013 -2.3232
  168SAPS   H6Y19043   4.362   4.674   5.762 -0.4556  0.0388  1.1692
  168SAPS   C3719044   4.191   4.742   5.643  0.3083 -0.2349  0.3675
  168SAPS   H7X19045   4.249   4.823   5.594  0.4269  0.8982  2.3153
  168SAPS   H7Y19046   4.088   4.782   5.652  1.2081  2.5584 -0.7381
  168SAPS   C3819047   4.182   4.619   5.542 -0.5247 -0.5270 -0.4243
  168SAPS   H8X19048   4.087   4.564   5.558  1.1622 -3.3871  0.4985
  168SAPS   H8Y19049   4.268   4.552   5.563 -0.4061 -1.3450 -3.0788
  168SAPS   C3919050   4.200   4.646   5.397 -0.5005 -0.0372  0.1199
  168SAPS   H9X19051   4.285   4.716   5.377 -0.4394 -0.2220 -0.2714
  168SAPS   H9Y19052   4.112   4.705   5.364 -2.0125 -2.7241 -0.8927
  168SAPS  C31019053   4.207   4.514   5.315  0.0514 -0.3773  0.7414
  168SAPS  H10X19054   4.111   4.460   5.334 -0.3032 -0.4561 -1.0221
  168SAPS  H10Y19055   4.282   4.442   5.352  1.0106 -0.3342 -1.0087
  168SAPS  C31119056   4.229   4.540   5.158  1.0156 -0.0592 -0.7935
  168SAPS  H11X19057   4.335   4.571   5.142  1.0534  0.8806  1.0803
  168SAPS  H11Y19058   4.163   4.627   5.137 -2.6489 -2.5588 -0.5585
  168SAPS  C31219059   4.208   4.419   5.064 -0.4905 -0.0063 -0.2487
  168SAPS  H12X19060   4.106   4.380   5.086 -0.2242  1.1304  3.6235
  168SAPS  H12Y19061   4.275   4.334   5.088 -0.4874  0.1725  0.3929
  168SAPS  C31319062   4.226   4.446   4.920  0.2932 -0.1670 -0.5676
  168SAPS  H13X19063   4.335   4.458   4.906  0.5119  0.3321  1.3139
  168SAPS  H13Y19064   4.182   4.545   4.894 -2.6803 -0.9092  1.1543
  168SAPS  C31419065   4.182   4.333   4.826  0.4060 -0.5706  0.4447
  168SAPS  H14X19066   4.081   4.356   4.784  0.5330  0.2587  0.5736
  168SAPS  H14Y19067   4.140   4.258   4.896 -3.5694  0.3367 -0.6851
  168SAPS  C31519068   4.283   4.295   4.726  0.8229 -0.7233  0.0322
  168SAPS  H15X19069   4.234   4.209   4.676  1.0459 -0.0791 -1.3641
  168SAPS  H15Y19070   4.368   4.262   4.789 -0.5254 -2.3642  1.0676
  168SAPS  C31619071   4.307   4.401   4.618 -0.4837 -0.5071 -0.4808
  168SAPS  H16X19072   4.325   4.501   4.664  1.4934 -1.5740  1.2670
  168SAPS  H16Y19073   4.210   4.408   4.566 -0.1976 -1.7100 -1.2070
  168SAPS  C31719074   4.407   4.362   4.511 -0.3521  0.2860 -0.1213
  168SAPS  H17X19075   4.385   4.260   4.474  2.3685 -1.6305  3.0107
  168SAPS  H17Y19076   4.508   4.348   4.554  0.1330 -1.6212 -1.7529
  168SAPS  C31819077   4.398   4.466   4.399 -0.3033  0.4502  0.4197
  168SAPS  H18X19078   4.405   4.571   4.434  1.4557  0.0483  1.3829
  168SAPS  H18Y19079   4.298   4.464   4.351  0.5112  0.3855 -1.3340
  168SAPS  H18Z19080   4.475   4.442   4.323  0.1508  0.1304  0.9716
  169SAPS     N19081   0.787   5.716   7.124  0.2463  0.1261 -0.2493
  169SAPS   HN119082   0.774   5.697   7.023  0.1000 -0.1201 -0.1872
  169SAPS   HN219083   0.729   5.651   7.181  0.3410  0.5068  0.2897
  169SAPS   HN319084   0.751   5.809   7.154  1.4692  0.5650 -0.0893
  169SAPS   C1219085   0.927   5.713   7.178 -0.5077 -0.2575 -0.9707
  169SAPS  H12A19086   0.917   5.782   7.261  0.2759 -0.2969 -0.8338
  169SAPS   C1319087   0.973   5.580   7.244 -0.0555  0.6149 -0.1453
  169SAPS  O13A19088   0.902   5.477   7.230  0.0337  0.1295 -0.3310
  169SAPS  O13B19089   1.095   5.570   7.286 -0.0851 -0.2142 -0.1878
  169SAPS   C1119090   1.028   5.750   7.071 -0.1073  0.2616 -0.0221
  169SAPS  H11A19091   1.022   5.670   6.993 -1.2074 -0.2535  0.5648
  169SAPS  H11B19092   1.125   5.737   7.122 -0.7092  0.7937  1.2923
  169SAPS     P19093   1.062   6.013   7.069  0.2122  0.2268 -0.1047
  169SAPS   O1319094   0.958   6.116   7.075 -0.2552 -0.5200  0.3104
  169SAPS   O1419095   1.123   5.990   7.200  0.5618  0.5586 -0.1680
  169SAPS   O1219096   1.008   5.878   7.010  0.1215 -0.0736  0.0708
  169SAPS   O1119097   1.182   6.060   6.970  0.3061 -0.5059 -0.1489
  169SAPS    C119098   1.244   5.976   6.877 -0.3174 -0.0677  0.6419
  169SAPS    HA19099   1.353   5.967   6.894 -0.3532 -1.8691  0.1139
  169SAPS    HB19100   1.216   5.869   6.886  0.4428 -0.2239  1.2941
  169SAPS    C219101   1.233   6.027   6.726  0.0514 -0.1342 -0.1081
  169SAPS    HS19102   1.296   5.957   6.666 -0.6068 -1.4188  0.6646
  169SAPS   O2119103   1.270   6.161   6.716 -0.0610  0.2575  0.7575
  169SAPS   C2119104   1.400   6.187   6.704  0.2933 -0.4558 -0.4063
  169SAPS   O2219105   1.489   6.111   6.736  0.4011 -0.5852  0.5410
  169SAPS   C2219106   1.423   6.330   6.659  0.4017  0.3511  0.1411
  169SAPS   H2R19107   1.340   6.357   6.590  0.2286 -1.5936 -0.4697
  169SAPS   H2S19108   1.427   6.391   6.752 -0.9991 -0.2281  0.6032
  169SAPS    C319109   1.090   6.017   6.669  0.3061 -0.1470  0.1704
  169SAPS    HX19110   1.032   6.052   6.757 -0.0589 -1.4898  0.4822
  169SAPS    HY19111   1.071   5.910   6.646  1.5379 -0.0278 -1.6305
  169SAPS   O3119112   1.091   6.092   6.552 -0.2595 -0.5533 -0.3793
  169SAPS   C3119113   1.029   6.209   6.555  0.3124  0.0865  0.2795
  169SAPS   O3219114   0.977   6.264   6.652 -0.0968 -0.6832  0.7251
  169SAPS   C3219115   1.029   6.261   6.408 -0.3289  0.1002 -0.1247
  169SAPS   H2X19116   0.966   6.196   6.343 -1.1636 -0.8087  1.5476
  169SAPS   H2Y19117   1.131   6.276   6.366 -0.0965  0.5535  0.5985
  169SAPS   C2319118   1.560   6.351   6.589  0.2359 -0.6958  0.3086
  169SAPS   H3R19119   1.638   6.298   6.647  3.8220  2.2290 -1.4574
  169SAPS   H3S19120   1.574   6.461   6.600 -3.3611 -0.2408  1.9052
  169SAPS   C2419121   1.579   6.301   6.445 -0.3854 -0.5127  0.6718
  169SAPS   H4R19122   1.537   6.198   6.439 -2.3909  0.3189 -1.3602
  169SAPS   H4S19123   1.685   6.310   6.413 -0.8859 -0.9611 -1.2453
  169SAPS   C2519124   1.491   6.381   6.354 -0.4449 -0.1941  0.0517
  169SAPS   H5R19125   1.399   6.426   6.394 -0.7233  1.2118 -2.0109
  169SAPS   C2619126   1.519   6.412   6.226 -0.0745 -0.1589  0.2954
  169SAPS   H6R19127   1.438   6.461   6.169  1.2675  0.2226 -1.3554
  169SAPS   C2719128   1.633   6.371   6.139 -0.2429 -0.6478  0.6989
  169SAPS   H7R19129   1.604   6.365   6.032  0.4419  2.0901  0.2949
  169SAPS   H7S19130   1.660   6.263   6.146 -1.1394 -0.8554  1.1137
  169SAPS   C2819131   1.765   6.444   6.158  0.1053 -0.2328 -0.9059
  169SAPS   H8R19132   1.799   6.462   6.261 -0.9030  0.6647 -0.7124
  169SAPS   C2919133   1.826   6.516   6.059 -0.1664 -0.0855  0.4826
  169SAPS   H9R19134   1.919   6.570   6.082 -1.1948  0.8858  2.6694
  169SAPS  C21019135   1.787   6.507   5.915  0.3444 -0.8721  0.1114
  169SAPS  H10R19136   1.737   6.409   5.899 -3.6160  0.9883 -0.1707
  169SAPS  H10S19137   1.875   6.507   5.848  1.1672 -1.5123  1.1528
  169SAPS  C21119138   1.691   6.604   5.870 -0.0273  0.1422  0.4842
  169SAPS  H11R19139   1.597   6.602   5.928  0.0405  2.3911  0.7412
  169SAPS  C21219140   1.703   6.693   5.768  0.3801  0.8303  0.0085
  169SAPS  H12R19141   1.625   6.766   5.742  1.3573  1.6708 -0.6486
  169SAPS  C21319142   1.830   6.708   5.685 -0.5474  0.4345  0.2747
  169SAPS  H13R19143   1.795   6.689   5.581 -0.3305  0.2695  0.2304
  169SAPS  H13S19144   1.896   6.620   5.699 -3.5598 -1.9640  0.3969
  169SAPS  C21419145   1.896   6.836   5.706 -0.5618  0.0644 -0.4204
  169SAPS  H14R19146   1.929   6.858   5.808  2.0401 -0.7808 -1.0078
  169SAPS  C21519147   1.950   6.916   5.612  0.0424  0.0343 -0.1865
  169SAPS  H15R19148   1.983   7.011   5.657  2.1939 -0.4293 -0.6704
  169SAPS  C21619149   1.933   6.892   5.465  0.2414  0.4018  0.9749
  169SAPS  H16R19150   1.916   6.990   5.415 -1.3380  0.0134  0.7068
  169SAPS  H16S19151   1.853   6.823   5.433  1.1066 -0.0268 -0.3102
  169SAPS  C21719152   2.069   6.832   5.425 -0.6566 -0.4770 -0.4078
  169SAPS  H17R19153   2.084   6.729   5.465  2.5697  0.2559  0.5596
  169SAPS  H17S19154   2.155   6.894   5.458 -0.1974 -2.7121  3.2127
  169SAPS  C21819155   2.086   6.831   5.270  0.3557 -0.6633  0.0433
  169SAPS  H18R19156   2.026   6.908   5.218  1.6587 -0.6124 -1.4817
  169SAPS  H18S19157   2.038   6.737   5.235  1.0311 -1.4660  1.1734
  169SAPS  C21919158   2.226   6.828   5.228  0.4818 -0.1238 -0.0019
  169SAPS  H19R19159   2.279   6.740   5.269  1.9732  0.7427 -0.0102
  169SAPS  H19S19160   2.267   6.920   5.274 -0.1813  1.5612 -2.5526
  169SAPS  C22019161   2.249   6.834   5.072  0.4990 -0.5831 -0.3060
  169SAPS  H20R19162   2.186   6.757   5.022  0.2919 -1.0153  0.6094
  169SAPS  H20S19163   2.354   6.826   5.036 -0.0978 -2.0476 -1.8848
  169SAPS  H20T19164   2.214   6.933   5.037 -1.0673 -0.9517  0.1393
  169SAPS   C3319165   0.973   6.405   6.403  0.0293  0.6218 -0.8981
  169SAPS   H3X19166   0.982   6.460   6.499 -2.2998 -0.7526  0.1812
  169SAPS   H3Y19167   0.864   6.389   6.390 -0.8112  1.5676  3.4424
  169SAPS   C3419168   1.030   6.492   6.291 -0.2088  0.4057 -0.2540
  169SAPS   H4X19169   1.140   6.505   6.292 -0.0271 -0.9637 -0.4879
  169SAPS   H4Y19170   0.984   6.592   6.305  1.0405  0.9710 -0.0534
  169SAPS   C3519171   0.984   6.422   6.165  0.2957  0.2732 -0.0907
  169SAPS   H5X19172   0.875   6.432   6.145  0.4706 -0.5095 -1.5923
  169SAPS   H5Y19173   1.004   6.313   6.167  0.0495  0.2329  0.4607
  169SAPS   C3619174   1.052   6.464   6.035  0.2716 -0.2795 -1.0917
  169SAPS   H6X19175   1.157   6.437   6.056 -0.3148 -2.5484 -0.7917
  169SAPS   H6Y19176   1.038   6.574   6.022 -0.2518 -0.1859  0.1430
  169SAPS   C3719177   1.023   6.361   5.921  0.3683 -0.1496  0.2217
  169SAPS   H7X19178   0.916   6.362   5.892 -0.6300 -0.5969  3.5064
  169SAPS   H7Y19179   1.039   6.259   5.960 -2.6195 -1.0103 -0.5599
  169SAPS   C3819180   1.110   6.393   5.802  0.1612  0.0081 -0.1888
  169SAPS   H8X19181   1.214   6.390   5.841  0.2080 -0.5575 -0.3570
  169SAPS   H8Y19182   1.089   6.492   5.757 -0.5148  0.4209  0.9703
  169SAPS   C3919183   1.107   6.282   5.696 -0.4214  0.3844 -0.3338
  169SAPS   H9X19184   1.001   6.269   5.663 -1.2680 -0.9946  2.6144
  169SAPS   H9Y19185   1.140   6.183   5.736 -2.1571  0.2427  0.8884
  169SAPS  C31019186   1.204   6.309   5.577  0.3833  0.7118 -1.1969
  169SAPS  H10X19187   1.284   6.364   5.631  0.3267 -0.2375 -0.1028
  169SAPS  H10Y19188   1.168   6.382   5.502  3.6519  2.7070 -1.0195
  169SAPS  C31119189   1.241   6.176   5.508 -0.5539 -0.5185 -0.0062
  169SAPS  H11X19190   1.261   6.098   5.584 -0.2923  2.5675  3.3670
  169SAPS  H11Y19191   1.335   6.186   5.450  0.8527  0.7323  2.3220
  169SAPS  C31219192   1.124   6.118   5.427 -0.0320  0.7607 -0.8630
  169SAPS  H12X19193   1.087   6.198   5.360 -0.5156  0.1955 -1.2888
  169SAPS  H12Y19194   1.042   6.077   5.491 -1.3814 -0.7131 -3.3634
  169SAPS  C31319195   1.162   5.997   5.343 -0.2254  0.0822 -0.0445
  169SAPS  H13X19196   1.199   5.926   5.420  1.6179  2.3623  1.3063
  169SAPS  H13Y19197   1.246   6.024   5.276  1.9087 -0.2783  2.3269
  169SAPS  C31419198   1.046   5.928   5.268  0.3526 -0.5166  0.1326
  169SAPS  H14X19199   1.022   5.991   5.179  2.1367  1.9604  1.2906
  169SAPS  H14Y19200   0.952   5.931   5.327 -0.5883  1.2422 -1.3459
  169SAPS  C31519201   1.084   5.791   5.213 -0.4276  0.9216  0.8418
  169SAPS  H15X19202   1.008   5.747   5.145  0.7798 -1.1136  0.7249
  169SAPS  H15Y19203   1.087   5.715   5.294  0.9658 -1.4297 -1.2870
  169SAPS  C31619204   1.226   5.790   5.140  0.0447  0.2070 -0.8559
  169SAPS  H16X19205   1.263   5.689   5.114  0.6913  0.3726 -0.6103
  169SAPS  H16Y19206   1.301   5.827   5.214 -0.9185  1.4520 -0.4508
  169SAPS  C31719207   1.231   5.875   5.007  1.0243  0.3190 -0.3297
  169SAPS  H17X19208   1.339   5.882   4.982  1.1288  4.0470  0.4543
  169SAPS  H17Y19209   1.214   5.983   5.027 -1.5799  0.1039 -1.1113
  169SAPS  C31819210   1.142   5.832   4.889  0.6148 -0.2463 -0.2393
  169SAPS  H18X19211   1.035   5.823   4.919  0.4989  0.9875 -0.2390
  169SAPS  H18Y19212   1.182   5.740   4.841  3.2130  1.8233 -2.4071
  169SAPS  H18Z19213   1.136   5.917   4.817 -0.7628  0.8933  1.1608
  170SAPS     N19214   2.751   3.645   7.159 -0.0376  0.6972  0.1908
  170SAPS   HN119215   2.842   3.666   7.113  0.1128  0.0234  0.1752
  170SAPS   HN219216   2.728   3.742   7.187 -2.2655  0.6014 -1.0457
  170SAPS   HN319217   2.763   3.581   7.239  1.9957  0.9550  0.1479
  170SAPS   C1219218   2.657   3.587   7.058 -0.7443  0.0537 -0.4072
  170SAPS  H12A19219   2.717   3.510   7.012  1.0653  0.2852  1.4032
  170SAPS   C1319220   2.540   3.518   7.118 -0.3668 -0.1945  0.7087
  170SAPS  O13A19221   2.520   3.521   7.243 -0.7165  0.0594  0.1594
  170SAPS  O13B19222   2.457   3.468   7.039  0.0223 -0.4361  0.2848
  170SAPS   C1119223   2.609   3.690   6.963 -0.8606  0.3345  0.1684
  170SAPS  H11A19224   2.568   3.774   7.024 -0.3637 -0.5863  1.8399
  170SAPS  H11B19225   2.530   3.657   6.893  0.8628 -0.5514 -1.4138
  170SAPS     P19226   2.749   3.675   6.743 -0.1285  0.1776  0.5141
  170SAPS   O1319227   2.892   3.695   6.720  0.2565 -0.4989  1.1555
  170SAPS   O1419228   2.707   3.533   6.744 -0.7428  0.5382  0.0297
  170SAPS   O1219229   2.711   3.748   6.881  0.3862  0.0264  0.2801
  170SAPS   O1119230   2.671   3.754   6.632  0.2283 -0.6678  0.4207
  170SAPS    C119231   2.544   3.819   6.658  0.4480  0.9265 -0.3656
  170SAPS    HA19232   2.473   3.757   6.716 -0.2878  1.4850 -0.6425
  170SAPS    HB19233   2.561   3.908   6.722  1.0620 -0.2429  1.1629
  170SAPS    C219234   2.464   3.862   6.531 -0.3898 -0.4974  0.2816
  170SAPS    HS19235   2.359   3.872   6.565  0.2961  0.5609  2.2622
  170SAPS   O2119236   2.480   3.762   6.428 -0.4025  0.5374 -0.0834
  170SAPS   C2119237   2.383   3.756   6.332 -0.4538 -0.2115  0.0632
  170SAPS   O2219238   2.283   3.827   6.340 -0.4173  0.1324  0.1980
  170SAPS   C2219239   2.398   3.631   6.237 -0.4274 -0.1645 -0.7420
  170SAPS   H2R19240   2.504   3.631   6.206 -0.3415  4.8129 -1.1580
  170SAPS   H2S19241   2.380   3.540   6.299 -0.7504  0.4513  0.0918
  170SAPS    C319242   2.511   4.002   6.477 -0.1432 -0.1319 -0.7041
  170SAPS    HX19243   2.620   3.992   6.456 -0.4436  0.7182 -2.8999
  170SAPS    HY19244   2.498   4.071   6.563 -0.1708 -1.1792  0.1618
  170SAPS   O3119245   2.458   4.054   6.350  0.0313  0.4522 -0.7871
  170SAPS   C3119246   2.518   4.164   6.307 -0.2658 -0.4051 -0.5878
  170SAPS   O3219247   2.617   4.213   6.358 -0.3456  0.5143  0.0098
  170SAPS   C3219248   2.462   4.209   6.176 -0.4999 -1.0587 -0.7434
  170SAPS   H2X19249   2.352   4.220   6.184 -0.2544  1.0347  0.4657
  170SAPS   H2Y19250   2.481   4.127   6.104 -0.4621 -0.2113 -1.7211
  170SAPS   C2319251   2.306   3.637   6.115 -0.1381 -0.1214  0.0153
  170SAPS   H3R19252   2.328   3.726   6.051  0.0946 -0.3795 -0.2647
  170SAPS   H3S19253   2.200   3.643   6.147  0.2278  3.3732  0.9652
  170SAPS   C2419254   2.319   3.509   6.035  0.2427  0.0617 -0.0733
  170SAPS   H4R19255   2.327   3.427   6.110  1.1241 -0.2449 -0.4840
  170SAPS   H4S19256   2.421   3.509   5.991 -0.2567 -1.0794 -1.2827
  170SAPS   C2519257   2.216   3.471   5.932 -0.4652  0.4858 -0.2966
  170SAPS   H5R19258   2.124   3.426   5.973 -0.2229  0.4028  0.1617
  170SAPS   C2619259   2.236   3.475   5.800  0.2919 -0.2704 -0.3254
  170SAPS   H6R19260   2.153   3.449   5.733  0.6682  2.1472 -1.8494
  170SAPS   C2719261   2.364   3.529   5.729  0.8979  0.5751  0.2323
  170SAPS   H7R19262   2.418   3.596   5.799  2.2970  1.0234 -1.2125
  170SAPS   H7S19263   2.331   3.601   5.650  2.3499 -0.8889 -1.8051
  170SAPS   C2819264   2.449   3.412   5.679  0.0106 -0.0746 -0.4859
  170SAPS   H8R19265   2.496   3.361   5.765  2.5811  2.5732 -0.1754
  170SAPS   C2919266   2.444   3.355   5.559 -0.7317 -0.7245  0.0676
  170SAPS   H9R19267   2.505   3.269   5.528  0.0195  0.1123 -0.8933
  170SAPS  C21019268   2.373   3.416   5.437 -0.0267  0.5315 -0.2151
  170SAPS  H10R19269   2.446   3.436   5.356 -0.1747  0.2180 -0.4280
  170SAPS  H10S19270   2.315   3.508   5.457  1.1318  0.9694  1.3089
  170SAPS  C21119271   2.282   3.316   5.379  0.5529  0.5013  0.3665
  170SAPS  H11R19272   2.189   3.297   5.435  0.6916 -2.4799 -0.2761
  170SAPS  C21219273   2.307   3.241   5.270  0.4608  0.3098 -0.0957
  170SAPS  H12R19274   2.232   3.173   5.229  0.9920 -0.5463  0.3391
  170SAPS  C21319275   2.429   3.254   5.172  1.0153 -0.1348 -0.2945
  170SAPS  H13R19276   2.464   3.151   5.151 -1.5906 -1.1573 -0.0578
  170SAPS  H13S19277   2.515   3.315   5.208  1.3012 -0.6533 -0.0747
  170SAPS  C21419278   2.402   3.316   5.033  0.0354  0.2551 -0.4940
  170SAPS  H14R19279   2.465   3.398   4.996  0.3058 -0.5019 -1.7320
  170SAPS  C21519280   2.328   3.255   4.935 -0.0025 -0.1599 -0.7900
  170SAPS  H15R19281   2.328   3.304   4.837  2.0131 -0.0143 -0.7749
  170SAPS  C21619282   2.253   3.124   4.943  0.1001  0.6197 -0.3166
  170SAPS  H16R19283   2.268   3.074   5.042 -3.3763 -1.5396 -0.7034
  170SAPS  H16S19284   2.297   3.055   4.867  2.2311 -0.0841  1.4243
  170SAPS  C21719285   2.097   3.129   4.931 -0.5028  0.6055 -0.5390
  170SAPS  H17R19286   2.060   3.220   4.983 -2.6927 -0.2297 -0.5164
  170SAPS  H17S19287   2.047   3.048   4.989  2.1032 -0.8493 -0.1858
  170SAPS  C21819288   2.048   3.124   4.785 -0.0459  0.7041  0.3570
  170SAPS  H18R19289   2.062   3.026   4.735  0.9595  0.8065  0.4311
  170SAPS  H18S19290   2.102   3.197   4.722  1.4594  0.1453  0.9568
  170SAPS  C21919291   1.901   3.150   4.768  0.7871 -0.4610 -0.4013
  170SAPS  H19R19292   1.862   3.236   4.825  2.0020  0.7443 -1.3292
  170SAPS  H19S19293   1.844   3.060   4.801  0.6053 -0.1051  0.2682
  170SAPS  C22019294   1.877   3.191   4.618  0.8604 -0.7201 -0.4144
  170SAPS  H20R19295   1.771   3.206   4.586  1.1611  0.4851 -0.8751
  170SAPS  H20S19296   1.923   3.108   4.560  2.6477 -0.4254  0.5429
  170SAPS  H20T19297   1.933   3.284   4.599  0.4089 -0.2327  0.5624
  170SAPS   C3319298   2.543   4.332   6.128 -0.2719 -0.4827 -0.1871
  170SAPS   H3X19299   2.646   4.301   6.100 -0.6835 -0.8730 -1.3494
  170SAPS   H3Y19300   2.545   4.420   6.196  1.0632 -0.4336 -0.2691
  170SAPS   C3419301   2.490   4.387   6.000  0.2754 -0.4233 -0.3971
  170SAPS   H4X19302   2.551   4.467   5.954  2.0000 -2.1704 -1.3148
  170SAPS   H4Y19303   2.392   4.433   6.023  0.3913 -1.0362  1.4658
  170SAPS   C3519304   2.473   4.291   5.881 -0.0328 -0.5305  0.2181
  170SAPS   H5X19305   2.404   4.206   5.900  0.6424 -1.8705 -2.6881
  170SAPS   H5Y19306   2.578   4.256   5.868  0.1996  0.5518 -1.0214
  170SAPS   C3619307   2.413   4.352   5.755 -1.1139 -0.0076  0.9636
  170SAPS   H6X19308   2.328   4.419   5.782 -0.5946  1.5341 -0.9868
  170SAPS   H6Y19309   2.383   4.270   5.688  0.2195 -2.1117  2.8105
  170SAPS   C3719310   2.514   4.440   5.667  0.8279  0.1744  0.3679
  170SAPS   H7X19311   2.594   4.379   5.619  0.7518 -0.2162  0.7240
  170SAPS   H7Y19312   2.566   4.506   5.739  3.6043 -1.2920 -0.1474
  170SAPS   C3819313   2.460   4.530   5.558 -0.3319  0.0809 -0.3325
  170SAPS   H8X19314   2.513   4.626   5.541  0.7516 -0.4202  0.1834
  170SAPS   H8Y19315   2.364   4.567   5.600 -0.4419  1.0855 -1.4148
  170SAPS   C3919316   2.440   4.467   5.423 -0.0866  0.1273  0.2531
  170SAPS   H9X19317   2.350   4.509   5.373 -0.0201 -0.4004 -0.3265
  170SAPS   H9Y19318   2.402   4.363   5.438  1.3057 -0.8960 -2.5884
  170SAPS  C31019319   2.550   4.463   5.331 -0.2704 -0.1941 -0.2222
  170SAPS  H10X19320   2.631   4.400   5.372 -0.6596 -0.6545 -0.1567
  170SAPS  H10Y19321   2.579   4.569   5.315 -1.5836  0.4422  1.3332
  170SAPS  C31119322   2.516   4.406   5.200  0.4812  0.1423  0.1978
  170SAPS  H11X19323   2.419   4.450   5.169  0.4546 -0.6842 -0.9501
  170SAPS  H11Y19324   2.513   4.295   5.195  0.1982  0.2107 -2.5469
  170SAPS  C31219325   2.633   4.448   5.104  0.9483 -1.3132  0.8017
  170SAPS  H12X19326   2.720   4.385   5.132  2.6547 -0.4313 -2.1096
  170SAPS  H12Y19327   2.656   4.556   5.117 -2.6010 -0.2387 -0.6556
  170SAPS  C31319328   2.604   4.421   4.957  0.6531 -0.6697  0.2331
  170SAPS  H13X19329   2.579   4.315   4.935  0.0249 -0.3941 -0.4059
  170SAPS  H13Y19330   2.693   4.452   4.897  1.0702 -0.5579  0.8988
  170SAPS  C31419331   2.482   4.491   4.904  0.7383 -0.0778 -0.9466
  170SAPS  H14X19332   2.475   4.582   4.968  0.0778 -1.3556  0.9045
  170SAPS  H14Y19333   2.396   4.425   4.929  0.6652  1.3006  3.2446
  170SAPS  C31519334   2.489   4.516   4.756 -0.2724 -0.1003 -0.1403
  170SAPS  H15X19335   2.586   4.561   4.729 -1.3626  1.4155 -1.7287
  170SAPS  H15Y19336   2.418   4.598   4.731 -1.3989 -0.2672  2.2222
  170SAPS  C31619337   2.474   4.387   4.669 -0.2626  0.1348  0.6364
  170SAPS  H16X19338   2.366   4.359   4.670  0.0007 -1.0830 -1.1085
  170SAPS  H16Y19339   2.544   4.315   4.716  1.2260  1.0376 -0.1387
  170SAPS  C31719340   2.510   4.393   4.521  0.0293 -0.1847  0.7532
  170SAPS  H17X19341   2.607   4.447   4.515  0.4393 -1.0463 -0.9637
  170SAPS  H17Y19342   2.444   4.471   4.478 -0.5470 -0.7277  0.6323
  170SAPS  C31819343   2.503   4.261   4.446  0.8389 -0.0065 -0.3246
  170SAPS  H18X19344   2.573   4.269   4.360  0.9890 -0.7417 -0.2710
  170SAPS  H18Y19345   2.397   4.241   4.421  0.0144  1.1992  1.9165
  170SAPS  H18Z19346   2.534   4.172   4.504  0.3774  0.3081  0.4110
  171SAPS     N19347   0.699   6.121   7.006  0.4596  0.0767  0.1276
  171SAPS   HN119348   0.791   6.136   7.051  0.0315 -1.6449  1.7057
  171SAPS   HN219349   0.707   6.026   6.964  1.0873 -1.8482  4.1737
  171SAPS   HN319350   0.693   6.189   6.927  1.9870 -2.0364 -1.9525
  171SAPS   C1219351   0.595   6.128   7.112 -0.4004  0.0587  0.2574
  171SAPS  H12A19352   0.503   6.098   7.063  0.0178  0.5775 -0.8682
  171SAPS   C1319353   0.611   6.025   7.227 -0.1780 -0.9457  0.2837
  171SAPS  O13A19354   0.717   5.962   7.239 -0.5018  0.4800 -0.5052
  171SAPS  O13B19355   0.523   6.021   7.316  0.0292 -0.6093  0.2757
  171SAPS   C1119356   0.590   6.267   7.173  0.4127  0.7799  0.3639
  171SAPS  H11A19357   0.681   6.293   7.231 -0.1400 -1.5763  2.4278
  171SAPS  H11B19358   0.512   6.273   7.252 -2.5884 -4.2978 -1.7426
  171SAPS     P19359   0.607   6.507   7.072 -0.1671  0.1514 -0.3694
  171SAPS   O1319360   0.569   6.570   7.200 -0.1757  0.2018  0.0647
  171SAPS   O1419361   0.751   6.520   7.034  0.4629 -0.1940  0.0299
  171SAPS   O1219362   0.564   6.363   7.067 -0.2114  0.0253 -0.1697
  171SAPS   O1119363   0.514   6.565   6.958 -0.0031 -0.3330  0.4643
  171SAPS    C119364   0.381   6.526   6.922  0.0349  0.4394 -0.9754
  171SAPS    HA19365   0.345   6.431   6.966 -0.5166 -0.2863 -2.9138
  171SAPS    HB19366   0.311   6.612   6.930 -1.4492 -0.8614  0.4177
  171SAPS    C219367   0.398   6.491   6.779 -0.0769  0.4862  0.0903
  171SAPS    HS19368   0.474   6.411   6.775  0.0745  0.5694  1.1948
  171SAPS   O2119369   0.444   6.605   6.707  0.6828  0.1392  0.0415
  171SAPS   C2119370   0.545   6.584   6.625 -0.2469  0.1042 -0.1928
  171SAPS   O2219371   0.618   6.484   6.613  0.4921 -0.4256  0.1288
  171SAPS   C2219372   0.580   6.715   6.550 -0.1570 -0.1228  0.0737
  171SAPS   H2R19373   0.498   6.742   6.480  0.6856  3.2562  0.2473
  171SAPS   H2S19374   0.606   6.797   6.621  1.5460 -1.6803  1.3762
  171SAPS    C319375   0.266   6.439   6.704 -0.1981 -0.1547  0.6256
  171SAPS    HX19376   0.182   6.509   6.728 -0.4730 -0.2240 -0.1104
  171SAPS    HY19377   0.229   6.337   6.730  0.8501 -0.7490 -0.1737
  171SAPS   O3119378   0.293   6.439   6.557 -0.0462  0.0310 -0.1290
  171SAPS   C3119379   0.355   6.340   6.515  0.2894  0.2423 -0.6243
  171SAPS   O3219380   0.394   6.243   6.585  0.0157 -0.0873  0.2413
  171SAPS   C3219381   0.378   6.349   6.361  0.6054  0.2585  0.1220
  171SAPS   H2X19382   0.279   6.360   6.310  0.4687  0.8435  0.5097
  171SAPS   H2Y19383   0.418   6.250   6.333 -1.9178 -0.9073  0.3680
  171SAPS   C2319384   0.704   6.711   6.449  0.4037 -0.2400  0.9264
  171SAPS   H3R19385   0.694   6.633   6.370 -0.2155 -0.3322  1.0902
  171SAPS   H3S19386   0.788   6.672   6.511 -1.0278 -0.6294  2.7245
  171SAPS   C2419387   0.739   6.852   6.403  0.0287 -0.9529  0.2399
  171SAPS   H4R19388   0.847   6.866   6.383  0.4783  0.6429  3.2332
  171SAPS   H4S19389   0.728   6.914   6.495 -0.5068 -0.3767 -0.2009
  171SAPS   C2519390   0.666   6.922   6.289 -1.1010 -0.1367  0.7057
  171SAPS   H5R19391   0.566   6.949   6.324 -1.2781  0.0531  0.0735
  171SAPS   C2619392   0.717   6.947   6.161  0.3675  0.1790  0.2699
  171SAPS   H6R19393   0.650   6.995   6.087 -0.1046 -0.5460  0.2204
  171SAPS   C2719394   0.850   6.901   6.105 -0.2485  0.1941 -0.3021
  171SAPS   H7R19395   0.824   6.811   6.046 -1.1969 -0.6022  1.2938
  171SAPS   H7S19396   0.918   6.879   6.190 -1.5248 -0.1166  0.6694
  171SAPS   C2819397   0.931   6.994   6.015 -0.0738  0.1290  0.3865
  171SAPS   H8R19398   0.995   7.068   6.066  1.4310 -1.0478  0.2969
  171SAPS   C2919399   0.917   7.014   5.881  0.2891  0.2831  0.0199
  171SAPS   H9R19400   0.999   7.063   5.828  0.6813 -0.4631 -0.0804
  171SAPS  C21019401   0.829   6.937   5.782 -0.0224 -0.6268 -0.0597
  171SAPS  H10R19402   0.799   6.833   5.807  0.7479 -0.9876 -0.5757
  171SAPS  H10S19403   0.878   6.940   5.682 -0.3732 -0.3577 -0.2211
  171SAPS  C21119404   0.689   7.002   5.772 -0.8068  0.1199 -0.0540
  171SAPS  H11R19405   0.662   7.071   5.853 -0.0312  0.9066 -0.4442
  171SAPS  C21219406   0.600   6.978   5.675 -0.0016  0.3577  0.0145
  171SAPS  H12R19407   0.503   7.029   5.665 -0.7603 -1.2048 -1.0917
  171SAPS  C21319408   0.627   6.888   5.559 -0.2453  0.1627  0.6297
  171SAPS  H13R19409   0.528   6.862   5.515  0.0284 -0.8039  0.5692
  171SAPS  H13S19410   0.671   6.798   5.607 -0.8510 -0.0847  0.7341
  171SAPS  C21419411   0.722   6.942   5.451 -0.5601  0.3201  0.1302
  171SAPS  H14R19412   0.709   7.044   5.414  0.0563  0.4971  0.3847
  171SAPS  C21519413   0.817   6.872   5.394 -0.0205 -0.7889 -0.0368
  171SAPS  H15R19414   0.891   6.929   5.335 -2.3964  4.8399  1.7660
  171SAPS  C21619415   0.852   6.733   5.432 -0.1758  0.0210 -0.3911
  171SAPS  H16R19416   0.761   6.669   5.424  0.2203 -0.7069  0.7265
  171SAPS  H16S19417   0.879   6.737   5.539  0.2906  0.5240 -0.5238
  171SAPS  C21719418   0.971   6.682   5.356  0.3856  0.6851 -0.0290
  171SAPS  H17R19419   0.996   6.588   5.409 -2.7256  0.1406  0.6795
  171SAPS  H17S19420   1.053   6.757   5.361  0.7228  0.5057 -1.9953
  171SAPS  C21819421   0.949   6.657   5.204 -0.0529 -0.3132  0.0959
  171SAPS  H18R19422   0.912   6.754   5.166 -0.1898 -0.4741 -0.1863
  171SAPS  H18S19423   0.860   6.592   5.190  0.1989 -0.3722 -1.4051
  171SAPS  C21919424   1.069   6.610   5.126  0.7129  0.2548  0.3350
  171SAPS  H19R19425   1.156   6.676   5.148 -0.8790  2.8515 -0.7701
  171SAPS  H19S19426   1.039   6.610   5.019  2.0966 -0.5571 -0.0794
  171SAPS  C22019427   1.082   6.460   5.154 -1.0169 -0.6605  0.7033
  171SAPS  H20R19428   1.001   6.408   5.099  0.0351 -1.7301  0.1375
  171SAPS  H20S19429   1.062   6.439   5.261 -0.0623 -1.9412  0.6527
  171SAPS  H20T19430   1.183   6.421   5.129 -1.2140 -0.9890  0.4280
  171SAPS   C3319431   0.455   6.470   6.318  0.5975  0.8401 -1.2053
  171SAPS   H3X19432   0.558   6.457   6.356  0.3770 -0.5478 -1.0155
  171SAPS   H3Y19433   0.400   6.551   6.370 -0.3008 -0.2907 -0.3558
  171SAPS   C3419434   0.461   6.496   6.169  0.2779 -0.3189  0.1342
  171SAPS   H4X19435   0.362   6.521   6.127  0.7504 -0.4070 -1.0730
  171SAPS   H4Y19436   0.506   6.404   6.126  0.5538  0.1764 -0.6737
  171SAPS   C3519437   0.548   6.614   6.126  0.3184 -0.0261 -0.8996
  171SAPS   H5X19438   0.652   6.599   6.162  0.2734 -0.3777 -0.9095
  171SAPS   H5Y19439   0.511   6.708   6.172 -2.0644 -1.2636 -0.1186
  171SAPS   C3619440   0.562   6.642   5.972  0.1084 -0.1686  0.3625
  171SAPS   H6X19441   0.636   6.724   5.963  1.0300 -0.9522  0.5805
  171SAPS   H6Y19442   0.469   6.682   5.926  1.0847  3.4362  1.2079
  171SAPS   C3719443   0.605   6.512   5.897 -0.6759  0.1129 -0.7705
  171SAPS   H7X19444   0.511   6.454   5.895 -0.4817 -0.7742  3.7442
  171SAPS   H7Y19445   0.682   6.464   5.961 -1.8021 -0.4559  0.1827
  171SAPS   C3819446   0.664   6.531   5.753  0.5604 -0.5874 -0.4715
  171SAPS   H8X19447   0.768   6.569   5.761  0.3266 -0.0793  0.3221
  171SAPS   H8Y19448   0.607   6.607   5.696  1.4072  1.1180  0.8621
  171SAPS   C3919449   0.674   6.396   5.677 -0.4923 -0.0259  0.2162
  171SAPS   H9X19450   0.569   6.364   5.658 -0.3923 -0.2948  0.1100
  171SAPS   H9Y19451   0.728   6.323   5.740  1.0436  1.2179  0.4154
  171SAPS  C31019452   0.724   6.424   5.536 -0.0893 -0.3631 -0.0991
  171SAPS  H10X19453   0.827   6.465   5.539 -0.5020  0.7519 -0.8172
  171SAPS  H10Y19454   0.667   6.511   5.496  1.9270  0.5181 -1.2051
  171SAPS  C31119455   0.702   6.295   5.450  0.6373 -0.1724  0.3711
  171SAPS  H11X19456   0.595   6.265   5.453  0.4714 -0.0036 -1.9218
  171SAPS  H11Y19457   0.755   6.212   5.501  0.0409 -0.7804  0.0139
  171SAPS  C31219458   0.755   6.309   5.306  0.3064  0.1330 -0.3181
  171SAPS  H12X19459   0.866   6.301   5.307  0.4562  1.6248  1.9903
  171SAPS  H12Y19460   0.730   6.412   5.273 -0.6409  0.5006  1.4557
  171SAPS  C31319461   0.695   6.205   5.211 -0.2378 -1.2866 -0.4173
  171SAPS  H13X19462   0.584   6.208   5.211 -0.2165  1.7603 -0.4003
  171SAPS  H13Y19463   0.735   6.104   5.236  2.1071 -0.5528 -0.9589
  171SAPS  C31419464   0.731   6.221   5.061 -0.0150  0.0948  0.6889
  171SAPS  H14X19465   0.680   6.135   5.011 -1.0598 -0.6473  2.8795
  171SAPS  H14Y19466   0.842   6.218   5.055  0.0391  1.5680  0.5196
  171SAPS  C31519467   0.688   6.349   4.993  0.0207  0.1140  0.0790
  171SAPS  H15X19468   0.721   6.450   5.025  0.9200  0.1954 -1.0283
  171SAPS  H15Y19469   0.578   6.358   5.004  0.2750  1.5092  1.9185
  171SAPS  C31619470   0.721   6.341   4.839  0.2066 -0.3406  0.6171
  171SAPS  H16X19471   0.697   6.243   4.794 -0.3036  0.6921 -1.5331
  171SAPS  H16Y19472   0.832   6.342   4.832  0.2965  1.1321  1.7644
  171SAPS  C31719473   0.669   6.460   4.759 -0.2670 -0.0764 -0.3668
  171SAPS  H17X19474   0.706   6.555   4.804  0.8796 -0.1929 -1.0267
  171SAPS  H17Y19475   0.558   6.464   4.753 -0.3153 -2.0056 -1.7115
  171SAPS  C31819476   0.702   6.476   4.609 -0.4988 -0.4068  0.3184
  171SAPS  H18X19477   0.653   6.390   4.559  0.8502 -2.2173  1.9542
  171SAPS  H18Y19478   0.812   6.483   4.590 -1.0678  3.1996 -2.8331
  171SAPS  H18Z19479   0.659   6.565   4.558  2.6401  1.0834 -0.0317
  172SAPS     N19480   0.709   5.283   7.315  0.0747  0.4010  0.0775
  172SAPS   HN119481   0.681   5.292   7.414  3.7897  2.2466  1.1505
  172SAPS   HN219482   0.776   5.205   7.306  2.6981  2.6290 -1.4608
  172SAPS   HN319483   0.766   5.369   7.303 -1.9416  1.8772  0.5760
  172SAPS   C1219484   0.601   5.296   7.210  0.0729 -0.2582 -0.5716
  172SAPS  H12A19485   0.529   5.220   7.237  0.0311  0.5883  1.8768
  172SAPS   C1319486   0.537   5.435   7.204  0.1530 -0.3076 -0.1337
  172SAPS  O13A19487   0.592   5.535   7.254 -0.1246 -0.8648  0.3627
  172SAPS  O13B19488   0.428   5.446   7.142  0.7647  0.4244  0.1059
  172SAPS   C1119489   0.657   5.260   7.068 -0.0819 -0.2607  0.0989
  172SAPS  H11A19490   0.723   5.333   7.018  1.1559 -2.0175 -0.9743
  172SAPS  H11B19491   0.567   5.246   7.004  0.8712 -0.6675 -1.1946
  172SAPS     P19492   0.696   5.003   6.989 -0.0819 -0.1667  0.0875
  172SAPS   O1319493   0.757   4.891   7.057 -0.0877 -0.3580  0.0242
  172SAPS   O1419494   0.552   5.000   6.969 -0.1811  0.3674  0.1683
  172SAPS   O1219495   0.719   5.131   7.076 -0.0348 -0.0470  0.3388
  172SAPS   O1119496   0.773   5.050   6.858  0.2982  0.6840  0.3473
  172SAPS    C119497   0.913   5.059   6.849 -0.3686  0.1888  0.3295
  172SAPS    HA19498   0.956   5.130   6.923 -1.3476  0.9075  0.2173
  172SAPS    HB19499   0.955   4.962   6.883  0.1778  0.4957  0.5456
  172SAPS    C219500   0.957   5.103   6.709  0.2989 -0.0030  1.2206
  172SAPS    HS19501   0.893   5.184   6.667 -0.8911 -1.5787 -0.1252
  172SAPS   O2119502   0.940   4.990   6.629  0.1344 -0.0547  0.1410
  172SAPS   C2119503   0.893   5.000   6.502 -0.8946 -0.4514  0.1790
  172SAPS   O2219504   0.850   5.102   6.454 -0.0794 -0.1560 -0.5321
  172SAPS   C2219505   0.884   4.861   6.438 -0.0887 -0.1712 -0.4228
  172SAPS   H2R19506   0.984   4.813   6.435 -0.4871 -1.0205 -3.0819
  172SAPS   H2S19507   0.830   4.798   6.512  2.3480 -1.2888  0.5184
  172SAPS    C319508   1.110   5.141   6.699 -0.2198 -0.0650  0.2477
  172SAPS    HX19509   1.176   5.072   6.757  0.3826  0.1085 -0.2147
  172SAPS    HY19510   1.128   5.245   6.735 -1.6745  0.5222 -0.6673
  172SAPS   O3119511   1.164   5.141   6.565 -0.0688 -0.3434 -0.4298
  172SAPS   C3119512   1.175   5.253   6.500  0.1145  0.0095 -0.6170
  172SAPS   O3219513   1.164   5.366   6.544 -0.3155 -0.1889 -0.3779
  172SAPS   C3219514   1.203   5.217   6.354 -0.0998  0.2366 -0.0262
  172SAPS   H2X19515   1.278   5.135   6.352 -0.5375 -0.1646 -0.6205
  172SAPS   H2Y19516   1.245   5.311   6.314 -0.7390  0.1697 -0.8894
  172SAPS   C2319517   0.821   4.863   6.304 -0.3076  0.0423  0.2596
  172SAPS   H3R19518   0.885   4.918   6.231  0.5706  0.0525  1.0185
  172SAPS   H3S19519   0.720   4.907   6.311 -2.0137 -3.7118  2.0202
  172SAPS   C2419520   0.806   4.722   6.240  0.3832 -0.0181  0.3027
  172SAPS   H4R19521   0.741   4.739   6.151 -2.7972 -0.1389  2.4396
  172SAPS   H4S19522   0.748   4.677   6.324  0.2921  1.2992  0.9654
  172SAPS   C2519523   0.936   4.655   6.207  0.5453  0.4036 -0.6608
  172SAPS   H5R19524   0.981   4.612   6.298 -2.4382 -1.1052  0.2385
  172SAPS   C2619525   1.011   4.655   6.092  0.6834  0.4474  0.3644
  172SAPS   H6R19526   1.103   4.595   6.090 -0.0687 -0.7411  0.6030
  172SAPS   C2719527   0.967   4.716   5.965 -0.0623 -0.0896  0.3050
  172SAPS   H7R19528   0.870   4.770   5.972  0.2812  0.6523 -0.4752
  172SAPS   H7S19529   0.955   4.634   5.891 -2.4564 -0.2764  0.8182
  172SAPS   C2819530   1.060   4.822   5.918  0.5799 -0.2702 -0.6101
  172SAPS   H8R19531   1.043   4.911   5.980  0.3847 -0.0182 -1.0248
  172SAPS   C2919532   1.146   4.809   5.814 -0.3363 -0.4115  0.3398
  172SAPS   H9R19533   1.194   4.906   5.794 -3.1801  1.7341  2.8509
  172SAPS  C21019534   1.176   4.688   5.728 -0.3255 -0.1380 -0.6611
  172SAPS  H10R19535   1.077   4.640   5.719 -0.7164  0.3413  0.8104
  172SAPS  H10S19536   1.257   4.638   5.785  0.6684  2.6240  0.5615
  172SAPS  C21119537   1.238   4.718   5.585 -0.6072  0.2223 -0.2786
  172SAPS  H11R19538   1.192   4.809   5.543 -0.7463  0.7118  0.9032
  172SAPS  C21219539   1.309   4.630   5.514  0.0741 -0.3639  0.5541
  172SAPS  H12R19540   1.348   4.656   5.414 -1.1094 -1.7935 -0.3183
  172SAPS  C21319541   1.354   4.499   5.563 -0.1262  0.8387 -0.7359
  172SAPS  H13R19542   1.310   4.419   5.499 -1.6379  2.1312 -1.3667
  172SAPS  H13S19543   1.307   4.480   5.662  1.0497  1.7895  0.0299
  172SAPS  C21419544   1.503   4.497   5.589 -0.2301 -0.0226 -0.3108
  172SAPS  H14R19545   1.538   4.516   5.691  0.0359 -1.5872 -0.0844
  172SAPS  C21519546   1.597   4.469   5.499  0.0817 -0.6276  1.1458
  172SAPS  H15R19547   1.701   4.465   5.535  0.2730  1.8447  1.0686
  172SAPS  C21619548   1.577   4.435   5.351  0.0451 -0.0719 -0.8405
  172SAPS  H16R19549   1.470   4.426   5.321  0.6082 -0.5370 -2.8849
  172SAPS  H16S19550   1.622   4.335   5.334  1.8640  0.6543 -0.4914
  172SAPS  C21719551   1.637   4.541   5.256 -0.0963  0.8322  0.3470
  172SAPS  H17R19552   1.748   4.544   5.261 -0.0803 -0.1612  0.9168
  172SAPS  H17S19553   1.595   4.641   5.279 -1.2631  0.6498 -0.8766
  172SAPS  C21819554   1.600   4.502   5.105 -0.3069 -0.6487  0.2044
  172SAPS  H18R19555   1.493   4.484   5.086 -0.3851 -0.7238  0.7098
  172SAPS  H18S19556   1.643   4.400   5.103 -1.3578 -1.0881 -0.6172
  172SAPS  C21919557   1.672   4.583   5.001 -0.0890  0.0124  0.0411
  172SAPS  H19R19558   1.782   4.580   5.016 -0.1825  2.1696  1.7826
  172SAPS  H19S19559   1.644   4.690   5.016  4.0001  0.7889  5.6967
  172SAPS  C22019560   1.638   4.538   4.859  0.1939  0.5903  0.6102
  172SAPS  H20R19561   1.703   4.453   4.830 -0.6105 -0.1735  0.9670
  172SAPS  H20S19562   1.660   4.622   4.791  0.7859  1.0397  1.3331
  172SAPS  H20T19563   1.530   4.514   4.842  0.1222  0.5855  1.0429
  172SAPS   C3319564   1.072   5.199   6.279 -0.5015 -0.1788 -0.1738
  172SAPS   H3X19565   0.991   5.271   6.301 -1.0005 -0.8323  0.1481
  172SAPS   H3Y19566   1.029   5.102   6.313 -0.7548  0.0212  0.0834
  172SAPS   C3419567   1.093   5.174   6.131  0.3639  0.2879  0.1991
  172SAPS   H4X19568   1.132   5.070   6.119  0.2407  0.4856 -2.4582
  172SAPS   H4Y19569   1.162   5.253   6.095 -0.2785  1.1501  0.8407
  172SAPS   C3519570   0.956   5.177   6.063 -0.3725 -0.6257  0.1974
  172SAPS   H5X19571   0.892   5.261   6.097 -1.0205 -1.5973  1.4476
  172SAPS   H5Y19572   0.907   5.083   6.097  0.2259 -0.6455  1.0390
  172SAPS   C3619573   0.964   5.176   5.908  0.1763 -0.6566  0.2996
  172SAPS   H6X19574   1.047   5.109   5.876  1.5398  0.5366  1.2170
  172SAPS   H6Y19575   0.983   5.276   5.864  0.2538 -0.9935 -0.4434
  172SAPS   C3719576   0.840   5.120   5.842 -0.4262 -0.0505 -0.0340
  172SAPS   H7X19577   0.755   5.185   5.873  0.4578  1.0935  0.0690
  172SAPS   H7Y19578   0.820   5.015   5.873  0.2597  0.2688  1.6173
  172SAPS   C3819579   0.840   5.122   5.686  0.6381  0.3804  0.0199
  172SAPS   H8X19580   0.906   5.046   5.639 -0.0769 -0.7306  0.7288
  172SAPS   H8Y19581   0.861   5.225   5.651 -0.9047 -0.1569 -2.7613
  172SAPS   C3919582   0.692   5.088   5.644  0.7513 -0.0368  0.2054
  172SAPS   H9X19583   0.626   5.164   5.691 -0.2241  0.5861 -2.0389
  172SAPS   H9Y19584   0.660   4.989   5.684 -1.2768  0.6819  0.5065
  172SAPS  C31019585   0.665   5.097   5.494  0.1642  0.6579  0.4222
  172SAPS  H10X19586   0.738   5.044   5.430  1.6279  1.0629  1.6959
  172SAPS  H10Y19587   0.669   5.203   5.461  1.3152  0.6875  0.6467
  172SAPS  C31119588   0.523   5.057   5.460 -0.0369 -0.8775  0.0593
  172SAPS  H11X19589   0.442   5.119   5.503  0.0304  0.5903 -1.7821
  172SAPS  H11Y19590   0.507   4.952   5.490  1.6138 -1.2495 -0.2336
  172SAPS  C31219591   0.494   5.057   5.302  0.9760  1.1287 -0.3141
  172SAPS  H12X19592   0.402   4.998   5.282  1.5578  0.1860 -0.2772
  172SAPS  H12Y19593   0.572   4.990   5.261 -0.4511 -0.7296 -0.1126
  172SAPS  C31319594   0.489   5.190   5.230 -0.3946  0.2415  0.0056
  172SAPS  H13X19595   0.573   5.257   5.261 -0.1925  0.4465 -0.9551
  172SAPS  H13Y19596   0.397   5.240   5.269 -0.9114 -1.2453  0.7595
  172SAPS  C31419597   0.492   5.185   5.076 -0.3150 -0.0173 -0.0575
  172SAPS  H14X19598   0.589   5.141   5.046  1.1462  2.2146  1.1045
  172SAPS  H14Y19599   0.502   5.285   5.027 -0.6169  0.7242  1.3201
  172SAPS  C31519600   0.355   5.116   5.030 -0.7188  0.7852 -0.9050
  172SAPS  H15X19601   0.275   5.173   5.083  0.6841  0.5234  1.6421
  172SAPS  H15Y19602   0.357   5.014   5.075 -0.5017 -0.0403 -2.7122
  172SAPS  C31619603   0.331   5.109   4.878 -0.3908  0.4049 -0.0281
  172SAPS  H16X19604   0.225   5.086   4.857 -0.5459  0.8381  0.2502
  172SAPS  H16Y19605   0.339   5.208   4.829  1.1107  0.1208 -0.4232
  172SAPS  C31719606   0.414   5.010   4.804  0.0341 -0.5037 -0.0500
  172SAPS  H17X19607   0.370   4.910   4.824  0.2380 -0.5527  0.1532
  172SAPS  H17Y19608   0.516   5.015   4.847  0.3233 -0.2571 -0.7545
  172SAPS  C31819609   0.414   5.033   4.649  0.0661 -1.0481 -0.1883
  172SAPS  H18X19610   0.496   4.975   4.601 -1.6317 -2.8073 -1.1043
  172SAPS  H18Y19611   0.441   5.140   4.638 -0.2287 -0.7222  1.7869
  172SAPS  H18Z19612   0.319   5.011   4.596  0.4563 -4.7339  0.3772
  173SAPS     N19613   1.799   5.750   2.308  0.5218  0.1771 -0.1171
  173SAPS   HN119614   1.745   5.754   2.397 -0.9321 -2.6593 -0.7595
  173SAPS   HN219615   1.752   5.812   2.239 -1.9649 -0.4123  0.9370
  173SAPS   HN319616   1.783   5.653   2.274 -1.1049 -0.8115  3.0951
  173SAPS   C1219617   1.942   5.785   2.329 -0.7156  0.1009 -0.4803
  173SAPS  H12A19618   1.978   5.713   2.401 -2.3228 -0.3003 -0.0298
  173SAPS   C1319619   2.035   5.789   2.208  0.7258  0.4580 -0.2672
  173SAPS  O13A19620   1.988   5.784   2.095 -0.0901  0.2671  0.2168
  173SAPS  O13B19621   2.154   5.813   2.235 -0.5464  0.3085  0.3477
  173SAPS   C1119622   1.950   5.918   2.410 -0.1919  0.1877  0.2665
  173SAPS  H11A19623   2.058   5.929   2.434 -0.3734  1.2534  0.6598
  173SAPS  H11B19624   1.903   5.900   2.509 -1.4652 -3.2933 -0.8074
  173SAPS     P19625   1.765   6.118   2.386 -0.2366 -0.0505 -0.0128
  173SAPS   O1319626   1.825   6.233   2.460  0.4181 -0.3427  0.0294
  173SAPS   O1419627   1.685   6.154   2.268  0.0650 -0.0384  0.0221
  173SAPS   O1219628   1.893   6.031   2.346 -0.2224  0.1580 -0.2507
  173SAPS   O1119629   1.678   6.031   2.491  0.3116 -0.0247 -0.4152
  173SAPS    C119630   1.619   6.099   2.603  0.1588 -0.1345 -0.1839
  173SAPS    HA19631   1.595   6.205   2.583 -1.5746  0.0859  2.5088
  173SAPS    HB19632   1.523   6.054   2.636 -0.0005  0.8197  0.6979
  173SAPS    C219633   1.717   6.099   2.723 -1.1789 -0.4576 -0.9169
  173SAPS    HS19634   1.808   6.159   2.700 -1.4672  1.5621  2.4871
  173SAPS   O2119635   1.751   5.962   2.761 -0.1344 -0.4562 -0.1870
  173SAPS   C2119636   1.868   5.938   2.808 -0.0707  0.3830 -0.3121
  173SAPS   O2219637   1.961   6.015   2.830  0.0373  0.6029 -0.1426
  173SAPS   C2219638   1.886   5.788   2.833  0.1965 -0.4601 -0.1841
  173SAPS   H2R19639   1.808   5.732   2.776  0.3163 -1.0247  0.1903
  173SAPS   H2S19640   1.982   5.753   2.791  0.1481 -1.1676  0.2715
  173SAPS    C319641   1.637   6.162   2.841 -0.6733  0.7236  0.9552
  173SAPS    HX19642   1.545   6.100   2.845 -1.2210  1.3268 -1.0628
  173SAPS    HY19643   1.594   6.264   2.826  0.9159  1.3604  0.5871
  173SAPS   O3119644   1.697   6.152   2.965 -0.1641  0.5036 -0.1200
  173SAPS   C3119645   1.802   6.227   2.984  0.3643  0.8804 -0.2679
  173SAPS   O3219646   1.829   6.323   2.913  0.1187 -0.1475 -1.1131
  173SAPS   C3219647   1.868   6.189   3.116  0.6355 -0.4500  0.8041
  173SAPS   H2X19648   1.964   6.141   3.090 -0.0144 -1.1126 -0.4116
  173SAPS   H2Y19649   1.814   6.109   3.171 -0.1536 -0.6769 -0.2722
  173SAPS   C2319650   1.879   5.769   2.983  0.1278  0.0094 -0.1912
  173SAPS   H3R19651   1.773   5.791   3.008  0.5336  0.3946  1.2964
  173SAPS   H3S19652   1.942   5.843   3.037 -0.0287  0.4356 -0.5857
  173SAPS   C2419653   1.910   5.623   3.039  0.3825 -0.4544  0.2999
  173SAPS   H4R19654   1.920   5.633   3.149  0.8925 -1.5369  0.3599
  173SAPS   H4S19655   2.008   5.598   2.992  0.6832  2.6388 -1.0114
  173SAPS   C2519656   1.796   5.533   2.993 -0.0835  0.2408  0.5154
  173SAPS   H5R19657   1.786   5.545   2.884  3.4471  0.0495  0.0764
  173SAPS   C2619658   1.728   5.446   3.068  0.1106  0.7196 -0.7776
  173SAPS   H6R19659   1.657   5.381   3.015  0.2905 -0.3070  0.2095
  173SAPS   C2719660   1.749   5.435   3.215 -0.2104  0.2408 -0.3613
  173SAPS   H7R19661   1.858   5.420   3.229 -0.2999  0.2130  0.3164
  173SAPS   H7S19662   1.701   5.340   3.248 -1.1620  1.0406  0.6134
  173SAPS   C2819663   1.705   5.546   3.310  0.4680 -0.2295 -0.0236
  173SAPS   H8R19664   1.620   5.607   3.278  1.0882  1.1808  0.9130
  173SAPS   C2919665   1.754   5.566   3.437 -0.4369 -0.0300 -0.4617
  173SAPS   H9R19666   1.714   5.655   3.487 -0.6970 -0.4498  0.0788
  173SAPS  C21019667   1.864   5.484   3.506  0.3804 -0.1955  0.3528
  173SAPS  H10R19668   1.924   5.554   3.567  0.2240 -0.9627  1.4014
  173SAPS  H10S19669   1.939   5.449   3.432 -0.6426 -1.6104 -0.0695
  173SAPS  C21119670   1.819   5.363   3.581  0.3863  1.0507  0.5070
  173SAPS  H11R19671   1.740   5.306   3.529  0.1700  0.1971  1.7158
  173SAPS  C21219672   1.857   5.315   3.703 -0.0202 -0.2639 -0.4192
  173SAPS  H12R19673   1.799   5.231   3.744  0.1876 -0.4994 -0.6014
  173SAPS  C21319674   1.954   5.373   3.787 -0.1832 -0.2112 -0.1460
  173SAPS  H13R19675   2.009   5.458   3.742 -1.4854  0.8163  0.1479
  173SAPS  H13S19676   2.023   5.295   3.825 -0.8806 -0.8249 -0.1226
  173SAPS  C21419677   1.885   5.444   3.900 -0.1201 -0.2166  0.6592
  173SAPS  H14R19678   1.806   5.511   3.863  0.3626  0.6099  1.0880
  173SAPS  C21519679   1.865   5.411   4.024  0.1911 -0.1611 -0.3219
  173SAPS  H15R19680   1.811   5.484   4.087 -0.8832 -2.1643  1.2106
  173SAPS  C21619681   1.948   5.309   4.105 -0.4733 -0.7132  0.0735
  173SAPS  H16R19682   2.023   5.259   4.040 -0.8110 -2.4442  0.9519
  173SAPS  H16S19683   1.872   5.236   4.142  0.9644 -0.7891  3.2080
  173SAPS  C21719684   2.022   5.380   4.223  0.7940  0.0269  0.8240
  173SAPS  H17R19685   2.064   5.307   4.295  0.4252 -0.7596  0.2544
  173SAPS  H17S19686   1.955   5.450   4.277  0.0092 -1.9205  2.4808
  173SAPS  C21819687   2.135   5.463   4.170  0.1313  0.2522 -0.2664
  173SAPS  H18R19688   2.099   5.542   4.100 -0.9568 -0.0367 -0.0448
  173SAPS  H18S19689   2.206   5.395   4.119 -0.0031 -0.9265  1.0685
  173SAPS  C21919690   2.215   5.536   4.280  0.0143 -0.3236 -0.6879
  173SAPS  H19R19691   2.314   5.572   4.245 -1.1741  3.4019 -0.5845
  173SAPS  H19S19692   2.228   5.466   4.365 -0.7904 -1.3621 -1.3796
  173SAPS  C22019693   2.133   5.653   4.343  0.6647 -0.0678  0.3110
  173SAPS  H20R19694   2.107   5.730   4.267 -0.9167 -0.5095  0.3554
  173SAPS  H20S19695   2.192   5.693   4.428  1.2631 -1.6358  0.6789
  173SAPS  H20T19696   2.034   5.622   4.383 -0.4128  1.2633 -1.2091
  173SAPS   C3319697   1.888   6.307   3.211 -0.4811 -0.6801  0.2321
  173SAPS   H3X19698   1.964   6.381   3.177 -1.5772  0.3993  0.0619
  173SAPS   H3Y19699   1.929   6.250   3.297  0.0809  0.6758  0.8921
  173SAPS   C3419700   1.756   6.363   3.253  0.7370 -0.1244  0.0802
  173SAPS   H4X19701   1.692   6.281   3.292  2.7994 -3.6332 -3.2695
  173SAPS   H4Y19702   1.704   6.410   3.167  0.5886  0.3320  0.4099
  173SAPS   C3519703   1.764   6.479   3.351 -0.1292 -0.4482 -0.6708
  173SAPS   H5X19704   1.812   6.577   3.329  0.4250 -0.0167  2.0164
  173SAPS   H5Y19705   1.831   6.444   3.433 -0.4677 -1.0037 -0.6226
  173SAPS   C3619706   1.622   6.519   3.399 -0.6379  0.0721  0.2233
  173SAPS   H6X19707   1.553   6.434   3.417 -2.0014  1.1757  0.3559
  173SAPS   H6Y19708   1.578   6.594   3.330 -0.6656  0.4200  0.6251
  173SAPS   C3719709   1.632   6.576   3.545  0.2007 -0.4805 -0.0153
  173SAPS   H7X19710   1.704   6.660   3.558 -0.6429  0.4716 -1.2216
  173SAPS   H7Y19711   1.671   6.494   3.609  0.3445 -1.7569 -1.6647
  173SAPS   C3819712   1.490   6.608   3.591 -0.0317 -0.2972  0.3652
  173SAPS   H8X19713   1.426   6.518   3.600 -1.8645  1.0254  0.9971
  173SAPS   H8Y19714   1.440   6.685   3.528 -0.3083  0.9102  2.0064
  173SAPS   C3919715   1.486   6.671   3.730  0.2355 -0.0301 -0.6887
  173SAPS   H9X19716   1.560   6.753   3.739 -0.1112  0.1968  0.2565
  173SAPS   H9Y19717   1.514   6.597   3.809  0.7426  0.8291 -0.0435
  173SAPS  C31019718   1.347   6.729   3.779  0.0697 -0.2472  0.6847
  173SAPS  H10X19719   1.265   6.664   3.744 -0.3697 -0.4542  2.0562
  173SAPS  H10Y19720   1.338   6.825   3.724  0.6135  0.2266  1.4109
  173SAPS  C31119721   1.343   6.750   3.929 -0.1275  0.4337 -0.4754
  173SAPS  H11X19722   1.419   6.825   3.958 -0.9837  0.1996  2.7958
  173SAPS  H11Y19723   1.380   6.653   3.970  3.4993  1.7185 -0.3482
  173SAPS  C31219724   1.208   6.791   3.986  0.7028  0.7220 -0.1597
  173SAPS  H12X19725   1.136   6.709   3.966  1.2437  0.5942 -1.7211
  173SAPS  H12Y19726   1.172   6.887   3.943  0.5587  0.5830 -0.3495
  173SAPS  C31319727   1.206   6.802   4.143 -0.0491  1.1065 -0.1182
  173SAPS  H13X19728   1.113   6.850   4.181 -0.4890  0.0505  0.1766
  173SAPS  H13Y19729   1.280   6.880   4.171  0.6590  1.1275 -1.9078
  173SAPS  C31419730   1.235   6.668   4.221  0.0184 -0.8054  0.1192
  173SAPS  H14X19731   1.338   6.641   4.187  0.6677  0.8825  0.6028
  173SAPS  H14Y19732   1.162   6.592   4.187  0.2174 -1.0153  0.1636
  173SAPS  C31519733   1.255   6.695   4.373  0.1780 -0.0781  0.2493
  173SAPS  H15X19734   1.169   6.760   4.403 -0.1771 -1.3107  2.1216
  173SAPS  H15Y19735   1.352   6.743   4.396  0.5490 -1.0764  0.7946
  173SAPS  C31619736   1.242   6.578   4.465  0.2242  0.1618 -0.5645
  173SAPS  H16X19737   1.325   6.506   4.450 -0.6834 -1.1718  0.4976
  173SAPS  H16Y19738   1.152   6.515   4.447  0.4283 -0.7201  1.2882
  173SAPS  C31719739   1.243   6.615   4.614 -0.0292  0.3469  0.7571
  173SAPS  H17X19740   1.164   6.692   4.628 -0.4619  0.6948 -2.8232
  173SAPS  H17Y19741   1.335   6.675   4.631 -0.0997  0.9298 -0.7652
  173SAPS  C31819742   1.224   6.494   4.696 -0.5080 -0.5929  0.2654
  173SAPS  H18X19743   1.264   6.497   4.799  0.7120 -2.1300 -0.1213
  173SAPS  H18Y19744   1.285   6.407   4.663 -1.4771 -1.1389 -0.1195
  173SAPS  H18Z19745   1.124   6.449   4.676  0.8406 -2.3233 -3.4763
  174SAPS     N19746   6.424   3.653   2.356 -0.3231 -0.6285 -0.4778
  174SAPS   HN119747   6.379   3.564   2.328  1.1851 -0.9935 -1.9176
  174SAPS   HN219748   6.401   3.679   2.454 -2.5184  0.3082 -1.1938
  174SAPS   HN319749   6.398   3.722   2.282 -0.3790 -0.5672 -0.4016
  174SAPS   C1219750   6.570   3.634   2.338  0.0572 -0.1219  0.4647
  174SAPS  H12A19751   6.610   3.562   2.407  0.5832  0.1839  0.4926
  174SAPS   C1319752   6.604   3.574   2.194 -0.1432 -0.2672  0.2066
  174SAPS  O13A19753   6.509   3.600   2.108 -0.1991 -0.0976  0.2054
  174SAPS  O13B19754   6.722   3.546   2.167  0.0480 -0.4839  0.0902
  174SAPS   C1119755   6.640   3.775   2.348  0.0647 -0.1314 -0.2793
  174SAPS  H11A19756   6.597   3.843   2.271  3.9499  2.3178 -0.5664
  174SAPS  H11B19757   6.747   3.769   2.320  0.1556  0.8542 -0.1799
  174SAPS     P19758   6.570   3.972   2.506 -0.2780 -0.0377 -0.2114
  174SAPS   O1319759   6.652   4.070   2.430  0.1303 -0.1621  0.2413
  174SAPS   O1419760   6.426   3.970   2.479  0.4840 -0.8531 -0.3585
  174SAPS   O1219761   6.636   3.829   2.482  1.3448 -0.4071  0.1867
  174SAPS   O1119762   6.598   3.991   2.660 -0.1319  0.3603  0.8782
  174SAPS    C119763   6.570   3.880   2.749  0.7775 -0.1660 -0.3955
  174SAPS    HA19764   6.464   3.855   2.770  1.3650 -1.6902  0.9450
  174SAPS    HB19765   6.611   3.786   2.707  0.2490 -1.1539  1.2161
  174SAPS    C219766   6.652   3.900   2.878  1.2280 -0.5948 -0.6180
  174SAPS    HS19767   6.658   3.806   2.938 -1.4964 -1.2809 -1.2819
  174SAPS   O2119768   6.591   4.000   2.967  0.0637  0.0071  0.7591
  174SAPS   C2119769   6.482   3.967   3.032  0.1324  0.0694  0.0588
  174SAPS   O2219770   6.428   3.860   3.032  0.2370 -0.1163  0.7904
  174SAPS   C2219771   6.423   4.094   3.108  0.2028  0.3159  0.5868
  174SAPS   H2R19772   6.489   4.182   3.088 -0.0129  0.1542 -0.9553
  174SAPS   H2S19773   6.332   4.125   3.053 -0.0330  1.0285  1.3570
  174SAPS    C319774   6.801   3.952   2.859  0.6489  0.5247 -0.1148
  174SAPS    HX19775   6.793   4.060   2.833  1.7603  0.3588 -1.2435
  174SAPS    HY19776   6.840   3.909   2.764  0.1178 -1.2309  0.4137
  174SAPS   O3119777   6.881   3.916   2.970 -0.4578 -0.1722  0.1086
  174SAPS   C3119778   7.014   3.886   2.938  0.3287  0.6861 -0.3492
  174SAPS   O3219779   7.054   3.900   2.824  0.1434 -0.3390  0.0728
  174SAPS   C3219780   7.076   3.837   3.063  0.6981  0.0369  0.0629
  174SAPS   H2X19781   7.170   3.787   3.032 -0.4668  0.2285 -4.4399
  174SAPS   H2Y19782   7.010   3.758   3.105 -0.1449 -0.5636 -2.2351
  174SAPS   C2319783   6.398   4.064   3.261  0.5517  0.0411  0.2026
  174SAPS   H3R19784   6.492   4.082   3.318  0.4358  2.5527 -0.2808
  174SAPS   H3S19785   6.371   3.956   3.262  1.0401 -0.0830  1.2422
  174SAPS   C2419786   6.293   4.150   3.327  0.3454 -0.2574 -0.2328
  174SAPS   H4R19787   6.328   4.254   3.312 -0.1300 -0.3996 -2.7821
  174SAPS   H4S19788   6.302   4.138   3.437  1.1574 -0.5608 -0.3273
  174SAPS   C2519789   6.148   4.124   3.284  0.1483 -0.6264 -0.4265
  174SAPS   H5R19790   6.137   4.130   3.175  3.5214  0.8356 -0.8108
  174SAPS   C2619791   6.034   4.104   3.355  0.1804 -0.1120 -0.2549
  174SAPS   H6R19792   5.938   4.102   3.302  0.1085  0.7843 -0.1728
  174SAPS   C2719793   6.034   4.103   3.506 -0.4301 -0.0521 -0.0713
  174SAPS   H7R19794   6.132   4.064   3.540 -1.2790 -2.2642 -0.0075
  174SAPS   H7S19795   5.963   4.030   3.550 -1.1234  0.2992 -0.5788
  174SAPS   C2819796   6.017   4.239   3.567 -0.3091  0.6108 -0.1148
  174SAPS   H8R19797   5.984   4.324   3.505  0.7151  0.1121 -1.3848
  174SAPS   C2919798   6.029   4.269   3.698 -0.0954  0.3021 -0.2048
  174SAPS   H9R19799   6.045   4.373   3.731  0.8949  0.9020 -2.3604
  174SAPS  C21019800   6.048   4.165   3.810 -0.3119  0.5782  0.4490
  174SAPS  H10R19801   6.156   4.144   3.824 -0.7724 -1.6848  0.9328
  174SAPS  H10S19802   6.004   4.068   3.779  0.0487  0.3809  0.5528
  174SAPS  C21119803   5.976   4.202   3.935 -0.4195  0.1577 -0.1211
  174SAPS  H11R19804   5.866   4.199   3.931 -0.5308 -0.4401  2.0389
  174SAPS  C21219805   6.044   4.238   4.050 -0.0997  0.4338 -0.3570
  174SAPS  H12R19806   5.997   4.275   4.142  1.8430  1.2652  0.3538
  174SAPS  C21319807   6.196   4.244   4.064  0.0441  0.2122 -0.2949
  174SAPS  H13R19808   6.245   4.185   3.983 -1.3908 -0.2869 -0.8288
  174SAPS  H13S19809   6.232   4.192   4.155  0.2499 -0.0691 -0.5327
  174SAPS  C21419810   6.238   4.393   4.092 -0.2425 -0.4084 -0.3337
  174SAPS  H14R19811   6.278   4.455   4.010 -1.2622 -0.4241 -0.8663
  174SAPS  C21519812   6.242   4.451   4.213  0.3181  0.4641 -0.2123
  174SAPS  H15R19813   6.247   4.561   4.221 -1.0784  0.4868  0.7520
  174SAPS  C21619814   6.195   4.388   4.339 -0.1858 -0.4896  0.2214
  174SAPS  H16R19815   6.290   4.379   4.395  0.0280 -0.1567 -0.0875
  174SAPS  H16S19816   6.148   4.287   4.340 -1.6385  0.0785 -2.4119
  174SAPS  C21719817   6.110   4.477   4.434  0.4649  0.5433  0.7102
  174SAPS  H17R19818   6.013   4.471   4.380  0.3766  0.5029  0.8751
  174SAPS  H17S19819   6.141   4.582   4.452  0.5813  1.1747 -2.4761
  174SAPS  C21819820   6.088   4.404   4.564 -0.3811 -0.5925 -0.3732
  174SAPS  H18R19821   6.185   4.400   4.619  0.1349  3.6580 -0.6316
  174SAPS  H18S19822   6.051   4.302   4.541  2.0172 -1.2624 -1.6352
  174SAPS  C21919823   5.995   4.485   4.655 -0.0407  0.8219 -0.5686
  174SAPS  H19R19824   5.910   4.542   4.611  0.4379  1.2702 -0.9348
  174SAPS  H19S19825   6.062   4.565   4.692  3.6302 -2.3243  0.1663
  174SAPS  C22019826   5.954   4.387   4.774 -0.2745 -0.3006 -0.7955
  174SAPS  H20R19827   6.046   4.375   4.834  1.0642  2.9586 -1.9727
  174SAPS  H20S19828   5.916   4.290   4.735 -1.0510  0.0126 -0.8327
  174SAPS  H20T19829   5.874   4.424   4.842  0.3562 -0.1819 -0.1030
  174SAPS   C3319830   7.100   3.958   3.159  0.0725 -0.2721 -0.0021
  174SAPS   H3X19831   7.111   3.897   3.251  2.0852 -0.3498 -0.2341
  174SAPS   H3Y19832   7.016   4.029   3.175 -1.9638 -2.4642 -0.3707
  174SAPS   C3419833   7.232   4.035   3.133  0.0824 -0.3281  0.4838
  174SAPS   H4X19834   7.233   4.122   3.203 -0.9872 -0.4865  0.7209
  174SAPS   H4Y19835   7.231   4.072   3.028 -1.0621 -2.6400 -0.3787
  174SAPS   C3519836   7.352   3.943   3.163  0.9333 -0.2677 -0.1372
  174SAPS   H5X19837   7.422   3.963   3.078 -0.6279  0.7720 -1.2374
  174SAPS   H5Y19838   7.343   3.834   3.147  2.2315 -0.2277 -1.4148
  174SAPS   C3619839   7.417   3.992   3.297  0.3548  0.2930  0.2357
  174SAPS   H6X19840   7.465   4.092   3.291  1.1202  0.0997  2.2913
  174SAPS   H6Y19841   7.504   3.924   3.302 -0.5707 -0.9951 -0.5303
  174SAPS   C3719842   7.323   3.979   3.419 -0.4091  0.1041  0.2286
  174SAPS   H7X19843   7.291   3.873   3.424  2.6729 -0.9683 -0.8910
  174SAPS   H7Y19844   7.236   4.045   3.397  0.0224  0.2474 -1.1321
  174SAPS   C3819845   7.397   4.020   3.543  0.1286 -0.5327 -0.3328
  174SAPS   H8X19846   7.445   4.118   3.521  2.1194 -1.0286  1.5457
  174SAPS   H8Y19847   7.484   3.953   3.553  0.6557  0.3482  1.3750
  174SAPS   C3919848   7.307   4.019   3.668 -0.4954 -0.0753  0.1628
  174SAPS   H9X19849   7.286   3.914   3.697 -1.9519 -0.0071 -0.5581
  174SAPS   H9Y19850   7.219   4.082   3.643  1.8203  3.2595 -0.3347
  174SAPS  C31019851   7.387   4.082   3.782  0.4117  0.1005  0.2947
  174SAPS  H10X19852   7.432   4.180   3.755  1.1296 -0.0570  0.8798
  174SAPS  H10Y19853   7.471   4.011   3.803  0.5634  0.4767  1.0023
  174SAPS  C31119854   7.300   4.099   3.916  0.5028  0.0765 -0.1486
  174SAPS  H11X19855   7.284   3.999   3.962  1.2428  0.0629  0.0907
  174SAPS  H11Y19856   7.203   4.140   3.879  0.2739  0.7098  1.1174
  174SAPS  C31219857   7.361   4.198   4.006 -0.2117  0.1474  0.5654
  174SAPS  H12X19858   7.347   4.298   3.960 -0.4015  0.3087  0.9664
  174SAPS  H12Y19859   7.467   4.166   4.017 -0.1183 -0.7831 -2.2556
  174SAPS  C31319860   7.295   4.200   4.151  0.3040  0.0182  0.0189
  174SAPS  H13X19861   7.272   4.097   4.186 -2.1090  0.2091 -0.8196
  174SAPS  H13Y19862   7.195   4.241   4.127  0.2913  1.2131  1.9390
  174SAPS  C31419863   7.355   4.295   4.254  1.0212  0.1048  0.2794
  174SAPS  H14X19864   7.283   4.291   4.338 -0.2038 -2.0918 -0.7682
  174SAPS  H14Y19865   7.346   4.393   4.202 -0.2568 -0.0369  0.1849
  174SAPS  C31519866   7.492   4.260   4.298 -0.8217 -0.2201  0.5274
  174SAPS  H15X19867   7.525   4.343   4.363  0.8279 -0.1069 -0.3962
  174SAPS  H15Y19868   7.567   4.256   4.216  1.0383  1.6941  2.0403
  174SAPS  C31619869   7.494   4.131   4.379  0.7522 -0.1573  0.7764
  174SAPS  H16X19870   7.473   4.043   4.313  1.9884  0.2661 -0.2261
  174SAPS  H16Y19871   7.427   4.131   4.468  1.3736  1.6880  1.2726
  174SAPS  C31719872   7.635   4.112   4.437  0.1342  1.1832 -0.6413
  174SAPS  H17X19873   7.672   4.202   4.491 -0.8318  2.4501 -2.0412
  174SAPS  H17Y19874   7.690   4.100   4.341 -1.6288 -0.6577 -1.4917
  174SAPS  C31819875   7.632   3.989   4.530 -1.1181  0.7159 -0.4605
  174SAPS  H18X19876   7.586   4.030   4.622  0.1525  1.5899 -0.1833
  174SAPS  H18Y19877   7.738   3.962   4.551 -1.3102  0.6560  0.4907
  174SAPS  H18Z19878   7.578   3.901   4.491  0.8301 -0.8025  0.0916
  175SAPS     N19879   1.478   2.126   2.048 -0.1645 -0.6716  0.5392
  175SAPS   HN119880   1.551   2.177   1.995 -2.0687  0.4680 -1.1671
  175SAPS   HN219881   1.495   2.137   2.150  1.3073 -1.7303  0.4269
  175SAPS   HN319882   1.488   2.028   2.016 -1.3867 -1.3237  1.9846
  175SAPS   C1219883   1.335   2.163   2.006  0.0891 -0.0486  0.0736
  175SAPS  H12A19884   1.337   2.271   2.016  0.6732 -0.0404 -0.0758
  175SAPS   C1319885   1.276   2.116   1.873 -0.4024  0.0198  0.5348
  175SAPS  O13A19886   1.342   2.031   1.806 -0.8211  0.3024  0.3564
  175SAPS  O13B19887   1.161   2.159   1.840 -0.0210  0.4430 -0.2399
  175SAPS   C1119888   1.250   2.131   2.129  0.6687  0.3460 -0.0705
  175SAPS  H11A19889   1.253   2.021   2.144  1.7512  0.4759  0.7581
  175SAPS  H11B19890   1.143   2.151   2.104  1.5466  2.7562 -2.3192
  175SAPS     P19891   1.187   2.278   2.332 -0.0879  0.2527  0.3207
  175SAPS   O1319892   1.251   2.334   2.452  0.3231  0.4770  0.8269
  175SAPS   O1419893   1.127   2.372   2.234  0.1572 -0.1489  0.3989
  175SAPS   O1219894   1.292   2.190   2.255 -0.0470 -0.7769  0.1645
  175SAPS   O1119895   1.082   2.171   2.383 -0.0770 -0.4483  0.0338
  175SAPS    C119896   1.092   2.100   2.509  0.5279  0.0198 -0.2115
  175SAPS    HA19897   1.027   2.009   2.514  1.7432 -0.8735 -0.3302
  175SAPS    HB19898   1.192   2.062   2.536  0.7875  1.7502  1.4387
  175SAPS    C219899   1.039   2.193   2.627 -0.7304  0.1425  0.5891
  175SAPS    HS19900   1.124   2.260   2.654  0.0189 -0.9963  1.1823
  175SAPS   O2119901   1.010   2.109   2.742 -0.2829  0.1796  0.7695
  175SAPS   C2119902   1.122   2.072   2.815  0.1039 -0.0880  0.1665
  175SAPS   O2219903   1.235   2.100   2.789 -0.5145 -0.2270 -0.3191
  175SAPS   C2219904   1.069   1.994   2.945  0.1243 -0.4990  0.3792
  175SAPS   H2R19905   1.003   1.914   2.905  1.4079 -0.2751 -2.3530
  175SAPS   H2S19906   1.154   1.942   2.993 -0.9007 -0.5540  2.2274
  175SAPS    C319907   0.909   2.253   2.577  0.4343 -0.8598 -0.2168
  175SAPS    HX19908   0.857   2.161   2.545 -0.0134 -0.2123 -1.4222
  175SAPS    HY19909   0.938   2.314   2.489  1.3866 -0.5455  0.2933
  175SAPS   O3119910   0.831   2.330   2.669 -0.6048  0.6273 -0.4732
  175SAPS   C3119911   0.880   2.450   2.710 -0.2162 -0.8498  0.1875
  175SAPS   O3219912   0.979   2.506   2.667 -0.1782  0.4445  0.4583
  175SAPS   C3219913   0.790   2.526   2.810  0.1669  0.7336  0.5888
  175SAPS   H2X19914   0.707   2.577   2.757  1.0346  0.3068 -1.2498
  175SAPS   H2Y19915   0.853   2.606   2.854 -1.5229  1.6986  1.3184
  175SAPS   C2319916   0.993   2.083   3.043  0.8658 -0.5111  0.2935
  175SAPS   H3R19917   0.916   2.151   3.002  0.4956  0.7635  2.8700
  175SAPS   H3S19918   1.058   2.157   3.094 -3.1390  1.2571  3.3355
  175SAPS   C2419919   0.935   1.996   3.155 -0.2475 -0.7202 -0.5930
  175SAPS   H4R19920   1.018   1.960   3.219  0.5720 -0.4560 -1.4881
  175SAPS   H4S19921   0.880   1.909   3.113 -1.3128 -1.8070  2.6937
  175SAPS   C2519922   0.843   2.064   3.253  0.1993 -0.2016 -0.2931
  175SAPS   H5R19923   0.738   2.066   3.219  0.2158 -1.8082 -0.5224
  175SAPS   C2619924   0.876   2.113   3.371 -0.2247  0.0127 -0.2465
  175SAPS   H6R19925   0.802   2.165   3.435  0.4310 -0.7191  1.1585
  175SAPS   C2719926   1.018   2.123   3.420 -0.1240 -0.4418 -0.2186
  175SAPS   H7R19927   1.087   2.105   3.335  1.7276  0.3911  1.0627
  175SAPS   H7S19928   1.031   2.043   3.496 -3.9280 -0.4024  0.6715
  175SAPS   C2819929   1.061   2.259   3.479  0.3909 -0.3982  0.1169
  175SAPS   H8R19930   0.991   2.342   3.463 -1.2506 -1.5946  0.8217
  175SAPS   C2919931   1.171   2.278   3.550 -0.4310  0.2894  0.4320
  175SAPS   H9R19932   1.185   2.376   3.598  0.9488  0.8656 -1.0778
  175SAPS  C21019933   1.266   2.165   3.593 -0.0481 -0.0047  0.0753
  175SAPS  H10R19934   1.264   2.082   3.519  0.0263 -0.5023  0.6270
  175SAPS  H10S19935   1.218   2.108   3.675  1.4940 -1.8025 -0.2068
  175SAPS  C21119936   1.406   2.202   3.638  0.9248 -0.0558 -0.0834
  175SAPS  H11R19937   1.472   2.230   3.555  1.6787 -2.0601 -0.2101
  175SAPS  C21219938   1.439   2.235   3.758 -0.2045  0.1168 -0.0420
  175SAPS  H12R19939   1.547   2.247   3.774 -0.2104 -1.2503  1.2502
  175SAPS  C21319940   1.364   2.218   3.888 -0.0091 -0.2565 -0.6247
  175SAPS  H13R19941   1.412   2.145   3.957 -0.3936  1.2668  1.3545
  175SAPS  H13S19942   1.266   2.173   3.861 -0.5486  1.5264 -1.7777
  175SAPS  C21419943   1.323   2.348   3.952  0.0412  0.3694  0.4291
  175SAPS  H14R19944   1.269   2.421   3.890  1.8738  0.6733 -0.9072
  175SAPS  C21519945   1.316   2.370   4.088  0.3878 -0.0567 -0.7838
  175SAPS  H15R19946   1.273   2.466   4.119 -0.6228 -0.6159 -0.4233
  175SAPS  C21619947   1.370   2.282   4.197  0.1486 -0.3274  0.0054
  175SAPS  H16R19948   1.453   2.215   4.166  0.2471 -0.1548 -0.1028
  175SAPS  H16S19949   1.291   2.215   4.238  0.4405  0.5714  2.1417
  175SAPS  C21719950   1.423   2.375   4.309  0.5113  0.3674 -0.1485
  175SAPS  H17R19951   1.338   2.425   4.361  0.6620  0.3969  0.0711
  175SAPS  H17S19952   1.493   2.456   4.281  0.9392  0.7166  1.7913
  175SAPS  C21819953   1.502   2.302   4.417  0.9340 -0.1556 -0.3117
  175SAPS  H18R19954   1.595   2.265   4.370  1.1720 -0.9310  0.7388
  175SAPS  H18S19955   1.439   2.227   4.468 -0.5985  0.9819 -0.4545
  175SAPS  C21919956   1.556   2.384   4.537 -0.6119  0.2103 -0.2588
  175SAPS  H19R19957   1.609   2.477   4.505 -1.1579  1.2545  1.6868
  175SAPS  H19S19958   1.612   2.316   4.605 -1.7936 -2.8127 -2.1043
  175SAPS  C22019959   1.440   2.446   4.624 -0.2619 -0.3346  0.2045
  175SAPS  H20R19960   1.373   2.507   4.561 -0.8980 -2.2418 -1.0305
  175SAPS  H20S19961   1.495   2.503   4.702  1.2639  1.5510 -2.1066
  175SAPS  H20T19962   1.377   2.364   4.665 -1.6405  0.2618 -0.6625
  175SAPS   C3319963   0.752   2.426   2.924  0.5736 -0.1456 -0.0055
  175SAPS   H3X19964   0.836   2.354   2.934  2.7806  1.9127 -2.2628
  175SAPS   H3Y19965   0.662   2.369   2.891  0.6046 -1.3996  1.9358
  175SAPS   C3419966   0.730   2.508   3.058  0.3169 -0.1422  0.5920
  175SAPS   H4X19967   0.635   2.564   3.042  0.9708  0.8134 -0.1102
  175SAPS   H4Y19968   0.824   2.568   3.065 -1.5598  3.3336 -1.1692
  175SAPS   C3519969   0.702   2.407   3.159  0.0458 -0.2690 -0.1561
  175SAPS   H5X19970   0.767   2.318   3.146 -1.2970 -1.3396  0.1683
  175SAPS   H5Y19971   0.601   2.364   3.138  0.7895 -2.6125  0.7412
  175SAPS   C3619972   0.709   2.444   3.309 -0.1200 -0.2198 -0.2196
  175SAPS   H6X19973   0.803   2.502   3.320 -0.8155  1.0238 -0.6530
  175SAPS   H6Y19974   0.712   2.353   3.373  1.5757 -0.2150 -0.2635
  175SAPS   C3719975   0.587   2.531   3.353 -0.3811 -0.2672 -0.1353
  175SAPS   H7X19976   0.498   2.490   3.300 -0.5712  1.7960 -1.5275
  175SAPS   H7Y19977   0.593   2.633   3.310  1.3274 -1.5449 -3.1718
  175SAPS   C3819978   0.571   2.541   3.500  0.1850  0.0287 -0.2932
  175SAPS   H8X19979   0.551   2.433   3.519 -0.4056  0.4473  1.7727
  175SAPS   H8Y19980   0.477   2.597   3.524  0.1336 -1.0181  2.2124
  175SAPS   C3919981   0.698   2.605   3.563  0.0116  1.2465 -0.1705
  175SAPS   H9X19982   0.725   2.681   3.487 -0.6232 -1.0504 -2.8671
  175SAPS   H9Y19983   0.771   2.521   3.562  0.7752  1.8629  0.8940
  175SAPS  C31019984   0.683   2.643   3.712  0.5275 -0.2143 -0.3264
  175SAPS  H10X19985   0.635   2.557   3.763  0.5819  0.3455  0.7038
  175SAPS  H10Y19986   0.606   2.722   3.729  0.0177  0.2225 -3.9578
  175SAPS  C31119987   0.820   2.667   3.778 -0.5238  0.2493 -0.2158
  175SAPS  H11X19988   0.899   2.596   3.747 -1.0788 -0.1902 -0.6519
  175SAPS  H11Y19989   0.808   2.652   3.887  0.1929  1.1331  0.0013
  175SAPS  C31219990   0.885   2.810   3.758 -0.2843  0.2485 -1.0340
  175SAPS  H12X19991   0.812   2.878   3.808 -1.1451  0.8268 -2.9872
  175SAPS  H12Y19992   0.889   2.839   3.651  1.5306  1.7879 -0.6127
  175SAPS  C31319993   1.023   2.845   3.823 -0.0266 -0.0422 -0.2149
  175SAPS  H13X19994   1.048   2.949   3.792 -1.9867  0.9924  1.4286
  175SAPS  H13Y19995   1.093   2.772   3.776  1.4731  2.0742 -1.4628
  175SAPS  C31419996   1.034   2.833   3.980  0.3195 -0.2905 -0.3206
  175SAPS  H14X19997   1.142   2.841   4.007  0.6239  0.5013 -1.6679
  175SAPS  H14Y19998   0.995   2.737   4.018  1.6569 -1.1018 -0.9325
  175SAPS  C31519999   0.952   2.939   4.054  0.2344  0.2360  0.7852
  175SAPS  H15X20000   0.849   2.943   4.012  0.0520  0.4760  1.2498
  175SAPS  H15Y20001   0.993   3.038   4.024 -1.1070 -0.0480 -2.3993
  175SAPS  C31620002   0.940   2.910   4.204  1.3380 -0.5035 -0.4741
  175SAPS  H16X20003   0.910   2.804   4.216  1.0206 -0.1859  2.0899
  175SAPS  H16Y20004   0.855   2.967   4.249  3.0363  2.5811 -0.8920
  175SAPS  C31720005   1.068   2.927   4.285 -0.0610 -0.6514 -0.0849
  175SAPS  H17X20006   1.162   2.897   4.233  1.9199  0.9700  2.3177
  175SAPS  H17Y20007   1.055   2.861   4.373 -0.5128 -1.2451 -0.5864
  175SAPS  C31820008   1.094   3.073   4.316 -0.0629 -0.0937 -0.1754
  175SAPS  H18X20009   1.168   3.080   4.398 -1.0657  0.0401  0.7469
  175SAPS  H18Y20010   1.006   3.139   4.332  0.8572  1.6851 -1.9478
  175SAPS  H18Z20011   1.147   3.111   4.226  1.9920  0.6438  1.2735
  176SAPS     N20012   0.524   0.830   2.414 -0.2215  0.6892 -0.0512
  176SAPS   HN120013   0.625   0.831   2.441  0.9502 -0.7353 -3.6813
  176SAPS   HN220014   0.512   0.887   2.328 -0.4160 -0.3705 -0.7540
  176SAPS   HN320015   0.464   0.874   2.487 -0.1531 -1.0398  1.1059
  176SAPS   C1220016   0.473   0.692   2.407  0.2240 -0.1647  0.3127
  176SAPS  H12A20017   0.387   0.703   2.343 -1.0738 -3.2883  1.3440
  176SAPS   C1320018   0.566   0.576   2.354  0.4373 -0.2433  0.1173
  176SAPS  O13A20019   0.686   0.601   2.330  0.4149 -0.0177  0.4224
  176SAPS  O13B20020   0.518   0.459   2.346 -0.1001 -0.1110  0.0541
  176SAPS   C1120021   0.424   0.643   2.548  0.3600 -0.0129 -0.4583
  176SAPS  H11A20022   0.515   0.628   2.609  0.7346  1.3958 -0.6437
  176SAPS  H11B20023   0.378   0.541   2.546  1.3514 -0.5030  0.7208
  176SAPS     P20024   0.190   0.753   2.606  0.4974  0.4472 -0.0728
  176SAPS   O1320025   0.179   0.865   2.505  0.0266 -0.5885  0.0901
  176SAPS   O1420026   0.114   0.623   2.574 -1.0628  0.0583  0.8052
  176SAPS   O1220027   0.347   0.730   2.628 -0.5121 -0.5058  0.4266
  176SAPS   O1120028   0.141   0.798   2.750  0.3124 -0.1934 -0.0828
  176SAPS    C120029   0.208   0.912   2.807  0.6228 -1.2089  0.5179
  176SAPS    HA20030   0.317   0.904   2.787  0.1659 -3.5817 -1.5120
  176SAPS    HB20031   0.177   1.009   2.762  3.2179 -0.1750  0.7603
  176SAPS    C220032   0.191   0.916   2.966  0.2456 -0.9021 -0.2869
  176SAPS    HS20033   0.272   0.980   3.007 -1.9871  1.8766  0.1073
  176SAPS   O2120034   0.195   0.787   3.027  0.0223 -0.4132 -0.2501
  176SAPS   C2120035   0.313   0.719   3.007  0.5029  0.5325  0.7945
  176SAPS   O2220036   0.414   0.771   2.962  0.2126 -0.1776  0.0281
  176SAPS   C2220037   0.301   0.573   3.041  0.5006  0.0915  0.3585
  176SAPS   H2R20038   0.220   0.531   2.977 -1.8148  0.1920  2.9874
  176SAPS   H2S20039   0.394   0.516   3.024 -0.1480 -1.2392  1.0891
  176SAPS    C320040   0.057   0.988   3.001 -0.4995  0.0312  0.8907
  176SAPS    HX20041  -0.017   0.943   2.931 -1.7009  0.9291  1.5310
  176SAPS    HY20042   0.066   1.089   2.955 -2.6851 -0.3153 -0.4744
  176SAPS   O3120043   0.028   0.985   3.142 -0.5824 -0.2687 -0.7690
  176SAPS   C3120044  -0.068   0.898   3.184 -0.1166 -0.4187 -0.2385
  176SAPS   O3220045  -0.126   0.821   3.115 -0.2461 -0.1840  0.1258
  176SAPS   C3220046  -0.064   0.895   3.335  0.0264  0.5591  0.7938
  176SAPS   H2X20047  -0.028   0.991   3.378 -1.9462  1.9540 -0.5117
  176SAPS   H2Y20048   0.018   0.823   3.359  0.3008  0.0031 -1.5123
  176SAPS   C2320049   0.266   0.555   3.188  0.3545  0.0149 -0.3231
  176SAPS   H3R20050   0.232   0.452   3.209  0.9242 -0.2405 -0.6260
  176SAPS   H3S20051   0.185   0.620   3.226 -0.1328 -0.7188 -0.0918
  176SAPS   C2420052   0.394   0.564   3.276 -0.2008 -0.4906  0.0348
  176SAPS   H4R20053   0.477   0.509   3.227  1.7379  0.5855  1.9342
  176SAPS   H4S20054   0.383   0.510   3.372  3.2664 -1.3997  0.0659
  176SAPS   C2520055   0.433   0.709   3.309  0.5083 -0.1190 -0.5506
  176SAPS   H5R20056   0.509   0.758   3.246  2.5328 -2.8294 -0.4367
  176SAPS   C2620057   0.384   0.778   3.424 -0.8031 -0.3063  0.0579
  176SAPS   H6R20058   0.441   0.868   3.452  1.2238 -1.8830  1.2640
  176SAPS   C2720059   0.285   0.726   3.528 -0.4196  0.9814 -0.5210
  176SAPS   H7R20060   0.351   0.675   3.601 -2.4163 -2.7862 -1.0733
  176SAPS   H7S20061   0.215   0.649   3.490 -1.0259  1.9247 -1.3822
  176SAPS   C2820062   0.198   0.837   3.587  0.2404  0.2224  0.1085
  176SAPS   H8R20063   0.189   0.926   3.524  1.6321  0.5222  0.2929
  176SAPS   C2920064   0.131   0.846   3.700  0.3842  0.3296 -0.4586
  176SAPS   H9R20065   0.064   0.932   3.715  1.3447  1.0896 -0.4777
  176SAPS  C21020066   0.126   0.733   3.799 -0.5946 -0.0497  0.9790
  176SAPS  H10R20067   0.170   0.767   3.895 -0.7709 -1.8234  1.7304
  176SAPS  H10S20068   0.198   0.651   3.778 -0.0326  0.3305  1.3918
  176SAPS  C21120069  -0.003   0.666   3.840  0.1093 -0.0256  0.1014
  176SAPS  H11R20070  -0.028   0.584   3.770 -1.0779  1.6843 -1.5842
  176SAPS  C21220071  -0.094   0.707   3.930 -0.7656 -0.0506 -0.5091
  176SAPS  H12R20072  -0.188   0.650   3.930 -1.3012  0.8120 -0.2363
  176SAPS  C21320073  -0.066   0.820   4.025 -0.1396  0.8024 -0.6387
  176SAPS  H13R20074  -0.166   0.859   4.054  0.0724  0.5535  0.5108
  176SAPS  H13S20075  -0.019   0.908   3.977  0.2338  0.1967 -1.3986
  176SAPS  C21420076   0.006   0.768   4.149  0.2235 -0.0692  1.0810
  176SAPS  H14R20077  -0.018   0.666   4.183  2.8629 -1.1823 -0.1487
  176SAPS  C21520078   0.105   0.827   4.224  0.2829  0.1123  0.1635
  176SAPS  H15R20079   0.125   0.776   4.320  0.9930 -2.2576 -1.1462
  176SAPS  C21620080   0.165   0.963   4.207  0.2656  0.3585  0.4288
  176SAPS  H16R20081   0.138   1.007   4.109 -0.9244 -0.7119  0.2579
  176SAPS  H16S20082   0.275   0.946   4.198  0.1253 -1.2113  1.4033
  176SAPS  C21720083   0.127   1.063   4.316  0.2154  0.0112  0.5618
  176SAPS  H17R20084   0.222   1.118   4.331 -0.6933  2.3262 -1.5629
  176SAPS  H17S20085   0.094   1.025   4.416  0.3556  1.2835  1.1188
  176SAPS  C21820086   0.021   1.172   4.278  0.0047 -0.5409 -0.1631
  176SAPS  H18R20087   0.052   1.212   4.179  0.4577 -0.2417  0.0985
  176SAPS  H18S20088   0.030   1.251   4.355 -0.0137 -0.0569 -0.6509
  176SAPS  C21920089  -0.131   1.134   4.276  0.1182 -0.2977  0.3149
  176SAPS  H19R20090  -0.159   1.054   4.347 -0.5810 -0.9763 -0.7117
  176SAPS  H19S20091  -0.160   1.090   4.179 -0.3069  0.7740 -0.0628
  176SAPS  C22020092  -0.221   1.256   4.295  0.8999 -0.0654 -1.0492
  176SAPS  H20R20093  -0.212   1.308   4.392 -1.4543 -0.7329 -0.4131
  176SAPS  H20S20094  -0.327   1.226   4.309  0.2754  2.9889  2.0673
  176SAPS  H20T20095  -0.218   1.322   4.206 -2.2610 -1.0706 -2.0279
  176SAPS   C3320096  -0.189   0.857   3.410  0.2615 -0.0003 -0.0543
  176SAPS   H3X20097  -0.233   0.766   3.365  1.6374 -0.5266 -0.3793
  176SAPS   H3Y20098  -0.267   0.931   3.380  0.3386 -0.3513 -1.1804
  176SAPS   C3420099  -0.173   0.845   3.559  0.0319  0.4979 -0.2105
  176SAPS   H4X20100  -0.124   0.934   3.605  2.6261 -1.4802  1.1131
  176SAPS   H4Y20101  -0.101   0.762   3.573 -0.4708 -0.2370 -1.7083
  176SAPS   C3520102  -0.301   0.820   3.631  0.3960 -0.1997  0.1376
  176SAPS   H5X20103  -0.300   0.821   3.742 -4.3475 -2.2286  0.4688
  176SAPS   H5Y20104  -0.328   0.716   3.602  1.8082 -0.0944 -1.7309
  176SAPS   C3620105  -0.419   0.921   3.602  0.0535  0.3655 -0.0487
  176SAPS   H6X20106  -0.507   0.900   3.667  0.3075 -1.7203 -0.3009
  176SAPS   H6Y20107  -0.454   0.912   3.498 -2.1563 -0.4366  0.7053
  176SAPS   C3720108  -0.390   1.073   3.613  0.5105 -1.3990  0.2517
  176SAPS   H7X20109  -0.481   1.130   3.587  0.2915 -2.8556 -2.6281
  176SAPS   H7Y20110  -0.299   1.099   3.555 -1.3051  3.9150 -0.7186
  176SAPS   C3820111  -0.353   1.121   3.755 -0.3503 -0.0081  0.0137
  176SAPS   H8X20112  -0.257   1.072   3.782 -0.7924 -1.5210 -1.0011
  176SAPS   H8Y20113  -0.429   1.078   3.823  0.0113 -1.2932 -0.3635
  176SAPS   C3920114  -0.326   1.276   3.763 -0.2087  0.6454 -0.3170
  176SAPS   H9X20115  -0.403   1.334   3.708  0.1474  2.6982  1.2269
  176SAPS   H9Y20116  -0.230   1.290   3.709  1.7252  1.8914  3.0955
  176SAPS  C31020117  -0.314   1.336   3.901  0.6739 -0.7828 -0.0236
  176SAPS  H10X20118  -0.236   1.286   3.962 -0.2965  0.7154  2.6154
  176SAPS  H10Y20119  -0.412   1.324   3.952  0.0652  2.1041 -0.3370
  176SAPS  C31120120  -0.278   1.481   3.890 -0.2755  0.3442  0.3137
  176SAPS  H11X20121  -0.350   1.536   3.826 -1.4946  0.4538  1.7464
  176SAPS  H11Y20122  -0.182   1.479   3.833 -1.2276 -3.1378 -1.4737
  176SAPS  C31220123  -0.274   1.565   4.020 -0.4845 -1.4832  1.2610
  176SAPS  H12X20124  -0.182   1.532   4.074  0.0689 -1.8734  0.1125
  176SAPS  H12Y20125  -0.365   1.552   4.083  0.0353  0.1147  2.4373
  176SAPS  C31320126  -0.277   1.717   3.991 -0.5458 -0.0950  0.0985
  176SAPS  H13X20127  -0.382   1.722   3.953 -0.1174  1.5536 -0.9965
  176SAPS  H13Y20128  -0.198   1.758   3.924 -0.0967 -1.7323 -0.4196
  176SAPS  C31420129  -0.262   1.810   4.114  0.0430 -1.2706 -0.7764
  176SAPS  H14X20130  -0.288   1.915   4.090 -1.2793 -1.7174 -1.3751
  176SAPS  H14Y20131  -0.154   1.828   4.132 -0.5132 -0.1344  2.0383
  176SAPS  C31520132  -0.329   1.765   4.250 -0.0834  0.1047 -0.1646
  176SAPS  H15X20133  -0.294   1.665   4.282 -0.1541  0.3458  0.6690
  176SAPS  H15Y20134  -0.439   1.766   4.229 -0.6045  0.4063  2.3015
  176SAPS  C31620135  -0.296   1.875   4.353  0.0725 -0.0381 -0.1028
  176SAPS  H16X20136  -0.346   1.971   4.327 -0.9784 -0.9113 -1.4816
  176SAPS  H16Y20137  -0.185   1.874   4.359  0.1030 -1.6887 -0.4849
  176SAPS  C31720138  -0.350   1.846   4.490  0.2473 -0.5291  0.0940
  176SAPS  H17X20139  -0.319   1.926   4.560  1.7293 -0.7548 -0.2672
  176SAPS  H17Y20140  -0.293   1.760   4.531  0.0421 -0.2337  1.0161
  176SAPS  C31820141  -0.503   1.834   4.494  0.4908 -0.1140  0.4003
  176SAPS  H18X20142  -0.524   1.739   4.440 -0.0506 -0.8968  1.9459
  176SAPS  H18Y20143  -0.540   1.918   4.431  1.6551  0.1148 -0.0128
  176SAPS  H18Z20144  -0.540   1.834   4.599 -0.2311 -2.0752  0.1895
  177SAPS     N20145   2.978   1.570   2.614  0.1213  0.6832  0.4041
  177SAPS   HN120146   3.002   1.670   2.630  0.3955  0.5192  1.0260
  177SAPS   HN220147   2.899   1.569   2.547  0.6334  1.7722 -0.2525
  177SAPS   HN320148   2.942   1.524   2.700 -1.9531 -1.8312 -1.6442
  177SAPS   C1220149   3.098   1.492   2.568  0.4146 -0.6472 -0.2809
  177SAPS  H12A20150   3.082   1.390   2.599  0.1022 -1.5358 -3.0884
  177SAPS   C1320151   3.117   1.483   2.410 -0.1040 -0.2755  0.0226
  177SAPS  O13A20152   3.016   1.515   2.339 -0.0953 -0.0170 -0.4056
  177SAPS  O13B20153   3.212   1.422   2.356 -0.9252 -0.1718  0.9907
  177SAPS   C1120154   3.219   1.554   2.649 -0.0052  0.4703 -1.0947
  177SAPS  H11A20155   3.314   1.497   2.641 -1.5364 -2.5485  0.6079
  177SAPS  H11B20156   3.203   1.553   2.759  1.9666  0.9856 -0.7733
  177SAPS     P20157   3.205   1.814   2.677 -0.2690  0.2690  0.0091
  177SAPS   O1320158   3.276   1.928   2.621  0.0347  0.0876 -0.0183
  177SAPS   O1420159   3.059   1.818   2.697 -0.3070 -0.0463  0.0616
  177SAPS   O1220160   3.248   1.681   2.598  0.4277 -0.1553 -0.3314
  177SAPS   O1120161   3.263   1.784   2.824  0.1463 -0.2817  0.4536
  177SAPS    C120162   3.395   1.736   2.851  0.4419  0.2714  0.3952
  177SAPS    HA20163   3.395   1.639   2.904  0.2579 -0.9369 -1.7031
  177SAPS    HB20164   3.453   1.700   2.763  1.6018 -2.4869  2.1616
  177SAPS    C220165   3.480   1.833   2.936  0.0758 -0.2744 -0.0148
  177SAPS    HS20166   3.564   1.772   2.977  0.2991  0.8795  1.3240
  177SAPS   O2120167   3.394   1.882   3.051  0.0351  0.3220  0.0965
  177SAPS   C2120168   3.369   1.797   3.149  0.1596  0.2817  0.0770
  177SAPS   O2220169   3.422   1.685   3.164  0.3732  0.0388 -0.0468
  177SAPS   C2220170   3.257   1.864   3.232 -0.3921 -0.0696 -0.7183
  177SAPS   H2R20171   3.209   1.945   3.172 -2.0769 -0.5627 -0.0866
  177SAPS   H2S20172   3.181   1.786   3.257 -1.4793  1.0165 -0.5462
  177SAPS    C320173   3.530   1.961   2.868 -0.8008 -0.0736  1.2428
  177SAPS    HX20174   3.450   2.038   2.867  0.2728  1.0763 -0.1621
  177SAPS    HY20175   3.569   1.927   2.770  0.2231  0.1792  1.5591
  177SAPS   O3120176   3.639   2.012   2.946 -0.6979 -0.4470 -0.3378
  177SAPS   C3120177   3.615   2.115   3.025 -0.7542 -0.6560 -0.4847
  177SAPS   O3220178   3.537   2.206   3.009 -0.5914 -0.4081  0.1548
  177SAPS   C3220179   3.719   2.122   3.140 -0.4719  0.5787 -0.1330
  177SAPS   H2X20180   3.779   2.213   3.123 -1.2785  1.0429 -0.5789
  177SAPS   H2Y20181   3.779   2.029   3.128 -0.3852  0.6721 -0.4279
  177SAPS   C2320182   3.326   1.921   3.358 -0.0528  0.3400  0.3797
  177SAPS   H3R20183   3.398   1.996   3.319  0.3688 -1.2575 -2.1790
  177SAPS   H3S20184   3.392   1.846   3.407  0.4482 -0.0458 -0.8345
  177SAPS   C2420185   3.228   1.985   3.453 -0.6809  0.5418  0.3560
  177SAPS   H4R20186   3.183   2.064   3.390  0.3959  1.4164  0.6556
  177SAPS   H4S20187   3.287   2.047   3.524  2.7476  1.5843 -3.0696
  177SAPS   C2520188   3.123   1.895   3.507  0.1395  0.0330 -0.3058
  177SAPS   H5R20189   3.044   1.858   3.441  0.8425 -1.3315 -0.4154
  177SAPS   C2620190   3.123   1.856   3.634  0.4850 -0.0192 -0.2672
  177SAPS   H6R20191   3.035   1.805   3.676  0.7146  0.4715  0.8384
  177SAPS   C2720192   3.236   1.882   3.727 -0.0240  0.3835  0.7168
  177SAPS   H7R20193   3.246   1.992   3.727 -1.3329  0.5178  0.5424
  177SAPS   H7S20194   3.326   1.853   3.668 -1.2810  2.0949 -2.2877
  177SAPS   C2820195   3.226   1.821   3.865 -0.8588  0.0053  0.3573
  177SAPS   H8R20196   3.230   1.711   3.875 -3.2994  0.0492  3.0554
  177SAPS   C2920197   3.220   1.891   3.980  0.6433  0.2014  0.3184
  177SAPS   H9R20198   3.211   1.836   4.074  0.1993 -0.0771  0.1140
  177SAPS  C21020199   3.219   2.038   3.994  0.4255  0.7767 -0.5087
  177SAPS  H10R20200   3.166   2.078   3.905  1.3529 -1.8911 -2.3923
  177SAPS  H10S20201   3.327   2.065   3.989  0.8274 -0.5288  0.3726
  177SAPS  C21120202   3.155   2.084   4.119  0.1134 -0.0650  0.5862
  177SAPS  H11R20203   3.055   2.125   4.101  0.0094 -0.0093  1.2745
  177SAPS  C21220204   3.196   2.077   4.247 -0.1665  0.0106  0.5256
  177SAPS  H12R20205   3.136   2.121   4.328 -0.7511  0.0140  0.0897
  177SAPS  C21320206   3.327   2.020   4.298 -0.3325 -0.0390 -0.2648
  177SAPS  H13R20207   3.392   2.096   4.347 -1.8346 -0.1299  2.0053
  177SAPS  H13S20208   3.380   1.971   4.214 -1.2886 -0.0260 -0.8872
  177SAPS  C21420209   3.294   1.905   4.398  0.6963 -0.2682 -0.2735
  177SAPS  H14R20210   3.190   1.868   4.399  1.3311 -2.3862  3.1567
  177SAPS  C21520211   3.385   1.849   4.481  0.2499  0.2517  0.7163
  177SAPS  H15R20212   3.349   1.771   4.550 -0.1936 -1.1017 -0.9674
  177SAPS  C21620213   3.530   1.884   4.488  0.7108  0.1888 -0.1341
  177SAPS  H16R20214   3.554   1.974   4.427 -1.2314  0.0935 -1.1037
  177SAPS  H16S20215   3.577   1.797   4.438 -2.3134 -1.2002 -0.7192
  177SAPS  C21720216   3.567   1.896   4.633  0.4787  0.2183  0.0252
  177SAPS  H17R20217   3.678   1.888   4.630  0.6897  1.6579  1.6961
  177SAPS  H17S20218   3.525   1.809   4.688  1.3737  0.7745  1.6686
  177SAPS  C21820219   3.555   2.030   4.711  0.4327 -0.6308  0.5278
  177SAPS  H18R20220   3.477   2.039   4.790  1.3950  4.8624  1.2912
  177SAPS  H18S20221   3.538   2.104   4.630 -0.6069 -1.5590 -0.1101
  177SAPS  C21920222   3.693   2.071   4.767 -0.1093  0.6300  0.1888
  177SAPS  H19R20223   3.769   2.071   4.686 -0.9172  0.9413 -0.5762
  177SAPS  H19S20224   3.722   1.988   4.835  1.3377 -0.2731 -1.4509
  177SAPS  C22020225   3.686   2.198   4.841 -0.7460 -0.5693  0.1524
  177SAPS  H20R20226   3.612   2.199   4.924 -2.4222 -1.0850 -1.2570
  177SAPS  H20S20227   3.658   2.278   4.769  2.0890 -0.6109 -1.1184
  177SAPS  H20T20228   3.784   2.211   4.890 -0.2619 -3.0597 -0.0328
  177SAPS   C3320229   3.639   2.111   3.279 -0.5095 -0.5972  0.1956
  177SAPS   H3X20230   3.615   2.003   3.290 -1.7353 -0.4679 -0.8658
  177SAPS   H3Y20231   3.544   2.169   3.279 -2.0211 -2.9224 -0.7167
  177SAPS   C3420232   3.714   2.165   3.396 -0.8076  0.1813 -0.3263
  177SAPS   H4X20233   3.746   2.268   3.368 -0.0520  0.3523  1.0680
  177SAPS   H4Y20234   3.807   2.107   3.411 -2.6622 -2.5882  1.4438
  177SAPS   C3520235   3.640   2.165   3.527 -0.3913  0.2591  0.1209
  177SAPS   H5X20236   3.536   2.185   3.494  0.0983  0.1416 -1.6002
  177SAPS   H5Y20237   3.676   2.248   3.592 -2.4492  0.7461  0.7126
  177SAPS   C3620238   3.634   2.034   3.602 -0.0957  0.6251  0.1156
  177SAPS   H6X20239   3.731   1.980   3.599 -0.3587  0.1826 -1.1410
  177SAPS   H6Y20240   3.571   1.960   3.548  1.6859 -2.4970  2.0175
  177SAPS   C3720241   3.602   2.042   3.755 -0.0794  0.0744 -0.8203
  177SAPS   H7X20242   3.494   2.061   3.771 -0.2206 -1.4213  0.2544
  177SAPS   H7Y20243   3.661   2.124   3.802 -0.6191 -0.6121  1.1746
  177SAPS   C3820244   3.642   1.916   3.840  1.3561  0.1916  0.7240
  177SAPS   H8X20245   3.744   1.886   3.809  2.0140  2.8981 -0.0612
  177SAPS   H8Y20246   3.578   1.835   3.799  1.8847  0.7835 -1.3777
  177SAPS   C3920247   3.621   1.929   3.991  0.3865  0.3550 -0.5450
  177SAPS   H9X20248   3.510   1.933   3.999  0.3806  0.5901 -0.7354
  177SAPS   H9Y20249   3.648   2.025   4.040  1.1631  0.2692 -0.7862
  177SAPS  C31020250   3.662   1.805   4.074 -0.4823  0.4211 -0.4334
  177SAPS  H10X20251   3.599   1.721   4.037 -0.0739  0.2358 -0.7226
  177SAPS  H10Y20252   3.635   1.820   4.181  0.7830  0.9356 -0.1652
  177SAPS  C31120253   3.817   1.779   4.091  0.2166  0.2860 -0.0287
  177SAPS  H11X20254   3.863   1.880   4.083 -0.4673  0.4603 -2.5981
  177SAPS  H11Y20255   3.849   1.714   4.008  0.0110 -1.6795  1.3673
  177SAPS  C31220256   3.862   1.713   4.221  0.0577  0.8340  0.5121
  177SAPS  H12X20257   3.803   1.619   4.233  1.8970 -0.8384 -2.4004
  177SAPS  H12Y20258   3.842   1.792   4.297  0.2230 -0.0376  1.4840
  177SAPS  C31320259   4.012   1.667   4.208 -0.0465 -0.0395  0.1821
  177SAPS  H13X20260   4.071   1.753   4.171  2.1189 -1.4559  0.1834
  177SAPS  H13Y20261   4.004   1.580   4.138 -1.7387  1.6097 -1.8190
  177SAPS  C31420262   4.064   1.605   4.344 -0.3767 -0.2848  0.5171
  177SAPS  H14X20263   4.145   1.535   4.313 -0.0094  0.0556  0.7033
  177SAPS  H14Y20264   3.973   1.553   4.382 -2.5038  1.0164 -2.4341
  177SAPS  C31520265   4.098   1.717   4.441  0.4072 -0.0910 -0.7156
  177SAPS  H15X20266   4.004   1.770   4.469 -0.4410 -0.8022 -2.1102
  177SAPS  H15Y20267   4.184   1.775   4.400  1.6286 -0.0819  1.6950
  177SAPS  C31620268   4.152   1.667   4.584  0.1668  0.5826  0.7048
  177SAPS  H16X20269   4.235   1.598   4.556  0.1812  1.2000 -0.8821
  177SAPS  H16Y20270   4.067   1.609   4.627  1.3548 -1.3253  0.6175
  177SAPS  C31720271   4.218   1.771   4.668 -0.6038 -0.4268 -0.0258
  177SAPS  H17X20272   4.140   1.844   4.699  0.0090  0.4689 -0.5548
  177SAPS  H17Y20273   4.296   1.832   4.618  1.6487 -2.0686  1.2487
  177SAPS  C31820274   4.296   1.708   4.785  0.5961  0.1801  0.0772
  177SAPS  H18X20275   4.374   1.631   4.767  1.0431  0.9381 -1.3598
  177SAPS  H18Y20276   4.219   1.661   4.850 -1.0258 -0.8832 -2.4764
  177SAPS  H18Z20277   4.343   1.791   4.842 -0.2684  1.4335 -0.9752
  178SAPS     N20278   2.181   4.722   2.057  0.1244  0.4365  0.4832
  178SAPS   HN120279   2.182   4.623   2.088 -1.0138 -0.7466 -2.8003
  178SAPS   HN220280   2.267   4.733   2.000 -0.1040  0.1973  0.0877
  178SAPS   HN320281   2.176   4.787   2.138 -0.4319  0.5869  0.3375
  178SAPS   C1220282   2.050   4.727   1.981 -0.5547  0.1020  0.3547
  178SAPS  H12A20283   2.013   4.827   1.963 -2.4212 -0.7822 -1.0318
  178SAPS   C1320284   2.069   4.680   1.834 -0.7595  0.0898 -0.5895
  178SAPS  O13A20285   2.192   4.652   1.799  0.3820  0.2496 -0.1963
  178SAPS  O13B20286   1.977   4.677   1.749 -0.4061  1.1857 -0.2916
  178SAPS   C1120287   1.934   4.643   2.049  0.7392  0.2337 -0.1891
  178SAPS  H11A20288   1.959   4.535   2.052 -1.9306 -0.4776 -0.6356
  178SAPS  H11B20289   1.839   4.666   1.995 -0.1339  0.6970  1.4646
  178SAPS     P20290   1.819   4.746   2.262  0.0735  0.2393 -0.2805
  178SAPS   O1320291   1.765   4.860   2.190 -0.4908  0.3215  0.9471
  178SAPS   O1420292   1.720   4.647   2.305 -0.0677  0.1874  0.5097
  178SAPS   O1220293   1.938   4.674   2.185 -0.1152  0.1850 -0.3077
  178SAPS   O1120294   1.875   4.808   2.402 -0.4427 -0.1079  0.6958
  178SAPS    C120295   2.013   4.765   2.441  0.3244 -0.0136 -0.1712
  178SAPS    HA20296   2.018   4.656   2.460 -0.6809  0.1652  1.3343
  178SAPS    HB20297   2.083   4.791   2.358 -1.0930  2.4466 -0.7029
  178SAPS    C220298   2.057   4.849   2.567  0.3792 -0.7408  0.2526
  178SAPS    HS20299   2.158   4.808   2.589  0.5999 -0.5623 -0.4300
  178SAPS   O2120300   1.967   4.827   2.676 -0.1486 -0.1619  0.1742
  178SAPS   C2120301   1.968   4.708   2.739  0.3574  0.1889 -0.2367
  178SAPS   O2220302   2.045   4.615   2.707  0.3195 -1.1207 -0.2307
  178SAPS   C2220303   1.874   4.714   2.861 -0.2409  0.2140  0.6470
  178SAPS   H2R20304   1.917   4.781   2.938  3.3398 -0.6924 -0.3649
  178SAPS   H2S20305   1.774   4.756   2.834 -1.1873 -1.6103  1.1932
  178SAPS    C320306   2.073   4.998   2.523  0.3323 -0.5678  0.1664
  178SAPS    HX20307   1.976   5.045   2.497  1.2348  1.4334  0.1585
  178SAPS    HY20308   2.154   4.998   2.447  0.7879  2.5713  0.5141
  178SAPS   O3120309   2.130   5.069   2.635  0.2125  0.1658 -0.1910
  178SAPS   C3120310   2.155   5.195   2.620  0.1633 -0.0504  0.1933
  178SAPS   O3220311   2.142   5.254   2.511 -0.3494 -0.2847  0.4987
  178SAPS   C3220312   2.200   5.264   2.752 -0.4717 -0.2347  0.3478
  178SAPS   H2X20313   2.138   5.355   2.762  2.0984  1.8179 -1.2919
  178SAPS   H2Y20314   2.304   5.296   2.731 -0.8123 -0.2677 -1.6681
  178SAPS   C2320315   1.856   4.574   2.931 -0.4188 -0.3925 -0.1070
  178SAPS   H3R20316   1.960   4.548   2.958 -0.7990 -1.0405  0.7633
  178SAPS   H3S20317   1.826   4.502   2.852  0.5499  0.3629 -1.2110
  178SAPS   C2420318   1.769   4.572   3.052 -0.0572  0.8802 -0.2770
  178SAPS   H4R20319   1.807   4.648   3.123  1.3869 -0.1318  0.0812
  178SAPS   H4S20320   1.766   4.469   3.093 -1.4853  0.4064 -1.4815
  178SAPS   C2520321   1.624   4.617   3.017  0.1796 -0.3273  0.4002
  178SAPS   H5R20322   1.573   4.561   2.937  0.5871  1.8459 -1.4809
  178SAPS   C2620323   1.555   4.713   3.074 -0.1766 -0.0853  0.0099
  178SAPS   H6R20324   1.459   4.738   3.028 -0.3501 -0.1460  0.3354
  178SAPS   C2720325   1.604   4.806   3.184 -0.1609 -0.8218 -0.0532
  178SAPS   H7R20326   1.645   4.763   3.278 -1.6754  0.2528  1.1500
  178SAPS   H7S20327   1.511   4.860   3.214  0.0180 -1.5393  1.9929
  178SAPS   C2820328   1.701   4.913   3.125  0.0658  0.0693 -0.5550
  178SAPS   H8R20329   1.662   4.967   3.037 -1.7661 -1.2406 -0.5990
  178SAPS   C2920330   1.826   4.942   3.169  0.1596  0.0377  0.3263
  178SAPS   H9R20331   1.862   5.027   3.109 -2.9837  1.0401 -0.3583
  178SAPS  C21020332   1.909   4.890   3.288 -1.2543  0.2626  0.6750
  178SAPS  H10R20333   1.992   4.825   3.252 -1.9687 -0.2996  0.0041
  178SAPS  H10S20334   1.838   4.827   3.344 -1.3255  0.3631  0.6979
  178SAPS  C21120335   1.976   4.995   3.361  0.7068 -0.8473 -0.0644
  178SAPS  H11R20336   2.034   5.064   3.298 -0.2646 -1.6053 -1.8671
  178SAPS  C21220337   1.993   5.019   3.493 -0.3870  0.3190  1.7345
  178SAPS  H12R20338   2.040   5.115   3.521 -0.1243  1.5478 -2.3050
  178SAPS  C21320339   1.959   4.924   3.605  0.1204 -0.1742  0.3634
  178SAPS  H13R20340   2.017   4.948   3.697  1.0456  0.3280 -0.3281
  178SAPS  H13S20341   1.985   4.821   3.572 -3.0494 -1.2802  0.9534
  178SAPS  C21420342   1.811   4.936   3.635 -0.7578 -0.2103  0.6348
  178SAPS  H14R20343   1.757   5.005   3.569 -0.1727 -1.2933 -1.0237
  178SAPS  C21520344   1.745   4.867   3.728  0.2932  0.0438  0.0979
  178SAPS  H15R20345   1.639   4.898   3.733 -0.0044 -0.5132 -2.0446
  178SAPS  C21620346   1.795   4.795   3.844 -0.4929 -0.9357 -1.1227
  178SAPS  H16R20347   1.905   4.778   3.844 -0.0639  1.3673 -2.2932
  178SAPS  H16S20348   1.743   4.698   3.856 -2.7016  0.0260 -2.1697
  178SAPS  C21720349   1.770   4.883   3.975 -0.5444  0.1054  1.4480
  178SAPS  H17R20350   1.661   4.901   3.984 -0.2613  1.8132  1.9408
  178SAPS  H17S20351   1.822   4.981   3.964 -1.2209  0.2780 -0.4061
  178SAPS  C21820352   1.818   4.817   4.101 -0.1519  0.7934 -0.8526
  178SAPS  H18R20353   1.913   4.764   4.080  0.0300  0.2500  1.1235
  178SAPS  H18S20354   1.749   4.741   4.142  0.8962  0.7880  0.9744
  178SAPS  C21920355   1.838   4.916   4.217  0.4035 -0.1920 -0.0252
  178SAPS  H19R20356   1.931   4.971   4.191  0.8576 -0.9502 -0.0293
  178SAPS  H19S20357   1.858   4.857   4.308 -2.5122  1.2676  1.7140
  178SAPS  C22020358   1.725   5.019   4.244  0.5671 -0.0027  0.6174
  178SAPS  H20R20359   1.621   4.980   4.248  0.2761  0.6885 -0.0752
  178SAPS  H20S20360   1.721   5.094   4.162  0.1891  0.1376  0.7623
  178SAPS  H20T20361   1.740   5.066   4.344 -0.6582 -0.4919  1.0509
  178SAPS   C3320362   2.204   5.168   2.873 -0.1720  0.1793 -0.0357
  178SAPS   H3X20363   2.278   5.091   2.842 -1.5346 -2.3807  2.5745
  178SAPS   H3Y20364   2.107   5.121   2.901  0.5952  0.4930  3.5983
  178SAPS   C3420365   2.257   5.254   2.995  0.5392  0.6669  0.2116
  178SAPS   H4X20366   2.359   5.288   2.970  0.7058 -0.0997 -0.2122
  178SAPS   H4Y20367   2.280   5.181   3.076  2.0721  0.6556 -0.2169
  178SAPS   C3520368   2.161   5.370   3.044 -0.2205  0.3552 -0.3133
  178SAPS   H5X20369   2.062   5.335   3.080 -0.3912  0.1985 -0.9236
  178SAPS   H5Y20370   2.145   5.423   2.947  1.8646  1.6131 -0.0386
  178SAPS   C3620371   2.219   5.470   3.142 -0.2154  0.9332 -0.5836
  178SAPS   H6X20372   2.161   5.564   3.141 -1.3166  0.2823  0.3595
  178SAPS   H6Y20373   2.321   5.501   3.110 -0.0622  1.2869  0.2403
  178SAPS   C3720374   2.226   5.426   3.292 -0.0246 -0.3158 -0.1945
  178SAPS   H7X20375   2.298   5.341   3.291  0.8776  0.4454 -0.9304
  178SAPS   H7Y20376   2.126   5.400   3.333  0.3301 -1.0444  0.2356
  178SAPS   C3820377   2.297   5.537   3.382  0.5878  0.1189  0.1365
  178SAPS   H8X20378   2.282   5.495   3.483 -0.5757  0.1624 -0.0019
  178SAPS   H8Y20379   2.250   5.637   3.371  1.2309  0.5938  1.5052
  178SAPS   C3920380   2.448   5.560   3.374 -0.4492  0.3639  0.7980
  178SAPS   H9X20381   2.470   5.592   3.269  0.7836  0.9622  1.2101
  178SAPS   H9Y20382   2.496   5.463   3.400 -0.7742  0.0681  0.2998
  178SAPS  C31020383   2.503   5.660   3.470 -0.3070 -0.1654  0.3636
  178SAPS  H10X20384   2.483   5.767   3.446 -1.9712 -0.5132  0.0662
  178SAPS  H10Y20385   2.612   5.643   3.459 -0.2225  0.0799  0.8108
  178SAPS  C31120386   2.461   5.636   3.613 -0.7092  0.2531  0.0419
  178SAPS  H11X20387   2.491   5.531   3.636 -2.1913 -0.2694 -0.3188
  178SAPS  H11Y20388   2.354   5.660   3.627 -1.2517  0.1095 -3.3034
  178SAPS  C31220389   2.543   5.710   3.727  0.5393  0.6147  0.1771
  178SAPS  H12X20390   2.545   5.818   3.703  1.9828  1.2331  2.7220
  178SAPS  H12Y20391   2.647   5.673   3.721 -0.0039 -1.1565  1.0141
  178SAPS  C31320392   2.492   5.683   3.864 -0.3055 -0.0803 -0.4542
  178SAPS  H13X20393   2.485   5.575   3.890 -2.4204  0.2338  0.5629
  178SAPS  H13Y20394   2.388   5.723   3.873 -1.0473 -1.7202 -1.2798
  178SAPS  C31420395   2.562   5.746   3.991 -0.7322  0.2152 -0.1014
  178SAPS  H14X20396   2.566   5.857   3.983 -1.0468  0.1657 -1.1737
  178SAPS  H14Y20397   2.670   5.721   3.999 -0.1320  1.6103 -2.5344
  178SAPS  C31520398   2.493   5.702   4.117  0.4555 -0.2975 -0.4467
  178SAPS  H15X20399   2.504   5.591   4.116  0.3367 -0.3906 -3.8466
  178SAPS  H15Y20400   2.387   5.735   4.110 -0.2834 -2.4727 -0.4932
  178SAPS  C31620401   2.544   5.778   4.237 -0.3402 -0.1955  0.1498
  178SAPS  H16X20402   2.543   5.885   4.207  1.3921  0.1463  1.1475
  178SAPS  H16Y20403   2.653   5.763   4.255 -0.7335  0.3977  4.0343
  178SAPS  C31720404   2.452   5.761   4.362 -0.8681  0.3254  0.2856
  178SAPS  H17X20405   2.448   5.653   4.388  1.1937  0.2970  0.6608
  178SAPS  H17Y20406   2.353   5.797   4.327 -1.3074  0.2880  1.4661
  178SAPS  C31820407   2.501   5.838   4.477 -0.0717  0.0483 -0.6881
  178SAPS  H18X20408   2.611   5.841   4.468  0.3446 -0.4413  2.8423
  178SAPS  H18Y20409   2.464   5.783   4.567 -1.3846  0.1191 -1.1603
  178SAPS  H18Z20410   2.470   5.944   4.492  1.2573  0.2756  0.7653
  179SAPS     N20411   2.497   1.372   2.681 -0.3320 -0.1918  0.0018
  179SAPS   HN120412   2.503   1.274   2.648  0.3924 -0.1733  0.0664
  179SAPS   HN220413   2.575   1.385   2.749 -0.0442  1.1069 -0.5515
  179SAPS   HN320414   2.403   1.381   2.726 -1.1267  0.4743 -1.7245
  179SAPS   C1220415   2.512   1.474   2.583  0.3348  0.0468  0.3800
  179SAPS  H12A20416   2.486   1.567   2.632 -2.9840  1.2324 -3.1511
  179SAPS   C1320417   2.651   1.485   2.507 -0.7775 -0.0114 -0.1993
  179SAPS  O13A20418   2.750   1.428   2.558  0.1216  0.1057 -0.0959
  179SAPS  O13B20419   2.656   1.547   2.401  0.3590  0.0694  0.4602
  179SAPS   C1120420   2.388   1.452   2.483 -0.0497  0.6508 -0.2632
  179SAPS  H11A20421   2.407   1.358   2.428 -1.0937  0.1088  0.2709
  179SAPS  H11B20422   2.375   1.536   2.411 -1.0443 -0.2041 -1.1003
  179SAPS     P20423   2.125   1.436   2.483 -0.1813  0.3730  0.0765
  179SAPS   O1320424   2.146   1.459   2.339  0.5010 -0.2631  0.4330
  179SAPS   O1420425   2.048   1.319   2.532 -0.2981  0.2568 -0.0821
  179SAPS   O1220426   2.270   1.432   2.558  0.0285  0.1370 -0.0841
  179SAPS   O1120427   2.074   1.563   2.559  0.5276  0.4928  0.5118
  179SAPS    C120428   2.146   1.680   2.601  0.0853 -0.3020  0.0036
  179SAPS    HA20429   2.240   1.689   2.543  1.0396 -0.0975  1.5137
  179SAPS    HB20430   2.097   1.777   2.581  2.2849  0.5290 -1.6830
  179SAPS    C220431   2.162   1.677   2.755 -0.3207  0.6463 -0.5265
  179SAPS    HS20432   2.214   1.591   2.803  0.0862  1.9597  1.4946
  179SAPS   O2120433   2.033   1.702   2.822 -0.4441 -0.3521 -0.5092
  179SAPS   C2120434   2.025   1.634   2.936 -0.1440  0.1707  0.4800
  179SAPS   O2220435   2.091   1.542   2.976  0.0336  0.2579 -0.4928
  179SAPS   C2220436   1.908   1.676   3.016  0.6497 -0.6734 -0.4193
  179SAPS   H2R20437   1.813   1.685   2.958  0.4254  0.3952  0.0894
  179SAPS   H2S20438   1.893   1.602   3.097 -0.5456 -0.5040 -0.4660
  179SAPS    C320439   2.259   1.791   2.787 -0.3139 -0.1833  0.2831
  179SAPS    HX20440   2.190   1.876   2.767  1.6088  1.2709 -0.4619
  179SAPS    HY20441   2.343   1.811   2.717 -2.3965 -1.9986 -2.9920
  179SAPS   O3120442   2.298   1.799   2.922 -0.5034  0.0198 -0.2803
  179SAPS   C3120443   2.403   1.733   2.958  0.1585 -0.1664  0.0594
  179SAPS   O3220444   2.462   1.651   2.883  0.0070 -0.4009 -0.3896
  179SAPS   C3220445   2.433   1.750   3.105 -0.3313 -0.4413  0.8251
  179SAPS   H2X20446   2.334   1.736   3.154 -1.0069 -1.4260 -0.7447
  179SAPS   H2Y20447   2.473   1.854   3.109  0.4294 -0.6278 -1.0415
  179SAPS   C2320448   1.931   1.815   3.083 -0.3420 -0.1482  0.3278
  179SAPS   H3R20449   1.967   1.886   3.006 -0.0733 -1.5191 -0.8504
  179SAPS   H3S20450   2.002   1.811   3.168  0.0930  1.3539  0.0638
  179SAPS   C2420451   1.797   1.864   3.137 -0.3851 -0.6455  0.5475
  179SAPS   H4R20452   1.746   1.787   3.198 -1.0235 -0.9429 -0.3349
  179SAPS   H4S20453   1.736   1.882   3.045 -0.3932 -1.7814  0.3213
  179SAPS   C2520454   1.817   1.996   3.209  0.0461 -0.3176 -0.0628
  179SAPS   H5R20455   1.855   2.068   3.135  0.1322 -1.4975 -1.1904
  179SAPS   C2620456   1.812   2.021   3.341 -0.1884  0.1094  0.5935
  179SAPS   H6R20457   1.830   2.120   3.387 -2.7829  0.0962  1.8418
  179SAPS   C2720458   1.765   1.916   3.433  0.2034  0.7626 -0.3311
  179SAPS   H7R20459   1.825   1.824   3.414 -1.0888 -0.2748  0.3666
  179SAPS   H7S20460   1.660   1.881   3.416  1.0901 -1.5485 -1.5121
  179SAPS   C2820461   1.792   1.962   3.575  0.2069 -0.6041 -0.3730
  179SAPS   H8R20462   1.881   2.026   3.587  0.5607 -1.1329 -0.1697
  179SAPS   C2920463   1.741   1.918   3.691  0.0604  0.6931  0.6472
  179SAPS   H9R20464   1.770   1.984   3.774  2.0727  0.1797  0.4047
  179SAPS  C21020465   1.638   1.807   3.710 -0.1943  0.5679 -0.1885
  179SAPS  H10R20466   1.693   1.710   3.720 -1.9511 -0.5799 -1.1268
  179SAPS  H10S20467   1.576   1.789   3.619  0.0168  1.7666 -0.5827
  179SAPS  C21120468   1.557   1.825   3.835 -0.0889 -0.1821  0.7144
  179SAPS  H11R20469   1.452   1.831   3.803 -0.0955 -1.6471  0.3766
  179SAPS  C21220470   1.594   1.835   3.969  0.1035  0.6643  0.5367
  179SAPS  H12R20471   1.513   1.841   4.042  0.9841 -0.5247  1.6545
  179SAPS  C21320472   1.732   1.838   4.034 -0.4649 -0.0095  0.3751
  179SAPS  H13R20473   1.811   1.822   3.957  0.9791  1.8119  1.4132
  179SAPS  H13S20474   1.737   1.747   4.097  3.4283 -2.3172 -2.7734
  179SAPS  C21420475   1.763   1.960   4.114 -0.8893  0.1794  0.7115
  179SAPS  H14R20476   1.742   2.054   4.060 -4.3324 -0.2629  1.0400
  179SAPS  C21520477   1.811   1.963   4.242  0.1547  0.3174  0.5012
  179SAPS  H15R20478   1.838   2.060   4.287 -1.0174  1.1175 -0.4296
  179SAPS  C21620479   1.837   1.848   4.330 -0.0782 -0.4949 -0.2735
  179SAPS  H16R20480   1.920   1.782   4.297 -0.7418 -0.9906 -1.0040
  179SAPS  H16S20481   1.749   1.781   4.337 -0.2157 -0.3343 -0.4437
  179SAPS  C21720482   1.883   1.896   4.475  0.8550  0.1347 -0.2963
  179SAPS  H17R20483   1.870   1.806   4.538  2.8194  0.5375  0.7644
  179SAPS  H17S20484   1.806   1.968   4.510  1.0586  0.4103 -0.4156
  179SAPS  C21820485   2.035   1.934   4.484 -0.2361 -0.8386  0.1575
  179SAPS  H18R20486   2.042   2.034   4.437  1.1222 -1.9604 -2.1548
  179SAPS  H18S20487   2.103   1.869   4.425 -0.1849 -1.1763  0.5831
  179SAPS  C21920488   2.095   1.939   4.626 -0.6464  0.3251  0.7755
  179SAPS  H19R20489   2.200   1.974   4.616 -0.7219  0.7058  1.2503
  179SAPS  H19S20490   2.100   1.838   4.672  1.3287 -0.8330 -1.7354
  179SAPS  C22020491   2.021   2.039   4.710  0.0631  0.3562 -0.8290
  179SAPS  H20R20492   1.934   1.991   4.759 -0.5113  1.8746 -0.2806
  179SAPS  H20S20493   1.986   2.134   4.664  2.1606  0.8545 -1.4905
  179SAPS  H20T20494   2.086   2.070   4.795 -2.2523  1.4433  0.6328
  179SAPS   C3320495   2.529   1.645   3.166  0.0853 -0.1065  0.3066
  179SAPS   H3X20496   2.622   1.643   3.105  0.5226 -4.6870  0.7759
  179SAPS   H3Y20497   2.483   1.544   3.171 -1.7074  0.7054  1.5086
  179SAPS   C3420498   2.600   1.684   3.298 -0.4846 -0.2800  0.5827
  179SAPS   H4X20499   2.518   1.694   3.372  0.1447 -0.4673  1.3102
  179SAPS   H4Y20500   2.658   1.777   3.282  0.8431 -1.3246 -1.0826
  179SAPS   C3520501   2.686   1.576   3.354  0.1234  0.0674 -0.2904
  179SAPS   H5X20502   2.760   1.536   3.280 -0.7595 -0.0993 -1.1004
  179SAPS   H5Y20503   2.621   1.488   3.371  1.0898 -0.7342 -0.6112
  179SAPS   C3620504   2.758   1.614   3.485 -0.1384  0.1692 -0.5028
  179SAPS   H6X20505   2.696   1.667   3.561 -0.6147  0.1198 -0.8564
  179SAPS   H6Y20506   2.844   1.681   3.465  0.2812 -0.0215  0.5980
  179SAPS   C3720507   2.826   1.493   3.554 -0.4156 -0.2244  1.2611
  179SAPS   H7X20508   2.891   1.451   3.475 -0.9347  1.2592 -0.0202
  179SAPS   H7Y20509   2.751   1.414   3.575 -0.1767 -0.9214 -0.3693
  179SAPS   C3820510   2.908   1.534   3.680  0.6947 -0.4640 -0.1446
  179SAPS   H8X20511   2.986   1.609   3.654 -0.6703  1.3165  0.6887
  179SAPS   H8Y20512   2.970   1.448   3.711 -0.2553 -0.9037  0.5662
  179SAPS   C3920513   2.826   1.590   3.800  0.6725 -0.3445  0.7218
  179SAPS   H9X20514   2.764   1.503   3.834 -1.4733  0.7996 -0.0599
  179SAPS   H9Y20515   2.763   1.676   3.768  0.4344 -0.7922 -0.0659
  179SAPS  C31020516   2.909   1.641   3.921 -0.5623 -0.0295  1.1414
  179SAPS  H10X20517   2.981   1.719   3.886  1.1320 -0.9185  2.4955
  179SAPS  H10Y20518   2.964   1.556   3.966 -0.2681 -0.4295  0.0783
  179SAPS  C31120519   2.808   1.709   4.013  0.7364  0.2701 -0.1586
  179SAPS  H11X20520   2.741   1.623   4.035 -0.6486  1.4408  0.3184
  179SAPS  H11Y20521   2.750   1.791   3.964  0.5755 -0.2470 -0.8557
  179SAPS  C31220522   2.872   1.757   4.151  0.2210  0.2057  0.4654
  179SAPS  H12X20523   2.895   1.865   4.136 -3.7011  1.2586  0.8418
  179SAPS  H12Y20524   2.958   1.690   4.168 -0.5982 -0.5314  1.9065
  179SAPS  C31320525   2.766   1.752   4.265 -0.3402 -0.0792 -0.4054
  179SAPS  H13X20526   2.717   1.655   4.288  1.1325 -0.4882  1.2685
  179SAPS  H13Y20527   2.694   1.826   4.225 -1.4990 -0.4559  0.9070
  179SAPS  C31420528   2.820   1.813   4.393  1.0690 -0.2527 -0.2183
  179SAPS  H14X20529   2.914   1.761   4.421  1.1418 -1.3740 -2.3402
  179SAPS  H14Y20530   2.744   1.783   4.469  0.1079  0.8298 -0.7155
  179SAPS  C31520531   2.840   1.966   4.391 -0.1929  0.0108  0.7742
  179SAPS  H15X20532   2.736   2.005   4.389  0.1643  1.0792 -2.5640
  179SAPS  H15Y20533   2.893   2.002   4.301 -2.3958  1.0089 -0.2062
  179SAPS  C31620534   2.925   2.016   4.510 -0.1780  0.1411  0.9938
  179SAPS  H16X20535   3.025   1.972   4.490 -0.3279 -0.5932  1.8249
  179SAPS  H16Y20536   2.904   1.962   4.604 -0.1935 -3.1606 -0.7839
  179SAPS  C31720537   2.936   2.168   4.522  0.0615  0.3678 -0.9466
  179SAPS  H17X20538   2.914   2.199   4.417  1.1776 -0.9279 -1.5872
  179SAPS  H17Y20539   3.037   2.208   4.545 -0.3794  0.9379  0.0381
  179SAPS  C31820540   2.826   2.224   4.605  0.3038 -0.2659  0.0282
  179SAPS  H18X20541   2.729   2.189   4.564  0.7063  0.5078 -1.6670
  179SAPS  H18Y20542   2.825   2.335   4.606 -2.0400 -0.2364  0.6988
  179SAPS  H18Z20543   2.850   2.198   4.711  2.3407  0.7658 -0.1248
  180SAPS     N20544   2.428   0.920   2.577 -0.1419  0.2845  0.0101
  180SAPS   HN120545   2.349   0.987   2.575  0.3175  0.9696 -3.8187
  180SAPS   HN220546   2.395   0.821   2.577 -0.3774  0.3652  0.2930
  180SAPS   HN320547   2.493   0.934   2.657 -0.3457 -1.1957  0.4598
  180SAPS   C1220548   2.514   0.942   2.459 -0.1466  0.1045  0.5323
  180SAPS  H12A20549   2.455   0.915   2.372 -1.4027  0.2368  1.3232
  180SAPS   C1320550   2.568   1.092   2.438 -0.0587  0.2782 -0.1123
  180SAPS  O13A20551   2.560   1.177   2.531 -0.1975 -0.0331  0.0273
  180SAPS  O13B20552   2.635   1.117   2.332 -0.1949  0.4357 -0.2442
  180SAPS   C1120553   2.641   0.853   2.475 -0.1357 -1.3213 -0.1153
  180SAPS  H11A20554   2.690   0.884   2.571  0.3189 -0.1440 -0.7019
  180SAPS  H11B20555   2.722   0.884   2.405 -0.1048  0.5854  0.6802
  180SAPS     P20556   2.726   0.611   2.489  0.0277 -0.1660  0.0939
  180SAPS   O1320557   2.741   0.557   2.353  0.3889  0.0842  0.1758
  180SAPS   O1420558   2.851   0.676   2.539 -0.0054  0.6653 -0.6193
  180SAPS   O1220559   2.607   0.714   2.486  0.0703  0.4305  0.2120
  180SAPS   O1120560   2.681   0.495   2.581  0.0852 -0.1706  0.6157
  180SAPS    C120561   2.543   0.463   2.616 -0.5085  0.3083 -0.3430
  180SAPS    HA20562   2.483   0.554   2.600  0.8168  1.3341  0.3411
  180SAPS    HB20563   2.493   0.393   2.545  1.2911  0.0912 -1.4759
  180SAPS    C220564   2.519   0.384   2.755 -0.3276  0.5097  1.1765
  180SAPS    HS20565   2.418   0.415   2.790 -0.9637  1.4359 -1.2792
  180SAPS   O2120566   2.619   0.421   2.853  0.2199  0.7118 -0.2197
  180SAPS   C2120567   2.624   0.542   2.895 -0.3208  0.6758  0.4604
  180SAPS   O2220568   2.547   0.636   2.879 -0.2163  0.5517  0.2606
  180SAPS   C2220569   2.760   0.548   2.965  0.5451 -0.3196 -0.7150
  180SAPS   H2R20570   2.836   0.510   2.894  1.1910 -2.1359  0.8397
  180SAPS   H2S20571   2.774   0.655   2.989 -1.0783  0.0973 -1.4719
  180SAPS    C320572   2.506   0.228   2.750 -0.1524 -0.9562  0.0245
  180SAPS    HX20573   2.588   0.180   2.692 -0.3864 -1.4980  0.1352
  180SAPS    HY20574   2.427   0.203   2.676 -0.4530 -2.3382  0.7712
  180SAPS   O3120575   2.469   0.167   2.874 -0.4147  1.2776 -0.0655
  180SAPS   C3120576   2.575   0.134   2.951  0.7508  0.4896  0.0759
  180SAPS   O3220577   2.692   0.137   2.926 -0.3022 -0.5503 -0.0261
  180SAPS   C3220578   2.526   0.075   3.087 -0.3029  0.3918  0.0009
  180SAPS   H2X20579   2.623   0.064   3.140  0.6744 -0.1770 -1.8298
  180SAPS   H2Y20580   2.477  -0.022   3.065 -1.6334  1.3124 -1.3276
  180SAPS   C2320581   2.766   0.468   3.096  0.1721 -0.4365  0.5628
  180SAPS   H3R20582   2.747   0.362   3.072 -2.3431  0.0306  0.1967
  180SAPS   H3S20583   2.682   0.503   3.161  0.8292 -1.0918  1.7881
  180SAPS   C2420584   2.898   0.484   3.173 -0.1898  0.2800  0.3460
  180SAPS   H4R20585   2.979   0.472   3.098  0.5759  0.9264  1.0485
  180SAPS   H4S20586   2.901   0.406   3.252 -2.6485 -0.8518 -0.5841
  180SAPS   C2520587   2.915   0.630   3.216 -0.6616 -0.4724 -0.0957
  180SAPS   H5R20588   2.962   0.701   3.146  0.2279  1.2101  2.0886
  180SAPS   C2620589   2.881   0.685   3.337  0.2420  0.2872  0.0431
  180SAPS   H6R20590   2.911   0.790   3.344 -1.1380  0.8800 -2.0580
  180SAPS   C2720591   2.830   0.615   3.458 -0.3183  0.2665  0.2446
  180SAPS   H7R20592   2.813   0.507   3.436 -1.5712  0.3249  0.7812
  180SAPS   H7S20593   2.729   0.659   3.474 -1.9129 -3.1162  0.4492
  180SAPS   C2820594   2.916   0.647   3.582  0.3699  0.0383 -0.3484
  180SAPS   H8R20595   2.919   0.754   3.605  0.5540  0.0677 -0.5068
  180SAPS   C2920596   2.984   0.563   3.665  0.0466  0.3910  0.0620
  180SAPS   H9R20597   3.027   0.599   3.759  0.6994 -2.6165  1.0094
  180SAPS  C21020598   2.987   0.410   3.644 -0.0088 -0.2582 -0.4743
  180SAPS  H10R20599   2.889   0.373   3.606 -0.6390 -1.4291  2.1143
  180SAPS  H10S20600   2.982   0.359   3.742 -2.2447  0.5166 -0.1290
  180SAPS  C21120601   3.100   0.371   3.548  0.3695 -0.4289 -0.3084
  180SAPS  H11R20602   3.093   0.418   3.450 -0.1388 -1.7313 -0.9295
  180SAPS  C21220603   3.195   0.285   3.582 -0.4277  0.4060 -0.3427
  180SAPS  H12R20604   3.272   0.279   3.503  0.8719 -0.4629  0.9348
  180SAPS  C21320605   3.230   0.210   3.709  0.5871 -0.3345  0.0205
  180SAPS  H13R20606   3.326   0.155   3.695  1.0292 -0.3348  2.5080
  180SAPS  H13S20607   3.153   0.131   3.726  0.7655 -0.6566 -0.6604
  180SAPS  C21420608   3.251   0.301   3.828  1.3168  0.2660  0.0565
  180SAPS  H14R20609   3.345   0.356   3.810  0.6036  0.8851 -2.0459
  180SAPS  C21520610   3.185   0.305   3.945  0.9641  0.2744  0.5148
  180SAPS  H15R20611   3.219   0.379   4.020  0.9537  2.9681 -1.9535
  180SAPS  C21620612   3.063   0.223   3.982 -0.5186  0.1713 -0.4072
  180SAPS  H16R20613   3.033   0.161   3.895  1.8979 -1.1309 -0.4196
  180SAPS  H16S20614   2.980   0.288   4.015  0.7016  0.8491  1.5175
  180SAPS  C21720615   3.103   0.134   4.099  0.5793  0.6012  0.0840
  180SAPS  H17R20616   3.181   0.059   4.073 -1.4624 -1.9508  0.9101
  180SAPS  H17S20617   3.020   0.065   4.123  1.5628 -0.2969  1.0045
  180SAPS  C21820618   3.135   0.211   4.223 -0.7650 -0.6159  0.4203
  180SAPS  H18R20619   3.090   0.312   4.216 -1.6972 -1.0912 -0.7337
  180SAPS  H18S20620   3.243   0.231   4.240 -0.9807  1.9561 -0.7553
  180SAPS  C21920621   3.072   0.156   4.350  0.5606  0.2019  0.3303
  180SAPS  H19R20622   2.965   0.131   4.336  1.0781 -2.8093  0.9511
  180SAPS  H19S20623   3.077   0.223   4.438  0.6995 -0.3529  0.7465
  180SAPS  C22020624   3.125   0.020   4.392  0.0375 -0.2279  0.2339
  180SAPS  H20R20625   3.236   0.021   4.405  0.3570  1.9401 -1.9022
  180SAPS  H20S20626   3.074  -0.011   4.485  1.0492  2.3187  1.7605
  180SAPS  H20T20627   3.106  -0.049   4.308  2.2673  2.4539 -2.7522
  180SAPS   C3320628   2.438   0.171   3.170 -0.1277 -0.2272 -0.3443
  180SAPS   H3X20629   2.329   0.159   3.152  0.2794 -0.8131 -2.7380
  180SAPS   H3Y20630   2.462   0.278   3.148  0.4352 -0.3014 -0.1103
  180SAPS   C3420631   2.460   0.156   3.318  0.1705 -0.3354 -0.5704
  180SAPS   H4X20632   2.567   0.171   3.346 -0.0185 -0.9300  0.4982
  180SAPS   H4Y20633   2.427   0.054   3.345  2.2624 -0.9866 -0.2726
  180SAPS   C3520634   2.369   0.240   3.406  0.3364 -0.1825  0.1528
  180SAPS   H5X20635   2.264   0.203   3.397  0.2252 -0.0052  0.6941
  180SAPS   H5Y20636   2.370   0.350   3.396  1.5626 -0.3611 -2.3511
  180SAPS   C3620637   2.391   0.217   3.552 -0.1411  0.1390  0.0549
  180SAPS   H6X20638   2.387   0.106   3.550 -3.3052  0.1897 -0.2419
  180SAPS   H6Y20639   2.303   0.253   3.609 -1.4663 -1.5082 -0.8694
  180SAPS   C3720640   2.517   0.274   3.607 -0.4612 -0.2247 -0.0759
  180SAPS   H7X20641   2.504   0.383   3.589 -1.7170 -0.3011  0.2629
  180SAPS   H7Y20642   2.609   0.250   3.549  0.7791 -0.0632  1.7613
  180SAPS   C3820643   2.542   0.244   3.759 -0.1326 -0.2352 -0.3748
  180SAPS   H8X20644   2.600   0.150   3.765  1.7695  0.9200 -0.0772
  180SAPS   H8Y20645   2.438   0.231   3.796 -0.0920  0.4421 -0.0013
  180SAPS   C3920646   2.623   0.351   3.839  0.4352  0.3934 -0.9239
  180SAPS   H9X20647   2.571   0.449   3.834 -0.5009  0.0390  0.8686
  180SAPS   H9Y20648   2.721   0.361   3.788 -0.0229 -2.7713 -2.6765
  180SAPS  C31020649   2.643   0.310   3.985  0.1291 -0.2556 -0.1331
  180SAPS  H10X20650   2.718   0.383   4.022 -0.4583 -0.6912  2.0815
  180SAPS  H10Y20651   2.691   0.210   3.986  1.1019  0.1964  0.1429
  180SAPS  C31120652   2.514   0.312   4.065  0.1244 -0.1589 -0.1443
  180SAPS  H11X20653   2.455   0.226   4.026  1.5386  0.1946 -3.4135
  180SAPS  H11Y20654   2.460   0.409   4.052 -1.3101 -0.9313 -0.0687
  180SAPS  C31220655   2.542   0.291   4.216  0.2231  0.0641 -0.1991
  180SAPS  H12X20656   2.614   0.370   4.246  1.6652 -1.1833 -0.2566
  180SAPS  H12Y20657   2.592   0.194   4.236 -1.4937 -0.7211  0.4808
  180SAPS  C31320658   2.411   0.294   4.296 -0.1116 -0.5884 -0.4307
  180SAPS  H13X20659   2.342   0.216   4.257  1.6940 -1.4912 -1.9793
  180SAPS  H13Y20660   2.354   0.388   4.279 -1.8314 -1.2827  1.1620
  180SAPS  C31420661   2.420   0.267   4.453  0.0795  0.0732  0.0958
  180SAPS  H14X20662   2.456   0.164   4.476 -0.3546 -0.1064 -0.0324
  180SAPS  H14Y20663   2.314   0.282   4.482  0.5813 -0.0448  2.1522
  180SAPS  C31520664   2.512   0.371   4.514  0.1800 -0.0510 -0.0635
  180SAPS  H15X20665   2.469   0.469   4.484  1.3266  0.5890  0.3019
  180SAPS  H15Y20666   2.613   0.373   4.467 -0.2252 -2.2527 -1.1403
  180SAPS  C31620667   2.540   0.362   4.667  0.5082 -0.3400 -0.0232
  180SAPS  H16X20668   2.599   0.269   4.678  0.1481 -0.8558 -1.9827
  180SAPS  H16Y20669   2.436   0.348   4.705 -0.1369  1.4121 -1.0001
  180SAPS  C31720670   2.606   0.482   4.732 -0.6891  0.1793 -0.9916
  180SAPS  H17X20671   2.554   0.579   4.744  0.8931  0.7988  1.5922
  180SAPS  H17Y20672   2.702   0.499   4.679 -1.5544  3.7568 -1.6393
  180SAPS  C31820673   2.643   0.450   4.885  0.1555  0.2062 -1.2328
  180SAPS  H18X20674   2.712   0.531   4.915  1.6414 -0.6804 -2.1355
  180SAPS  H18Y20675   2.688   0.349   4.898 -1.7411 -0.5974 -0.4335
  180SAPS  H18Z20676   2.551   0.445   4.947  0.5805 -2.9156 -0.6987
  181POPC     N20677   4.856   1.637   6.958 -0.0155  0.3769 -0.1455
  181POPC   C1220678   4.882   1.675   6.807 -0.4108 -0.4006 -0.3836
  181POPC  H12A20679   4.783   1.680   6.766 -0.6306 -1.1659  0.0322
  181POPC  H12B20680   4.928   1.591   6.758 -0.6131 -0.4267 -0.5295
  181POPC   C1320681   4.795   1.747   7.040 -0.2572  0.7022  0.2987
  181POPC  H13A20682   4.697   1.779   7.011 -0.1187  0.9761  0.1326
  181POPC  H13B20683   4.792   1.716   7.143 -2.1538 -0.9961 -0.2029
  181POPC  H13C20684   4.857   1.836   7.038 -1.0506  1.3871  3.0221
  181POPC   C1420685   4.770   1.511   6.969 -0.2192 -0.5561 -0.4987
  181POPC  H14A20686   4.788   1.468   7.067  0.9736  0.6373 -0.1558
  181POPC  H14B20687   4.664   1.524   6.961 -0.4779 -2.1362 -0.0555
  181POPC  H14C20688   4.797   1.430   6.902 -0.8369 -1.6540  0.5376
  181POPC   C1520689   4.987   1.618   7.035  0.7468  0.1807 -0.4456
  181POPC  H15A20690   4.972   1.588   7.137 -2.9510 -1.0937 -1.2323
  181POPC  H15B20691   5.037   1.714   7.026  0.7584  0.1807 -0.3781
  181POPC  H15C20692   5.047   1.548   6.979 -0.3168 -0.3586 -0.9411
  181POPC   C1120693   4.958   1.804   6.768 -0.1854 -0.1213  0.3656
  181POPC  H11A20694   4.891   1.884   6.805 -0.4907 -1.0885  2.0232
  181POPC  H11B20695   4.970   1.813   6.658  1.1914 -1.2384  0.3954
  181POPC     P20696   5.150   1.953   6.843 -0.3952 -0.1635  0.1906
  181POPC   O1320697   5.300   1.942   6.849 -0.1106  0.5395  0.1455
  181POPC   O1420698   5.082   2.028   6.949  0.2461 -0.4087 -0.1484
  181POPC   O1220699   5.090   1.810   6.829  0.2309  0.2106  0.0948
  181POPC   O1120700   5.105   2.015   6.704  0.2388 -0.1770  0.3716
  181POPC    C120701   5.186   2.018   6.591 -0.5481 -0.0583 -1.4454
  181POPC    HA20702   5.206   1.915   6.555 -0.6812 -0.0701 -1.4861
  181POPC    HB20703   5.290   2.048   6.616 -0.0466 -1.4928 -1.7334
  181POPC    C220704   5.134   2.104   6.476 -0.1254  0.2344  0.9662
  181POPC    HS20705   5.124   2.209   6.511 -0.9172  1.0004 -1.4041
  181POPC   O2120706   5.014   2.047   6.422 -0.2623  0.1226 -0.6485
  181POPC   C2120707   4.922   2.129   6.390  0.1056 -0.1817 -0.1448
  181POPC   O2220708   4.937   2.250   6.376  0.0245  0.2252 -0.0071
  181POPC   C2220709   4.796   2.049   6.378  0.3254 -0.4001 -0.8074
  181POPC   H2R20710   4.757   2.022   6.479  1.8733  0.3330  0.0111
  181POPC   H2S20711   4.812   1.953   6.325  2.8160 -0.6394  0.2423
  181POPC    C320712   5.239   2.106   6.366  0.8242  0.1566 -0.2549
  181POPC    HX20713   5.260   2.001   6.336 -0.6695 -0.2290 -0.0686
  181POPC    HY20714   5.337   2.149   6.396  1.2649 -0.9300 -0.1158
  181POPC   O3120715   5.193   2.165   6.241 -0.3348  0.1494 -0.0956
  181POPC   C3120716   5.207   2.296   6.232  0.2308 -0.4553 -0.6147
  181POPC   O3220717   5.243   2.366   6.326 -0.4514  0.0499  0.1880
  181POPC   C3220718   5.158   2.350   6.098 -0.0314 -0.3360 -0.1938
  181POPC   H2X20719   5.054   2.385   6.115 -0.8284 -2.8010  0.4799
  181POPC   H2Y20720   5.151   2.262   6.030  0.3311  0.0197 -0.6956
  181POPC   C2320721   4.688   2.139   6.306 -1.3444 -0.0599  0.0991
  181POPC   H3R20722   4.664   2.233   6.360 -3.8357  0.0866 -1.1407
  181POPC   H3S20723   4.594   2.082   6.319  0.1779 -2.6015  0.6878
  181POPC   C2420724   4.731   2.167   6.163 -0.6673 -0.2099 -0.5554
  181POPC   H4R20725   4.737   2.068   6.114  2.1376 -0.0084 -0.7875
  181POPC   H4S20726   4.826   2.221   6.141 -0.5982 -0.1197 -0.0647
  181POPC   C2520727   4.612   2.237   6.086 -0.3925  0.1496  0.3902
  181POPC   H5R20728   4.652   2.340   6.072  0.8712 -0.1775  1.3527
  181POPC   H5S20729   4.515   2.255   6.137 -0.8659 -1.0362 -0.0795
  181POPC   C2620730   4.579   2.184   5.943 -0.7775  0.7326 -0.1922
  181POPC   H6R20731   4.502   2.251   5.900  0.5349  0.5734 -3.0223
  181POPC   H6S20732   4.539   2.080   5.936  1.3333 -0.0843 -1.2986
  181POPC   C2720733   4.700   2.183   5.847  0.4337  0.3362  0.0264
  181POPC   H7R20734   4.665   2.131   5.755  2.8657 -2.2276  0.4273
  181POPC   H7S20735   4.790   2.130   5.884 -0.2053 -1.6257 -1.0508
  181POPC   C2820736   4.739   2.327   5.800  0.0713  0.2063  0.0647
  181POPC   H8R20737   4.829   2.305   5.740 -1.5581 -1.4219 -1.9461
  181POPC   H8S20738   4.774   2.382   5.890 -0.8120  2.0779 -0.6859
  181POPC   C2920739   4.643   2.405   5.715 -0.3707 -0.4689 -0.0873
  181POPC   H9120740   4.626   2.368   5.613  2.1324 -1.6224 -0.1500
  181POPC  C21020741   4.578   2.514   5.753 -0.0470 -0.7973  0.1111
  181POPC  H10120742   4.514   2.561   5.677 -2.3380 -1.6649  1.4124
  181POPC  C21120743   4.594   2.584   5.881 -0.6102 -0.4951 -0.3766
  181POPC  H11R20744   4.603   2.693   5.860  2.7120 -0.6989 -0.6211
  181POPC  H11S20745   4.681   2.548   5.939 -2.1503 -1.1556  1.6147
  181POPC  C21220746   4.472   2.569   5.980 -0.3187  0.2649 -0.4032
  181POPC  H12R20747   4.457   2.465   6.013 -0.9639 -0.1742 -1.9859
  181POPC  H12S20748   4.378   2.600   5.928 -0.1334 -0.4688 -1.1993
  181POPC  C21320749   4.490   2.660   6.102  0.1721  0.5167  0.2514
  181POPC  H13R20750   4.500   2.765   6.064 -0.7445  0.2784 -0.6860
  181POPC  H13S20751   4.582   2.636   6.159  0.1934  1.1177  0.4876
  181POPC  C21420752   4.362   2.646   6.193 -0.2686 -0.0470  0.0354
  181POPC  H14R20753   4.269   2.662   6.135 -1.8854  1.9357  2.8791
  181POPC  H14S20754   4.356   2.740   6.252 -1.4822  1.3792 -2.1916
  181POPC  C21520755   4.345   2.517   6.266 -0.4402  0.6082 -0.1497
  181POPC  H15R20756   4.437   2.506   6.327 -0.4078 -0.0040 -0.3036
  181POPC  H15S20757   4.346   2.426   6.203 -1.4455  0.7283 -0.3622
  181POPC  C21620758   4.211   2.505   6.338  0.5300 -0.3551 -0.4930
  181POPC  H16R20759   4.127   2.521   6.268  1.2877 -0.2791 -1.4065
  181POPC  H16S20760   4.201   2.587   6.412 -3.0000  0.4325 -1.6478
  181POPC  C21720761   4.188   2.382   6.423  0.6201 -0.0334 -0.2669
  181POPC  H17R20762   4.198   2.292   6.359  2.1650  1.1178 -1.7420
  181POPC  H17S20763   4.083   2.387   6.459  0.6568 -0.3031 -0.1224
  181POPC  C21820764   4.289   2.368   6.541 -0.2328 -0.6519  0.3145
  181POPC  H18R20765   4.251   2.292   6.612  0.2603 -0.6359  0.6006
  181POPC  H18S20766   4.306   2.461   6.600  0.9194 -0.2315 -0.6156
  181POPC  H18T20767   4.393   2.347   6.507 -0.1528 -0.5322  0.4804
  181POPC   C3320768   5.243   2.469   6.042  0.5071  0.4188 -0.5414
  181POPC   H3X20769   5.282   2.534   6.124 -1.5897  1.1046 -0.0237
  181POPC   H3Y20770   5.187   2.544   5.982  3.0203  1.9054 -1.1611
  181POPC   C3420771   5.361   2.407   5.960 -0.5336  0.7903  0.5743
  181POPC   H4X20772   5.400   2.313   6.004 -1.7113  0.4645  0.9412
  181POPC   H4Y20773   5.443   2.482   5.951  0.4719 -0.4159 -0.8604
  181POPC   C3520774   5.312   2.341   5.829 -0.4398  0.9548 -0.7223
  181POPC   H5X20775   5.210   2.300   5.843  0.6053 -0.9436  2.3082
  181POPC   H5Y20776   5.377   2.259   5.792 -0.5130  1.1783 -1.3727
  181POPC   C3620777   5.306   2.453   5.723 -0.3339 -0.2414  0.1746
  181POPC   H6X20778   5.413   2.482   5.719  0.2072 -1.4469  3.2285
  181POPC   H6Y20779   5.239   2.538   5.750 -0.4643  0.9319 -3.3265
  181POPC   C3720780   5.263   2.394   5.588  0.2675 -0.3161 -0.4834
  181POPC   H7X20781   5.157   2.362   5.593  0.3318 -0.3766  0.8310
  181POPC   H7Y20782   5.329   2.308   5.563 -0.7697 -0.9015 -1.2472
  181POPC   C3820783   5.285   2.502   5.476  0.0476 -0.2834 -0.7487
  181POPC   H8X20784   5.378   2.560   5.493 -1.1267  1.4385  0.1322
  181POPC   H8Y20785   5.210   2.583   5.488 -0.1286 -0.3855 -1.1627
  181POPC   C3920786   5.290   2.455   5.327  0.2176 -0.3193 -0.5095
  181POPC   H9X20787   5.385   2.414   5.286 -0.6681 -1.4956 -1.4627
  181POPC   H9Y20788   5.279   2.542   5.260  1.7147 -0.1775 -0.5945
  181POPC  C31020789   5.182   2.349   5.294 -0.1573 -0.3470 -0.4158
  181POPC  H10X20790   5.088   2.404   5.311  1.3005  1.6214  1.9758
  181POPC  H10Y20791   5.172   2.273   5.375 -1.0902 -1.1799 -1.2801
  181POPC  C31120792   5.201   2.290   5.156  0.0469  0.1392 -0.0020
  181POPC  H11X20793   5.236   2.366   5.083 -1.6432  1.2009  0.2300
  181POPC  H11Y20794   5.107   2.241   5.123  0.5562 -0.5292 -0.4783
  181POPC  C31220795   5.310   2.180   5.167 -0.3308 -0.1031 -0.1870
  181POPC  H12X20796   5.367   2.195   5.261 -0.6140 -0.7129  0.0820
  181POPC  H12Y20797   5.372   2.202   5.077 -0.3121  2.2724  0.3346
  181POPC  C31320798   5.255   2.042   5.173  0.6103  0.0888 -0.2623
  181POPC  H13X20799   5.244   2.010   5.068 -1.5341 -1.6359  0.4144
  181POPC  H13Y20800   5.156   2.051   5.223  1.6033  1.6993  1.5717
  181POPC  C31420801   5.329   1.941   5.265  0.1869 -0.1552  0.1344
  181POPC  H14X20802   5.330   1.967   5.373 -1.1482 -0.1530  0.1615
  181POPC  H14Y20803   5.439   1.947   5.247  0.1956  3.1238  0.6021
  181POPC  C31520804   5.277   1.793   5.227  0.1080 -0.7339  0.5948
  181POPC  H15X20805   5.305   1.770   5.122 -1.9651 -3.3497  0.5054
  181POPC  H15Y20806   5.166   1.794   5.236 -0.1723 -2.0417 -1.8681
  181POPC  C31620807   5.347   1.687   5.311 -0.0246 -0.2829  0.0612
  181POPC  H16X20808   5.455   1.669   5.294  0.0749 -0.1050  0.4853
  181POPC  H16Y20809   5.297   1.590   5.291  1.5636 -1.5346  1.7635
  181POPC  H16Z20810   5.346   1.703   5.421  0.5472  0.6168 -0.0513
  182POPC     N20811   1.809   5.485   6.967 -0.2736 -0.3532 -0.1539
  182POPC   C1220812   1.812   5.373   6.859 -0.1776 -0.0312 -0.3857
  182POPC  H12A20813   1.783   5.283   6.911  4.8522 -0.3954  2.4430
  182POPC  H12B20814   1.914   5.353   6.829 -0.3595 -1.3480 -0.1776
  182POPC   C1320815   1.891   5.452   7.085  0.2230 -0.7021 -0.7479
  182POPC  H13A20816   1.862   5.363   7.138 -1.8464 -0.3475 -1.1811
  182POPC  H13B20817   1.998   5.450   7.071  0.3872  1.0208 -0.0132
  182POPC  H13C20818   1.863   5.529   7.155  0.3358 -0.8108 -0.5812
  182POPC   C1420819   1.868   5.611   6.902  0.4779  0.1284 -0.1942
  182POPC  H14A20820   1.976   5.613   6.904  0.5919 -1.3405 -1.8777
  182POPC  H14B20821   1.840   5.619   6.798 -0.7162  1.4011  0.2006
  182POPC  H14C20822   1.834   5.700   6.952 -2.6968 -0.3182 -1.3385
  182POPC   C1520823   1.670   5.514   7.006  0.0906  0.2125  0.1309
  182POPC  H15A20824   1.658   5.582   7.089 -0.6109  0.2292  0.0208
  182POPC  H15B20825   1.630   5.422   7.047  0.6501  0.2820  0.8393
  182POPC  H15C20826   1.610   5.541   6.920 -1.8854 -0.1078  1.3520
  182POPC   C1120827   1.711   5.379   6.741 -0.3968 -0.6614  0.4047
  182POPC  H11A20828   1.612   5.364   6.789 -0.4891  0.1787  0.4826
  182POPC  H11B20829   1.724   5.287   6.681 -0.0383 -1.1603  1.2194
  182POPC     P20830   1.777   5.500   6.524  0.1316  0.1170  0.2263
  182POPC   O1320831   1.897   5.409   6.522  0.3862  0.5814  0.3001
  182POPC   O1420832   1.785   5.642   6.477 -0.3596 -0.6179  0.1946
  182POPC   O1220833   1.717   5.496   6.667 -0.3778 -0.2932 -0.0965
  182POPC   O1120834   1.662   5.426   6.444 -0.2130 -0.6401 -0.6040
  182POPC    C120835   1.526   5.477   6.432 -0.4416  0.0360 -0.3394
  182POPC    HA20836   1.519   5.557   6.508  0.9025  0.0727 -0.2367
  182POPC    HB20837   1.455   5.397   6.462  0.2310 -0.6357 -0.5177
  182POPC    C220838   1.487   5.513   6.290  0.0832 -0.4048 -0.3172
  182POPC    HS20839   1.391   5.568   6.297 -0.0634 -0.8585  2.2028
  182POPC   O2120840   1.494   5.393   6.210  0.1975  0.1352  0.0314
  182POPC   C2120841   1.415   5.406   6.105 -0.4489 -0.5934 -0.4232
  182POPC   O2220842   1.326   5.489   6.084  0.0837 -0.6227 -0.2465
  182POPC   C2220843   1.432   5.282   6.016 -0.4780  0.1646  0.1914
  182POPC   H2R20844   1.385   5.192   6.062 -0.5540 -0.5109 -1.1505
  182POPC   H2S20845   1.541   5.260   6.008 -0.9142 -2.9244  1.1424
  182POPC    C320846   1.593   5.619   6.233  0.6722  0.2387  0.4322
  182POPC    HX20847   1.696   5.579   6.223  1.1236  1.4808 -0.0460
  182POPC    HY20848   1.601   5.704   6.304 -2.2212 -0.0220  1.2238
  182POPC   O3120849   1.553   5.669   6.098 -0.0910  0.4190  0.3179
  182POPC   C3120850   1.458   5.766   6.086  0.0354 -0.4768 -0.1438
  182POPC   O3220851   1.406   5.830   6.174 -0.2333 -0.5646 -0.2724
  182POPC   C3220852   1.417   5.790   5.941 -0.1254 -0.3477 -0.4225
  182POPC   H2X20853   1.457   5.888   5.906 -0.2940 -0.9635 -2.4700
  182POPC   H2Y20854   1.306   5.794   5.947 -0.1740 -1.7537  5.2747
  182POPC   C2320855   1.367   5.293   5.880 -0.1028  0.9503 -0.6081
  182POPC   H3R20856   1.386   5.384   5.820  0.8432  1.0342 -0.2050
  182POPC   H3S20857   1.257   5.302   5.891  0.0614  1.6847  0.6201
  182POPC   C2420858   1.388   5.179   5.784  0.2693  0.0114 -0.0560
  182POPC   H4R20859   1.365   5.083   5.833 -0.6880 -0.3896 -1.2185
  182POPC   H4S20860   1.498   5.168   5.772  0.2738 -1.7205  1.2142
  182POPC   C2520861   1.298   5.186   5.654 -0.0755 -0.3153 -0.6625
  182POPC   H5R20862   1.332   5.270   5.590 -1.0316  0.0949 -0.6374
  182POPC   H5S20863   1.188   5.182   5.669 -0.2952 -0.3861 -2.1394
  182POPC   C2620864   1.330   5.067   5.563  0.1609  0.0852 -0.2233
  182POPC   H6R20865   1.245   5.066   5.491  0.2057 -0.2368 -0.2742
  182POPC   H6S20866   1.334   4.980   5.632  0.4102 -0.4998 -0.9590
  182POPC   C2720867   1.462   5.079   5.490 -0.0544  0.1935 -0.0381
  182POPC   H7R20868   1.545   5.094   5.562  0.4084 -2.0516 -0.0211
  182POPC   H7S20869   1.458   5.162   5.416 -2.3653 -0.2913 -0.5456
  182POPC   C2820870   1.497   4.955   5.404  0.0678 -0.1213 -0.4939
  182POPC   H8R20871   1.404   4.950   5.343 -0.3409 -0.9518  0.1731
  182POPC   H8S20872   1.508   4.865   5.469 -2.3845  1.2351  2.0089
  182POPC   C2920873   1.627   4.965   5.327 -0.6334 -0.4835 -0.0810
  182POPC   H9120874   1.714   4.958   5.394 -1.7033  0.8807  1.5023
  182POPC  C21020875   1.636   4.983   5.197  0.2168 -0.1403 -0.0149
  182POPC  H10120876   1.739   4.980   5.158  0.3592 -1.6254  0.3914
  182POPC  C21120877   1.526   5.001   5.088 -0.3393 -0.4729  0.1832
  182POPC  H11R20878   1.437   4.948   5.127 -0.5536 -0.7053 -0.6133
  182POPC  H11S20879   1.551   4.941   4.998 -1.2871 -2.6279  1.2990
  182POPC  C21220880   1.518   5.151   5.040 -0.2895  0.0490  0.2254
  182POPC  H12R20881   1.609   5.176   4.982 -0.1891  0.1542  0.4297
  182POPC  H12S20882   1.500   5.218   5.126 -2.3948 -0.7709  0.4813
  182POPC  C21320883   1.411   5.164   4.932 -0.4492  0.4948 -0.0948
  182POPC  H13R20884   1.321   5.106   4.962 -0.5439  0.7136  0.0443
  182POPC  H13S20885   1.447   5.117   4.838 -1.8985 -0.8194 -0.0252
  182POPC  C21420886   1.371   5.306   4.912 -0.2876  0.1001  0.4577
  182POPC  H14R20887   1.460   5.369   4.890 -0.1504 -0.6458 -1.3490
  182POPC  H14S20888   1.328   5.335   5.010 -1.5753 -2.5339  0.7805
  182POPC  C21520889   1.268   5.313   4.797 -0.7969  0.0911 -0.1664
  182POPC  H15R20890   1.171   5.260   4.813 -1.1348  0.4092 -1.0544
  182POPC  H15S20891   1.310   5.265   4.706 -0.0585 -0.0109  0.2236
  182POPC  C21620892   1.235   5.455   4.757  0.3801  0.0849  0.0086
  182POPC  H16R20893   1.322   5.525   4.761 -0.1717  0.8591 -1.1195
  182POPC  H16S20894   1.177   5.491   4.845  0.5260 -1.0954  0.6072
  182POPC  C21720895   1.152   5.466   4.627 -0.3593 -0.2614 -0.1031
  182POPC  H17R20896   1.061   5.405   4.642  1.0057 -2.0215  1.6063
  182POPC  H17S20897   1.204   5.418   4.541 -1.5002  0.0742 -1.0026
  182POPC  C21820898   1.116   5.612   4.579  0.4067  0.5993 -0.3555
  182POPC  H18R20899   1.066   5.665   4.663  2.8703  0.6777  1.1726
  182POPC  H18S20900   1.069   5.614   4.478  2.5192 -1.9461 -1.5034
  182POPC  H18T20901   1.213   5.667   4.578 -0.0133  1.5703  2.6588
  182POPC   C3320902   1.475   5.680   5.854  0.3809  0.4824 -0.3515
  182POPC   H3X20903   1.441   5.578   5.880 -0.6401  0.7215 -0.7077
  182POPC   H3Y20904   1.585   5.676   5.869  0.1588 -1.0463  1.1388
  182POPC   C3420905   1.470   5.707   5.701 -0.4485  0.6640 -0.7222
  182POPC   H4X20906   1.522   5.803   5.681 -0.2645  0.6100 -0.5086
  182POPC   H4Y20907   1.367   5.732   5.668 -0.5821  0.3034 -0.5793
  182POPC   C3520908   1.526   5.587   5.613  0.9040 -0.3131 -0.2781
  182POPC   H5X20909   1.465   5.497   5.632 -0.5585  0.6204 -0.4128
  182POPC   H5Y20910   1.630   5.560   5.641  3.1015  2.2922 -4.7042
  182POPC   C3620911   1.514   5.618   5.461  0.3019  0.0498 -0.2428
  182POPC   H6X20912   1.584   5.703   5.446  3.1224 -1.9977  0.3812
  182POPC   H6Y20913   1.406   5.634   5.440 -0.3711 -1.6436  1.5903
  182POPC   C3720914   1.577   5.507   5.376  0.3000  0.8753  0.6151
  182POPC   H7X20915   1.546   5.409   5.418  2.9600 -0.3362 -0.0117
  182POPC   H7Y20916   1.687   5.507   5.387  0.5511 -2.4204 -0.7591
  182POPC   C3820917   1.534   5.507   5.222 -0.1894 -0.1915  0.1639
  182POPC   H8X20918   1.425   5.519   5.211 -0.3234  0.1865  1.6761
  182POPC   H8Y20919   1.565   5.417   5.164 -0.3464 -0.9315  1.1840
  182POPC   C3920920   1.600   5.627   5.152  0.8908  0.6099  0.5433
  182POPC   H9X20921   1.708   5.606   5.137  0.4607  0.2903 -2.8482
  182POPC   H9Y20922   1.567   5.719   5.205  0.2899  0.7082  0.0079
  182POPC  C31020923   1.561   5.631   5.003  0.2791 -0.2251 -0.2642
  182POPC  H10X20924   1.460   5.677   5.001 -0.1124 -1.0632  0.0030
  182POPC  H10Y20925   1.551   5.526   4.968 -3.5672 -0.6390  1.6100
  182POPC  C31120926   1.657   5.708   4.912  0.1146  0.4569 -0.4263
  182POPC  H11X20927   1.764   5.681   4.926  0.0732  0.9673  1.0230
  182POPC  H11Y20928   1.648   5.817   4.930  1.7410  1.0745 -2.8917
  182POPC  C31220929   1.630   5.695   4.760 -0.9925  0.5474  0.8387
  182POPC  H12X20930   1.528   5.733   4.736 -0.9850 -0.1186 -0.3841
  182POPC  H12Y20931   1.633   5.588   4.728  0.0433 -0.2581  3.3789
  182POPC  C31320932   1.728   5.774   4.680  0.0732  0.6915  0.1915
  182POPC  H13X20933   1.830   5.746   4.712 -0.2729 -1.2206 -0.2794
  182POPC  H13Y20934   1.708   5.882   4.699 -1.8453  0.4005  0.0363
  182POPC  C31420935   1.707   5.759   4.526 -0.2602 -1.0242  0.0672
  182POPC  H14X20936   1.597   5.752   4.510 -0.4487  2.6155 -1.2352
  182POPC  H14Y20937   1.754   5.664   4.495  1.6405  0.2704 -1.2339
  182POPC  C31520938   1.764   5.877   4.450 -0.0811  0.6459 -0.4836
  182POPC  H15X20939   1.869   5.908   4.465  0.1548  0.6003 -1.8595
  182POPC  H15Y20940   1.701   5.967   4.464  0.7694  0.8747  2.4249
  182POPC  C31620941   1.760   5.843   4.304 -0.7705  0.3324 -0.3512
  182POPC  H16X20942   1.806   5.742   4.303 -3.3351 -0.9249  0.4577
  182POPC  H16Y20943   1.817   5.914   4.240 -1.8494  0.9553 -0.6562
  182POPC  H16Z20944   1.656   5.833   4.265 -1.0683 -0.4382  0.5984
  183POPC     N20945   5.370   5.676   7.124 -0.2648  0.1716 -0.1316
  183POPC   C1220946   5.466   5.624   7.025 -0.0367  0.3968  0.3865
  183POPC  H12A20947   5.411   5.565   6.953 -0.1865 -0.2518  1.0182
  183POPC  H12B20948   5.535   5.553   7.069  0.2319 -0.1205 -0.8362
  183POPC   C1320949   5.444   5.744   7.231  0.0797 -0.1560 -0.3423
  183POPC  H13A20950   5.381   5.795   7.303 -0.2743  0.0989 -0.8244
  183POPC  H13B20951   5.513   5.682   7.286 -0.0773  1.3545  1.6634
  183POPC  H13C20952   5.506   5.823   7.192  2.8288 -1.0080  1.9872
  183POPC   C1420953   5.271   5.765   7.059 -0.3293 -0.8024 -0.3469
  183POPC  H14A20954   5.215   5.820   7.133 -1.1644 -2.0020 -0.0608
  183POPC  H14B20955   5.322   5.836   6.996 -1.9018 -1.0788 -2.0158
  183POPC  H14C20956   5.198   5.708   7.003 -1.2376  0.1537 -0.1743
  183POPC   C1520957   5.279   5.571   7.181 -0.0255 -0.6558  0.2844
  183POPC  H15A20958   5.331   5.495   7.237 -2.2510 -2.0531  0.5748
  183POPC  H15B20959   5.231   5.516   7.101  2.4592 -0.1240 -1.7068
  183POPC  H15C20960   5.204   5.616   7.245 -0.0246  1.9341 -1.3587
  183POPC   C1120961   5.538   5.726   6.935  1.0617 -0.0361  1.0007
  183POPC  H11A20962   5.634   5.678   6.904 -0.2543 -1.9002 -0.3933
  183POPC  H11B20963   5.558   5.818   6.994 -2.0904  0.2592  1.7336
  183POPC     P20964   5.486   5.673   6.688  0.1402 -0.3342  0.1671
  183POPC   O1320965   5.463   5.532   6.717 -0.0422  0.5018  0.4209
  183POPC   O1420966   5.622   5.713   6.658  0.6658 -0.1169  0.6777
  183POPC   O1220967   5.451   5.747   6.820 -0.3011 -0.4195  0.1795
  183POPC   O1120968   5.388   5.726   6.577  0.2260  0.2306 -0.3053
  183POPC    C120969   5.293   5.835   6.590 -0.0493 -0.3263 -0.7344
  183POPC    HA20970   5.322   5.893   6.680  1.0485 -1.1657 -0.5197
  183POPC    HB20971   5.189   5.802   6.614 -0.4707  1.9131  0.7718
  183POPC    C220972   5.316   5.946   6.476  0.2389  0.0818  0.5103
  183POPC    HS20973   5.267   6.043   6.500 -0.5613 -0.4945  1.2834
  183POPC   O2120974   5.269   5.894   6.348  0.3389  0.0519 -0.1732
  183POPC   C2120975   5.139   5.916   6.322 -0.0722 -0.6261  0.5340
  183POPC   O2220976   5.061   5.971   6.401 -0.0189  0.0169 -0.3276
  183POPC   C2220977   5.111   5.856   6.188  0.5471  0.1546 -0.3021
  183POPC   H2R20978   5.084   5.749   6.201 -0.2166  0.0597 -2.3370
  183POPC   H2S20979   5.210   5.859   6.138  0.9822  1.3052  0.5697
  183POPC    C320980   5.462   5.975   6.462 -0.4327 -0.1153  0.6551
  183POPC    HX20981   5.503   5.881   6.419 -0.8920  0.2614 -0.6462
  183POPC    HY20982   5.513   6.012   6.554 -1.4339 -1.6820  1.8934
  183POPC   O3120983   5.469   6.083   6.367 -0.6137 -0.9727  0.3241
  183POPC   C3120984   5.585   6.119   6.324  0.2295  0.5648 -0.7004
  183POPC   O3220985   5.693   6.079   6.371  0.7005 -0.4133 -0.1404
  183POPC   C3220986   5.568   6.223   6.215  0.6708  0.1380  0.1118
  183POPC   H2X20987   5.652   6.212   6.143  1.7768  2.2812  0.9956
  183POPC   H2Y20988   5.563   6.320   6.269  1.1159 -0.0386  0.4792
  183POPC   C2320989   4.993   5.925   6.118  0.8060  0.3483 -0.1581
  183POPC   H3R20990   5.006   6.035   6.112 -3.3637  1.0373  0.1281
  183POPC   H3S20991   4.897   5.900   6.168  0.0963 -0.6190 -1.8860
  183POPC   C2420992   4.985   5.870   5.970  0.4045  0.7811 -0.1274
  183POPC   H4R20993   4.985   5.759   5.965 -1.9530  0.7054  0.5476
  183POPC   H4S20994   5.080   5.904   5.923 -0.5003  2.0403 -1.1447
  183POPC   C2520995   4.865   5.924   5.889 -0.1840 -0.0799 -0.4198
  183POPC   H5R20996   4.881   6.034   5.884 -0.5193  0.2628  3.4332
  183POPC   H5S20997   4.783   5.927   5.963  1.3475  4.9041  1.5171
  183POPC   C2620998   4.819   5.868   5.751  0.0988 -0.5493  0.2994
  183POPC   H6R20999   4.781   5.766   5.775  1.6251 -1.3673 -0.5607
  183POPC   H6S21000   4.891   5.853   5.668 -2.5653 -0.9036 -2.1295
  183POPC   C2721001   4.690   5.936   5.691  0.1120  0.6659  0.2692
  183POPC   H7R21002   4.732   6.037   5.668 -0.9050  0.9925 -0.2276
  183POPC   H7S21003   4.619   5.955   5.774 -1.5123 -1.0201 -0.6444
  183POPC   C2821004   4.627   5.867   5.567 -0.4000  0.6861 -0.4048
  183POPC   H8R21005   4.545   5.935   5.539  0.0131  0.3696 -2.6014
  183POPC   H8S21006   4.583   5.774   5.610 -1.4109  1.2758 -0.1437
  183POPC   C2921007   4.728   5.845   5.459  0.3410 -0.2341 -0.0744
  183POPC   H9121008   4.814   5.785   5.495  0.7670  1.3332  1.6973
  183POPC  C21021009   4.727   5.889   5.327 -0.1926 -0.0769 -0.1732
  183POPC  H10121010   4.814   5.858   5.267  1.7211  1.9071  1.3893
  183POPC  C21121011   4.633   5.983   5.265 -0.4810  0.6658 -0.3502
  183POPC  H11R21012   4.676   6.084   5.251 -1.9658  1.3242 -0.3081
  183POPC  H11S21013   4.533   5.991   5.313 -0.8488  1.2287 -1.1976
  183POPC  C21221014   4.603   5.943   5.121  0.2944 -0.4282  0.2801
  183POPC  H12R21015   4.556   5.843   5.107 -0.0450 -0.5854  2.3596
  183POPC  H12S21016   4.703   5.938   5.073 -0.1223 -1.0993 -0.5588
  183POPC  C21321017   4.521   6.052   5.047  0.6261 -0.6004 -1.1059
  183POPC  H13R21018   4.555   6.150   5.087  2.2976 -1.1310 -1.1629
  183POPC  H13S21019   4.416   6.050   5.082  0.2058  1.1623 -2.1341
  183POPC  C21421020   4.513   6.046   4.896  0.1781  1.1563  0.5702
  183POPC  H14R21021   4.602   5.994   4.854 -0.3467  0.1606  0.6715
  183POPC  H14S21022   4.495   6.144   4.847 -2.7651 -0.2273 -1.3968
  183POPC  C21521023   4.386   5.967   4.861  0.1106 -0.9979  0.2281
  183POPC  H15R21024   4.299   6.034   4.879  0.7641  0.2155 -0.9666
  183POPC  H15S21025   4.380   5.882   4.933 -0.5899 -0.1964  1.1580
  183POPC  C21621026   4.375   5.933   4.712 -0.5677 -1.1229 -0.1732
  183POPC  H16R21027   4.473   5.892   4.679 -1.1816 -1.9333 -1.0345
  183POPC  H16S21028   4.362   6.033   4.666 -2.8376 -0.8975  0.8366
  183POPC  C21721029   4.265   5.840   4.672  1.3014 -0.7996 -0.4983
  183POPC  H17R21030   4.169   5.871   4.719  1.1267 -0.6900 -0.9202
  183POPC  H17S21031   4.281   5.737   4.711 -1.2222 -0.8292  0.6624
  183POPC  C21821032   4.241   5.838   4.519 -0.0773 -0.8761 -0.9671
  183POPC  H18R21033   4.236   5.942   4.481  1.7507  1.7820  4.8872
  183POPC  H18S21034   4.147   5.789   4.486 -0.7121 -1.4754  1.4672
  183POPC  H18T21035   4.331   5.795   4.472  0.9522  1.0983 -0.8892
  183POPC   C3321036   5.431   6.220   6.137 -0.0086  0.4251  0.3607
  183POPC   H3X21037   5.427   6.309   6.070 -0.4635 -0.5310 -0.9233
  183POPC   H3Y21038   5.354   6.218   6.217 -0.2290 -1.2883  0.1499
  183POPC   C3421039   5.426   6.097   6.046  0.5836 -0.6845 -0.2433
  183POPC   H4X21040   5.434   6.009   6.114 -1.1177 -1.4052 -0.9327
  183POPC   H4Y21041   5.508   6.095   5.971 -1.7156 -1.2170 -2.8868
  183POPC   C3521042   5.306   6.087   5.950  0.2706 -0.4140  0.1348
  183POPC   H5X21043   5.214   6.044   5.994 -0.4782 -1.2966 -2.1955
  183POPC   H5Y21044   5.332   6.008   5.877 -1.3673 -0.2249 -0.6774
  183POPC   C3621045   5.266   6.209   5.866 -0.9768  0.1522 -1.0896
  183POPC   H6X21046   5.353   6.257   5.817 -1.2431  3.0072  0.9207
  183POPC   H6Y21047   5.229   6.288   5.936 -1.3180 -0.8037 -0.1734
  183POPC   C3721048   5.165   6.191   5.753  0.4760  0.1928  0.0929
  183POPC   H7X21049   5.138   6.296   5.729  1.3351  0.8759  1.8554
  183POPC   H7Y21050   5.077   6.138   5.795  0.4572 -0.7428 -1.0807
  183POPC   C3821051   5.213   6.122   5.627 -0.0344  0.0745  0.0792
  183POPC   H8X21052   5.241   6.016   5.645  1.7650  0.1306 -1.9550
  183POPC   H8Y21053   5.307   6.169   5.590  0.6220 -1.6861 -0.5714
  183POPC   C3921054   5.115   6.115   5.509 -0.2646  0.6931  0.1201
  183POPC   H9X21055   5.078   6.216   5.480  0.6756  1.6554  2.0473
  183POPC   H9Y21056   5.025   6.065   5.550 -0.9412 -0.6500 -2.7544
  183POPC  C31021057   5.166   6.037   5.387  0.6924 -0.4895 -0.1087
  183POPC  H10X21058   5.182   5.929   5.410  0.2750 -0.4259  0.5090
  183POPC  H10Y21059   5.267   6.077   5.361 -0.2910  1.2463 -1.4443
  183POPC  C31121060   5.062   6.039   5.267 -0.1336  0.7942 -0.0917
  183POPC  H11X21061   5.014   6.139   5.271  0.9273  1.3300 -0.5142
  183POPC  H11Y21062   4.998   5.949   5.278  0.2604  0.5205 -0.0328
  183POPC  C31221063   5.127   6.021   5.127  0.5810  0.7981  0.0939
  183POPC  H12X21064   5.192   5.932   5.139  1.3025  1.5294  2.2759
  183POPC  H12Y21065   5.186   6.108   5.090 -0.7057  0.8574 -1.9772
  183POPC  C31321066   5.020   5.998   5.018 -0.4265  0.2038  0.4762
  183POPC  H13X21067   4.960   6.090   5.005 -0.9086 -0.4661 -3.2047
  183POPC  H13Y21068   4.953   5.918   5.054  2.5411 -2.3235  0.8581
  183POPC  C31421069   5.070   5.963   4.879 -1.0308  0.6456 -0.8290
  183POPC  H14X21070   5.123   5.866   4.888 -1.8760  0.2547  0.0441
  183POPC  H14Y21071   5.141   6.045   4.854 -0.0702  0.6358  1.5319
  183POPC  C31521072   4.965   5.940   4.772  0.5777  0.1861 -0.4535
  183POPC  H15X21073   4.909   5.847   4.800 -0.8390  1.4362  1.0872
  183POPC  H15Y21074   5.010   5.917   4.674  0.8611 -1.0675 -0.0504
  183POPC  C31621075   4.863   6.053   4.761  0.1891  1.0818 -0.0687
  183POPC  H16X21076   4.915   6.148   4.740  2.4660 -0.0860  0.0304
  183POPC  H16Y21077   4.803   6.071   4.853 -3.0557 -0.6102 -1.6611
  183POPC  H16Z21078   4.791   6.021   4.682  0.1598  0.3816  0.2335
  184POPC     N21079   6.707   6.006   6.997  0.1496  0.2284 -0.2301
  184POPC   C1221080   6.801   6.023   6.882  0.3440  0.7429 -0.2694
  184POPC  H12A21081   6.892   5.967   6.898  0.5986  1.4114  0.7023
  184POPC  H12B21082   6.819   6.129   6.872 -1.7544  1.3337  1.4132
  184POPC   C1321083   6.787   6.053   7.114  0.0708 -0.5809  0.2484
  184POPC  H13A21084   6.885   6.007   7.105  0.9055  1.3540 -1.0297
  184POPC  H13B21085   6.802   6.159   7.117  1.6617 -0.7851  0.8671
  184POPC  H13C21086   6.748   6.018   7.209 -1.7983  0.3463 -0.1399
  184POPC   C1421087   6.585   6.087   7.000 -0.6376  0.5846 -0.3960
  184POPC  H14A21088   6.605   6.192   6.987  1.6866 -0.0177 -2.2021
  184POPC  H14B21089   6.518   6.079   6.915 -0.9156  0.2423 -0.1502
  184POPC  H14C21090   6.538   6.078   7.097  1.1034  3.3312  0.7957
  184POPC   C1521091   6.679   5.863   7.019  0.1294  0.4684 -0.8346
  184POPC  H15A21092   6.770   5.812   7.044 -0.9338  0.3660  3.8300
  184POPC  H15B21093   6.642   5.817   6.929  0.4470  0.4703 -0.9654
  184POPC  H15C21094   6.619   5.842   7.106  1.6330  1.2926  0.4659
  184POPC   C1121095   6.738   5.985   6.739 -0.0197 -0.2918 -0.3232
  184POPC  H11A21096   6.819   5.999   6.664  0.0141  0.0518 -0.2238
  184POPC  H11B21097   6.664   6.064   6.713  0.8353  0.7690  0.3685
  184POPC     P21098   6.569   5.810   6.634 -0.1401 -0.1846  0.0442
  184POPC   O1321099   6.450   5.803   6.723 -0.0394  0.0561 -0.0668
  184POPC   O1421100   6.619   5.695   6.560  0.1852  0.3114 -0.0145
  184POPC   O1221101   6.689   5.849   6.730  0.4291 -0.2539 -0.2021
  184POPC   O1121102   6.558   5.936   6.543  0.2068 -0.1377 -0.5248
  184POPC    C121103   6.424   5.965   6.494 -0.4229  0.0381  0.1976
  184POPC    HA21104   6.431   6.067   6.450  1.1094 -0.3300 -0.4810
  184POPC    HB21105   6.359   5.963   6.584  1.2545 -0.0350  1.4276
  184POPC    C221106   6.383   5.867   6.387  1.1398 -0.3433 -0.1696
  184POPC    HS21107   6.392   5.762   6.422 -1.9099  0.3120  3.3279
  184POPC   O2121108   6.459   5.903   6.267  0.1248  0.0094  0.1321
  184POPC   C2121109   6.506   5.798   6.205  0.3994  0.5883 -0.6166
  184POPC   O2221110   6.465   5.684   6.228  0.1765  0.1570 -0.2134
  184POPC   C2221111   6.585   5.847   6.082 -0.0214  0.5221  0.0579
  184POPC   H2R21112   6.690   5.875   6.109  0.6419  0.3430 -2.1644
  184POPC   H2S21113   6.525   5.930   6.040 -1.9382 -1.0972 -0.5269
  184POPC    C321114   6.232   5.873   6.368  0.8519 -0.2612  0.4413
  184POPC    HX21115   6.197   5.977   6.347 -0.3267 -0.8007 -0.4037
  184POPC    HY21116   6.176   5.852   6.461 -0.3978 -0.0460 -0.2392
  184POPC   O3121117   6.193   5.788   6.260  0.5271 -0.5367  0.1308
  184POPC   C3121118   6.184   5.658   6.299 -0.0697 -0.3187 -0.2691
  184POPC   O3221119   6.190   5.612   6.416  0.1171  0.0298  0.7866
  184POPC   C3221120   6.156   5.569   6.175 -0.5692 -0.2992 -0.8245
  184POPC   H2X21121   6.248   5.565   6.111 -1.8281 -0.4374 -2.7119
  184POPC   H2Y21122   6.073   5.620   6.122 -2.1506  0.2070  1.9523
  184POPC   C2321123   6.602   5.746   5.962  0.4291  0.3241 -0.2239
  184POPC   H3R21124   6.512   5.725   5.900 -0.3603 -1.7544  1.5148
  184POPC   H3S21125   6.635   5.646   5.996  0.8127  0.1234 -1.1538
  184POPC   C2421126   6.711   5.798   5.877 -0.1784  0.0998  1.0375
  184POPC   H4R21127   6.750   5.707   5.825 -3.3401 -1.4173  1.0538
  184POPC   H4S21128   6.796   5.840   5.934  1.7765  0.7012 -2.1017
  184POPC   C2521129   6.680   5.899   5.764 -0.0395 -0.3393  0.2701
  184POPC   H5R21130   6.626   5.991   5.796 -0.2746  0.2572 -1.7230
  184POPC   H5S21131   6.602   5.860   5.695 -2.0514  0.4515  1.9688
  184POPC   C2621132   6.798   5.930   5.670 -0.4575  0.0775 -0.1785
  184POPC   H6R21133   6.835   5.833   5.631  0.7923  1.0150 -1.4564
  184POPC   H6S21134   6.885   5.975   5.722 -1.5851  0.4007  1.5049
  184POPC   C2721135   6.769   6.025   5.550 -0.1243  0.0111 -0.2848
  184POPC   H7R21136   6.867   6.034   5.499 -0.1368  0.0048 -0.3102
  184POPC   H7S21137   6.741   6.122   5.599  0.6171  0.0921 -0.0106
  184POPC   C2821138   6.663   5.981   5.450  0.1741 -0.5057  0.2827
  184POPC   H8R21139   6.662   6.064   5.377  1.7609  0.0559  0.8728
  184POPC   H8S21140   6.572   5.982   5.513 -0.0005  0.1592  0.0280
  184POPC   C2921141   6.700   5.847   5.390 -0.6313  0.4110  0.8896
  184POPC   H9121142   6.761   5.775   5.446  1.3855  1.9132  0.7262
  184POPC  C21021143   6.638   5.798   5.282  0.3742 -0.6133 -0.7078
  184POPC  H10121144   6.664   5.698   5.245 -2.4251 -1.0346 -1.7895
  184POPC  C21121145   6.536   5.873   5.199 -0.5728  0.2656  0.0553
  184POPC  H11R21146   6.569   5.910   5.099 -1.6200 -0.3042 -0.5197
  184POPC  H11S21147   6.489   5.955   5.256 -2.1797 -1.4058  1.2503
  184POPC  C21221148   6.431   5.772   5.163  0.1188 -0.1603 -0.0676
  184POPC  H12R21149   6.382   5.732   5.254 -1.5216  0.5900 -0.5876
  184POPC  H12S21150   6.469   5.687   5.102 -0.7944 -0.8593  0.3059
  184POPC  C21321151   6.316   5.840   5.081  0.1079  0.2179  0.9882
  184POPC  H13R21152   6.291   5.934   5.135 -1.1522 -0.8772  2.4143
  184POPC  H13S21153   6.216   5.792   5.076 -0.9561  2.4682 -0.9287
  184POPC  C21421154   6.364   5.891   4.939  0.0329 -0.3765 -0.0944
  184POPC  H14R21155   6.385   5.797   4.882  1.0908 -1.1059  1.4456
  184POPC  H14S21156   6.457   5.950   4.931  0.3915 -0.8854  0.2281
  184POPC  C21521157   6.257   5.969   4.853 -0.8574  0.6898 -0.4220
  184POPC  H15R21158   6.238   6.069   4.899 -0.3691  0.3590  0.5279
  184POPC  H15S21159   6.158   5.918   4.853 -0.1777 -0.7782  1.9729
  184POPC  C21621160   6.316   5.978   4.715  0.3023 -0.1064  0.1621
  184POPC  H16R21161   6.336   5.877   4.674  0.2722 -0.3337  0.7078
  184POPC  H16S21162   6.413   6.032   4.724 -0.1707  0.4996  2.1410
  184POPC  C21721163   6.231   6.053   4.613 -1.0409  0.0718  0.6685
  184POPC  H17R21164   6.284   6.065   4.516  2.0510 -0.1738  2.2063
  184POPC  H17S21165   6.211   6.151   4.662 -0.6848  0.2542  0.4472
  184POPC  C21821166   6.092   5.995   4.578  0.1115 -0.3656 -0.3331
  184POPC  H18R21167   6.110   5.885   4.586 -3.6530 -1.0922 -0.3132
  184POPC  H18S21168   6.051   6.022   4.479 -2.0586  0.7110  0.7993
  184POPC  H18T21169   6.020   6.010   4.661 -0.0788 -0.9097 -0.3944
  184POPC   C3321170   6.106   5.426   6.194 -0.2733  0.0424  0.2908
  184POPC   H3X21171   6.001   5.439   6.229 -0.1527  0.0018  0.6712
  184POPC   H3Y21172   6.153   5.372   6.278 -2.9446 -0.9215  1.2753
  184POPC   C3421173   6.118   5.340   6.063 -0.1265 -0.4848 -1.1472
  184POPC   H4X21174   6.132   5.235   6.099 -0.4218 -0.6007 -1.3641
  184POPC   H4Y21175   6.212   5.367   6.010  0.4913 -0.8482 -0.2806
  184POPC   C3521176   5.993   5.349   5.971  0.2027 -0.2631  0.0940
  184POPC   H5X21177   5.991   5.455   5.939 -2.4264 -0.3326 -0.1554
  184POPC   H5Y21178   5.898   5.337   6.026  0.7346 -1.3635  0.8047
  184POPC   C3621179   6.000   5.250   5.851 -0.3126 -0.0533  0.2267
  184POPC   H6X21180   5.962   5.148   5.873  1.0920 -0.6082  0.1937
  184POPC   H6Y21181   6.103   5.247   5.809 -0.2150  1.7559  0.2409
  184POPC   C3721182   5.918   5.298   5.729  0.0104  0.1456 -0.7439
  184POPC   H7X21183   5.823   5.339   5.769  0.3763 -1.9515  2.6221
  184POPC   H7Y21184   5.910   5.216   5.654  1.0601  0.7132 -1.4959
  184POPC   C3821185   5.966   5.418   5.645  0.3065  0.3373  0.3917
  184POPC   H8X21186   6.059   5.390   5.591  1.0958  0.8011  1.4667
  184POPC   H8Y21187   5.995   5.503   5.711  0.3322  0.1607  0.6068
  184POPC   C3921188   5.859   5.466   5.539 -0.0216  1.1951  0.1411
  184POPC   H9X21189   5.770   5.476   5.604 -1.1588 -1.2946 -0.9135
  184POPC   H9Y21190   5.848   5.396   5.454  0.9116  2.2588 -0.8813
  184POPC  C31021191   5.911   5.592   5.477  0.2860 -0.0059  0.4963
  184POPC  H10X21192   6.020   5.593   5.457  0.1718 -1.4350 -0.3553
  184POPC  H10Y21193   5.916   5.678   5.547  1.7413 -0.9759  1.6370
  184POPC  C31121194   5.830   5.624   5.352  0.4494  0.0755 -0.5763
  184POPC  H11X21195   5.775   5.718   5.375 -1.4919 -0.6383 -2.0014
  184POPC  H11Y21196   5.746   5.552   5.343 -1.7718  2.4201  0.1189
  184POPC  C31221197   5.902   5.636   5.221 -0.8570 -0.3880 -0.9797
  184POPC  H12X21198   5.966   5.727   5.218  2.0062 -2.2702 -1.5822
  184POPC  H12Y21199   5.823   5.638   5.144 -1.7251  1.3238 -0.1051
  184POPC  C31321200   5.995   5.518   5.195  0.8601  0.5274  0.4583
  184POPC  H13X21201   5.960   5.415   5.216  0.8056  0.6702  1.0735
  184POPC  H13Y21202   6.100   5.531   5.230  0.8470  1.1211  0.2916
  184POPC  C31421203   6.025   5.511   5.042 -0.2057  0.1897 -0.1739
  184POPC  H14X21204   6.064   5.607   5.000  2.8037 -0.9361 -0.1572
  184POPC  H14Y21205   5.926   5.499   4.994  1.2815 -1.1993 -3.1656
  184POPC  C31521206   6.108   5.393   4.995  0.3050 -0.8087  0.2991
  184POPC  H15X21207   6.055   5.299   5.024  0.6627 -0.8495  0.8341
  184POPC  H15Y21208   6.204   5.376   5.048 -0.7467 -3.8088  1.4528
  184POPC  C31621209   6.146   5.393   4.848 -0.6882 -0.3528 -0.3385
  184POPC  H16X21210   6.062   5.382   4.776 -1.1006 -1.6406  0.3171
  184POPC  H16Y21211   6.217   5.315   4.815 -1.7564 -0.8825 -1.4764
  184POPC  H16Z21212   6.210   5.481   4.825  1.7978 -1.9278  0.1675
  185POPC     N21213   6.306   5.932   1.933 -0.4366  0.4466  0.3730
  185POPC   C1221214   6.259   5.968   2.071  0.5757 -0.8030 -0.0876
  185POPC  H12A21215   6.153   5.953   2.064  0.3462  0.9449 -0.6999
  185POPC  H12B21216   6.269   6.075   2.082 -2.7934 -0.4222  0.1662
  185POPC   C1321217   6.249   6.031   1.833  0.2963 -0.4561 -0.6285
  185POPC  H13A21218   6.145   6.006   1.818  0.1712  0.0494 -0.6157
  185POPC  H13B21219   6.271   6.125   1.880 -0.9867 -0.7139  0.5551
  185POPC  H13C21220   6.307   6.022   1.743 -0.4951  1.3281 -1.3600
  185POPC   C1421221   6.459   5.942   1.915  0.6655  0.3928 -0.3359
  185POPC  H14A21222   6.485   5.918   1.813  1.0707 -0.0174 -0.1366
  185POPC  H14B21223   6.497   6.040   1.942  0.3348 -0.0484  1.9432
  185POPC  H14C21224   6.511   5.876   1.983  0.6753  3.0077  2.4013
  185POPC   C1521225   6.271   5.801   1.886 -0.0179 -0.0112 -0.8969
  185POPC  H15A21226   6.314   5.770   1.792 -1.8142 -2.4431 -1.0362
  185POPC  H15B21227   6.164   5.791   1.895  0.2177 -0.6054  2.3980
  185POPC  H15C21228   6.315   5.724   1.947 -2.1132  0.4887  1.4339
  185POPC   C1121229   6.319   5.904   2.200  0.8100 -0.4105  0.1812
  185POPC  H11A21230   6.339   5.799   2.170 -1.8178 -0.9992  0.1688
  185POPC  H11B21231   6.234   5.901   2.272 -0.0009 -0.0227 -0.7451
  185POPC     P21232   6.571   5.923   2.275 -0.0337 -0.0878 -0.0660
  185POPC   O1321233   6.665   6.028   2.309  0.0540 -0.1759 -0.2068
  185POPC   O1421234   6.610   5.831   2.172 -0.5285  0.0372  0.1686
  185POPC   O1221235   6.427   5.985   2.251 -0.1054  0.0576  0.2751
  185POPC   O1121236   6.549   5.836   2.412  0.4136 -0.1817  0.2668
  185POPC    C121237   6.489   5.883   2.531 -0.5842 -0.1099  1.0429
  185POPC    HA21238   6.380   5.902   2.521 -0.7626 -2.0637 -2.1287
  185POPC    HB21239   6.557   5.960   2.574 -0.0093  0.3058 -0.5182
  185POPC    C221240   6.491   5.769   2.641 -0.6609 -0.6174  0.3885
  185POPC    HS21241   6.477   5.815   2.741 -1.0909  0.5459 -0.1963
  185POPC   O2121242   6.619   5.704   2.651  0.3430  0.1267  0.0863
  185POPC   C2121243   6.715   5.767   2.726  0.3913  0.3725  0.1286
  185POPC   O2221244   6.704   5.875   2.774  0.3713 -0.5391  0.5240
  185POPC   C2221245   6.823   5.664   2.755 -0.0506  0.6674  0.3873
  185POPC   H2R21246   6.914   5.716   2.719 -0.3615  0.7436 -0.3178
  185POPC   H2S21247   6.794   5.578   2.690  1.7659  0.9947 -0.9362
  185POPC    C321248   6.389   5.667   2.613 -0.2710  0.1532 -0.4483
  185POPC    HX21249   6.429   5.607   2.528 -0.1850  0.8356 -0.8997
  185POPC    HY21250   6.285   5.699   2.589 -0.6829 -1.1866 -0.5468
  185POPC   O3121251   6.377   5.579   2.723 -1.1258 -0.3649 -0.1213
  185POPC   C3121252   6.271   5.503   2.728 -0.5439 -0.3461 -0.1652
  185POPC   O3221253   6.190   5.491   2.636 -0.5701  0.1184  0.2411
  185POPC   C3221254   6.268   5.431   2.861 -0.1097  0.1389  0.1564
  185POPC   H2X21255   6.269   5.510   2.939 -0.6306 -1.2751  1.6330
  185POPC   H2Y21256   6.364   5.377   2.865  0.6476  1.2451 -1.7955
  185POPC   C2321257   6.826   5.623   2.903  0.1683 -0.2108 -0.1070
  185POPC   H3R21258   6.860   5.703   2.973  1.5453 -1.1269  0.3179
  185POPC   H3S21259   6.894   5.536   2.912 -1.4240 -1.3422  1.7871
  185POPC   C2421260   6.686   5.578   2.956  0.4788  1.0691  0.5323
  185POPC   H4R21261   6.646   5.521   2.869  0.9992 -2.2096  2.2657
  185POPC   H4S21262   6.623   5.669   2.955  1.6064  1.9094 -1.8006
  185POPC   C2521263   6.699   5.500   3.088  0.2004  0.1023  0.1412
  185POPC   H5R21264   6.746   5.573   3.157 -0.2261 -1.2928  1.9939
  185POPC   H5S21265   6.760   5.407   3.082 -2.6827 -1.9388 -0.0823
  185POPC   C2621266   6.554   5.471   3.132  0.2192  0.2432 -0.2958
  185POPC   H6R21267   6.507   5.398   3.063 -1.8503  1.7487 -0.5558
  185POPC   H6S21268   6.502   5.566   3.110  1.2182  0.8723 -0.0263
  185POPC   C2721269   6.545   5.426   3.280 -0.1035  0.2788  0.6790
  185POPC   H7R21270   6.435   5.414   3.289 -0.5292 -0.5222 -3.3948
  185POPC   H7S21271   6.569   5.509   3.350 -0.4607  1.7687 -0.8977
  185POPC   C2821272   6.616   5.292   3.316  0.4714 -0.0162 -0.1600
  185POPC   H8R21273   6.609   5.219   3.233 -1.2522 -0.1195  0.0264
  185POPC   H8S21274   6.549   5.264   3.401  1.8254  1.5133  1.4944
  185POPC   C2921275   6.754   5.315   3.370 -0.0670 -0.2281  0.0744
  185POPC   H9121276   6.840   5.296   3.304 -1.5520  0.4664 -2.1926
  185POPC  C21021277   6.784   5.343   3.493 -0.5352  0.5686 -0.3897
  185POPC  H10121278   6.890   5.357   3.521  0.1001 -1.9621 -1.2442
  185POPC  C21121279   6.687   5.357   3.611  0.3277 -0.1055  0.6395
  185POPC  H11R21280   6.592   5.307   3.582  1.4572 -1.7909 -0.3239
  185POPC  H11S21281   6.669   5.463   3.637 -0.6654 -0.2575  0.6349
  185POPC  C21221282   6.743   5.288   3.729  0.5170 -0.1822  0.1887
  185POPC  H12R21283   6.689   5.323   3.819  0.1878 -0.3609  0.0624
  185POPC  H12S21284   6.852   5.305   3.742  0.1311  1.0189  2.3753
  185POPC  C21321285   6.716   5.135   3.733 -0.1681  0.1366  0.0572
  185POPC  H13R21286   6.736   5.100   3.629 -1.7920  1.2398 -0.6808
  185POPC  H13S21287   6.607   5.119   3.743 -0.5351  1.0381 -1.8924
  185POPC  C21421288   6.801   5.055   3.836 -0.2312 -0.8961  0.0798
  185POPC  H14R21289   6.910   5.051   3.817  0.0892  1.2143  1.1217
  185POPC  H14S21290   6.767   4.949   3.835 -0.2677 -0.8970 -2.0030
  185POPC  C21521291   6.778   5.106   3.973  0.0317  0.6033 -1.3296
  185POPC  H15R21292   6.669   5.100   3.991  0.2529 -1.0470 -0.2647
  185POPC  H15S21293   6.812   5.211   3.985  1.7293  0.1195 -1.6548
  185POPC  C21621294   6.836   5.012   4.079  0.1449  0.0196  0.3399
  185POPC  H16R21295   6.799   4.910   4.057 -0.2629 -0.3578  2.5589
  185POPC  H16S21296   6.795   5.034   4.180  0.4957 -0.6694  0.6392
  185POPC  C21721297   6.988   5.018   4.106  0.8388  0.1122 -0.3643
  185POPC  H17R21298   7.010   5.122   4.136  0.2620 -0.1317  0.9788
  185POPC  H17S21299   7.031   4.994   4.006  0.1061  0.8956 -0.8789
  185POPC  C21821300   7.044   4.920   4.206 -0.1635 -0.0778 -0.0281
  185POPC  H18R21301   6.995   4.932   4.305  1.3339  0.6927  0.6539
  185POPC  H18S21302   7.150   4.947   4.228 -0.5329  0.4639  1.1911
  185POPC  H18T21303   7.039   4.815   4.170  0.9367 -0.1388 -0.0210
  185POPC   C3321304   6.142   5.347   2.882 -0.8411  0.3214  1.2050
  185POPC   H3X21305   6.132   5.253   2.823 -0.6013  1.5603 -0.9009
  185POPC   H3Y21306   6.059   5.408   2.841 -1.1196  1.2612  3.0873
  185POPC   C3421307   6.136   5.312   3.029  0.5956  0.2640  0.1080
  185POPC   H4X21308   6.033   5.273   3.043  0.9602 -0.9062 -0.3093
  185POPC   H4Y21309   6.147   5.394   3.103  0.0446 -2.0923  2.9895
  185POPC   C3521310   6.229   5.204   3.067  0.1355  0.5483  0.2734
  185POPC   H5X21311   6.330   5.249   3.072  0.3859  0.3619 -1.8719
  185POPC   H5Y21312   6.255   5.135   2.984 -1.8880 -0.6861  0.5912
  185POPC   C3621313   6.195   5.117   3.185  0.0827 -0.2904 -0.3266
  185POPC   H6X21314   6.140   5.030   3.144 -1.8926  0.1549  1.2265
  185POPC   H6Y21315   6.122   5.162   3.257 -1.7810 -1.4806 -1.3854
  185POPC   C3721316   6.320   5.060   3.257  0.0010  0.0457 -0.1985
  185POPC   H7X21317   6.387   5.143   3.290  2.9077 -3.2280  2.9530
  185POPC   H7Y21318   6.376   5.002   3.181  0.9255  1.0557 -0.3249
  185POPC   C3821319   6.290   4.977   3.375  0.3149  0.2589 -0.3083
  185POPC   H8X21320   6.240   4.884   3.341  1.1033 -1.5117  2.8585
  185POPC   H8Y21321   6.206   5.025   3.431 -1.3849 -0.5730 -2.0318
  185POPC   C3921322   6.405   4.941   3.473  0.1675 -0.1505  0.0772
  185POPC   H9X21323   6.475   5.025   3.497 -1.0728  1.1523 -0.7298
  185POPC   H9Y21324   6.463   4.861   3.422  0.7082 -0.0690  0.5495
  185POPC  C31021325   6.362   4.882   3.608 -0.1813  1.0278 -0.2419
  185POPC  H10X21326   6.298   4.796   3.579  1.2316  0.2882 -1.3333
  185POPC  H10Y21327   6.308   4.955   3.671  0.7937  3.5247 -2.1324
  185POPC  C31121328   6.477   4.832   3.700 -0.0384 -0.5230  0.0405
  185POPC  H11X21329   6.554   4.912   3.707 -0.3666 -0.2425  0.4683
  185POPC  H11Y21330   6.533   4.748   3.652 -0.7524 -0.1696 -1.4719
  185POPC  C31221331   6.429   4.797   3.845  0.9358  0.6104  0.2554
  185POPC  H12X21332   6.385   4.695   3.845 -0.7643  1.3074 -0.8020
  185POPC  H12Y21333   6.360   4.879   3.873 -2.4189 -2.2270  0.8837
  185POPC  C31321334   6.539   4.782   3.950  0.1296 -0.4423 -0.3539
  185POPC  H13X21335   6.561   4.876   4.004  1.1967 -0.4348 -0.7762
  185POPC  H13Y21336   6.638   4.756   3.907 -0.0857  2.3582 -2.8682
  185POPC  C31421337   6.489   4.686   4.060  0.5120 -0.4977 -0.3258
  185POPC  H14X21338   6.499   4.585   4.015  2.0844 -0.1868 -0.7091
  185POPC  H14Y21339   6.379   4.700   4.070  0.0435 -3.0903 -1.1294
  185POPC  C31521340   6.574   4.685   4.187  0.9446  0.0873  0.2376
  185POPC  H15X21341   6.680   4.684   4.153  0.7070  0.5413 -0.5446
  185POPC  H15Y21342   6.554   4.593   4.245  0.1357 -0.2028 -0.4836
  185POPC  C31621343   6.556   4.807   4.287  0.1667  0.7130 -0.2390
  185POPC  H16X21344   6.448   4.824   4.307  0.3775 -0.2948  2.1229
  185POPC  H16Y21345   6.601   4.898   4.243  1.5044 -0.6004 -1.6955
  185POPC  H16Z21346   6.597   4.773   4.385 -1.2630 -0.7850 -0.1098
  186POPC     N21347   2.903   0.148   2.308  0.0420 -0.3819  0.0712
  186POPC   C1221348   2.766   0.215   2.332 -0.7324  0.0726  0.1687
  186POPC  H12A21349   2.717   0.242   2.240  1.1083 -1.4607 -1.3536
  186POPC  H12B21350   2.797   0.298   2.394 -3.3435  0.8762  0.5148
  186POPC   C1321351   2.999   0.238   2.231  0.9604  0.5454 -0.0313
  186POPC  H13A21352   2.943   0.270   2.144 -0.0958  0.0476  0.4459
  186POPC  H13B21353   3.024   0.333   2.276  0.5078  1.3744 -1.4314
  186POPC  H13C21354   3.081   0.187   2.182 -0.6233 -1.1952 -0.9820
  186POPC   C1421355   2.968   0.107   2.428  0.2553 -0.0598 -0.1615
  186POPC  H14A21356   3.054   0.045   2.413  0.4696  0.1770  0.0807
  186POPC  H14B21357   3.001   0.194   2.484  1.2792  0.5928 -1.7281
  186POPC  H14C21358   2.902   0.048   2.490  0.0132  0.4155  0.0408
  186POPC   C1521359   2.874   0.030   2.229 -0.1648 -0.5202 -0.3566
  186POPC  H15A21360   2.827   0.053   2.134  1.3471 -2.8849 -1.7965
  186POPC  H15B21361   2.804  -0.036   2.277  0.4659 -1.2550 -0.4129
  186POPC  H15C21362   2.958  -0.035   2.206  1.8174  2.0417 -0.8339
  186POPC   C1121363   2.657   0.134   2.408 -0.4876  0.1790  0.8138
  186POPC  H11A21364   2.579   0.214   2.412  0.8497  1.5811  0.1771
  186POPC  H11B21365   2.700   0.118   2.509  2.7489  0.5084 -0.4105
  186POPC     P21366   2.480  -0.048   2.421 -0.2922  0.0842 -0.3078
  186POPC   O1321367   2.434  -0.168   2.339 -0.4371 -0.4578  0.0772
  186POPC   O1421368   2.376   0.048   2.454 -0.1631  0.4393  0.3498
  186POPC   O1221369   2.600   0.024   2.342 -0.4820 -0.8861  0.2560
  186POPC   O1121370   2.564  -0.096   2.555  0.2897  0.1423 -0.3257
  186POPC    C121371   2.680  -0.175   2.554  0.8274 -0.2729  0.1351
  186POPC    HA21372   2.751  -0.139   2.476 -1.8701  0.0533 -2.3650
  186POPC    HB21373   2.648  -0.280   2.535 -1.7786  0.6162 -0.9055
  186POPC    C221374   2.753  -0.173   2.689  0.2138  0.2589 -0.4722
  186POPC    HS21375   2.801  -0.074   2.701  0.2260  0.0267  1.9415
  186POPC   O2121376   2.850  -0.281   2.702  0.0490 -0.0151 -0.6366
  186POPC   C2121377   2.970  -0.248   2.636  0.2454 -0.1185 -0.1599
  186POPC   O2221378   2.985  -0.152   2.571 -0.0518 -0.4114  0.1454
  186POPC   C2221379   3.077  -0.357   2.663 -0.5902 -0.4783 -0.6707
  186POPC   H2R21380   3.096  -0.407   2.566  1.6843  2.3747 -1.8522
  186POPC   H2S21381   3.036  -0.415   2.748 -1.2705  2.4825  1.2041
  186POPC    C321382   2.653  -0.173   2.807  0.6327  0.2187 -0.2696
  186POPC    HX21383   2.576  -0.252   2.795  0.4537  0.1256  1.3197
  186POPC    HY21384   2.598  -0.077   2.793 -0.6112 -0.4825 -0.3612
  186POPC   O3121385   2.714  -0.172   2.935 -0.7921 -0.3117  0.1579
  186POPC   C3121386   2.740  -0.293   2.985 -0.1641 -0.6308 -0.3334
  186POPC   O3221387   2.695  -0.398   2.943 -0.0875 -0.3304 -0.0604
  186POPC   C3221388   2.832  -0.286   3.113 -0.2194  0.4803  0.3657
  186POPC   H2X21389   2.857  -0.180   3.135  2.7933 -0.6372  3.0862
  186POPC   H2Y21390   2.927  -0.339   3.087  0.1774  0.7810  1.1842
  186POPC   C2321391   3.217  -0.288   2.700 -0.4746  0.5065  1.3649
  186POPC   H3R21392   3.227  -0.229   2.793  3.3062  1.1683  0.7072
  186POPC   H3S21393   3.235  -0.219   2.614 -1.5004 -0.6390  0.1805
  186POPC   C2421394   3.334  -0.393   2.701  0.1999 -0.3684 -0.6775
  186POPC   H4R21395   3.430  -0.342   2.725  0.6011 -1.7272  0.8266
  186POPC   H4S21396   3.338  -0.435   2.598 -1.3988  1.0769 -1.3747
  186POPC   C2521397   3.316  -0.496   2.812  0.1233  0.1493 -0.0543
  186POPC   H5R21398   3.216  -0.541   2.797  0.3856 -1.2820  1.9832
  186POPC   H5S21399   3.316  -0.438   2.907 -1.3909 -0.3307  0.2615
  186POPC   C2621400   3.435  -0.598   2.821 -0.6968  0.3867  0.4804
  186POPC   H6R21401   3.483  -0.613   2.722 -1.9494 -1.3215  0.0892
  186POPC   H6S21402   3.408  -0.694   2.870  1.8952 -0.8275 -0.2797
  186POPC   C2721403   3.538  -0.530   2.916  0.0002  0.2661 -0.4801
  186POPC   H7R21404   3.556  -0.421   2.909 -0.1685  0.3937  0.8286
  186POPC   H7S21405   3.641  -0.568   2.896 -0.7787 -2.2843  0.0422
  186POPC   C2821406   3.519  -0.546   3.070 -0.9090 -0.0116 -0.6921
  186POPC   H8R21407   3.420  -0.502   3.093 -0.6098  0.2813  0.1244
  186POPC   H8S21408   3.599  -0.484   3.119 -1.3915 -0.0970  0.2348
  186POPC   C2921409   3.528  -0.685   3.127 -0.7215 -0.4436 -0.1340
  186POPC   H9121410   3.472  -0.765   3.076 -0.7699 -1.0725  0.8722
  186POPC  C21021411   3.599  -0.718   3.237 -0.7797 -0.1525 -0.0775
  186POPC  H10121412   3.592  -0.823   3.269  0.7864 -0.2933 -0.1190
  186POPC  C21121413   3.674  -0.622   3.328 -0.0210  0.5376 -0.6509
  186POPC  H11R21414   3.608  -0.549   3.379  3.7481  2.5829  1.7752
  186POPC  H11S21415   3.733  -0.551   3.266  2.2366 -1.5032 -0.9912
  186POPC  C21221416   3.767  -0.683   3.441  0.1231  0.1097 -0.2611
  186POPC  H12R21417   3.780  -0.589   3.498 -1.5818  1.4698 -1.9609
  186POPC  H12S21418   3.858  -0.727   3.395 -1.2079  0.7938 -3.9806
  186POPC  C21321419   3.696  -0.775   3.537 -0.0366  0.7413 -0.2771
  186POPC  H13R21420   3.672  -0.868   3.481  0.5441  0.1410  0.4574
  186POPC  H13S21421   3.601  -0.733   3.578  0.2776 -0.5862  1.9664
  186POPC  C21421422   3.778  -0.809   3.662 -0.1597 -0.1183  0.2366
  186POPC  H14R21423   3.887  -0.828   3.650 -0.1658  0.1877 -0.2876
  186POPC  H14S21424   3.722  -0.889   3.715 -0.6275  0.1942  0.2114
  186POPC  C21521425   3.770  -0.686   3.759 -0.4407 -0.3511  0.1751
  186POPC  H15R21426   3.666  -0.684   3.799 -1.4424 -0.7419 -2.2786
  186POPC  H15S21427   3.798  -0.592   3.707 -1.2107  0.7161  1.6085
  186POPC  C21621428   3.871  -0.696   3.882 -0.3637  0.0354  0.6396
  186POPC  H16R21429   3.975  -0.670   3.852 -1.7266  1.8503 -3.0935
  186POPC  H16S21430   3.865  -0.801   3.919  0.6528  0.1588  1.1765
  186POPC  C21721431   3.830  -0.607   3.998  0.5225  0.3531 -0.1737
  186POPC  H17R21432   3.725  -0.623   4.033 -0.0614  1.4984 -1.3438
  186POPC  H17S21433   3.836  -0.501   3.967 -1.4280 -0.1687 -2.5878
  186POPC  C21821434   3.928  -0.631   4.112 -0.3520 -0.7588  0.8323
  186POPC  H18R21435   3.922  -0.738   4.141  0.0636 -1.3570 -1.1445
  186POPC  H18S21436   4.028  -0.619   4.066  0.3238 -1.6511  1.9994
  186POPC  H18T21437   3.913  -0.573   4.206 -0.2135 -0.3971  0.6338
  186POPC   C3321438   2.753  -0.351   3.231  0.2518 -0.2078  0.0333
  186POPC   H3X21439   2.656  -0.297   3.232  0.6433  0.5113  0.0023
  186POPC   H3Y21440   2.812  -0.318   3.319 -0.3104  1.3299 -0.1373
  186POPC   C3421441   2.754  -0.510   3.230 -0.2917 -0.1431 -0.0905
  186POPC   H4X21442   2.856  -0.541   3.261 -0.1979  2.6396  2.8335
  186POPC   H4Y21443   2.730  -0.544   3.126  1.1605 -3.1610  0.4484
  186POPC   C3521444   2.649  -0.568   3.321  0.0700  0.4634 -0.7885
  186POPC   H5X21445   2.642  -0.678   3.303 -1.4559  0.5327 -0.7496
  186POPC   H5Y21446   2.545  -0.532   3.306 -0.5951 -1.0415  0.0150
  186POPC   C3621447   2.687  -0.559   3.471  0.6056 -0.4699  0.1809
  186POPC   H6X21448   2.696  -0.453   3.503 -1.0011  0.1932 -1.3713
  186POPC   H6Y21449   2.783  -0.613   3.482  2.0745  2.2083  1.5390
  186POPC   C3721450   2.590  -0.636   3.557  0.1194  0.0408  0.2603
  186POPC   H7X21451   2.585  -0.741   3.521  0.3501  0.1295 -0.0330
  186POPC   H7Y21452   2.488  -0.599   3.536 -0.2677 -1.7050 -1.1874
  186POPC   C3821453   2.618  -0.641   3.711 -0.0387 -0.3357 -0.5699
  186POPC   H8X21454   2.636  -0.539   3.751 -2.9069 -0.7222  2.1625
  186POPC   H8Y21455   2.706  -0.702   3.737  2.3281  2.4484 -1.4406
  186POPC   C3921456   2.495  -0.696   3.789 -0.5683  0.8257  0.3829
  186POPC   H9X21457   2.479  -0.797   3.746 -0.7585  1.9756 -2.4239
  186POPC   H9Y21458   2.406  -0.637   3.760  0.1679  1.5493 -0.4450
  186POPC  C31021459   2.510  -0.699   3.938  0.2020  0.8353  0.6899
  186POPC  H10X21460   2.540  -0.596   3.967  3.9430  0.3903 -1.0147
  186POPC  H10Y21461   2.600  -0.764   3.950 -1.6172 -2.2063 -1.0052
  186POPC  C31121462   2.388  -0.740   4.018  0.1131 -0.5938  0.1431
  186POPC  H11X21463   2.369  -0.846   3.993 -3.2990  0.1655 -0.9968
  186POPC  H11Y21464   2.298  -0.684   3.985  0.9273  0.7954  0.1887
  186POPC  C31221465   2.424  -0.707   4.164 -0.4657 -0.2198  0.1703
  186POPC  H12X21466   2.448  -0.601   4.185  0.9135 -0.8719  2.0845
  186POPC  H12Y21467   2.507  -0.779   4.184 -2.4206 -3.4996 -2.3609
  186POPC  C31321468   2.315  -0.736   4.258 -0.2833  0.0610 -1.1531
  186POPC  H13X21469   2.361  -0.725   4.358 -0.4395  2.2370 -1.2614
  186POPC  H13Y21470   2.287  -0.843   4.258 -0.0247 -0.0229  0.3096
  186POPC  C31421471   2.198  -0.641   4.249 -0.2303  0.2847 -0.1326
  186POPC  H14X21472   2.140  -0.668   4.159  2.3465 -1.9398 -1.2352
  186POPC  H14Y21473   2.238  -0.541   4.221  0.3845 -0.1122 -0.7121
  186POPC  C31521474   2.104  -0.647   4.374 -0.3258 -0.1448 -0.0271
  186POPC  H15X21475   2.017  -0.581   4.355  0.4753  0.4891 -1.6053
  186POPC  H15Y21476   2.162  -0.608   4.461 -2.4891  1.1874  0.8977
  186POPC  C31621477   2.050  -0.781   4.415  0.7828 -0.3582 -0.0051
  186POPC  H16X21478   2.122  -0.842   4.473 -0.1857 -1.2684  0.2790
  186POPC  H16Y21479   2.018  -0.842   4.327 -2.8530 -1.2029  1.6867
  186POPC  H16Z21480   1.972  -0.760   4.492 -0.3556 -0.4410 -1.0904
  187POPC     N21481   6.755   4.286   1.879  0.2986 -0.0747  0.2242
  187POPC   C1221482   6.654   4.384   1.934 -0.1583 -0.0412  0.4364
  187POPC  H12A21483   6.612   4.349   2.027 -0.6238 -0.5362  0.0492
  187POPC  H12B21484   6.569   4.384   1.867 -0.6804 -1.5410  1.0734
  187POPC   C1321485   6.697   4.155   1.841 -0.2757  0.1944  0.2155
  187POPC  H13A21486   6.628   4.152   1.758 -0.1977  1.3432  0.0962
  187POPC  H13B21487   6.774   4.084   1.817  1.3013  1.3618  1.5551
  187POPC  H13C21488   6.637   4.112   1.920 -0.0050  1.3234  1.0722
  187POPC   C1421489   6.842   4.337   1.768 -0.0298  0.5168  0.5044
  187POPC  H14A21490   6.920   4.263   1.750 -1.0562 -0.8213  1.3664
  187POPC  H14B21491   6.799   4.360   1.672  1.8929  0.1618 -0.5016
  187POPC  H14C21492   6.893   4.430   1.787  1.4225  0.2017 -1.5109
  187POPC   C1521493   6.851   4.255   1.989  0.1716 -0.1390 -0.2113
  187POPC  H15A21494   6.807   4.221   2.082 -0.3259  2.0271  0.4029
  187POPC  H15B21495   6.907   4.344   2.014  0.4653 -0.7907  1.6340
  187POPC  H15C21496   6.929   4.184   1.966  0.5469  0.3900 -0.5943
  187POPC   C1121497   6.698   4.532   1.945 -0.4091  0.0585  0.6297
  187POPC  H11A21498   6.603   4.586   1.964 -0.7371  0.1759 -1.1740
  187POPC  H11B21499   6.746   4.574   1.854  2.1458  0.0444  1.8792
  187POPC     P21500   6.734   4.599   2.193  0.2486 -0.1047 -0.0535
  187POPC   O1321501   6.660   4.723   2.159  0.5584 -0.8727  0.5353
  187POPC   O1421502   6.851   4.606   2.280  0.2121 -0.0442 -0.4458
  187POPC   O1221503   6.792   4.533   2.057  0.3255  0.2950 -0.3164
  187POPC   O1121504   6.628   4.496   2.254  0.2768  0.7390  0.0676
  187POPC    C121505   6.509   4.537   2.321  0.2008 -0.5249  0.1514
  187POPC    HA21506   6.434   4.554   2.240  1.7635 -0.9409 -1.4400
  187POPC    HB21507   6.530   4.632   2.374  2.2641 -0.8273 -0.0589
  187POPC    C221508   6.456   4.442   2.436 -0.1761  0.5012 -0.1877
  187POPC    HS21509   6.405   4.503   2.514 -4.6989 -1.2681 -1.4930
  187POPC   O2121510   6.568   4.364   2.483 -0.2615  0.2980 -0.0298
  187POPC   C2121511   6.641   4.414   2.571 -0.4036  0.0656 -0.1959
  187POPC   O2221512   6.622   4.520   2.632 -0.7452 -0.0678  0.3369
  187POPC   C2221513   6.739   4.309   2.613 -0.0153 -0.5804 -0.7283
  187POPC   H2R21514   6.800   4.290   2.522 -0.8295  0.6487 -1.5527
  187POPC   H2S21515   6.680   4.219   2.640 -3.4082  1.1101 -1.8880
  187POPC    C321516   6.343   4.348   2.381 -0.2644 -0.6206  0.4193
  187POPC    HX21517   6.379   4.289   2.294  0.3167  2.2144 -1.3878
  187POPC    HY21518   6.270   4.416   2.332 -1.7815 -1.7744  0.9698
  187POPC   O3121519   6.276   4.275   2.479 -0.1318  0.6398 -0.2583
  187POPC   C3121520   6.190   4.181   2.437 -0.4812 -0.0395  0.5247
  187POPC   O3221521   6.163   4.171   2.318  0.4638  0.0705 -0.2404
  187POPC   C3221522   6.132   4.110   2.560  0.4527  0.2081  0.7154
  187POPC   H2X21523   6.082   4.192   2.615 -0.3585  0.4030 -0.2889
  187POPC   H2Y21524   6.217   4.065   2.617  1.5916 -0.8166 -1.6644
  187POPC   C2321525   6.846   4.353   2.722 -0.2394  0.2099  0.3788
  187POPC   H3R21526   6.898   4.450   2.703  0.1999 -0.4139 -1.7761
  187POPC   H3S21527   6.929   4.280   2.714  1.1172  1.6568  0.7214
  187POPC   C2421528   6.796   4.330   2.865 -0.0740 -0.2474 -0.3209
  187POPC   H4R21529   6.716   4.253   2.871 -0.5057  0.1893 -0.4717
  187POPC   H4S21530   6.758   4.424   2.910  2.3174  0.4320  0.4533
  187POPC   C2521531   6.912   4.284   2.953 -0.0577 -0.4293  0.5441
  187POPC   H5R21532   6.991   4.363   2.951  1.0335 -1.4166  2.5381
  187POPC   H5S21533   6.957   4.194   2.906  0.4186  0.9706 -1.8934
  187POPC   C2621534   6.867   4.255   3.097 -0.4784 -0.0934  0.1966
  187POPC   H6R21535   6.947   4.204   3.155 -0.4432  0.7351  0.8941
  187POPC   H6S21536   6.783   4.182   3.096 -0.2724 -0.3732  1.6898
  187POPC   C2721537   6.817   4.371   3.174 -0.1102  0.4166 -0.7520
  187POPC   H7R21538   6.720   4.410   3.135  0.4125  0.0011 -2.5594
  187POPC   H7S21539   6.887   4.455   3.156 -0.1457  0.2728 -1.6013
  187POPC   C2821540   6.778   4.341   3.318  0.0431  0.7156  0.4386
  187POPC   H8R21541   6.698   4.264   3.322  0.4426  0.3399  1.5350
  187POPC   H8S21542   6.737   4.435   3.362 -0.3892  1.2731 -1.1027
  187POPC   C2921543   6.898   4.295   3.398 -0.0232  1.0192 -0.0272
  187POPC   H9121544   6.961   4.384   3.416 -1.4553  1.5819  2.6916
  187POPC  C21021545   6.927   4.168   3.444  0.4765  0.3927 -0.0998
  187POPC  H10121546   7.013   4.141   3.507 -0.9253 -1.9668  0.9523
  187POPC  C21121547   6.837   4.050   3.418 -0.6059 -1.0715 -0.1726
  187POPC  H11R21548   6.908   3.965   3.420 -1.9843 -2.2537  1.5690
  187POPC  H11S21549   6.806   4.059   3.311  1.2839  2.8667 -0.5504
  187POPC  C21221550   6.722   4.023   3.514 -0.9334  0.0817 -0.1703
  187POPC  H12R21551   6.667   3.935   3.475  2.6555 -2.2515 -0.3907
  187POPC  H12S21552   6.649   4.107   3.521  0.2597  1.2855 -1.5245
  187POPC  C21321553   6.771   3.994   3.651 -0.0505  0.0132 -0.8007
  187POPC  H13R21554   6.792   4.084   3.712 -2.4575  0.7100 -0.9121
  187POPC  H13S21555   6.867   3.937   3.650 -0.2529 -0.3500 -0.2439
  187POPC  C21421556   6.667   3.918   3.730  0.2972  0.5738 -0.0903
  187POPC  H14R21557   6.627   3.836   3.668  1.5967 -1.9732  2.2454
  187POPC  H14S21558   6.583   3.983   3.763  0.7647  1.8327 -1.2393
  187POPC  C21521559   6.712   3.851   3.860 -0.5236  0.4458  0.2754
  187POPC  H15R21560   6.756   3.755   3.827  0.1228  0.5938  0.6886
  187POPC  H15S21561   6.619   3.816   3.909 -0.2510 -0.1160  0.3968
  187POPC  C21621562   6.794   3.931   3.959  0.0663 -0.3397 -0.6322
  187POPC  H16R21563   6.726   4.008   4.003  1.7144  0.9795 -0.2462
  187POPC  H16S21564   6.886   3.972   3.912 -0.1601  1.2333  0.2092
  187POPC  C21721565   6.837   3.844   4.081 -0.1810  0.4716  0.4486
  187POPC  H17R21566   6.886   3.756   4.034 -1.0194 -0.6512  1.5998
  187POPC  H17S21567   6.745   3.805   4.129 -1.1735  1.9548 -0.1993
  187POPC  C21821568   6.932   3.920   4.167  0.1697 -0.1064 -0.1636
  187POPC  H18R21569   7.028   3.951   4.120 -0.9595  0.6972 -2.0405
  187POPC  H18S21570   6.956   3.848   4.248 -1.1128  1.2089  1.4548
  187POPC  H18T21571   6.891   4.010   4.217 -1.0459 -0.1310 -1.0802
  187POPC   C3321572   6.011   4.008   2.545 -0.1520  0.3732 -0.6040
  187POPC   H3X21573   6.034   3.921   2.480  1.1007  1.4377 -1.6356
  187POPC   H3Y21574   5.928   4.062   2.493 -1.5320 -1.2217 -0.1618
  187POPC   C3421575   5.961   3.945   2.677  0.7964 -0.5317 -0.0703
  187POPC   H4X21576   6.045   3.880   2.709  1.1731 -0.0426 -0.0411
  187POPC   H4Y21577   5.867   3.889   2.659  0.9192 -1.4901  1.9694
  187POPC   C3521578   5.933   4.064   2.783  0.4737  0.4043 -0.4362
  187POPC   H5X21579   5.878   4.149   2.738 -0.0005 -0.4191 -1.4492
  187POPC   H5Y21580   6.034   4.100   2.811  0.2633  0.1129  0.7582
  187POPC   C3621581   5.851   4.020   2.903 -0.2651 -0.0377 -0.1910
  187POPC   H6X21582   5.749   4.002   2.865 -0.4628  1.3751 -0.3739
  187POPC   H6Y21583   5.846   4.114   2.962  2.2058  0.2193 -0.2646
  187POPC   C3721584   5.896   3.899   2.984 -0.1635  0.2217 -0.0391
  187POPC   H7X21585   5.992   3.921   3.035 -0.4981  0.0583  0.6779
  187POPC   H7Y21586   5.916   3.816   2.913  1.7508  1.3900 -0.9419
  187POPC   C3821587   5.807   3.869   3.107  0.1807 -0.5499  1.0060
  187POPC   H8X21588   5.705   3.842   3.071  1.2285 -1.3261 -1.6264
  187POPC   H8Y21589   5.790   3.956   3.175  0.5878  0.8348 -0.6031
  187POPC   C3921590   5.858   3.735   3.177  0.2912 -0.0038  0.2787
  187POPC   H9X21591   5.957   3.742   3.227  0.4677  0.1982 -0.0979
  187POPC   H9Y21592   5.875   3.661   3.096 -0.5577 -0.8051  0.8099
  187POPC  C31021593   5.749   3.662   3.262 -0.2519  0.8128 -0.2757
  187POPC  H10X21594   5.777   3.555   3.251  0.5211  1.2085 -2.8073
  187POPC  H10Y21595   5.643   3.674   3.228 -1.1183 -0.4195  1.8134
  187POPC  C31121596   5.758   3.691   3.407 -0.2835  0.2634  0.0457
  187POPC  H11X21597   5.851   3.668   3.463 -0.4044  1.0995  0.6034
  187POPC  H11Y21598   5.685   3.619   3.448  0.0826  0.3281  0.8338
  187POPC  C31221599   5.721   3.848   3.415  0.7924  0.7643  0.2443
  187POPC  H12X21600   5.643   3.866   3.338  0.2033  2.0494  1.0878
  187POPC  H12Y21601   5.808   3.904   3.376  1.4334  0.1318  0.7499
  187POPC  C31321602   5.665   3.899   3.547 -0.3861  0.0414 -0.1912
  187POPC  H13X21603   5.571   3.846   3.570  1.5773 -2.2737  3.3566
  187POPC  H13Y21604   5.658   4.010   3.545  0.1547  0.0961  0.5371
  187POPC  C31421605   5.757   3.860   3.668 -0.3744 -0.4191  0.5132
  187POPC  H14X21606   5.853   3.868   3.614 -0.4519  1.0606  0.5522
  187POPC  H14Y21607   5.749   3.753   3.697  2.6668 -1.2235 -1.1656
  187POPC  C31521608   5.737   3.953   3.788 -0.2231 -0.5415 -0.4157
  187POPC  H15X21609   5.768   4.057   3.765 -0.2003  0.2059  2.5739
  187POPC  H15Y21610   5.807   3.924   3.869 -1.6941 -2.4132  0.2713
  187POPC  C31621611   5.595   3.942   3.835  0.3284 -0.7037 -0.6415
  187POPC  H16X21612   5.578   4.019   3.913 -2.6591 -0.4715 -1.3904
  187POPC  H16Y21613   5.588   3.840   3.877 -2.0447 -0.3866 -0.1200
  187POPC  H16Z21614   5.527   3.969   3.752  2.3511  0.1445 -2.1115
  188POPC     N21615   1.951   4.114   2.323  0.0559 -0.7285 -0.3571
  188POPC   C1221616   2.077   4.150   2.408 -0.3617 -0.8992  0.2828
  188POPC  H12A21617   2.084   4.090   2.498 -1.0174 -0.8923  0.3419
  188POPC  H12B21618   2.055   4.243   2.458  0.0802 -0.0857 -0.9867
  188POPC   C1321619   1.942   4.211   2.218 -0.4413  0.4891  0.0241
  188POPC  H13A21620   2.038   4.224   2.169 -0.4130 -0.2770 -0.1502
  188POPC  H13B21621   1.873   4.194   2.137 -0.2307 -0.1987 -0.0187
  188POPC  H13C21622   1.919   4.309   2.256 -1.9961  0.6812 -1.3250
  188POPC   C1421623   1.953   3.974   2.263  0.0235 -0.7914  0.6904
  188POPC  H14A21624   1.976   3.901   2.339 -1.9637 -0.1232  1.9986
  188POPC  H14B21625   1.855   3.956   2.222 -0.2066  2.1802 -0.2811
  188POPC  H14C21626   2.029   3.962   2.187 -1.6270 -0.3837 -1.0841
  188POPC   C1521627   1.827   4.128   2.405  0.6200 -0.1125  0.0500
  188POPC  H15A21628   1.841   4.070   2.496  3.1442 -0.6407 -0.6168
  188POPC  H15B21629   1.746   4.087   2.346  0.9821  2.3446 -2.3310
  188POPC  H15C21630   1.811   4.233   2.426  0.2032 -0.0313 -0.6608
  188POPC   C1121631   2.218   4.142   2.348 -0.1196  0.2151 -0.3376
  188POPC  H11A21632   2.238   4.041   2.308 -0.8873 -0.0804  0.0100
  188POPC  H11B21633   2.278   4.166   2.439 -2.5494  2.5929  0.8164
  188POPC     P21634   2.269   4.366   2.228  0.1441  0.1197 -0.0316
  188POPC   O1321635   2.194   4.441   2.124  0.0153  0.7226 -0.5637
  188POPC   O1421636   2.418   4.371   2.220  0.8443 -0.0823 -0.1682
  188POPC   O1221637   2.230   4.215   2.228  0.5871  0.0047  0.6386
  188POPC   O1121638   2.224   4.431   2.372  0.0513  0.5345 -0.6250
  188POPC    C121639   2.308   4.531   2.435  0.2034  0.9866 -0.4420
  188POPC    HA21640   2.234   4.593   2.490 -0.4483 -0.7627  0.7445
  188POPC    HB21641   2.370   4.596   2.370  0.9227  0.3755 -0.3856
  188POPC    C221642   2.403   4.467   2.544  0.1262 -0.2899  1.1603
  188POPC    HS21643   2.487   4.407   2.501  0.4104  0.3342  0.8419
  188POPC   O2121644   2.318   4.385   2.624 -0.0351 -0.4383 -0.8624
  188POPC   C2121645   2.383   4.293   2.701  0.0194  0.0408 -0.7616
  188POPC   O2221646   2.503   4.272   2.697  0.1771  0.4711  0.7470
  188POPC   C2221647   2.277   4.225   2.781 -0.0614 -0.1603 -0.6719
  188POPC   H2R21648   2.322   4.140   2.836 -1.2968 -0.6515 -0.3828
  188POPC   H2S21649   2.205   4.184   2.706 -1.4919 -0.6990  0.9375
  188POPC    C321650   2.485   4.570   2.629 -0.1621 -0.1124 -1.3530
  188POPC    HX21651   2.529   4.627   2.544 -0.5560  0.2827 -1.2933
  188POPC    HY21652   2.565   4.523   2.690 -1.4717  0.1161  0.6017
  188POPC   O3121653   2.405   4.663   2.706 -0.0788 -0.1777 -0.3965
  188POPC   C3121654   2.401   4.625   2.835 -0.1539 -0.1021 -0.8007
  188POPC   O3221655   2.473   4.546   2.885  0.2875  0.1528  0.5745
  188POPC   C3221656   2.288   4.699   2.911  0.2858 -0.0526  0.0129
  188POPC   H2X21657   2.211   4.620   2.926  1.5299 -0.9625  2.1279
  188POPC   H2Y21658   2.256   4.792   2.860 -0.2718  0.2359  0.8606
  188POPC   C2321659   2.193   4.315   2.870  0.1668  0.7507 -0.1066
  188POPC   H3R21660   2.092   4.273   2.850  1.0128 -0.1177 -2.9599
  188POPC   H3S21661   2.181   4.416   2.826 -1.8756  1.2641  1.4644
  188POPC   C2421662   2.234   4.312   3.021 -0.6219  0.1793  0.1649
  188POPC   H4R21663   2.320   4.382   3.012  0.3079 -0.8663  0.6577
  188POPC   H4S21664   2.274   4.213   3.054  1.6379  1.4540  1.4994
  188POPC   C2521665   2.144   4.383   3.127  0.1894  1.1118  0.2003
  188POPC   H5R21666   2.047   4.329   3.122 -0.0699  1.6421 -1.1771
  188POPC   H5S21667   2.120   4.488   3.099 -2.9522  0.6522  0.8001
  188POPC   C2621668   2.214   4.361   3.259 -0.7463  0.1552 -0.1597
  188POPC   H6R21669   2.324   4.369   3.244 -0.6056 -1.4019 -0.1274
  188POPC   H6S21670   2.181   4.263   3.298  0.5367  0.3972  1.6918
  188POPC   C2721671   2.175   4.467   3.364 -0.1964 -0.2243  0.7886
  188POPC   H7R21672   2.065   4.453   3.379 -0.7797  1.0945 -1.7814
  188POPC   H7S21673   2.191   4.570   3.325  0.0778 -0.8893 -0.9235
  188POPC   C2821674   2.249   4.453   3.502 -0.1338 -0.5435 -0.1907
  188POPC   H8R21675   2.357   4.474   3.495 -0.3981  0.3746 -2.1129
  188POPC   H8S21676   2.229   4.351   3.541  0.6854 -1.1282 -1.2283
  188POPC   C2921677   2.183   4.557   3.596  0.1689  0.0591 -0.0512
  188POPC   H9121678   2.087   4.606   3.572  0.1603 -0.7167 -1.7125
  188POPC  C21021679   2.236   4.607   3.709  0.0221  0.1775 -0.3229
  188POPC  H10121680   2.186   4.675   3.779  0.9444  0.0278  0.5272
  188POPC  C21121681   2.363   4.557   3.766 -0.0805  0.7002 -0.1315
  188POPC  H11R21682   2.406   4.624   3.843 -0.4578  1.2135 -0.3601
  188POPC  H11S21683   2.445   4.553   3.690 -0.5729 -0.6670 -0.6325
  188POPC  C21221684   2.365   4.423   3.837  0.9046 -0.4986  0.2936
  188POPC  H12R21685   2.466   4.383   3.863  1.2095 -0.0164 -0.1217
  188POPC  H12S21686   2.321   4.350   3.766 -0.9381  0.2271  0.6414
  188POPC  C21321687   2.278   4.428   3.961 -0.1468  0.1408 -0.8826
  188POPC  H13R21688   2.265   4.321   3.989 -1.9118  0.6172  0.3053
  188POPC  H13S21689   2.175   4.468   3.952 -0.5065 -0.8796 -1.4270
  188POPC  C21421690   2.337   4.504   4.085  0.3010  0.1870 -0.2024
  188POPC  H14R21691   2.447   4.513   4.073  0.2894  0.5324 -0.0647
  188POPC  H14S21692   2.324   4.444   4.178  1.5638  1.9648  1.1920
  188POPC  C21521693   2.282   4.655   4.110 -0.6558 -0.1543 -0.2196
  188POPC  H15R21694   2.171   4.657   4.101 -0.5404  1.1894 -1.6238
  188POPC  H15S21695   2.327   4.714   4.028  1.9441 -0.4170  0.9197
  188POPC  C21621696   2.326   4.712   4.245 -0.2741 -0.0615  0.9060
  188POPC  H16R21697   2.436   4.713   4.261 -0.5899  1.5646  3.6620
  188POPC  H16S21698   2.281   4.650   4.326 -1.4426 -0.3154  0.0823
  188POPC  C21721699   2.256   4.850   4.258 -0.5617 -0.0368 -0.3939
  188POPC  H17R21700   2.302   4.914   4.337 -1.4414  2.1194 -1.5481
  188POPC  H17S21701   2.150   4.847   4.290 -0.9862  0.7671 -1.6405
  188POPC  C21821702   2.256   4.942   4.132 -0.1578 -0.5757  0.2771
  188POPC  H18R21703   2.203   5.034   4.164  3.1832  1.9079 -0.7391
  188POPC  H18S21704   2.204   4.899   4.043 -0.4068 -0.3355  0.3065
  188POPC  H18T21705   2.354   4.987   4.107  0.5824 -1.8530  0.7804
  188POPC   C3321706   2.343   4.740   3.045 -0.0152 -0.6646 -0.3420
  188POPC   H3X21707   2.412   4.823   3.019  0.5296 -0.8691  0.3983
  188POPC   H3Y21708   2.413   4.661   3.082 -0.0462 -1.6894 -2.3610
  188POPC   C3421709   2.241   4.777   3.153  0.3633 -0.0823  0.3328
  188POPC   H4X21710   2.192   4.677   3.159 -0.2892 -0.0398 -2.6349
  188POPC   H4Y21711   2.162   4.842   3.108  0.6759 -1.0989 -1.7974
  188POPC   C3521712   2.296   4.822   3.285  0.3675  1.0689 -0.6431
  188POPC   H5X21713   2.370   4.751   3.326 -0.1449  1.1554  0.4765
  188POPC   H5Y21714   2.211   4.817   3.356  2.9119  0.1492  2.5640
  188POPC   C3621715   2.341   4.972   3.290 -0.6095  0.4070  0.0801
  188POPC   H6X21716   2.269   5.047   3.252 -0.5926  1.8070  2.5839
  188POPC   H6Y21717   2.433   4.972   3.228  0.1994  0.0461  1.2461
  188POPC   C3721718   2.387   5.014   3.430 -0.5430 -0.5178  0.3618
  188POPC   H7X21719   2.419   4.933   3.499 -1.9487 -1.1024  0.3597
  188POPC   H7Y21720   2.301   5.049   3.491  0.0808 -1.4275  1.8194
  188POPC   C3821721   2.494   5.128   3.425  0.4218  0.1654 -0.2762
  188POPC   H8X21722   2.504   5.178   3.326  1.9644  2.5375  0.9893
  188POPC   H8Y21723   2.588   5.073   3.448  0.4880 -0.1004 -1.1245
  188POPC   C3921724   2.480   5.215   3.554 -0.7777  0.4237  0.1057
  188POPC   H9X21725   2.390   5.279   3.560  0.4626  2.2812 -0.0126
  188POPC   H9Y21726   2.568   5.284   3.552  1.8987 -2.7437 -0.3643
  188POPC  C31021727   2.498   5.140   3.688  0.6356 -0.4136  0.4865
  188POPC  H10X21728   2.587   5.076   3.673 -1.4910 -3.1672 -1.3994
  188POPC  H10Y21729   2.411   5.075   3.714  0.5205 -0.6889 -0.5410
  188POPC  C31121730   2.530   5.229   3.808  0.5049 -0.6306 -0.4780
  188POPC  H11X21731   2.444   5.298   3.821  0.2354 -0.8975 -0.8225
  188POPC  H11Y21732   2.610   5.303   3.788  1.2920 -1.5219 -0.7220
  188POPC  C31221733   2.550   5.149   3.945  0.7341 -0.5553  0.9339
  188POPC  H12X21734   2.650   5.101   3.943  0.4404 -1.1570 -0.2491
  188POPC  H12Y21735   2.468   5.074   3.943 -1.3998  1.5926  1.7973
  188POPC  C31321736   2.542   5.221   4.076 -0.2906 -0.0556  0.7805
  188POPC  H13X21737   2.537   5.146   4.158 -2.7335  1.4396  2.0908
  188POPC  H13Y21738   2.444   5.273   4.083  0.6350  2.0394 -0.5614
  188POPC  C31421739   2.658   5.312   4.097  0.1626 -0.2962 -0.0649
  188POPC  H14X21740   2.679   5.397   4.029  1.0983 -0.0995  0.4593
  188POPC  H14Y21741   2.752   5.254   4.095  0.5652  0.3199  0.5920
  188POPC  C31521742   2.651   5.373   4.240  0.2252 -0.9249 -0.3844
  188POPC  H15X21743   2.652   5.293   4.317  1.4528  0.2225  0.8542
  188POPC  H15Y21744   2.551   5.416   4.259  0.4657 -0.1232 -0.8754
  188POPC  C31621745   2.777   5.461   4.262  0.4814 -0.3348 -0.6714
  188POPC  H16X21746   2.777   5.550   4.197  2.3065 -0.0633 -0.3632
  188POPC  H16Y21747   2.873   5.411   4.235  0.1449 -0.0296 -2.5453
  188POPC  H16Z21748   2.779   5.479   4.372 -1.2080 -1.1700 -0.4678
  189SAPI   C1221749   5.842   1.832   6.680  0.5596 -0.0650  0.4566
  189SAPI    H221750   5.933   1.872   6.632  1.3273 -2.1425  0.0614
  189SAPI    O221751   5.883   1.766   6.794 -0.3287  0.2461  0.1800
  189SAPI   HO221752   5.891   1.674   6.768  0.6796  0.3039  0.2371
  189SAPI   C1321753   5.758   1.955   6.714 -0.1424  0.0799 -0.0986
  189SAPI    H321754   5.733   2.007   6.619  0.1850 -0.3786 -0.4419
  189SAPI    O321755   5.832   2.057   6.790  0.1883  0.3135  0.2960
  189SAPI   HO321756   5.848   2.024   6.879  0.5177  0.2846  0.2261
  189SAPI   C1421757   5.635   1.905   6.796 -0.5958  0.0021 -0.5799
  189SAPI    H421758   5.675   1.852   6.885 -1.2716 -1.1748 -0.9527
  189SAPI    O421759   5.549   2.013   6.843  0.1377  0.2303 -0.2204
  189SAPI   HO421760   5.457   1.987   6.837  0.4574 -0.6282 -1.8080
  189SAPI   C1521761   5.561   1.792   6.717  0.0861 -0.9057  0.3275
  189SAPI    H521762   5.515   1.850   6.633 -1.1367  0.7576  2.0440
  189SAPI    O521763   5.453   1.736   6.790 -0.1943  0.1316 -0.2275
  189SAPI   HO521764   5.387   1.803   6.808 -0.5349 -0.0647 -0.7243
  189SAPI   C1621765   5.656   1.678   6.651  0.1545 -0.0728 -0.3558
  189SAPI    H621766   5.697   1.618   6.736  1.9943  0.4487 -0.8312
  189SAPI    O621767   5.590   1.585   6.565  0.2754 -0.1278  0.3614
  189SAPI   HO621768   5.549   1.634   6.493  0.6153  0.5910  0.6388
  189SAPI   C1121769   5.778   1.738   6.579 -0.5315 -0.3910 -0.0475
  189SAPI    H121770   5.745   1.799   6.492  0.0934 -0.2611 -0.1986
  189SAPI     P21771   5.973   1.653   6.408  0.4978 -0.1544 -0.0743
  189SAPI   O1321772   6.077   1.547   6.421  0.7655 -0.0779  0.0995
  189SAPI   O1421773   6.023   1.791   6.392 -0.1875  0.3453  0.2987
  189SAPI   O1221774   5.879   1.642   6.539 -0.5433 -0.6277  0.6014
  189SAPI   O1121775   5.872   1.634   6.286 -0.1089  0.0850 -0.1520
  189SAPI    C121776   5.780   1.528   6.291 -0.2277 -0.3141 -0.1495
  189SAPI    HA21777   5.794   1.463   6.380  2.2205 -1.3783 -1.2044
  189SAPI    HB21778   5.675   1.560   6.277 -0.1441  1.1453  2.0241
  189SAPI    C221779   5.819   1.422   6.183 -0.0879  0.0196 -0.7198
  189SAPI    HS21780   5.833   1.468   6.083 -0.3787 -0.0795 -0.8075
  189SAPI   O2121781   5.708   1.328   6.175  0.3066 -0.0144 -0.0464
  189SAPI   C2121782   5.617   1.351   6.085 -0.6969 -0.6297 -0.9591
  189SAPI   O2221783   5.604   1.458   6.022 -0.5007 -0.3639  0.3657
  189SAPI   C2221784   5.539   1.218   6.056  0.7153  0.5096  0.0130
  189SAPI   H2R21785   5.516   1.179   6.157  2.9575 -0.8159  0.0776
  189SAPI   H2S21786   5.455   1.255   5.994  0.8413 -0.0265 -0.4922
  189SAPI    C321787   5.946   1.330   6.210 -0.2343 -0.2980 -0.4935
  189SAPI    HX21788   5.936   1.288   6.312 -2.1235 -1.9533 -1.3033
  189SAPI    HY21789   6.030   1.403   6.205  0.4210 -0.8242  1.7600
  189SAPI   O3121790   5.956   1.234   6.110 -0.0327  1.0314 -0.5343
  189SAPI   C3121791   6.000   1.116   6.146  0.1081 -0.4014 -0.2526
  189SAPI   O3221792   6.035   1.083   6.259  0.0591 -0.1384  0.8962
  189SAPI   C3221793   6.023   1.036   6.020 -0.7668 -0.2565  1.2811
  189SAPI   H2X21794   6.133   1.029   6.006 -0.7248  1.2078  0.7842
  189SAPI   H2Y21795   5.980   1.077   5.926  0.5731 -2.2946 -0.2897
  189SAPI   C2321796   5.622   1.115   5.974 -0.2643 -0.2427 -0.3150
  189SAPI   H3R21797   5.591   1.011   5.995  1.0428 -0.4749  0.6231
  189SAPI   H3S21798   5.729   1.119   6.004  0.3515  0.1425 -2.3394
  189SAPI   C2421799   5.624   1.149   5.823  0.7852 -0.6918  0.1475
  189SAPI   H4R21800   5.639   1.259   5.811 -0.4209 -0.2080  2.4486
  189SAPI   H4S21801   5.523   1.129   5.782  1.8773 -2.0708 -2.0243
  189SAPI   C2521802   5.726   1.066   5.760 -0.2763  0.1233 -0.2686
  189SAPI   H5R21803   5.706   0.958   5.762  1.2116 -0.2864 -2.6638
  189SAPI   C2621804   5.832   1.095   5.685 -0.4615 -0.2124 -0.6855
  189SAPI   H6R21805   5.896   1.018   5.640 -0.3002 -0.6552  0.2893
  189SAPI   C2721806   5.874   1.231   5.629 -0.3031  0.3844 -0.0946
  189SAPI   H7R21807   5.829   1.316   5.685  0.0517  1.5378 -1.5045
  189SAPI   H7S21808   5.849   1.244   5.521  0.1875 -0.1070 -0.2761
  189SAPI   C2821809   6.024   1.244   5.635  0.2249 -0.2414 -0.2652
  189SAPI   H8R21810   6.059   1.288   5.730 -0.5435  0.7671 -0.4397
  189SAPI   C2921811   6.120   1.205   5.545 -0.3853  0.1267 -0.8331
  189SAPI   H9R21812   6.225   1.222   5.573 -0.0199 -2.4688 -0.3622
  189SAPI  C21021813   6.084   1.136   5.415 -0.6806  0.2382 -0.1634
  189SAPI  H10R21814   5.980   1.097   5.420 -0.3590 -0.5198  1.5158
  189SAPI  H10S21815   6.146   1.047   5.393  0.9512  2.0789 -4.0036
  189SAPI  C21121816   6.110   1.232   5.306  0.0514 -0.4735  0.2014
  189SAPI  H11R21817   6.047   1.323   5.311  1.6505  0.7189 -0.5570
  189SAPI  C21221818   6.165   1.198   5.189 -0.4380  0.2596  0.3928
  189SAPI  H12R21819   6.184   1.260   5.100  0.6770 -0.1119  0.3605
  189SAPI  C21321820   6.228   1.066   5.160 -0.7154  0.1564  0.5441
  189SAPI  H13R21821   6.279   1.039   5.255 -0.2999 -0.3868  0.1751
  189SAPI  H13S21822   6.314   1.073   5.090  0.6883  1.1462  2.3135
  189SAPI  C21421823   6.126   0.966   5.118 -0.0393  0.0134 -0.3911
  189SAPI  H14R21824   6.065   0.921   5.197 -1.0433  2.0666  0.0888
  189SAPI  C21521825   6.106   0.915   5.001  0.0387 -0.0164 -0.7168
  189SAPI  H15R21826   6.024   0.842   4.992  0.1211 -0.0301 -1.3880
  189SAPI  C21621827   6.167   0.953   4.870 -0.1485 -0.0414  0.3903
  189SAPI  H16R21828   6.181   1.062   4.857  1.3839 -0.3027 -0.3345
  189SAPI  H16S21829   6.098   0.935   4.785  2.2154  3.1713 -2.4465
  189SAPI  C21721830   6.313   0.897   4.852  0.1011 -0.3776  0.6725
  189SAPI  H17R21831   6.324   0.788   4.873  0.0452 -0.4037  0.5646
  189SAPI  H17S21832   6.397   0.947   4.905  1.9347 -2.4082 -0.1426
  189SAPI  C21821833   6.360   0.906   4.701 -0.0512  0.6700 -0.0424
  189SAPI  H18R21834   6.291   0.861   4.626  1.1253  0.2274 -0.8984
  189SAPI  H18S21835   6.438   0.829   4.680 -1.9019 -0.9034 -1.4664
  189SAPI  C21921836   6.403   1.045   4.670  0.3646 -0.4780 -0.2645
  189SAPI  H19R21837   6.491   1.070   4.733 -0.8468 -0.9386  1.6589
  189SAPI  H19S21838   6.328   1.124   4.691  0.6895 -0.5098  1.0467
  189SAPI  C22021839   6.438   1.056   4.520 -0.6315  0.3945  0.4188
  189SAPI  H20R21840   6.527   0.994   4.494 -1.5533 -0.8127  0.0805
  189SAPI  H20S21841   6.455   1.164   4.498 -0.2061 -0.0282 -1.4978
  189SAPI  H20T21842   6.351   1.029   4.457 -0.6519 -1.1801  1.0660
  189SAPI   C3321843   5.963   0.891   6.041  0.0078 -0.5363 -0.2112
  189SAPI   H3X21844   5.852   0.895   6.034 -0.2755 -1.6739  2.4987
  189SAPI   H3Y21845   5.982   0.862   6.146  1.1960 -0.1462 -0.3094
  189SAPI   C3421846   6.030   0.782   5.951 -0.3164  0.4837 -0.9888
  189SAPI   H4X21847   5.966   0.695   5.979  1.6513  0.0091  2.7080
  189SAPI   H4Y21848   6.123   0.758   6.006 -1.4599 -0.2488  0.7170
  189SAPI   C3521849   6.030   0.805   5.807  0.7874 -0.1878 -0.1105
  189SAPI   H5X21850   6.105   0.885   5.788 -0.2071  0.9130  0.4835
  189SAPI   H5Y21851   5.931   0.846   5.780  1.4592  0.3788 -1.8791
  189SAPI   C3621852   6.074   0.684   5.726 -0.5108  0.3471 -0.5291
  189SAPI   H6X21853   6.014   0.595   5.753  0.9600 -1.1180 -1.7944
  189SAPI   H6Y21854   6.181   0.665   5.750 -0.1084  0.8535 -1.7897
  189SAPI   C3721855   6.067   0.713   5.574 -0.2395  0.4109 -0.5684
  189SAPI   H7X21856   6.148   0.783   5.542 -1.7184  2.3132 -0.3311
  189SAPI   H7Y21857   5.966   0.755   5.553 -1.4259 -2.9746 -2.3362
  189SAPI   C3821858   6.083   0.586   5.486  0.3194  0.3743  0.4994
  189SAPI   H8X21859   6.002   0.515   5.514  0.1473  1.6183  3.5991
  189SAPI   H8Y21860   6.176   0.530   5.513  0.3027  0.9646  1.8621
  189SAPI   C3921861   6.087   0.614   5.335 -0.4375 -0.0750  0.0939
  189SAPI   H9X21862   6.158   0.694   5.303 -1.7028  0.3534 -1.7550
  189SAPI   H9Y21863   5.984   0.644   5.307 -0.9705 -1.4234  0.5392
  189SAPI  C31021864   6.119   0.489   5.253 -0.1097 -0.2953  0.6303
  189SAPI  H10X21865   6.052   0.406   5.284 -1.6353 -0.2697 -2.2457
  189SAPI  H10Y21866   6.229   0.469   5.257 -0.2289 -1.1416 -0.0281
  189SAPI  C31121867   6.101   0.509   5.096  0.3639  0.0952  0.3282
  189SAPI  H11X21868   6.122   0.413   5.044 -2.5336 -0.5287  0.1481
  189SAPI  H11Y21869   6.161   0.586   5.043 -3.6977  2.2193 -1.6570
  189SAPI  C31221870   5.954   0.531   5.040 -0.4032  0.8037  0.1978
  189SAPI  H12X21871   5.969   0.512   4.932  0.7322 -0.7476  0.6001
  189SAPI  H12Y21872   5.922   0.635   5.063  0.3376  0.9123  0.7865
  189SAPI  C31321873   5.850   0.433   5.100  0.4194 -0.1672  0.3571
  189SAPI  H13X21874   5.828   0.451   5.207  2.3103 -1.6018  1.0605
  189SAPI  H13Y21875   5.893   0.331   5.089 -1.5647 -1.1210  1.0469
  189SAPI  C31421876   5.728   0.446   5.016 -0.6327  0.2097 -0.2216
  189SAPI  H14X21877   5.745   0.455   4.907 -1.8927 -0.2258 -0.4709
  189SAPI  H14Y21878   5.667   0.536   5.040 -0.6030 -0.6285  3.7065
  189SAPI  C31521879   5.614   0.340   5.045 -0.3081 -0.1479  0.4139
  189SAPI  H15X21880   5.661   0.248   5.004  0.2472  0.0819  0.5210
  189SAPI  H15Y21881   5.526   0.360   4.980 -0.7698  0.6779  1.2602
  189SAPI  C31621882   5.561   0.329   5.185  0.6220 -0.3331 -1.0228
  189SAPI  H16X21883   5.516   0.427   5.214 -3.3218 -1.2674 -3.1545
  189SAPI  H16Y21884   5.630   0.299   5.267  0.5526 -0.6146 -1.0660
  189SAPI  C31721885   5.441   0.233   5.197 -0.0826 -0.3000  0.0243
  189SAPI  H17X21886   5.380   0.251   5.106  2.4717 -1.4100 -2.0512
  189SAPI  H17Y21887   5.393   0.260   5.293  0.3081 -0.6050  0.3072
  189SAPI  C31821888   5.465   0.083   5.203 -0.1094  0.4860 -0.1865
  189SAPI  H18X21889   5.512   0.041   5.112 -0.9759 -1.0699  0.0428
  189SAPI  H18Y21890   5.363   0.040   5.191 -0.5811  1.7869 -1.1689
  189SAPI  H18Z21891   5.515   0.056   5.298 -0.4008  0.6462  0.0163
  190SAPI   C1221892   3.765   5.409   6.833  0.8428  0.2986 -0.5391
  190SAPI    H221893   3.806   5.484   6.762 -0.7891  0.7936 -1.0101
  190SAPI    O221894   3.624   5.446   6.844  0.3618  0.2385 -0.0648
  190SAPI   HO221895   3.584   5.477   6.762 -0.0339 -3.5158 -1.5267
  190SAPI   C1321896   3.776   5.270   6.787  0.3755  0.3544  0.3054
  190SAPI    H321897   3.886   5.252   6.790  0.2330 -0.4606  2.6188
  190SAPI    O321898   3.739   5.262   6.651 -0.2689  0.3737 -0.0794
  190SAPI   HO321899   3.668   5.198   6.640  1.3538 -1.3000 -1.2737
  190SAPI   C1421900   3.702   5.166   6.870 -0.1644  0.0987 -0.0160
  190SAPI    H421901   3.595   5.185   6.846 -0.6397 -1.6885  0.6066
  190SAPI    O421902   3.741   5.036   6.830  0.0363  0.2530 -0.2598
  190SAPI   HO421903   3.664   4.979   6.833 -0.0031  0.3445  2.1995
  190SAPI   C1521904   3.728   5.188   7.018  0.1738 -0.2078 -0.0015
  190SAPI    H521905   3.818   5.127   7.041  1.0404  0.2104 -2.0016
  190SAPI    O521906   3.628   5.126   7.101  0.2494  0.0806 -0.7201
  190SAPI   HO521907   3.675   5.058   7.148 -0.7870  0.1546  0.4912
  190SAPI   C1621908   3.766   5.328   7.065  0.5575 -0.1125 -0.2234
  190SAPI    H621909   3.669   5.375   7.092  0.7047  1.1280 -1.7082
  190SAPI    O621910   3.840   5.314   7.188  0.0501  0.2529  0.0727
  190SAPI   HO621911   3.868   5.402   7.214  1.2639 -0.1764  0.3100
  190SAPI   C1121912   3.827   5.427   6.970 -0.7452 -0.7051  0.5316
  190SAPI    H121913   3.932   5.392   6.960 -1.5331 -2.9273 -0.7615
  190SAPI     P21914   3.923   5.679   6.978 -0.0414 -0.4060  0.0688
  190SAPI   O1321915   4.048   5.625   6.927 -0.4055 -0.6842  0.3577
  190SAPI   O1421916   3.927   5.773   7.094  0.7962 -0.0544  0.2790
  190SAPI   O1221917   3.821   5.556   7.023 -0.1708 -0.3181 -0.2480
  190SAPI   O1121918   3.848   5.766   6.859 -0.1299  0.0124 -0.8877
  190SAPI    C121919   3.711   5.805   6.861 -0.3192 -0.3352  0.2972
  190SAPI    HA21920   3.647   5.716   6.880  0.1360 -0.4465  1.3770
  190SAPI    HB21921   3.695   5.869   6.951  1.0367  0.0509  0.2747
  190SAPI    C221922   3.672   5.865   6.722  0.8741  0.4400  0.1968
  190SAPI    HS21923   3.561   5.873   6.725  0.8856  0.5857  0.2361
  190SAPI   O2121924   3.712   5.781   6.611 -0.4832  0.0531 -0.1806
  190SAPI   C2121925   3.646   5.666   6.591  0.3288 -0.3909 -0.3638
  190SAPI   O2221926   3.557   5.615   6.658  0.1009 -0.4979  0.3993
  190SAPI   C2221927   3.692   5.608   6.463  0.0616  0.9998  0.1600
  190SAPI   H2R21928   3.799   5.636   6.454  0.4220 -0.3246  0.1249
  190SAPI   H2S21929   3.691   5.497   6.473 -0.1151  0.7925 -1.7567
  190SAPI    C321930   3.721   6.011   6.709  0.2324 -0.4264 -0.5545
  190SAPI    HX21931   3.831   6.007   6.726  0.1955 -1.7226 -0.4926
  190SAPI    HY21932   3.687   6.074   6.794  2.8689 -2.1284  1.9812
  190SAPI   O3121933   3.685   6.075   6.581 -0.0174 -0.1119  0.3254
  190SAPI   C3121934   3.786   6.066   6.490  0.3897  0.3349 -0.2518
  190SAPI   O3221935   3.903   6.045   6.508  0.2679  0.0278  0.3529
  190SAPI   C3221936   3.715   6.074   6.351 -0.1194 -0.0329  0.0034
  190SAPI   H2X21937   3.677   6.177   6.337 -0.4101 -0.1237  0.1043
  190SAPI   H2Y21938   3.625   6.010   6.364 -0.4940  0.8761  2.4552
  190SAPI   C2321939   3.624   5.641   6.331 -0.1171  0.2114 -0.1734
  190SAPI   H3R21940   3.620   5.752   6.333  1.3850  0.2860 -0.0740
  190SAPI   H3S21941   3.524   5.593   6.323 -0.3102  0.2150  1.7220
  190SAPI   C2421942   3.706   5.600   6.213  0.2734  0.4736  0.3361
  190SAPI   H4R21943   3.789   5.673   6.221  0.9112 -0.1518 -0.4209
  190SAPI   H4S21944   3.656   5.637   6.121 -0.4306  0.1914  0.5980
  190SAPI   C2521945   3.746   5.456   6.191  0.7557 -0.2465  0.5054
  190SAPI   H5R21946   3.683   5.374   6.229 -2.9073  1.5731 -1.0660
  190SAPI   C2621947   3.849   5.428   6.105  1.0791 -0.6414 -0.1989
  190SAPI   H6R21948   3.862   5.319   6.111 -0.4128 -0.8878 -1.0077
  190SAPI   C2721949   3.941   5.511   6.019 -0.0181  0.0708 -0.0878
  190SAPI   H7R21950   4.048   5.489   6.038  0.1800  0.9414 -0.1421
  190SAPI   H7S21951   3.916   5.616   6.044 -1.1567  0.0086 -0.8675
  190SAPI   C2821952   3.916   5.500   5.870  0.0483 -0.4691  0.1534
  190SAPI   H8R21953   3.818   5.459   5.840 -0.5868  0.7545  0.4596
  190SAPI   C2921954   3.982   5.554   5.770  0.2653 -0.3137 -0.8309
  190SAPI   H9R21955   3.954   5.534   5.665 -2.5308  1.5448 -0.5328
  190SAPI  C21021956   4.106   5.638   5.784  0.9016 -0.6155  0.2291
  190SAPI  H10R21957   4.198   5.578   5.767 -0.0131 -2.1301  0.4754
  190SAPI  H10S21958   4.124   5.678   5.886 -1.0470  2.2835 -0.4305
  190SAPI  C21121959   4.100   5.765   5.700 -0.6452  0.4566  0.7727
  190SAPI  H11R21960   4.055   5.848   5.756  0.9735  2.0803 -0.2219
  190SAPI  C21221961   4.127   5.770   5.568 -0.7266  0.2313  0.8555
  190SAPI  H12R21962   4.111   5.867   5.519  0.5415  1.0323  1.9506
  190SAPI  C21321963   4.184   5.673   5.460 -0.2523  0.2390 -0.0385
  190SAPI  H13R21964   4.105   5.627   5.396  0.6652 -2.4192  0.5897
  190SAPI  H13S21965   4.233   5.593   5.520  0.8205 -0.5695 -1.9129
  190SAPI  C21421966   4.294   5.748   5.384 -0.8059  0.2205  0.1314
  190SAPI  H14R21967   4.371   5.794   5.447 -1.6743  2.3090 -0.2523
  190SAPI  C21521968   4.281   5.785   5.256 -0.4005  0.2472 -0.4590
  190SAPI  H15R21969   4.360   5.847   5.211  0.7099 -1.3862 -0.8425
  190SAPI  C21621970   4.167   5.746   5.157  0.1964 -1.0596 -0.9138
  190SAPI  H16R21971   4.135   5.838   5.105  1.5181 -0.7707 -1.2505
  190SAPI  H16S21972   4.078   5.724   5.220  1.4730 -1.7730  0.7093
  190SAPI  C21721973   4.217   5.636   5.070 -0.2675 -0.3375 -0.3736
  190SAPI  H17R21974   4.274   5.556   5.120  0.6527  0.7509  0.3702
  190SAPI  H17S21975   4.293   5.672   4.997  2.8749 -2.8851  1.3840
  190SAPI  C21821976   4.092   5.572   4.992  0.0928  0.8220  0.5356
  190SAPI  H18R21977   4.026   5.649   4.947  0.2057  1.1657  0.9547
  190SAPI  H18S21978   4.033   5.509   5.063  0.9666 -1.0152 -0.3039
  190SAPI  C21921979   4.153   5.488   4.882 -0.0701  0.3660  0.6479
  190SAPI  H19R21980   4.221   5.413   4.929  1.1275  1.1876  0.2759
  190SAPI  H19S21981   4.225   5.538   4.815 -1.3931  0.5431 -0.6976
  190SAPI  C22021982   4.051   5.423   4.789 -0.1796 -0.2588 -0.2653
  190SAPI  H20R21983   3.976   5.502   4.766  0.2841  1.1135  2.5306
  190SAPI  H20S21984   3.996   5.344   4.845 -0.9865  1.1300  1.0012
  190SAPI  H20T21985   4.096   5.393   4.692  0.6861  0.0824  0.0267
  190SAPI   C3321986   3.796   6.036   6.228 -0.0587  0.2229  0.3957
  190SAPI   H3X21987   3.861   5.947   6.239  1.8837  1.5374 -0.0368
  190SAPI   H3Y21988   3.870   6.114   6.202 -0.4932  0.2676 -0.7604
  190SAPI   C3421989   3.697   6.020   6.109  0.3171  0.5616  0.3601
  190SAPI   H4X21990   3.632   6.108   6.090 -3.1046 -1.3829  2.0127
  190SAPI   H4Y21991   3.632   5.930   6.122 -0.3041  0.9468 -0.0287
  190SAPI   C3521992   3.764   6.007   5.975  0.2838 -0.1675  1.2337
  190SAPI   H5X21993   3.820   5.912   5.957 -0.2010 -0.2815  0.2553
  190SAPI   H5Y21994   3.839   6.088   5.965 -1.0611  0.8303 -2.1840
  190SAPI   C3621995   3.672   6.029   5.851  0.6286  0.0681  0.1078
  190SAPI   H6X21996   3.629   6.132   5.850  2.4889  0.8822 -0.6249
  190SAPI   H6Y21997   3.591   5.953   5.841  1.1038 -0.4210 -0.0506
  190SAPI   C3721998   3.753   6.029   5.724 -0.3339  0.4109 -0.2268
  190SAPI   H7X21999   3.779   5.923   5.702  0.5485  0.4421  0.5658
  190SAPI   H7Y22000   3.851   6.081   5.732 -0.1021  0.1000 -0.9894
  190SAPI   C3822001   3.692   6.094   5.599  0.5133 -0.2381 -0.3943
  190SAPI   H8X22002   3.656   6.193   5.635 -3.6273 -1.4945 -0.5850
  190SAPI   H8Y22003   3.607   6.036   5.559  0.3975 -0.9717  0.8515
  190SAPI   C3922004   3.783   6.096   5.475  0.0948 -0.2694  0.2546
  190SAPI   H9X22005   3.886   6.129   5.503 -0.4280 -0.1818  2.2573
  190SAPI   H9Y22006   3.746   6.171   5.403  0.5931 -0.6041 -0.3573
  190SAPI  C31022007   3.792   5.959   5.406  0.1163  0.4269 -0.0485
  190SAPI  H10X22008   3.690   5.922   5.379 -0.5661  0.9152  1.7166
  190SAPI  H10Y22009   3.842   5.892   5.478  1.0649  0.1287 -0.9712
  190SAPI  C31122010   3.875   5.968   5.282 -0.0617  1.5261 -0.0323
  190SAPI  H11X22011   3.888   5.866   5.238 -2.8992  2.4561 -3.5202
  190SAPI  H11Y22012   3.975   6.009   5.305  0.8977 -0.4644 -0.4022
  190SAPI  C31222013   3.831   6.056   5.161  0.1355 -0.5010  0.1276
  190SAPI  H12X22014   3.840   6.164   5.182 -1.9710 -0.2540 -0.0336
  190SAPI  H12Y22015   3.724   6.029   5.143  0.5352 -1.5916 -0.7519
  190SAPI  C31322016   3.905   6.020   5.033  0.3008 -0.3680  0.2479
  190SAPI  H13X22017   3.885   5.919   4.993 -1.2949 -0.1760  0.4704
  190SAPI  H13Y22018   4.015   6.026   5.048  0.3092  0.5473 -0.0828
  190SAPI  C31422019   3.873   6.117   4.919  0.6722  0.4162  0.6313
  190SAPI  H14X22020   3.894   6.218   4.960  0.5808  0.1379  1.3823
  190SAPI  H14Y22021   3.764   6.112   4.900  0.8252 -2.4354  0.0737
  190SAPI  C31522022   3.947   6.088   4.784  0.1853 -0.3279  0.6330
  190SAPI  H15X22023   3.937   5.980   4.761  0.3963 -0.6088  1.8160
  190SAPI  H15Y22024   4.053   6.115   4.803 -0.3466  0.0758  3.3027
  190SAPI  C31622025   3.900   6.168   4.659 -0.0190  0.1603  0.7213
  190SAPI  H16X22026   3.910   6.276   4.681 -0.2542 -0.0921  2.1683
  190SAPI  H16Y22027   3.795   6.136   4.646 -0.3986  1.3154  0.8430
  190SAPI  C31722028   3.991   6.139   4.536  0.1195 -0.4412  0.5995
  190SAPI  H17X22029   3.933   6.184   4.454 -1.5106 -2.6034  0.4581
  190SAPI  H17Y22030   3.994   6.030   4.513  0.9916 -0.8327  2.3300
  190SAPI  C31822031   4.136   6.193   4.532  0.2885 -0.2764 -0.8365
  190SAPI  H18X22032   4.142   6.303   4.538 -0.9183 -0.2689  1.2923
  190SAPI  H18Y22033   4.189   6.164   4.439  1.7241  2.8247 -1.0990
  190SAPI  H18Z22034   4.192   6.156   4.621 -0.7712 -0.8163 -0.3687
  191SAPI   C1222035   5.088   0.515   2.482 -0.7677  0.4244 -0.3751
  191SAPI    H222036   5.168   0.517   2.559 -1.9191 -1.4247  0.9551
  191SAPI    O222037   5.144   0.538   2.354  0.1801  0.3768 -0.0268
  191SAPI   HO222038   5.188   0.624   2.351 -1.3381  1.1878 -0.2962
  191SAPI   C1322039   5.022   0.378   2.502 -0.5576 -0.5497  0.2285
  191SAPI    H322040   4.976   0.370   2.602  2.0558 -0.4992  1.5165
  191SAPI    O322041   5.124   0.278   2.490 -0.1054 -0.0589 -0.2195
  191SAPI   HO322042   5.178   0.292   2.412  2.0566 -1.3537  0.9480
  191SAPI   C1422043   4.919   0.353   2.390 -0.2634 -1.2534 -0.5140
  191SAPI    H422044   4.974   0.356   2.294 -0.0565 -0.8847 -0.3869
  191SAPI    O422045   4.857   0.225   2.405 -0.0949 -0.3336  0.0010
  191SAPI   HO422046   4.917   0.154   2.384 -0.1442 -0.5612  0.6239
  191SAPI   C1522047   4.812   0.469   2.374 -0.4646 -0.0016 -0.0952
  191SAPI    H522048   4.748   0.440   2.461  0.9691 -4.2024 -0.2407
  191SAPI    O522049   4.741   0.466   2.253  0.0779 -0.4984  0.0814
  191SAPI   HO522050   4.664   0.518   2.279  0.4830 -0.0541  0.4260
  191SAPI   C1622051   4.868   0.608   2.401  0.2771  0.7247 -0.0643
  191SAPI    H622052   4.916   0.645   2.308  0.1752 -1.2595 -0.9563
  191SAPI    O622053   4.762   0.697   2.428  0.1107 -0.1515  0.4542
  191SAPI   HO622054   4.799   0.785   2.427  0.0693 -0.1327  0.5658
  191SAPI   C1122055   4.974   0.618   2.503 -1.1508  0.2282  0.0999
  191SAPI    H122056   4.929   0.594   2.602 -2.6513 -0.7680 -0.7678
  191SAPI     P22057   5.050   0.856   2.608  0.0268 -0.4406  0.2630
  191SAPI   O1322058   4.936   0.856   2.696  0.2559  0.0501 -0.1434
  191SAPI   O1422059   5.077   0.989   2.543  0.2279 -1.0878  0.1651
  191SAPI   O1222060   5.041   0.742   2.494  0.6698  0.1049  0.0942
  191SAPI   O1122061   5.180   0.816   2.689  0.0899 -0.3539  0.1875
  191SAPI    C122062   5.183   0.762   2.819  0.1683  0.6443 -0.1333
  191SAPI    HA22063   5.084   0.718   2.847  0.3922  0.0623 -0.2303
  191SAPI    HB22064   5.256   0.678   2.823 -0.9763 -0.3746  0.2971
  191SAPI    C222065   5.221   0.870   2.923 -0.4329 -0.0728  0.7084
  191SAPI    HS22066   5.220   0.820   3.022 -0.7712  0.1635  0.8252
  191SAPI   O2122067   5.124   0.978   2.934 -0.5243 -0.1455 -0.1518
  191SAPI   C2122068   5.012   0.938   3.007  1.2100  0.7813 -0.6162
  191SAPI   O2222069   4.997   0.828   3.057 -0.2774 -0.0106  0.1188
  191SAPI   C2222070   4.913   1.046   3.017 -0.5416 -0.2710  0.9562
  191SAPI   H2R22071   4.962   1.145   3.024  0.2611 -0.6674  1.0274
  191SAPI   H2S22072   4.863   1.047   2.918  2.4751  1.4541 -0.6861
  191SAPI    C322073   5.355   0.938   2.885  0.0359 -0.9335 -0.2114
  191SAPI    HX22074   5.330   1.019   2.812 -0.9578  0.8514  1.9762
  191SAPI    HY22075   5.430   0.869   2.844  2.6043  1.4917  0.1154
  191SAPI   O3122076   5.393   1.010   3.000 -0.1294 -0.1508 -0.3890
  191SAPI   C3122077   5.448   0.941   3.097 -0.5901  0.0110 -1.1341
  191SAPI   O3222078   5.475   0.821   3.096 -1.0536  0.1481  0.2361
  191SAPI   C3222079   5.450   1.035   3.221  0.2320  0.4145  0.5754
  191SAPI   H2X22080   5.476   1.137   3.188 -1.2915  0.4637 -0.6050
  191SAPI   H2Y22081   5.525   0.992   3.291  0.2775  1.5228  1.2199
  191SAPI   C2322082   4.821   1.032   3.137 -0.2412 -0.9268  0.7443
  191SAPI   H3R22083   4.777   0.931   3.149 -3.8458  0.5741  1.6129
  191SAPI   H3S22084   4.734   1.101   3.141 -0.0700 -0.7678  2.8650
  191SAPI   C2422085   4.892   1.053   3.271 -0.2892 -0.2181  0.3128
  191SAPI   H4R22086   4.953   0.962   3.294  1.0551  0.8973  1.3545
  191SAPI   H4S22087   4.810   1.066   3.345 -0.6495  2.9578 -0.5047
  191SAPI   C2522088   4.982   1.172   3.278  0.3634  0.4891 -1.0970
  191SAPI   H5R22089   5.063   1.182   3.203 -0.9043  1.8331 -2.3533
  191SAPI   C2622090   4.972   1.266   3.382  0.2074  0.3061 -0.2741
  191SAPI   H6R22091   5.048   1.345   3.379 -0.9224  1.4404 -0.0934
  191SAPI   C2722092   4.880   1.260   3.505  0.2413 -0.7200  0.6780
  191SAPI   H7R22093   4.781   1.229   3.464  0.6596 -1.2079  0.0173
  191SAPI   H7S22094   4.853   1.363   3.537  2.3499  0.4680 -1.1380
  191SAPI   C2822095   4.905   1.162   3.618 -0.3006 -0.1166 -0.0219
  191SAPI   H8R22096   4.911   1.057   3.585  0.5720 -0.3004  0.6951
  191SAPI   C2922097   4.922   1.185   3.753  0.5190  0.2635 -0.0915
  191SAPI   H9R22098   4.935   1.095   3.814 -1.7954 -1.2567 -1.6340
  191SAPI  C21022099   4.917   1.317   3.820 -0.1273  0.2134 -0.0082
  191SAPI  H10R22100   4.857   1.299   3.912  2.4172  1.6814  2.0811
  191SAPI  H10S22101   4.858   1.386   3.756 -0.4531 -0.5796 -0.5839
  191SAPI  C21122102   5.052   1.374   3.860  0.0958 -0.8524 -0.2213
  191SAPI  H11R22103   5.120   1.378   3.773 -1.4008 -2.6278 -1.5784
  191SAPI  C21222104   5.084   1.434   3.979  0.3109 -0.1888  0.5716
  191SAPI  H12R22105   5.185   1.477   3.995  1.4915 -2.2273 -0.9910
  191SAPI  C21322106   5.001   1.437   4.098 -0.0723  0.5124  0.0225
  191SAPI  H13R22107   4.955   1.339   4.125 -0.7638  1.6071  3.3795
  191SAPI  H13S22108   4.923   1.515   4.087  1.7932  2.3230 -1.0605
  191SAPI  C21422109   5.082   1.467   4.222 -0.5141 -0.5276  0.1140
  191SAPI  H14R22110   5.144   1.557   4.213 -1.0592 -0.1575  0.0197
  191SAPI  C21522111   5.074   1.405   4.341 -0.1996 -0.1453 -0.6474
  191SAPI  H15R22112   5.151   1.428   4.416  0.9096 -1.1875 -1.4147
  191SAPI  C21622113   4.980   1.302   4.392  0.2566  0.4091  0.1266
  191SAPI  H16R22114   4.891   1.296   4.326 -0.5102  1.1983  1.0537
  191SAPI  H16S22115   4.942   1.326   4.494 -0.6628 -2.0510  0.4367
  191SAPI  C21722116   5.044   1.161   4.394 -0.5357 -0.5265 -0.3168
  191SAPI  H17R22117   5.030   1.110   4.492  2.2441 -0.7543  0.0492
  191SAPI  H17S22118   5.154   1.169   4.384 -0.6535 -1.1445 -2.6328
  191SAPI  C21822119   5.000   1.087   4.266 -0.2964 -0.3602  0.5551
  191SAPI  H18R22120   5.016   1.152   4.178 -1.6359 -1.8640 -0.8765
  191SAPI  H18S22121   4.889   1.082   4.270 -0.2652 -0.4347  2.6022
  191SAPI  C21922122   5.065   0.954   4.249 -0.5297 -0.3781 -0.0534
  191SAPI  H19R22123   5.176   0.961   4.259 -0.3462 -3.0354  0.6329
  191SAPI  H19S22124   5.039   0.924   4.146  1.5415  0.5307 -0.9097
  191SAPI  C22022125   5.019   0.848   4.340  0.7212  0.2173  0.4564
  191SAPI  H20R22126   4.910   0.838   4.323  0.5776 -0.2633  1.5914
  191SAPI  H20S22127   5.044   0.872   4.446 -0.9697 -1.2049  1.2244
  191SAPI  H20T22128   5.081   0.757   4.326  0.1583 -0.0819 -0.1304
  191SAPI   C3322129   5.314   1.034   3.300 -0.1979 -1.0850  0.1087
  191SAPI   H3X22130   5.296   0.929   3.332 -0.8212 -0.8601  0.5156
  191SAPI   H3Y22131   5.236   1.079   3.235  0.6690  2.9136  1.5681
  191SAPI   C3422132   5.306   1.129   3.428  0.3714  0.4937 -0.5331
  191SAPI   H4X22133   5.206   1.115   3.473  0.3946  3.9465  0.8877
  191SAPI   H4Y22134   5.311   1.232   3.387 -0.0830  0.7757  0.1118
  191SAPI   C3522135   5.416   1.108   3.534 -0.0418 -0.0281  0.6322
  191SAPI   H5X22136   5.506   1.165   3.502  0.1218 -1.5473 -1.9917
  191SAPI   H5Y22137   5.439   1.000   3.548  1.5750  0.0508 -1.0091
  191SAPI   C3622138   5.360   1.162   3.665  0.0026  0.3786  0.7695
  191SAPI   H6X22139   5.278   1.094   3.698 -1.1842  0.2452 -2.1327
  191SAPI   H6Y22140   5.308   1.260   3.656 -0.9490 -0.2480 -1.0743
  191SAPI   C3722141   5.468   1.168   3.770  0.1858  0.1071  0.3081
  191SAPI   H7X22142   5.567   1.208   3.739 -0.1114 -0.1095 -0.9501
  191SAPI   H7Y22143   5.495   1.063   3.796  0.3406 -0.6740 -2.7053
  191SAPI   C3822144   5.433   1.236   3.899  0.2814 -0.0506 -0.0577
  191SAPI   H8X22145   5.322   1.228   3.907  0.2455 -0.5502 -0.9006
  191SAPI   H8Y22146   5.470   1.340   3.887  0.4766 -0.2314 -1.1868
  191SAPI   C3922147   5.484   1.169   4.029  0.3619 -0.0055  0.3430
  191SAPI   H9X22148   5.594   1.158   4.016  0.4387 -1.2963  1.7927
  191SAPI   H9Y22149   5.444   1.065   4.028 -2.3304  0.9534 -0.5445
  191SAPI  C31022150   5.450   1.245   4.155  0.2354 -0.4069  0.3276
  191SAPI  H10X22151   5.339   1.241   4.157  0.1011  0.8017 -2.0071
  191SAPI  H10Y22152   5.478   1.350   4.134  0.2579 -0.7598 -1.5572
  191SAPI  C31122153   5.510   1.194   4.284 -0.0161 -0.4764  0.5311
  191SAPI  H11X22154   5.621   1.181   4.281  0.2885  1.4220 -3.3189
  191SAPI  H11Y22155   5.471   1.091   4.300  0.2302 -0.4692  1.2115
  191SAPI  C31222156   5.478   1.288   4.401  0.5282 -0.0061  0.9705
  191SAPI  H12X22157   5.371   1.319   4.401 -0.6008 -3.4847  0.8856
  191SAPI  H12Y22158   5.540   1.380   4.388  0.4587  0.0468  1.0141
  191SAPI  C31322159   5.519   1.225   4.539  0.2510 -0.2994  0.1047
  191SAPI  H13X22160   5.628   1.246   4.547  0.1879  1.1363 -1.9800
  191SAPI  H13Y22161   5.519   1.114   4.537  1.4571 -0.3576  1.4956
  191SAPI  C31422162   5.450   1.279   4.667 -0.2575 -0.6174  0.9320
  191SAPI  H14X22163   5.481   1.384   4.685 -1.8334 -0.0655  0.5475
  191SAPI  H14Y22164   5.488   1.217   4.751 -2.0344 -0.6517  1.7628
  191SAPI  C31522165   5.297   1.273   4.656 -0.1659 -0.0733 -0.3051
  191SAPI  H15X22166   5.261   1.168   4.654  0.8144 -0.4601  1.1204
  191SAPI  H15Y22167   5.255   1.334   4.572 -0.9754  0.7478  0.6690
  191SAPI  C31622168   5.214   1.321   4.770 -0.0781  0.3633 -0.4889
  191SAPI  H16X22169   5.238   1.425   4.800 -0.4620  0.5144 -0.6863
  191SAPI  H16Y22170   5.238   1.267   4.863 -0.0926  0.1296 -0.6192
  191SAPI  C31722171   5.057   1.311   4.756 -0.4448  0.2808  0.2647
  191SAPI  H17X22172   5.030   1.213   4.711 -1.6950  0.7481 -0.0605
  191SAPI  H17Y22173   5.018   1.385   4.683  1.0826  1.2735  0.4239
  191SAPI  C31822174   4.986   1.325   4.898  0.1825  0.4820 -0.5539
  191SAPI  H18X22175   4.876   1.313   4.892  0.0839  1.9055 -2.5342
  191SAPI  H18Y22176   5.007   1.430   4.927  0.6059  0.3783 -0.4664
  191SAPI  H18Z22177   5.023   1.249   4.971 -1.3802 -1.0726 -1.2976
  192SAPI   C1222178   6.404   1.735   2.897  0.2942  0.0449  0.0105
  192SAPI    H222179   6.305   1.736   2.948 -0.7587 -2.9301 -1.7495
  192SAPI    O222180   6.371   1.691   2.772  0.0298  0.4395 -0.3229
  192SAPI   HO222181   6.315   1.615   2.787  1.6339 -0.2661  2.8514
  192SAPI   C1322182   6.470   1.862   2.903 -0.3583 -1.2045 -0.3255
  192SAPI    H322183   6.507   1.877   3.006  1.3044 -0.5439 -0.9851
  192SAPI    O322184   6.383   1.971   2.873 -0.0168 -0.8080  0.4495
  192SAPI   HO322185   6.346   1.964   2.785 -0.6279 -0.5646  0.6787
  192SAPI   C1422186   6.586   1.874   2.807 -0.9131  0.3534 -0.0926
  192SAPI    H422187   6.539   1.870   2.706  0.6143 -0.4014 -0.7956
  192SAPI    O422188   6.657   1.999   2.809  0.2102  0.3546  0.4332
  192SAPI   HO422189   6.610   2.047   2.740  0.4064 -1.2161 -0.8521
  192SAPI   C1522190   6.690   1.762   2.837 -0.5896  0.1217 -0.4670
  192SAPI    H522191   6.757   1.801   2.917  1.2743  0.0407 -1.9143
  192SAPI    O522192   6.781   1.732   2.731  0.0666 -0.2272 -0.6053
  192SAPI   HO522193   6.867   1.728   2.774 -0.9470  0.4817  1.6535
  192SAPI   C1622194   6.635   1.633   2.895  0.4791  0.5920 -0.7137
  192SAPI    H622195   6.602   1.574   2.808 -2.5814  1.4302 -0.2276
  192SAPI    O622196   6.729   1.558   2.968  0.3024 -0.2688 -0.1355
  192SAPI   HO622197   6.765   1.493   2.907  0.2004  0.3204 -0.8435
  192SAPI   C1122198   6.497   1.637   2.967  0.0053  0.2653  0.3823
  192SAPI    H122199   6.520   1.668   3.072 -1.3414 -2.0689  1.4396
  192SAPI     P22200   6.331   1.478   3.104 -0.4092 -0.2455  0.2690
  192SAPI   O1322201   6.211   1.414   3.040  0.3153 -0.1115  0.2171
  192SAPI   O1422202   6.305   1.611   3.162 -0.0718 -0.2401  0.1848
  192SAPI   O1222203   6.434   1.506   2.975  0.0223 -0.9158  0.2685
  192SAPI   O1122204   6.409   1.384   3.193  0.0086 -0.0339 -0.1271
  192SAPI    C122205   6.549   1.387   3.219 -0.8378 -0.1363 -0.0875
  192SAPI    HA22206   6.595   1.486   3.199 -1.0411 -0.2293 -1.0508
  192SAPI    HB22207   6.568   1.369   3.327 -1.9609 -0.0590  0.1336
  192SAPI    C222208   6.626   1.281   3.129 -0.1080  0.0888  0.0952
  192SAPI    HS22209   6.607   1.311   3.024 -1.2011 -2.2789 -0.4436
  192SAPI   O2122210   6.579   1.148   3.154 -0.2069 -0.5926 -0.7756
  192SAPI   C2122211   6.486   1.103   3.077 -0.3165  0.0814 -0.1095
  192SAPI   O2222212   6.441   1.153   2.980  0.0982  0.1136 -0.3306
  192SAPI   C2222213   6.446   0.967   3.120 -0.4541 -0.2684  0.5748
  192SAPI   H2R22214   6.491   0.953   3.221  3.4263 -1.2719 -1.0930
  192SAPI   H2S22215   6.338   0.972   3.143 -0.4900  0.5959  0.2510
  192SAPI    C322216   6.780   1.282   3.162 -0.1422  0.8755 -0.3871
  192SAPI    HX22217   6.823   1.380   3.132  1.9944  0.5940  1.5153
  192SAPI    HY22218   6.829   1.194   3.116 -2.5452 -1.1002  0.6402
  192SAPI   O3122219   6.800   1.277   3.305  0.8402 -0.3231 -0.3400
  192SAPI   C3122220   6.922   1.292   3.356 -0.6254  0.0623 -0.4086
  192SAPI   O3222221   7.018   1.302   3.283  0.1464  0.4561  0.0037
  192SAPI   C3222222   6.914   1.273   3.506 -0.0538 -0.2187 -0.0372
  192SAPI   H2X22223   6.840   1.193   3.526 -0.1394 -0.2755 -0.5928
  192SAPI   H2Y22224   6.874   1.367   3.551 -0.1818 -0.3386  0.1031
  192SAPI   C2322225   6.473   0.853   3.022  0.3699  0.6773 -0.4551
  192SAPI   H3R22226   6.579   0.829   3.000  0.6748 -1.1057  2.4355
  192SAPI   H3S22227   6.428   0.875   2.923  0.0513  1.1305 -0.2179
  192SAPI   C2422228   6.422   0.717   3.070 -0.1454  0.2436 -0.1645
  192SAPI   H4R22229   6.452   0.640   2.996 -1.5616  2.6585 -3.5268
  192SAPI   H4S22230   6.311   0.715   3.073 -0.1786  1.5812  1.2553
  192SAPI   C2522231   6.492   0.671   3.195 -0.7311 -0.0463  0.8348
  192SAPI   H5R22232   6.598   0.666   3.166 -1.1083  1.7051 -1.0985
  192SAPI   C2622233   6.444   0.631   3.313  0.3132 -0.2598 -0.5676
  192SAPI   H6R22234   6.509   0.606   3.397 -1.1515  2.0160  1.3836
  192SAPI   C2722235   6.299   0.639   3.348 -0.2445 -0.5113 -0.1767
  192SAPI   H7R22236   6.231   0.652   3.261  1.4107 -0.9589 -1.5975
  192SAPI   H7S22237   6.287   0.736   3.402 -1.6577 -1.9779  2.3367
  192SAPI   C2822238   6.255   0.524   3.441 -0.3821 -0.2268 -0.0407
  192SAPI   H8R22239   6.233   0.427   3.394 -1.3252 -0.6451  1.2063
  192SAPI   C2922240   6.225   0.539   3.572  0.2386  0.5765 -0.0635
  192SAPI   H9R22241   6.196   0.449   3.629 -1.3383  2.0595  1.5782
  192SAPI  C21022242   6.251   0.665   3.653 -0.1857 -0.2347  0.2413
  192SAPI  H10R22243   6.278   0.756   3.595 -0.3019  0.5034  1.3051
  192SAPI  H10S22244   6.331   0.651   3.728 -0.5715  0.2913  0.7683
  192SAPI  C21122245   6.119   0.679   3.730  0.2170 -0.9352 -0.0937
  192SAPI  H11R22246   6.025   0.657   3.679  0.1454 -3.4132  0.9556
  192SAPI  C21222247   6.115   0.732   3.849  0.2136  0.1552 -0.5821
  192SAPI  H12R22248   6.019   0.753   3.900  1.2462 -0.0658  1.5665
  192SAPI  C21322249   6.241   0.792   3.925  0.3477  0.6676 -0.5242
  192SAPI  H13R22250   6.307   0.854   3.862  0.6366 -0.7986 -1.7253
  192SAPI  H13S22251   6.295   0.701   3.960  0.8315  2.1437  3.0322
  192SAPI  C21422252   6.193   0.856   4.050 -0.9294 -0.2716  0.7086
  192SAPI  H14R22253   6.087   0.882   4.057 -0.8204 -0.1817  2.7901
  192SAPI  C21522254   6.278   0.899   4.149 -0.2444 -0.2192 -0.4304
  192SAPI  H15R22255   6.234   0.966   4.224  0.6113  0.1943 -0.2811
  192SAPI  C21622256   6.428   0.872   4.156 -0.1586 -0.3790  0.2654
  192SAPI  H16R22257   6.476   0.939   4.230  0.4892  0.6170 -1.0064
  192SAPI  H16S22258   6.472   0.899   4.057  1.1871  1.7887  1.3830
  192SAPI  C21722259   6.471   0.729   4.187 -0.4143 -0.3432 -1.0722
  192SAPI  H17R22260   6.580   0.713   4.173  0.1014  0.0630  1.7816
  192SAPI  H17S22261   6.416   0.653   4.127 -2.7775 -0.5596  1.1815
  192SAPI  C21822262   6.447   0.696   4.339 -0.6115 -0.4467  0.1532
  192SAPI  H18R22263   6.373   0.614   4.349 -3.1066  1.4608 -1.4729
  192SAPI  H18S22264   6.400   0.781   4.394 -0.2879  0.1528 -0.4724
  192SAPI  C21922265   6.577   0.673   4.422 -0.0582  0.6561  0.2344
  192SAPI  H19R22266   6.543   0.676   4.528 -0.6172 -0.8052  0.1134
  192SAPI  H19S22267   6.644   0.759   4.403 -0.7911  0.9382 -1.2522
  192SAPI  C22022268   6.655   0.549   4.382 -1.0742  0.5034 -0.0400
  192SAPI  H20R22269   6.744   0.539   4.448 -1.6695  2.7882  1.2505
  192SAPI  H20S22270   6.686   0.550   4.276 -1.4538  3.2929 -0.2111
  192SAPI  H20T22271   6.593   0.462   4.412 -0.8492  0.8182  1.4436
  192SAPI   C3322272   7.043   1.232   3.579  0.4609  0.0949  0.6233
  192SAPI   H3X22273   7.130   1.298   3.560  0.8414  0.1233  2.2812
  192SAPI   H3Y22274   7.068   1.131   3.541  1.3080  0.8845 -1.0353
  192SAPI   C3422275   7.036   1.237   3.725  0.1944 -0.3648 -0.4308
  192SAPI   H4X22276   7.125   1.176   3.750  0.0345  0.0597  1.3208
  192SAPI   H4Y22277   6.950   1.196   3.783 -1.1115  1.5518 -0.8964
  192SAPI   C3522278   7.053   1.378   3.791  0.6246  0.0883  0.4997
  192SAPI   H5X22279   6.972   1.450   3.767  0.3197  0.1184  1.5538
  192SAPI   H5Y22280   7.149   1.425   3.760  1.5778 -0.9982  1.6834
  192SAPI   C3622281   7.063   1.368   3.949  0.6043  0.5387  0.1772
  192SAPI   H6X22282   7.144   1.293   3.962 -0.2563 -0.5917 -0.7709
  192SAPI   H6Y22283   6.977   1.315   3.995 -0.6358  0.3257 -2.2264
  192SAPI   C3722284   7.091   1.502   4.013 -0.6917  0.6521  0.1287
  192SAPI   H7X22285   7.017   1.577   3.977 -0.3854  0.8154 -0.1607
  192SAPI   H7Y22286   7.187   1.550   3.985 -0.3110  0.6053  1.2928
  192SAPI   C3822287   7.087   1.506   4.172  0.2713 -0.2032 -0.2706
  192SAPI   H8X22288   7.165   1.442   4.217  0.4967  0.1016 -0.2276
  192SAPI   H8Y22289   6.989   1.476   4.216  0.8560  0.0973  1.3127
  192SAPI   C3922290   7.112   1.657   4.216  0.0519 -0.1872  0.1522
  192SAPI   H9X22291   7.037   1.725   4.169  1.8436  0.5124 -1.8712
  192SAPI   H9Y22292   7.207   1.702   4.180 -0.4155 -1.3676 -2.8800
  192SAPI  C31022293   7.130   1.654   4.370  0.5607  0.3187 -0.4640
  192SAPI  H10X22294   7.205   1.733   4.392  1.3514 -0.5312 -0.0636
  192SAPI  H10Y22295   7.187   1.564   4.400  1.6647  1.8637  2.4243
  192SAPI  C31122296   7.002   1.652   4.448 -0.0303 -0.1736 -0.2957
  192SAPI  H11X22297   6.953   1.554   4.428 -0.6896  0.3746 -1.4385
  192SAPI  H11Y22298   6.950   1.747   4.427 -2.4428 -0.8401  2.1050
  192SAPI  C31222299   7.019   1.660   4.604  0.1918 -0.0405  0.0467
  192SAPI  H12X22300   7.078   1.752   4.623  0.5475 -0.4716  1.1143
  192SAPI  H12Y22301   7.079   1.569   4.625  0.3598  0.0689  0.0442
  192SAPI  C31322302   6.889   1.672   4.682  0.3092 -0.7637 -0.5247
  192SAPI  H13X22303   6.824   1.595   4.635  1.1646 -0.7629 -1.7652
  192SAPI  H13Y22304   6.847   1.774   4.667  0.7914 -0.4850 -0.0179
  192SAPI  C31422305   6.912   1.640   4.831 -0.2748  0.0182  0.0841
  192SAPI  H14X22306   6.981   1.720   4.864 -0.1519  0.4511 -1.1893
  192SAPI  H14Y22307   6.961   1.540   4.834 -0.4056 -0.0368  2.8174
  192SAPI  C31522308   6.783   1.647   4.911 -0.8075 -0.3159 -0.4831
  192SAPI  H15X22309   6.813   1.619   5.014 -0.3063  1.2376 -0.1644
  192SAPI  H15Y22310   6.716   1.567   4.876 -0.3386 -1.2827  0.7512
  192SAPI  C31622311   6.698   1.777   4.898 -0.2425 -0.0414  0.1089
  192SAPI  H16X22312   6.664   1.770   4.793 -1.7928  2.2525  0.3690
  192SAPI  H16Y22313   6.761   1.863   4.927  1.1122 -1.3613  1.2597
  192SAPI  C31722314   6.577   1.773   4.986  0.8504 -0.0273  0.2717
  192SAPI  H17X22315   6.612   1.759   5.091 -1.0714 -0.4651  0.8854
  192SAPI  H17Y22316   6.515   1.683   4.964  0.7875  0.3021 -0.9606
  192SAPI  C31822317   6.484   1.894   4.982  0.4450 -0.0202 -0.4704
  192SAPI  H18X22318   6.422   1.890   4.890  1.5455  1.9949 -1.3540
  192SAPI  H18Y22319   6.540   1.988   5.001 -1.3727  0.9967  0.0944
  192SAPI  H18Z22320   6.409   1.883   5.063 -0.4204  1.2509 -1.0619
  193SOD    SOD22321   6.783   2.256   7.127  0.1705  0.1550  0.0196
  194SOD    SOD22322   1.845   5.953   0.057 -0.1538  0.1388 -0.2398
  195SOD    SOD22323   3.465   2.825   0.867 -0.0431  0.0918 -0.2334
  196SOD    SOD22324   2.703   4.275   0.517  0.4116 -0.0179 -0.0902
  197SOD    SOD22325   3.870   2.272   2.632  0.1865 -0.5397  0.0656
  198SOD    SOD22326   6.610   0.604   1.207  0.3016 -0.1408 -0.1428
  199SOD    SOD22327   5.538   3.507   0.251  0.0358 -0.0239  0.1858
  200SOD    SOD22328   6.526   4.716   7.441  0.2666 -0.1854  0.5418
  201SOD    SOD22329   0.284   3.889   2.191  0.0764 -0.3316 -0.3067
  202SOD    SOD22330   1.947   2.939   1.994  0.0062 -0.0757  0.1679
  203SOD    SOD22331   0.301   0.687   7.022  0.6032 -0.0573  0.4025
  204SOD    SOD22332   1.576   1.869   1.513 -0.1961  0.1138  0.3041
  205SOD    SOD22333   4.369   0.254   2.525 -0.0163  0.4408  0.1986
  206SOD    SOD22334   0.452   3.270   8.457  0.5381  0.0619  0.3663
  207SOD    SOD22335   5.421   2.398   2.483 -0.3294  0.3339  0.4609
  208SOD    SOD22336   1.694   3.786   6.727  0.1301 -0.3106 -0.1305
  209SOD    SOD22337   0.375   0.910   1.295 -0.3049 -0.2805  0.0443
  210SOD    SOD22338   0.511   2.567   7.146  0.6093  0.0467 -0.1253
  211SOD    SOD22339   3.594   2.179   7.865 -0.3090  0.0149  0.5713
  212SOD    SOD22340   2.448   3.129   0.349  0.3647 -0.0809 -0.1744
  213SOD    SOD22341   2.013   1.513   6.872  0.4035 -0.0887  0.1584
  214SOD    SOD22342   0.507   0.549   7.718 -0.2535  0.0777 -0.1699
  215SOD    SOD22343   3.513   2.133   2.070 -0.0286 -0.1866 -0.2337
  216SOD    SOD22344   2.093   5.374   2.328 -0.0201 -0.3042  0.0482
  217SOD    SOD22345   3.530   5.881   7.421 -0.2263  0.2885 -0.4746
  218SOD    SOD22346   4.759   1.771   8.402  0.0316 -0.4969 -0.0707
  219SOD    SOD22347   6.603   2.170   8.171 -0.0120  0.3624 -0.1828
  220SOD    SOD22348   4.506   0.574   0.800 -0.0691 -0.5743 -0.1612
  221SOD    SOD22349   1.031   6.399   7.369  0.2040 -0.2440  0.4155
  222SOD    SOD22350   5.996   3.986   1.698 -0.0430 -0.7972  0.1251
  223SOD    SOD22351   0.805   0.443   1.540  0.0592 -0.4280  0.0412
  224SOD    SOD22352   0.031   5.990   2.010  0.4341 -0.0462  0.4352
  225SOD    SOD22353   3.231   5.875   1.763 -0.0466 -0.1742  0.2384
  226SOD    SOD22354   1.669   5.937   6.687  0.1844  0.1491  0.0762
  227SOD    SOD22355   5.784   5.420   8.246 -0.2735 -0.0552  0.2682
  228SOD    SOD22356   3.877   5.828   0.586 -0.4618  0.3265 -0.1387
  229SOD    SOD22357   4.947   3.364   0.022  0.8938  0.3176  0.5366
  230CLA    CLA22358   3.422   0.058   7.905 -0.1608  0.2995 -0.1381
  231CLA    CLA22359   6.342   2.312   0.509 -0.4473 -0.0259 -0.2633
  232CLA    CLA22360   1.998   2.316   0.734 -0.2041  0.1830 -0.1871
  233CLA    CLA22361   6.823   3.015   1.515  0.0510 -0.4723  0.2503
  234CLA    CLA22362   5.424   1.415   7.522 -0.4898 -0.2423 -0.1283
  235CLA    CLA22363   3.460   2.369   7.983  0.0013 -0.1328 -0.8072
  236CLA    CLA22364   2.833   3.436   0.995 -0.2347 -0.4501 -0.1903
  237CLA    CLA22365   0.732   3.678   0.068 -0.5978  0.0561  0.0162
  238CLA    CLA22366   4.067   5.901   7.983  0.0668  0.1356  0.0377
  239CLA    CLA22367   0.815   0.079   0.568 -0.2578 -0.1880 -0.2818
  240CLA    CLA22368   3.633   1.720   0.382  0.2348  0.2032 -0.1747
  241CLA    CLA22369   5.398   5.017   0.645  0.2890 -0.0699 -0.0251
  242CLA    CLA22370   5.798   4.832   7.251  0.4857 -0.0694  0.0173
  243CLA    CLA22371   0.267   4.168   1.679  0.0635  0.0665  0.0687
  244CLA    CLA22372   5.549   5.925   0.874 -0.1932  0.1063 -0.1354
  245CLA    CLA22373   5.171   3.466   1.088 -0.0823  0.0420  0.2904
  246CLA    CLA22374   6.836   5.047   0.081  0.0736 -0.0829  0.0846
  247TIP3   OH222375   4.569   4.168   2.411 -0.1224 -0.9767  0.9039
  247TIP3    H122376   4.574   4.131   2.323  1.6588  0.7463  0.1964
  247TIP3    H222377   4.476   4.188   2.423 -0.1125  1.2135 -1.7400
  248TIP3   OH222378   1.635   2.790   8.521 -0.0182 -0.4371 -0.2128
  248TIP3    H122379   1.597   2.703   8.532 -1.4831  0.2771  0.6151
  248TIP3    H222380   1.588   2.845   8.583  1.4844  0.7853 -0.0994
  249TIP3   OH222381   4.366   6.656   8.544  0.0819 -0.7880 -0.4639
  249TIP3    H122382   4.287   6.648   8.598 -0.2359  0.1240 -0.7912
  249TIP3    H222383   4.340   6.707   8.468  1.1335  0.0727 -0.2748
  250TIP3   OH222384   0.198   5.241   8.269  0.1825 -0.2192 -0.2571
  250TIP3    H122385   0.283   5.281   8.252  0.7293 -0.8375  0.9025
  250TIP3    H222386   0.211   5.148   8.247 -0.9125  0.0650 -2.3919
  251TIP3   OH222387   5.114   6.129   8.119  0.1454  0.0341  0.5543
  251TIP3    H122388   5.059   6.050   8.123  0.1703  0.0095  0.4199
  251TIP3    H222389   5.137   6.138   8.027  1.8019 -0.9307  0.8311
  252TIP3   OH222390   2.855   3.251   7.549  0.5891 -0.0561 -0.1784
  252TIP3    H122391   2.805   3.269   7.469 -1.6230 -0.7298  0.9996
  252TIP3    H222392   2.876   3.157   7.543 -2.0739 -0.8316  1.2860
  253TIP3   OH222393   4.308   3.296   8.362 -0.0663 -0.3742  0.0111
  253TIP3    H122394   4.399   3.302   8.332  0.2807  1.6506  1.2601
  253TIP3    H222395   4.259   3.349   8.300 -0.2860 -0.8815 -0.2511
  254TIP3   OH222396   2.210   4.530   7.377  0.2181 -0.2386  0.2110
  254TIP3    H122397   2.148   4.480   7.325 -0.5620  0.1444  0.7481
  254TIP3    H222398   2.262   4.464   7.423  0.5243 -0.5648 -0.6052
  255TIP3   OH222399   1.740   4.009   2.700 -0.2550 -0.3851 -0.0023
  255TIP3    H122400   1.672   3.952   2.735  0.7130 -1.1370  0.7373
  255TIP3    H222401   1.705   4.097   2.708 -1.9289 -0.8554 -1.4827
  256TIP3   OH222402   1.443   0.551   2.237  0.4614 -0.0213  0.0084
  256TIP3    H122403   1.443   0.466   2.193 -0.2035  0.6256 -1.2935
  256TIP3    H222404   1.352   0.581   2.231  0.6884  0.7974  0.4336
  257TIP3   OH222405   6.516   5.321   8.478  0.9800 -0.0559 -0.3417
  257TIP3    H122406   6.426   5.355   8.470  1.1092  0.2122 -0.6837
  257TIP3    H222407   6.566   5.396   8.511  1.3167  0.1683 -1.3406
  258TIP3   OH222408   6.142   3.994   6.863  0.4905 -0.1412 -0.1828
  258TIP3    H122409   6.234   3.968   6.873  1.5720  3.4113  0.3868
  258TIP3    H222410   6.122   3.974   6.771  1.2166 -2.4463  0.0828
  259TIP3   OH222411   6.749   3.139   0.853 -0.2183 -0.3683 -0.4180
  259TIP3    H122412   6.714   3.062   0.899  0.2370 -0.1799  0.2756
  259TIP3    H222413   6.680   3.205   0.861  0.4095  0.1578  1.3542
  260TIP3   OH222414   6.040   4.571   1.535  0.5415  0.3225  1.0214
  260TIP3    H122415   6.003   4.658   1.548  0.2732  0.6192 -1.2963
  260TIP3    H222416   5.967   4.519   1.501  1.1428 -0.2961  0.6480
  261TIP3   OH222417   5.327   6.884   1.646 -0.1703  0.2027  0.1035
  261TIP3    H122418   5.379   6.823   1.699  2.6131  1.1113 -1.3503
  261TIP3    H222419   5.345   6.857   1.555 -0.9717  1.5768 -0.4921
  262TIP3   OH222420   6.691   3.074   1.891  0.4251  0.2647 -0.1749
  262TIP3    H122421   6.725   3.162   1.907  0.3686  0.2645 -0.0463
  262TIP3    H222422   6.596   3.087   1.882  0.5930  0.4444 -1.8665
  263TIP3   OH222423   6.538   6.063   1.404 -0.0462 -0.4029 -0.1578
  263TIP3    H122424   6.443   6.069   1.405  0.0276  2.4927 -1.5680
  263TIP3    H222425   6.562   6.064   1.312  1.3875  0.5298  0.1884
  264TIP3   OH222426   3.133   2.283   1.873 -0.1877 -0.1980 -0.2711
  264TIP3    H122427   3.052   2.270   1.922 -0.5681 -1.4413 -1.1907
  264TIP3    H222428   3.123   2.369   1.832  0.6281  1.4548  2.6412
  265TIP3   OH222429   3.629   5.333   8.500 -0.2947  0.4975 -0.1326
  265TIP3    H122430   3.577   5.278   8.559  0.6115  0.7804  0.9610
  265TIP3    H222431   3.681   5.270   8.450  1.4846  0.3307  1.8177
  266TIP3   OH222432   0.765   5.737   7.760  0.0828 -0.2757 -0.0922
  266TIP3    H122433   0.731   5.805   7.818 -2.1998  0.2014 -1.8498
  266TIP3    H222434   0.742   5.767   7.672  1.5148 -2.0053 -1.1308
  267TIP3   OH222435   2.307   6.723   1.452  0.0016  0.5162 -0.3291
  267TIP3    H122436   2.365   6.728   1.376  2.7175  0.5459  1.5902
  267TIP3    H222437   2.276   6.632   1.453  1.2293  0.0789 -0.6199
  268TIP3   OH222438   4.541   6.620   0.489  0.8481 -0.4487 -0.3742
  268TIP3    H122439   4.561   6.611   0.395 -1.0637 -0.7163 -0.7928
  268TIP3    H222440   4.505   6.708   0.497 -0.3762 -0.9449 -0.1904
  269TIP3   OH222441   3.682   1.003   1.515  0.2388  0.0919  0.0049
  269TIP3    H122442   3.613   1.061   1.483  1.0621  0.5729 -0.9466
  269TIP3    H222443   3.764   1.045   1.489  0.8843 -0.9160  0.3125
  270TIP3   OH222444   5.552   4.768   2.014 -0.7643  0.4529 -0.0680
  270TIP3    H122445   5.478   4.735   2.066  1.0513 -0.8208  1.8816
  270TIP3    H222446   5.617   4.795   2.079  1.4973 -0.8539 -1.6516
  271TIP3   OH222447   6.827   2.236   8.104  0.0367  0.3027 -0.0662
  271TIP3    H122448   6.843   2.171   8.036  1.6376  0.7718 -0.1783
  271TIP3    H222449   6.907   2.236   8.156 -0.9219  0.3808  1.4821
  272TIP3   OH222450   5.079   4.108   1.535  0.1012 -0.0317  0.4760
  272TIP3    H122451   5.033   4.171   1.480  0.3818  1.3786  1.7698
  272TIP3    H222452   5.103   4.036   1.476 -0.1731  1.0997 -1.0705
  273TIP3   OH222453   3.869   5.821   8.188 -0.4733  0.4128  0.0588
  273TIP3    H122454   3.847   5.737   8.147  2.6647 -1.0611  1.0503
  273TIP3    H222455   3.926   5.864   8.124  1.6938 -0.3960  1.3210
  274TIP3   OH222456   4.576   6.651   1.108  0.0156  0.4031  0.0851
  274TIP3    H122457   4.594   6.745   1.111  0.3592  0.3350  0.1425
  274TIP3    H222458   4.567   6.625   1.199 -0.5718  0.4722  0.0517
  275TIP3   OH222459   4.242   6.788   8.349  0.4666  0.4067 -0.2575
  275TIP3    H122460   4.161   6.814   8.392 -0.0113 -1.9940  0.4198
  275TIP3    H222461   4.248   6.847   8.273 -1.4617  1.1853  0.1229
  276TIP3   OH222462   6.443   2.056   8.298  0.0048  0.1987  0.3064
  276TIP3    H122463   6.412   2.079   8.385 -0.7407 -0.2860  0.1776
  276TIP3    H222464   6.373   2.002   8.261  0.7586 -0.4498 -0.2058
  277TIP3   OH222465   4.038   4.205   8.547  0.0876 -0.1467 -0.1173
  277TIP3    H122466   3.965   4.194   8.485 -0.5737 -1.1031  0.7807
  277TIP3    H222467   4.116   4.210   8.492 -0.4090 -1.6592 -1.0357
  278TIP3   OH222468   4.084   1.872   2.331  0.7633 -0.3293  0.2446
  278TIP3    H122469   4.013   1.860   2.395  0.5960  1.3771  0.4215
  278TIP3    H222470   4.040   1.908   2.254  1.0220 -2.0229 -0.7285
  279TIP3   OH222471   4.553   0.551   8.304 -0.0311 -0.4552  0.3261
  279TIP3    H122472   4.637   0.557   8.259  0.6239  1.3818  1.7054
  279TIP3    H222473   4.575   0.525   8.393 -1.1113 -1.6783  0.2709
  280TIP3   OH222474   3.155   4.457   1.289 -0.5154 -0.7050 -0.3075
  280TIP3    H122475   3.143   4.380   1.345  0.9004 -1.0003 -0.3518
  280TIP3    H222476   3.110   4.434   1.208  0.0143 -1.5745 -0.3781
  281TIP3   OH222477   4.929   0.530   2.050 -0.1655  0.1410 -0.7078
  281TIP3    H122478   4.882   0.568   2.125  0.6229 -0.0651 -0.0922
  281TIP3    H222479   4.861   0.495   1.994 -0.7834  0.4204 -0.1449
  282TIP3   OH222480   1.202   3.157   2.096 -0.8336 -0.2732 -0.2186
  282TIP3    H122481   1.190   3.248   2.120 -0.2801 -0.5104  1.0150
  282TIP3    H222482   1.113   3.125   2.077 -1.3013 -0.0327  1.4413
  283TIP3   OH222483   1.588   3.624   8.553 -0.2086  0.0269  0.4005
  283TIP3    H122484   1.634   3.564   8.611 -0.7908  0.3637  1.2199
  283TIP3    H222485   1.615   3.711   8.582 -1.1805  0.2190  0.7488
  284TIP3   OH222486   6.419   5.526   1.214  0.6054  0.5858 -0.2167
  284TIP3    H122487   6.380   5.518   1.300  1.4195 -0.3655  0.0836
  284TIP3    H222488   6.347   5.553   1.157  0.3075  2.5057  0.9595
  285TIP3   OH222489   6.317   3.903   2.253  0.5601 -0.0370 -0.1013
  285TIP3    H122490   6.339   3.942   2.338 -0.7154  2.4996 -0.8306
  285TIP3    H222491   6.377   3.945   2.192 -0.9933  1.0619 -0.9475
  286TIP3   OH222492   6.624   3.661   6.778  0.1439 -0.1236  0.0001
  286TIP3    H122493   6.594   3.578   6.816  0.5349 -0.7757 -1.0693
  286TIP3    H222494   6.547   3.695   6.731 -0.0549  0.1921  0.5499
  287TIP3   OH222495   6.333   3.423   1.964  0.2944  0.0133  0.1211
  287TIP3    H122496   6.374   3.464   1.887  1.6250 -0.5202  0.5201
  287TIP3    H222497   6.391   3.445   2.037 -1.2556  1.0039  1.1069
  288TIP3   OH222498   5.040   6.893   7.875 -0.4331  0.2002 -0.6610
  288TIP3    H122499   5.094   6.827   7.831  1.8561 -0.5141  2.8284
  288TIP3    H222500   4.950   6.862   7.863  0.3075 -1.5725 -2.1332
  289TIP3   OH222501   6.383   0.182   7.178  0.0467  0.0023  0.1698
  289TIP3    H122502   6.301   0.172   7.225 -0.6118 -0.7956 -1.0982
  289TIP3    H222503   6.360   0.228   7.098  0.6886 -0.8984 -0.5559
  290TIP3   OH222504   4.075   6.741   2.250 -0.1624 -0.1249 -0.0769
  290TIP3    H122505   4.118   6.802   2.191 -1.2087 -0.4147 -1.1848
  290TIP3    H222506   4.063   6.661   2.198  1.4611 -1.4338  1.4256
  291TIP3   OH222507   2.200   2.643   7.457  0.5524 -0.7011 -0.0758
  291TIP3    H122508   2.199   2.646   7.361  1.5711  1.2675 -0.0698
  291TIP3    H222509   2.291   2.622   7.480  0.8480  0.9957  0.4408
  292TIP3   OH222510   6.402   2.876   7.177 -0.1988  0.2217  0.7856
  292TIP3    H122511   6.413   2.899   7.085 -0.3155  0.6361  0.8710
  292TIP3    H222512   6.314   2.839   7.183  0.0798 -0.4663  0.6030
  293TIP3   OH222513   0.436   3.109   0.057  0.0752  0.5845  0.1575
  293TIP3    H122514   0.480   3.029   0.030 -0.9600 -0.1634  0.6274
  293TIP3    H222515   0.417   3.096   0.150 -0.9223  0.9853  0.0203
  294TIP3   OH222516   6.465   0.149   7.541  0.2236  0.1574  0.4685
  294TIP3    H122517   6.502   0.216   7.484 -0.1334 -0.5438 -0.6250
  294TIP3    H222518   6.393   0.192   7.587 -0.9008  0.1996 -1.2518
  295TIP3   OH222519   6.643   1.783   7.018 -0.1271  0.1493 -0.1918
  295TIP3    H122520   6.565   1.730   7.037 -0.9300  1.7234  1.2067
  295TIP3    H222521   6.680   1.743   6.939 -0.6064 -2.5328  0.8168
  296TIP3   OH222522   3.813   5.974   7.788 -0.4972 -0.1223 -0.6346
  296TIP3    H122523   3.877   5.978   7.860 -0.8412  0.3348 -0.3487
  296TIP3    H222524   3.864   5.942   7.713 -0.3419 -1.4843  0.0278
  297TIP3   OH222525   0.364   3.439   1.415 -0.3214  0.0769  0.0771
  297TIP3    H122526   0.298   3.470   1.476 -1.0431 -2.3159  0.6309
  297TIP3    H222527   0.444   3.431   1.467 -0.0072  1.3355 -0.1799
  298TIP3   OH222528   2.084   2.604   0.315 -0.3172  0.1556 -0.5115
  298TIP3    H122529   2.007   2.628   0.264 -2.3629 -0.2122  2.1923
  298TIP3    H222530   2.050   2.582   0.401  2.4853 -2.9771  0.0053
  299TIP3   OH222531   3.097   5.554   0.850 -0.0394  0.0298 -0.4033
  299TIP3    H122532   3.021   5.580   0.798 -0.2482  0.7179  0.2348
  299TIP3    H222533   3.147   5.496   0.792 -1.9316 -1.9012 -0.2594
  300TIP3   OH222534   6.436   1.918   0.023  0.4726 -0.1929 -0.2649
  300TIP3    H122535   6.373   1.846   0.022  1.2180 -0.8657  0.1164
  300TIP3    H222536   6.387   1.992   0.060  0.1622 -0.9525  0.8932
  301TIP3   OH222537   4.051   6.118   0.842  0.0116  0.1490 -0.0926
  301TIP3    H122538   4.009   6.064   0.775 -0.2912 -0.1864  0.3641
  301TIP3    H222539   4.124   6.063   0.873  1.3748  1.0625 -1.4973
  302TIP3   OH222540   0.213   3.646   0.761  0.2210  0.3148 -0.6481
  302TIP3    H122541   0.291   3.607   0.722 -0.1453 -0.1176 -0.9545
  302TIP3    H222542   0.165   3.572   0.798 -1.3573  0.1902 -2.7570
  303TIP3   OH222543   4.662   1.330   2.271 -0.7788  0.0365 -0.1964
  303TIP3    H122544   4.654   1.404   2.331 -1.2776 -0.2109  0.0460
  303TIP3    H222545   4.581   1.332   2.220 -1.6003 -1.3420  0.9658
  304TIP3   OH222546   4.175   4.835   0.166  0.7375  0.0931 -0.5831
  304TIP3    H122547   4.109   4.769   0.187  0.9364  0.2243  0.5321
  304TIP3    H222548   4.190   4.881   0.249  1.2149  0.9855 -1.1445
  305TIP3   OH222549   1.480   5.061   8.304  0.0439  0.4401 -0.2147
  305TIP3    H122550   1.471   5.076   8.210  0.2844  0.0563 -0.3036
  305TIP3    H222551   1.412   4.996   8.325  0.7329 -0.3400 -0.3486
  306TIP3   OH222552   6.712   1.901   8.465 -0.4098 -0.1301 -0.1327
  306TIP3    H122553   6.764   1.821   8.452  1.8490  0.9173  1.8140
  306TIP3    H222554   6.647   1.877   8.531 -0.9052 -0.8009 -0.8406
  307TIP3   OH222555   2.692   1.091   7.286  0.7644 -0.1362  0.0625
  307TIP3    H122556   2.780   1.103   7.323  1.3775 -2.7995 -0.3116
  307TIP3    H222557   2.639   1.062   7.359  0.4959  0.2803  0.0352
  308TIP3   OH222558   1.719   5.520   0.285 -0.4903 -0.5509  0.4114
  308TIP3    H122559   1.736   5.520   0.191 -3.0561 -2.2480 -0.1694
  308TIP3    H222560   1.647   5.582   0.296 -0.9709 -1.2124  1.0615
  309TIP3   OH222561   6.084   2.218   6.868 -0.2264 -0.2213 -0.1798
  309TIP3    H122562   5.999   2.182   6.841 -1.4120  2.2572 -0.0192
  309TIP3    H222563   6.073   2.312   6.862  1.9458  0.2378  1.6357
  310TIP3   OH222564   5.791   1.165   0.983  0.1529  0.0871 -0.6818
  310TIP3    H122565   5.836   1.130   1.060  0.6428 -1.0973 -1.4813
  310TIP3    H222566   5.834   1.249   0.967  2.5148 -1.2202 -1.7143
  311TIP3   OH222567   3.696   4.944   0.589  0.1264 -0.3392 -0.3085
  311TIP3    H122568   3.737   4.976   0.508 -0.5243  1.7781  0.1341
  311TIP3    H222569   3.765   4.954   0.655 -0.1582  0.4813 -0.1196
  312TIP3   OH222570   1.587   5.081   0.242 -0.2711 -0.4074  0.1935
  312TIP3    H122571   1.593   5.050   0.151 -2.1877 -0.5921  0.0852
  312TIP3    H222572   1.677   5.089   0.271  0.3820 -0.4158 -1.7152
  313TIP3   OH222573   6.703   3.870   7.628 -0.5360  0.1390 -0.4692
  313TIP3    H122574   6.614   3.902   7.622 -0.9068 -0.9694 -1.1608
  313TIP3    H222575   6.708   3.829   7.714 -0.2681  1.3605  0.1274
  314TIP3   OH222576   5.142   4.335   8.275 -0.1990 -0.3927  0.0677
  314TIP3    H122577   5.082   4.323   8.348 -0.8129 -3.4792 -0.7993
  314TIP3    H222578   5.085   4.349   8.199  0.3353  0.3981 -0.1988
  315TIP3   OH222579   6.900   3.338   8.548  0.5474 -0.6682  0.3838
  315TIP3    H122580   6.866   3.260   8.593 -0.4351 -0.7312 -0.4368
  315TIP3    H222581   6.910   3.403   8.618  1.7601 -1.6170  1.1485
  316TIP3   OH222582   6.717   1.096   7.603 -0.6885 -0.3437  0.4174
  316TIP3    H122583   6.777   1.169   7.584 -0.9196 -0.5736 -1.3066
  316TIP3    H222584   6.637   1.138   7.635 -1.1114  0.2585 -1.3216
  317TIP3   OH222585   4.286   1.759   0.417  0.5445  0.4000 -0.1126
  317TIP3    H122586   4.271   1.664   0.414 -1.7719  0.7093 -1.0199
  317TIP3    H222587   4.309   1.781   0.327  2.0887  0.5906  0.3150
  318TIP3   OH222588   1.933   3.508   8.299  0.2439  0.4170  0.7810
  318TIP3    H122589   1.844   3.536   8.279  0.9607  2.7651  0.6049
  318TIP3    H222590   1.958   3.558   8.377  0.9781 -1.1770  1.6135
  319TIP3   OH222591   2.383   2.299   7.437 -0.0070 -0.6661 -0.2584
  319TIP3    H122592   2.453   2.254   7.389  1.5571 -0.8384  2.0137
  319TIP3    H222593   2.405   2.392   7.429  1.9764 -0.7989  2.3830
  320TIP3   OH222594   6.084   1.433   1.579 -0.1739  0.4152  0.3372
  320TIP3    H122595   6.179   1.422   1.585 -0.1186  1.2231  1.3440
  320TIP3    H222596   6.057   1.372   1.511  1.0499  0.0733  0.1253
  321TIP3   OH222597   6.323   0.729   7.820 -0.2782  0.1681 -0.0849
  321TIP3    H122598   6.318   0.725   7.915  0.6071 -2.2328 -0.0549
  321TIP3    H222599   6.245   0.682   7.790  0.4195 -0.7893 -0.4656
  322TIP3   OH222600   4.091   2.108   8.257  0.1586  0.4653  0.6198
  322TIP3    H122601   4.036   2.089   8.334 -1.6816  0.4743 -0.6293
  322TIP3    H222602   4.086   2.203   8.247  1.4131  0.6045  1.1864
  323TIP3   OH222603   3.099   3.939   7.342 -0.3944  0.1831 -0.2291
  323TIP3    H122604   3.020   3.992   7.350 -0.8377 -0.2735 -1.3941
  323TIP3    H222605   3.133   3.959   7.255 -0.8265 -1.7327 -0.8946
  324TIP3   OH222606   6.251   1.505   8.456 -0.2531  0.8677  0.4584
  324TIP3    H122607   6.225   1.534   8.369  1.5349 -0.6438 -0.6599
  324TIP3    H222608   6.183   1.444   8.483  0.8718 -1.3899 -1.4731
  325TIP3   OH222609   6.092   3.846   0.843  0.2393 -0.4053  0.1838
  325TIP3    H122610   6.028   3.813   0.906  0.5297 -0.9205  0.2082
  325TIP3    H222611   6.175   3.807   0.870  0.4481 -0.2577 -0.2413
  326TIP3   OH222612   6.189   6.018   7.841  0.3649  0.1852  0.3162
  326TIP3    H122613   6.177   6.079   7.914 -0.7168 -2.3726  2.4464
  326TIP3    H222614   6.108   6.025   7.791  0.7515  1.3165 -0.1897
  327TIP3   OH222615   2.653   3.011   2.083  0.6935 -0.0583 -0.3870
  327TIP3    H122616   2.695   3.068   2.018  3.5958 -0.8471  0.6456
  327TIP3    H222617   2.605   2.947   2.030 -1.4939  2.3470 -1.5844
  328TIP3   OH222618   4.905   1.744   7.387 -0.5298 -0.3407 -0.1852
  328TIP3    H122619   4.894   1.680   7.456 -0.5352 -0.8363 -0.6372
  328TIP3    H222620   4.843   1.814   7.409 -0.5764 -0.5231  0.2680
  329TIP3   OH222621   4.915   4.076   8.397  0.0545  0.2357  0.0577
  329TIP3    H122622   4.882   4.150   8.447  1.1986  0.4716  0.4866
  329TIP3    H222623   5.010   4.077   8.412 -0.0221 -2.0280  1.0733
  330TIP3   OH222624   2.522   4.628   0.772 -0.3133  0.2206 -0.3920
  330TIP3    H122625   2.540   4.562   0.839 -0.7830 -0.1882 -0.6591
  330TIP3    H222626   2.479   4.699   0.819  0.4000  0.4398 -0.0619
  331TIP3   OH222627   1.322   0.094   1.859  0.0729  0.1769 -0.2594
  331TIP3    H122628   1.339   0.007   1.896 -1.0499 -0.2252 -0.6373
  331TIP3    H222629   1.275   0.140   1.929 -1.5669 -0.3994 -0.9299
  332TIP3   OH222630   2.570   1.705   0.195  0.1703  0.5449 -0.5878
  332TIP3    H122631   2.533   1.779   0.243  0.2315  0.3839 -0.2894
  332TIP3    H222632   2.623   1.745   0.125  1.7138  0.8153  0.6862
  333TIP3   OH222633   0.519   2.363   7.272 -0.0963 -0.2342  0.1582
  333TIP3    H122634   0.442   2.308   7.259  0.1152 -1.1920  2.4060
  333TIP3    H222635   0.508   2.399   7.361  1.7079  0.1534  0.2646
  334TIP3   OH222636   1.316   2.727   6.695 -0.1127  0.1273 -0.9238
  334TIP3    H122637   1.234   2.767   6.665  0.4702 -0.0777 -2.8874
  334TIP3    H222638   1.311   2.733   6.791 -2.7546 -0.5619 -0.9465
  335TIP3   OH222639   4.007   2.467   1.673 -0.1958  0.5536  0.1991
  335TIP3    H122640   4.052   2.543   1.636 -0.9527  0.5107 -0.8557
  335TIP3    H222641   3.987   2.411   1.598 -0.3443 -0.3198  0.8674
  336TIP3   OH222642   5.042   6.349   2.167  0.8810 -0.2432 -0.3486
  336TIP3    H122643   5.010   6.323   2.253  1.0805 -1.4636 -0.6221
  336TIP3    H222644   5.005   6.436   2.153 -1.5621 -1.1862 -0.2591
  337TIP3   OH222645   6.318   2.181   6.573  0.0790 -0.4877  0.0955
  337TIP3    H122646   6.303   2.263   6.526  1.4194  0.1087  0.6384
  337TIP3    H222647   6.261   2.118   6.531  1.7317 -0.1785 -2.8955
  338TIP3   OH222648   2.677   5.580   8.322  0.5193 -0.4966  0.2056
  338TIP3    H122649   2.648   5.611   8.236  1.1858 -1.8440 -0.5488
  338TIP3    H222650   2.773   5.589   8.320  0.5028 -0.0841  0.9982
  339TIP3   OH222651   3.899   0.906   1.238 -0.1989  0.0254  0.0227
  339TIP3    H122652   3.990   0.932   1.224 -0.4674  0.2173 -1.6198
  339TIP3    H222653   3.858   0.914   1.151 -2.4731  2.6306  1.1815
  340TIP3   OH222654   2.773   4.565   1.974  0.2138  0.0122  0.1020
  340TIP3    H122655   2.735   4.481   1.949 -0.2243 -0.7500  2.9684
  340TIP3    H222656   2.866   4.547   1.987  1.2684  1.2449 -4.1579
  341TIP3   OH222657   5.097   2.314   1.712  0.1931 -0.3054  0.3286
  341TIP3    H122658   5.165   2.351   1.657 -0.3733 -0.9319 -0.8238
  341TIP3    H222659   5.035   2.386   1.726  0.0072 -0.3207 -0.4023
  342TIP3   OH222660   0.946   0.715   2.751  0.3446  0.3696 -0.0118
  342TIP3    H122661   0.917   0.699   2.841  0.2307 -0.7835 -0.2385
  342TIP3    H222662   0.878   0.770   2.713  0.3354  0.7700  0.5739
  343TIP3   OH222663   4.870   2.484   1.726  0.4731 -0.5800 -0.0139
  343TIP3    H122664   4.852   2.514   1.816 -3.4622  0.2474 -0.8813
  343TIP3    H222665   4.845   2.392   1.726 -0.8525 -0.2315 -0.5399
  344TIP3   OH222666   6.072   4.322   1.091  0.3935  0.8126 -0.0853
  344TIP3    H122667   6.139   4.369   1.042  0.9054  0.0903 -0.0932
  344TIP3    H222668   6.080   4.231   1.062 -0.3550  0.6534  0.1756
  345TIP3   OH222669   6.814   3.574   1.614 -0.2654 -0.0917  0.1729
  345TIP3    H122670   6.746   3.547   1.552  1.4986 -0.6470 -1.6022
  345TIP3    H222671   6.871   3.497   1.622  2.1592  1.4256 -1.2324
  346TIP3   OH222672   1.616   5.248   1.054  0.9612  0.1253 -0.2736
  346TIP3    H122673   1.699   5.278   1.018  0.7060  3.9342  1.8528
  346TIP3    H222674   1.634   5.231   1.146 -0.4399  0.1449  0.0271
  347TIP3   OH222675   2.143   0.503   1.297  0.1799  0.0853  0.1754
  347TIP3    H122676   2.096   0.420   1.306 -1.1465  1.0180  3.4058
  347TIP3    H222677   2.097   0.549   1.227  0.2437 -1.4205 -0.9086
  348TIP3   OH222678   0.089   5.969   2.234  0.7372  0.4500 -0.1104
  348TIP3    H122679   0.002   5.958   2.272  0.5880 -0.3990 -0.6764
  348TIP3    H222680   0.128   6.042   2.283  0.1120  0.1349  0.8645
  349TIP3   OH222681   5.146   1.384   0.121  0.6687  0.1613  0.1853
  349TIP3    H122682   5.065   1.337   0.142  0.3916  0.2160 -0.7003
  349TIP3    H222683   5.142   1.464   0.173  0.1998  0.1173  0.2225
  350TIP3   OH222684   0.803   6.848   0.312 -0.3900 -0.1742  0.6022
  350TIP3    H122685   0.726   6.795   0.334  1.3024 -3.1564 -0.1604
  350TIP3    H222686   0.818   6.901   0.391 -2.1536 -0.8206  1.4393
  351TIP3   OH222687   1.196   4.728   1.425  0.0217 -0.5166  0.4736
  351TIP3    H122688   1.258   4.792   1.459 -0.7291  1.1454 -1.1071
  351TIP3    H222689   1.112   4.755   1.462 -0.0642 -1.7203  1.2273
  352TIP3   OH222690   0.852   2.889   6.904 -0.1266  0.2952  0.0542
  352TIP3    H122691   0.944   2.881   6.879 -0.0339 -1.6571  0.8939
  352TIP3    H222692   0.803   2.870   6.824  0.1728  1.1060 -0.3345
  353TIP3   OH222693   5.111   0.338   1.526 -0.0518  0.0847 -0.1584
  353TIP3    H122694   5.165   0.297   1.593 -0.0320  1.5103  0.7447
  353TIP3    H222695   5.149   0.309   1.443 -0.2124 -1.8962  0.4038
  354TIP3   OH222696   5.139   3.161   6.860 -0.1922  0.0456 -0.4589
  354TIP3    H122697   5.190   3.200   6.930  2.4599  0.0248 -2.2502
  354TIP3    H222698   5.203   3.140   6.791 -2.5528 -0.4050 -2.6955
  355TIP3   OH222699   3.491   3.957   0.677 -0.0859 -0.5174  0.0552
  355TIP3    H122700   3.399   3.930   0.683 -0.1297 -0.2331  0.8901
  355TIP3    H222701   3.540   3.880   0.706 -0.1230 -0.3206  0.6643
  356TIP3   OH222702   5.465   2.860   0.397  0.3161 -0.1281  0.0781
  356TIP3    H122703   5.405   2.805   0.448  1.4181 -0.1076  1.4383
  356TIP3    H222704   5.541   2.804   0.382  0.0549 -0.1042 -1.5327
  357TIP3   OH222705   1.845   3.770   0.443  0.2899 -0.3299  0.3700
  357TIP3    H122706   1.892   3.790   0.524 -0.2469  0.9798  0.3762
  357TIP3    H222707   1.800   3.851   0.420  1.5377 -0.2180 -2.0070
  358TIP3   OH222708   2.606   5.511   2.926  0.1172 -0.3295 -0.3519
  358TIP3    H122709   2.643   5.572   2.990 -0.3242 -0.2554 -0.1619
  358TIP3    H222710   2.511   5.526   2.931  0.1524  0.8113 -2.1606
  359TIP3   OH222711   4.616   0.712   0.643 -0.1375  0.5204  0.2800
  359TIP3    H122712   4.615   0.805   0.619  2.7561  0.8225  0.9656
  359TIP3    H222713   4.706   0.684   0.628 -1.2950 -2.7106 -1.5643
  360TIP3   OH222714   3.882   4.750   0.420  0.2604  0.1051 -0.3401
  360TIP3    H122715   3.887   4.714   0.332  0.2282  1.9477 -1.1572
  360TIP3    H222716   3.804   4.710   0.459  1.7270 -2.7530 -0.1048
  361TIP3   OH222717   4.058   0.743   0.202 -0.3525 -0.5007 -0.3242
  361TIP3    H122718   4.071   0.833   0.174  1.3355 -0.7332 -0.3562
  361TIP3    H222719   3.991   0.708   0.142 -0.7464  0.5963 -0.5430
  362TIP3   OH222720   5.151   5.118   6.565 -0.1439 -0.3026  0.3508
  362TIP3    H122721   5.231   5.170   6.572 -1.0564  1.0015  1.6123
  362TIP3    H222722   5.182   5.028   6.560  1.3895  0.1064  1.6351
  363TIP3   OH222723   4.698   4.335   8.428  0.4267 -0.4028  0.3190
  363TIP3    H122724   4.610   4.302   8.409  0.5746 -0.6395  0.0365
  363TIP3    H222725   4.687   4.386   8.508 -0.2036  0.6100 -0.3847
  364TIP3   OH222726   2.296   6.120   7.631 -0.0242 -0.4694 -0.2170
  364TIP3    H122727   2.272   6.182   7.562  1.4723  0.0989 -0.2692
  364TIP3    H222728   2.375   6.077   7.598  0.4833 -0.4823  0.9545
  365TIP3   OH222729   6.887   3.675   8.524  0.5381  0.3432 -0.0918
  365TIP3    H122730   6.798   3.655   8.495  0.5839  0.6212 -0.4371
  365TIP3    H222731   6.893   3.636   8.611 -0.2422  1.1402  0.3407
  366TIP3   OH222732   4.413   1.892   0.632 -0.0070 -0.0206 -0.2033
  366TIP3    H122733   4.400   1.819   0.572  0.8525 -0.1349 -0.2500
  366TIP3    H222734   4.345   1.955   0.607 -0.2720 -0.4774 -0.6505
  367TIP3   OH222735   5.858   4.529   6.387  0.0405 -0.2791 -0.2461
  367TIP3    H122736   5.785   4.469   6.408  0.1290 -0.0203  0.8663
  367TIP3    H222737   5.827   4.577   6.310 -0.3233 -1.2490 -0.7356
  368TIP3   OH222738   6.461   5.909   0.806  0.3193 -0.2888 -0.1456
  368TIP3    H122739   6.473   5.842   0.873 -1.1024  0.4853  0.9702
  368TIP3    H222740   6.461   5.861   0.723 -0.2641 -1.6282  0.5904
  369TIP3   OH222741   0.177   2.300   7.510  0.3027 -0.0535 -0.4513
  369TIP3    H122742   0.187   2.256   7.425  0.7473  1.5891 -1.2934
  369TIP3    H222743   0.117   2.372   7.493  1.8075  1.4080  0.1668
  370TIP3   OH222744   4.607   4.437   7.210  0.2066 -0.5225  0.1325
  370TIP3    H122745   4.616   4.349   7.175  1.7688 -0.9341  1.4698
  370TIP3    H222746   4.668   4.490   7.157  0.0871 -0.4616  0.0548
  371TIP3   OH222747   3.005   1.666   8.208 -0.0852 -0.3397  0.0523
  371TIP3    H122748   2.915   1.696   8.221  0.3496 -0.2155  4.2316
  371TIP3    H222749   3.019   1.602   8.278  3.0904 -0.3129 -0.4146
  372TIP3   OH222750   3.739   4.712   0.022  0.5513  0.2355  0.5620
  372TIP3    H122751   3.663   4.674   0.067  0.8756  0.0420  0.9506
  372TIP3    H222752   3.701   4.776  -0.039 -0.2297 -2.2701 -1.8018
  373TIP3   OH222753   6.777   0.922   0.528 -0.8565 -0.7248 -0.4334
  373TIP3    H122754   6.798   0.980   0.601  1.1230 -0.8725 -0.8172
  373TIP3    H222755   6.822   0.840   0.549  0.1233 -0.6258 -1.9712
  374TIP3   OH222756   2.395   2.033   7.293  0.5826 -0.3965  0.5218
  374TIP3    H122757   2.451   2.110   7.299  0.8720 -0.5710  0.1625
  374TIP3    H222758   2.349   2.043   7.209 -0.4902  0.1142  1.1549
  375TIP3   OH222759   4.739   6.003   0.066  0.0332  0.0511 -0.0211
  375TIP3    H122760   4.794   6.081   0.065  1.2079 -0.6327  2.4471
  375TIP3    H222761   4.762   5.956  -0.014 -0.0387  1.7704 -1.0909
  376TIP3   OH222762   6.326   2.266   1.955  0.0535  0.1196  0.2763
  376TIP3    H122763   6.369   2.273   1.870  0.3493  0.4367  0.4516
  376TIP3    H222764   6.375   2.199   2.001 -1.2386 -1.4025 -0.4730
  377TIP3   OH222765   4.620   2.596   0.011 -0.1606  0.1967  0.2574
  377TIP3    H122766   4.644   2.669   0.069  1.3180 -0.5020  0.5869
  377TIP3    H222767   4.571   2.637  -0.060  0.0885  1.4280  0.7603
  378TIP3   OH222768   2.939   6.909   0.516  0.5240  0.4436  0.2304
  378TIP3    H122769   2.870   6.950   0.463  0.2872  3.0936  2.3974
  378TIP3    H222770   2.894   6.878   0.594  1.3480 -0.7093  0.2785
  379TIP3   OH222771   5.921   4.212   6.365 -0.1252 -1.0964 -0.0786
  379TIP3    H122772   5.962   4.125   6.357  0.5462 -0.8278  0.3422
  379TIP3    H222773   5.898   4.219   6.458  0.0836 -0.7107 -0.0553
  380TIP3   OH222774   5.129   4.990   2.098  0.5389  0.3477 -0.0351
  380TIP3    H122775   5.092   5.031   2.020  0.2735  0.0979 -0.0405
  380TIP3    H222776   5.053   4.968   2.152  0.7266  0.6937  0.3815
  381TIP3   OH222777   6.256   2.442   1.139  0.1547 -0.1448  0.1118
  381TIP3    H122778   6.218   2.410   1.057 -0.3864 -0.9558  0.6612
  381TIP3    H222779   6.350   2.442   1.123  0.0081  0.7322 -0.8615
  382TIP3   OH222780   5.714   3.345   0.156 -0.1230  0.3127 -0.2155
  382TIP3    H122781   5.665   3.353   0.074 -0.8578 -0.8992  0.0773
  382TIP3    H222782   5.806   3.352   0.129 -0.3885  1.1787 -0.9630
  383TIP3   OH222783   4.423   4.095   0.806 -0.0123 -0.7251  0.0769
  383TIP3    H122784   4.373   4.040   0.866 -3.3590  1.7339 -0.2172
  383TIP3    H222785   4.370   4.098   0.727  1.5025  0.6612 -0.9447
  384TIP3   OH222786   6.238   5.756   7.822  0.4365  0.4396 -0.0575
  384TIP3    H122787   6.246   5.848   7.847  1.1863  0.8745 -1.7316
  384TIP3    H222788   6.322   5.735   7.780 -0.7048 -0.1584 -2.1996
  385TIP3   OH222789   5.709   2.781   2.302 -0.0385  1.0521 -0.6710
  385TIP3    H122790   5.686   2.828   2.382  0.9571  2.2264 -1.0451
  385TIP3    H222791   5.625   2.748   2.269 -0.5454  1.1295  0.4872
  386TIP3   OH222792   3.428   4.306   2.641 -0.3714  0.2362  0.7372
  386TIP3    H122793   3.517   4.296   2.675 -0.7353  1.6292  2.1960
  386TIP3    H222794   3.386   4.221   2.659  1.0848 -1.0457 -1.4945
  387TIP3   OH222795   6.435   0.178   8.454  0.2650 -0.4088  0.0601
  387TIP3    H122796   6.411   0.264   8.489  0.3797 -0.4274  0.1841
  387TIP3    H222797   6.529   0.183   8.440  0.5585 -1.0550  1.6044
  388TIP3   OH222798   5.629   5.938   2.310 -0.2863  0.2916  0.1067
  388TIP3    H122799   5.640   5.991   2.231 -1.0536  1.7422  0.9304
  388TIP3    H222800   5.700   5.874   2.307 -0.6036 -0.0253 -2.0045
  389TIP3   OH222801   3.894   0.188   8.459 -0.2501  0.1906  0.4888
  389TIP3    H122802   3.914   0.278   8.484  1.5558 -0.1096  0.2219
  389TIP3    H222803   3.889   0.190   8.363 -0.4899  0.0529  0.4964
  390TIP3   OH222804   4.372   0.723   2.531  0.6923  0.5193 -0.2261
  390TIP3    H122805   4.333   0.751   2.613  0.6663  2.7943 -0.9395
  390TIP3    H222806   4.400   0.804   2.488  0.0449 -0.4908 -2.7998
  391TIP3   OH222807   1.530   2.086   1.606  0.1486 -0.4309 -0.3985
  391TIP3    H122808   1.518   2.181   1.601 -0.3343 -0.4840 -0.3436
  391TIP3    H222809   1.469   2.058   1.675  1.5858 -0.5617  0.8780
  392TIP3   OH222810   6.756   1.460   7.411  0.2668 -0.1106 -0.3199
  392TIP3    H122811   6.759   1.470   7.316  0.9772 -2.9792 -0.6819
  392TIP3    H222812   6.771   1.367   7.426  1.1146  0.4036  2.6679
  393TIP3   OH222813   4.628   5.897   1.592 -0.0228  0.7104  0.0213
  393TIP3    H122814   4.701   5.947   1.557 -0.6279  1.3943 -0.2999
  393TIP3    H222815   4.605   5.836   1.522  0.4361  0.2791  0.2435
  394TIP3   OH222816   0.623   3.275   1.377  0.4157  0.0675  0.1543
  394TIP3    H122817   0.552   3.218   1.405 -0.1789  0.8619  0.3226
  394TIP3    H222818   0.680   3.220   1.323  0.6241 -1.0421  1.4551
  395TIP3   OH222819   6.496   2.474   1.021  0.4526 -0.0463  0.0370
  395TIP3    H122820   6.585   2.459   1.053  0.4294  1.4645  0.8788
  395TIP3    H222821   6.486   2.412   0.949  1.8348 -0.9256  0.5621
  396TIP3   OH222822   1.345   4.503   7.021  0.1224 -0.0570  0.2252
  396TIP3    H122823   1.398   4.462   6.952  0.7602  1.1655 -0.0468
  396TIP3    H222824   1.259   4.514   6.981  0.7864  1.7042 -0.8472
  397TIP3   OH222825   4.022   1.331   1.181 -0.2612 -0.2750  0.7567
  397TIP3    H122826   4.026   1.419   1.143 -1.1744 -0.0973  1.0552
  397TIP3    H222827   4.114   1.305   1.189  0.1362  1.3807  2.3139
  398TIP3   OH222828   5.488   0.051   1.191  0.5337 -0.0708 -0.2508
  398TIP3    H122829   5.568   0.078   1.235  1.1359 -0.3910 -1.1337
  398TIP3    H222830   5.504  -0.039   1.164 -0.4632 -0.4439  0.3353
  399TIP3   OH222831   1.883   6.512   8.001 -0.2915  0.1830  0.3132
  399TIP3    H122832   1.971   6.476   7.996  0.1938  1.3271  0.1264
  399TIP3    H222833   1.885   6.587   7.942 -2.3008 -1.5182 -2.0864
  400TIP3   OH222834   2.954   5.205   0.135  0.2866 -0.1908  0.2482
  400TIP3    H122835   2.999   5.275   0.088  0.4099 -1.7067 -2.0100
  400TIP3    H222836   3.016   5.180   0.204  0.3005  1.7692  1.0185
  401TIP3   OH222837   4.690   3.754   7.015 -0.4969 -0.7390 -0.4279
  401TIP3    H122838   4.712   3.790   6.929 -0.5136 -0.4747 -0.3213
  401TIP3    H222839   4.605   3.793   7.036  1.0532  1.9433  1.2593
  402TIP3   OH222840   2.910   6.597   1.120 -0.0207  0.6296  0.6475
  402TIP3    H122841   2.852   6.668   1.146  0.9995  1.0823  1.8414
  402TIP3    H222842   2.869   6.518   1.155 -1.4325  0.5068 -1.1411
  403TIP3   OH222843   3.733   5.692   7.916 -0.0644  0.0111 -0.0425
  403TIP3    H122844   3.815   5.668   7.874 -0.3365  0.9397 -1.1662
  403TIP3    H222845   3.682   5.735   7.846 -0.6155  1.4220  1.1767
  404TIP3   OH222846   2.895   0.922   3.015 -0.4735  0.0173  0.0386
  404TIP3    H122847   2.803   0.948   3.015  0.4750  3.9489 -0.7230
  404TIP3    H222848   2.934   0.972   3.087  1.2515 -0.9633 -0.1593
  405TIP3   OH222849   2.199   1.382   1.244 -0.0351  0.0116 -0.1144
  405TIP3    H122850   2.154   1.313   1.293  1.8438 -1.1786  0.0324
  405TIP3    H222851   2.193   1.353   1.153  0.1171  0.0362 -0.1320
  406TIP3   OH222852   1.137   6.649   6.812  0.1748  0.4743 -0.2171
  406TIP3    H122853   1.215   6.634   6.865  0.0698  2.9681  0.7747
  406TIP3    H222854   1.083   6.571   6.826  1.8286 -0.6198  0.2643
  407TIP3   OH222855   2.793   6.851   0.730  0.1520 -0.0168  0.0391
  407TIP3    H122856   2.735   6.776   0.739  0.6182 -0.2478  1.3029
  407TIP3    H222857   2.775   6.905   0.807  1.3149  0.1020  0.2438
  408TIP3   OH222858   4.497   2.302   1.264  0.2942 -0.0772  0.1941
  408TIP3    H122859   4.494   2.387   1.308  1.5803  1.3048 -2.1551
  408TIP3    H222860   4.587   2.271   1.279  0.6949  0.3329 -1.1938
  409TIP3   OH222861   1.574   3.254   2.046 -0.2139 -0.3862 -0.7357
  409TIP3    H122862   1.499   3.271   2.103 -0.3787 -2.2799 -0.3073
  409TIP3    H222863   1.536   3.210   1.970  0.1392  1.2064 -1.8709
  410TIP3   OH222864   6.063   1.205   7.895  0.0774  0.4735 -0.6825
  410TIP3    H122865   6.091   1.255   7.972 -1.9099  1.1742 -0.3369
  410TIP3    H222866   6.129   1.224   7.829  2.8166 -1.4802  1.2499
  411TIP3   OH222867   6.777   2.548   1.027  0.4651  0.1022 -0.0443
  411TIP3    H122868   6.782   2.587   0.940  1.3320 -4.0609 -2.1115
  411TIP3    H222869   6.866   2.554   1.061  1.0481 -1.5739 -1.1696
  412TIP3   OH222870   2.125   4.435   0.708  0.1120  0.4607 -0.3730
  412TIP3    H122871   2.172   4.463   0.787 -0.7104  0.4262  0.1488
  412TIP3    H222872   2.158   4.347   0.691  1.8654  1.2588 -1.3459
  413TIP3   OH222873   4.374   3.505   8.171 -0.0940  0.4801 -0.0823
  413TIP3    H122874   4.386   3.593   8.206  0.8672 -0.3675  1.8938
  413TIP3    H222875   4.440   3.498   8.102 -1.1550  1.7537 -1.2859
  414TIP3   OH222876   5.613   4.064   8.176 -0.1360  0.2593  0.0554
  414TIP3    H122877   5.575   4.079   8.263  3.4119  1.4175  1.5955
  414TIP3    H222878   5.573   4.131   8.121 -2.1217 -0.1999  0.8607
  415TIP3   OH222879   5.181   1.833   7.257  0.1300 -0.8404  0.8674
  415TIP3    H122880   5.183   1.895   7.330 -0.6387 -0.0109  0.2159
  415TIP3    H222881   5.098   1.787   7.267 -0.5593  0.1139 -0.1123
  416TIP3   OH222882   3.976   1.762   6.983  0.2932 -0.1078 -0.1210
  416TIP3    H122883   3.977   1.708   7.062  1.7493 -1.4155 -0.9648
  416TIP3    H222884   3.888   1.751   6.947 -0.1026 -0.1946  0.8330
  417TIP3   OH222885   1.550   0.136   1.535 -0.0593 -0.3540  0.1512
  417TIP3    H122886   1.598   0.160   1.455 -0.0010  1.2956  0.6284
  417TIP3    H222887   1.462   0.169   1.519 -0.2067 -0.5781  0.5152
  418TIP3   OH222888   2.900   3.005   1.282  0.0402 -0.1105  0.8410
  418TIP3    H122889   2.888   2.934   1.345 -0.1187 -1.7976 -1.0126
  418TIP3    H222890   2.893   3.085   1.335 -2.8485 -1.3485  2.5566
  419TIP3   OH222891   4.424   0.458   0.994 -0.1301  0.2122 -0.1659
  419TIP3    H122892   4.331   0.477   0.980 -0.8773 -2.1303  0.9894
  419TIP3    H222893   4.425   0.368   1.028  2.5029  0.4958  0.7378
  420TIP3   OH222894   2.935   0.266   8.480  0.2939  0.1430 -0.2554
  420TIP3    H122895   3.029   0.275   8.494  0.0752 -1.2238  2.7259
  420TIP3    H222896   2.897   0.270   8.568 -2.4052  0.0964 -1.3307
  421TIP3   OH222897   3.001   4.586   7.603 -0.0009  0.1071  0.4596
  421TIP3    H122898   3.044   4.562   7.521 -1.9527 -1.9525 -0.0555
  421TIP3    H222899   3.056   4.546   7.671 -0.0457 -0.8852 -0.0673
  422TIP3   OH222900   6.480   4.626   6.902 -0.0760 -0.2056 -0.0666
  422TIP3    H122901   6.399   4.659   6.940  1.4663  1.8880  1.6657
  422TIP3    H222902   6.487   4.670   6.818  0.2478  1.2639  0.7038
  423TIP3   OH222903   4.087   4.651   2.520  0.0981 -0.2693  0.2782
  423TIP3    H122904   4.137   4.614   2.447 -0.2197 -0.5041  0.1786
  423TIP3    H222905   4.005   4.680   2.481  0.7821  1.6209  0.1152
  424TIP3   OH222906   0.738   5.227   0.726 -0.2401  0.0516 -0.4062
  424TIP3    H122907   0.692   5.230   0.642 -0.7848 -0.6036 -0.1408
  424TIP3    H222908   0.818   5.177   0.707 -0.4845 -0.3161 -0.4823
  425TIP3   OH222909   2.965   5.941   7.677  0.1290  0.5645 -0.2614
  425TIP3    H122910   2.870   5.930   7.686  0.1763 -0.2445 -0.7041
  425TIP3    H222911   2.975   6.023   7.628 -0.3943 -0.2170 -1.7221
  426TIP3   OH222912   0.153   0.539   1.229  0.0882 -0.4958 -0.7920
  426TIP3    H122913   0.073   0.577   1.266 -0.0010  0.9725 -2.3255
  426TIP3    H222914   0.203   0.509   1.304 -0.5183  1.4310  0.4500
  427TIP3   OH222915   5.181   0.117   8.131  0.4718 -0.7782 -0.3136
  427TIP3    H122916   5.257   0.124   8.073  0.6047 -1.5355 -0.2451
  427TIP3    H222917   5.167   0.023   8.140 -2.4812 -0.7232 -2.9074
  428TIP3   OH222918   6.734   0.415   1.781 -0.4765  0.3108 -0.1407
  428TIP3    H122919   6.734   0.508   1.805  1.7303  0.1501  0.7052
  428TIP3    H222920   6.701   0.370   1.859 -0.2584  0.2921 -0.0591
  429TIP3   OH222921   1.672   3.989   0.376 -0.4042  0.2032 -0.2002
  429TIP3    H122922   1.619   4.022   0.449  0.2956  1.0663 -0.0691
  429TIP3    H222923   1.608   3.954   0.314 -1.1054  0.8750  0.1260
  430TIP3   OH222924   3.181   0.949   7.999  0.1699  0.2411 -0.4867
  430TIP3    H122925   3.154   0.989   7.916 -1.8473 -1.8707 -0.9694
  430TIP3    H222926   3.247   0.884   7.975 -0.6291 -0.5791 -0.5113
  431TIP3   OH222927   2.893   1.376   1.782 -0.3265  0.3710  0.2202
  431TIP3    H122928   2.799   1.360   1.787 -0.0190 -1.3229  1.3754
  431TIP3    H222929   2.902   1.450   1.721 -2.4274  0.9625  0.5502
  432TIP3   OH222930   4.732   4.753   1.000 -0.0363  0.0577 -0.0927
  432TIP3    H122931   4.637   4.755   1.013  0.0133 -2.7880  1.5182
  432TIP3    H222932   4.766   4.818   1.062 -0.8639 -0.1844  0.6300
  433TIP3   OH222933   6.705   5.277   6.350 -0.0421 -0.4882 -0.1244
  433TIP3    H122934   6.626   5.236   6.315  0.7045 -1.8957 -0.2412
  433TIP3    H222935   6.700   5.368   6.321 -2.6554  0.0319  1.6552
  434TIP3   OH222936   0.001   6.766   8.558 -0.2715  0.0837 -0.0526
  434TIP3    H122937   0.080   6.716   8.578 -0.1082  0.3225 -0.0960
  434TIP3    H222938   0.033   6.843   8.511 -0.6972 -0.9883 -2.2631
  435TIP3   OH222939   0.610   3.673   7.107  0.4885  0.4262  0.3734
  435TIP3    H122940   0.648   3.721   7.181  2.2350 -0.7888  0.3180
  435TIP3    H222941   0.594   3.740   7.040  2.2409  1.0642  0.5391
  436TIP3   OH222942   6.594   5.892   7.575 -0.2515 -0.6163  0.5713
  436TIP3    H122943   6.508   5.932   7.583  0.4969  0.8859  1.4591
  436TIP3    H222944   6.597   5.827   7.645 -0.4258 -0.2038  0.9692
  437TIP3   OH222945   4.177   5.580   0.946  0.9699 -0.1790  0.3439
  437TIP3    H122946   4.248   5.526   0.910 -0.6977 -2.1786 -0.1531
  437TIP3    H222947   4.211   5.609   1.031  1.4949 -3.3285  1.3612
  438TIP3   OH222948   3.196   0.322   7.350 -0.7598 -0.7110  0.6227
  438TIP3    H122949   3.167   0.402   7.305 -0.7541  0.3053  2.3335
  438TIP3    H222950   3.223   0.263   7.279 -0.6825  0.8280 -0.6956
  439TIP3   OH222951   0.474   1.056   0.742 -0.0553  0.4331 -0.4911
  439TIP3    H122952   0.399   1.092   0.694 -0.2125  1.0322  0.1897
  439TIP3    H222953   0.450   0.966   0.760 -0.0572  0.2416 -1.4106
  440TIP3   OH222954   1.973   4.572   7.097 -0.3309  0.5540 -0.0732
  440TIP3    H122955   1.949   4.558   7.188 -0.2597  1.3805  0.0806
  440TIP3    H222956   1.982   4.484   7.060 -2.9009  0.1521  0.0449
  441TIP3   OH222957   6.190   0.843   7.262  0.0054  0.1094  0.1243
  441TIP3    H122958   6.133   0.783   7.310  1.4551 -1.9608 -0.6005
  441TIP3    H222959   6.160   0.839   7.172  1.6079 -1.5410 -0.4014
  442TIP3   OH222960   1.052   1.481   1.918 -0.2374 -0.1834 -0.6306
  442TIP3    H122961   1.147   1.496   1.926  0.1143 -2.2156 -0.2859
  442TIP3    H222962   1.016   1.566   1.895  1.7139  0.5986 -1.0282
  443TIP3   OH222963   6.217   6.218   7.472 -0.5059  0.0109 -0.4753
  443TIP3    H122964   6.201   6.259   7.557  0.0802  5.1863 -2.4876
  443TIP3    H222965   6.139   6.239   7.420  1.1328  1.4883 -2.5371
  444TIP3   OH222966   3.330   2.383   1.583 -0.3711  0.1739 -0.2492
  444TIP3    H122967   3.320   2.346   1.495 -0.5059 -0.2330 -0.0667
  444TIP3    H222968   3.244   2.418   1.605  0.0842  1.8369 -0.9583
  445TIP3   OH222969   0.166   3.370   6.332 -0.2586  0.3079 -0.2523
  445TIP3    H122970   0.212   3.437   6.381  1.3265 -1.1920  0.4111
  445TIP3    H222971   0.081   3.362   6.376  1.2556 -1.3024  2.7186
  446TIP3   OH222972   5.158   1.686   7.989 -0.2178 -0.1000 -0.1149
  446TIP3    H122973   5.181   1.641   7.908  1.3310 -0.2115  0.3633
  446TIP3    H222974   5.200   1.635   8.058 -1.8589 -0.2583  0.8361
  447TIP3   OH222975   5.227   1.931   8.080  0.8820  0.3239  0.3126
  447TIP3    H122976   5.201   1.927   7.988  2.4999 -0.1551 -0.1500
  447TIP3    H222977   5.228   1.839   8.109 -0.8786  0.5460  1.2132
  448TIP3   OH222978   0.827   6.832   1.421 -0.1293  0.1492  0.4200
  448TIP3    H122979   0.860   6.743   1.432 -0.1927  0.1213  0.3782
  448TIP3    H222980   0.766   6.827   1.348  1.6499  0.6831 -1.2056
  449TIP3   OH222981   4.296   1.603   0.770 -0.4383 -0.1025 -0.3676
  449TIP3    H122982   4.270   1.562   0.852 -1.4278 -0.9381 -1.0801
  449TIP3    H222983   4.389   1.625   0.783  0.1179 -2.4687  0.0880
  450TIP3   OH222984   5.390   5.085   7.515  0.0398 -0.1910 -0.5662
  450TIP3    H122985   5.309   5.116   7.556 -0.3834  0.2304 -1.7041
  450TIP3    H222986   5.453   5.081   7.587 -0.8793 -0.1533  0.2596
  451TIP3   OH222987   4.783   5.661   0.799  0.2243 -0.0456 -0.0596
  451TIP3    H122988   4.796   5.663   0.705  0.3528 -0.2099 -0.0443
  451TIP3    H222989   4.870   5.651   0.836  0.0809 -0.9888  0.0416
  452TIP3   OH222990   4.338   0.757   1.127 -0.5916 -0.2881 -0.5262
  452TIP3    H122991   4.395   0.702   1.180  2.6314  2.7587 -0.4126
  452TIP3    H222992   4.395   0.791   1.057 -3.1755  0.4335 -2.4454
  453TIP3   OH222993   1.588   3.768   1.448  0.0589  0.0940 -0.6420
  453TIP3    H122994   1.610   3.830   1.379 -0.7993 -0.1116 -1.1068
  453TIP3    H222995   1.667   3.764   1.502  1.9116 -1.9674 -3.2480
  454TIP3   OH222996   3.450   6.633   7.650  0.1404  0.4087 -0.4993
  454TIP3    H122997   3.399   6.707   7.618  1.7688  1.1597 -1.5059
  454TIP3    H222998   3.403   6.603   7.728 -1.8154  1.0140 -1.3709
  455TIP3   OH222999   5.608   3.941   7.490  0.3017 -0.0082 -0.1867
  455TIP3    H123000   5.527   3.917   7.445  0.1010 -0.1738  0.2654
  455TIP3    H223001   5.652   4.000   7.428  0.9879 -1.8125 -1.5088
  456TIP3   OH223002   1.913   5.453   2.443 -0.2729  0.2297 -0.4510
  456TIP3    H123003   1.820   5.457   2.420 -0.4640 -2.8932 -0.5298
  456TIP3    H223004   1.915   5.414   2.530  0.9823 -0.5682 -0.8091
  457TIP3   OH223005   1.599   0.123   1.264  0.2745 -0.0697  0.1699
  457TIP3    H123006   1.672   0.063   1.281  1.1362  0.5417 -1.1318
  457TIP3    H223007   1.574   0.104   1.174 -0.0433  0.8905  0.0458
  458TIP3   OH223008   4.309   2.253   0.231  0.2278 -0.5292  0.1601
  458TIP3    H123009   4.314   2.336   0.185 -0.5745 -0.7242 -0.3044
  458TIP3    H223010   4.216   2.231   0.230  0.3227 -1.0040  1.0443
  459TIP3   OH223011   0.128   3.904   1.799 -0.7123  1.0883  0.2943
  459TIP3    H123012   0.178   3.970   1.750  1.2476 -0.2484  0.3387
  459TIP3    H223013   0.045   3.898   1.753  0.3246  1.2809 -1.7228
  460TIP3   OH223014   6.050   2.554   7.360  0.3094 -0.0634 -0.3134
  460TIP3    H123015   6.047   2.564   7.455 -0.0190  0.7598 -0.4050
  460TIP3    H223016   5.962   2.525   7.335 -0.0755  1.2357 -0.5219
  461TIP3   OH223017   5.595   1.346   0.630  0.3339  0.2401 -0.7461
  461TIP3    H123018   5.642   1.263   0.621  2.8404  1.3627  0.9105
  461TIP3    H223019   5.560   1.344   0.720 -0.2105  0.7014 -0.9382
  462TIP3   OH223020   1.213   1.875   0.916  0.0857 -0.4126 -0.6480
  462TIP3    H123021   1.197   1.954   0.968  0.5993 -1.4003  1.0863
  462TIP3    H223022   1.141   1.873   0.853 -1.4771  0.0219  1.0407
  463TIP3   OH223023   0.056   4.160   1.467  0.6138  0.0061  0.4668
  463TIP3    H123024   0.139   4.170   1.515  2.1306  0.0141 -2.0000
  463TIP3    H223025   0.047   4.241   1.417 -0.4159 -0.4061 -0.0354
  464TIP3   OH223026   5.821   3.072   6.395  0.0664 -0.3904  0.1600
  464TIP3    H123027   5.912   3.087   6.423  0.8465 -0.1030 -2.2274
  464TIP3    H223028   5.797   2.989   6.435  0.8981  0.1495  1.8966
  465TIP3   OH223029   6.646   6.427   0.894 -0.1413 -0.5651  0.2780
  465TIP3    H123030   6.739   6.432   0.870  0.1642 -1.9085  1.0735
  465TIP3    H223031   6.615   6.345   0.855 -0.6335 -0.8073  1.1442
  466TIP3   OH223032   1.719   4.939   8.543 -0.3057  0.8586 -0.0692
  466TIP3    H123033   1.667   4.995   8.486  1.6678 -0.7507 -3.8372
  466TIP3    H223034   1.809   4.971   8.533  0.5855 -1.5875 -0.7054
  467TIP3   OH223035   5.756   4.589   1.836  0.0053  0.1591 -0.4062
  467TIP3    H123036   5.675   4.638   1.849 -1.2928 -2.2511  1.6428
  467TIP3    H223037   5.822   4.640   1.882 -0.4488  1.8324 -1.5394
  468TIP3   OH223038   5.079   2.051   8.330  0.5163 -0.0874  0.0180
  468TIP3    H123039   5.114   2.139   8.339  0.3113 -0.0892  0.9505
  468TIP3    H223040   5.145   2.004   8.279  2.4658 -0.3709  2.5681
  469TIP3   OH223041   1.697   5.792   8.553 -0.2881 -0.3602  0.1442
  469TIP3    H123042   1.663   5.809   8.465 -0.1916 -1.4676 -0.1234
  469TIP3    H223043   1.653   5.711   8.581 -0.1381 -0.1508  1.0198
  470TIP3   OH223044   1.945   0.718   2.173 -0.0198  0.4596 -0.2000
  470TIP3    H123045   1.861   0.746   2.139 -0.5122 -0.7398 -0.0393
  470TIP3    H223046   2.006   0.786   2.147 -1.0207  1.2970 -0.4010
  471TIP3   OH223047   4.138   1.971   6.975  0.4872  0.0007  0.0240
  471TIP3    H123048   4.161   1.986   7.066 -0.0776 -0.0265  0.1767
  471TIP3    H223049   4.075   1.899   6.977  0.2064  0.2280 -0.3505
  472TIP3   OH223050   4.743   6.762   2.844  0.1488 -0.1500  0.1106
  472TIP3    H123051   4.838   6.771   2.844  0.0786  0.6996  0.5226
  472TIP3    H223052   4.725   6.680   2.891  0.7055 -0.8243 -0.8186
  473TIP3   OH223053   1.728   6.513   1.299 -0.5004 -0.2223  0.3946
  473TIP3    H123054   1.812   6.471   1.284  0.1096  1.2248 -0.5449
  473TIP3    H223055   1.718   6.515   1.394  0.2946 -0.8398  0.5010
  474TIP3   OH223056   6.441   4.877   8.402 -0.1351 -0.0835  0.2772
  474TIP3    H123057   6.499   4.952   8.389  1.2688 -0.6303  2.7098
  474TIP3    H223058   6.495   4.801   8.379 -0.4079 -0.5167  1.0257
  475TIP3   OH223059   0.667   3.084   6.553 -0.2102  0.3120 -0.0908
  475TIP3    H123060   0.694   3.017   6.617 -3.7557 -1.1640  0.0921
  475TIP3    H223061   0.623   3.034   6.484 -1.8405  2.3376 -0.6133
  476TIP3   OH223062   5.770   1.998   2.150 -0.5188  0.0712  0.3214
  476TIP3    H123063   5.780   1.903   2.153  0.7302  0.1775  0.0401
  476TIP3    H223064   5.731   2.021   2.234 -0.5212 -0.6517  0.5258
  477TIP3   OH223065   5.001   4.390   8.021  0.2995  0.3824 -0.2601
  477TIP3    H123066   5.015   4.465   7.962 -0.8485  0.9074  0.1023
  477TIP3    H223067   5.000   4.314   7.963 -0.2201  0.8321 -0.8540
  478TIP3   OH223068   6.593   4.467   8.229  0.0329 -0.3483  0.4616
  478TIP3    H123069   6.517   4.491   8.281  2.3874 -0.1457  4.2096
  478TIP3    H223070   6.643   4.548   8.220  0.9797 -0.9378  0.2538
  479TIP3   OH223071   2.478   6.831   1.242 -0.0232  0.0947 -0.3998
  479TIP3    H123072   2.443   6.834   1.152  0.4309  0.8985 -0.5635
  479TIP3    H223073   2.456   6.917   1.278 -3.0146 -1.2525  1.3937
  480TIP3   OH223074   1.250   0.387   1.415 -0.1837 -0.5531 -0.0307
  480TIP3    H123075   1.334   0.424   1.441 -0.6366 -1.1518  2.5544
  480TIP3    H223076   1.244   0.304   1.461 -2.1685 -0.5445 -0.1598
  481TIP3   OH223077   2.840   1.196   8.014 -0.2122 -0.2811  0.2203
  481TIP3    H123078   2.883   1.128   7.963  0.0809 -0.8921  1.2557
  481TIP3    H223079   2.761   1.154   8.049 -0.8926  0.4017 -0.4765
  482TIP3   OH223080   2.736   3.330   2.263 -0.3407 -0.2358  0.2830
  482TIP3    H123081   2.690   3.387   2.324 -0.5824  0.9077 -0.9365
  482TIP3    H223082   2.788   3.272   2.320 -1.2006  0.2145  1.5841
  483TIP3   OH223083   3.173   4.734   8.085 -0.7881 -0.3906  0.1176
  483TIP3    H123084   3.119   4.813   8.086  1.0798  0.9460  0.5750
  483TIP3    H223085   3.257   4.762   8.048 -0.1572 -2.2405  0.0055
  484TIP3   OH223086   5.172   5.438   0.583 -0.1939 -0.4120  0.2835
  484TIP3    H123087   5.242   5.380   0.613  0.7611  1.0681  1.0432
  484TIP3    H223088   5.175   5.513   0.643 -1.5570  0.3100 -0.4957
  485TIP3   OH223089   3.941   3.476   0.767  0.2303 -0.5092  0.1389
  485TIP3    H123090   3.906   3.535   0.834  1.3306 -0.9713  1.1586
  485TIP3    H223091   4.005   3.529   0.720  0.9530 -0.7565  0.8172
  486TIP3   OH223092   4.256   3.114   2.123 -0.1033 -0.3835 -0.5044
  486TIP3    H123093   4.228   3.165   2.200  0.5535  1.3351 -1.3388
  486TIP3    H223094   4.186   3.127   2.060  0.8585  0.9901 -1.3412
  487TIP3   OH223095   0.876   4.197   8.497 -0.3597 -0.4212 -0.2408
  487TIP3    H123096   0.970   4.213   8.507 -0.8216  2.0636  1.0420
  487TIP3    H223097   0.852   4.145   8.573 -0.3354  0.8281  0.6666
  488TIP3   OH223098   4.450   4.113   0.366 -0.3631 -0.2702 -0.2664
  488TIP3    H123099   4.424   4.054   0.437 -0.3080  0.0194 -0.0028
  488TIP3    H223100   4.525   4.070   0.325  0.7632  0.4073  1.0024
  489TIP3   OH223101   4.793   3.511   0.619 -0.1219 -0.8231 -0.0701
  489TIP3    H123102   4.770   3.568   0.546  1.7103 -0.8510 -0.7172
  489TIP3    H223103   4.711   3.498   0.666 -1.1590 -0.0544 -1.5865
  490TIP3   OH223104   2.854   4.216   7.941 -0.2180  0.1593  0.0507
  490TIP3    H123105   2.932   4.173   7.977  0.7321  0.7968 -1.1594
  490TIP3    H223106   2.889   4.284   7.883 -1.6885  1.0499  0.1665
  491TIP3   OH223107   4.051   5.126   0.247  0.0130 -0.0020 -0.3570
  491TIP3    H123108   3.965   5.120   0.206 -1.1874  1.9279  1.6617
  491TIP3    H223109   4.097   5.193   0.196 -0.5490  0.5812 -0.1219
  492TIP3   OH223110   1.237   5.455   0.741  0.1063  0.1805 -0.7157
  492TIP3    H123111   1.315   5.451   0.797 -0.5789  0.7842  0.3144
  492TIP3    H223112   1.180   5.386   0.774  0.2055 -0.2928 -1.5036
  493TIP3   OH223113   2.652   2.642   7.924  0.0566 -0.6080  0.3480
  493TIP3    H123114   2.603   2.598   7.855 -1.3767  0.8801  0.3520
  493TIP3    H223115   2.610   2.727   7.933  0.4792 -0.5636  2.7325
  494TIP3   OH223116   1.770   6.509   2.414 -0.7588 -0.1230 -0.1072
  494TIP3    H123117   1.683   6.533   2.444 -1.0978 -1.7647  0.2818
  494TIP3    H223118   1.777   6.415   2.431  0.9625 -0.0871 -0.4345
  495TIP3   OH223119   6.818   3.362   6.466 -0.0287 -0.2014  0.9463
  495TIP3    H123120   6.743   3.332   6.416  0.4512 -0.2962  0.2704
  495TIP3    H223121   6.823   3.456   6.449 -0.4647 -0.0500  1.6303
  496TIP3   OH223122   4.563   6.308   7.740 -0.2741 -0.5292 -0.7722
  496TIP3    H123123   4.609   6.236   7.698  1.1448  1.6615 -3.2774
  496TIP3    H223124   4.472   6.299   7.712  0.2746 -0.2844 -2.7714
  497TIP3   OH223125   1.101   2.084   7.384 -0.5572 -0.1197 -0.6773
  497TIP3    H123126   1.158   2.025   7.335 -1.9547 -0.8880 -1.4423
  497TIP3    H223127   1.047   2.027   7.438 -0.7180  0.5800 -0.0738
  498TIP3   OH223128   6.006   1.148   1.506 -0.0283  0.2905 -0.0908
  498TIP3    H123129   5.940   1.216   1.492  0.2849  0.3919 -1.1345
  498TIP3    H223130   6.050   1.138   1.421  2.0205  0.9918  0.8117
  499TIP3   OH223131   0.090   5.268   8.536  0.1589  0.0113  0.0510
  499TIP3    H123132   0.067   5.189   8.584  1.1727  0.1218  0.7468
  499TIP3    H223133   0.116   5.236   8.449 -0.8409 -0.2671 -0.1589
  500TIP3   OH223134   3.730   4.264   7.642  0.3921 -0.2551  0.4377
  500TIP3    H123135   3.747   4.353   7.611 -0.6144 -0.2203 -0.0865
  500TIP3    H223136   3.638   4.265   7.669  0.0721 -1.3596 -0.4688
  501TIP3   OH223137   0.744   5.722   8.447  0.1289 -0.1880 -0.1137
  501TIP3    H123138   0.833   5.755   8.455  0.3781 -0.4761 -1.4234
  501TIP3    H223139   0.697   5.792   8.400  0.3554 -1.1050 -1.7990
  502TIP3   OH223140   3.137   1.995   8.506 -0.0992 -0.7147 -0.5345
  502TIP3    H123141   3.136   1.915   8.558 -0.8826 -0.3410  0.0443
  502TIP3    H223142   3.197   2.053   8.553 -0.8186 -0.3717 -0.0324
  503TIP3   OH223143   0.460   4.260   1.452 -0.4015  0.0172  0.1377
  503TIP3    H123144   0.411   4.234   1.530 -0.6137  1.2655  0.4364
  503TIP3    H223145   0.543   4.293   1.485 -0.7558  1.1970 -0.0837
  504TIP3   OH223146   2.448   4.472   7.050 -0.1183  0.4973  0.2442
  504TIP3    H123147   2.514   4.502   6.987  0.6119  0.3112  0.9040
  504TIP3    H223148   2.388   4.420   6.998  2.1152 -2.2084  0.1303
  505TIP3   OH223149   2.966   6.496   1.744  0.5170 -0.0531  0.1876
  505TIP3    H123150   2.962   6.592   1.749  0.4592 -0.1012  1.6376
  505TIP3    H223151   3.053   6.477   1.710  0.4784  0.5094 -0.2414
  506TIP3   OH223152   6.879   3.405   7.023 -0.0423 -0.0740 -0.0647
  506TIP3    H123153   6.791   3.442   7.023  0.1627  0.4459 -0.9566
  506TIP3    H223154   6.896   3.384   7.115 -0.7503  0.6550  0.2471
  507TIP3   OH223155   5.714   5.549   0.962 -0.3502  0.1417 -0.5515
  507TIP3    H123156   5.743   5.621   1.018 -0.9334 -0.0116 -0.0514
  507TIP3    H223157   5.624   5.572   0.939 -0.9021 -0.9368  0.4614
  508TIP3   OH223158   3.296   2.664   1.952  0.3658  0.0293  0.3831
  508TIP3    H123159   3.244   2.607   2.008  0.0512  0.0249  0.0866
  508TIP3    H223160   3.235   2.732   1.923  0.9821  1.1690  1.6274
  509TIP3   OH223161   4.681   6.089   7.676  0.3307 -0.2168 -0.6265
  509TIP3    H123162   4.709   6.031   7.605 -1.8799 -0.5864 -1.2896
  509TIP3    H223163   4.635   6.032   7.737 -1.8529  0.7272 -1.2708
  510TIP3   OH223164   0.565   5.786   8.253 -0.2521  0.4312  0.4368
  510TIP3    H123165   0.604   5.853   8.197  0.9092 -1.2054 -0.8185
  510TIP3    H223166   0.484   5.762   8.209  0.9944 -1.3550 -1.0817
  511TIP3   OH223167   6.743   6.883   7.316 -0.2669  0.4476  0.2049
  511TIP3    H123168   6.733   6.971   7.279  0.1980 -0.1929 -1.5740
  511TIP3    H223169   6.837   6.874   7.329 -0.4576  0.7980  1.9874
  512TIP3   OH223170   6.859   6.826   1.907 -0.4733  0.0119  0.5144
  512TIP3    H123171   6.776   6.863   1.939 -0.2319 -0.0551  1.2386
  512TIP3    H223172   6.926   6.886   1.940 -0.2403  0.1780 -0.2407
  513TIP3   OH223173   3.706   3.872   1.340  0.1314 -0.6662 -0.1448
  513TIP3    H123174   3.762   3.898   1.268 -1.2220 -1.3407 -1.5025
  513TIP3    H223175   3.641   3.942   1.347 -0.6989 -1.3683 -0.6707
  514TIP3   OH223176   1.898   5.378   7.838 -0.2247  0.0126 -0.3533
  514TIP3    H123177   1.821   5.410   7.791  0.7511  1.0979 -1.3157
  514TIP3    H223178   1.964   5.368   7.769  1.0600  1.0103  0.6795
  515TIP3   OH223179   3.965   3.173   2.003  0.0272 -0.3999  0.1958
  515TIP3    H123180   3.933   3.262   2.016 -0.6336 -0.7577  1.1089
  515TIP3    H223181   3.944   3.153   1.912 -2.6875 -0.7294  0.8297
  516TIP3   OH223182   0.153   6.120   6.765 -0.1516 -0.2100 -0.3643
  516TIP3    H123183   0.131   6.125   6.672  1.1453 -1.8422 -0.8048
  516TIP3    H223184   0.247   6.105   6.767 -0.0501  0.4305  1.2506
  517TIP3   OH223185   4.685   3.569   1.401 -0.6888  0.1745 -0.0491
  517TIP3    H123186   4.767   3.519   1.397 -1.1380 -0.5940  0.1297
  517TIP3    H223187   4.711   3.659   1.385 -0.0202 -0.2668 -1.6952
  518TIP3   OH223188   4.732   6.487   7.621 -0.0346  0.4442  0.3314
  518TIP3    H123189   4.769   6.413   7.573  1.7657 -0.3850  2.8348
  518TIP3    H223190   4.656   6.451   7.667  0.3182  0.3466  0.8480
  519TIP3   OH223191   6.778   2.606   0.325  0.4005 -0.0554 -0.2802
  519TIP3    H123192   6.685   2.596   0.342  0.4935 -2.0281 -0.7162
  519TIP3    H223193   6.813   2.517   0.325  2.0543  0.5305 -1.3613
  520TIP3   OH223194   1.674   1.461   1.627 -0.2254  0.7985  0.0979
  520TIP3    H123195   1.674   1.536   1.686  1.8118 -0.2989  1.6351
  520TIP3    H223196   1.640   1.389   1.679 -2.6179  0.6499 -1.5054
  521TIP3   OH223197   2.558   3.660   0.263  0.1421 -0.0873  0.0137
  521TIP3    H123198   2.538   3.588   0.323 -0.5184 -0.6029 -0.7877
  521TIP3    H223199   2.600   3.726   0.317 -2.1459  0.2850  1.4479
  522TIP3   OH223200   3.966   1.847   1.575 -0.5776 -0.4949  0.0425
  522TIP3    H123201   4.059   1.842   1.555 -0.2601  1.0670  0.9456
  522TIP3    H223202   3.926   1.882   1.495 -0.2628 -0.3544 -0.0534
  523TIP3   OH223203   0.347   6.708   7.523 -0.0603  0.3061  0.0396
  523TIP3    H123204   0.355   6.614   7.543 -1.1494  0.3838  0.9155
  523TIP3    H223205   0.344   6.712   7.428  2.0097 -0.3578 -0.1161
  524TIP3   OH223206   4.234   3.556   7.912  0.2900  0.0922  0.4855
  524TIP3    H123207   4.180   3.525   7.984  1.1485  2.3606  2.2118
  524TIP3    H223208   4.235   3.651   7.921  0.8846  0.4473 -2.2344
  525TIP3   OH223209   2.422   3.786   0.039 -0.0070 -0.1280  0.1084
  525TIP3    H123210   2.388   3.866   0.077 -1.9193 -0.0607 -1.5501
  525TIP3    H223211   2.450   3.733   0.113 -0.5946  1.2595  1.3538
  526TIP3   OH223212   1.453   3.929   1.100 -0.1007 -0.0786 -0.1669
  526TIP3    H123213   1.404   3.958   1.177  0.1494  1.4274 -0.5432
  526TIP3    H223214   1.523   3.874   1.135 -0.4470 -0.0310  0.6122
  527TIP3   OH223215   0.374   2.233   8.224  0.4708  0.0162  0.1734
  527TIP3    H123216   0.382   2.156   8.168 -0.5893 -0.3021  0.4308
  527TIP3    H223217   0.438   2.295   8.188 -0.4011 -0.0419 -1.6346
  528TIP3   OH223218   0.347   2.752   1.317  0.1896 -0.2800 -0.2819
  528TIP3    H123219   0.355   2.781   1.408  1.8500 -1.0589 -0.1394
  528TIP3    H223220   0.315   2.662   1.324  2.0209 -0.9650 -0.3539
  529TIP3   OH223221   1.463   3.244   6.813 -0.0528 -0.0340  0.5339
  529TIP3    H123222   1.533   3.179   6.816 -0.1164 -0.2416 -1.3324
  529TIP3    H223223   1.495   3.317   6.866  1.6867 -0.0261 -0.4720
  530TIP3   OH223224   5.361   3.201   1.568 -0.4206 -0.4578 -0.2385
  530TIP3    H123225   5.307   3.207   1.489 -2.0013 -0.3834  0.8034
  530TIP3    H223226   5.344   3.113   1.602  0.9515 -0.8291 -0.4217
  531TIP3   OH223227   5.939   5.318   0.054 -0.2598 -0.9746 -0.1252
  531TIP3    H123228   5.906   5.365   0.131  1.3960  1.3523 -0.7140
  531TIP3    H223229   6.031   5.300   0.076 -0.5588 -3.0634 -0.3873
  532TIP3   OH223230   3.775   1.020   0.768 -0.0422 -0.0092 -0.1351
  532TIP3    H123231   3.747   0.930   0.754 -2.7202  0.6754  0.2792
  532TIP3    H223232   3.712   1.056   0.830  1.0004  2.1280 -0.2147
  533TIP3   OH223233   4.860   2.270   7.769 -0.0387 -0.0235 -0.7597
  533TIP3    H123234   4.937   2.288   7.714 -0.7519 -0.8067 -2.0695
  533TIP3    H223235   4.875   2.181   7.802 -0.0377  0.1057 -0.4103
  534TIP3   OH223236   2.293   0.726   2.733 -0.2734 -0.1037  0.1301
  534TIP3    H123237   2.292   0.702   2.826 -2.0344 -1.1212 -0.1022
  534TIP3    H223238   2.255   0.650   2.689 -0.4795  0.8117 -1.3138
  535TIP3   OH223239   5.448   3.765   2.332 -0.6848 -0.0617  0.0946
  535TIP3    H123240   5.380   3.806   2.278 -0.2904 -0.6471 -0.8767
  535TIP3    H223241   5.400   3.710   2.393 -1.2181  1.7370  1.3746
  536TIP3   OH223242   3.452   1.142   8.055  0.7202  0.3521  0.5998
  536TIP3    H123243   3.430   1.051   8.036 -0.2247  0.1985  2.2237
  536TIP3    H223244   3.444   1.187   7.971  0.1359 -0.8621 -0.0125
  537TIP3   OH223245   0.711   4.505   8.433  0.5182 -0.2612  0.2266
  537TIP3    H123246   0.786   4.562   8.419  1.1782 -1.7585 -3.4154
  537TIP3    H223247   0.750   4.419   8.453 -0.3735 -0.3015  1.9795
  538TIP3   OH223248   5.499   4.585   6.938  0.5656 -0.2633 -0.1271
  538TIP3    H123249   5.520   4.678   6.927  0.0209 -0.0538  0.5252
  538TIP3    H223250   5.410   4.577   6.902  0.1233 -0.2670  0.9321
  539TIP3   OH223251   1.628   4.365   1.165  0.2993  0.1239  0.0688
  539TIP3    H123252   1.601   4.457   1.168 -1.7850 -0.3878 -0.8007
  539TIP3    H223253   1.595   4.328   1.247  1.1208  0.1296  0.4107
  540TIP3   OH223254   2.560   3.231   2.530  0.0623 -0.4733 -0.9079
  540TIP3    H123255   2.490   3.214   2.468 -2.8287 -0.0802  1.9508
  540TIP3    H223256   2.588   3.321   2.511 -1.0850 -0.2037 -1.3959
  541TIP3   OH223257   4.437   2.269   0.993 -0.0102 -0.1243 -0.1781
  541TIP3    H123258   4.446   2.292   1.085 -0.7074  2.2913 -0.6631
  541TIP3    H223259   4.343   2.256   0.980 -0.1430  1.4007 -0.9222
  542TIP3   OH223260   6.073   0.021   0.032  0.0373 -0.4213  0.1642
  542TIP3    H123261   5.987   0.035  -0.009 -1.0218  0.1696  2.4313
  542TIP3    H223262   6.134   0.069  -0.024 -1.5159  1.4541 -0.0422
  543TIP3   OH223263   0.770   2.983   7.760 -0.5187 -0.0345  0.4015
  543TIP3    H123264   0.858   2.947   7.774 -0.7428 -0.3833  0.9487
  543TIP3    H223265   0.769   3.010   7.668  0.2367  0.1872  0.4551
  544TIP3   OH223266   0.486   1.613   2.852  0.2307  0.2595  0.2770
  544TIP3    H123267   0.567   1.566   2.831  0.2595  0.2172  0.4861
  544TIP3    H223268   0.425   1.587   2.782  0.3491  0.1716  0.2058
  545TIP3   OH223269   4.435   6.790   1.666  0.0476  0.3636 -0.2837
  545TIP3    H123270   4.525   6.772   1.693  0.3258 -1.7017 -2.3087
  545TIP3    H223271   4.386   6.713   1.694 -0.9761  1.1345  0.1208
  546TIP3   OH223272   0.102   4.052   1.110 -0.0166  0.2250  0.2889
  546TIP3    H123273   0.129   3.995   1.038  1.3525 -0.0013  0.9544
  546TIP3    H223274   0.183   4.070   1.158 -1.0458 -0.6100  2.4767
  547TIP3   OH223275   0.324   5.160   0.704 -0.0455 -0.0978 -0.5620
  547TIP3    H123276   0.323   5.064   0.714  2.1213 -0.2773 -1.4496
  547TIP3    H223277   0.259   5.177   0.636 -1.6613 -0.7332  0.7715
  548TIP3   OH223278   1.090   0.640   0.746  0.5088 -0.0969 -0.3218
  548TIP3    H123279   1.154   0.578   0.780  0.8588  0.1963 -0.4384
  548TIP3    H223280   1.092   0.713   0.808  0.0049 -0.2566 -0.1146
  549TIP3   OH223281   0.404   6.202   0.338 -0.1082  0.0731  0.8193
  549TIP3    H123282   0.420   6.191   0.245 -1.5044  0.2227  0.5398
  549TIP3    H223283   0.485   6.239   0.373 -0.1654  1.6757 -0.6449
  550TIP3   OH223284   0.134   3.486   2.249 -0.2813  0.4155 -0.3099
  550TIP3    H123285   0.109   3.402   2.210  0.3131  0.8942 -1.7819
  550TIP3    H223286   0.067   3.502   2.317 -1.2550 -0.5279 -1.0218
  551TIP3   OH223287   3.798   2.757   1.836  0.3791 -0.3773  0.2530
  551TIP3    H123288   3.754   2.737   1.753  1.9422 -0.5272 -0.5661
  551TIP3    H223289   3.887   2.779   1.811  0.9359 -0.6177  1.9372
  552TIP3   OH223290   4.498   0.721   0.108 -0.6854  0.0819  0.2304
  552TIP3    H123291   4.420   0.731   0.052  0.1764  0.1422 -1.0119
  552TIP3    H223292   4.465   0.731   0.197 -2.5894 -2.7222 -0.0242
  553TIP3   OH223293   2.128   4.871   1.596  0.3838 -0.0147 -0.1396
  553TIP3    H123294   2.093   4.821   1.670  2.4994  0.7648  1.4940
  553TIP3    H223295   2.081   4.955   1.600  0.4341 -0.0020  0.3001
  554TIP3   OH223296   0.311   5.245   6.597  0.3204 -0.1116 -0.0328
  554TIP3    H123297   0.386   5.211   6.549  1.8698  1.7202  0.9435
  554TIP3    H223298   0.305   5.337   6.570 -2.1843 -0.4268 -0.7879
  555TIP3   OH223299   1.494   3.299   8.236  0.2144 -0.6246  0.0979
  555TIP3    H123300   1.500   3.207   8.260 -2.0207 -1.7455 -2.9688
  555TIP3    H223301   1.439   3.339   8.303 -1.0181 -2.1822  0.0517
  556TIP3   OH223302   3.463   1.759   0.647 -0.5069 -0.4600  0.4312
  556TIP3    H123303   3.382   1.725   0.609  0.3906 -1.6837 -0.4603
  556TIP3    H223304   3.529   1.746   0.579  0.3826  0.8745  0.9901
  557TIP3   OH223305   1.352   1.413   8.044  0.1460 -0.4838  0.5706
  557TIP3    H123306   1.276   1.362   8.016  0.1397 -1.7624  2.7283
  557TIP3    H223307   1.348   1.411   8.139  0.4908  3.1160  0.7831
  558TIP3   OH223308   2.564   4.463   1.661 -0.4366 -0.1878  0.3542
  558TIP3    H123309   2.608   4.538   1.701 -0.2376  0.2841 -0.7015
  558TIP3    H223310   2.486   4.450   1.714 -1.2476  1.7066 -0.2584
  559TIP3   OH223311   0.965   6.281   8.007 -0.4394  0.0488  0.0502
  559TIP3    H123312   0.971   6.374   7.988  0.4304 -0.2890 -1.6129
  559TIP3    H223313   1.046   6.244   7.970  1.0247 -0.9476  3.7544
  560TIP3   OH223314   3.965   4.594   8.449  0.3678  0.0510  0.1112
  560TIP3    H123315   3.877   4.612   8.484  0.9283  1.4598  0.8598
  560TIP3    H223316   4.008   4.544   8.518  0.0745 -0.9577 -0.4032
  561TIP3   OH223317   4.660   1.160   7.922  0.3587  0.1870  0.0618
  561TIP3    H123318   4.586   1.100   7.915 -1.7688  2.7099 -0.6326
  561TIP3    H223319   4.712   1.143   7.843 -0.9894  0.1976 -0.8653
  562TIP3   OH223320   6.226   3.891   7.470 -0.6102  0.5596  0.4137
  562TIP3    H123321   6.171   3.962   7.436 -0.8670 -0.4914 -1.4850
  562TIP3    H223322   6.259   3.847   7.392  2.5208  0.7765  1.4542
  563TIP3   OH223323   0.912   4.709   7.684 -0.0073  0.4170 -0.0127
  563TIP3    H123324   0.898   4.724   7.777 -2.2903  0.5992 -0.3312
  563TIP3    H223325   0.946   4.792   7.650 -2.3196  1.4827  0.1250
  564TIP3   OH223326   1.806   5.356   0.898  0.1393  0.3187  0.2751
  564TIP3    H123327   1.886   5.406   0.913 -0.7169  2.0830 -0.7249
  564TIP3    H223328   1.825   5.301   0.823  0.7380 -0.0476  0.6886
  565TIP3   OH223329   0.798   2.091   7.606  0.8716 -0.0683  0.6648
  565TIP3    H123330   0.890   2.104   7.627  0.4282  2.5119  1.3047
  565TIP3    H223331   0.758   2.062   7.689  0.8519  0.2840  0.7789
  566TIP3   OH223332   1.417   6.625   7.235 -0.0192 -0.1356 -0.1471
  566TIP3    H123333   1.498   6.644   7.187  0.4972  0.1746  0.8078
  566TIP3    H223334   1.419   6.685   7.310 -1.0973 -0.1877 -0.0634
  567TIP3   OH223335   1.185   3.436   6.946 -0.3841  0.2327 -0.4358
  567TIP3    H123336   1.125   3.491   6.996 -0.2034 -0.4854  0.6103
  567TIP3    H223337   1.137   3.354   6.932  0.6631 -0.7614  1.3358
  568TIP3   OH223338   3.128   0.297   1.002 -0.3169 -0.2761  0.2469
  568TIP3    H123339   3.147   0.205   0.982 -0.3532 -0.6312  1.7134
  568TIP3    H223340   3.106   0.297   1.095  0.3989  1.3365  0.4508
  569TIP3   OH223341   3.189   6.929   1.609 -0.4590  0.1597  0.1589
  569TIP3    H123342   3.171   7.019   1.582 -0.6821  0.1032  0.1151
  569TIP3    H223343   3.284   6.920   1.603 -0.2878  0.8213  1.5095
  570TIP3   OH223344   5.768   0.982   8.040 -0.2552  0.2506 -0.7541
  570TIP3    H123345   5.675   0.959   8.033 -0.2459  0.0035 -0.1423
  570TIP3    H223346   5.769   1.077   8.046 -0.4322  0.2886 -1.2558
  571TIP3   OH223347   6.018   0.647   7.337  0.2327 -0.1308 -0.2943
  571TIP3    H123348   5.949   0.679   7.279 -1.8810 -1.2138  1.5276
  571TIP3    H223349   6.044   0.563   7.299  1.2247  0.6410 -1.4373
  572TIP3   OH223350   5.398   1.122   7.865  0.0019 -0.2480  0.3331
  572TIP3    H123351   5.398   1.052   7.930 -0.1454  0.3249  0.9606
  572TIP3    H223352   5.313   1.113   7.821  1.1801 -2.3915 -1.7581
  573TIP3   OH223353   1.831   0.515   1.963 -0.3079 -0.1932 -0.4343
  573TIP3    H123354   1.857   0.444   1.905  1.6277  0.1057  0.0124
  573TIP3    H223355   1.912   0.542   2.006 -1.0900  1.8870 -0.1532
  574TIP3   OH223356   4.593   3.446   0.783 -0.5522  0.1605  0.3403
  574TIP3    H123357   4.579   3.416   0.873  0.3521  0.1062  0.4743
  574TIP3    H223358   4.528   3.398   0.731  0.3288 -1.4503  0.6587
  575TIP3   OH223359   5.803   0.766   7.206 -0.4434  0.5150 -0.4960
  575TIP3    H123360   5.752   0.815   7.271  1.7864 -1.4921  3.1360
  575TIP3    H223361   5.748   0.690   7.186 -1.1905  1.1915 -1.0836
  576TIP3   OH223362   3.752   2.402   1.789  0.2687 -0.0923 -0.0994
  576TIP3    H123363   3.672   2.453   1.775  0.2776  0.2705  1.0425
  576TIP3    H223364   3.823   2.462   1.766  0.2368 -0.0962 -0.2075
  577TIP3   OH223365   2.001   4.375   1.076  0.3617  0.0382 -0.6767
  577TIP3    H123366   2.089   4.400   1.047  0.3614  0.0040 -0.7075
  577TIP3    H223367   1.995   4.406   1.166  0.1617  0.6498 -0.8948
  578TIP3   OH223368   2.941   5.565   8.306 -0.5265 -0.2295  0.9534
  578TIP3    H123369   3.036   5.568   8.294 -0.5955  2.2938  0.5264
  578TIP3    H223370   2.910   5.508   8.235  0.5133  0.4292 -0.0646
  579TIP3   OH223371   0.224   1.912   6.716  0.1517  0.0124 -0.3913
  579TIP3    H123372   0.230   2.007   6.722 -0.1914 -0.0202  0.6974
  579TIP3    H223373   0.138   1.895   6.677  0.1790  0.1483 -0.5095
  580TIP3   OH223374   6.706   2.407   7.888 -0.4303 -0.2164 -0.0041
  580TIP3    H123375   6.783   2.452   7.854 -1.2934  0.8823 -0.5809
  580TIP3    H223376   6.739   2.356   7.962  0.7786  0.5352  0.0039
  581TIP3   OH223377   6.196   1.210   0.733  0.6108 -0.0219  0.1434
  581TIP3    H123378   6.222   1.225   0.642 -0.7960  1.8093 -0.0202
  581TIP3    H223379   6.120   1.152   0.726  0.3561  0.3149  0.1432
  582TIP3   OH223380   5.102   3.893   1.297 -0.6047  0.5061  0.7573
  582TIP3    H123381   5.099   3.889   1.202  0.1743 -0.3209  0.7555
  582TIP3    H223382   5.120   3.803   1.325  1.5224  1.1359  1.5650
  583TIP3   OH223383   2.356   2.508   1.278  0.2844  0.4701 -0.0537
  583TIP3    H123384   2.326   2.486   1.366 -0.2191 -1.0369 -0.5741
  583TIP3    H223385   2.318   2.595   1.261 -1.6476 -0.2600  0.2982
  584TIP3   OH223386   5.382   3.381   0.658  0.5466 -0.2089 -0.0142
  584TIP3    H123387   5.435   3.353   0.583 -1.0989 -0.1356 -1.2412
  584TIP3    H223388   5.334   3.302   0.685 -1.1679  0.4613 -1.0082
  585TIP3   OH223389   3.789   6.651   2.273  0.5764  0.2800 -0.1352
  585TIP3    H123390   3.826   6.588   2.212  1.4822 -1.4938  2.1039
  585TIP3    H223391   3.862   6.674   2.331 -0.1655  2.1123  0.1466
  586TIP3   OH223392   4.930   2.754   1.664 -0.0441 -0.1000  0.0869
  586TIP3    H123393   4.902   2.669   1.631 -1.3135  0.3442 -0.0220
  586TIP3    H223394   4.861   2.780   1.726  1.5502 -0.2673  2.0560
  587TIP3   OH223395   1.754   0.652   8.506  0.0349 -0.0940  0.0050
  587TIP3    H123396   1.745   0.563   8.540  0.1061  0.1957  0.8038
  587TIP3    H223397   1.845   0.658   8.477  0.3204  0.0288  0.8933
  588TIP3   OH223398   6.466   5.265   1.079  0.1677  0.1910 -0.4480
  588TIP3    H123399   6.442   5.348   1.120  0.4007 -0.3525  0.8715
  588TIP3    H223400   6.405   5.255   1.006  0.8976  2.0479 -1.3554
  589TIP3   OH223401   6.495   5.030   1.245  0.6683  0.1274 -0.2083
  589TIP3    H123402   6.490   5.110   1.192  0.6934 -0.9321 -1.8906
  589TIP3    H223403   6.587   5.021   1.267  0.6284  0.6820  0.2244
  590TIP3   OH223404   6.553   0.373   1.567 -0.2705  0.2898  0.3173
  590TIP3    H123405   6.616   0.328   1.624  0.2991 -0.2307 -0.6841
  590TIP3    H223406   6.468   0.337   1.592  0.1101 -0.9265 -0.0575
  591TIP3   OH223407   2.216   5.942   6.888  0.9585 -0.5298 -0.3663
  591TIP3    H123408   2.155   5.928   6.816  1.4028 -1.9035 -0.5080
  591TIP3    H223409   2.285   5.998   6.851  1.2137 -1.2710 -1.0335
  592TIP3   OH223410   4.049   3.031   7.827 -0.3229 -0.1257  0.3216
  592TIP3    H123411   4.133   3.001   7.790  0.5940  0.8873  1.5023
  592TIP3    H223412   4.002   2.950   7.848 -0.3341 -0.7276 -1.7788
  593TIP3   OH223413   0.028   6.615   1.127 -0.2025 -0.1102  0.2244
  593TIP3    H123414   0.105   6.573   1.088 -1.2748  0.0006 -2.2352
  593TIP3    H223415   0.049   6.622   1.220  1.4411 -2.9135  0.1888
  594TIP3   OH223416   5.336   5.856   7.973  0.6844 -0.9559 -0.1384
  594TIP3    H123417   5.320   5.846   7.879 -1.1563  1.5214 -0.1924
  594TIP3    H223418   5.285   5.786   8.013 -0.8566 -0.3043 -0.8975
  595TIP3   OH223419   0.941   5.107   7.275 -0.4338 -0.4936 -0.2406
  595TIP3    H123420   0.962   5.135   7.186 -3.4622  0.5596 -0.7328
  595TIP3    H223421   0.929   5.012   7.269 -1.1235 -0.3605 -1.0941
  596TIP3   OH223422   5.789   1.472   7.278  0.1520  0.1942  0.7504
  596TIP3    H123423   5.853   1.524   7.327  3.1383 -2.0268 -0.4823
  596TIP3    H223424   5.792   1.508   7.189  0.3707 -0.4796  0.4824
  597TIP3   OH223425   0.675   2.078   7.852 -0.1321 -0.4967  0.0541
  597TIP3    H123426   0.656   2.011   7.919  0.7104 -0.2362  0.5709
  597TIP3    H223427   0.743   2.132   7.892  1.8274 -1.4795 -1.7498
  598TIP3   OH223428   1.098   1.504   6.996 -0.2717  0.2850  0.0350
  598TIP3    H123429   1.076   1.545   7.079  0.1331 -0.3391  0.4585
  598TIP3    H223430   1.074   1.412   7.008  1.7437 -0.2561  0.2253
  599TIP3   OH223431   2.779   3.476   2.644 -0.0385 -0.0296  0.1680
  599TIP3    H123432   2.806   3.386   2.626 -2.7147 -0.7331 -0.7132
  599TIP3    H223433   2.718   3.498   2.573  0.5956  2.5389  0.3014
  600TIP3   OH223434   0.378   3.842   7.801 -0.1246 -0.4753 -0.7675
  600TIP3    H123435   0.418   3.842   7.889 -1.8963 -1.7929  0.0954
  600TIP3    H223436   0.350   3.933   7.788  0.3009 -0.2276 -0.0499
  601TIP3   OH223437   2.045   1.652   1.360  0.4350  0.7270 -0.0975
  601TIP3    H123438   2.002   1.593   1.422  0.0377  1.4428  0.3116
  601TIP3    H223439   2.106   1.595   1.312 -1.7575 -0.5839 -1.5156
  602TIP3   OH223440   4.980   1.696   8.456  0.6618  0.4618 -0.0473
  602TIP3    H123441   4.998   1.698   8.550  2.3293  0.4839 -0.3299
  602TIP3    H223442   4.996   1.605   8.430 -0.1047  0.3826 -0.2645
  603TIP3   OH223443   4.356   2.986   1.900 -0.0571 -0.2182  0.1482
  603TIP3    H123444   4.352   3.045   1.975  0.9307 -0.8278  0.6909
  603TIP3    H223445   4.343   3.043   1.824 -0.6322  0.4653  0.7433
  604TIP3   OH223446   5.902   6.681   1.112  0.2401 -0.3242  0.0680
  604TIP3    H123447   5.892   6.703   1.020  1.3707 -0.3002 -0.0687
  604TIP3    H223448   5.879   6.588   1.117  1.2683 -0.6184 -0.4581
  605TIP3   OH223449   5.052   5.591   6.797 -0.0444 -0.4327 -0.0847
  605TIP3    H123450   5.029   5.676   6.834  1.8558 -0.2729  0.8634
  605TIP3    H223451   5.042   5.603   6.703 -0.5319  0.5985  0.0769
  606TIP3   OH223452   1.781   0.585   0.630  0.3297  0.1770  0.4657
  606TIP3    H123453   1.728   0.617   0.703 -0.2527  1.0723 -0.3225
  606TIP3    H223454   1.831   0.661   0.601  1.9655 -0.6111  1.0810
  607TIP3   OH223455   3.443   3.566   1.677 -0.0250 -0.2756 -0.1963
  607TIP3    H123456   3.499   3.586   1.602 -1.1059 -0.4492 -1.0608
  607TIP3    H223457   3.391   3.645   1.691 -1.8176 -1.1708 -1.4290
  608TIP3   OH223458   1.990   1.574   7.942 -0.0284  0.0273 -0.4626
  608TIP3    H123459   2.032   1.560   8.027  0.1140 -1.0598 -0.6983
  608TIP3    H223460   2.032   1.511   7.883 -0.9920 -0.0959 -1.0409
  609TIP3   OH223461   5.488   1.807   6.384 -0.1700 -0.0721  0.1054
  609TIP3    H123462   5.462   1.778   6.296  0.4560 -0.0023 -0.1068
  609TIP3    H223463   5.520   1.896   6.370 -2.0118  0.7457  0.7346
  610TIP3   OH223464   3.003   1.316   7.167 -0.0741 -0.3548  0.1865
  610TIP3    H123465   2.968   1.363   7.243 -1.7392 -1.2111 -0.0088
  610TIP3    H223466   3.025   1.385   7.105 -1.7984  0.2412  0.1805
  611TIP3   OH223467   0.868   1.068   2.661  0.3496  0.4629 -0.0009
  611TIP3    H123468   0.827   1.132   2.720  1.6370  1.1593  0.1680
  611TIP3    H223469   0.951   1.046   2.703  0.7033 -0.0005 -0.9271
  612TIP3   OH223470   3.442   2.897   7.136 -0.2245 -0.5608  0.1877
  612TIP3    H123471   3.373   2.876   7.073 -0.9693  0.8539  0.4780
  612TIP3    H223472   3.513   2.933   7.082 -0.1113 -1.0653 -0.0091
  613TIP3   OH223473   1.902   4.553   6.376 -0.7716 -0.2401 -0.6946
  613TIP3    H123474   1.896   4.641   6.412 -0.3310  0.2560 -1.7869
  613TIP3    H223475   1.815   4.515   6.390 -0.8148  0.1792  0.2258
  614TIP3   OH223476   6.248   4.808   7.763 -0.6356  0.5737 -0.2233
  614TIP3    H123477   6.234   4.818   7.669 -0.8647 -0.3638 -0.2926
  614TIP3    H223478   6.324   4.864   7.781  0.4762 -0.5347 -1.2813
  615TIP3   OH223479   3.925   3.931   2.049 -0.5270  0.6632 -0.1399
  615TIP3    H123480   3.874   4.012   2.045  0.5625  1.3542 -0.5967
  615TIP3    H223481   3.964   3.931   2.136  1.5161  1.9771 -0.9666
  616TIP3   OH223482   0.480   4.744   7.004  0.0491 -0.0275 -0.4836
  616TIP3    H123483   0.531   4.825   7.004  0.3857 -0.1792  1.4155
  616TIP3    H223484   0.392   4.771   6.980  0.4317  0.6876 -1.1195
  617TIP3   OH223485   1.132   1.438   0.595  0.7615  0.0018  0.2729
  617TIP3    H123486   1.163   1.482   0.674  2.3309  0.1560 -0.3849
  617TIP3    H223487   1.173   1.486   0.523 -0.3997 -0.3143 -0.6315
  618TIP3   OH223488   4.078   2.947   2.706 -0.1646 -0.2078 -0.3597
  618TIP3    H123489   4.122   3.030   2.724 -0.2295 -0.1932 -0.2655
  618TIP3    H223490   3.995   2.953   2.754  0.3112 -0.7867  0.5596
  619TIP3   OH223491   1.142   1.569   7.923 -0.4027 -0.2353  0.0467
  619TIP3    H123492   1.159   1.567   8.017  0.0913 -1.3108 -0.0452
  619TIP3    H223493   1.228   1.570   7.883 -0.5669 -1.6686 -0.3976
  620TIP3   OH223494   6.858   5.672   7.408  0.2531 -0.0226 -0.1230
  620TIP3    H123495   6.827   5.651   7.320  1.9274 -0.0187 -0.7510
  620TIP3    H223496   6.910   5.752   7.397  0.8103 -0.2411  0.8093
  621TIP3   OH223497   2.934   2.650   0.379 -0.4127  0.0058 -0.2122
  621TIP3    H123498   2.884   2.633   0.459  1.9704  0.8640  1.5922
  621TIP3    H223499   3.019   2.683   0.411  0.2647  1.3884 -3.1409
  622TIP3   OH223500   4.732   1.260   0.063 -0.2950  0.0910  0.0152
  622TIP3    H123501   4.752   1.197  -0.005 -1.0128 -2.1106  1.7361
  622TIP3    H223502   4.637   1.268   0.062 -0.2519  0.7552  0.1835
  623TIP3   OH223503   3.097   0.229   8.091  0.3891  0.2244  0.1993
  623TIP3    H123504   3.002   0.241   8.091  0.6012  2.3112 -0.8941
  623TIP3    H223505   3.115   0.183   8.173 -1.5776 -0.5052  0.2872
  624TIP3   OH223506   1.138   2.190   8.406 -0.7900  0.2893  0.5968
  624TIP3    H123507   1.176   2.188   8.493 -1.6691  0.5896  1.0009
  624TIP3    H223508   1.070   2.124   8.407 -1.8959  1.3913  0.6795
  625TIP3   OH223509   2.980   6.769   1.703 -0.2207  0.0439  0.0034
  625TIP3    H123510   2.914   6.824   1.745  1.9284  0.6450  2.9161
  625TIP3    H223511   3.049   6.830   1.676  0.8728 -0.9176  0.5554
  626TIP3   OH223512   3.464   4.416   2.012 -0.0099  0.9356  0.3291
  626TIP3    H123513   3.559   4.426   2.008  0.1490 -0.2999  0.7895
  626TIP3    H223514   3.435   4.425   1.922  0.5999  0.8296  0.1191
  627TIP3   OH223515   2.318   3.304   0.418  0.9035 -0.2795  0.1609
  627TIP3    H123516   2.320   3.387   0.370  2.4373  0.7031  1.8042
  627TIP3    H223517   2.269   3.324   0.498  0.1090 -1.3582 -0.0229
  628TIP3   OH223518   0.266   6.441   1.899 -0.3715  0.0681 -0.6055
  628TIP3    H123519   0.257   6.415   1.808 -0.3742 -0.2316 -0.5213
  628TIP3    H223520   0.360   6.437   1.916 -0.5368 -2.5534  0.1627
  629TIP3   OH223521   1.129   2.878   1.713 -0.4538  0.9326 -0.0092
  629TIP3    H123522   1.179   2.798   1.731 -0.0206  1.0768 -0.5459
  629TIP3    H223523   1.042   2.860   1.748 -1.1332 -0.7628 -2.3590
  630TIP3   OH223524   6.547   1.646   7.701  0.4381 -0.1239  0.3377
  630TIP3    H123525   6.570   1.618   7.790  1.5288  1.1052  0.4752
  630TIP3    H223526   6.626   1.688   7.668 -0.3645  0.6033 -0.7329
  631TIP3   OH223527   4.729   3.161   6.796 -0.3252  0.3738  0.2505
  631TIP3    H123528   4.657   3.147   6.858 -0.5891 -0.9369 -0.3391
  631TIP3    H223529   4.695   3.131   6.712  1.0267 -0.5716  0.0229
  632TIP3   OH223530   4.484   6.404   8.510  0.2368  0.1291 -0.2541
  632TIP3    H123531   4.439   6.488   8.500  0.6450  0.5550  1.2641
  632TIP3    H223532   4.540   6.397   8.433 -0.8172  0.5937 -1.0861
  633TIP3   OH223533   4.098   6.213   6.999 -0.1795 -0.0054 -0.1541
  633TIP3    H123534   4.097   6.207   6.904  0.2047  0.3476 -0.1844
  633TIP3    H223535   4.150   6.291   7.018  0.7065 -0.7076  0.3748
  634TIP3   OH223536   1.575   0.404   1.911 -0.0095  0.0240 -0.1430
  634TIP3    H123537   1.556   0.433   1.822 -0.6264 -0.2583 -0.1113
  634TIP3    H223538   1.660   0.443   1.932  1.0898 -1.4674 -1.5584
  635TIP3   OH223539   1.490   2.927   0.130 -0.6727 -0.4541  0.4301
  635TIP3    H123540   1.399   2.922   0.100 -1.0828 -0.2601  1.6124
  635TIP3    H223541   1.485   2.928   0.225  0.4932  0.9002  0.5174
  636TIP3   OH223542   2.788   2.832   8.490 -0.3705 -0.3877 -0.1900
  636TIP3    H123543   2.843   2.854   8.415  0.6296 -0.1012  0.6065
  636TIP3    H223544   2.815   2.744   8.516 -0.4811 -0.3577  0.0394
  637TIP3   OH223545   5.963   0.994   0.134  0.5299 -0.3969 -0.1849
  637TIP3    H123546   5.899   1.032   0.195 -1.2729 -1.7735 -1.1097
  637TIP3    H223547   6.022   0.944   0.190  0.5505  0.5425  0.6646
  638TIP3   OH223548   1.355   0.900   0.187 -0.0864  0.4890  0.2735
  638TIP3    H123549   1.337   0.994   0.192 -1.0526  0.4397 -1.5137
  638TIP3    H223550   1.446   0.895   0.160 -0.3241  0.9517 -0.6597
  639TIP3   OH223551   5.061   0.240   1.877 -0.3604  0.3258  0.6368
  639TIP3    H123552   5.092   0.325   1.908 -0.3418  0.5895 -0.0985
  639TIP3    H223553   5.128   0.211   1.815 -0.5583 -0.0544  0.5937
  640TIP3   OH223554   2.191   1.452   1.551 -0.4353  0.0007  0.0862
  640TIP3    H123555   2.099   1.427   1.544 -0.3888  0.0145 -0.6612
  640TIP3    H223556   2.235   1.375   1.587 -0.6251 -0.2637 -0.2407
  641TIP3   OH223557   1.761   2.577   1.550 -0.2015 -0.4695  0.7534
  641TIP3    H123558   1.759   2.671   1.566 -2.2706 -0.7139  2.4012
  641TIP3    H223559   1.767   2.568   1.455  0.0450  1.2974  0.5754
  642TIP3   OH223560   6.474   6.381   7.188  0.0195  0.3639  0.4376
  642TIP3    H123561   6.433   6.407   7.105  0.7689  0.9459  0.2352
  642TIP3    H223562   6.552   6.437   7.195  0.9461 -0.9042  0.6589
  643TIP3   OH223563   5.586   5.348   7.435 -0.0108 -0.6516  0.0198
  643TIP3    H123564   5.633   5.297   7.501  1.4775 -1.5579 -1.6414
  643TIP3    H223565   5.591   5.294   7.356  0.3118  1.3881 -1.4281
  644TIP3   OH223566   5.942   3.223   0.948 -0.1281  0.4260  0.7518
  644TIP3    H123567   6.011   3.283   0.979  0.4156 -1.0828  2.7226
  644TIP3    H223568   5.861   3.259   0.985 -0.1245  1.0743  0.1524
  645TIP3   OH223569   6.194   1.756   1.128  0.2755  0.5360  0.3565
  645TIP3    H123570   6.268   1.779   1.185  1.2826 -1.9370  0.1852
  645TIP3    H223571   6.124   1.733   1.188  0.7331 -0.2734  0.5955
  646TIP3   OH223572   1.930   0.283   1.339  0.3445 -0.1209  0.3096
  646TIP3    H123573   1.932   0.275   1.435  1.2841 -0.1339  0.2993
  646TIP3    H223574   1.874   0.211   1.310 -1.0389  0.6694  0.9127
  647TIP3   OH223575   6.066   0.316   0.930  0.3292 -0.3356 -0.0954
  647TIP3    H123576   5.996   0.269   0.974  0.7475 -0.5795  0.3098
  647TIP3    H223577   6.084   0.265   0.851 -1.2913  0.7747 -1.2449
  648TIP3   OH223578   6.022   1.364   7.513 -0.0151  0.3124  0.1424
  648TIP3    H123579   5.954   1.298   7.504 -1.3816  1.6513  0.3959
  648TIP3    H223580   6.045   1.387   7.423  0.2048 -0.2115  0.0580
  649TIP3   OH223581   0.926   6.619   7.392  0.4406  0.4195  0.3014
  649TIP3    H123582   0.935   6.685   7.324 -0.2446  1.0204  0.7717
  649TIP3    H223583   0.831   6.615   7.410  0.6797  0.9829  1.8715
  650TIP3   OH223584   6.861   5.989   0.165 -0.4385 -0.2928 -0.2066
  650TIP3    H123585   6.796   5.922   0.188  0.7141 -0.7481  2.0692
  650TIP3    H223586   6.857   6.052   0.237  1.7393 -0.4461  0.1309
  651TIP3   OH223587   0.274   4.441   2.488  0.3833  0.1224 -0.1963
  651TIP3    H123588   0.312   4.512   2.539 -3.6012  1.1428  1.8074
  651TIP3    H223589   0.284   4.363   2.543 -1.6349  0.7267  1.1675
  652TIP3   OH223590   2.715   2.162   8.064 -0.5710 -0.1136  0.3118
  652TIP3    H123591   2.737   2.254   8.045  0.5360 -0.5088 -0.4069
  652TIP3    H223592   2.773   2.139   8.136 -0.2740 -0.4897 -0.0483
  653TIP3   OH223593   5.315   1.151   8.526  0.3442 -0.2723  0.4414
  653TIP3    H123594   5.316   1.242   8.555 -2.6066  0.2251 -0.6333
  653TIP3    H223595   5.318   1.156   8.430 -0.9995 -1.2043  0.3222
  654TIP3   OH223596   6.690   0.795   2.697  0.1793 -0.5569  0.1139
  654TIP3    H123597   6.748   0.766   2.767 -0.2123  0.3788  0.8649
  654TIP3    H223598   6.747   0.843   2.637  0.1592  0.7263  1.0636
  655TIP3   OH223599   5.223   1.575   6.775  0.0696 -0.0445  0.1206
  655TIP3    H123600   5.302   1.612   6.734 -1.0090  1.4031 -0.7498
  655TIP3    H223601   5.165   1.650   6.788 -0.4083 -0.7411  2.6381
  656TIP3   OH223602   5.790   6.114   0.779  0.6723 -0.1496 -0.0381
  656TIP3    H123603   5.717   6.057   0.800  1.4252 -0.9645  0.4244
  656TIP3    H223604   5.767   6.153   0.694  0.1981 -1.2284 -0.4154
  657TIP3   OH223605   1.549   0.366   7.945  0.0840 -0.1820 -0.0817
  657TIP3    H123606   1.572   0.444   7.894  2.3103 -0.9480 -0.3468
  657TIP3    H223607   1.518   0.400   8.029  1.6324  0.9960  0.0439
  658TIP3   OH223608   3.354   3.786   7.521  0.1978 -0.5235  0.1244
  658TIP3    H123609   3.343   3.881   7.521 -1.6552 -0.6803  1.2979
  658TIP3    H223610   3.374   3.764   7.430  0.5062  0.9594 -0.1930
  659TIP3   OH223611   1.738   4.077   8.128  0.1118 -0.3376 -0.5544
  659TIP3    H123612   1.767   4.067   8.037 -0.0919 -2.3781 -0.4571
  659TIP3    H223613   1.816   4.058   8.180 -0.1815 -0.8898 -0.3088
  660TIP3   OH223614   5.137   3.618   1.376  0.2851  0.9853  0.5695
  660TIP3    H123615   5.179   3.581   1.298 -1.7911  1.6022 -0.9336
  660TIP3    H223616   5.194   3.592   1.448  1.4151 -1.0573 -0.9431
  661TIP3   OH223617   5.584   5.727   7.965 -0.2387  0.4006 -0.1787
  661TIP3    H123618   5.547   5.652   7.917  0.7354 -0.2800  0.1086
  661TIP3    H223619   5.511   5.787   7.975 -0.5899  0.3592 -2.1234
  662TIP3   OH223620   0.791   3.058   1.294  0.4697 -0.5059  0.4052
  662TIP3    H123621   0.873   3.080   1.338  0.3821  0.6335  0.0328
  662TIP3    H223622   0.761   2.978   1.338  1.2916 -0.3983  1.1938
  663TIP3   OH223623   0.485   6.911   1.647  0.1117 -0.4323  0.5331
  663TIP3    H123624   0.458   6.885   1.736  0.2235 -0.6961  0.4905
  663TIP3    H223625   0.579   6.921   1.653 -0.1116  1.8217  1.0256
  664TIP3   OH223626   2.505   1.737   7.644 -0.4176 -0.0908  0.0388
  664TIP3    H123627   2.594   1.720   7.674  0.1639  1.8934 -0.3832
  664TIP3    H223628   2.449   1.696   7.709  0.8059 -0.2624  1.0199
  665TIP3   OH223629   6.392   1.585   0.108  0.6729  0.0104 -0.0580
  665TIP3    H123630   6.329   1.555   0.042  1.5656 -0.8116 -0.5834
  665TIP3    H223631   6.442   1.654   0.064 -0.7179  1.6384  0.8169
  666TIP3   OH223632   5.181   0.337   0.693 -0.3938  0.0776 -0.0264
  666TIP3    H123633   5.207   0.257   0.648  0.6771  0.6000 -0.3758
  666TIP3    H223634   5.124   0.382   0.630  0.8839  0.6775 -0.8056
  667TIP3   OH223635   6.762   6.653   0.131 -0.3883 -0.5207  0.4918
  667TIP3    H123636   6.842   6.688   0.093 -0.1341 -2.2151 -0.6741
  667TIP3    H223637   6.691   6.691   0.078 -0.2588 -0.1859  0.5591
  668TIP3   OH223638   2.749   4.937   7.012 -0.1078 -0.2631 -0.3479
  668TIP3    H123639   2.787   4.864   7.061  1.0441  0.7792  0.3862
  668TIP3    H223640   2.656   4.933   7.031 -0.0321 -1.3922 -0.1229
  669TIP3   OH223641   0.722   1.594   0.562  0.3948  0.2080 -0.4548
  669TIP3    H123642   0.667   1.520   0.535 -1.1362  0.9796  0.3962
  669TIP3    H223643   0.780   1.610   0.487  0.6507 -1.7338 -0.7084
  670TIP3   OH223644   4.096   5.610   8.398  0.2727 -0.3723 -0.4437
  670TIP3    H123645   4.025   5.561   8.440  0.4181 -1.0294 -0.9583
  670TIP3    H223646   4.072   5.702   8.410  0.9475 -0.4503  2.2478
  671TIP3   OH223647   2.121   1.151   1.397  0.1418 -0.8217 -0.1470
  671TIP3    H123648   2.051   1.086   1.398  0.6333 -1.3609  1.0865
  671TIP3    H223649   2.133   1.175   1.489  0.0692  0.9237 -0.5447
  672TIP3   OH223650   5.277   0.895   1.685  0.5038 -0.4088  0.2765
  672TIP3    H123651   5.298   0.936   1.601 -0.4335  1.1383  0.7502
  672TIP3    H223652   5.210   0.830   1.664  1.5763 -1.3450 -0.3995
  673TIP3   OH223653   3.578   2.492   0.572  0.0140  0.2292 -0.2267
  673TIP3    H123654   3.604   2.557   0.507  0.2617 -1.5458 -1.9893
  673TIP3    H223655   3.482   2.498   0.575  0.0592  0.9609 -0.0399
  674TIP3   OH223656   0.442   1.293   2.684 -0.3803  0.5299 -0.0479
  674TIP3    H123657   0.420   1.275   2.776  1.0378  1.5493  0.5200
  674TIP3    H223658   0.443   1.207   2.642 -0.2887 -0.0314  1.0687
  675TIP3   OH223659   4.554   3.242   1.972  0.2045  0.3566 -0.4550
  675TIP3    H123660   4.550   3.155   2.010 -0.7523  0.8913  0.7434
  675TIP3    H223661   4.501   3.236   1.893 -1.2451  0.2351  0.4858
  676TIP3   OH223662   4.099   5.648   7.659  0.6108 -0.3466  0.2667
  676TIP3    H123663   4.066   5.736   7.676 -2.1035 -0.3779 -3.5189
  676TIP3    H223664   4.077   5.598   7.737 -0.6394  1.6464  1.2643
  677TIP3   OH223665   1.932   4.714   1.122  0.2626 -0.4687 -0.2292
  677TIP3    H123666   1.886   4.732   1.204  2.0261  0.9582  0.5068
  677TIP3    H223667   1.989   4.640   1.142  0.2154 -0.5421 -0.3646
  678TIP3   OH223668   4.103   0.967   2.564 -0.0339 -0.4302  0.0469
  678TIP3    H123669   4.067   1.055   2.576  0.5468 -0.3440  1.3561
  678TIP3    H223670   4.192   0.981   2.531  0.4815 -0.4511  1.3516
  679TIP3   OH223671   4.216   5.190   1.650 -0.0616  0.3350 -0.4733
  679TIP3    H123672   4.149   5.194   1.582 -1.6392 -2.8480  0.6700
  679TIP3    H223673   4.170   5.220   1.729  1.0301  1.6588 -0.3039
  680TIP3   OH223674   0.893   0.386   1.982 -0.4569  0.1922  0.2238
  680TIP3    H123675   0.901   0.363   1.889 -1.1462 -2.5074  0.7468
  680TIP3    H223676   0.819   0.447   1.985  0.3701  1.3339 -1.0904
  681TIP3   OH223677   3.347   1.768   2.331  0.6719  0.4633 -0.1916
  681TIP3    H123678   3.294   1.726   2.263  0.8948  2.0716 -1.4346
  681TIP3    H223679   3.321   1.726   2.412 -0.5510 -0.6334 -1.1200
  682TIP3   OH223680   0.598   4.760   0.611  0.6887  0.1335 -0.2783
  682TIP3    H123681   0.604   4.806   0.527  1.4463  0.8190  0.1375
  682TIP3    H223682   0.677   4.705   0.614  0.9158  0.4791  0.1907
  683TIP3   OH223683   5.631   2.190   0.414 -0.3297 -0.3646  0.3383
  683TIP3    H123684   5.551   2.241   0.400  0.3248  1.1030  1.6283
  683TIP3    H223685   5.620   2.152   0.501 -0.8728 -2.6566 -0.6521
  684TIP3   OH223686   1.228   1.550   7.556 -0.2754  0.3625  0.2515
  684TIP3    H123687   1.138   1.530   7.531  0.2058 -0.1436 -1.2066
  684TIP3    H223688   1.246   1.634   7.513  0.5911 -0.5526 -1.2644
  685TIP3   OH223689   2.289   5.964   2.049 -0.1205  0.0613 -0.1609
  685TIP3    H123690   2.224   5.908   2.090 -0.9661  1.4575  0.4973
  685TIP3    H223691   2.371   5.915   2.055 -1.0426 -1.6741 -0.8751
  686TIP3   OH223692   3.377   5.737   0.031  0.2213 -0.1358  0.3233
  686TIP3    H123693   3.297   5.737  -0.021 -0.2749 -0.4165  1.0744
  686TIP3    H223694   3.425   5.660   0.001 -0.9281 -1.3755  1.5761
  687TIP3   OH223695   5.530   6.073   7.092  0.1785  0.5265  0.1809
  687TIP3    H123696   5.506   6.135   7.161 -0.7407 -1.3070  1.5883
  687TIP3    H223697   5.600   6.020   7.131 -0.0173 -0.2240 -0.4749
  688TIP3   OH223698   2.951   0.144   2.798 -0.2046 -0.0815 -0.4025
  688TIP3    H123699   2.871   0.156   2.849 -0.2868  0.2517 -0.6097
  688TIP3    H223700   2.954   0.219   2.739 -0.2078 -0.5517 -1.0179
  689TIP3   OH223701   6.401   6.921   8.256 -0.3726 -0.0323 -0.9369
  689TIP3    H123702   6.425   6.966   8.174 -2.4054 -0.7534 -2.0168
  689TIP3    H223703   6.409   6.989   8.323  2.4157  0.2995 -1.4846
  690TIP3   OH223704   3.693   4.450   2.477 -0.8329 -0.3046  0.7877
  690TIP3    H123705   3.638   4.496   2.541 -2.2073 -1.7286  0.6853
  690TIP3    H223706   3.724   4.373   2.523 -0.4259 -0.4618  0.2601
  691TIP3   OH223707   3.126   5.017   6.798 -0.3661  0.2902 -0.3802
  691TIP3    H123708   3.103   4.941   6.744 -0.3280 -0.1075  0.1565
  691TIP3    H223709   3.215   4.999   6.828 -1.1501 -0.5628  1.5971
  692TIP3   OH223710   0.072   4.703   0.289 -0.2127  0.0868  0.2348
  692TIP3    H123711   0.126   4.768   0.244  0.2983 -0.2717  0.3306
  692TIP3    H223712   0.019   4.755   0.350 -0.3244  0.4881 -0.1940
  693TIP3   OH223713   5.409   2.918   7.581 -0.3486  0.5688  0.5618
  693TIP3    H123714   5.480   2.965   7.538 -0.3735  0.7226  0.6889
  693TIP3    H223715   5.439   2.828   7.586 -0.8263  0.3014 -0.8605
  694TIP3   OH223716   6.920   2.597   6.448 -0.0907 -0.2574  0.3318
  694TIP3    H123717   6.856   2.656   6.407 -1.2688 -0.7471  1.3713
  694TIP3    H223718   6.997   2.603   6.393 -0.5400  1.4475 -0.1866
  695TIP3   OH223719   0.189   1.120   2.417  0.2871  0.1554 -0.0629
  695TIP3    H123720   0.202   1.028   2.441  1.8587  0.2510 -0.4402
  695TIP3    H223721   0.130   1.154   2.485 -0.4157 -1.1503  0.0099
  696TIP3   OH223722   4.513   2.129   7.386 -0.2181  0.1333 -0.2123
  696TIP3    H123723   4.583   2.063   7.381  0.9110  1.3244 -0.6312
  696TIP3    H223724   4.539   2.185   7.459 -1.2191  0.0782  0.1995
  697TIP3   OH223725   2.451   5.937   7.519  0.3692  0.6849 -0.8723
  697TIP3    H123726   2.431   5.872   7.586  1.0676  1.3520  0.0043
  697TIP3    H223727   2.394   5.914   7.446  0.7603 -1.0499 -0.6791
  698TIP3   OH223728   3.094   3.641   1.045  0.2140  0.1775 -0.1464
  698TIP3    H123729   3.030   3.573   1.024  1.2169 -0.5560 -0.9554
  698TIP3    H223730   3.043   3.712   1.082 -0.8729 -0.9932  0.6832
  699TIP3   OH223731   5.105   5.517   1.796  0.7007 -0.6832 -0.1751
  699TIP3    H123732   5.123   5.551   1.884 -0.5285  3.8470 -1.3987
  699TIP3    H223733   5.009   5.515   1.791  0.7525 -0.7512 -1.4254
  700TIP3   OH223734   1.523   0.548   0.532 -0.0160 -0.1810 -0.3371
  700TIP3    H123735   1.483   0.632   0.509  0.1684 -0.2383 -0.8675
  700TIP3    H223736   1.615   0.559   0.511 -0.0234 -0.5834 -0.5743
  701TIP3   OH223737   6.017   3.549   1.530  1.0894  0.8212 -0.2154
  701TIP3    H123738   5.974   3.490   1.593  0.4436  1.2079 -0.2806
  701TIP3    H223739   6.079   3.493   1.483 -0.4270 -0.1446 -1.1696
  702TIP3   OH223740   5.310   3.868   0.856 -0.0652 -0.0569  0.5155
  702TIP3    H123741   5.340   3.931   0.922 -1.0026  0.4494  0.4755
  702TIP3    H223742   5.370   3.879   0.783 -0.6946  1.3703  0.1924
  703TIP3   OH223743   6.837   3.299   1.919 -0.4189 -0.2628 -0.1578
  703TIP3    H123744   6.914   3.353   1.939  0.0616 -0.8455 -0.4118
  703TIP3    H223745   6.776   3.359   1.876 -0.4977  0.4368  0.8889
  704TIP3   OH223746   1.113   6.920   2.448 -0.2479  1.0082 -0.5277
  704TIP3    H123747   1.055   6.981   2.493  0.2350  0.9911  0.1283
  704TIP3    H223748   1.187   6.908   2.508 -1.4573 -2.1628  0.4972
  705TIP3   OH223749   0.704   2.742   2.500 -0.9361  0.0197 -0.2611
  705TIP3    H123750   0.661   2.767   2.581  1.9184  1.6078  0.8959
  705TIP3    H223751   0.675   2.652   2.484 -1.9808 -0.1458  2.1897
  706TIP3   OH223752   1.821   1.659   2.618  0.3934 -0.0614 -0.1630
  706TIP3    H123753   1.903   1.610   2.620  0.1247 -0.5152  1.6890
  706TIP3    H223754   1.848   1.751   2.621  0.8662 -0.2246  2.2457
  707TIP3   OH223755   0.997   1.767   7.802 -0.4842  0.5670 -0.4544
  707TIP3    H123756   1.038   1.697   7.852 -1.2583  1.6598  1.8655
  707TIP3    H223757   1.062   1.837   7.800 -0.1428  0.2371 -1.7702
  708TIP3   OH223758   0.233   4.547   7.669  0.2458  0.1745 -0.3879
  708TIP3    H123759   0.186   4.551   7.752  1.3825  1.8979  0.2464
  708TIP3    H223760   0.191   4.476   7.621 -2.2190  0.8431  0.5827
  709TIP3   OH223761   6.184   2.017   1.781 -0.6635  0.0781  0.2967
  709TIP3    H123762   6.104   2.046   1.736 -1.1220 -0.3506  0.8300
  709TIP3    H223763   6.173   2.046   1.871  0.1477  0.7156  0.2034
  710TIP3   OH223764   4.819   1.967   8.291 -0.7964  0.5972  0.4072
  710TIP3    H123765   4.906   1.940   8.318 -1.3792 -0.2019  1.5512
  710TIP3    H223766   4.820   1.961   8.195  0.3866  0.5942  0.4130
  711TIP3   OH223767   2.260   3.476   0.177  0.8708  0.1099 -0.0961
  711TIP3    H123768   2.191   3.536   0.202  1.7360  0.5501  1.3996
  711TIP3    H223769   2.259   3.475   0.082 -1.5443 -0.3413 -0.1207
  712TIP3   OH223770   1.287   6.171   1.600 -0.1613 -0.6385 -0.0478
  712TIP3    H123771   1.279   6.096   1.658  0.7371  0.0229  0.9779
  712TIP3    H223772   1.379   6.172   1.574 -0.3466 -0.3709 -0.6992
  713TIP3   OH223773   4.856   6.582   1.007  0.0980 -0.2582 -0.4088
  713TIP3    H123774   4.907   6.661   0.989  0.4854 -0.3072  0.4563
  713TIP3    H223775   4.766   6.613   1.015  0.2552  0.1005 -0.0369
  714TIP3   OH223776   1.688   5.772   2.554 -0.2058  0.5531  0.2603
  714TIP3    H123777   1.594   5.757   2.565 -0.3030  0.9101 -0.0455
  714TIP3    H223778   1.703   5.857   2.597  0.2606 -0.1903  1.6376
  715TIP3   OH223779   2.551   0.860   7.463  0.9650 -0.6732 -0.4020
  715TIP3    H123780   2.502   0.935   7.494 -0.8835 -2.8950  2.6025
  715TIP3    H223781   2.538   0.860   7.368 -0.9254  1.4466 -0.2227
  716TIP3   OH223782   4.276   6.733   2.780 -0.5874 -0.3631 -0.2099
  716TIP3    H123783   4.322   6.653   2.805 -1.5897 -0.4315  1.5671
  716TIP3    H223784   4.332   6.804   2.811 -0.6511 -0.4047 -0.0036
  717TIP3   OH223785   6.616   4.806   7.228  0.3339 -0.2553  0.0558
  717TIP3    H123786   6.678   4.777   7.160  1.3102  0.7080  0.5083
  717TIP3    H223787   6.561   4.871   7.184 -0.0217 -0.7327 -0.2100
  718TIP3   OH223788   1.504   0.728   7.842  0.0233  0.2652 -0.1364
  718TIP3    H123789   1.582   0.672   7.837 -0.7045 -0.8227  0.2841
  718TIP3    H223790   1.530   0.799   7.901  0.8791  0.2311 -0.4516
  719TIP3   OH223791   2.432   2.940   7.356  0.3588  0.4833  0.1243
  719TIP3    H123792   2.472   2.865   7.312  0.7278  0.7687 -0.0336
  719TIP3    H223793   2.348   2.952   7.312  0.0331 -0.2069  0.5507
  720TIP3   OH223794   0.160   6.869   1.153  0.1017  0.2662 -0.2980
  720TIP3    H123795   0.105   6.792   1.138  1.9172 -0.8781 -1.4593
  720TIP3    H223796   0.243   6.833   1.187  0.0586  1.9593  1.8124
  721TIP3   OH223797   2.656   0.689   2.137  0.3149  0.2699  0.1756
  721TIP3    H123798   2.676   0.783   2.131  1.8027  0.0700  1.4370
  721TIP3    H223799   2.699   0.661   2.217  0.0364 -1.5510 -0.2856
  722TIP3   OH223800   6.897   3.844   7.927 -0.0676  0.2309 -0.4814
  722TIP3    H123801   6.857   3.929   7.945 -0.5795 -0.6269  3.3049
  722TIP3    H223802   6.822   3.785   7.915  0.2036 -0.2253  0.0582
  723TIP3   OH223803   5.519   6.237   0.967 -0.2833  1.0450 -0.5653
  723TIP3    H123804   5.429   6.239   0.935 -1.2439  2.1896  1.8971
  723TIP3    H223805   5.549   6.148   0.949 -3.2352 -0.5797  1.6564
  724TIP3   OH223806   2.783   2.233   1.742 -0.2569 -0.9499 -0.1158
  724TIP3    H123807   2.697   2.202   1.712 -1.0467 -0.5792  1.6662
  724TIP3    H223808   2.800   2.312   1.690 -2.1667  0.3952  1.2066
  725TIP3   OH223809   2.786   5.911   1.953  0.1609  0.1028  0.0196
  725TIP3    H123810   2.696   5.911   1.986  0.5063  0.0493  0.9906
  725TIP3    H223811   2.834   5.968   2.014  0.6646  0.6431 -0.8523
  726TIP3   OH223812   4.258   0.470   1.765  0.4974 -0.0948 -0.4552
  726TIP3    H123813   4.248   0.525   1.687  1.1398  1.5697  0.5824
  726TIP3    H223814   4.300   0.390   1.733  1.6242  0.9404 -1.6849
  727TIP3   OH223815   2.934   5.731   1.465  0.1579 -0.2310  0.7056
  727TIP3    H123816   2.925   5.825   1.449  0.8881 -0.3096 -0.3241
  727TIP3    H223817   2.895   5.717   1.551 -0.0588  0.9957  0.8271
  728TIP3   OH223818   2.028   1.344   2.035 -0.3821  0.2350  0.0349
  728TIP3    H123819   2.121   1.333   2.050 -0.3147  0.0937 -0.4700
  728TIP3    H223820   1.999   1.260   2.000 -0.3419  0.8410 -1.5185
  729TIP3   OH223821   0.416   3.152   7.443 -0.1691  0.6799 -0.1395
  729TIP3    H123822   0.477   3.085   7.412  0.2203  1.0774 -0.2434
  729TIP3    H223823   0.468   3.233   7.445 -0.6199  0.9695  0.0270
  730TIP3   OH223824   6.214   1.843   0.854 -0.7702  0.3048  0.0927
  730TIP3    H123825   6.225   1.936   0.834 -0.4674  0.1441 -0.5253
  730TIP3    H223826   6.217   1.838   0.949  0.4854  0.7844  0.1022
  731TIP3   OH223827   4.117   0.784   1.903  0.2463  0.2990  0.4520
  731TIP3    H123828   4.137   0.750   1.816  1.7014  1.5921  0.2434
  731TIP3    H223829   4.021   0.790   1.905  0.1789 -0.0752 -0.9215
  732TIP3   OH223830   2.467   5.745   7.740 -0.0573  0.1144  0.1005
  732TIP3    H123831   2.479   5.651   7.723 -0.7157 -0.0205  0.3432
  732TIP3    H223832   2.552   5.784   7.719  0.4801 -0.6441  0.7691
  733TIP3   OH223833   4.078   6.877   0.952 -0.4107 -0.1123 -0.0714
  733TIP3    H123834   4.026   6.915   0.882  1.2736 -0.6791 -1.7148
  733TIP3    H223835   4.069   6.782   0.939 -1.9904 -0.3073  1.9989
  734TIP3   OH223836   0.096   4.760   7.536  0.2853  0.0575 -0.2500
  734TIP3    H123837   0.139   4.752   7.450 -0.4789 -0.6288 -0.5841
  734TIP3    H223838   0.148   4.706   7.594  2.3235  2.5126  0.3560
  735TIP3   OH223839   2.643   5.470   2.126  0.2320  0.0649 -0.3499
  735TIP3    H123840   2.636   5.539   2.192 -1.9891  1.2762 -1.7417
  735TIP3    H223841   2.692   5.401   2.169  0.1602  1.4050  2.0473
  736TIP3   OH223842   3.569   0.495   8.081  0.0685 -0.0487  0.2490
  736TIP3    H123843   3.612   0.500   7.996 -0.6246 -0.9313 -0.1732
  736TIP3    H223844   3.517   0.414   8.077 -4.2061  2.4296 -0.5200
  737TIP3   OH223845   6.341   0.891   8.257  0.3937  0.5988  0.1437
  737TIP3    H123846   6.360   0.822   8.194 -0.4862  1.1614 -0.7579
  737TIP3    H223847   6.248   0.911   8.244  0.6627  2.0433  0.2884
  738TIP3   OH223848   0.676   2.912   1.799 -0.2977 -0.0333 -0.2742
  738TIP3    H123849   0.605   2.910   1.863 -1.5625 -0.2572 -1.6258
  738TIP3    H223850   0.683   3.004   1.773  0.0128  0.0100 -0.0484
  739TIP3   OH223851   1.219   6.631   2.680 -0.0453 -0.0380 -0.8622
  739TIP3    H123852   1.274   6.559   2.711  1.1422  0.6703 -1.2438
  739TIP3    H223853   1.151   6.641   2.747  2.5878  1.6577  1.8166
  740TIP3   OH223854   1.048   5.116   2.122 -0.0969  0.4647  0.7048
  740TIP3    H123855   0.973   5.057   2.123 -0.5256  0.9575 -0.8752
  740TIP3    H223856   1.014   5.199   2.154 -1.1522  1.6722 -3.1451
  741TIP3   OH223857   3.805   1.674   1.725 -1.0545 -0.6841  0.1592
  741TIP3    H123858   3.866   1.741   1.693 -1.0347 -0.5565  0.4543
  741TIP3    H223859   3.838   1.593   1.687 -0.5826 -0.6450  0.4672
  742TIP3   OH223860   6.660   2.911   6.845 -0.3108  0.6493  0.2758
  742TIP3    H123861   6.694   3.001   6.848 -0.4754  0.7029  0.6724
  742TIP3    H223862   6.571   2.919   6.880 -0.3648  0.3498  0.2055
  743TIP3   OH223863   3.306   5.287   8.269 -0.2985 -0.6040  0.1333
  743TIP3    H123864   3.295   5.196   8.242  0.9160 -0.7809  0.1917
  743TIP3    H223865   3.285   5.339   8.191  2.1793 -1.0630 -0.9204
  744TIP3   OH223866   3.444   3.303   1.061  0.0617  0.6099  0.0462
  744TIP3    H123867   3.452   3.300   0.966 -0.1662 -1.1607  0.0502
  744TIP3    H223868   3.369   3.361   1.077 -0.9772 -0.4139 -0.9554
  745TIP3   OH223869   0.670   3.808   1.879 -0.0625  0.0902  0.2071
  745TIP3    H123870   0.653   3.902   1.887 -2.0515 -0.1722 -0.3078
  745TIP3    H223871   0.671   3.776   1.970  0.6960  0.5892  0.3884
  746TIP3   OH223872   1.484   5.120   1.935 -0.0057  0.6500  0.2770
  746TIP3    H123873   1.466   5.138   2.027  3.6666 -0.5450  1.4388
  746TIP3    H223874   1.559   5.177   1.915  1.1917 -1.2403 -0.9545
  747TIP3   OH223875   1.074   4.439   6.931  0.1441  0.0443 -0.2902
  747TIP3    H123876   1.023   4.483   6.863  0.2390 -0.1002 -0.4561
  747TIP3    H223877   1.049   4.347   6.925 -1.3247  0.3030  1.1803
  748TIP3   OH223878   5.111   4.148   6.675 -0.6005  0.1163  0.1782
  748TIP3    H123879   5.123   4.160   6.769  2.6939 -0.3989 -0.0683
  748TIP3    H223880   5.184   4.196   6.635 -0.5219 -1.6517 -1.9828
  749TIP3   OH223881   6.095   1.240   1.280  1.0290  0.1686  0.5534
  749TIP3    H123882   6.134   1.326   1.267  0.7875 -0.1266 -3.1132
  749TIP3    H223883   6.066   1.213   1.193 -0.7308 -2.7893  1.8964
  750TIP3   OH223884   5.497   1.369   3.160 -0.0758 -0.0528 -0.1071
  750TIP3    H123885   5.510   1.463   3.177 -0.4741  0.0609 -0.4124
  750TIP3    H223886   5.585   1.333   3.155  0.1063  0.4838 -0.9571
  751TIP3   OH223887   2.405   0.390   2.155  0.1786  0.2506 -0.1606
  751TIP3    H123888   2.370   0.478   2.172 -0.3957 -0.2313  1.3918
  751TIP3    H223889   2.357   0.334   2.216  0.5923 -1.1411 -1.0720
  752TIP3   OH223890   1.415   1.789   2.397 -0.2826  0.0162  0.1878
  752TIP3    H123891   1.427   1.883   2.406 -1.4808  0.2703 -0.7276
  752TIP3    H223892   1.387   1.760   2.484  1.1951  0.2866  0.7956
  753TIP3   OH223893   6.481   1.673   8.425 -0.4703  0.2054  0.1821
  753TIP3    H123894   6.395   1.636   8.441 -1.3726  2.6357  1.5161
  753TIP3    H223895   6.477   1.706   8.335 -0.4309 -0.8814 -0.2293
  754TIP3   OH223896   2.617   3.452   1.409 -0.5339 -0.1445  0.1470
  754TIP3    H123897   2.699   3.463   1.360 -1.4935 -0.3696 -1.5770
  754TIP3    H223898   2.585   3.366   1.383 -1.3681 -0.0160  0.7211
  755TIP3   OH223899   1.761   6.633   0.190 -0.5445 -1.1588  0.4217
  755TIP3    H123900   1.750   6.718   0.146 -0.2753 -1.4127 -0.1483
  755TIP3    H223901   1.730   6.569   0.126 -0.3708 -1.5202  0.6975
  756TIP3   OH223902   6.432   0.933   7.049  0.2992 -1.1140  0.4399
  756TIP3    H123903   6.412   0.992   6.976 -0.6259 -3.6253 -1.5114
  756TIP3    H223904   6.366   0.952   7.115 -1.8639 -1.8892 -1.3939
  757TIP3   OH223905   6.316   0.274   1.690 -0.7478 -0.0292 -0.5535
  757TIP3    H123906   6.318   0.185   1.726 -1.8488  0.4434  0.8022
  757TIP3    H223907   6.241   0.273   1.630  0.1413 -0.3924 -1.6898
  758TIP3   OH223908   5.265   5.731   0.479  0.0778  0.6137  0.4637
  758TIP3    H123909   5.296   5.694   0.562 -1.4469 -2.0828 -0.0473
  758TIP3    H223910   5.177   5.763   0.499  0.5648  2.1331  0.3558
  759TIP3   OH223911   6.519   4.995   6.496 -0.1395 -0.2945 -0.0431
  759TIP3    H123912   6.508   5.038   6.411 -2.3611 -0.9574 -0.1705
  759TIP3    H223913   6.530   4.902   6.476 -3.9958 -1.0161  0.3039
  760TIP3   OH223914   4.446   3.526   1.860 -0.1479 -0.0428  0.7282
  760TIP3    H123915   4.376   3.461   1.856  1.1793 -1.6329  1.8524
  760TIP3    H223916   4.480   3.529   1.770 -2.0047  1.2415  0.0070
  761TIP3   OH223917   1.573   1.001   7.877  0.1910  0.1855  0.1840
  761TIP3    H123918   1.648   1.049   7.839  0.6133 -0.5679  0.0452
  761TIP3    H223919   1.515   0.986   7.802  1.0302 -1.3114 -0.2127
  762TIP3   OH223920   4.505   1.139   1.878 -0.4205  0.3543 -0.0495
  762TIP3    H123921   4.428   1.083   1.870 -0.2587  0.1015  0.1627
  762TIP3    H223922   4.571   1.084   1.921 -0.2400  0.6874  0.1008
  763TIP3   OH223923   5.321   4.544   8.327 -0.3126 -0.3012  0.3909
  763TIP3    H123924   5.262   4.599   8.379 -1.8304 -0.6603 -0.8665
  763TIP3    H223925   5.266   4.471   8.299 -0.1149  0.6983 -3.0582
  764TIP3   OH223926   6.451   1.897   0.388  0.3010 -0.2645 -1.1939
  764TIP3    H123927   6.455   1.919   0.482 -0.4571 -0.4317 -1.1132
  764TIP3    H223928   6.491   1.972   0.344 -0.7792  0.5660 -0.8206
  765TIP3   OH223929   6.503   2.499   7.218 -0.5319 -0.0891  0.2356
  765TIP3    H123930   6.571   2.433   7.206 -0.5651  0.1225 -1.2718
  765TIP3    H223931   6.543   2.566   7.273 -0.5567 -1.4068  1.9589
  766TIP3   OH223932   3.697   3.337   0.187  0.5129 -0.2328 -0.1837
  766TIP3    H123933   3.686   3.402   0.118  1.2883  0.5623  0.4118
  766TIP3    H223934   3.743   3.384   0.257 -1.1481 -0.7210  1.3139
  767TIP3   OH223935   5.236   3.605   2.155  0.0214 -0.5765 -0.0037
  767TIP3    H123936   5.266   3.569   2.238 -0.4011  0.5491  0.6557
  767TIP3    H223937   5.219   3.697   2.173 -0.8854 -0.4949 -1.1284
  768TIP3   OH223938   2.983   2.160   2.410 -0.1031  0.1084 -0.0439
  768TIP3    H123939   3.026   2.245   2.421 -0.0146  0.1725 -0.8586
  768TIP3    H223940   3.049   2.105   2.368 -0.4004 -0.1628 -0.1607
  769TIP3   OH223941   2.901   1.375   2.152 -1.0651  0.0268 -0.2145
  769TIP3    H123942   2.941   1.421   2.226 -1.5222 -1.7035  1.1610
  769TIP3    H223943   2.968   1.314   2.122 -1.2823 -0.0887 -0.4717
  770TIP3   OH223944   5.956   3.711   1.729  0.5408  0.4468 -0.2089
  770TIP3    H123945   5.869   3.746   1.709  0.2569 -0.4706 -0.6433
  770TIP3    H223946   5.978   3.659   1.652  1.4549  0.6198 -0.0709
  771TIP3   OH223947   4.460   2.980   7.507  0.0963 -0.2503 -0.2209
  771TIP3    H123948   4.474   3.052   7.446  2.5772 -0.8196 -0.4252
  771TIP3    H223949   4.479   3.017   7.593  1.3078 -0.6013 -0.3196
  772TIP3   OH223950   0.261   5.338   1.481  0.3234  0.0020 -0.0100
  772TIP3    H123951   0.271   5.253   1.524 -0.8286 -0.0749  0.1265
  772TIP3    H223952   0.259   5.318   1.388 -0.2704 -0.1572  0.0361
  773TIP3   OH223953   3.802   0.082   1.427 -0.8128 -0.6402 -0.2559
  773TIP3    H123954   3.860   0.154   1.401 -1.4503  1.2180  2.8289
  773TIP3    H223955   3.740   0.074   1.355  0.4030  0.6274 -1.5186
  774TIP3   OH223956   5.944   3.514   0.759  0.0277 -0.1189  0.0058
  774TIP3    H123957   5.920   3.529   0.851  0.4427 -0.0902  0.1102
  774TIP3    H223958   5.879   3.564   0.710  1.5526  2.3341  0.3493
  775TIP3   OH223959   2.459   5.332   1.964  0.1240  0.4864  0.5705
  775TIP3    H123960   2.428   5.255   2.013  1.7270 -1.1126 -0.7873
  775TIP3    H223961   2.522   5.373   2.023  1.1498 -0.7309  0.3671
  776TIP3   OH223962   6.440   0.395   0.706 -0.5326 -0.0333 -0.4273
  776TIP3    H123963   6.452   0.412   0.612 -2.0778  1.6043 -0.3877
  776TIP3    H223964   6.358   0.439   0.727  0.5303  0.9132  2.0220
  777TIP3   OH223965   5.809   0.473   7.081  0.6384 -0.4920 -0.8618
  777TIP3    H123966   5.738   0.440   7.135  1.5560  0.3550  0.9618
  777TIP3    H223967   5.884   0.417   7.103  1.6648  1.3938  0.7010
  778TIP3   OH223968   1.590   1.499   7.933 -0.3088 -0.1651  0.1923
  778TIP3    H123969   1.629   1.417   7.962 -1.3471 -0.6191  0.3561
  778TIP3    H223970   1.496   1.487   7.947 -0.5299  0.8301 -0.3349
  779TIP3   OH223971   2.943   2.517   1.027 -0.3050  0.0374 -0.4085
  779TIP3    H123972   2.851   2.501   1.049 -0.4725  2.0576  0.5057
  779TIP3    H223973   2.986   2.532   1.111  0.4862  0.9368 -0.9645
  780TIP3   OH223974   0.311   6.823   1.436 -0.3764  0.3148  0.5340
  780TIP3    H123975   0.395   6.838   1.481 -0.8602 -1.2951  2.0913
  780TIP3    H223976   0.245   6.844   1.502 -1.1854  0.1880 -0.2233
  781TIP3   OH223977   4.747   1.217   7.451 -0.1500  0.6145 -0.5766
  781TIP3    H123978   4.836   1.242   7.429 -0.0485  2.3275  1.4606
  781TIP3    H223979   4.693   1.257   7.383  0.5603  0.2757 -1.3513
  782TIP3   OH223980   0.467   3.763   7.529 -0.3346  0.2001  0.0445
  782TIP3    H123981   0.473   3.736   7.621 -0.1397 -0.4680 -0.1631
  782TIP3    H223982   0.490   3.856   7.531 -1.5314  0.5129  0.8360
  783TIP3   OH223983   1.470   1.984   0.977  0.2437  0.3852 -0.1379
  783TIP3    H123984   1.443   2.069   1.011 -1.6734 -0.8492  1.6735
  783TIP3    H223985   1.387   1.938   0.960  1.2299 -1.3284 -0.5329
  784TIP3   OH223986   0.722   2.808   1.490 -0.3273  0.3655 -0.0081
  784TIP3    H123987   0.744   2.844   1.576  0.6416 -0.1993 -0.0039
  784TIP3    H223988   0.758   2.720   1.491  2.1704  1.2285 -1.9361
  785TIP3   OH223989   3.698   2.962   7.309 -0.3843  0.3014  0.1161
  785TIP3    H123990   3.697   2.973   7.214 -0.7185 -2.1611 -0.2367
  785TIP3    H223991   3.752   3.034   7.341  0.2993  0.8034 -1.9934
  786TIP3   OH223992   3.997   4.935   0.595  0.5242 -0.1846  0.6179
  786TIP3    H123993   4.025   4.885   0.672 -0.0724 -1.0024  0.3239
  786TIP3    H223994   3.982   4.868   0.528 -1.5317  0.2487  0.5757
  787TIP3   OH223995   3.161   2.827   2.438  0.2184 -0.2959  0.1624
  787TIP3    H123996   3.116   2.905   2.470  0.2204  0.1866 -0.9841
  787TIP3    H223997   3.110   2.754   2.474 -0.2297  0.2317  0.6212
  788TIP3   OH223998   2.155   2.312   7.680  0.2603  0.2972  0.2770
  788TIP3    H123999   2.140   2.256   7.757 -3.8502 -1.0026 -1.1919
  788TIP3    H224000   2.216   2.261   7.626  0.6235 -0.3044  1.2116
  789TIP3   OH224001   5.598   5.218   0.911 -0.5120 -0.7191 -0.5372
  789TIP3    H124002   5.673   5.238   0.967 -0.2858 -0.2184 -1.0057
  789TIP3    H224003   5.588   5.123   0.916 -1.3134 -0.5719  1.3768
  790TIP3   OH224004   6.874   5.155   7.747  0.3740  0.2257  0.4613
  790TIP3    H124005   6.910   5.104   7.820  1.6454  1.0344  0.4258
  790TIP3    H224006   6.783   5.126   7.740  1.3181 -2.9008 -0.3152
  791TIP3   OH224007   1.875   5.580   8.337 -0.4027 -0.2111 -0.1279
  791TIP3    H124008   1.798   5.566   8.281 -2.1227  0.9626  1.7693
  791TIP3    H224009   1.912   5.663   8.306 -0.0696 -0.6231 -0.8505
  792TIP3   OH224010   1.181   4.674   2.148 -0.1619 -0.5023  0.0452
  792TIP3    H124011   1.253   4.653   2.208 -1.2994 -0.4368  1.4810
  792TIP3    H224012   1.157   4.590   2.110  0.9809 -0.4555 -0.8519
  793TIP3   OH224013   6.726   0.942   0.054  0.1244 -0.0231 -0.5164
  793TIP3    H124014   6.798   0.879   0.050  0.3903  0.3106 -1.1925
  793TIP3    H224015   6.688   0.941  -0.034 -1.1165 -0.6597 -0.0118
  794TIP3   OH224016   1.948   3.747   2.492  0.3552 -0.2144 -0.0423
  794TIP3    H124017   1.958   3.655   2.515 -1.6002 -0.5895 -0.5513
  794TIP3    H224018   1.961   3.794   2.575 -0.0117 -1.0432  0.4932
  795TIP3   OH224019   1.237   4.951   2.233  0.2330  0.0238 -0.5296
  795TIP3    H124020   1.191   5.014   2.178 -1.0152  0.2944  0.7757
  795TIP3    H224021   1.186   4.871   2.226 -0.0030  0.0902  0.2826
  796TIP3   OH224022   3.180   3.154   0.742  0.0000  0.2493  0.6320
  796TIP3    H124023   3.148   3.240   0.767 -1.2934 -0.0425  0.0911
  796TIP3    H224024   3.119   3.093   0.784  1.1472 -0.4185  1.3569
  797TIP3   OH224025   6.262   1.309   8.179 -0.1059 -1.0032 -0.0620
  797TIP3    H124026   6.181   1.260   8.187 -1.0615 -0.1715 -3.1941
  797TIP3    H224027   6.235   1.401   8.182  1.2807 -0.5778  2.6742
  798TIP3   OH224028   5.704   0.984   2.884 -0.6303  0.0480 -0.1223
  798TIP3    H124029   5.779   1.041   2.865  0.1271 -0.6322  0.7003
  798TIP3    H224030   5.692   0.933   2.804 -0.4809  0.4505 -0.4044
  799TIP3   OH224031   0.090   5.546   0.045  0.0780 -0.0560  0.1729
  799TIP3    H124032   0.141   5.588  -0.024  3.1675 -2.1039  0.9960
  799TIP3    H224033   0.068   5.460   0.009 -3.6044  0.9463 -0.4047
  800TIP3   OH224034   4.491   5.132   8.008 -0.1338 -0.0301  0.0405
  800TIP3    H124035   4.586   5.135   7.997  0.0529  3.8002  0.9515
  800TIP3    H224036   4.457   5.100   7.925  1.8983 -2.2503 -0.0377
  801TIP3   OH224037   3.533   3.363   7.662  0.5761  0.8125 -0.1122
  801TIP3    H124038   3.527   3.271   7.637  2.4565  0.1217  1.6755
  801TIP3    H224039   3.578   3.405   7.589  0.4003  0.1699 -0.6057
  802TIP3   OH224040   1.830   0.973   1.670  0.3792 -0.5126 -0.0057
  802TIP3    H124041   1.871   1.038   1.726 -1.2303  1.0542 -0.5360
  802TIP3    H224042   1.878   0.892   1.687  0.3009  0.0027  3.2056
  803TIP3   OH224043   4.695   2.963   7.921 -0.7376 -0.0943  0.1052
  803TIP3    H124044   4.694   3.054   7.951 -1.9569  0.0269 -0.2548
  803TIP3    H224045   4.781   2.953   7.880 -0.5737  0.8899  0.1699
  804TIP3   OH224046   3.984   3.281   0.104  0.1561 -0.0916 -0.5072
  804TIP3    H124047   3.899   3.317   0.078  0.0414  1.2326  1.4495
  804TIP3    H224048   3.971   3.186   0.105 -1.2153  0.0726 -0.5277
  805TIP3   OH224049   0.812   2.907   8.487 -0.1199  0.1915 -0.1473
  805TIP3    H124050   0.824   2.990   8.533  1.2073  0.0964 -0.2844
  805TIP3    H224051   0.827   2.929   8.395 -0.6996 -0.0265 -0.2996
  806TIP3   OH224052   2.975   4.216   0.174  0.3332 -0.4569  0.1439
  806TIP3    H124053   3.026   4.277   0.228 -0.6202  2.0290 -1.5758
  806TIP3    H224054   2.992   4.243   0.084 -1.7392 -1.4336 -0.6045
  807TIP3   OH224055   0.389   6.738   1.114  0.0304 -0.4356  0.4082
  807TIP3    H124056   0.469   6.770   1.156 -0.5260 -2.6089  3.4999
  807TIP3    H224057   0.398   6.643   1.114 -1.3710 -0.6304 -1.8193
  808TIP3   OH224058   4.581   5.928   7.347 -0.2797 -0.0848  0.0984
  808TIP3    H124059   4.490   5.930   7.374  0.4517 -0.6590  2.9913
  808TIP3    H224060   4.586   5.858   7.282 -1.8894 -0.0369 -0.0971
  809TIP3   OH224061   2.017   1.712   1.700  0.1194 -0.1789 -0.0020
  809TIP3    H124062   1.960   1.702   1.776 -0.1410 -0.0195 -0.1713
  809TIP3    H224063   2.061   1.628   1.691  1.0748  0.1860  1.0454
  810TIP3   OH224064   0.916   5.979   1.586 -0.0778  0.0355  0.1597
  810TIP3    H124065   0.844   5.936   1.538  0.2410 -0.3833  0.0468
  810TIP3    H224066   0.883   6.066   1.606 -0.3637  0.0866 -0.4960
  811TIP3   OH224067   3.922   6.527   6.632 -0.2199  0.5522 -0.1806
  811TIP3    H124068   3.949   6.573   6.712  2.2937 -0.5997 -0.2770
  811TIP3    H224069   4.004   6.509   6.586 -1.3495 -1.4260 -1.5706
  812TIP3   OH224070   4.942   6.481   0.200  0.4042  0.7029  0.1654
  812TIP3    H124071   4.964   6.454   0.289 -0.8864  3.3620  1.4243
  812TIP3    H224072   4.859   6.437   0.181  1.8855 -1.8840 -0.8522
  813TIP3   OH224073   3.450   6.318   7.556 -0.6425 -0.6421 -0.2652
  813TIP3    H124074   3.458   6.331   7.461  0.8797 -0.3384 -0.1268
  813TIP3    H224075   3.541   6.315   7.587 -1.0806 -2.1477  1.0010
  814TIP3   OH224076   1.874   2.611   2.200 -0.8590  0.4766  0.4755
  814TIP3    H124077   1.830   2.692   2.173 -1.6909 -0.4383 -1.0869
  814TIP3    H224078   1.832   2.588   2.282 -0.9569  1.3678  0.6866
  815TIP3   OH224079   1.641   0.450   0.094 -0.0556  0.1730 -0.4609
  815TIP3    H124080   1.597   0.380   0.142  2.1031 -1.9194 -1.2915
  815TIP3    H224081   1.661   0.516   0.161  0.8846 -1.6192  1.1578
  816TIP3   OH224082   1.546   4.841   2.013  0.3317 -0.1180 -0.3865
  816TIP3    H124083   1.500   4.920   1.985 -0.4236 -1.3040 -2.7706
  816TIP3    H224084   1.630   4.873   2.046  0.1039  1.6972 -1.4397
  817TIP3   OH224085   6.146   6.059   8.348 -0.2498 -0.4318 -0.7187
  817TIP3    H124086   6.102   5.987   8.393 -0.6021 -0.1213 -0.5668
  817TIP3    H224087   6.098   6.137   8.374 -0.4225 -0.2366 -1.5823
  818TIP3   OH224088   5.344   0.592   8.391 -0.2982 -0.2651  1.2603
  818TIP3    H124089   5.439   0.582   8.389 -0.0485  1.7883  0.7612
  818TIP3    H224090   5.311   0.505   8.368  1.5329 -0.2152 -2.4050
  819TIP3   OH224091   4.220   1.073   8.307 -0.3734  0.1850 -0.5627
  819TIP3    H124092   4.235   1.014   8.234 -2.9788 -0.4355 -0.6997
  819TIP3    H224093   4.148   1.034   8.356  1.0182  0.7742  2.1870
  820TIP3   OH224094   0.028   0.290   1.683  0.1468 -0.1216 -0.5924
  820TIP3    H124095   0.058   0.349   1.613 -1.9933 -1.1421 -2.5199
  820TIP3    H224096  -0.065   0.310   1.693 -0.3055 -2.1660 -0.3087
  821TIP3   OH224097   0.118   2.659   7.060  0.1268  0.0825 -0.4227
  821TIP3    H124098   0.153   2.710   6.986  0.5202 -1.7993 -1.5835
  821TIP3    H224099   0.192   2.608   7.090 -0.5285 -0.6142  0.0175
  822TIP3   OH224100   2.597   0.543   1.872  0.0532 -0.0137  0.1430
  822TIP3    H124101   2.650   0.619   1.847 -0.7668  0.4648 -0.1825
  822TIP3    H224102   2.624   0.523   1.961  0.6778  0.3078  0.0313
  823TIP3   OH224103   4.564   5.610   8.314 -0.6285  1.0191 -0.4653
  823TIP3    H124104   4.613   5.569   8.385  0.2165  0.4582 -1.3398
  823TIP3    H224105   4.476   5.573   8.320  0.1619 -1.2059 -1.3681
  824TIP3   OH224106   0.451   2.030   7.233  0.5271 -0.1085 -0.5980
  824TIP3    H124107   0.442   1.937   7.208 -0.3392 -0.1140 -0.3062
  824TIP3    H224108   0.451   2.077   7.149  2.1232 -0.4438 -0.8084
  825TIP3   OH224109   3.197   0.998   8.386 -0.5329  0.4501  0.1338
  825TIP3    H124110   3.218   1.085   8.350  0.9475  0.0580 -0.0350
  825TIP3    H224111   3.280   0.968   8.423 -0.9666 -1.0126 -0.0430
  826TIP3   OH224112   4.379   5.095   0.694 -0.3663  0.2991 -0.1466
  826TIP3    H124113   4.349   5.186   0.693 -1.6626 -0.1108 -0.8787
  826TIP3    H224114   4.470   5.100   0.663  1.1940  1.7944  3.9146
  827TIP3   OH224115   0.424   2.298   0.600  0.1027 -0.1217 -0.1087
  827TIP3    H124116   0.376   2.380   0.590 -0.9627 -0.8404 -1.1063
  827TIP3    H224117   0.416   2.277   0.693 -0.4763  0.3772 -0.0394
  828TIP3   OH224118   0.790   4.523   0.498  0.2583  0.0772  0.5003
  828TIP3    H124119   0.828   4.527   0.586  0.4249  1.6323  0.3805
  828TIP3    H224120   0.862   4.545   0.439 -0.0218 -0.2716  0.0174
  829TIP3   OH224121   1.245   4.544   2.681 -0.7075  0.3073  0.2113
  829TIP3    H124122   1.153   4.518   2.675 -0.6521 -0.1308  1.1275
  829TIP3    H224123   1.290   4.465   2.711  0.1401  0.2098 -1.2277
  830TIP3   OH224124   2.410   4.874   2.546  0.2184 -0.2239  0.1577
  830TIP3    H124125   2.417   4.810   2.617  1.0074  0.1604  0.4433
  830TIP3    H224126   2.438   4.956   2.585  2.2980 -0.3184 -0.9973
  831TIP3   OH224127   2.070   0.316   1.837 -0.0007 -0.1657 -0.3081
  831TIP3    H124128   2.052   0.260   1.912 -0.4639 -0.7491 -0.8403
  831TIP3    H224129   2.147   0.367   1.863  0.0344 -0.5797  0.4375
  832TIP3   OH224130   4.650   2.402   0.345  0.5222  0.2476  0.2273
  832TIP3    H124131   4.674   2.320   0.389 -0.8960 -0.5726 -0.4791
  832TIP3    H224132   4.643   2.378   0.253  0.7104  1.3273 -0.0792
  833TIP3   OH224133   5.066   3.014   0.986 -0.6087  0.1034 -0.0030
  833TIP3    H124134   5.111   3.017   1.070  0.1189  2.0578 -0.4188
  833TIP3    H224135   5.045   3.105   0.966 -3.6879 -0.5621 -0.4522
  834TIP3   OH224136   0.999   6.899   8.421  0.4911 -0.4431 -0.9858
  834TIP3    H124137   1.022   6.987   8.391 -0.6107  1.2044  2.4345
  834TIP3    H224138   1.077   6.847   8.403  2.4066  2.0189 -0.4120
  835TIP3   OH224139   6.933   1.134   0.051 -0.2989  0.1885 -0.0178
  835TIP3    H124140   6.948   1.176   0.136  2.6721 -1.1078  0.2113
  835TIP3    H224141   6.881   1.056   0.072  1.0542 -0.5407  0.8011
  836TIP3   OH224142   6.762   0.269   0.845 -0.0428 -0.3707  0.5738
  836TIP3    H124143   6.736   0.326   0.772  0.1161 -0.1464  0.6931
  836TIP3    H224144   6.682   0.224   0.869 -0.6278  1.2377  1.7648
  837TIP3   OH224145   3.705   4.554   1.771 -0.5300  0.3329 -0.4311
  837TIP3    H124146   3.689   4.461   1.789 -1.9202  0.4737 -0.8789
  837TIP3    H224147   3.775   4.553   1.706  0.1347 -0.3565  0.2567
  838TIP3   OH224148   6.700   2.995   0.515 -0.1108 -0.1892 -0.0408
  838TIP3    H124149   6.643   3.057   0.472 -0.6215 -0.6807 -0.0826
  838TIP3    H224150   6.693   3.015   0.608  1.2326  1.0783 -0.1674
  839TIP3   OH224151   6.128   5.049   6.843 -0.0675 -0.1326  0.0057
  839TIP3    H124152   6.199   5.034   6.780 -0.4078 -0.3825 -0.3256
  839TIP3    H224153   6.111   5.143   6.838 -0.8681 -0.3159 -1.1391
  840TIP3   OH224154   0.877   0.256   8.558  0.0988 -0.2148  0.5198
  840TIP3    H124155   0.825   0.329   8.523  0.1031  1.0817  2.9899
  840TIP3    H224156   0.816   0.207   8.613  0.8794 -0.0956  1.5204
  841TIP3   OH224157   5.404   6.565   0.114  0.2158  0.5769 -0.0811
  841TIP3    H124158   5.481   6.544   0.062  0.4900  0.7519  0.2469
  841TIP3    H224159   5.395   6.492   0.175 -0.7064 -0.1383 -1.0261
  842TIP3   OH224160   2.601   4.995   2.186  0.1033 -0.1089 -0.1244
  842TIP3    H124161   2.644   4.935   2.125 -0.5328 -0.6226 -0.0732
  842TIP3    H224162   2.644   5.079   2.171 -0.5294 -0.0448 -1.7971
  843TIP3   OH224163   4.079   0.127   0.096  0.1614 -0.5851  0.0634
  843TIP3    H124164   3.999   0.152   0.141  1.1523  0.5054  1.3398
  843TIP3    H224165   4.061   0.141   0.003 -0.9367  0.1601  0.3773
  844TIP3   OH224166   2.600   2.203   8.484  0.5952 -0.2145 -0.4896
  844TIP3    H124167   2.634   2.171   8.567 -0.8795 -0.2588  0.1195
  844TIP3    H224168   2.656   2.278   8.462  0.9408 -0.1510  0.5791
  845TIP3   OH224169   0.928   3.899   1.183 -0.5175  0.3415  0.2852
  845TIP3    H124170   0.868   3.947   1.240 -1.2776 -0.6455  0.3445
  845TIP3    H224171   0.873   3.835   1.139  0.9434 -3.0908  2.9897
  846TIP3   OH224172   3.569   6.264   0.264  0.3029 -0.4114  0.1577
  846TIP3    H124173   3.623   6.221   0.198 -0.7406  0.0982 -1.0811
  846TIP3    H224174   3.535   6.193   0.319  1.0018 -0.8671  0.0011
  847TIP3   OH224175   4.920   4.642   2.103 -0.3744 -0.0261 -0.3603
  847TIP3    H124176   4.964   4.692   2.171 -1.2591 -0.3560  0.4785
  847TIP3    H224177   4.926   4.551   2.131  0.3685 -0.3075 -1.3795
  848TIP3   OH224178   2.633   4.159   2.484  0.1538 -0.0839  0.6780
  848TIP3    H124179   2.578   4.083   2.500 -0.7732  0.2837 -0.5831
  848TIP3    H224180   2.614   4.219   2.556  2.3943 -1.7626  2.8519
  849TIP3   OH224181   6.683   0.036   7.630  0.0994 -0.1581 -0.0226
  849TIP3    H124182   6.712   0.087   7.706  0.1065  0.0600 -0.1717
  849TIP3    H224183   6.601   0.077   7.603  0.4892  0.2575 -0.6070
  850TIP3   OH224184   2.527   3.286   0.196  0.3339 -0.7275 -0.2173
  850TIP3    H124185   2.491   3.329   0.118  1.5574 -0.6815 -0.7676
  850TIP3    H224186   2.589   3.349   0.232  0.2820 -1.0310  0.4173
  851TIP3   OH224187   6.376   6.426   7.913  0.1739 -0.6230  0.4136
  851TIP3    H124188   6.422   6.360   7.861 -0.8411  0.6295 -2.2514
  851TIP3    H224189   6.383   6.506   7.861 -1.7313  0.5111  1.7859
  852TIP3   OH224190   5.229   1.239   2.924 -0.2601  0.6120 -0.5365
  852TIP3    H124191   5.252   1.156   2.966  0.8321  0.6909 -0.9598
  852TIP3    H224192   5.212   1.215   2.833 -0.7714  0.7362 -0.4804
  853TIP3   OH224193   6.707   6.704   1.138 -0.1447 -0.3152  0.1097
  853TIP3    H124194   6.792   6.686   1.097 -0.7220 -0.7486 -0.9458
  853TIP3    H224195   6.719   6.786   1.185  1.3304 -1.2121  1.3791
  854TIP3   OH224196   3.660   1.023   2.445  0.3717  0.9158  0.4910
  854TIP3    H124197   3.595   0.959   2.417  1.5016 -0.4315  0.8478
  854TIP3    H224198   3.633   1.046   2.535  1.4367 -1.1437  1.4035
  855TIP3   OH224199   0.301   5.008   7.948 -0.1380 -0.2658 -0.4407
  855TIP3    H124200   0.235   5.074   7.927  0.4992  1.2913  2.0680
  855TIP3    H224201   0.359   5.050   8.011  0.5630 -3.0977  0.9953
  856TIP3   OH224202   4.493   5.159   0.016  0.0973 -0.1996  0.0983
  856TIP3    H124203   4.478   5.071   0.049  0.5747 -0.2452  0.1959
  856TIP3    H224204   4.584   5.179   0.039  0.3830 -0.1471 -0.9823
  857TIP3   OH224205   5.783   4.155   7.395 -0.7844 -0.5478  0.7526
  857TIP3    H124206   5.755   4.247   7.394 -1.6503 -0.7646 -2.0198
  857TIP3    H224207   5.806   4.135   7.304  0.9384 -2.6579  1.5657
  858TIP3   OH224208   5.910   3.564   6.735 -0.6110 -1.2603 -0.4293
  858TIP3    H124209   5.924   3.535   6.645 -2.9661 -0.5558 -1.0789
  858TIP3    H224210   5.986   3.620   6.754 -0.7414 -0.2770 -2.4918
  859TIP3   OH224211   2.999   0.709   0.346 -1.0370 -0.0983  0.2652
  859TIP3    H124212   2.990   0.639   0.411 -0.8476 -0.4027 -0.0370
  859TIP3    H224213   3.083   0.693   0.305 -1.9916 -1.0405 -1.4041
  860TIP3   OH224214   4.286   0.629   0.738 -0.0002 -0.0209 -0.8534
  860TIP3    H124215   4.272   0.535   0.726 -1.6782  0.2400 -1.1723
  860TIP3    H224216   4.206   0.660   0.779  0.7686  1.1957 -0.2084
  861TIP3   OH224217   5.895   5.854   0.774 -0.4371 -0.4564  0.1857
  861TIP3    H124218   5.898   5.862   0.678 -1.2675  0.8314  0.2520
  861TIP3    H224219   5.859   5.937   0.804 -0.9830 -1.1661  1.5730
  862TIP3   OH224220   2.114   1.055   0.851  0.4880 -0.4352  0.5036
  862TIP3    H124221   2.194   1.020   0.890  1.7216  1.0144 -0.5931
  862TIP3    H224222   2.144   1.129   0.798 -1.4296 -0.6986 -1.0525
  863TIP3   OH224223   2.108   5.246   7.621  0.4305  0.4548 -0.4599
  863TIP3    H124224   2.159   5.165   7.609  0.0356  0.1431 -0.0656
  863TIP3    H224225   2.052   5.251   7.544 -1.3529 -0.9912  0.6735
  864TIP3   OH224226   0.022   1.176   2.047  0.0609  0.2725  0.3765
  864TIP3    H124227   0.030   1.081   2.039 -0.9123  0.1964  0.1037
  864TIP3    H224228  -0.070   1.190   2.070 -0.1038  1.2146 -0.7720
  865TIP3   OH224229   6.089   5.382   1.558 -0.3854  0.3696 -0.3455
  865TIP3    H124230   5.994   5.372   1.551 -0.4643 -1.0644  1.8195
  865TIP3    H224231   6.102   5.435   1.637  0.6198  0.2479 -0.4098
  866TIP3   OH224232   5.481   5.324   0.006  0.2703 -0.0385  0.4870
  866TIP3    H124233   5.569   5.290  -0.011  0.0028 -0.5865  0.1449
  866TIP3    H224234   5.495   5.411   0.042  0.9692 -0.3445  0.9753
  867TIP3   OH224235   2.814   4.887   0.773 -0.5716  0.1796  0.8912
  867TIP3    H124236   2.802   4.814   0.712  0.8044  0.1985  0.5790
  867TIP3    H224237   2.742   4.947   0.752  0.5638  0.7933 -1.6266
  868TIP3   OH224238   4.905   3.611   0.838  0.4532  0.0421  0.0977
  868TIP3    H124239   4.996   3.593   0.816  0.3968  0.5158 -0.5476
  868TIP3    H224240   4.858   3.602   0.755  0.1718  1.4242  0.0830
  869TIP3   OH224241   5.875   1.690   2.748  0.1188 -0.0473  0.0921
  869TIP3    H124242   5.927   1.766   2.724 -2.6905  1.8198 -0.5892
  869TIP3    H224243   5.846   1.707   2.837 -1.6796  0.4805 -0.5380
  870TIP3   OH224244   3.401   3.533   0.677 -0.4608 -0.0204  0.1617
  870TIP3    H124245   3.369   3.601   0.737 -0.1929  0.5606 -0.3386
  870TIP3    H224246   3.399   3.453   0.728 -1.6955  0.1862  0.4751
  871TIP3   OH224247   6.917   2.631   0.053  0.0538 -0.1544  0.0430
  871TIP3    H124248   6.848   2.626   0.119 -0.0171 -1.8814 -0.1027
  871TIP3    H224249   6.975   2.700   0.084 -0.7488  0.0473  1.1530
  872TIP3   OH224250   5.216   1.496   8.189 -0.0216 -0.2260 -0.3685
  872TIP3    H124251   5.285   1.549   8.229 -0.2479 -0.0717 -0.1731
  872TIP3    H224252   5.157   1.476   8.262  0.2693 -1.0864 -0.3607
  873TIP3   OH224253   1.867   3.161   2.033 -0.4083 -0.1554  0.0236
  873TIP3    H124254   1.774   3.165   2.058 -0.4410  1.1986 -0.2066
  873TIP3    H224255   1.867   3.188   1.941  0.2348  0.0266  0.0745
  874TIP3   OH224256   1.706   4.365   7.255 -0.0168 -0.0545  0.1459
  874TIP3    H124257   1.673   4.307   7.186  0.6723 -0.5875  0.2500
  874TIP3    H224258   1.629   4.413   7.285 -0.5857 -0.8185 -0.0526
  875TIP3   OH224259   5.871   6.527   0.189 -0.5614 -0.1640  0.0037
  875TIP3    H124260   5.915   6.598   0.235 -1.3904  0.8246 -0.6813
  875TIP3    H224261   5.833   6.568   0.112 -2.3555 -1.0288  0.3675
  876TIP3   OH224262   1.928   3.119   0.784 -0.2210 -0.3494 -0.3615
  876TIP3    H124263   1.892   3.204   0.809 -0.4136  0.1337 -2.1778
  876TIP3    H224264   2.012   3.139   0.745 -0.0813 -1.0432 -0.4197
  877TIP3   OH224265   3.872   1.441   2.118 -0.1442 -0.1891  0.2042
  877TIP3    H124266   3.842   1.527   2.087  1.1889  0.8395  1.6220
  877TIP3    H224267   3.808   1.379   2.082  0.7891  0.9127 -3.8845
  878TIP3   OH224268   4.556   5.017   1.367 -0.0807  0.4385 -0.5243
  878TIP3    H124269   4.565   5.027   1.462  0.0962  0.5979 -0.5574
  878TIP3    H224270   4.611   5.087   1.331  1.1278 -0.6005 -0.7625
  879TIP3   OH224271   5.169   1.811   2.405  0.0880  0.3310  0.0836
  879TIP3    H124272   5.089   1.766   2.433 -1.1972  1.8704 -0.9341
  879TIP3    H224273   5.184   1.780   2.316 -0.9440  1.9785 -0.7167
  880TIP3   OH224274   1.717   1.001   1.053  0.0840  0.0015 -0.1179
  880TIP3    H124275   1.769   0.921   1.054  1.7451  0.8927 -2.9783
  880TIP3    H224276   1.782   1.072   1.057 -1.1114  1.1806 -0.8406
  881TIP3   OH224277   6.245   2.894   7.804  0.2102  0.1632 -0.3634
  881TIP3    H124278   6.259   2.802   7.825  1.2486  0.6415  1.2394
  881TIP3    H224279   6.261   2.900   7.709 -2.3304 -1.6951 -1.0151
  882TIP3   OH224280   5.484   6.037   6.827 -0.1120 -0.0164  0.0698
  882TIP3    H124281   5.560   5.981   6.815 -0.6877 -0.8259  0.1701
  882TIP3    H224282   5.490   6.067   6.918  0.2836  0.2342 -0.0341
  883TIP3   OH224283   4.130   6.377   1.993 -0.5521  0.3240 -0.1901
  883TIP3    H124284   4.127   6.359   1.899  0.7321  1.3082 -0.4349
  883TIP3    H224285   4.222   6.365   2.018 -1.1040 -1.4667  1.2903
  884TIP3   OH224286   3.468   3.080   7.590 -0.1836 -0.1153  0.8199
  884TIP3    H124287   3.456   3.008   7.528 -0.1243  0.8635 -0.3519
  884TIP3    H224288   3.480   3.036   7.674 -1.4632 -1.4327  0.3606
  885TIP3   OH224289   4.202   5.282   6.093  0.4692  0.0362 -0.1875
  885TIP3    H124290   4.246   5.336   6.028 -1.2013  1.2586 -0.3618
  885TIP3    H224291   4.171   5.343   6.159  0.3461 -0.9538  0.6996
  886TIP3   OH224292   0.517   3.881   1.281 -0.5404 -0.6642  0.1673
  886TIP3    H124293   0.482   3.880   1.370 -2.0450 -3.0291 -0.3614
  886TIP3    H224294   0.541   3.790   1.263  0.0370 -0.1893 -1.7395
  887TIP3   OH224295   4.335   2.070   0.454  0.2067  0.1290  0.0480
  887TIP3    H124296   4.314   1.993   0.400 -1.1315  1.5851 -1.6256
  887TIP3    H224297   4.352   2.139   0.391 -0.7769  1.7581  1.4879
  888TIP3   OH224298   5.706   1.097   0.727 -0.0703  0.0909  1.3185
  888TIP3    H124299   5.719   1.107   0.822 -1.8304 -1.0131  1.7118
  888TIP3    H224300   5.645   1.024   0.719 -1.5816  1.4683 -0.5796
  889TIP3   OH224301   0.897   4.801   2.809 -0.3485 -0.1610  0.6102
  889TIP3    H124302   0.979   4.849   2.801  0.6425 -2.0488 -1.9733
  889TIP3    H224303   0.844   4.830   2.735 -0.3995 -1.7143 -0.0134
  890TIP3   OH224304   2.901   4.656   1.222  0.6211 -0.2289  0.7990
  890TIP3    H124305   2.848   4.691   1.152 -0.8585 -1.4322  1.2556
  890TIP3    H224306   2.977   4.618   1.178 -0.3077 -1.0200 -0.1821
  891TIP3   OH224307   4.662   2.819   0.713  0.0870  0.4304 -0.3938
  891TIP3    H124308   4.755   2.838   0.699 -0.6776  2.6022 -3.6407
  891TIP3    H224309   4.631   2.787   0.628 -2.2390  0.1626  0.4825
  892TIP3   OH224310   0.652   5.509   8.278  0.1625  0.2217  0.0141
  892TIP3    H124311   0.607   5.583   8.318 -0.0600  0.6443 -0.9931
  892TIP3    H224312   0.744   5.523   8.298 -0.0297 -0.0698  1.1542
  893TIP3   OH224313   5.233   1.030   0.530  1.0606 -0.0598  0.4532
  893TIP3    H124314   5.247   0.935   0.525  0.6107 -0.1314  0.5753
  893TIP3    H224315   5.247   1.061   0.440  0.1775 -0.3831  0.1954
  894TIP3   OH224316   1.136   0.178   2.022  0.0685 -0.4351 -0.0592
  894TIP3    H124317   1.136   0.196   2.116 -0.6554  0.0599 -0.1481
  894TIP3    H224318   1.151   0.263   1.981  2.8142 -0.9651 -0.3732
  895TIP3   OH224319   1.047   6.304   0.887 -0.5121 -0.0900 -0.4016
  895TIP3    H124320   0.978   6.318   0.951 -1.3021 -0.9376 -1.0388
  895TIP3    H224321   1.035   6.214   0.858  1.6823 -0.7170  0.4124
  896TIP3   OH224322   2.959   4.347   8.512 -0.0922  0.9193  0.0268
  896TIP3    H124323   2.953   4.273   8.451 -0.3161 -0.6095  1.8344
  896TIP3    H224324   2.873   4.389   8.508  0.0650  1.1697 -1.0739
  897TIP3   OH224325   0.861   6.224   1.380  1.0881 -0.0377 -0.5935
  897TIP3    H124326   0.861   6.255   1.471 -0.7206 -0.4871 -0.4136
  897TIP3    H224327   0.774   6.186   1.367  1.7270 -1.0538 -2.1644
  898TIP3   OH224328   5.022   3.173   0.155  0.3797 -0.2500  0.0500
  898TIP3    H124329   5.045   3.088   0.118  0.9929  0.0548 -0.2824
  898TIP3    H224330   5.087   3.189   0.223 -0.6630 -0.7441  1.2010
  899TIP3   OH224331   6.261   2.623   7.777 -0.3772  0.3083 -0.1634
  899TIP3    H124332   6.243   2.639   7.870 -0.7577 -1.3364  0.0789
  899TIP3    H224333   6.335   2.562   7.778  1.0798  1.9627 -1.0212
  900TIP3   OH224334   1.640   3.160   0.155 -0.5292  0.1174  0.2321
  900TIP3    H124335   1.571   3.098   0.136 -1.5996  0.8291  1.6023
  900TIP3    H224336   1.603   3.245   0.131  0.4405  0.3681 -0.4334
  901TIP3   OH224337   6.463   4.069   1.642  0.0182 -0.0462 -0.2083
  901TIP3    H124338   6.465   4.165   1.641  0.5303 -0.0523  0.0304
  901TIP3    H224339   6.541   4.043   1.593  0.4691 -0.3340  0.6414
  902TIP3   OH224340   5.761   4.055   7.726 -0.0290 -0.1998  0.4348
  902TIP3    H124341   5.742   4.101   7.645 -2.3682 -1.8009 -0.0431
  902TIP3    H224342   5.688   3.993   7.736  2.1967 -2.8471  1.6951
  903TIP3   OH224343   4.672   4.574   7.440  0.3212  0.1901 -0.0216
  903TIP3    H124344   4.640   4.522   7.367  0.4351 -0.4016  0.3474
  903TIP3    H224345   4.637   4.662   7.423 -0.0721 -0.0551 -0.5178
  904TIP3   OH224346   0.393   0.253   0.470  0.0819 -0.5964 -0.3613
  904TIP3    H124347   0.329   0.295   0.413 -1.3587  4.4499  4.1596
  904TIP3    H224348   0.342   0.193   0.524  0.1504 -0.5565 -0.2510
  905TIP3   OH224349   2.973   0.512   8.152 -0.1155  0.6281 -0.3922
  905TIP3    H124350   2.894   0.512   8.207  0.4703  1.5278  0.4895
  905TIP3    H224351   2.940   0.507   8.063 -1.2010  1.6719 -0.0735
  906TIP3   OH224352   4.095   1.839   8.145  0.2820 -0.7495  0.0645
  906TIP3    H124353   4.080   1.819   8.053 -0.8801 -0.0432  0.0826
  906TIP3    H224354   4.075   1.932   8.153  0.3076 -0.8171  1.0383
  907TIP3   OH224355   2.100   0.977   8.573  0.2516 -0.0619 -0.3594
  907TIP3    H124356   2.069   1.057   8.531  0.8690  0.9673  1.0816
  907TIP3    H224357   2.192   0.969   8.545  0.0116 -0.6427 -1.0177
  908TIP3   OH224358   2.974   0.392   1.650 -0.4433 -0.0876 -0.2365
  908TIP3    H124359   3.006   0.481   1.638  0.1840 -0.2473  0.1593
  908TIP3    H224360   2.883   0.402   1.679  0.4551  0.5895  2.7560
  909TIP3   OH224361   0.558   1.736   0.751 -0.0791 -0.2997 -0.1593
  909TIP3    H124362   0.601   1.700   0.828  0.5041  1.6699  0.4709
  909TIP3    H224363   0.595   1.686   0.678 -0.1979 -1.7808  0.7459
  910TIP3   OH224364   3.341   2.035   0.670  0.3478  0.3994  0.5563
  910TIP3    H124365   3.379   1.964   0.720  2.0350 -1.7348 -3.3060
  910TIP3    H224366   3.400   2.109   0.684 -0.1407  0.4265  2.8229
  911TIP3   OH224367   4.727   3.214   8.568 -0.4082 -0.2729 -0.9484
  911TIP3    H124368   4.644   3.237   8.609 -0.6396 -1.6612 -0.5799
  911TIP3    H224369   4.717   3.122   8.543  0.8042 -0.2978 -1.4477
  912TIP3   OH224370   6.201   1.150   2.388  0.2480 -0.0054 -0.2807
  912TIP3    H124371   6.164   1.132   2.474  0.6924  0.4080 -0.0045
  912TIP3    H224372   6.127   1.184   2.337 -0.0510 -0.3966 -0.1159
  913TIP3   OH224373   6.819   1.482   2.020 -0.5981  0.3453  0.1984
  913TIP3    H124374   6.874   1.527   2.084 -0.0567  1.0445 -0.7378
  913TIP3    H224375   6.876   1.412   1.986 -0.5467  0.5971 -0.2300
  914TIP3   OH224376   0.754   6.479   7.735  0.0107  0.5037  0.5227
  914TIP3    H124377   0.712   6.512   7.656  0.6916  2.7970  1.0394
  914TIP3    H224378   0.685   6.477   7.800 -0.1104  0.6294  0.3985
  915TIP3   OH224379   4.244   2.392   6.864 -0.1348  0.3369 -0.8006
  915TIP3    H124380   4.324   2.398   6.812  0.2793  0.6236 -0.1515
  915TIP3    H224381   4.210   2.482   6.867  1.0926  0.8103  1.2985
  916TIP3   OH224382   3.856   6.253   2.335 -0.7486  0.3672  0.3705
  916TIP3    H124383   3.905   6.187   2.385  2.5026  0.9426 -1.6951
  916TIP3    H224384   3.840   6.324   2.396 -1.4747 -0.9830  1.8180
  917TIP3   OH224385   0.530   6.802   0.376  0.0202 -0.2346  0.0976
  917TIP3    H124386   0.512   6.894   0.395 -0.9502 -0.5036  0.5840
  917TIP3    H224387   0.482   6.754   0.445  0.5351 -1.0947 -0.1282
  918TIP3   OH224388   2.999   5.244   1.683  0.3277  0.8327 -0.1549
  918TIP3    H124389   3.061   5.307   1.646  1.1478  0.0055 -0.2599
  918TIP3    H224390   3.020   5.243   1.776  1.3627 -0.3599 -0.3733
  919TIP3   OH224391   5.087   0.418   0.938 -0.3005  0.4061  0.7017
  919TIP3    H124392   5.088   0.347   1.002 -0.0336  0.1492  0.4105
  919TIP3    H224393   5.119   0.379   0.857 -1.0037  0.6451  0.3057
  920TIP3   OH224394   6.297   0.303   6.923 -0.2202  0.4320  0.2585
  920TIP3    H124395   6.381   0.341   6.896  0.1626 -0.2080  0.5152
  920TIP3    H224396   6.258   0.270   6.842  0.3553 -0.3733  0.2911
  921TIP3   OH224397   6.138   0.007   8.318  0.8895  0.5117  0.4154
  921TIP3    H124398   6.225  -0.015   8.287  0.8727  0.8485  0.1220
  921TIP3    H224399   6.085  -0.071   8.299  0.6884  0.9961 -1.1791
  922TIP3   OH224400   2.001   3.654   1.220 -0.4955  0.0690  0.0700
  922TIP3    H124401   2.089   3.630   1.249 -1.5050 -2.3142  1.4226
  922TIP3    H224402   1.976   3.728   1.275  0.6138  0.7072 -0.2664
  923TIP3   OH224403   3.858   0.894   2.005 -0.4606 -0.3063 -0.2918
  923TIP3    H124404   3.763   0.884   2.012 -0.7831  2.1909 -0.4533
  923TIP3    H224405   3.888   0.895   2.096 -0.8001  0.5798 -0.1852
  924TIP3   OH224406   2.851   4.225   2.120  0.2845 -0.1355  0.1140
  924TIP3    H124407   2.944   4.244   2.111 -0.3369  2.3451 -2.3954
  924TIP3    H224408   2.820   4.287   2.186  0.0062  0.6864 -0.7834
  925TIP3   OH224409   2.866   3.887   8.216  0.1536 -0.1910 -0.2488
  925TIP3    H124410   2.913   3.845   8.144 -1.6360 -1.0304 -1.0009
  925TIP3    H224411   2.883   3.831   8.291  1.5518  0.3596 -0.1381
  926TIP3   OH224412   5.692   2.331   8.247 -0.4683  0.4751  0.0414
  926TIP3    H124413   5.741   2.329   8.329 -0.4322  0.7564  0.0283
  926TIP3    H224414   5.602   2.314   8.273 -0.2258 -1.0463 -0.0523
  927TIP3   OH224415   0.567   1.927   8.401  0.3897 -0.8295  0.1611
  927TIP3    H124416   0.517   1.862   8.351 -0.2013  0.1100 -0.4903
  927TIP3    H224417   0.526   1.927   8.487 -0.9429  0.1163 -0.4377
  928TIP3   OH224418   4.537   5.606   8.043  0.2654  0.7066  0.6002
  928TIP3    H124419   4.447   5.625   8.016  0.8875  1.3657 -1.1652
  928TIP3    H224420   4.536   5.614   8.138 -0.9077  3.6944  0.4326
  929TIP3   OH224421   5.398   4.749   7.446  0.3778  0.0275  0.2672
  929TIP3    H124422   5.413   4.840   7.470  3.9026  0.0581 -1.4070
  929TIP3    H224423   5.417   4.700   7.526  1.9341  0.6418  0.3132
  930TIP3   OH224424   5.968   6.292   7.354 -0.9409 -0.0900 -0.4647
  930TIP3    H124425   5.949   6.201   7.379  1.3672  0.1719  2.9074
  930TIP3    H224426   5.888   6.339   7.373 -1.4504 -1.0827 -0.0680
  931TIP3   OH224427   0.412   4.575   0.692  0.8198  0.1005 -0.2151
  931TIP3    H124428   0.472   4.645   0.665  1.6753 -0.9962 -1.2589
  931TIP3    H224429   0.460   4.527   0.759  0.1321  0.6381  0.6820
  932TIP3   OH224430   0.317   1.806   1.391  0.1580  0.1403  0.1063
  932TIP3    H124431   0.242   1.775   1.441 -0.6606  0.8226 -0.6702
  932TIP3    H224432   0.343   1.888   1.433  0.7775 -0.3320  0.6620
  933TIP3   OH224433   5.179   0.923   1.996  0.0316 -0.2221  0.2761
  933TIP3    H124434   5.203   0.837   2.031  1.4073  0.1536  0.3020
  933TIP3    H224435   5.160   0.907   1.903 -1.6657 -0.8705  0.6951
  934TIP3   OH224436   3.159   2.631   1.404 -0.4610  0.4067 -0.2803
  934TIP3    H124437   3.129   2.542   1.420  0.1112  0.1964 -0.3594
  934TIP3    H224438   3.213   2.625   1.326  1.4564  0.3884  0.9827
  935TIP3   OH224439   6.616   1.443   8.486 -0.0817 -0.2800  0.0434
  935TIP3    H124440   6.658   1.434   8.400  0.6377  0.6814  0.2828
  935TIP3    H224441   6.582   1.532   8.487  1.4355  0.3433  1.3902
  936TIP3   OH224442   2.333   0.810   0.172  0.2598 -0.4887 -0.6664
  936TIP3    H124443   2.397   0.878   0.194  0.6487 -0.7196 -1.0629
  936TIP3    H224444   2.318   0.764   0.254  0.0814  0.0073 -0.4220
  937TIP3   OH224445   6.519   1.662   0.504 -0.0001 -0.2806  0.1820
  937TIP3    H124446   6.435   1.616   0.506  0.4204 -1.1714 -0.9942
  937TIP3    H224447   6.505   1.735   0.444 -0.6946  1.2520  2.1209
  938TIP3   OH224448   4.424   5.381   7.797  0.3941 -0.1245 -0.7528
  938TIP3    H124449   4.335   5.346   7.795 -0.4790  1.6981  1.5484
  938TIP3    H224450   4.456   5.363   7.885  1.8580  0.2753 -1.1708
  939TIP3   OH224451   4.110   2.057   1.201 -0.1335 -0.1925  0.8611
  939TIP3    H124452   4.180   2.069   1.265  0.5856 -0.0400  0.0638
  939TIP3    H224453   4.145   2.095   1.120 -1.4597  0.6444  0.6514
  940TIP3   OH224454   1.756   4.750   1.638  0.6935 -0.0832  0.1497
  940TIP3    H124455   1.833   4.719   1.686  0.4342  0.9459  1.2928
  940TIP3    H224456   1.752   4.844   1.659 -0.6998 -0.0661 -0.1381
  941TIP3   OH224457   6.578   0.893   1.554  0.2283  0.4420 -0.2618
  941TIP3    H124458   6.646   0.911   1.489  1.0274  0.0599  0.4497
  941TIP3    H224459   6.502   0.943   1.524  0.4192 -0.1119 -1.7423
  942TIP3   OH224460   1.739   4.283   0.026  0.7262  0.3805  0.1973
  942TIP3    H124461   1.805   4.247   0.084  1.3799 -1.6523 -1.6593
  942TIP3    H224462   1.693   4.207  -0.008 -0.8829  1.6122 -0.4979
  943TIP3   OH224463   2.752   5.374   2.470 -0.3495 -0.1046 -0.5859
  943TIP3    H124464   2.700   5.399   2.546 -0.9207  0.5368 -1.1696
  943TIP3    H224465   2.833   5.340   2.506 -0.7577 -0.1384  0.3158
  944TIP3   OH224466   0.147   0.311   7.003 -0.4082  0.0313 -0.6053
  944TIP3    H124467   0.241   0.299   6.991 -0.0813 -1.7503  2.6601
  944TIP3    H224468   0.139   0.369   7.079 -1.9934  0.7629 -1.2753
  945TIP3   OH224469   2.282   6.106   0.077 -0.3366  0.4142 -0.1718
  945TIP3    H124470   2.299   6.114  -0.016 -0.4060  1.2735 -0.1135
  945TIP3    H224471   2.344   6.040   0.107 -0.7559 -0.3546 -0.9362
  946TIP3   OH224472   6.706   3.150   7.296  0.4498  0.5885 -0.1424
  946TIP3    H124473   6.646   3.083   7.329  0.5066 -1.0416 -3.0105
  946TIP3    H224474   6.719   3.127   7.204  2.0263  3.4776 -0.7481
  947TIP3   OH224475   0.706   2.311   0.434  0.4355 -0.3894  0.2874
  947TIP3    H124476   0.627   2.308   0.487  0.5922 -2.3007  0.4936
  947TIP3    H224477   0.674   2.309   0.344  0.2348 -0.9634  0.3671
  948TIP3   OH224478   4.867   4.949   0.771 -0.2327 -0.0740  0.2555
  948TIP3    H124479   4.826   4.863   0.760 -0.3189 -0.2364  1.6681
  948TIP3    H224480   4.907   4.968   0.686  0.5581 -1.9159  0.1847
  949TIP3   OH224481   0.573   4.085   8.475 -0.5177 -0.1057 -0.0092
  949TIP3    H124482   0.580   4.008   8.531 -1.8457 -0.7326 -0.6462
  949TIP3    H224483   0.553   4.157   8.534 -3.3359 -1.0010  0.2696
  950TIP3   OH224484   4.762   1.979   7.371 -0.4282  0.3115  0.3767
  950TIP3    H124485   4.806   1.988   7.286  0.7809 -2.2781  0.6470
  950TIP3    H224486   4.795   2.053   7.423 -0.6105  1.4961 -1.1416
  951TIP3   OH224487   0.812   1.100   7.762 -0.2941 -0.0564 -0.0465
  951TIP3    H124488   0.841   1.096   7.853  0.2490 -1.6519 -0.2524
  951TIP3    H224489   0.887   1.068   7.712 -1.2670 -1.1163 -0.8723
  952TIP3   OH224490   6.463   2.182   7.494 -0.0726 -0.0534 -0.3656
  952TIP3    H124491   6.417   2.117   7.440 -0.1180  0.3405 -0.8079
  952TIP3    H224492   6.392   2.235   7.531 -0.2133 -1.7300  1.9725
  953TIP3   OH224493   2.203   1.243   0.623 -0.6771  0.1124  0.5053
  953TIP3    H124494   2.152   1.324   0.623  1.3541  1.5235 -1.1048
  953TIP3    H224495   2.293   1.272   0.640  0.5038 -1.4076 -2.4543
  954TIP3   OH224496   3.852   2.568   1.196 -0.3333 -0.4159 -0.0129
  954TIP3    H124497   3.829   2.481   1.229  0.6077 -0.7102 -0.1156
  954TIP3    H224498   3.801   2.629   1.250  1.1944 -0.8669  2.0297
  955TIP3   OH224499   5.076   6.837   1.757  0.1690 -0.2143 -0.4073
  955TIP3    H124500   5.070   6.846   1.852 -1.3909 -0.0918 -0.4911
  955TIP3    H224501   5.167   6.861   1.737  0.3351  0.4445  0.9722
  956TIP3   OH224502   6.908   1.033   0.306  0.0310  0.8133  0.0624
  956TIP3    H124503   6.937   1.122   0.325  1.9366 -0.0810  1.7255
  956TIP3    H224504   6.862   1.006   0.386  1.3621 -0.4019  0.4462
  957TIP3   OH224505   6.249   1.268   0.473  0.3800 -0.6612 -0.1828
  957TIP3    H124506   6.317   1.330   0.448 -0.3225  0.1887 -0.0434
  957TIP3    H224507   6.225   1.225   0.391  0.6068 -0.4690 -0.3507
  958TIP3   OH224508   5.175   3.733   0.569 -0.3258 -0.0760  0.1613
  958TIP3    H124509   5.199   3.684   0.647 -0.5880  0.3617  0.5162
  958TIP3    H224510   5.112   3.797   0.599 -0.2521  0.2491 -0.3689
  959TIP3   OH224511   2.132   0.913   3.367 -0.5531 -0.6041 -0.1085
  959TIP3    H124512   2.083   0.953   3.438 -2.3001 -0.7755 -1.1641
  959TIP3    H224513   2.103   0.959   3.288  0.5687 -1.1103 -0.8523
  960TIP3   OH224514   1.514   1.651   2.167 -0.7351 -0.0029  0.1439
  960TIP3    H124515   1.591   1.598   2.186 -0.4052 -0.3384 -1.9069
  960TIP3    H224516   1.476   1.669   2.253  0.4151 -1.6471  1.0646
  961TIP3   OH224517   3.145   2.534   8.461 -0.1877  0.0174  0.6808
  961TIP3    H124518   3.168   2.442   8.449 -0.6791 -0.1448  0.9521
  961TIP3    H224519   3.230   2.580   8.461  0.1758 -0.6023  1.9792
  962TIP3   OH224520   1.830   5.804   7.402 -0.4505 -0.4240  0.5922
  962TIP3    H124521   1.917   5.836   7.377 -1.6745  0.6763 -2.8316
  962TIP3    H224522   1.797   5.869   7.464  0.1533  0.6738 -0.2114
  963TIP3   OH224523   3.302   0.549   7.854 -0.1387 -0.3798 -0.7300
  963TIP3    H124524   3.361   0.569   7.781  0.2744  2.3824  0.2370
  963TIP3    H224525   3.319   0.618   7.918 -0.6740 -2.5238  1.9286
  964TIP3   OH224526   6.579   0.029   8.047 -0.0914 -0.2383 -0.6468
  964TIP3    H124527   6.576   0.118   8.013 -2.0066  0.4477  1.0968
  964TIP3    H224528   6.661   0.025   8.096  0.4343  0.2375 -1.4454
  965TIP3   OH224529   3.064   4.628   0.449 -0.1632 -0.1169  0.4374
  965TIP3    H124530   3.099   4.595   0.366  0.5753  1.7853 -0.0546
  965TIP3    H224531   3.090   4.562   0.513  2.5004  0.1157 -0.2695
  966TIP3   OH224532   3.449   4.328   7.275 -0.0647  0.3497  0.1750
  966TIP3    H124533   3.472   4.383   7.350  0.3338  0.7630 -0.2451
  966TIP3    H224534   3.430   4.390   7.204 -3.5408  0.1129  0.7307
  967TIP3   OH224535   1.148   0.460   7.906 -0.0327  0.2294  0.4008
  967TIP3    H124536   1.110   0.484   7.991  0.4099  0.2245  0.6078
  967TIP3    H224537   1.184   0.543   7.872 -4.5891  1.4550 -2.1831
  968TIP3   OH224538   6.689   5.702   1.754 -0.2914  0.2067  0.2175
  968TIP3    H124539   6.702   5.687   1.661  0.0032 -1.3866  0.4920
  968TIP3    H224540   6.738   5.632   1.797  0.2729  1.4002  1.6079
  969TIP3   OH224541   6.238   1.667   0.643 -0.1355  0.3949 -0.0897
  969TIP3    H124542   6.233   1.727   0.717 -2.1561 -0.7173  0.7552
  969TIP3    H224543   6.147   1.653   0.617  0.5088  0.8723 -2.9549
  970TIP3   OH224544   4.925   0.198   0.831 -0.1470 -0.0274  0.6792
  970TIP3    H124545   4.973   0.266   0.784 -0.0568  1.0377  2.2500
  970TIP3    H224546   4.838   0.199   0.793  0.1447  0.2518 -0.0041
  971TIP3   OH224547   5.949   5.396   7.313  0.1784 -0.0071  0.4497
  971TIP3    H124548   5.963   5.315   7.264 -0.7514 -0.1457  0.3796
  971TIP3    H224549   5.936   5.367   7.404 -0.4738  0.0200  0.3727
  972TIP3   OH224550   2.451   5.358   7.385  0.2702 -0.2711  0.0211
  972TIP3    H124551   2.521   5.296   7.407 -0.8797 -2.3786 -1.8069
  972TIP3    H224552   2.373   5.304   7.376 -2.0127  2.1324  3.1030
  973TIP3   OH224553   0.840   4.751   8.393  0.0225 -0.1393  0.0581
  973TIP3    H124554   0.928   4.770   8.426 -1.1836  2.0875  2.2876
  973TIP3    H224555   0.834   4.801   8.311  1.6698 -2.5280 -1.6770
  974TIP3   OH224556   6.826   5.755   8.564 -0.2759 -0.4362  0.3334
  974TIP3    H124557   6.892   5.789   8.503 -1.3213  0.8725 -0.1050
  974TIP3    H224558   6.851   5.792   8.649 -0.9819  0.9046 -0.0105
  975TIP3   OH224559   5.966   4.077   1.924 -0.5485 -0.3106  0.0234
  975TIP3    H124560   5.994   4.027   2.000 -0.1962 -0.3391 -0.1252
  975TIP3    H224561   5.918   4.151   1.961 -0.7823 -0.5762  0.2542
  976TIP3   OH224562   5.070   1.430   8.433 -0.0595 -0.0915 -0.1040
  976TIP3    H124563   5.108   1.404   8.517 -0.0324  1.4289  0.3851
  976TIP3    H224564   5.072   1.350   8.380 -0.8350 -1.2827  1.5947
  977TIP3   OH224565   0.637   6.298   0.443  0.3842  0.9546  0.2982
  977TIP3    H124566   0.680   6.266   0.363 -1.1349  2.2317 -1.1082
  977TIP3    H224567   0.703   6.353   0.485  1.0099  0.7651 -0.4076
  978TIP3   OH224568   0.296   4.225   2.626  0.4323  0.1572 -0.1006
  978TIP3    H124569   0.205   4.194   2.626  0.3672  0.3140  0.8278
  978TIP3    H224570   0.344   4.156   2.671  0.6856  0.3165 -0.1276
  979TIP3   OH224571   1.859   5.402   1.568 -0.0199  0.3217 -0.0070
  979TIP3    H124572   1.930   5.344   1.595 -0.3914 -0.2148 -0.1711
  979TIP3    H224573   1.901   5.487   1.556  0.5924  0.0099 -0.0987
  980TIP3   OH224574   6.272   2.118   0.867  0.4163  0.1010  0.0444
  980TIP3    H124575   6.315   2.076   0.942  1.8570 -0.2646 -0.9546
  980TIP3    H224576   6.333   2.187   0.840 -0.6580  1.0468 -0.0460
  981TIP3   OH224577   0.993   3.884   2.577  0.9716  0.4209  0.0439
  981TIP3    H124578   0.920   3.827   2.552  0.5721  0.4050  1.1949
  981TIP3    H224579   1.026   3.919   2.494  0.7383 -0.8897 -0.6209
  982TIP3   OH224580   6.087   1.148   1.009 -0.5131  1.0837  0.1753
  982TIP3    H124581   6.127   1.144   0.922 -0.2395  2.5353  0.2069
  982TIP3    H224582   6.027   1.074   1.011 -0.4882  0.9903 -1.2291
  983TIP3   OH224583   1.115   1.521   1.248  0.2478  0.0911 -0.1510
  983TIP3    H124584   1.039   1.482   1.289  0.3884 -1.4710 -1.2844
  983TIP3    H224585   1.189   1.499   1.305 -0.0860  1.5654  0.9213
  984TIP3   OH224586   4.136   0.331   0.447 -0.0328  0.0511  0.6966
  984TIP3    H124587   4.200   0.262   0.428  0.7254  1.0434 -0.4667
  984TIP3    H224588   4.179   0.412   0.421 -1.3913  0.8503  0.8494
  985TIP3   OH224589   2.127   6.253   2.415  0.0463  0.1822 -0.8381
  985TIP3    H124590   2.032   6.266   2.415  0.0997  0.8641  0.9874
  985TIP3    H224591   2.163   6.342   2.424  0.8345 -0.1207 -0.8953
  986TIP3   OH224592   1.925   4.862   8.257  0.9986  0.5525  0.3102
  986TIP3    H124593   1.879   4.803   8.318 -0.4382 -0.2462 -1.4614
  986TIP3    H224594   1.996   4.809   8.221  1.3496  0.7695  0.6746
  987TIP3   OH224595   2.321   0.295   2.417 -0.0680  0.3686  0.1769
  987TIP3    H124596   2.353   0.205   2.405 -1.6212 -0.0574 -1.2483
  987TIP3    H224597   2.258   0.288   2.489  1.1894  0.7182  1.3366
  988TIP3   OH224598   1.017   6.282   0.247 -0.0980 -0.2889 -0.1173
  988TIP3    H124599   1.061   6.362   0.219 -0.1044 -0.8227 -1.7443
  988TIP3    H224600   1.052   6.264   0.334  1.2883  0.4748 -0.4913
  989TIP3   OH224601   5.550   1.500   8.491 -0.7272 -0.5957  0.0332
  989TIP3    H124602   5.495   1.532   8.419  1.5569 -1.7761 -2.4369
  989TIP3    H224603   5.578   1.579   8.537 -0.2268  0.5093 -2.0195
  990TIP3   OH224604   5.992   0.238   6.524 -0.2781  0.7271  0.1809
  990TIP3    H124605   5.987   0.170   6.456 -0.5269 -0.8971  1.7378
  990TIP3    H224606   5.933   0.306   6.493 -0.6887 -0.1372 -1.0482
  991TIP3   OH224607   2.352   2.193   8.333  0.3220  0.0635 -0.1311
  991TIP3    H124608   2.439   2.175   8.367  0.4813  0.6132 -0.2466
  991TIP3    H224609   2.298   2.205   8.412  0.1736 -1.0259 -0.0424
  992TIP3   OH224610   3.947   0.074   7.749 -0.2362  0.2127 -0.5419
  992TIP3    H124611   4.016   0.138   7.769 -1.1338  1.6866 -1.9271
  992TIP3    H224612   3.969   0.041   7.662 -1.0114  0.3630 -0.8039
  993TIP3   OH224613   3.083   5.489   1.513  0.1289  0.0382  0.1159
  993TIP3    H124614   3.002   5.526   1.479  0.2585 -1.3306 -1.8777
  993TIP3    H224615   3.128   5.456   1.435  0.9361 -2.3970  1.5275
  994TIP3   OH224616   2.142   2.357   2.599  0.4970  0.2856  0.5244
  994TIP3    H124617   2.194   2.380   2.522 -1.7917  0.6983 -0.9999
  994TIP3    H224618   2.183   2.405   2.671  0.7637  2.5904 -1.0682
  995TIP3   OH224619   4.217   5.841   0.859  0.1259  0.3879  0.0570
  995TIP3    H124620   4.152   5.777   0.886 -0.2004  0.4798 -0.5042
  995TIP3    H224621   4.229   5.897   0.936 -0.8808  0.7127 -0.0077
  996TIP3   OH224622   0.457   4.516   7.505 -0.4423 -0.6609 -0.2565
  996TIP3    H124623   0.522   4.496   7.572 -1.3210  0.7947  1.1129
  996TIP3    H224624   0.377   4.535   7.554 -1.6284 -1.3286 -1.8305
  997TIP3   OH224625   5.314   0.497   1.837 -0.1621  0.3342 -0.0175
  997TIP3    H124626   5.260   0.471   1.912  0.9114  2.0468  1.4462
  997TIP3    H224627   5.376   0.426   1.827 -0.8316 -0.2929  0.1816
  998TIP3   OH224628   0.615   6.018   1.717 -0.9017  0.3472 -0.0388
  998TIP3    H124629   0.647   5.938   1.676  1.8452 -0.5063  3.3348
  998TIP3    H224630   0.523   6.000   1.737 -0.7177 -1.4031 -0.6346
  999TIP3   OH224631   6.481   0.851   0.593 -0.6165  0.7037 -0.3750
  999TIP3    H124632   6.560   0.835   0.543 -0.2415  0.8325  0.1642
  999TIP3    H224633   6.411   0.812   0.541 -0.2300  0.7887 -0.9648
 1000TIP3   OH224634   5.295   1.679   1.831 -0.1804  0.1183 -0.4136
 1000TIP3    H124635   5.364   1.710   1.773  0.1163  1.7633  0.7296
 1000TIP3    H224636   5.335   1.678   1.918 -0.5551 -2.4555 -0.1936
 1001TIP3   OH224637   6.207   4.446   1.720 -0.4456 -0.1824  0.3586
 1001TIP3    H124638   6.133   4.429   1.777 -0.5240  0.9447  0.5973
 1001TIP3    H224639   6.173   4.504   1.652  0.4179  1.1085  0.9893
 1002TIP3   OH224640   3.128   4.194   1.869 -0.1294  0.2217  0.0936
 1002TIP3    H124641   3.124   4.289   1.879  1.2383  0.2472  0.5778
 1002TIP3    H224642   3.047   4.172   1.822 -0.9078  1.5022  0.7720
 1003TIP3   OH224643   4.950   5.745   7.630  0.2552 -0.8632  0.1552
 1003TIP3    H124644   4.949   5.755   7.725  0.2604 -1.3000  0.2013
 1003TIP3    H224645   4.969   5.653   7.616  0.3155 -0.7862 -0.2724
 1004TIP3   OH224646   0.948   0.141   0.854 -0.2658  0.2204  0.3925
 1004TIP3    H124647   1.040   0.150   0.829 -0.2781  1.8303  0.8508
 1004TIP3    H224648   0.907   0.097   0.779  0.5563  0.9799 -0.5244
 1005TIP3   OH224649   2.141   0.508   2.217 -0.2371  0.2184  0.2432
 1005TIP3    H124650   2.097   0.425   2.199 -0.3263  0.1129  0.9174
 1005TIP3    H224651   2.076   0.575   2.195 -0.1393  0.1135 -0.3703
 1006TIP3   OH224652   0.919   1.201   8.258 -0.0976 -0.2683 -0.1682
 1006TIP3    H124653   0.912   1.196   8.162  0.8838  0.3724 -0.2905
 1006TIP3    H224654   1.013   1.198   8.275 -0.1754  1.2345  0.6689
 1007TIP3   OH224655   4.967   2.498   8.564 -0.1853 -0.1625 -0.3464
 1007TIP3    H124656   4.894   2.452   8.524  0.3613 -0.9619 -0.4511
 1007TIP3    H224657   4.967   2.470   8.655  0.0530 -0.2390 -0.3699
 1008TIP3   OH224658   6.848   6.401   0.551 -0.0470  0.2940 -0.7497
 1008TIP3    H124659   6.879   6.432   0.637  2.1801 -0.2380 -1.2784
 1008TIP3    H224660   6.875   6.469   0.490  1.0340 -0.6345 -1.3595
 1009TIP3   OH224661   6.041   6.617   7.610 -0.1926  0.8599  0.0896
 1009TIP3    H124662   5.999   6.629   7.695 -1.1672  0.7038 -0.3542
 1009TIP3    H224663   6.071   6.704   7.584 -0.9122  1.1115  0.0836
 1010TIP3   OH224664   6.164   5.806   0.535  0.6698 -0.5126 -0.2097
 1010TIP3    H124665   6.185   5.713   0.529  0.1364 -0.5619 -2.2553
 1010TIP3    H224666   6.216   5.846   0.465  1.4934  0.8712  1.1381
 1011TIP3   OH224667   6.199   2.318   7.473  0.5234  0.1434  0.5161
 1011TIP3    H124668   6.166   2.407   7.464  1.7474  0.5612  0.0423
 1011TIP3    H224669   6.218   2.309   7.567  0.1228  0.2696  0.6128
 1012TIP3   OH224670   1.371   5.928   0.240  0.2877  0.1176 -0.1900
 1012TIP3    H124671   1.322   5.995   0.288  1.2733  1.0357 -0.4003
 1012TIP3    H224672   1.462   5.942   0.266  0.5865 -0.7367 -0.7290
 1013TIP3   OH224673   5.128   5.905   8.508 -0.1804 -0.0354  0.3018
 1013TIP3    H124674   5.048   5.944   8.542 -0.5531 -0.9145  0.4572
 1013TIP3    H224675   5.099   5.828   8.458  0.4353  0.5847 -1.0711
 1014TIP3   OH224676   3.724   2.206   0.615  0.1959  0.3967  0.4681
 1014TIP3    H124677   3.799   2.191   0.557  0.0621  1.1875  0.0870
 1014TIP3    H224678   3.663   2.258   0.563 -1.0357 -1.0019  0.4491
 1015TIP3   OH224679   2.934   3.084   7.991 -0.1496  0.4442  0.2236
 1015TIP3    H124680   2.900   3.004   8.031 -0.1950  0.0436 -0.6031
 1015TIP3    H224681   2.881   3.154   8.030 -0.0990  0.0764  0.9588
 1016TIP3   OH224682   4.139   3.749   8.388  0.0681  0.5973 -0.2157
 1016TIP3    H124683   4.115   3.658   8.404 -0.6457  0.6574 -0.8650
 1016TIP3    H224684   4.224   3.760   8.429  1.9034 -1.3704 -3.1384
 1017TIP3   OH224685   5.612   1.703   1.121 -0.3555 -0.0402  0.3134
 1017TIP3    H124686   5.567   1.655   1.052 -0.2494 -1.1318  0.9926
 1017TIP3    H224687   5.693   1.733   1.080 -0.5405 -0.2191 -0.1902
 1018TIP3   OH224688   4.125   1.511   8.055 -0.5957  0.6828  0.2897
 1018TIP3    H124689   4.149   1.445   8.120  1.6237 -0.1493 -1.2681
 1018TIP3    H224690   4.078   1.578   8.105 -1.0374 -1.0337  2.2906
 1019TIP3   OH224691   5.122   3.280   7.318  0.1109  0.1846 -0.0910
 1019TIP3    H124692   5.203   3.228   7.320  2.3318  3.3595  0.2165
 1019TIP3    H224693   5.137   3.344   7.248 -0.8152  2.7491  1.9273
 1020TIP3   OH224694   6.384   3.529   0.549  1.0217 -0.2235  0.5951
 1020TIP3    H124695   6.429   3.494   0.472  0.0703 -0.3690  0.0845
 1020TIP3    H224696   6.414   3.620   0.555  1.3450 -0.3033  0.2438
 1021TIP3   OH224697   5.938   5.837   6.977  0.3331  0.4192  0.8363
 1021TIP3    H124698   5.987   5.804   6.902  0.6466  2.4701  0.0677
 1021TIP3    H224699   5.857   5.873   6.939 -1.5101 -2.2052  1.9920
 1022TIP3   OH224700   6.071   1.639   1.387  0.3188 -0.5782 -0.1021
 1022TIP3    H124701   6.073   1.569   1.452  1.2283 -0.5002 -0.0341
 1022TIP3    H224702   6.121   1.710   1.426  1.2340 -0.6797 -1.0460
 1023TIP3   OH224703   0.109   4.352   6.653 -0.5541 -0.5610  0.5552
 1023TIP3    H124704   0.041   4.375   6.590  0.2110  1.1793  0.3010
 1023TIP3    H224705   0.100   4.258   6.666 -1.8810 -0.6402 -0.7797
 1024TIP3   OH224706   1.625   4.893   1.078  0.5213 -0.0056 -0.2947
 1024TIP3    H124707   1.605   4.949   1.003  0.5344 -0.3350 -0.5502
 1024TIP3    H224708   1.721   4.894   1.083  0.5627 -0.5699 -0.7508
 1025TIP3   OH224709   2.416   4.149   1.865 -0.1967 -0.0076  0.3898
 1025TIP3    H124710   2.382   4.060   1.854  0.2276 -0.1705  0.3856
 1025TIP3    H224711   2.366   4.202   1.803 -0.2660 -0.2907  0.2028
 1026TIP3   OH224712   0.370   1.542   2.594  0.1715  0.2143 -0.6539
 1026TIP3    H124713   0.289   1.575   2.556  1.2073  2.1088 -1.3185
 1026TIP3    H224714   0.357   1.447   2.599 -1.2963  0.2559 -2.5942
 1027TIP3   OH224715   4.016   0.334   7.471  0.4110  0.1481  0.0309
 1027TIP3    H124716   4.025   0.392   7.395 -0.6025 -0.1658 -0.3379
 1027TIP3    H224717   4.079   0.263   7.454 -1.4617 -1.2126 -1.7639
 1028TIP3   OH224718   5.071   2.172   2.153 -0.7905 -0.3970  0.3607
 1028TIP3    H124719   5.030   2.098   2.109 -3.3611  0.0264  1.8562
 1028TIP3    H224720   5.014   2.246   2.135 -0.3002  0.4095  1.9461
 1029TIP3   OH224721   3.624   3.651   1.058 -0.5100  0.3465 -0.5113
 1029TIP3    H124722   3.615   3.585   1.127  0.3199  0.8093  0.0637
 1029TIP3    H224723   3.676   3.607   0.990 -0.8156  0.0819 -0.5728
 1030TIP3   OH224724   0.871   3.412   0.006  0.2990  0.0983  0.0351
 1030TIP3    H124725   0.927   3.372   0.073 -1.5287 -1.1695  0.8857
 1030TIP3    H224726   0.829   3.486   0.051 -0.4142 -0.3373  0.0899
 1031TIP3   OH224727   1.403   4.369   7.297 -0.4262  0.6210  0.1781
 1031TIP3    H124728   1.354   4.432   7.244  0.4263  1.3801  0.2914
 1031TIP3    H224729   1.335   4.322   7.345 -1.0437  1.8560  0.5542
 1032TIP3   OH224730   1.467   5.313   0.339 -0.0967 -0.3012  0.4089
 1032TIP3    H124731   1.536   5.378   0.353 -0.0982  0.5352 -2.7196
 1032TIP3    H224732   1.506   5.247   0.282 -1.6426 -0.1512 -0.9023
 1033TIP3   OH224733   3.434   1.381   0.662 -0.0651 -0.3116  0.6395
 1033TIP3    H124734   3.418   1.292   0.695  0.7941 -1.3754 -1.6017
 1033TIP3    H224735   3.525   1.380   0.633 -0.7530  0.4472 -1.7856
 1034TIP3   OH224736   3.987   6.360   7.423 -0.1533 -1.1913 -0.2487
 1034TIP3    H124737   4.007   6.408   7.342 -0.5045 -0.7158 -0.0560
 1034TIP3    H224738   3.968   6.271   7.393  0.0365 -1.0994 -0.6584
 1035TIP3   OH224739   2.612   5.636   6.939 -0.0752 -0.1923  0.1004
 1035TIP3    H124740   2.586   5.544   6.936  0.2078 -0.2612 -2.5893
 1035TIP3    H224741   2.705   5.635   6.915  0.2761  0.7235  1.3186
 1036TIP3   OH224742   4.425   6.157   1.443  0.0862  0.0730 -0.4428
 1036TIP3    H124743   4.377   6.083   1.479  0.6057 -0.2588 -0.4137
 1036TIP3    H224744   4.517   6.130   1.446  0.3005  0.7898 -0.2697
 1037TIP3   OH224745   2.058   4.084   7.356  0.3573 -0.1516  0.1212
 1037TIP3    H124746   2.101   3.999   7.363  0.2642 -0.1322  1.1811
 1037TIP3    H224747   1.996   4.085   7.429  1.0715  1.2119  0.7586
 1038TIP3   OH224748   5.628   6.074   2.087 -0.2031  0.0793  0.5752
 1038TIP3    H124749   5.656   6.164   2.069 -2.6192  0.5070 -1.6210
 1038TIP3    H224750   5.577   6.049   2.010  0.6474 -3.3438  0.9644
 1039TIP3   OH224751   6.617   6.116   1.737 -0.1132 -0.0695 -0.2123
 1039TIP3    H124752   6.561   6.171   1.791 -0.9733  0.2268 -1.3869
 1039TIP3    H224753   6.659   6.176   1.676 -0.1038 -0.5584 -0.6950
 1040TIP3   OH224754   3.166   2.420   7.530 -0.0007 -0.0256 -0.8204
 1040TIP3    H124755   3.148   2.514   7.518 -0.3798 -0.1840 -1.5583
 1040TIP3    H224756   3.249   2.417   7.578  0.0386  0.6867 -0.8337
 1041TIP3   OH224757   4.693   6.169   0.510  0.0636  0.3217  0.0974
 1041TIP3    H124758   4.631   6.130   0.572  2.5638 -3.3055  0.6351
 1041TIP3    H224759   4.754   6.217   0.566  1.5115 -1.7932  0.4605
 1042TIP3   OH224760   5.362   5.827   1.677 -0.5154  0.4545 -0.0102
 1042TIP3    H124761   5.287   5.776   1.647  1.4599 -1.0904 -2.7514
 1042TIP3    H224762   5.370   5.898   1.613  0.3114  0.6487  0.2970
 1043TIP3   OH224763   5.359   0.641   0.332  0.1766 -0.2518 -0.5278
 1043TIP3    H124764   5.452   0.617   0.323  0.1810 -0.8023  0.7780
 1043TIP3    H224765   5.327   0.648   0.242  1.6940  0.8060 -1.0284
 1044TIP3   OH224766   5.038   1.753   0.118 -0.3857  0.2765  0.7090
 1044TIP3    H124767   5.041   1.848   0.116  0.4675  0.2499 -0.4320
 1044TIP3    H224768   5.112   1.727   0.172 -1.2105  0.2538  1.8735
 1045TIP3   OH224769   0.439   5.952   8.469  0.5590  0.3781 -0.3581
 1045TIP3    H124770   0.353   5.929   8.433 -0.0720  1.0179  0.7196
 1045TIP3    H224771   0.501   5.922   8.402 -0.5049  0.1283 -1.2592
 1046TIP3   OH224772   6.259   3.194   0.351  0.4145  0.1289  0.5786
 1046TIP3    H124773   6.253   3.114   0.404  0.9647  0.4083  1.0660
 1046TIP3    H224774   6.185   3.247   0.379  0.4527  0.0872  0.7641
 1047TIP3   OH224775   0.562   5.781   1.119 -0.1574 -0.4347  0.5956
 1047TIP3    H124776   0.485   5.806   1.170  0.4561  1.9324  0.4599
 1047TIP3    H224777   0.527   5.740   1.041 -1.1615 -2.3483  1.9718
 1048TIP3   OH224778   1.488   6.760   2.623 -0.5763  0.2784  0.0769
 1048TIP3    H124779   1.518   6.731   2.708  0.5815 -1.4756 -0.8777
 1048TIP3    H224780   1.401   6.796   2.639 -0.9173 -1.1900  1.7973
 1049TIP3   OH224781   6.054   5.569   2.392 -0.8390  0.4323  0.3322
 1049TIP3    H124782   6.086   5.526   2.312 -0.0184  0.7434  0.4857
 1049TIP3    H224783   6.088   5.515   2.463 -2.2341 -0.3006  0.4758
 1050TIP3   OH224784   2.728   5.627   6.244 -0.3915 -0.2214 -0.1149
 1050TIP3    H124785   2.785   5.628   6.321  0.4163 -0.4205 -0.7115
 1050TIP3    H224786   2.673   5.550   6.256  0.7227 -1.0904 -0.4477
 1051TIP3   OH224787   1.871   1.721   6.859 -0.2308  0.5351  0.3092
 1051TIP3    H124788   1.816   1.754   6.788  1.2645 -2.4139 -2.5238
 1051TIP3    H224789   1.926   1.795   6.883 -1.8681  2.0707 -0.4690
 1052TIP3   OH224790   1.894   2.228   2.320 -0.3892 -0.2607  0.5637
 1052TIP3    H124791   1.963   2.171   2.355 -0.4632 -0.6481  0.0787
 1052TIP3    H224792   1.891   2.301   2.382  0.6923 -0.0712  0.4045
 1053TIP3   OH224793   4.955   4.548   1.537 -0.1564  0.0945  0.1490
 1053TIP3    H124794   4.922   4.636   1.518 -2.1202 -0.6661 -0.1933
 1053TIP3    H224795   5.021   4.562   1.605  0.5009  1.9435 -0.8075
 1054TIP3   OH224796   1.840   0.855   0.642 -0.1874  0.1320  0.0578
 1054TIP3    H124797   1.890   0.933   0.617 -0.7304  0.4956  0.0887
 1054TIP3    H224798   1.766   0.889   0.692  0.0429 -0.4756  0.8314
 1055TIP3   OH224799   5.441   6.670   7.737 -0.4397  0.5036 -0.2099
 1055TIP3    H124800   5.346   6.682   7.738 -0.5810 -0.2497  1.9076
 1055TIP3    H224801   5.458   6.609   7.809  1.6965  1.0326 -0.1873
 1056TIP3   OH224802   3.630   4.678   0.507  0.5529 -0.2755  0.5653
 1056TIP3    H124803   3.575   4.755   0.489 -0.1954 -0.7493  0.7905
 1056TIP3    H224804   3.659   4.690   0.597  0.9907  0.0797  0.3782
 1057TIP3   OH224805   1.025   3.302   8.383 -0.1631 -0.3097 -0.2280
 1057TIP3    H124806   0.989   3.316   8.296  1.2694 -1.6386 -1.0975
 1057TIP3    H224807   0.963   3.345   8.442 -2.1489 -0.9184 -1.7478
 1058TIP3   OH224808   3.634   6.068   7.559 -0.4402 -0.1372 -0.0805
 1058TIP3    H124809   3.668   6.013   7.630  0.3729 -0.6019 -0.8088
 1058TIP3    H224810   3.688   6.148   7.564 -0.1443 -0.3175 -0.3977
 1059TIP3   OH224811   0.222   5.861   1.939  0.1904  0.7725 -0.3636
 1059TIP3    H124812   0.299   5.848   1.995 -0.7863  0.4902  0.9847
 1059TIP3    H224813   0.221   5.786   1.881 -0.9707 -1.1765  1.9843
 1060TIP3   OH224814   5.376   5.616   0.699 -0.2147 -0.1027  0.0749
 1060TIP3    H124815   5.392   5.633   0.792 -1.1303  1.8646 -0.0708
 1060TIP3    H224816   5.373   5.521   0.692 -1.4357 -0.3026  2.2950
 1061TIP3   OH224817   4.120   4.321   2.172 -0.2363 -0.2272  0.0082
 1061TIP3    H124818   4.196   4.264   2.161  0.2266  0.0136  1.7101
 1061TIP3    H224819   4.053   4.266   2.211 -0.4601 -0.0912 -0.1805
 1062TIP3   OH224820   3.072   6.143   8.024 -0.3112  0.3649 -0.2330
 1062TIP3    H124821   3.097   6.208   7.958 -0.3028  0.2766 -0.3171
 1062TIP3    H224822   3.005   6.187   8.076  0.0872  0.6347  0.0570
 1063TIP3   OH224823   4.783   3.195   7.460 -0.3028 -0.8381  0.2395
 1063TIP3    H124824   4.784   3.255   7.534  0.5942 -0.1180 -0.3374
 1063TIP3    H224825   4.853   3.225   7.403 -1.1949 -1.1507 -1.0878
 1064TIP3   OH224826   2.633   2.482   8.461  0.4746  0.0181 -0.1428
 1064TIP3    H124827   2.599   2.501   8.374  0.8773 -0.8942 -0.5147
 1064TIP3    H224828   2.585   2.541   8.519  0.2540  0.6893 -0.9832
 1065TIP3   OH224829   1.065   2.160   7.674  0.0792 -0.1442  0.4427
 1065TIP3    H124830   1.077   2.081   7.726  0.7293  0.3378  1.0469
 1065TIP3    H224831   1.153   2.185   7.646 -0.1518  0.1833 -0.0190
 1066TIP3   OH224832   2.406   2.165   2.215  0.7407 -0.4143  0.2377
 1066TIP3    H124833   2.349   2.235   2.248  1.0937 -0.0346  0.0535
 1066TIP3    H224834   2.358   2.128   2.141  0.0519 -1.1125  1.0128
 1067TIP3   OH224835   5.250   1.707   0.825 -0.4103 -0.3970 -0.5218
 1067TIP3    H124836   5.306   1.772   0.782  1.4988 -1.6776 -0.1303
 1067TIP3    H224837   5.311   1.655   0.878 -1.4740 -3.6445 -2.1844
 1068TIP3   OH224838   6.153   3.567   2.139 -0.0815 -0.5680  0.0711
 1068TIP3    H124839   6.203   3.534   2.065  0.3523  1.4917 -0.6292
 1068TIP3    H224840   6.196   3.529   2.216  0.8453 -0.9975 -0.6444
 1069TIP3   OH224841   2.271   0.401   0.539 -0.4814 -0.0479 -0.1950
 1069TIP3    H124842   2.270   0.332   0.473  4.3725  1.5269 -2.4411
 1069TIP3    H224843   2.339   0.374   0.601 -0.4428  1.4191  0.4491
 1070TIP3   OH224844   6.682   4.502   0.291 -0.3308 -0.1486  0.1060
 1070TIP3    H124845   6.643   4.450   0.220 -0.7229  1.0653 -0.5919
 1070TIP3    H224846   6.776   4.504   0.270 -0.4544  0.2616 -0.4154
 1071TIP3   OH224847   4.876   6.490   1.739  0.2360  0.0596  0.0120
 1071TIP3    H124848   4.925   6.568   1.711  1.7355 -0.5185  0.8789
 1071TIP3    H224849   4.915   6.419   1.687 -1.2650 -0.1161 -0.9283
 1072TIP3   OH224850   5.673   1.536   2.116 -0.0311 -0.3218 -0.2003
 1072TIP3    H124851   5.740   1.477   2.082 -1.4649 -2.1329 -0.0541
 1072TIP3    H224852   5.721   1.615   2.140  1.6812 -0.6225 -2.2869
 1073TIP3   OH224853   2.363   5.841   0.662 -0.2302  0.1410 -0.1181
 1073TIP3    H124854   2.294   5.890   0.706 -1.8328 -1.9401 -0.1810
 1073TIP3    H224855   2.340   5.845   0.569  0.1496  0.0777 -0.2163
 1074TIP3   OH224856   3.780   1.431   0.365 -0.1540 -0.2351 -0.2172
 1074TIP3    H124857   3.726   1.510   0.356  1.7988  1.2596  0.4412
 1074TIP3    H224858   3.852   1.445   0.304  0.1792 -1.5777 -0.1563
 1075TIP3   OH224859   2.643   4.716   6.396  0.0640 -0.0501  0.0326
 1075TIP3    H124860   2.715   4.755   6.345 -1.8995  2.2957 -1.1517
 1075TIP3    H224861   2.587   4.675   6.331 -1.3835  1.1362  0.4701
 1076TIP3   OH224862   4.696   0.481   0.896 -0.2893 -0.2656  0.4225
 1076TIP3    H124863   4.694   0.391   0.929  0.6349 -1.2223 -1.9362
 1076TIP3    H224864   4.779   0.516   0.928  0.5763 -1.1678 -0.7404
 1077TIP3   OH224865   3.175   3.397   8.517  0.4345 -0.2200  0.3644
 1077TIP3    H124866   3.113   3.391   8.444  1.5270 -0.0785 -0.5965
 1077TIP3    H224867   3.120   3.414   8.594 -0.7267 -0.2455 -0.4393
 1078TIP3   OH224868   0.589   3.590   0.327  0.2176  0.0434 -0.2870
 1078TIP3    H124869   0.619   3.624   0.243 -0.9609 -1.0412 -1.1959
 1078TIP3    H224870   0.540   3.510   0.304  1.2039 -1.1699  1.5634
 1079TIP3   OH224871   1.437   1.450   8.323 -0.0098 -0.3761  0.2727
 1079TIP3    H124872   1.430   1.536   8.282  2.1598 -1.3050 -2.3195
 1079TIP3    H224873   1.503   1.461   8.391 -0.6492  0.2620  0.8019
 1080TIP3   OH224874   2.339   2.640   0.907  0.4494 -0.3379  0.0305
 1080TIP3    H124875   2.327   2.714   0.965 -0.2543 -1.0939  0.8891
 1080TIP3    H224876   2.258   2.589   0.917 -0.8495  0.7383 -3.4470
 1081TIP3   OH224877   1.333   0.885   2.175  0.2104  0.5600  0.4308
 1081TIP3    H124878   1.275   0.824   2.222  0.7538  0.7761  1.4159
 1081TIP3    H224879   1.365   0.944   2.243  2.0822  0.0616  0.0474
 1082TIP3   OH224880   1.710   6.832   8.288 -0.1103  0.3681  0.3019
 1082TIP3    H124881   1.708   6.753   8.342 -0.6456  0.7546  0.8743
 1082TIP3    H224882   1.674   6.900   8.345  2.2422  1.4926  0.5675
 1083TIP3   OH224883   5.591   3.623   8.272 -0.2801 -0.2034 -0.0155
 1083TIP3    H124884   5.583   3.679   8.195 -0.1810 -0.1953 -0.0203
 1083TIP3    H224885   5.670   3.570   8.255  0.7941  1.0468  0.8877
 1084TIP3   OH224886   5.493   0.924   8.036 -0.4613  0.0306 -0.6209
 1084TIP3    H124887   5.442   0.899   8.113 -2.8196 -0.9561 -2.3632
 1084TIP3    H224888   5.514   0.841   7.993  1.0090  0.5497 -0.9672
 1085TIP3   OH224889   0.265   5.175   7.642 -0.2750 -0.3436 -0.0632
 1085TIP3    H124890   0.213   5.140   7.715 -1.7629  0.6433 -0.5994
 1085TIP3    H224891   0.203   5.231   7.594  1.2258  0.6503 -0.9023
 1086TIP3   OH224892   6.380   3.327   7.298 -0.1218  0.3623  0.1430
 1086TIP3    H124893   6.451   3.388   7.319  1.6800 -1.3226 -0.6604
 1086TIP3    H224894   6.302   3.366   7.337  1.1569  2.5329  0.6933
 1087TIP3   OH224895   3.956   1.166   7.467  0.4580 -0.3799  0.1186
 1087TIP3    H124896   3.960   1.113   7.547  0.8967  0.6020  0.7561
 1087TIP3    H224897   3.940   1.102   7.397 -0.4962 -1.1869  1.0469
 1088TIP3   OH224898   5.126   6.262   1.231  0.3817  0.5445  0.3125
 1088TIP3    H124899   5.177   6.307   1.298 -1.1674  1.1719  1.1260
 1088TIP3    H224900   5.086   6.188   1.277  0.9391 -0.2438 -0.4357
 1089TIP3   OH224901   3.625   1.945   0.875 -0.0944 -0.3847 -0.0093
 1089TIP3    H124902   3.604   1.859   0.838 -0.5095  0.0486 -0.8182
 1089TIP3    H224903   3.559   1.958   0.944  0.5495 -1.1050  0.7685
 1090TIP3   OH224904   6.109   1.844   2.696  0.3313  0.1743  0.3810
 1090TIP3    H124905   6.179   1.902   2.666 -0.8225  0.7388 -1.3297
 1090TIP3    H224906   6.151   1.759   2.706  1.3001  0.5459 -0.4106
 1091TIP3   OH224907   4.354   3.200   1.095  0.2898  0.0609  0.3430
 1091TIP3    H124908   4.424   3.214   1.160  1.3838 -0.3423 -0.7121
 1091TIP3    H224909   4.377   3.118   1.052  0.0416  0.7357 -1.1205
 1092TIP3   OH224910   4.950   6.316   7.091 -0.5770 -0.4463 -0.7726
 1092TIP3    H124911   5.029   6.268   7.118  0.8043  0.5257 -2.8180
 1092TIP3    H224912   4.887   6.248   7.068 -0.5721 -1.2492  1.3834
 1093TIP3   OH224913   3.902   5.858   7.488 -0.2049  0.2253  0.1433
 1093TIP3    H124914   3.971   5.897   7.542 -0.3416  2.0404 -0.8995
 1093TIP3    H224915   3.932   5.869   7.398 -0.8140 -1.0732 -0.2409
 1094TIP3   OH224916   3.148   5.901   2.533  0.0388 -0.2231 -0.6555
 1094TIP3    H124917   3.199   5.977   2.562  1.1984 -1.5099  0.8983
 1094TIP3    H224918   3.133   5.851   2.614  0.1468 -2.1131 -1.7517
 1095TIP3   OH224919   0.272   2.963   0.469  0.7007 -0.3234 -0.1258
 1095TIP3    H124920   0.204   2.978   0.534  1.4539 -1.1014  0.8704
 1095TIP3    H224921   0.224   2.944   0.388 -0.2523  0.0587  0.3379
 1096TIP3   OH224922   6.420   2.069   2.126 -0.4190  0.2767  0.0976
 1096TIP3    H124923   6.399   2.106   2.212 -1.9554  1.2645 -0.6681
 1096TIP3    H224924   6.348   2.010   2.107  1.3519 -2.2818  0.7129
 1097TIP3   OH224925   2.834   1.890   7.373 -0.5277  0.1520  0.8903
 1097TIP3    H124926   2.739   1.891   7.358 -0.4074 -0.4512 -0.0498
 1097TIP3    H224927   2.870   1.938   7.299 -0.0849  0.1388  1.0956
 1098TIP3   OH224928   4.627   0.123   7.767  0.2488 -0.9495 -1.0847
 1098TIP3    H124929   4.538   0.090   7.770 -0.3058  0.4551  1.9460
 1098TIP3    H224930   4.678   0.060   7.817  0.0556  0.2784  0.7834
 1099TIP3   OH224931   1.428   6.702   8.426  0.0321  0.2319  0.6543
 1099TIP3    H124932   1.468   6.762   8.489  0.3745  0.4055  0.2801
 1099TIP3    H224933   1.494   6.634   8.414 -0.2344 -0.0595  0.8532
 1100TIP3   OH224934   5.855   1.116   2.560  0.6733  0.0289  0.5688
 1100TIP3    H124935   5.770   1.156   2.577 -0.0186 -0.1883 -2.0057
 1100TIP3    H224936   5.906   1.135   2.639 -2.0960 -0.9135  2.7490
 1101TIP3   OH224937   4.139   0.400   8.104 -0.5258 -0.2918 -0.2877
 1101TIP3    H124938   4.050   0.408   8.137 -0.3592  0.7582 -0.0455
 1101TIP3    H224939   4.194   0.429   8.177  0.0240 -0.9895 -0.4119
 1102TIP3   OH224940   1.910   1.330   7.477 -0.5858  0.3797  0.3957
 1102TIP3    H124941   1.873   1.419   7.476  0.1718  0.7047 -1.0772
 1102TIP3    H224942   1.857   1.282   7.413  0.8834  0.6154 -1.0698
 1103TIP3   OH224943   4.989   5.602   0.945 -0.5316  0.5243  0.5057
 1103TIP3    H124944   4.933   5.524   0.946 -1.5381  1.2065  2.6922
 1103TIP3    H224945   5.065   5.577   0.998  0.0259  0.4762 -0.2889
 1104TIP3   OH224946   5.963   5.874   2.033  0.2446  0.5284  0.0883
 1104TIP3    H124947   5.999   5.787   2.013 -1.3528  0.1875 -1.5691
 1104TIP3    H224948   5.921   5.863   2.118 -0.8382 -0.6863 -0.5484
 1105TIP3   OH224949   6.193   3.106   1.413 -0.3327 -0.0834  0.1814
 1105TIP3    H124950   6.211   3.015   1.436  1.9686  0.2048 -0.1589
 1105TIP3    H224951   6.241   3.120   1.331 -0.8667  1.3655  0.0755
 1106TIP3   OH224952   4.571   4.913   6.492  0.2149  0.1883 -0.4561
 1106TIP3    H124953   4.492   4.957   6.523  0.3754 -0.6987  1.3635
 1106TIP3    H224954   4.566   4.918   6.396 -1.4271  1.1875 -0.3479
 1107TIP3   OH224955   3.469   1.705   1.491 -0.2484  0.1793  0.0699
 1107TIP3    H124956   3.552   1.664   1.464 -0.0047  0.4870  0.3430
 1107TIP3    H224957   3.433   1.742   1.410 -0.2742 -0.2240 -0.1065
 1108TIP3   OH224958   0.489   2.095   2.113  0.1205 -0.1570 -0.1836
 1108TIP3    H124959   0.482   2.186   2.144 -0.1681 -0.3303  0.2741
 1108TIP3    H224960   0.572   2.064   2.150  1.3278  0.5790 -2.1218
 1109TIP3   OH224961   0.070   1.783   0.352  0.0804 -0.5366  0.1283
 1109TIP3    H124962   0.118   1.740   0.423 -0.5979 -2.3872 -0.4606
 1109TIP3    H224963   0.057   1.714   0.287 -2.6652  0.0535 -0.0837
 1110TIP3   OH224964   5.063   6.043   1.377 -0.5075 -0.4012  0.5613
 1110TIP3    H124965   5.017   5.959   1.370  1.7611 -1.5674 -2.0650
 1110TIP3    H224966   5.143   6.024   1.425  0.4930 -0.0532 -0.8757
 1111TIP3   OH224967   5.045   2.380   8.084  0.9435  0.3966  0.3044
 1111TIP3    H124968   4.954   2.366   8.110  0.5303  0.6333 -0.9303
 1111TIP3    H224969   5.095   2.377   8.165 -0.0763 -0.4968  0.9160
 1112TIP3   OH224970   6.445   3.802   0.543  0.5514  0.4673 -0.3732
 1112TIP3    H124971   6.412   3.890   0.564 -0.2352  0.2487 -0.6607
 1112TIP3    H224972   6.530   3.817   0.504  1.2270  1.0003  1.2187
 1113TIP3   OH224973   1.006   0.243   7.109 -0.3528 -0.5143  0.5748
 1113TIP3    H124974   1.038   0.329   7.136 -1.7983 -0.0791  1.0268
 1113TIP3    H224975   0.912   0.256   7.094 -0.1856 -1.4448 -1.7468
 1114TIP3   OH224976   2.338   1.509   6.609 -0.1350  0.3503  0.0573
 1114TIP3    H124977   2.249   1.485   6.636 -0.1198  1.4495  1.1787
 1114TIP3    H224978   2.337   1.605   6.607  1.4990  0.4644  1.8353
 1115TIP3   OH224979   0.711   3.632   8.339 -0.1266  0.5097  0.1181
 1115TIP3    H124980   0.802   3.649   8.314 -0.3160  0.4678 -0.6287
 1115TIP3    H224981   0.714   3.623   8.434  1.4405 -3.9989 -0.1157
 1116TIP3   OH224982   1.762   5.104   7.008 -0.2464 -0.0401  0.1154
 1116TIP3    H124983   1.709   5.026   7.025 -0.3750  0.3941  2.0116
 1116TIP3    H224984   1.850   5.080   7.035 -0.6369  0.9778  2.5730
 1117TIP3   OH224985   1.239   5.095   2.477  0.0560 -0.2514 -0.4752
 1117TIP3    H124986   1.210   5.050   2.397 -1.4540 -0.6897  0.2681
 1117TIP3    H224987   1.161   5.142   2.506  0.7048  0.2196  0.5302
 1118TIP3   OH224988   4.229   4.284   8.074  0.2257 -0.0443 -0.5909
 1118TIP3    H124989   4.292   4.265   8.005 -0.0721 -0.4636 -0.7505
 1118TIP3    H224990   4.270   4.354   8.125 -0.4995  1.8450 -2.4646
 1119TIP3   OH224991   3.543   6.001   2.009 -0.1016  0.0527 -0.2994
 1119TIP3    H124992   3.607   6.064   1.976  0.0796 -1.2972 -2.7336
 1119TIP3    H224993   3.593   5.946   2.069  0.5659  0.1491 -0.7578
 1120TIP3   OH224994   2.969   5.653   0.472 -0.0737  0.6096  0.0723
 1120TIP3    H124995   2.955   5.567   0.434 -1.7754  0.5774  0.6668
 1120TIP3    H224996   2.919   5.651   0.554 -1.5153  2.6562 -0.6595
 1121TIP3   OH224997   5.345   1.358   1.649  0.1791  0.0735  0.0106
 1121TIP3    H124998   5.401   1.417   1.598  1.3221 -0.7399  0.2772
 1121TIP3    H224999   5.397   1.337   1.727 -0.3648 -0.9658  0.1148
 1122TIP3   OH225000   5.073   4.517   1.152  0.3446 -0.1032 -0.0762
 1122TIP3    H125001   5.037   4.605   1.163 -1.1957 -0.6896 -0.1986
 1122TIP3    H225002   5.082   4.506   1.057 -0.8337 -0.5775 -0.1506
 1123TIP3   OH225003   1.453   0.758   1.503 -0.3957 -0.2628 -0.5343
 1123TIP3    H125004   1.368   0.762   1.460 -0.6496  0.7702  0.0319
 1123TIP3    H225005   1.514   0.795   1.438 -0.1396 -2.1440 -1.4287
 1124TIP3   OH225006   4.791   1.017   1.673  0.2853  0.0782 -0.9244
 1124TIP3    H125007   4.744   1.077   1.731  0.9744  0.0519 -0.3222
 1124TIP3    H225008   4.873   1.061   1.654  0.9094 -0.7749 -0.2710
 1125TIP3   OH225009   6.507   2.379   6.673  0.3330 -0.2551  0.4031
 1125TIP3    H125010   6.502   2.444   6.743 -0.7043  0.1226 -0.0073
 1125TIP3    H225011   6.495   2.295   6.717 -1.0243  0.0287  0.6101
 1126TIP3   OH225012   1.761   5.116   2.731  0.5995  0.0686 -0.3725
 1126TIP3    H125013   1.756   5.022   2.716  1.0831  0.0611 -0.4996
 1126TIP3    H225014   1.683   5.151   2.688 -0.5187 -0.4452  1.1600
 1127TIP3   OH225015   5.377   4.817   7.859 -0.2995 -0.1881 -0.1915
 1127TIP3    H125016   5.300   4.857   7.818  0.3382 -0.2284 -1.4609
 1127TIP3    H225017   5.407   4.751   7.796 -0.0523 -1.1800  0.9184
 1128TIP3   OH225018   0.721   2.781   7.975 -0.2778  0.3248 -0.2076
 1128TIP3    H125019   0.741   2.826   7.893  1.7524 -2.9575 -1.7573
 1128TIP3    H225020   0.629   2.755   7.966 -0.0174 -0.1984 -1.6146
 1129TIP3   OH225021   4.402   6.428   1.331  0.3643 -0.4380 -0.1496
 1129TIP3    H125022   4.465   6.466   1.393  1.9092 -1.2394 -1.1624
 1129TIP3    H225023   4.401   6.335   1.352 -1.6069 -0.2617  0.7697
 1130TIP3   OH225024   3.204   5.580   8.254  0.2865  0.1146 -0.0772
 1130TIP3    H125025   3.275   5.574   8.318  1.7251  0.9539 -1.5329
 1130TIP3    H225026   3.245   5.560   8.170 -1.2762  0.3308 -0.9292
 1131TIP3   OH225027   4.426   4.365   8.286  0.3996  0.6104  0.2070
 1131TIP3    H125028   4.394   4.432   8.346  0.7729  0.2606  0.8029
 1131TIP3    H225029   4.388   4.284   8.319  1.0106  0.3459  0.2723
 1132TIP3   OH225030   5.294   4.716   1.069 -0.1625 -0.1678  0.1582
 1132TIP3    H125031   5.280   4.763   0.987 -0.1600  1.2802  0.9577
 1132TIP3    H225032   5.367   4.657   1.051 -0.1828  0.1076 -0.8799
 1133TIP3   OH225033   3.045   4.028   0.873 -0.2627  0.0981 -0.3022
 1133TIP3    H125034   3.122   4.065   0.828 -0.9346  0.2073 -1.4018
 1133TIP3    H225035   2.990   4.104   0.892  0.0546  0.0650  0.8413
 1134TIP3   OH225036   6.606   2.605   6.848 -0.0463  0.9207 -0.0684
 1134TIP3    H125037   6.623   2.695   6.874 -1.5901  0.6243  2.2319
 1134TIP3    H225038   6.512   2.602   6.833 -0.2934 -0.6835  1.5936
 1135TIP3   OH225039   3.737   2.346   0.996 -0.3778  0.5407  0.0482
 1135TIP3    H125040   3.765   2.261   0.963 -1.7342  0.1352 -0.1126
 1135TIP3    H225041   3.752   2.406   0.923 -2.4023 -0.1680 -1.0299
 1136TIP3   OH225042   1.695   2.658   7.573  0.2765 -0.6216 -0.1114
 1136TIP3    H125043   1.623   2.720   7.585  0.6576 -0.2424  0.2509
 1136TIP3    H225044   1.690   2.601   7.650 -1.9524 -3.0253 -1.8433
 1137TIP3   OH225045   3.244   5.618   7.753 -0.4496 -0.1230  0.0130
 1137TIP3    H125046   3.177   5.633   7.819 -0.2561 -1.0328  0.4360
 1137TIP3    H225047   3.241   5.695   7.697  0.3421  1.3536  1.9105
 1138TIP3   OH225048   4.803   5.935   7.498 -0.6444 -0.6206 -0.0133
 1138TIP3    H125049   4.844   5.859   7.539 -0.2403 -0.5762 -0.3335
 1138TIP3    H225050   4.725   5.899   7.455 -0.6084 -0.8081  0.0761
 1139TIP3   OH225051   4.562   1.982   2.590  0.3357  0.0670 -0.8455
 1139TIP3    H125052   4.583   1.992   2.498 -0.5692  2.0343 -0.8760
 1139TIP3    H225053   4.509   2.058   2.612 -0.8375 -1.1664  0.9157
 1140TIP3   OH225054   4.839   0.195   0.451  0.0674  0.2120  0.4804
 1140TIP3    H125055   4.902   0.257   0.488  1.8087 -1.5126  0.5987
 1140TIP3    H225056   4.884   0.159   0.374 -1.1445 -0.4416  0.0549
 1141TIP3   OH225057   4.764   2.503   8.357 -0.4331  0.0531 -0.0560
 1141TIP3    H125058   4.716   2.565   8.413 -1.0551 -0.7395  0.3219
 1141TIP3    H225059   4.748   2.534   8.268 -0.9270  0.3029  0.1143
 1142TIP3   OH225060   2.484   4.169   1.317 -0.4491 -0.1245 -0.3282
 1142TIP3    H125061   2.514   4.215   1.395  0.3949 -0.7552 -0.2689
 1142TIP3    H225062   2.532   4.208   1.245 -1.2803  0.5064 -0.5592
 1143TIP3   OH225063   5.487   2.654   1.117  0.6638 -0.6323 -0.0239
 1143TIP3    H125064   5.578   2.683   1.120  0.7281 -0.1724 -3.1956
 1143TIP3    H225065   5.492   2.559   1.104  0.7787 -0.4246 -1.6739
 1144TIP3   OH225066   1.680   6.682   0.478 -0.0673 -0.1310  0.1605
 1144TIP3    H125067   1.670   6.645   0.391 -1.7306 -0.2170  0.3488
 1144TIP3    H225068   1.703   6.608   0.534 -0.6269 -0.3848  0.0614
 1145TIP3   OH225069   1.716   5.486   7.678  0.3000  0.0666  0.4419
 1145TIP3    H125070   1.658   5.438   7.619  1.0711 -2.1090  1.3416
 1145TIP3    H225071   1.659   5.515   7.749  0.3575 -3.0252  1.9005
 1146TIP3   OH225072   4.214   4.685   0.639 -0.4723  0.0659  0.3898
 1146TIP3    H125073   4.209   4.621   0.569 -2.0584  1.6996 -1.0916
 1146TIP3    H225074   4.183   4.639   0.717 -3.8116 -0.4428 -1.0707
 1147TIP3   OH225075   5.257   1.232   0.712  0.1332  0.0890  0.1166
 1147TIP3    H125076   5.269   1.298   0.643  0.0639  1.1520  1.0755
 1147TIP3    H225077   5.246   1.150   0.665 -0.4034  0.8513 -1.1640
 1148TIP3   OH225078   3.174   2.299   7.887 -0.0936 -0.0755 -0.5413
 1148TIP3    H125079   3.265   2.308   7.914 -0.1751  3.8641 -0.9947
 1148TIP3    H225080   3.178   2.260   7.800  0.9913 -1.2854  0.0101
 1149TIP3   OH225081   3.508   1.311   2.140 -0.3505  1.1306 -0.6005
 1149TIP3    H125082   3.512   1.226   2.096  0.3351  1.2731 -0.8306
 1149TIP3    H225083   3.490   1.373   2.069 -1.9856  1.0619 -0.2722
 1150TIP3   OH225084   3.342   3.025   0.430  0.5411  0.1778 -0.0925
 1150TIP3    H125085   3.424   3.018   0.381 -0.1747  0.4559 -1.3652
 1150TIP3    H225086   3.295   3.097   0.389  0.3698  1.1751  1.7314
 1151TIP3   OH225087   2.121   2.272   2.150  0.6057  0.0397  0.4059
 1151TIP3    H125088   2.082   2.204   2.095  0.9171  0.8375 -0.8646
 1151TIP3    H225089   2.120   2.236   2.238 -0.6422 -0.9834  0.0059
 1152TIP3   OH225090   0.558   6.500   7.910  0.5399 -0.6838  0.4979
 1152TIP3    H125091   0.484   6.445   7.935 -0.2250 -0.1738 -0.5865
 1152TIP3    H225092   0.608   6.511   7.991 -0.9898 -0.3793  1.4358
 1153TIP3   OH225093   0.091   5.986   0.556 -0.4349 -0.5275  0.0898
 1153TIP3    H125094   0.142   5.997   0.637  0.0123 -1.1609 -0.0979
 1153TIP3    H225095   0.062   6.074   0.534 -0.3912 -0.3203  0.8326
 1154TIP3   OH225096   0.738   5.894   2.235 -0.1752 -0.1741  0.1967
 1154TIP3    H125097   0.666   5.941   2.193 -1.7928 -2.4670  0.2313
 1154TIP3    H225098   0.697   5.847   2.308  0.9897 -2.8800 -0.7665
 1155TIP3   OH225099   1.751   5.054   1.989 -0.1509  0.1997 -0.0949
 1155TIP3    H125100   1.788   5.002   2.061 -1.9789  1.9286  2.2591
 1155TIP3    H225101   1.786   5.142   2.002  1.1259  0.1693 -2.6634
 1156TIP3   OH225102   3.501   3.988   8.516 -0.2205  0.2500  0.4262
 1156TIP3    H125103   3.416   3.974   8.559  0.6817  2.1760  3.0642
 1156TIP3    H225104   3.562   3.933   8.565  0.1845 -0.9193 -1.2845
 1157TIP3   OH225105   0.393   5.188   0.317 -0.3356  0.6047 -0.5403
 1157TIP3    H125106   0.315   5.215   0.269 -0.6150 -0.4692 -0.7242
 1157TIP3    H225107   0.365   5.113   0.369 -0.0911  1.8734  1.5196
 1158TIP3   OH225108   3.880   0.314   0.564 -0.3320  0.2953  0.4005
 1158TIP3    H125109   3.828   0.361   0.629  0.0943  1.2203  0.0778
 1158TIP3    H225110   3.971   0.335   0.587 -0.1911  1.0059 -0.7747
 1159TIP3   OH225111   2.173   1.001   7.935 -0.0266  0.4951 -0.9419
 1159TIP3    H125112   2.223   0.923   7.959 -0.4606  0.4501 -0.1347
 1159TIP3    H225113   2.087   0.967   7.910 -0.3112  0.7364 -0.3005
 1160TIP3   OH225114   1.801   4.004   1.776 -0.2080  0.3158 -0.0444
 1160TIP3    H125115   1.775   4.049   1.856  2.1595  2.1722 -0.1939
 1160TIP3    H225116   1.771   4.063   1.706 -1.4998 -0.8725 -0.5380
 1161TIP3   OH225117   5.569   2.496   2.678  0.1177 -0.0839 -0.7214
 1161TIP3    H125118   5.621   2.443   2.738  2.5182  2.2675 -0.5524
 1161TIP3    H225119   5.521   2.557   2.734 -0.7038 -0.4157 -1.0397
 1162TIP3   OH225120   0.854   4.543   6.775  0.4711 -0.7487 -0.0662
 1162TIP3    H125121   0.793   4.579   6.839  1.3440  2.4481 -0.8758
 1162TIP3    H225122   0.812   4.557   6.690  1.6808  0.2216 -0.5404
 1163TIP3   OH225123   2.225   5.756   1.721  0.2684 -0.9211  0.3918
 1163TIP3    H125124   2.278   5.695   1.772  0.3616  0.2538  1.7906
 1163TIP3    H225125   2.272   5.839   1.727 -0.6263 -0.3549 -0.1626
 1164TIP3   OH225126   6.372   4.059   0.508  0.3698  0.3795  0.0375
 1164TIP3    H125127   6.285   4.099   0.505  0.4521  0.5454 -0.1456
 1164TIP3    H225128   6.412   4.084   0.425 -0.2948 -1.7072 -0.9749
 1165TIP3   OH225129   3.031   3.671   7.338 -0.1486  0.6368  0.3121
 1165TIP3    H125130   2.974   3.647   7.411 -2.1395  2.1700 -0.6577
 1165TIP3    H225131   3.053   3.763   7.352 -1.0404  1.1315 -1.2765
 1166TIP3   OH225132   3.643   3.472   8.540  0.1072 -0.3754  0.1270
 1166TIP3    H125133   3.560   3.513   8.567 -0.0107 -2.0908  2.7696
 1166TIP3    H225134   3.651   3.493   8.447 -1.9277  2.1099  0.3989
 1167TIP3   OH225135   1.176   4.398   1.452 -0.3805 -0.5845 -0.1668
 1167TIP3    H125136   1.186   4.429   1.362  0.4541  1.0420  0.4471
 1167TIP3    H225137   1.244   4.445   1.502 -1.7481 -0.3409  1.5694
 1168TIP3   OH225138   0.441   6.167   7.504  0.2757 -0.3879  0.0819
 1168TIP3    H125139   0.475   6.127   7.424  0.3994 -0.7258  0.3020
 1168TIP3    H225140   0.414   6.093   7.559 -2.3723 -0.1350 -0.7227
 1169TIP3   OH225141   4.925   1.544   2.215  0.2092 -0.0206  0.0519
 1169TIP3    H125142   4.951   1.469   2.268 -1.4564 -0.2346  0.6319
 1169TIP3    H225143   5.007   1.585   2.188  1.1717 -2.4245 -0.8604
 1170TIP3   OH225144   2.875   2.555   3.132  0.4849 -0.1531 -0.5559
 1170TIP3    H125145   2.908   2.465   3.126  0.7435 -0.0289 -1.0204
 1170TIP3    H225146   2.781   2.546   3.141  0.6735 -0.5477  1.5183
 1171TIP3   OH225147   0.710   3.238   7.206  0.1012 -0.2437 -0.1239
 1171TIP3    H125148   0.635   3.281   7.248  0.5613 -1.1669  1.7511
 1171TIP3    H225149   0.679   3.217   7.118 -0.5508  2.7287 -0.7276
 1172TIP3   OH225150   2.665   0.916   0.664  0.3669  0.6489  0.0643
 1172TIP3    H125151   2.627   0.992   0.619 -0.3668  0.0112 -0.4342
 1172TIP3    H225152   2.668   0.941   0.756 -0.2593  1.1317 -0.0415
 1173TIP3   OH225153   0.831   6.469   0.515  0.5531 -0.7111  0.3827
 1173TIP3    H125154   0.909   6.465   0.570  2.3292  1.4443 -1.7732
 1173TIP3    H225155   0.781   6.543   0.550  1.2517  0.1052 -0.2833
 1174TIP3   OH225156   1.733   2.864   1.589 -0.1615 -0.3565  0.1866
 1174TIP3    H125157   1.672   2.917   1.538 -0.5386  0.2267  1.2192
 1174TIP3    H225158   1.722   2.895   1.679 -1.2966 -2.9866  1.0629
 1175TIP3   OH225159   2.670   5.653   1.423  0.0404 -0.1728 -0.1160
 1175TIP3    H125160   2.658   5.591   1.352  1.2799 -0.2923 -0.2340
 1175TIP3    H225161   2.763   5.674   1.422 -0.2708  1.3426  0.2108
 1176TIP3   OH225162   5.537   1.991   7.149  0.6059 -0.2037  0.0473
 1176TIP3    H125163   5.521   2.032   7.064  0.1206  0.7921  0.6090
 1176TIP3    H225164   5.620   1.945   7.138  1.4357  1.3458 -0.4511
 1177TIP3   OH225165   5.225   0.895   8.384 -0.2900 -0.2248  0.2200
 1177TIP3    H125166   5.244   0.803   8.365 -0.3596  0.0177 -1.0664
 1177TIP3    H225167   5.139   0.911   8.344 -0.0858  0.5122  0.0672
 1178TIP3   OH225168   6.708   4.702   1.520  0.2734 -0.4023 -0.7266
 1178TIP3    H125169   6.802   4.689   1.532  0.5741  1.9501  0.2023
 1178TIP3    H225170   6.681   4.634   1.459  2.4791 -1.4235 -0.6540
 1179TIP3   OH225171   3.367   6.378   8.114  0.8373  0.3599 -0.9241
 1179TIP3    H125172   3.399   6.379   8.024 -0.9300 -0.0524 -1.6075
 1179TIP3    H225173   3.402   6.299   8.152  0.4815 -0.1947 -1.7169
 1180TIP3   OH225174   6.314   5.773   7.130 -0.5341  0.0319  0.2704
 1180TIP3    H125175   6.297   5.838   7.062  0.1438  0.3822  0.4339
 1180TIP3    H225176   6.405   5.787   7.156 -0.7642 -0.1327  1.2100
 1181TIP3   OH225177   0.691   2.041   2.284  0.7366 -0.4366  0.0169
 1181TIP3    H125178   0.661   1.961   2.328  1.7165 -1.7854 -1.6210
 1181TIP3    H225179   0.780   2.020   2.254  0.1286  0.3250 -2.5836
 1182TIP3   OH225180   0.284   6.068   8.046 -0.1097 -0.1666  0.5645
 1182TIP3    H125181   0.267   6.161   8.028 -0.6333 -0.3622 -0.0091
 1182TIP3    H225182   0.223   6.022   7.989 -0.5348 -0.8564  1.5496
 1183TIP3   OH225183   0.658   4.374   0.305 -0.1295 -0.0644 -0.2130
 1183TIP3    H125184   0.669   4.419   0.389 -2.3925  0.5227 -0.1622
 1183TIP3    H225185   0.747   4.352   0.277  0.6757 -0.4811  2.4356
 1184TIP3   OH225186   2.895   0.831   1.481  0.2726 -0.0082 -0.0263
 1184TIP3    H125187   2.800   0.835   1.472  0.0530  0.6134  2.0527
 1184TIP3    H225188   2.920   0.916   1.518  1.5500 -0.4178  0.1244
 1185TIP3   OH225189   0.607   4.471   1.926 -0.0818 -0.1129 -0.0344
 1185TIP3    H125190   0.689   4.424   1.911 -0.1083 -0.1779  0.0202
 1185TIP3    H225191   0.570   4.429   2.004 -0.4106 -0.4214 -0.3530
 1186TIP3   OH225192   5.933   2.127   1.691  0.3685 -0.1546 -0.2443
 1186TIP3    H125193   5.952   2.207   1.740 -0.3824  0.1844 -0.4894
 1186TIP3    H225194   5.862   2.085   1.740 -0.4713  0.2493 -1.0882
 1187TIP3   OH225195   6.358   4.302   7.447  0.1996 -0.2941  0.8092
 1187TIP3    H125196   6.279   4.273   7.493 -0.1478 -0.6043  0.0302
 1187TIP3    H225197   6.366   4.242   7.373 -0.6828  1.7229 -1.0177
 1188TIP3   OH225198   4.893   1.517   7.542  0.0173  0.5294  0.2219
 1188TIP3    H125199   4.863   1.541   7.630 -1.2054 -0.7710  0.2002
 1188TIP3    H225200   4.957   1.447   7.557 -0.3248  0.1809  0.0894
 1189TIP3   OH225201   2.013   2.379   8.089  0.4527  0.3556  0.3798
 1189TIP3    H125202   1.929   2.405   8.051  0.3370  0.5339  0.7543
 1189TIP3    H225203   1.989   2.319   8.160  0.6952 -0.4557 -0.2044
 1190TIP3   OH225204   4.759   4.080   1.321 -0.3990 -0.1357 -0.1965
 1190TIP3    H125205   4.732   3.991   1.347 -0.2577 -0.1935 -0.2469
 1190TIP3    H225206   4.801   4.068   1.236 -0.6614  0.0228 -0.3497
 1191TIP3   OH225207   3.852   5.817   0.830 -0.2870 -0.6553 -0.3874
 1191TIP3    H125208   3.883   5.732   0.859 -0.4004 -0.4431  0.3642
 1191TIP3    H225209   3.795   5.848   0.901  1.7320  1.1690  0.5450
 1192TIP3   OH225210   4.604   1.092   2.374  0.0933  0.3498  0.0623
 1192TIP3    H125211   4.689   1.050   2.384  0.1639  0.0556 -1.5230
 1192TIP3    H225212   4.623   1.179   2.341 -0.2072  0.4764  0.2141
 1193TIP3   OH225213   0.986   4.634   0.367 -1.3897  0.3634  0.1177
 1193TIP3    H125214   0.976   4.698   0.297 -1.5968 -1.5132 -1.6296
 1193TIP3    H225215   1.071   4.655   0.406 -0.9253  0.9803 -1.1799
 1194TIP3   OH225216   6.048   6.056   1.595 -0.0416 -0.3333 -0.1099
 1194TIP3    H125217   6.102   6.027   1.521  2.1241  0.1352  1.1829
 1194TIP3    H225218   6.059   6.151   1.597 -0.5372 -0.2787  0.4743
 1195TIP3   OH225219   2.241   6.818   7.085  0.0201  0.4806  0.5694
 1195TIP3    H125220   2.231   6.913   7.092  0.3299  0.5733 -0.1354
 1195TIP3    H225221   2.283   6.805   7.000 -0.0042 -0.2877  0.6706
 1196TIP3   OH225222   2.073   2.560   0.985 -0.2146  0.4689 -0.1302
 1196TIP3    H125223   2.003   2.624   0.993 -1.8281 -1.2299 -0.1174
 1196TIP3    H225224   2.042   2.499   0.918  0.8703 -0.7958  0.4897
 1197TIP3   OH225225   3.676   4.656   8.131 -0.0117  0.4807  0.4512
 1197TIP3    H125226   3.765   4.688   8.118  0.8363 -1.2327  1.6500
 1197TIP3    H225227   3.676   4.622   8.220 -0.8571 -2.5482 -0.5961
 1198TIP3   OH225228   3.106   1.539   0.071  0.0568 -0.5469 -0.0080
 1198TIP3    H125229   3.106   1.457   0.120  0.5174 -0.5401 -0.0002
 1198TIP3    H225230   3.074   1.514  -0.016  0.4990 -0.7912 -0.1000
 1199TIP3   OH225231   4.099   6.845   1.209 -0.2449  0.2442 -0.1510
 1199TIP3    H125232   4.095   6.851   1.114 -0.2706 -1.5818 -0.3024
 1199TIP3    H225233   4.155   6.770   1.225 -2.2436 -1.0390  1.2244
 1200TIP3   OH225234   6.094   3.011   8.423  0.4514 -0.2607  0.1538
 1200TIP3    H125235   6.040   3.089   8.409 -0.2261 -0.6325  0.6112
 1200TIP3    H225236   6.143   3.029   8.503  2.5691  0.9061 -1.3053
 1201TIP3   OH225237   3.271   3.718   0.852 -0.0734 -1.2845  0.3373
 1201TIP3    H125238   3.221   3.693   0.930 -0.0963  0.8452  1.0603
 1201TIP3    H225239   3.328   3.789   0.881 -1.5137  0.9862 -1.9883
 1202TIP3   OH225240   5.137   1.239   2.639  0.1985 -0.4677 -0.2124
 1202TIP3    H125241   5.084   1.307   2.598 -1.8709 -0.6088  2.0229
 1202TIP3    H225242   5.094   1.157   2.614  1.0530 -0.7957 -0.6457
 1203TIP3   OH225243   5.799   1.577   6.998 -0.3250 -0.8872  0.3164
 1203TIP3    H125244   5.798   1.658   6.947  0.6433 -0.7371  0.5229
 1203TIP3    H225245   5.850   1.516   6.944  0.3325 -0.8611  0.8979
 1204TIP3   OH225246   0.084   4.740   1.198 -0.0682 -0.1122  0.2454
 1204TIP3    H125247   0.136   4.814   1.167 -1.8244  1.5049  0.9139
 1204TIP3    H225248   0.010   4.734   1.137 -1.1084  0.1477  1.4279
 1205TIP3   OH225249   1.300   1.161   0.125 -0.2374 -0.0339  0.0851
 1205TIP3    H125250   1.231   1.162   0.191  0.0646  1.0113  0.4045
 1205TIP3    H225251   1.337   1.250   0.127 -0.4586  0.1369 -1.7296
 1206TIP3   OH225252   2.650   1.602   0.805  0.5421  0.4435 -0.2020
 1206TIP3    H125253   2.581   1.635   0.863 -0.6359 -1.5488 -0.3646
 1206TIP3    H225254   2.718   1.572   0.864 -0.2256 -0.6602  0.1640
 1207TIP3   OH225255   0.875   0.950   2.267  0.4563 -0.0824 -0.5960
 1207TIP3    H125256   0.863   1.004   2.190 -1.5876  1.6448  0.8207
 1207TIP3    H225257   0.896   0.863   2.233 -1.2268  0.4074 -3.1202
 1208TIP3   OH225258   2.077   6.207   7.346  0.0813  0.1333  0.7748
 1208TIP3    H125259   2.169   6.183   7.350 -0.2751 -1.8433 -0.8407
 1208TIP3    H225260   2.056   6.209   7.253 -1.0703  2.6198  1.0026
 1209TIP3   OH225261   4.173   6.024   1.079 -0.5789 -0.1319  0.4789
 1209TIP3    H125262   4.158   6.108   1.123  0.8562 -0.2957  1.3586
 1209TIP3    H225263   4.268   6.018   1.073 -0.6835 -1.5209  0.0615
 1210TIP3   OH225264   5.938   4.399   7.190 -0.2567 -0.2219  0.9772
 1210TIP3    H125265   5.877   4.450   7.136  0.7551 -1.2047 -1.2313
 1210TIP3    H225266   5.947   4.316   7.143  2.1305 -0.4216  1.6659
 1211TIP3   OH225267   4.349   0.901   1.683 -0.6961  0.3932  0.5702
 1211TIP3    H125268   4.338   0.946   1.767 -0.4884  1.4604  0.0540
 1211TIP3    H225269   4.265   0.858   1.667 -1.1625  1.2088  0.7489
 1212TIP3   OH225270   6.557   6.162   0.826  0.2602  0.2547 -0.2678
 1212TIP3    H125271   6.530   6.206   0.745 -0.2248  0.2202 -0.1277
 1212TIP3    H225272   6.522   6.073   0.818 -0.3664  0.4472  0.2704
 1213TIP3   OH225273   6.056   5.627   1.972  0.5015  0.2426  0.7028
 1213TIP3    H125274   5.997   5.582   1.912  0.0906  2.5162 -0.6831
 1213TIP3    H225275   6.068   5.565   2.044 -1.7965 -1.1680 -0.0246
 1214TIP3   OH225276   3.695   5.812   2.184 -0.4471 -0.0095 -0.0339
 1214TIP3    H125277   3.767   5.822   2.246 -0.7371 -1.4368  0.5905
 1214TIP3    H225278   3.735   5.768   2.108 -0.3739  0.5088 -0.3008
 1215TIP3   OH225279   0.374   0.950   8.185  0.4306  0.0707  0.0840
 1215TIP3    H125280   0.462   0.941   8.221 -0.8807 -0.8816  3.4124
 1215TIP3    H225281   0.360   1.045   8.179  0.7082  0.2966  2.3041
 1216TIP3   OH225282   4.860   2.927   2.325 -0.0565  0.0662 -0.2153
 1216TIP3    H125283   4.946   2.885   2.331 -0.7625 -1.2722  1.8428
 1216TIP3    H225284   4.873   3.002   2.267  3.1577  1.4647  2.0143
 1217TIP3   OH225285   2.561   2.793   1.911 -0.1998 -0.1766 -0.1900
 1217TIP3    H125286   2.573   2.840   1.828  1.8394  2.3733  1.3845
 1217TIP3    H225287   2.479   2.828   1.947  1.4381  2.6759  1.1019
 1218TIP3   OH225288   3.614   1.107   0.975 -0.4045  0.2384  0.4990
 1218TIP3    H125289   3.534   1.057   0.959 -0.1565 -0.4394  1.3282
 1218TIP3    H225290   3.582   1.196   0.995 -0.9642 -0.0522  0.9430
 1219TIP3   OH225291   5.103   4.091   7.512 -0.0705  0.4193  0.7640
 1219TIP3    H125292   5.014   4.121   7.496 -0.5317  1.3172  4.2325
 1219TIP3    H225293   5.155   4.133   7.444 -1.8705  2.3966  0.5152
 1220TIP3   OH225294   6.606   5.022   8.092 -0.2729 -0.6076  0.0140
 1220TIP3    H125295   6.682   5.055   8.044  0.6301 -2.5294  0.0565
 1220TIP3    H225296   6.617   5.056   8.181  1.7046 -2.5392  0.5795
 1221TIP3   OH225297   4.275   5.579   7.453  0.5056  0.2879 -0.0479
 1221TIP3    H125298   4.202   5.585   7.514 -0.4468 -2.1695 -0.8120
 1221TIP3    H225299   4.307   5.489   7.463  1.7982  0.5458 -1.5128
 1222TIP3   OH225300   4.892   6.303   2.398 -0.1506 -0.1696  0.2900
 1222TIP3    H125301   4.944   6.371   2.439  0.4280  0.2353 -1.0613
 1222TIP3    H225302   4.802   6.320   2.427 -0.3420  2.3838 -1.4741
 1223TIP3   OH225303   0.879   4.757   0.921 -0.2346 -0.2168 -0.0651
 1223TIP3    H125304   0.787   4.751   0.947  0.2091 -1.1763  1.3834
 1223TIP3    H225305   0.883   4.709   0.838 -0.9109 -0.7973  0.2284
 1224TIP3   OH225306   3.079   3.768   0.124 -0.4669 -0.1714 -0.0440
 1224TIP3    H125307   3.031   3.751   0.043 -0.0793 -1.6468  0.0167
 1224TIP3    H225308   3.100   3.681   0.158  1.3608  0.4312  0.4546
 1225TIP3   OH225309   3.725   1.680   6.900  0.1931 -0.5559 -0.2860
 1225TIP3    H125310   3.682   1.599   6.873  0.4482 -0.9570  0.4547
 1225TIP3    H225311   3.656   1.732   6.940  0.3239 -1.1292  0.7501
 1226TIP3   OH225312   1.480   2.436   2.112 -0.1175  0.2348  0.2602
 1226TIP3    H125313   1.511   2.524   2.132  1.2773 -0.0149 -0.6800
 1226TIP3    H225314   1.524   2.380   2.176  2.2072 -0.2250 -1.5840
 1227TIP3   OH225315   2.471   6.420   1.482  0.1512  0.2072 -0.5189
 1227TIP3    H125316   2.491   6.347   1.423  0.4524 -0.3513  0.2537
 1227TIP3    H225317   2.547   6.425   1.540  1.1296  2.5216 -1.8700
 1228TIP3   OH225318   4.539   0.763   0.953 -0.1369 -0.1616 -0.2349
 1228TIP3    H125319   4.553   0.857   0.939 -0.0839 -0.0267  0.7000
 1228TIP3    H225320   4.620   0.731   0.991 -0.5142 -0.3851  0.3952
 1229TIP3   OH225321   3.241   1.453   0.832  0.3545 -0.2480  0.3185
 1229TIP3    H125322   3.312   1.447   0.768 -0.0296 -2.1179  0.0104
 1229TIP3    H225323   3.272   1.403   0.907 -1.1753 -2.4848 -0.4212
 1230TIP3   OH225324   2.567   6.114   7.809 -0.2695 -0.9698  0.7306
 1230TIP3    H125325   2.629   6.041   7.811 -0.8308 -1.4510  0.8035
 1230TIP3    H225326   2.590   6.162   7.730 -1.3228 -2.5153 -0.5943
 1231TIP3   OH225327   1.405   4.329   0.591  0.1750  0.0652  0.1556
 1231TIP3    H125328   1.357   4.259   0.546 -0.0469  0.6758 -0.5746
 1231TIP3    H225329   1.445   4.286   0.666 -2.4421 -0.2874  1.4734
 1232TIP3   OH225330   3.378   3.579   8.558  0.1711  0.0581  0.2266
 1232TIP3    H125331   3.309   3.637   8.590 -1.5675 -1.0813 -1.2876
 1232TIP3    H225332   3.331   3.506   8.518  2.1706  0.3250 -2.9496
 1233TIP3   OH225333   4.413   6.269   1.959 -0.0026 -0.1135 -0.4812
 1233TIP3    H125334   4.433   6.318   2.038 -0.8360  0.6501 -0.7317
 1233TIP3    H225335   4.436   6.178   1.981  0.2121  0.1592  0.4701
 1234TIP3   OH225336   0.773   2.643   7.603 -0.4673 -0.1212 -0.1988
 1234TIP3    H125337   0.805   2.724   7.563  1.1354 -0.5943  0.0517
 1234TIP3    H225338   0.849   2.586   7.605 -0.9013 -0.7207  1.9892
 1235TIP3   OH225339   4.804   2.929   7.437 -0.0543  0.1741  0.6607
 1235TIP3    H125340   4.767   2.875   7.507 -1.1318  0.7387  0.5355
 1235TIP3    H225341   4.781   3.019   7.460 -0.5353  0.3619 -0.4653
 1236TIP3   OH225342   0.910   5.123   8.439  0.2215  0.3749  0.2262
 1236TIP3    H125343   0.945   5.119   8.350  0.2081  0.4085  0.2193
 1236TIP3    H225344   0.823   5.163   8.429  0.3334  0.6384  0.2863
 1237TIP3   OH225345   0.275   6.782   8.147 -0.8362  0.4097  0.6866
 1237TIP3    H125346   0.292   6.694   8.181  0.8343  0.4178 -0.0415
 1237TIP3    H225347   0.342   6.837   8.188 -1.7477  1.3211  0.9918
 1238TIP3   OH225348   2.459   6.419   8.177  0.2558  0.2151  0.6737
 1238TIP3    H125349   2.433   6.368   8.099  0.5243 -0.6257  1.1216
 1238TIP3    H225350   2.538   6.465   8.150  0.4465 -0.2098  0.4916
 1239TIP3   OH225351   6.448   4.952   7.874  0.5372  0.1117 -0.0136
 1239TIP3    H125352   6.473   5.041   7.847  0.5026 -0.1551 -0.9485
 1239TIP3    H225353   6.494   4.939   7.957 -0.8826  1.6746  1.0887
 1240TIP3   OH225354   4.950   6.034   7.210 -0.3103  0.5817 -0.0753
 1240TIP3    H125355   4.931   6.064   7.299 -2.2051  2.4720 -1.0168
 1240TIP3    H225356   4.882   5.969   7.192  2.4492 -2.9444  1.1535
 1241TIP3   OH225357   3.014   3.121   6.821  0.0765  0.3510  0.2597
 1241TIP3    H125358   2.970   3.204   6.803  0.8146  0.9012  0.9618
 1241TIP3    H225359   2.953   3.074   6.879  0.5828  1.3062  1.6109
 1242TIP3   OH225360   1.644   1.462   2.711 -0.2018 -0.1597 -0.2311
 1242TIP3    H125361   1.712   1.526   2.693 -0.0941 -0.2117 -0.0138
 1242TIP3    H225362   1.594   1.456   2.630  0.4781 -0.6427 -0.6227
 1243TIP3   OH225363   4.377   3.409   2.107 -0.1942 -0.1068 -0.5775
 1243TIP3    H125364   4.333   3.335   2.149  1.5818 -0.4551  0.7776
 1243TIP3    H225365   4.444   3.369   2.052 -1.1168  0.4403 -2.1771
 1244TIP3   OH225366   5.948   3.656   8.202  0.2518 -0.2034 -0.1935
 1244TIP3    H125367   5.921   3.736   8.157  1.7888  0.3240 -0.2080
 1244TIP3    H225368   6.043   3.657   8.198  0.3475 -1.1719  1.3209
 1245TIP3   OH225369   0.904   2.234   7.907 -0.2396  0.3780 -0.3126
 1245TIP3    H125370   0.964   2.283   7.963  1.3731 -1.1782 -0.5695
 1245TIP3    H225371   0.961   2.195   7.840 -1.5289 -1.1954 -0.5647
 1246TIP3   OH225372   4.581   3.586   1.638  0.1222 -0.4445 -0.4464
 1246TIP3    H125373   4.615   3.561   1.552 -1.5077  0.3955 -1.3819
 1246TIP3    H225374   4.626   3.668   1.658 -0.8499  0.3598 -1.4108
 1247TIP3   OH225375   2.403   0.942   0.536 -0.3783 -0.0712  0.4163
 1247TIP3    H125376   2.451   0.955   0.455 -1.6852 -1.0239 -0.5382
 1247TIP3    H225377   2.416   1.024   0.585 -0.1730  0.8055 -1.0531
 1248TIP3   OH225378   1.532   4.585   0.624 -0.3948  0.0025  0.7934
 1248TIP3    H125379   1.482   4.642   0.565  0.3605  0.5701  0.6843
 1248TIP3    H225380   1.522   4.498   0.587 -0.0189  0.3340 -0.1248
 1249TIP3   OH225381   6.274   3.763   2.567  0.6916  0.3261  0.2346
 1249TIP3    H125382   6.267   3.853   2.535  0.9006  0.2875  0.0797
 1249TIP3    H225383   6.237   3.766   2.655 -1.0260  0.2013 -0.4320
 1250TIP3   OH225384   6.342   6.624   0.393 -0.0666  0.4987  0.4860
 1250TIP3    H125385   6.279   6.610   0.322 -1.8950  0.4319  2.0494
 1250TIP3    H225386   6.386   6.706   0.370  0.2528 -0.1213 -1.2843
 1251TIP3   OH225387   1.421   2.698   0.556  0.7077 -0.1747  0.4757
 1251TIP3    H125388   1.384   2.695   0.468  0.0391  1.7961  0.6285
 1251TIP3    H225389   1.377   2.627   0.603 -1.2042  0.6361  0.0046
 1252TIP3   OH225390   5.238   2.664   7.305 -0.3237  0.0105  0.2647
 1252TIP3    H125391   5.200   2.611   7.235  0.6255  1.2622 -1.2577
 1252TIP3    H225392   5.235   2.754   7.271 -0.5392  0.7645  2.1570
 1253TIP3   OH225393   2.378   5.692   6.806 -0.6249 -0.1294  0.3109
 1253TIP3    H125394   2.361   5.786   6.811 -1.5321 -0.3487  1.7291
 1253TIP3    H225395   2.442   5.675   6.875 -2.2481 -0.9056  1.6857
 1254TIP3   OH225396   2.712   4.459   8.472 -0.1741 -0.4269 -0.0036
 1254TIP3    H125397   2.634   4.448   8.417 -1.3861  0.5333  1.4209
 1254TIP3    H225398   2.680   4.505   8.550  2.1216  1.5052 -0.0784
 1255TIP3   OH225399   6.700   1.163   1.662  0.1987  0.5861 -0.1310
 1255TIP3    H125400   6.707   1.215   1.582 -1.5012 -0.2777 -0.8714
 1255TIP3    H225401   6.749   1.083   1.643 -3.1660 -1.2934 -1.8169
 1256TIP3   OH225402   0.342   6.722   7.251 -0.2258 -0.0655  0.0882
 1256TIP3    H125403   0.423   6.681   7.220 -0.0933 -0.8547  1.4105
 1256TIP3    H225404   0.322   6.788   7.185  1.2008 -0.2235 -0.5392
 1257TIP3   OH225405   2.873   6.869   8.515 -0.0754 -0.0388  0.0382
 1257TIP3    H125406   2.918   6.813   8.450  0.4220  0.5198 -0.1107
 1257TIP3    H225407   2.942   6.893   8.577 -0.8514 -1.7848  1.6601
 1258TIP3   OH225408   5.389   4.697   0.340 -0.3935 -0.5489 -0.0196
 1258TIP3    H125409   5.453   4.741   0.397 -0.7727 -1.1975  0.9283
 1258TIP3    H225410   5.333   4.649   0.400 -0.5495 -1.5926 -0.9769
 1259TIP3   OH225411   6.613   3.417   1.176 -0.0770 -0.0403  0.3936
 1259TIP3    H125412   6.654   3.494   1.216 -0.6628  0.7690 -0.5279
 1259TIP3    H225413   6.630   3.346   1.238  0.3660  0.8544  1.3203
 1260TIP3   OH225414   4.111   0.492   1.476 -0.0119  0.5387 -0.0289
 1260TIP3    H125415   4.019   0.477   1.454 -0.1854 -1.1514  1.6000
 1260TIP3    H225416   4.157   0.420   1.432  0.3315  0.4381  0.4935
 1261TIP3   OH225417   2.064   3.258   0.239  0.2102  0.1910 -0.3755
 1261TIP3    H125418   2.105   3.194   0.298  0.3693  2.2647  1.9208
 1261TIP3    H225419   2.124   3.332   0.237 -1.3247  1.4943 -0.4977
 1262TIP3   OH225420   1.666   6.927   0.980 -0.4020 -0.1961  0.0097
 1262TIP3    H125421   1.651   6.839   1.014 -0.4632  0.4100  1.6319
 1262TIP3    H225422   1.579   6.967   0.980 -0.1013  0.4753  1.0942
 1263TIP3   OH225423   0.748   0.320   7.613  0.4556 -0.1353 -0.2475
 1263TIP3    H125424   0.833   0.327   7.658  0.6648 -0.3431 -0.6061
 1263TIP3    H225425   0.759   0.373   7.534  0.6549 -1.1012 -0.8878
 1264TIP3   OH225426   3.721   4.460   0.213  0.3535 -0.2753  0.7036
 1264TIP3    H125427   3.643   4.496   0.255 -0.2877  0.1714 -0.7993
 1264TIP3    H225428   3.688   4.397   0.150  1.2268 -0.2891  0.2435
 1265TIP3   OH225429   5.759   3.735   1.361 -0.4037  0.1481 -0.4878
 1265TIP3    H125430   5.680   3.756   1.312 -0.9259 -0.1090  0.2239
 1265TIP3    H225431   5.757   3.640   1.371  0.5515  0.0118 -1.3661
 1266TIP3   OH225432   5.463   5.997   1.882  0.4662  0.1246 -0.0105
 1266TIP3    H125433   5.509   5.942   1.818 -1.5191  0.1798 -1.6118
 1266TIP3    H225434   5.385   5.946   1.905 -0.3606  1.3841  0.0591
 1267TIP3   OH225435   5.577   1.173   2.614 -0.0701  0.1363  0.1204
 1267TIP3    H125436   5.534   1.099   2.570  0.1606  0.3637 -0.5114
 1267TIP3    H225437   5.540   1.174   2.702 -2.0404  0.8447 -0.6512
 1268TIP3   OH225438   6.587   4.131   7.854  0.0071 -0.2178  0.5425
 1268TIP3    H125439   6.674   4.096   7.875 -0.0842 -1.3616 -0.8217
 1268TIP3    H225440   6.533   4.106   7.929  0.5229 -0.8200  0.7261
 1269TIP3   OH225441   3.110   6.273   2.373  0.4147 -0.4589  0.4695
 1269TIP3    H125442   3.026   6.295   2.413 -0.2184  1.6846 -1.7830
 1269TIP3    H225443   3.153   6.357   2.358  2.3413 -1.4187  0.2042
 1270TIP3   OH225444   2.740   0.826   8.283 -0.4741  0.4791  0.2422
 1270TIP3    H125445   2.742   0.738   8.244 -0.9435  0.1200  1.0013
 1270TIP3    H225446   2.819   0.869   8.250  0.6410 -0.7903  1.1554
 1271TIP3   OH225447   5.732   5.422   8.016 -0.2539  0.6130  0.3394
 1271TIP3    H125448   5.799   5.432   7.948  0.6370  0.6534  1.1980
 1271TIP3    H225449   5.650   5.440   7.972  0.3535  1.0916 -0.6228
 1272TIP3   OH225450   5.912   4.311   2.034 -0.0406  0.1607  0.4103
 1272TIP3    H125451   5.851   4.321   1.961 -0.3158  0.4594  0.6758
 1272TIP3    H225452   5.855   4.304   2.111  0.2746  2.0302  0.8657
 1273TIP3   OH225453   0.023   5.219   0.990 -0.6387 -0.6133 -0.1935
 1273TIP3    H125454   0.025   5.172   0.906  0.8819  0.3538 -0.7400
 1273TIP3    H225455   0.010   5.150   1.055 -1.6154 -1.4092 -1.1920
 1274TIP3   OH225456   0.055   2.046   1.474  0.1118 -0.4445 -0.4603
 1274TIP3    H125457   0.095   1.968   1.515  0.9928 -0.1438 -0.7254
 1274TIP3    H225458  -0.037   2.022   1.463  0.1413 -1.0398  0.4612
 1275TIP3   OH225459   4.737   1.665   2.059  0.3738  0.3216 -0.0531
 1275TIP3    H125460   4.681   1.655   2.136  0.1118 -1.2635 -0.4063
 1275TIP3    H225461   4.819   1.622   2.084  1.1435  1.8294  0.1323
 1276TIP3   OH225462   5.933   3.685   2.011  0.2771 -0.0513 -0.4402
 1276TIP3    H125463   5.954   3.713   1.922  1.9852  1.8909  0.5100
 1276TIP3    H225464   6.004   3.626   2.036 -0.0616 -0.3876 -0.2347
 1277TIP3   OH225465   0.617   6.197   8.526 -0.1715  0.0033 -0.5267
 1277TIP3    H125466   0.540   6.166   8.574  0.7334 -1.1281  0.2579
 1277TIP3    H225467   0.618   6.144   8.446 -1.6909  1.9023 -1.8773
 1278TIP3   OH225468   3.773   6.469   1.324 -0.2938  0.2651  0.6300
 1278TIP3    H125469   3.830   6.489   1.250 -0.7681 -1.0066 -0.1230
 1278TIP3    H225470   3.750   6.554   1.360  2.0709  0.8264  0.9906
 1279TIP3   OH225471   3.049   1.329   7.694 -0.3785 -0.2854 -0.4874
 1279TIP3    H125472   3.133   1.368   7.718 -1.0162  1.7529 -1.3306
 1279TIP3    H225473   2.990   1.352   7.766 -0.5197 -0.6032 -0.4998
 1280TIP3   OH225474   2.111   3.368   1.508 -0.2705  0.5574  0.3664
 1280TIP3    H125475   2.021   3.344   1.484 -0.2513  0.0183  0.8118
 1280TIP3    H225476   2.112   3.364   1.604  0.5721 -0.7695  0.3287
 1281TIP3   OH225477   1.519   2.689   1.077  0.1780 -0.5816 -0.3616
 1281TIP3    H125478   1.530   2.594   1.075  2.3278 -0.5076  2.3391
 1281TIP3    H225479   1.520   2.715   0.984  3.3062 -2.8861 -1.1521
 1282TIP3   OH225480   6.859   2.391   1.277 -0.0070 -0.5389 -0.5313
 1282TIP3    H125481   6.954   2.381   1.281 -0.1600 -2.4175 -0.4319
 1282TIP3    H225482   6.825   2.302   1.287 -1.7537 -0.0397 -1.4481
 1283TIP3   OH225483   3.388   2.949   2.339 -0.2518  0.1267 -0.5875
 1283TIP3    H125484   3.420   2.897   2.265 -0.3746  0.3468 -0.7958
 1283TIP3    H225485   3.325   2.892   2.384  0.5350 -0.3731 -0.0839
 1284TIP3   OH225486   2.912   2.117   6.954  0.3871 -0.7189  0.3281
 1284TIP3    H125487   2.927   2.205   6.920 -2.2625 -0.5920 -0.7345
 1284TIP3    H225488   2.946   2.059   6.886  1.3687 -0.5268  0.6445
 1285TIP3   OH225489   3.936   1.651   8.280 -0.2561  0.2385  0.2346
 1285TIP3    H125490   3.973   1.726   8.327 -2.2030 -0.3962  3.0357
 1285TIP3    H225491   3.948   1.577   8.340 -1.2120 -1.0325 -1.0730
 1286TIP3   OH225492   5.255   4.294   1.068 -0.6282 -0.0061  0.6392
 1286TIP3    H125493   5.314   4.335   1.004 -0.9125  0.1647  0.4852
 1286TIP3    H225494   5.202   4.367   1.101 -0.2586 -0.0383  1.3164
 1287TIP3   OH225495   1.278   1.548   2.069 -0.1366  0.1530 -0.0459
 1287TIP3    H125496   1.235   1.599   2.137  0.0594  2.7130 -1.6795
 1287TIP3    H225497   1.364   1.589   2.058  1.0862 -2.1804  0.2555
 1288TIP3   OH225498   0.698   6.810   1.167  0.2152  0.2775 -0.6386
 1288TIP3    H125499   0.779   6.779   1.126  0.0059 -1.6184  0.2587
 1288TIP3    H225500   0.648   6.848   1.095  1.7786  1.2560 -1.2562
 1289TIP3   OH225501   0.518   1.809   2.318 -0.4121  0.0262 -0.5643
 1289TIP3    H125502   0.552   1.728   2.356  0.7912  0.2107 -1.2005
 1289TIP3    H225503   0.475   1.854   2.391  1.4095  0.1487  0.4757
 1290TIP3   OH225504   5.726   6.810   0.584  0.0374 -0.7346  0.6108
 1290TIP3    H125505   5.660   6.749   0.550  0.8701 -0.6741 -1.2657
 1290TIP3    H225506   5.691   6.897   0.563 -0.2428 -0.6200  1.5167
 1291TIP3   OH225507   5.128   1.128   2.333  0.2061 -0.4093  0.0771
 1291TIP3    H125508   5.131   1.218   2.364 -0.5172 -1.2310  2.7615
 1291TIP3    H225509   5.104   1.076   2.410  2.5557 -3.1438 -0.8369
 1292TIP3   OH225510   2.750   0.549   7.283  0.0691  0.0947  0.0658
 1292TIP3    H125511   2.793   0.634   7.279 -0.2210  0.2342 -0.0893
 1292TIP3    H225512   2.773   0.514   7.369 -3.4523  2.2589  2.1465
 1293TIP3   OH225513   0.648   0.695   1.793  0.0065 -0.1475  0.4558
 1293TIP3    H125514   0.660   0.749   1.871 -1.3633 -0.1792  0.7134
 1293TIP3    H225515   0.730   0.647   1.783 -0.2467 -1.1612  2.6786
 1294TIP3   OH225516   2.525   5.898   0.162  0.3910  0.0606  0.3392
 1294TIP3    H125517   2.570   5.950   0.229  0.0499 -0.9288  1.3645
 1294TIP3    H225518   2.596   5.862   0.110  0.9050 -1.8379  2.2051
 1295TIP3   OH225519   0.509   1.371   0.419 -0.3203 -0.0846 -0.4923
 1295TIP3    H125520   0.435   1.364   0.359  0.4972 -1.2919 -1.3962
 1295TIP3    H225521   0.579   1.321   0.378  0.8519  0.5810  0.5969
 1296TIP3   OH225522   3.825   2.107   0.879 -0.1465 -0.2762  0.3500
 1296TIP3    H125523   3.752   2.046   0.865 -0.2534 -0.3286  1.1085
 1296TIP3    H225524   3.867   2.114   0.794 -1.1443 -0.1121 -0.1500
 1297TIP3   OH225525   5.977   1.580   7.675 -0.5602  0.2453 -0.0514
 1297TIP3    H125526   6.040   1.648   7.654 -0.3759 -0.3019 -1.3339
 1297TIP3    H225527   5.993   1.511   7.611 -1.8775 -0.2729  0.1393
 1298TIP3   OH225528   0.213   2.165   7.259 -0.5164  0.0585  0.9188
 1298TIP3    H125529   0.292   2.112   7.252 -0.3857  0.2020  1.2395
 1298TIP3    H225530   0.151   2.125   7.199  0.1333  0.5576 -0.1092
 1299TIP3   OH225531   4.985   5.727   7.881 -0.0923 -0.4103  0.0733
 1299TIP3    H125532   5.021   5.639   7.887 -0.4514 -0.6563 -1.1251
 1299TIP3    H225533   5.016   5.771   7.960  0.1139 -1.5944  0.6706
 1300TIP3   OH225534   4.027   3.796   7.466  0.2741  0.1393  0.0042
 1300TIP3    H125535   4.041   3.745   7.545  3.3334 -0.6470 -0.8839
 1300TIP3    H225536   4.052   3.885   7.490 -0.9550  0.3855  0.4468
 1301TIP3   OH225537   1.157   4.080   2.693  0.1964 -0.4361 -0.1664
 1301TIP3    H125538   1.100   4.011   2.658 -0.2671 -0.4355  0.5664
 1301TIP3    H225539   1.212   4.035   2.758  0.5208 -0.2858 -0.3336
 1302TIP3   OH225540   4.321   3.908   0.954 -0.2485 -0.3554 -0.0739
 1302TIP3    H125541   4.405   3.914   1.001 -0.9712  0.7042  1.1699
 1302TIP3    H225542   4.303   3.814   0.949  0.8385 -0.5772 -0.0218
 1303TIP3   OH225543   0.982   1.878   7.519 -0.0850  0.0747  0.1449
 1303TIP3    H125544   1.053   1.815   7.507 -0.2926 -0.0911 -0.2239
 1303TIP3    H225545   0.918   1.832   7.573 -0.9058 -0.5777 -1.3203
 1304TIP3   OH225546   1.072   4.841   1.915 -0.0882  0.4480  0.0969
 1304TIP3    H125547   1.009   4.911   1.896  0.9080  1.4752  0.4943
 1304TIP3    H225548   1.053   4.816   2.006 -0.4890  0.1324 -0.0671
 1305TIP3   OH225549   0.714   6.752   0.665  0.5062 -0.5146  0.1415
 1305TIP3    H125550   0.753   6.839   0.667 -0.2631 -0.1540 -0.0460
 1305TIP3    H225551   0.624   6.767   0.637 -0.3187 -1.1056  2.2348
 1306TIP3   OH225552   1.195   5.405   0.349 -0.4804 -0.6879  0.5217
 1306TIP3    H125553   1.165   5.451   0.270 -1.8666  1.1380  2.0238
 1306TIP3    H225554   1.289   5.424   0.353 -0.5908  0.0599 -0.1406
 1307TIP3   OH225555   1.258   1.793   7.432  0.0600 -0.2851  0.2967
 1307TIP3    H125556   1.349   1.822   7.446  0.2966 -0.5310 -0.6412
 1307TIP3    H225557   1.251   1.783   7.337 -1.6071  1.8254  0.1368
 1308TIP3   OH225558   0.336   2.585   8.209  0.0499 -0.4220  0.1841
 1308TIP3    H125559   0.389   2.517   8.167  0.7913  0.2575  0.0031
 1308TIP3    H225560   0.252   2.581   8.162  0.3171 -0.7559 -0.2756
 1309TIP3   OH225561   0.182   6.526   7.728  0.2247 -0.4068  0.1827
 1309TIP3    H125562   0.120   6.453   7.735  0.8367 -0.9155  0.5386
 1309TIP3    H225563   0.135   6.594   7.681 -1.3618  0.0614  2.2796
 1310TIP3   OH225564   3.845   0.947   2.263  0.1796 -1.0094  0.1828
 1310TIP3    H125565   3.917   1.001   2.297  0.1429 -0.1491 -1.0236
 1310TIP3    H225566   3.770   0.973   2.316  0.4318 -0.7724  0.4302
 1311TIP3   OH225567   1.562   2.404   1.005 -0.2072  0.2501 -0.2480
 1311TIP3    H125568   1.634   2.454   0.969  0.8671 -0.7578  0.4208
 1311TIP3    H225569   1.499   2.396   0.933  0.8417  0.2183 -1.1882
 1312TIP3   OH225570   4.963   2.603   7.941  0.6421 -0.2794 -0.3134
 1312TIP3    H125571   5.005   2.597   7.855 -0.7528 -1.3548 -0.9593
 1312TIP3    H225572   4.986   2.521   7.985 -1.5355 -1.3912 -1.0899
 1313TIP3   OH225573   4.319   6.678   2.056  0.1067 -0.0139  0.6046
 1313TIP3    H125574   4.317   6.600   2.112  1.8586 -1.4713 -1.2300
 1313TIP3    H225575   4.332   6.644   1.968  1.0965  2.3659 -0.2471
 1314TIP3   OH225576   4.348   0.278   0.165 -0.1886 -0.1092  0.2457
 1314TIP3    H125577   4.437   0.252   0.142  0.6672  0.2752  2.8023
 1314TIP3    H225578   4.292   0.214   0.121  1.3936 -1.0043 -0.5511
 1315TIP3   OH225579   3.584   4.312   6.896  0.7057  0.0682  0.0750
 1315TIP3    H125580   3.621   4.240   6.947  2.2631  0.0142 -1.0543
 1315TIP3    H225581   3.531   4.361   6.959  1.5134 -0.7205  1.4296
 1316TIP3   OH225582   6.878   2.467   7.171 -0.3606 -0.1876  0.2137
 1316TIP3    H125583   6.942   2.526   7.131  0.7006 -1.5478 -0.1975
 1316TIP3    H225584   6.893   2.477   7.265  1.7062 -1.7036  0.1145
 1317TIP3   OH225585   4.466   6.908   0.094 -0.3779  0.2410  0.0881
 1317TIP3    H125586   4.378   6.884   0.121 -0.6264 -1.2374 -1.7988
 1317TIP3    H225587   4.485   6.850   0.020  1.9321  0.9608  0.0317
 1318TIP3   OH225588   5.580   4.762   8.144 -0.8681  0.0370 -0.5138
 1318TIP3    H125589   5.584   4.837   8.204 -1.9659 -1.1127  1.0551
 1318TIP3    H225590   5.639   4.786   8.072  1.7829  0.7930  1.7556
 1319TIP3   OH225591   4.423   4.351   1.622  0.5436 -0.4404 -0.6708
 1319TIP3    H125592   4.469   4.402   1.555  1.4973  0.6334  0.7218
 1319TIP3    H225593   4.470   4.268   1.625  1.5385  0.1183 -0.2426
 1320TIP3   OH225594   3.148   4.289   1.512  0.3478  0.1087  0.2213
 1320TIP3    H125595   3.081   4.312   1.576  0.7616  0.4258  0.5406
 1320TIP3    H225596   3.125   4.200   1.485  0.8520 -0.5138  1.7039
 1321TIP3   OH225597   2.195   5.279   1.021 -0.0396 -0.2981 -0.2540
 1321TIP3    H125598   2.139   5.208   0.991  0.1215 -0.9829  1.0300
 1321TIP3    H225599   2.276   5.268   0.971 -0.4935 -0.1954 -1.0304
 1322TIP3   OH225600   5.980   1.160   2.213 -0.0198 -0.0165  0.2618
 1322TIP3    H125601   5.961   1.241   2.260 -0.4399 -0.1350  0.3001
 1322TIP3    H225602   5.926   1.165   2.134  1.5252  0.7192 -0.8106
 1323TIP3   OH225603   4.550   1.885   0.848 -0.6216  0.3031  0.2883
 1323TIP3    H125604   4.496   1.889   0.769  1.7706  0.6971 -1.4246
 1323TIP3    H225605   4.571   1.792   0.858 -0.5163  0.3159  0.1814
 1324TIP3   OH225606   3.584   1.226   0.381 -0.5825 -0.3798  0.2241
 1324TIP3    H125607   3.632   1.309   0.384 -0.8234 -0.2660  0.9692
 1324TIP3    H225608   3.499   1.248   0.344 -1.1252 -0.0482  1.6216
 1325TIP3   OH225609   1.863   5.811   6.659 -0.3932  0.5376 -0.0848
 1325TIP3    H125610   1.864   5.754   6.581 -1.1488  0.7706 -0.2754
 1325TIP3    H225611   1.943   5.862   6.652 -0.1370  0.1017 -0.3736
 1326TIP3   OH225612   4.454   0.912   1.441 -0.1569  0.4059  0.2570
 1326TIP3    H125613   4.421   0.901   1.530  0.6684  2.0436  0.8084
 1326TIP3    H225614   4.529   0.970   1.450  0.3554  0.0616 -1.4404
 1327TIP3   OH225615   2.729   5.274   1.855  0.1311  0.2623  0.1299
 1327TIP3    H125616   2.731   5.324   1.773  3.6687  1.6165  0.8295
 1327TIP3    H225617   2.641   5.287   1.890 -1.4132 -0.1435 -3.2695
 1328TIP3   OH225618   5.621   5.635   7.521 -0.2077 -0.3718  0.0752
 1328TIP3    H125619   5.678   5.575   7.472 -0.2968 -0.0422 -0.4412
 1328TIP3    H225620   5.669   5.653   7.602  0.6928  0.3474 -0.5970
 1329TIP3   OH225621   3.155   6.219   2.072 -0.1352  0.1286 -0.1394
 1329TIP3    H125622   3.099   6.296   2.055  0.9055  1.0000  0.2694
 1329TIP3    H225623   3.093   6.148   2.090 -1.1251  1.0052  0.0357
 1330TIP3   OH225624   2.206   5.539   8.345 -0.2750 -0.0304 -0.1377
 1330TIP3    H125625   2.144   5.504   8.281 -0.0727 -0.1713 -0.2581
 1330TIP3    H225626   2.185   5.494   8.426 -1.1436  0.8265  0.1223
 1331TIP3   OH225627   6.678   6.278   0.014  0.4708 -0.8796  0.5083
 1331TIP3    H125628   6.671   6.306   0.106  1.9989 -1.2258  0.7580
 1331TIP3    H225629   6.714   6.355  -0.031 -0.1692 -0.7487  0.2156
 1332TIP3   OH225630   0.418   5.866   1.512 -0.3048  0.2872  1.1835
 1332TIP3    H125631   0.397   5.774   1.493 -0.4137  0.2895  1.2878
 1332TIP3    H225632   0.336   5.902   1.547  0.1671  0.0064  2.6338
 1333TIP3   OH225633   5.626   1.016   7.724  0.2818  0.3315 -0.1839
 1333TIP3    H125634   5.702   1.017   7.782  0.8548  1.0901 -0.9465
 1333TIP3    H225635   5.553   1.042   7.781  0.5864 -0.2940  0.5224
 1334TIP3   OH225636   6.604   2.663   7.839 -0.1831  0.1236  0.3843
 1334TIP3    H125637   6.617   2.573   7.869 -0.6531 -0.0842 -0.0243
 1334TIP3    H225638   6.593   2.655   7.745  2.8691  0.9256 -0.1503
 1335TIP3   OH225639   0.923   0.867   0.919  0.6215 -0.2966 -0.7310
 1335TIP3    H125640   0.916   0.902   0.831 -0.6815  0.2632 -0.4261
 1335TIP3    H225641   0.835   0.836   0.940  0.6265  0.6380  0.7919
 1336TIP3   OH225642   4.309   5.939   1.581 -0.4441  0.5134  0.7696
 1336TIP3    H125643   4.399   5.923   1.610 -0.0916 -1.3036 -1.0584
 1336TIP3    H225644   4.256   5.928   1.660  0.7620 -0.7111  1.4595
 1337TIP3   OH225645   4.781   2.523   0.982  0.1659  0.2152 -0.8700
 1337TIP3    H125646   4.797   2.429   0.985  2.3712  0.5617  0.1216
 1337TIP3    H225647   4.835   2.554   0.909  0.9332  0.9215 -0.0302
 1338TIP3   OH225648   0.118   4.100   7.560  0.0732 -0.4591 -0.2573
 1338TIP3    H125649   0.113   4.178   7.615  0.0747  0.1927 -1.1615
 1338TIP3    H225650   0.085   4.029   7.616  2.5309 -0.3450  1.5079
 1339TIP3   OH225651   4.333   6.109   0.637 -0.0983 -0.1881 -0.0890
 1339TIP3    H125652   4.331   6.193   0.682  0.7062 -1.3179  2.1894
 1339TIP3    H225653   4.420   6.074   0.654  0.0166 -0.9780 -2.0380
 1340TIP3   OH225654   5.944   5.221   7.519 -0.3553 -0.1150  0.3569
 1340TIP3    H125655   5.928   5.127   7.517 -1.9940  0.1398 -0.6583
 1340TIP3    H225656   6.037   5.230   7.502 -0.3309 -1.5226 -0.4302
 1341TIP3   OH225657   2.049   5.234   0.570 -0.5626  0.0282 -0.1955
 1341TIP3    H125658   2.087   5.152   0.540  1.6408  0.7424  0.4506
 1341TIP3    H225659   1.990   5.260   0.498  0.5016 -0.9419 -1.4739
 1342TIP3   OH225660   4.027   1.241   2.563 -0.2186  0.5466  0.0843
 1342TIP3    H125661   4.036   1.250   2.468  0.5611  0.1507  0.1091
 1342TIP3    H225662   3.937   1.268   2.581 -2.1040 -3.7840 -1.3686
 1343TIP3   OH225663   2.711   6.305   7.326 -0.0267 -0.2132  0.3722
 1343TIP3    H125664   2.805   6.304   7.306 -0.5543 -1.8338 -2.5935
 1343TIP3    H225665   2.672   6.350   7.251 -1.6983 -0.4402  1.0767
 1344TIP3   OH225666   2.996   1.798   2.330  0.4303 -0.5893  0.2136
 1344TIP3    H125667   2.998   1.702   2.327  0.5295 -0.5807  0.0179
 1344TIP3    H225668   3.010   1.825   2.240  1.5027 -0.3700  0.4373
 1345TIP3   OH225669   0.281   3.660   0.456  0.2159  0.4058  0.1979
 1345TIP3    H125670   0.352   3.673   0.518  0.3537  0.8925 -0.0548
 1345TIP3    H225671   0.257   3.568   0.465  1.9378 -0.1772 -0.8419
 1346TIP3   OH225672   1.138   6.672   0.486 -0.0894 -0.4288 -0.6667
 1346TIP3    H125673   1.122   6.762   0.513  0.9943 -0.4356  0.0511
 1346TIP3    H225674   1.114   6.619   0.563  0.2857 -0.6732 -0.7158
 1347TIP3   OH225675   2.004   1.171   8.384  0.5630  0.0876 -0.1110
 1347TIP3    H125676   1.909   1.164   8.369  0.5037 -0.5791  0.5462
 1347TIP3    H225677   2.043   1.139   8.303  0.2275 -0.7284  0.0387
 1348TIP3   OH225678   2.341   0.919   0.875 -0.2117  0.3111  0.3021
 1348TIP3    H125679   2.409   0.982   0.851  1.0904 -0.5137  1.6928
 1348TIP3    H225680   2.357   0.844   0.818 -0.1858  0.2530  0.3863
 1349TIP3   OH225681   6.659   2.177   7.306  0.3321  0.2077 -0.9083
 1349TIP3    H125682   6.664   2.082   7.315  0.8410  0.3363  0.4236
 1349TIP3    H225683   6.598   2.205   7.374  0.2290  0.8374 -1.2510
 1350TIP3   OH225684   0.465   2.291   7.865 -0.3501 -0.7676  0.2366
 1350TIP3    H125685   0.509   2.208   7.880  0.1989 -0.6560 -0.6668
 1350TIP3    H225686   0.511   2.353   7.922  1.3486 -0.4588 -1.3428
 1351TIP3   OH225687   1.881   0.234   8.267  0.3345  0.2407  1.2559
 1351TIP3    H125688   1.912   0.144   8.268  1.8315  0.7190  3.7215
 1351TIP3    H225689   1.960   0.287   8.269 -0.4374  1.7512 -1.5735
 1352TIP3   OH225690   6.334   2.260   7.201 -0.3609 -0.1133 -0.3961
 1352TIP3    H125691   6.301   2.323   7.265 -1.4616 -0.0844 -0.9822
 1352TIP3    H225692   6.339   2.177   7.249 -1.4339 -0.1497 -0.3421
 1353TIP3   OH225693   4.041   6.031   0.076  0.0871 -0.3452 -0.0990
 1353TIP3    H125694   3.963   6.083   0.094 -1.0273 -2.3725  1.3738
 1353TIP3    H225695   4.109   6.069   0.131 -0.8739 -0.7905  1.4524
 1354TIP3   OH225696   1.019   6.113   7.745 -0.0432 -0.0779 -0.0877
 1354TIP3    H125697   1.081   6.155   7.805  0.2925 -0.5405 -0.1070
 1354TIP3    H225698   1.074   6.070   7.680 -0.3715 -0.9172  0.1774
 1355TIP3   OH225699   4.567   1.809   7.252  0.6408 -0.3888 -0.3346
 1355TIP3    H125700   4.539   1.860   7.175  0.9109  0.7485  0.2985
 1355TIP3    H225701   4.646   1.853   7.282  0.4526 -0.7225  0.6923
 1356TIP3   OH225702   0.510   6.036   2.168 -0.1950  0.5214 -0.0459
 1356TIP3    H125703   0.460   6.092   2.228 -1.0583 -0.1970 -0.0561
 1356TIP3    H225704   0.518   6.087   2.088 -0.0752  1.0271  0.2840
 1357TIP3   OH225705   3.151   6.813   8.035 -0.5894 -0.1240 -0.4193
 1357TIP3    H125706   3.222   6.876   8.029  0.1245 -0.9583 -0.9190
 1357TIP3    H225707   3.186   6.741   8.087 -1.4830 -0.0030  0.3678
 1358TIP3   OH225708   2.892   0.773   7.321  0.0980  0.0380  0.0245
 1358TIP3    H125709   2.965   0.774   7.259  1.1150 -2.1516  1.0854
 1358TIP3    H225710   2.897   0.858   7.365  0.9157  0.6076 -1.1115
 1359TIP3   OH225711   4.152   5.868   8.298 -0.0299 -0.0521 -0.6131
 1359TIP3    H125712   4.149   5.835   8.208 -1.9997  0.9085 -0.9384
 1359TIP3    H225713   4.108   5.952   8.294  2.1768  1.2523  0.8010
 1360TIP3   OH225714   6.547   4.774   6.697 -1.2877 -0.4953 -0.0854
 1360TIP3    H125715   6.640   4.780   6.676 -0.8246 -1.1722  1.5773
 1360TIP3    H225716   6.503   4.763   6.612  0.1318 -0.1830 -0.8872
 1361TIP3   OH225717   3.348   6.044   0.549 -0.0543 -0.2085 -1.0428
 1361TIP3    H125718   3.388   6.106   0.610  0.9322 -0.6576 -1.2154
 1361TIP3    H225719   3.416   6.028   0.484 -0.2439 -1.5956 -0.9175
 1362TIP3   OH225720   3.562   0.138   1.740  0.4648  0.0631 -0.0259
 1362TIP3    H125721   3.507   0.114   1.665  2.3548  0.4677 -1.6382
 1362TIP3    H225722   3.518   0.099   1.815 -1.4317 -0.5235 -1.3371
 1363TIP3   OH225723   0.623   3.398   0.583 -0.0125  0.4264 -0.3306
 1363TIP3    H125724   0.610   3.322   0.640  0.7400  1.0940  0.7895
 1363TIP3    H225725   0.564   3.383   0.509  0.3792 -1.4128 -0.3276
 1364TIP3   OH225726   2.806   1.570   0.209  0.1894 -0.5194 -0.5346
 1364TIP3    H125727   2.851   1.615   0.280  0.0809 -3.0585  1.2704
 1364TIP3    H225728   2.719   1.608   0.207  0.4735  0.1769  0.1170
 1365TIP3   OH225729   3.064   3.607   1.838 -0.3159 -0.5632  0.1321
 1365TIP3    H125730   3.023   3.550   1.903  0.4643 -2.7407 -1.1863
 1365TIP3    H225731   3.124   3.550   1.790 -0.0741  1.2011 -1.8047
 1366TIP3   OH225732   3.890   5.978   1.124 -0.0178  0.0330 -0.0906
 1366TIP3    H125733   3.980   6.011   1.116 -0.5756  1.4014 -1.3238
 1366TIP3    H225734   3.836   6.058   1.128 -1.0988 -0.7171  2.3088
 1367TIP3   OH225735   0.196   4.212   6.906  0.1771  0.0053  0.0674
 1367TIP3    H125736   0.149   4.286   6.869 -0.4397  0.1445  1.0764
 1367TIP3    H225737   0.288   4.238   6.905 -0.0570  0.8915  0.6379
 1368TIP3   OH225738   3.827   3.360   8.119 -0.3797  0.4200  0.3506
 1368TIP3    H125739   3.761   3.296   8.095 -0.7267  1.0215 -0.3456
 1368TIP3    H225740   3.867   3.325   8.199 -1.4478 -0.0112  0.7130
 1369TIP3   OH225741   4.762   2.217   1.674 -0.3466  0.2612  0.0519
 1369TIP3    H125742   4.793   2.185   1.590 -1.5381  0.6053 -0.5371
 1369TIP3    H225743   4.667   2.209   1.669 -0.4509  0.5193  1.2748
 1370TIP3   OH225744   0.059   4.331   2.330 -0.2677  0.0781  0.2045
 1370TIP3    H125745   0.011   4.407   2.296 -0.1007 -0.1255 -0.5041
 1370TIP3    H225746   0.135   4.369   2.375 -0.3322  0.3401  0.0961
 1371TIP3   OH225747   1.237   3.716   1.762 -0.1115  0.4029 -0.0805
 1371TIP3    H125748   1.287   3.788   1.724 -0.8277  0.9396 -0.0155
 1371TIP3    H225749   1.206   3.749   1.845 -0.4355  0.0087 -0.0399
 1372TIP3   OH225750   4.081   4.727   7.235 -0.1589 -0.2044 -0.0972
 1372TIP3    H125751   4.157   4.670   7.241 -0.8312 -1.2047 -0.8022
 1372TIP3    H225752   4.113   4.807   7.195  0.8358  0.0108  1.0734
 1373TIP3   OH225753   5.696   5.094   1.548  0.0102 -0.2804  0.1681
 1373TIP3    H125754   5.746   5.175   1.538  1.2046 -0.9341  0.5867
 1373TIP3    H225755   5.675   5.090   1.641  0.2713 -0.6149  0.2159
 1374TIP3   OH225756   6.849   5.797   7.871 -0.2716 -0.5689 -0.1413
 1374TIP3    H125757   6.838   5.720   7.926 -1.8950  0.2973  0.8230
 1374TIP3    H225758   6.765   5.843   7.876 -0.4179 -0.2839 -3.1286
 1375TIP3   OH225759   5.867   4.686   0.317  0.4450  0.5759  0.1261
 1375TIP3    H125760   5.872   4.681   0.221  0.5193 -0.2071  0.1631
 1375TIP3    H225761   5.809   4.760   0.334  0.1338  0.4929 -0.5323
 1376TIP3   OH225762   5.317   5.006   0.354 -0.0068  0.3038 -0.4291
 1376TIP3    H125763   5.302   4.912   0.352 -1.3269  0.4177  1.8382
 1376TIP3    H225764   5.343   5.025   0.444  2.0328  1.9102 -1.2520
 1377TIP3   OH225765   3.789   0.317   1.194  0.4944 -0.1386  0.0106
 1377TIP3    H125766   3.702   0.277   1.191 -0.2923  1.5391 -0.9419
 1377TIP3    H225767   3.784   0.382   1.264  0.8456  0.2483 -0.3164
 1378TIP3   OH225768   3.207   3.170   1.478 -0.1469 -0.4399  0.0033
 1378TIP3    H125769   3.241   3.139   1.394 -0.7308 -3.9940  0.9127
 1378TIP3    H225770   3.281   3.160   1.538  0.0853  1.5148  0.1100
 1379TIP3   OH225771   3.393   0.883   1.334 -0.2806  0.0522 -0.2261
 1379TIP3    H125772   3.426   0.898   1.422 -1.5998  0.3074  0.2497
 1379TIP3    H225773   3.455   0.929   1.277 -0.0973  0.9464  0.6601
 1380TIP3   OH225774   4.262   6.612   1.114 -0.1115  0.1569  0.1289
 1380TIP3    H125775   4.306   6.627   1.030  1.6411  1.1301  1.1617
 1380TIP3    H225776   4.301   6.531   1.147 -1.5712 -0.8086 -0.4462
 1381TIP3   OH225777   4.394   1.882   7.571 -0.5909  0.1319  0.3133
 1381TIP3    H125778   4.389   1.850   7.480  3.0861 -1.3812  0.4923
 1381TIP3    H225779   4.358   1.810   7.623  0.1592 -0.3265  0.2135
 1382TIP3   OH225780   2.412   1.507   0.106 -0.2340 -0.3320  0.4697
 1382TIP3    H125781   2.369   1.514   0.191 -0.4879  1.6789  0.2134
 1382TIP3    H225782   2.460   1.589   0.096  0.3613 -0.8246 -1.0293
 1383TIP3   OH225783   0.001   2.053   2.747 -0.7378  0.1614  0.1213
 1383TIP3    H125784   0.063   2.004   2.692 -0.4538 -0.2205  0.7658
 1383TIP3    H225785  -0.069   1.991   2.765  0.2012 -0.4398  1.9299
 1384TIP3   OH225786   1.602   3.978   7.658 -0.6866 -0.1614  0.1693
 1384TIP3    H125787   1.571   3.930   7.581  1.7806  1.6232 -2.0923
 1384TIP3    H225788   1.525   4.025   7.689 -2.0774 -2.0294 -0.2334
 1385TIP3   OH225789   5.710   0.242   7.243  0.4334  0.2872  0.3320
 1385TIP3    H125790   5.678   0.267   7.330 -0.6741 -0.0735  0.0534
 1385TIP3    H225791   5.631   0.214   7.196  0.7487  1.8679 -1.2846
 1386TIP3   OH225792   3.046   4.725   6.925  0.1606 -0.7038  0.5568
 1386TIP3    H125793   3.142   4.727   6.933  0.2845  1.5284 -0.4763
 1386TIP3    H225794   3.016   4.793   6.985 -0.6908 -0.8339  0.2895
 1387TIP3   OH225795   3.855   3.183   7.414  0.5489  0.5642  0.2003
 1387TIP3    H125796   3.876   3.252   7.477  0.7455  0.5019  0.2026
 1387TIP3    H225797   3.938   3.138   7.399 -0.2275 -2.2358  3.2290
 1388TIP3   OH225798   5.004   5.855   0.514 -0.2375  0.0846 -0.4799
 1388TIP3    H125799   5.013   5.862   0.609  1.4855 -4.5039 -0.0624
 1388TIP3    H225800   4.913   5.832   0.500 -0.0566 -1.2587  0.3568
 1389TIP3   OH225801   3.068   3.501   8.274 -0.5761  0.4492 -0.1568
 1389TIP3    H125802   3.086   3.557   8.198  0.3427  0.1369 -0.1776
 1389TIP3    H225803   3.146   3.445   8.282 -1.7290 -1.3057 -0.5501
 1390TIP3   OH225804   3.186   6.463   6.546  0.5180 -0.1007  0.4207
 1390TIP3    H125805   3.271   6.459   6.503  0.4633  0.3838  0.2607
 1390TIP3    H225806   3.145   6.543   6.512 -0.4458 -0.8755 -0.3182
 1391TIP3   OH225807   1.519   2.356   2.488 -0.6667 -0.0024 -0.0687
 1391TIP3    H125808   1.539   2.316   2.572  2.0337  1.9510  0.3480
 1391TIP3    H225809   1.424   2.366   2.488 -0.6300  1.5532  3.5543
 1392TIP3   OH225810   6.821   0.829   2.131 -0.8322 -0.1883  0.1134
 1392TIP3    H125811   6.802   0.748   2.177 -0.7024 -0.4625 -0.3161
 1392TIP3    H225812   6.799   0.898   2.194  0.2884 -0.5690  0.9651
 1393TIP3   OH225813   1.111   4.515   1.192  0.3114  0.5877 -0.3278
 1393TIP3    H125814   1.156   4.512   1.107 -0.5599 -0.7846 -0.7715
 1393TIP3    H225815   1.148   4.592   1.235  2.6434 -0.1064 -0.8999
 1394TIP3   OH225816   3.984   0.973   7.986  0.1192 -0.1524  0.0797
 1394TIP3    H125817   3.991   0.938   8.075  1.1942  0.1820  0.1384
 1394TIP3    H225818   4.000   1.066   7.996 -0.0317 -0.0723 -0.4390
 1395TIP3   OH225819   3.797   5.066   7.745 -0.2013  1.0261 -0.1876
 1395TIP3    H125820   3.720   5.074   7.800 -0.5195  3.0895 -0.8415
 1395TIP3    H225821   3.817   5.155   7.717  1.7774  0.4293 -0.9289
 1396TIP3   OH225822   2.323   4.783   8.559  0.4269  0.3471  0.1777
 1396TIP3    H125823   2.415   4.799   8.541  0.2759 -1.3402 -2.7843
 1396TIP3    H225824   2.277   4.819   8.484 -1.1437 -0.6704  0.5966
 1397TIP3   OH225825   1.146   3.843   1.351 -0.3061  0.0643  0.4840
 1397TIP3    H125826   1.075   3.857   1.289 -1.8129  0.0775  2.1179
 1397TIP3    H225827   1.195   3.926   1.350  0.4175 -0.3327 -1.4673
 1398TIP3   OH225828   0.301   4.080   7.965 -0.8429  0.2274 -0.1550
 1398TIP3    H125829   0.324   4.007   8.022  1.6061  1.1110  0.1255
 1398TIP3    H225830   0.323   4.158   8.017 -0.8816  1.0934 -1.3874
 1399TIP3   OH225831   0.543   6.496   8.402  0.1010 -0.8647  0.3015
 1399TIP3    H125832   0.500   6.541   8.474  2.8250  2.2430  0.2165
 1399TIP3    H225833   0.614   6.446   8.443  0.4854 -0.6191 -0.0496
 1400TIP3   OH225834   3.092   2.658   2.982 -0.5546  0.4836 -0.2420
 1400TIP3    H125835   3.024   2.625   3.040 -0.2418  0.6153  0.2058
 1400TIP3    H225836   3.093   2.753   2.998 -0.2187  0.4733 -0.1872
 1401TIP3   OH225837   6.766   1.883   0.920  0.1808  0.6632  0.4889
 1401TIP3    H125838   6.804   1.829   0.850  1.3228 -0.2694  1.7745
 1401TIP3    H225839   6.752   1.968   0.879  2.7677  0.7658 -0.3671
 1402TIP3   OH225840   0.153   2.927   0.727 -0.0783  0.1400 -0.0995
 1402TIP3    H125841   0.129   2.978   0.804 -1.3120 -0.0379 -0.3540
 1402TIP3    H225842   0.142   2.836   0.753 -0.1176  0.0678 -0.3640
 1403TIP3   OH225843   1.306   1.736   1.146 -0.7159  0.7439  0.0149
 1403TIP3    H125844   1.243   1.768   1.081 -0.9532  1.6268  0.6631
 1403TIP3    H225845   1.257   1.735   1.228 -0.4349 -0.4257  0.1856
 1404TIP3   OH225846   1.059   0.967   8.030 -0.3821  0.2504  0.2716
 1404TIP3    H125847   1.115   1.022   7.975 -0.9803 -0.4132 -1.0554
 1404TIP3    H225848   1.086   0.987   8.119  0.9229  1.0550 -0.2736
 1405TIP3   OH225849   6.808   0.939   0.853  0.2022  0.0385  0.5115
 1405TIP3    H125850   6.729   0.925   0.906 -0.0534  0.3495  0.2170
 1405TIP3    H225851   6.807   1.033   0.834  0.8520  0.1157  0.8357
 1406TIP3   OH225852   2.735   4.854   1.982 -0.7749  0.4121 -0.3408
 1406TIP3    H125853   2.732   4.763   1.953  1.0619  0.2680 -0.2085
 1406TIP3    H225854   2.711   4.905   1.905 -0.5544 -0.1422 -0.7809
 1407TIP3   OH225855   0.013   1.477   0.552  0.1853  0.3024 -0.1312
 1407TIP3    H125856   0.101   1.509   0.530  0.6619 -1.6222 -1.3150
 1407TIP3    H225857   0.023   1.433   0.636  0.5394 -0.4517 -0.5514
 1408TIP3   OH225858   6.143   1.534   2.783 -0.3509  0.2372  0.6988
 1408TIP3    H125859   6.083   1.478   2.733 -0.2509  1.0627 -0.3863
 1408TIP3    H225860   6.113   1.527   2.873 -0.9836 -0.7440  0.4233
 1409TIP3   OH225861   3.343   5.568   8.012  1.0034  0.1375  0.3073
 1409TIP3    H125862   3.429   5.539   7.980  0.9553 -0.4871  0.7140
 1409TIP3    H225863   3.297   5.600   7.935  1.9068  1.2711  0.2085
 1410TIP3   OH225864   4.668   4.215   7.030 -0.1666  0.2857 -0.0043
 1410TIP3    H125865   4.582   4.177   7.044 -0.5511  0.9670 -0.4463
 1410TIP3    H225866   4.695   4.183   6.944 -0.2421  0.5474 -0.1268
 1411TIP3   OH225867   0.876   4.427   1.042 -0.7311 -0.4659 -0.6006
 1411TIP3    H125868   0.965   4.451   1.069 -1.4199  0.5411  0.8862
 1411TIP3    H225869   0.869   4.462   0.953  0.6351 -1.3190 -1.0740
 1412TIP3   OH225870   1.971   4.454   8.030 -0.0238 -0.3487 -0.6384
 1412TIP3    H125871   1.957   4.395   8.105  0.2540  1.7000  1.1227
 1412TIP3    H225872   1.884   4.462   7.990 -0.2461 -1.2082 -0.3590
 1413TIP3   OH225873   2.270   1.859   1.628 -0.4618  0.2952 -0.2712
 1413TIP3    H125874   2.213   1.782   1.618 -0.6503  0.4604 -0.4669
 1413TIP3    H225875   2.258   1.909   1.547 -0.2008  0.4411 -0.2226
 1414TIP3   OH225876   2.582   4.984   0.658  0.2017  0.2341 -0.4800
 1414TIP3    H125877   2.559   5.056   0.601 -0.5767 -0.1516 -0.6758
 1414TIP3    H225878   2.592   4.909   0.600  2.7063  0.5113 -0.4846
 1415TIP3   OH225879   3.723   6.327   7.614 -0.2987  0.2246  0.0655
 1415TIP3    H125880   3.733   6.417   7.645 -0.1293  0.5296 -0.8500
 1415TIP3    H225881   3.809   6.304   7.580 -0.1813 -0.5014  0.8285
 1416TIP3   OH225882   0.641   5.137   6.268 -0.0859 -0.2692  0.4957
 1416TIP3    H125883   0.717   5.110   6.319  0.0329 -0.1685  0.3720
 1416TIP3    H225884   0.597   5.202   6.323  1.3548  1.6524 -0.5156
 1417TIP3   OH225885   5.299   6.757   6.469  0.0740  0.3952  0.4534
 1417TIP3    H125886   5.239   6.752   6.543 -0.6831  0.1274 -0.1669
 1417TIP3    H225887   5.292   6.847   6.438  2.0621  1.1684  2.0486
 1418TIP3   OH225888   6.315   5.032   0.050 -0.1390  0.2277  0.1256
 1418TIP3    H125889   6.240   4.998   0.098 -1.7034  1.2406 -1.5000
 1418TIP3    H225890   6.333   4.966  -0.017  0.2133  0.1573  0.2850
 1419TIP3   OH225891   0.454   3.829   8.321 -0.0980 -0.0222 -0.1773
 1419TIP3    H125892   0.408   3.906   8.354  0.4315 -0.0893  0.7250
 1419TIP3    H225893   0.541   3.833   8.361 -0.0876 -1.1212 -0.0576
 1420TIP3   OH225894   4.151   1.370   8.320 -0.0268 -0.0477 -0.2682
 1420TIP3    H125895   4.084   1.312   8.356  0.2025  1.3360  2.7028
 1420TIP3    H225896   4.221   1.370   8.386  1.7198  0.6104 -2.0227
 1421TIP3   OH225897   2.673   4.443   7.463 -0.1213 -0.4249  0.5555
 1421TIP3    H125898   2.697   4.400   7.381 -1.0207 -1.5647  0.8581
 1421TIP3    H225899   2.755   4.449   7.512  0.1143 -1.4250  0.3197
 1422TIP3   OH225900   4.154   1.334   1.891 -0.5983  0.2366 -0.1803
 1422TIP3    H125901   4.133   1.386   1.968  1.8376 -0.1253  0.8461
 1422TIP3    H225902   4.108   1.251   1.905 -0.4701  0.3072  0.7157
 1423TIP3   OH225903   3.671   3.442   7.898 -0.1092  0.2606 -0.8937
 1423TIP3    H125904   3.650   3.407   7.812  2.1914 -0.4524 -1.2321
 1423TIP3    H225905   3.687   3.364   7.952  2.3918  0.6787 -0.9257
 1424TIP3   OH225906   0.841   1.885   1.557 -0.5064  0.0609 -0.2372
 1424TIP3    H125907   0.836   1.978   1.578 -0.8383 -0.3438  1.6225
 1424TIP3    H225908   0.910   1.879   1.491 -0.0590  1.5513  0.0568
 1425TIP3   OH225909   3.851   3.956   8.021  0.3559 -0.9175 -0.5474
 1425TIP3    H125910   3.900   4.033   8.048 -0.6070 -1.1676  2.2332
 1425TIP3    H225911   3.851   3.960   7.925  1.5333  1.7283 -0.5254
 1426TIP3   OH225912   0.769   4.024   1.382  0.2265  0.0272 -0.1148
 1426TIP3    H125913   0.675   4.003   1.382  0.1706  0.2638 -0.5826
 1426TIP3    H225914   0.790   4.040   1.474 -0.2404  0.1897 -0.0333
 1427TIP3   OH225915   1.619   0.865   1.309 -0.1076  0.5267  0.3329
 1427TIP3    H125916   1.655   0.785   1.271 -1.2267  0.4783 -0.6991
 1427TIP3    H225917   1.570   0.905   1.237 -1.9888  0.6329  1.5913
 1428TIP3   OH225918   3.877   2.653   8.534  0.3997  0.1967 -0.1063
 1428TIP3    H125919   3.789   2.649   8.496  0.4542 -3.1011 -0.2116
 1428TIP3    H225920   3.935   2.638   8.459  0.8931 -0.0665  0.3296
 1429TIP3   OH225921   1.147   1.559   0.959  0.5152 -0.3269 -0.0368
 1429TIP3    H125922   1.125   1.576   1.051  1.2847 -1.2073  0.3280
 1429TIP3    H225923   1.068   1.582   0.910 -0.4997 -1.4336  1.0084
 1430TIP3   OH225924   4.452   4.055   6.988 -0.0062 -0.0804 -0.6856
 1430TIP3    H125925   4.428   3.988   7.052 -1.3004  1.2219  0.2397
 1430TIP3    H225926   4.396   4.037   6.912 -0.8808  0.3918 -0.1579
 1431TIP3   OH225927   5.926   5.441   1.142  0.0146 -0.3860  0.5474
 1431TIP3    H125928   5.863   5.442   1.070  0.7828 -0.7875 -0.1407
 1431TIP3    H225929   5.955   5.350   1.147  0.2623 -0.2824  1.1125
 1432TIP3   OH225930   4.277   3.906   7.376 -0.4292 -0.3440 -0.5096
 1432TIP3    H125931   4.260   3.997   7.400 -0.8254 -1.0453  2.1077
 1432TIP3    H225932   4.193   3.875   7.341 -1.0290 -0.3748  0.9195
 1433TIP3   OH225933   2.601   3.576   1.922 -0.3560 -0.4093  0.1214
 1433TIP3    H125934   2.685   3.587   1.878  0.1043 -0.7697  0.8908
 1433TIP3    H225935   2.587   3.481   1.923 -1.6898 -0.2767 -1.6692
 1434TIP3   OH225936   5.698   0.693   1.962  0.1761  0.4526 -0.0339
 1434TIP3    H125937   5.736   0.751   2.027 -1.3944  0.5947  0.7825
 1434TIP3    H225938   5.613   0.730   1.942  0.7605  0.6548 -2.5179
 1435TIP3   OH225939   3.262   6.147   2.621 -0.2810 -0.0294  0.7325
 1435TIP3    H125940   3.217   6.176   2.542 -1.3185  1.6825  1.8548
 1435TIP3    H225941   3.298   6.227   2.659  0.3224 -0.8232  1.9124
 1436TIP3   OH225942   6.670   6.015   7.902  0.1375  0.1057  0.5861
 1436TIP3    H125943   6.746   6.065   7.930 -0.3228  1.0039  0.2636
 1436TIP3    H225944   6.606   6.081   7.875 -0.2981 -0.6655 -0.3244
 1437TIP3   OH225945   3.464   5.235   0.139 -0.0229  0.0010 -0.2928
 1437TIP3    H125946   3.427   5.306   0.193 -0.5402 -0.6559  0.2347
 1437TIP3    H225947   3.396   5.215   0.076 -2.1070 -3.4138  2.6673
 1438TIP3   OH225948   6.658   4.795   0.019  0.3197  0.3591  0.6249
 1438TIP3    H125949   6.565   4.784   0.037  0.6694 -1.2737  1.5675
 1438TIP3    H225950   6.681   4.879   0.060 -0.4520  0.1419  1.5329
 1439TIP3   OH225951   2.260   2.274   8.073  0.2603 -0.0084 -0.0593
 1439TIP3    H125952   2.277   2.236   8.160  0.1627  0.6149  0.2355
 1439TIP3    H225953   2.171   2.310   8.080 -0.7093 -1.9657 -1.1361
 1440TIP3   OH225954   2.826   0.868   8.539  0.0326  0.3946 -0.1364
 1440TIP3    H125955   2.773   0.859   8.460 -0.1462  1.8460 -0.2079
 1440TIP3    H225956   2.832   0.779   8.574  2.7359 -0.9235 -3.4168
 1441TIP3   OH225957   3.835   2.893   7.606  0.1659 -0.0183  0.3372
 1441TIP3    H125958   3.915   2.883   7.554  0.0563  1.2455 -0.1290
 1441TIP3    H225959   3.786   2.961   7.560 -0.7878 -0.1689  1.0977
 1442TIP3   OH225960   5.755   2.190   0.958 -0.1800 -0.5933  0.5513
 1442TIP3    H125961   5.708   2.129   1.015  1.0246 -2.3706 -0.2677
 1442TIP3    H225962   5.815   2.135   0.908 -0.0240  1.1134 -1.2558
 1443TIP3   OH225963   6.840   6.089   0.865  0.0138 -0.5849  0.1701
 1443TIP3    H125964   6.825   6.000   0.899 -0.5426 -1.0224 -1.1661
 1443TIP3    H225965   6.763   6.108   0.813  0.5063  0.3650 -0.2302
 1444TIP3   OH225966   5.842   0.272   0.633  0.4837  0.6981 -0.0733
 1444TIP3    H125967   5.787   0.200   0.602  1.0071  0.0349  0.4966
 1444TIP3    H225968   5.904   0.230   0.692  0.3167  1.7328  0.8684
 1445TIP3   OH225969   2.290   4.374   6.853 -0.1782 -0.1383  0.3259
 1445TIP3    H125970   2.285   4.446   6.790  0.6203 -1.0803 -0.8816
 1445TIP3    H225971   2.203   4.334   6.851 -0.8939  1.3110  1.6748
 1446TIP3   OH225972   3.127   2.513   1.715 -0.0238  0.5411  0.5328
 1446TIP3    H125973   3.057   2.520   1.651 -0.5761 -2.2316  0.7155
 1446TIP3    H225974   3.148   2.604   1.738 -0.6594  1.5788 -2.5718
 1447TIP3   OH225975   0.329   2.488   8.459 -0.2835 -0.3271  0.3990
 1447TIP3    H125976   0.343   2.537   8.378  2.0350 -0.2983  0.7213
 1447TIP3    H225977   0.273   2.545   8.512  1.9099  1.8601  0.5600
 1448TIP3   OH225978   0.512   2.035   0.971 -0.0481 -0.5419  0.6683
 1448TIP3    H125979   0.492   1.947   1.003  0.0360 -0.3765  1.1841
 1448TIP3    H225980   0.608   2.041   0.976  0.1384 -1.1216 -1.2360
 1449TIP3   OH225981   5.141   0.698   0.848 -0.4705  0.1316 -0.4172
 1449TIP3    H125982   5.108   0.637   0.914  1.7080  0.6626  1.2555
 1449TIP3    H225983   5.199   0.645   0.793 -0.2400  0.2582 -0.2938
 1450TIP3   OH225984   4.247   4.081   0.576  0.5389 -0.4462  0.3534
 1450TIP3    H125985   4.179   4.102   0.512  0.6994  0.3301  0.4346
 1450TIP3    H225986   4.265   3.988   0.562  0.0027 -0.4730 -0.1842
 1451TIP3   OH225987   1.290   1.298   7.201 -0.2092  0.2944 -0.2309
 1451TIP3    H125988   1.363   1.244   7.230 -0.2529  0.7383  0.7373
 1451TIP3    H225989   1.292   1.291   7.105 -0.7718 -2.1124 -0.1230
 1452TIP3   OH225990   1.488   5.000   2.743 -0.2501 -0.3953  0.1393
 1452TIP3    H125991   1.574   4.961   2.724  0.5875  1.3740  0.0586
 1452TIP3    H225992   1.425   4.944   2.697  0.9595 -1.1074 -0.7185
 1453TIP3   OH225993   1.773   3.395   2.340 -0.4189 -0.2843  0.3404
 1453TIP3    H125994   1.824   3.425   2.415  0.1963  0.0213 -0.1891
 1453TIP3    H225995   1.800   3.304   2.327 -0.9911 -0.5345  0.8702
 1454TIP3   OH225996   5.985   1.729   2.385  0.0707  0.4396 -0.3246
 1454TIP3    H125997   6.060   1.673   2.403 -1.1633 -1.1124  0.2504
 1454TIP3    H225998   5.949   1.750   2.472  0.0658  1.5040 -0.5692
 1455TIP3   OH225999   1.208   5.982   0.463 -0.4095  0.1770  0.1645
 1455TIP3    H126000   1.118   5.959   0.443 -0.9492  2.4904 -0.3574
 1455TIP3    H226001   1.203   6.069   0.503  1.2579 -1.3389  4.1412
 1456TIP3   OH226002   5.507   1.809   1.684 -0.1557 -0.1663 -0.3119
 1456TIP3    H126003   5.570   1.870   1.646 -0.3518 -0.4561 -1.1356
 1456TIP3    H226004   5.558   1.752   1.741 -0.2141  1.8096  1.8132
 1457TIP3   OH226005   4.500   2.453   8.132  0.1495 -0.3098 -0.6848
 1457TIP3    H126006   4.517   2.367   8.171 -0.0383 -0.3207 -0.6261
 1457TIP3    H226007   4.581   2.474   8.085  0.1978 -0.5178 -0.6972
 1458TIP3   OH226008   5.313   0.218   1.334 -0.5549  0.5601 -0.4781
 1458TIP3    H126009   5.363   0.163   1.274 -1.3269 -0.7741  0.0662
 1458TIP3    H226010   5.353   0.204   1.420 -1.3378  0.0892 -0.1753
 1459TIP3   OH226011   0.626   0.146   0.067  0.1326  0.0329 -0.2723
 1459TIP3    H126012   0.603   0.054   0.068 -1.8443  0.4778  1.4785
 1459TIP3    H226013   0.604   0.178   0.154 -0.2311  2.3677 -1.1302
 1460TIP3   OH226014   3.701   6.912   0.735  0.3694 -0.2865 -0.0583
 1460TIP3    H126015   3.648   6.973   0.684 -0.2171  1.2399  2.2403
 1460TIP3    H226016   3.653   6.829   0.729  0.2334 -0.1205 -1.7839
 1461TIP3   OH226017   5.943   6.484   8.434  0.6406  0.3278 -0.4855
 1461TIP3    H126018   5.997   6.407   8.452 -0.2106 -0.2167 -0.1915
 1461TIP3    H226019   5.974   6.550   8.495  0.5584 -0.1821  0.1192
 1462TIP3   OH226020   3.094   2.834   1.890 -0.2043  0.2890  0.2417
 1462TIP3    H126021   3.099   2.863   1.981  0.3930  0.6716  0.0956
 1462TIP3    H226022   3.118   2.912   1.839 -2.2152  0.5904 -0.3398
 1463TIP3   OH226023   5.152   3.237   8.174  0.2190  0.2290 -0.7890
 1463TIP3    H126024   5.077   3.189   8.139  0.5462 -1.3922  0.6066
 1463TIP3    H226025   5.225   3.211   8.118  0.0602  0.5948 -1.1800
 1464TIP3   OH226026   1.734   0.543   7.807  0.1259  0.2934 -0.2433
 1464TIP3    H126027   1.694   0.561   7.722  1.4207  1.6433 -0.6034
 1464TIP3    H226028   1.822   0.511   7.785  0.9432  1.8983  0.5932
 1465TIP3   OH226029   6.669   6.721   0.773 -0.1419 -0.2136 -1.2845
 1465TIP3    H126030   6.604   6.774   0.819  2.0438  0.1487  1.7201
 1465TIP3    H226031   6.674   6.640   0.824  0.9809 -0.6862 -2.1006
 1466TIP3   OH226032   3.742   0.737   0.267 -0.5111 -0.1747 -0.1038
 1466TIP3    H126033   3.707   0.797   0.334 -0.6595  1.2232 -1.3811
 1466TIP3    H226034   3.786   0.668   0.318  0.0694  1.2467  1.4435
 1467TIP3   OH226035   6.227   3.771   8.316 -0.4356 -0.0072 -0.0584
 1467TIP3    H126036   6.249   3.712   8.388 -0.3630 -2.5850 -2.0597
 1467TIP3    H226037   6.311   3.811   8.292  0.2012 -1.7590 -0.8818
 1468TIP3   OH226038   2.218   3.018   2.988  0.0722  0.1089 -0.0912
 1468TIP3    H126039   2.142   3.024   3.046 -1.0634 -0.0014 -1.5140
 1468TIP3    H226040   2.235   2.924   2.982 -0.0422  0.0946 -0.2092
 1469TIP3   OH226041   4.217   6.095   0.297 -0.1171  0.5289 -0.2529
 1469TIP3    H126042   4.295   6.108   0.244  0.9084  0.0002  1.0809
 1469TIP3    H226043   4.238   6.135   0.382 -1.6613  1.2555 -0.1651
 1470TIP3   OH226044   6.038   4.270   0.279  0.6273 -0.3071 -0.0172
 1470TIP3    H126045   5.960   4.319   0.254 -1.0202 -2.7540  0.0548
 1470TIP3    H226046   6.110   4.331   0.264 -1.2256  1.8905 -0.5172
 1471TIP3   OH226047   5.475   5.910   7.556 -0.2718  0.2935  0.3632
 1471TIP3    H126048   5.541   5.841   7.563  0.4354  0.9744  0.4578
 1471TIP3    H226049   5.397   5.872   7.597  0.0351 -0.5407  0.1992
 1472TIP3   OH226050   0.051   6.437   2.072  0.3058 -1.0903  0.1472
 1472TIP3    H126051   0.136   6.472   2.042 -0.2934 -0.5244 -0.9509
 1472TIP3    H226052  -0.014   6.495   2.032 -0.6094 -1.4404  1.0837
 1473TIP3   OH226053   4.888   3.653   2.443 -0.1166 -0.2646 -0.1547
 1473TIP3    H126054   4.946   3.592   2.397  0.5524  0.3282 -0.1168
 1473TIP3    H226055   4.947   3.717   2.482 -0.8125  0.4245 -0.2102
 1474TIP3   OH226056   0.993   4.108   8.207  0.6486 -0.3084  0.5600
 1474TIP3    H126057   0.901   4.100   8.233  1.0810 -1.8497  1.7815
 1474TIP3    H226058   0.994   4.083   8.115 -0.0601 -0.9496  0.7126
 1475TIP3   OH226059   5.856   1.804   1.054 -0.2629 -0.1134  0.3784
 1475TIP3    H126060   5.912   1.879   1.073 -0.0450 -0.1749 -0.0229
 1475TIP3    H226061   5.811   1.827   0.972 -2.2163  0.7388  1.6029
 1476TIP3   OH226062   3.257   0.663   0.249 -0.5231 -0.3475  0.5245
 1476TIP3    H126063   3.225   0.574   0.233  1.0685 -0.9847  0.6846
 1476TIP3    H226064   3.345   0.664   0.211 -0.8396  1.4510 -0.2841
 1477TIP3   OH226065   2.607   4.762   8.144  0.3340  0.2672 -0.2816
 1477TIP3    H126066   2.685   4.813   8.128  0.9108 -0.2448  0.7764
 1477TIP3    H226067   2.559   4.763   8.061  0.1791  2.7139 -0.2211
 1478TIP3   OH226068   1.647   6.148   0.093  0.2707  0.0343 -0.2120
 1478TIP3    H126069   1.589   6.116   0.162  0.7305  2.9335  1.7063
 1478TIP3    H226070   1.595   6.212   0.045  1.1932  1.1485  0.2138
 1479TIP3   OH226071   4.805   1.457   0.871 -0.0091  0.0098 -0.3557
 1479TIP3    H126072   4.880   1.455   0.812  0.7158 -4.0102  0.3866
 1479TIP3    H226073   4.836   1.506   0.947  1.6607 -0.9260 -0.3820
 1480TIP3   OH226074   5.758   2.427   1.624 -0.1505  0.4241  0.1416
 1480TIP3    H126075   5.667   2.406   1.606 -0.2167 -0.0177  0.9609
 1480TIP3    H226076   5.763   2.433   1.719  1.1117 -1.6937  0.2861
 1481TIP3   OH226077   4.672   4.396   0.125  0.0346 -0.3354  0.4952
 1481TIP3    H126078   4.720   4.336   0.181  1.0211 -1.0487 -1.0376
 1481TIP3    H226079   4.705   4.483   0.147  1.0826 -0.6974  0.3893
 1482TIP3   OH226080   1.376   6.552   0.110  0.2706  0.6972  0.4913
 1482TIP3    H126081   1.407   6.480   0.056  2.5029  1.5684  0.5038
 1482TIP3    H226082   1.300   6.517   0.156  0.3422 -1.1139 -0.6766
 1483TIP3   OH226083   6.838   3.634   7.407 -0.8422 -0.0503 -0.4405
 1483TIP3    H126084   6.889   3.601   7.482  0.0471  0.7216 -0.6973
 1483TIP3    H226085   6.824   3.726   7.427 -0.0918  0.3055 -1.4945
 1484TIP3   OH226086   0.658   3.805   6.868 -0.5188  0.4700 -0.3770
 1484TIP3    H126087   0.656   3.885   6.815 -0.1741  0.2989 -0.6545
 1484TIP3    H226088   0.749   3.778   6.867 -0.7674 -0.4048 -1.0122
 1485TIP3   OH226089   1.672   5.448   0.571  0.2876 -0.2383 -0.1986
 1485TIP3    H126090   1.677   5.537   0.608 -0.0769 -0.3531  0.1297
 1485TIP3    H226091   1.708   5.457   0.483  0.1342  0.2617 -0.2126
 1486TIP3   OH226092   6.375   0.676   2.217 -0.5039  0.1736 -0.2061
 1486TIP3    H126093   6.424   0.602   2.253  0.2536  0.7847  0.0450
 1486TIP3    H226094   6.385   0.666   2.122 -1.1738 -0.5480 -0.2134
 1487TIP3   OH226095   2.871   1.894   7.870  0.2287 -0.6128 -0.4226
 1487TIP3    H126096   2.916   1.906   7.787  0.4691  0.0184 -0.2092
 1487TIP3    H226097   2.913   1.956   7.930 -2.1861  1.4900 -0.7306
 1488TIP3   OH226098   4.490   2.220   8.433 -0.4440  0.6008  0.0033
 1488TIP3    H126099   4.577   2.241   8.400  0.3652 -0.7206  1.2071
 1488TIP3    H226100   4.454   2.160   8.368 -0.7750  1.7089 -0.8679
 1489TIP3   OH226101   4.169   4.992   0.852 -0.0580  0.0894  0.5549
 1489TIP3    H126102   4.240   5.028   0.798  0.3925 -1.8091 -0.2054
 1489TIP3    H226103   4.146   5.064   0.912  0.1684  1.9041 -1.4051
 1490TIP3   OH226104   3.399   5.870   8.140 -0.1420  0.3840 -0.6261
 1490TIP3    H126105   3.334   5.938   8.158 -0.7840 -0.9182  2.6057
 1490TIP3    H226106   3.354   5.809   8.081 -1.3611  0.2217  0.4386
 1491TIP3   OH226107   1.503   5.253   0.675 -0.9579  0.3555 -0.3512
 1491TIP3    H126108   1.474   5.316   0.741  3.2700 -0.9506  3.2541
 1491TIP3    H226109   1.565   5.303   0.621  2.2564 -0.2430  2.3961
 1492TIP3   OH226110   2.298   4.164   0.307  1.0349  0.2788 -0.0615
 1492TIP3    H126111   2.250   4.186   0.227  2.9886 -2.0835 -2.0372
 1492TIP3    H226112   2.230   4.149   0.373 -0.7850 -0.3320 -1.9892
 1493TIP3   OH226113   3.632   0.564   1.144  0.5221 -0.1045  0.3827
 1493TIP3    H126114   3.709   0.604   1.184  0.0952 -0.0573  1.1774
 1493TIP3    H226115   3.575   0.543   1.217 -0.0685 -0.4748 -0.1695
 1494TIP3   OH226116   5.485   1.268   1.305  0.2078  0.0790 -0.6538
 1494TIP3    H126117   5.435   1.349   1.314  1.6841  0.9132  0.3605
 1494TIP3    H226118   5.575   1.292   1.327  0.7882 -1.7102 -0.9029
 1495TIP3   OH226119   3.706   3.169   7.953  0.3503  0.5717  0.6065
 1495TIP3    H126120   3.626   3.119   7.935 -0.1510  1.0717  1.3584
 1495TIP3    H226121   3.775   3.123   7.906 -0.6641  1.1469 -1.5391
 1496TIP3   OH226122   1.383   3.209   7.419 -0.1804  0.2790 -0.0326
 1496TIP3    H126123   1.445   3.266   7.372 -1.3793  0.5328 -1.3653
 1496TIP3    H226124   1.420   3.202   7.507  1.8234  0.2992 -0.8058
 1497TIP3   OH226125   6.911   0.411   7.848 -0.0585 -0.0661 -0.7701
 1497TIP3    H126126   6.959   0.493   7.859  0.9582 -0.5305 -1.6206
 1497TIP3    H226127   6.968   0.357   7.794 -0.3071 -1.6915  0.5267
 1498TIP3   OH226128   6.349   5.980   7.620  0.5781 -0.2179  0.3920
 1498TIP3    H126129   6.306   5.993   7.705 -1.4387 -0.4158 -0.5206
 1498TIP3    H226130   6.323   6.057   7.568  0.0606 -1.0604 -0.6544
 1499TIP3   OH226131   5.167   0.497   7.914 -0.1479  0.5344 -0.0694
 1499TIP3    H126132   5.223   0.445   7.857 -1.6343 -0.2850 -0.8366
 1499TIP3    H226133   5.174   0.455   8.000  1.0265  0.9403  0.0480
 1500TIP3   OH226134   0.072   1.908   6.952  0.2582 -0.1898 -0.1175
 1500TIP3    H126135   0.143   1.917   6.888 -0.2372 -1.0004 -0.7925
 1500TIP3    H226136   0.011   1.846   6.912 -1.9666  2.1150 -0.5466
 1501TIP3   OH226137   4.334   1.348   2.606 -0.8820  0.1485 -0.0372
 1501TIP3    H126138   4.304   1.352   2.515 -0.5542 -4.3082 -0.5665
 1501TIP3    H226139   4.254   1.330   2.657 -1.0406  2.4631  0.6534
 1502TIP3   OH226140   4.275   2.977   1.273 -0.0227  0.2309 -0.5351
 1502TIP3    H126141   4.290   2.883   1.282 -0.1301  0.4013  1.9651
 1502TIP3    H226142   4.345   3.017   1.325 -0.3376  1.5270 -1.0836
 1503TIP3   OH226143   5.428   0.205   8.397  0.3661  0.0976  0.1279
 1503TIP3    H126144   5.450   0.119   8.360 -0.9987 -1.7990  3.2813
 1503TIP3    H226145   5.335   0.215   8.378  0.0929 -0.0289  1.3384
 1504TIP3   OH226146   5.023   4.465   6.796  0.0147 -0.1177 -0.3073
 1504TIP3    H126147   5.000   4.411   6.720 -0.6817  0.0748 -0.2458
 1504TIP3    H226148   4.965   4.541   6.789  1.1562  0.7691 -0.5503
 1505TIP3   OH226149   4.803   1.069   7.704 -0.1942  0.1818 -0.2246
 1505TIP3    H126150   4.766   1.108   7.624 -1.1161 -0.6087 -0.2066
 1505TIP3    H226151   4.893   1.049   7.681 -0.1045  1.0613 -0.6765
 1506TIP3   OH226152   0.646   0.888   8.006 -0.6580 -0.2965  0.0925
 1506TIP3    H126153   0.578   0.838   7.962  1.0466 -0.6831 -2.3130
 1506TIP3    H226154   0.618   0.980   8.000 -2.1851 -0.6226  1.5527
 1507TIP3   OH226155   1.130   0.024   7.865 -0.3345 -0.2141 -0.1705
 1507TIP3    H126156   1.108   0.032   7.958 -0.8248  0.1778 -0.3207
 1507TIP3    H226157   1.200   0.089   7.852 -1.4044  0.9120 -0.4386
 1508TIP3   OH226158   6.171   0.889   0.512 -0.1595 -0.5650 -0.2613
 1508TIP3    H126159   6.188   0.943   0.435 -1.0727 -0.0592 -0.1242
 1508TIP3    H226160   6.087   0.920   0.545  0.3476 -0.5914  1.1040
 1509TIP3   OH226161   5.340   1.494   1.343  0.3238  0.1983  0.1918
 1509TIP3    H126162   5.401   1.567   1.338  1.0795 -0.4812 -0.9405
 1509TIP3    H226163   5.296   1.493   1.258 -2.1020  1.3319  1.3256
 1510TIP3   OH226164   2.168   2.694   7.172  0.3846  0.1942 -0.0103
 1510TIP3    H126165   2.194   2.608   7.138 -0.7445 -0.0458 -0.2910
 1510TIP3    H226166   2.191   2.756   7.103  1.2310  0.1280  0.2060
 1511TIP3   OH226167   1.636   6.806   1.545  0.4704 -0.4619  0.0974
 1511TIP3    H126168   1.569   6.763   1.493  1.3033  0.3674 -1.7417
 1511TIP3    H226169   1.623   6.900   1.528  1.9880 -0.2798 -0.2189
 1512TIP3   OH226170   4.431   5.080   0.306  0.0741  0.2611  0.3918
 1512TIP3    H126171   4.432   5.172   0.331 -0.1716 -0.0589  1.6259
 1512TIP3    H226172   4.352   5.044   0.347 -0.6650 -0.1803 -1.3131
 1513TIP3   OH226173   1.592   3.615   7.200 -0.2351  0.4759 -0.3958
 1513TIP3    H126174   1.685   3.628   7.217 -0.2801  0.9924 -0.5542
 1513TIP3    H226175   1.556   3.703   7.191 -0.8903  0.3092  0.4566
 1514TIP3   OH226176   1.578   3.903   7.186  0.2587  0.2687  0.0000
 1514TIP3    H126177   1.528   3.971   7.231 -0.0619 -0.6614  1.0741
 1514TIP3    H226178   1.668   3.915   7.217  0.1554  0.0348  0.3898
 1515TIP3   OH226179   4.561   5.583   7.648 -0.6324  0.1145 -0.9594
 1515TIP3    H126180   4.522   5.666   7.674 -0.7190 -0.2942  0.3125
 1515TIP3    H226181   4.504   5.517   7.689 -1.1651 -0.6243 -2.7669
 1516TIP3   OH226182   2.539   2.002   7.831 -0.1849  0.0709  0.1132
 1516TIP3    H126183   2.552   2.040   7.918  0.8760 -0.4501  0.2016
 1516TIP3    H226184   2.558   1.909   7.843  0.9369  0.1500 -0.8484
 1517TIP3   OH226185   4.021   2.222   7.951 -0.0449 -0.0862 -0.1540
 1517TIP3    H126186   3.985   2.295   7.900 -1.4208 -0.3908  0.3542
 1517TIP3    H226187   4.027   2.150   7.888  1.2738  0.4215 -0.6463
 1518TIP3   OH226188   6.199   1.883   2.293  0.3068 -0.6044  0.0508
 1518TIP3    H126189   6.107   1.886   2.320  0.2448  0.9788 -0.2529
 1518TIP3    H226190   6.234   1.968   2.318  1.0808 -0.2966 -1.9408
 1519TIP3   OH226191   3.855   0.862   1.680 -0.6385  0.2666 -0.4272
 1519TIP3    H126192   3.784   0.907   1.633  0.2083  0.2630 -1.7779
 1519TIP3    H226193   3.924   0.928   1.689 -0.2901 -0.1005 -0.3531
 1520TIP3   OH226194   0.005   0.293   1.101 -0.2468 -0.1652  0.3457
 1520TIP3    H126195  -0.016   0.386   1.097 -1.6395 -0.4689  0.1288
 1520TIP3    H226196  -0.045   0.260   1.176 -1.5309 -1.1443 -0.8915
 1521TIP3   OH226197   1.865   4.062   7.540  0.6644 -0.2774  0.5406
 1521TIP3    H126198   1.787   4.081   7.488 -0.1882  2.0123  2.4499
 1521TIP3    H226199   1.832   4.046   7.629  2.2910 -0.1042  1.2223
 1522TIP3   OH226200   4.300   6.446   0.366 -0.4489  0.0842  0.1347
 1522TIP3    H126201   4.369   6.397   0.322  0.9077  1.2898  0.8530
 1522TIP3    H226202   4.319   6.436   0.459 -0.7396  1.1629  0.3181
 1523TIP3   OH226203   0.366   6.892   7.050 -0.2189 -0.7726 -0.0590
 1523TIP3    H126204   0.424   6.827   7.009  1.0295  0.3880 -0.1950
 1523TIP3    H226205   0.398   6.976   7.018 -0.0093  0.1078  2.3055
 1524TIP3   OH226206   4.062   6.869   7.987  0.3050 -0.4842  0.4903
 1524TIP3    H126207   3.990   6.857   8.049 -0.9255 -1.5290 -1.0681
 1524TIP3    H226208   4.022   6.914   7.912  0.3350 -3.9623 -1.8601
 1525TIP3   OH226209   3.821   6.710   1.871 -0.3037  0.1312  0.2078
 1525TIP3    H126210   3.886   6.662   1.820  0.6532 -0.5816  1.9995
 1525TIP3    H226211   3.803   6.789   1.820  0.4554 -0.6343 -1.2853
 1526TIP3   OH226212   1.711   3.589   0.734 -0.1340  0.7144 -0.1774
 1526TIP3    H126213   1.686   3.672   0.692  1.1392  1.7228  0.9757
 1526TIP3    H226214   1.666   3.590   0.818 -0.2391  0.1398 -0.2214
 1527TIP3   OH226215   0.678   3.620   7.407  0.3132  0.1131  0.3700
 1527TIP3    H126216   0.634   3.550   7.359  0.3581 -0.0100  0.5088
 1527TIP3    H226217   0.613   3.652   7.469  0.5442 -0.3316  0.8427
 1528TIP3   OH226218   1.782   3.333   0.936 -0.9413 -0.5039  0.0246
 1528TIP3    H126219   1.723   3.260   0.956 -1.6933  0.3031  0.8107
 1528TIP3    H226220   1.727   3.396   0.889 -0.2893 -0.4383 -0.6659
 1529TIP3   OH226221   1.555   2.917   7.820  0.5614  0.0594 -0.2737
 1529TIP3    H126222   1.650   2.906   7.820  0.6004  0.3576  0.3118
 1529TIP3    H226223   1.523   2.843   7.769  0.9908 -1.2688  1.2948
 1530TIP3   OH226224   3.029   0.333   1.281 -0.0556  0.4909 -0.3387
 1530TIP3    H126225   3.043   0.427   1.266 -0.4889  0.7630  0.7662
 1530TIP3    H226226   3.071   0.316   1.366  2.1253 -0.8824 -1.6106
 1531TIP3   OH226227   4.519   2.884   8.162  0.5315 -0.7862 -0.5548
 1531TIP3    H126228   4.509   2.975   8.135 -0.2913 -0.6592  0.1226
 1531TIP3    H226229   4.612   2.865   8.150  0.4493 -0.3401 -2.1603
 1532TIP3   OH226230   3.715   1.310   0.682 -0.3369  0.0894 -0.9026
 1532TIP3    H126231   3.686   1.223   0.709  1.1967 -0.0306  0.5421
 1532TIP3    H226232   3.725   1.303   0.587  0.0476 -1.4334 -0.7908
 1533TIP3   OH226233   4.579   0.244   2.604  0.1404  0.4005 -0.2226
 1533TIP3    H126234   4.646   0.188   2.644  1.1891  1.9505  0.2650
 1533TIP3    H226235   4.627   0.297   2.541 -1.1988 -0.7223 -2.2853
 1534TIP3   OH226236   4.487   3.822   7.559 -0.4164  0.0592 -0.3396
 1534TIP3    H126237   4.570   3.863   7.537 -0.2996 -0.0288 -0.0589
 1534TIP3    H226238   4.435   3.829   7.479 -0.4870  0.9654 -0.2308
 1535TIP3   OH226239   2.435   3.938   7.196  0.5091 -0.0267  0.1261
 1535TIP3    H126240   2.366   3.974   7.251  1.8077  1.7055  0.6991
 1535TIP3    H226241   2.421   3.978   7.110  1.1527  0.8030  0.4045
 1536TIP3   OH226242   3.481   5.600   1.463  0.1510  0.2364 -0.9280
 1536TIP3    H126243   3.492   5.662   1.536  1.5349  0.5197 -1.3376
 1536TIP3    H226244   3.504   5.651   1.385 -0.0012 -0.4260 -1.4150
 1537TIP3   OH226245   2.945   3.611   0.594  0.1154 -0.0882 -0.5323
 1537TIP3    H126246   2.932   3.557   0.672  1.5796  0.0957 -0.1433
 1537TIP3    H226247   2.942   3.701   0.626  0.8443 -0.0136 -0.6603
 1538TIP3   OH226248   1.029   3.455   7.839 -0.3740 -0.6378 -0.5558
 1538TIP3    H126249   1.051   3.539   7.798  0.9209 -0.5502  0.2574
 1538TIP3    H226250   1.062   3.463   7.928  0.5171 -2.3093 -0.7036
 1539TIP3   OH226251   2.758   1.442   7.828 -0.0718  0.1825 -0.3256
 1539TIP3    H126252   2.722   1.530   7.841  0.2558  0.5212 -1.6049
 1539TIP3    H226253   2.850   1.451   7.854  0.2816  0.5585 -1.6325
 1540TIP3   OH226254   3.869   4.531   1.305 -0.4719  0.2167  0.3873
 1540TIP3    H126255   3.846   4.440   1.322  0.5490  0.1041  1.2976
 1540TIP3    H226256   3.880   4.536   1.210  0.4004 -0.8474  0.4144
 1541TIP3   OH226257   3.550   2.150   1.433 -0.9373 -0.4616  0.4958
 1541TIP3    H126258   3.582   2.094   1.363 -1.1477  0.2928 -0.2297
 1541TIP3    H226259   3.559   2.098   1.512  0.7221 -0.7857  0.1236
 1542TIP3   OH226260   3.309   5.162   2.089  0.3242 -0.0741  0.3487
 1542TIP3    H126261   3.357   5.086   2.122  1.2773  0.2971 -0.1299
 1542TIP3    H226262   3.312   5.225   2.162  0.7078  0.0011  0.2728
 1543TIP3   OH226263   2.811   3.717   1.113  0.0327 -0.5015 -0.7450
 1543TIP3    H126264   2.732   3.755   1.073 -0.4261 -1.3606 -0.6729
 1543TIP3    H226265   2.805   3.624   1.093  0.3398 -0.7795  0.4206
 1544TIP3   OH226266   2.383   4.465   0.273  0.0744 -0.1093 -0.5503
 1544TIP3    H126267   2.289   4.471   0.260  0.3210  0.1768 -2.5761
 1544TIP3    H226268   2.397   4.377   0.309 -1.0956  0.5991  1.8115
 1545TIP3   OH226269   0.885   2.342   0.795  0.3287  0.1303 -0.0629
 1545TIP3    H126270   0.845   2.285   0.729  0.4847 -0.2428  0.1639
 1545TIP3    H226271   0.848   2.313   0.878 -1.7748  2.2042 -0.1762
 1546TIP3   OH226272   0.701   0.277   2.278  0.8962 -0.0912 -0.1931
 1546TIP3    H126273   0.645   0.212   2.320  0.3545  1.1067  1.0134
 1546TIP3    H226274   0.652   0.359   2.283  1.8806  0.5789 -0.9832
 1547TIP3   OH226275   3.339   6.073   1.276 -0.0194 -0.3828  0.2971
 1547TIP3    H126276   3.307   6.095   1.189  0.5613 -1.4163 -0.1890
 1547TIP3    H226277   3.373   6.155   1.311 -0.8617  0.1796 -0.1764
 1548TIP3   OH226278   0.713   4.112   1.660  0.0639 -0.0572  0.4034
 1548TIP3    H126279   0.673   4.110   1.747 -0.4235  2.9548  0.3741
 1548TIP3    H226280   0.705   4.204   1.632  0.8306 -0.7731 -2.5384
 1549TIP3   OH226281   1.236   5.823   7.395 -0.2448 -0.2056  0.9420
 1549TIP3    H126282   1.172   5.879   7.351 -1.2933 -0.3765  2.1648
 1549TIP3    H226283   1.221   5.735   7.359 -0.0506 -0.0785  0.5505
 1550TIP3   OH226284   4.725   3.632   0.374 -0.2558  0.4259  0.2470
 1550TIP3    H126285   4.702   3.620   0.282  0.1363  1.3372  0.0202
 1550TIP3    H226286   4.690   3.718   0.396  1.4652  1.1186  0.3589
 1551TIP3   OH226287   5.672   2.713   1.699  0.3550 -0.0766 -0.1250
 1551TIP3    H126288   5.659   2.750   1.612  0.2497 -0.7092 -0.3872
 1551TIP3    H226289   5.589   2.671   1.720  0.8309 -1.1848 -0.3515
 1552TIP3   OH226290   2.120   6.770   1.848 -0.3038 -0.0030 -0.1715
 1552TIP3    H126291   2.123   6.850   1.901  0.5202 -0.4967  0.5488
 1552TIP3    H226292   2.032   6.736   1.861  0.3044 -0.8784  2.0635
 1553TIP3   OH226293   5.396   5.316   8.055 -0.3051  0.5606 -0.5639
 1553TIP3    H126294   5.385   5.221   8.053 -0.0531  0.5204 -0.1272
 1553TIP3    H226295   5.331   5.347   8.118  0.3184  0.5722  0.0854
 1554TIP3   OH226296   5.256   2.884   7.145 -0.0308  0.0318  0.1516
 1554TIP3    H126297   5.253   2.843   7.058 -0.8155  1.3317 -0.4720
 1554TIP3    H226298   5.315   2.959   7.135  0.3250 -0.1411  0.8962
 1555TIP3   OH226299   1.241   1.173   7.952  0.4665  0.1512  0.3469
 1555TIP3    H126300   1.295   1.213   7.883  1.1244 -0.6741  0.3703
 1555TIP3    H226301   1.299   1.109   7.993 -0.9086 -1.7496 -0.5258
 1556TIP3   OH226302   0.226   4.988   0.415  0.5163 -0.0146 -0.2347
 1556TIP3    H126303   0.226   4.935   0.335 -2.9996  0.5953 -0.8014
 1556TIP3    H226304   0.134   4.994   0.440  1.0448  3.2991  1.5343
 1557TIP3   OH226305   3.532   0.644   0.142 -0.3667  0.5069 -0.0955
 1557TIP3    H126306   3.555   0.601   0.060 -1.1694  2.5716 -1.4893
 1557TIP3    H226307   3.615   0.670   0.180  0.0059 -0.2163 -0.4045
 1558TIP3   OH226308   5.735   2.881   8.446  0.2920 -0.3967  0.4552
 1558TIP3    H126309   5.831   2.877   8.445  0.2859 -0.4558 -0.7422
 1558TIP3    H226310   5.707   2.797   8.408 -0.2234 -0.1882  0.3670
 1559TIP3   OH226311   5.669   2.326   7.979  0.1444 -0.0463  0.1415
 1559TIP3    H126312   5.705   2.280   8.055  1.4158 -0.1696 -0.5145
 1559TIP3    H226313   5.705   2.415   7.986  0.3682 -0.0949 -0.3824
 1560TIP3   OH226314   3.260   1.042   0.171  0.0436  0.5966  0.4348
 1560TIP3    H126315   3.289   1.004   0.254 -0.6031 -1.6172 -0.2653
 1560TIP3    H226316   3.312   0.995   0.105  0.5150  2.2804 -0.4386
 1561TIP3   OH226317   0.117   4.826   2.619 -0.3501 -0.0895 -0.2191
 1561TIP3    H126318   0.183   4.766   2.587 -1.2701 -1.6898  0.7276
 1561TIP3    H226319   0.035   4.776   2.615 -1.2051  1.2127  0.3065
 1562TIP3   OH226320   6.153   4.551   7.208 -0.0513  0.3993  0.6331
 1562TIP3    H126321   6.145   4.611   7.134 -0.3092 -1.5024 -0.9621
 1562TIP3    H226322   6.069   4.505   7.210  0.0232  0.2896  2.0003
 1563TIP3   OH226323   1.686   2.314   8.376  0.7884 -0.2844 -1.0113
 1563TIP3    H126324   1.778   2.334   8.392  0.2917  2.2756 -0.9274
 1563TIP3    H226325   1.662   2.368   8.302 -1.0325  0.3288 -0.0311
 1564TIP3   OH226326   0.303   0.477   7.734 -0.2262  0.3300  0.2074
 1564TIP3    H126327   0.265   0.399   7.775  1.4354  1.1358  3.6707
 1564TIP3    H226328   0.232   0.542   7.737 -0.4902  0.0232  0.7764
 1565TIP3   OH226329   6.012   1.334   7.229 -0.7842  0.6704 -0.3252
 1565TIP3    H126330   5.917   1.343   7.225 -0.8422 -0.1283 -0.9277
 1565TIP3    H226331   6.029   1.242   7.208 -0.0303  0.1224  2.2535
 1566TIP3   OH226332   5.266   1.966   0.255  0.1638  0.9610 -0.0422
 1566TIP3    H126333   5.226   2.035   0.202 -0.9047 -0.5357 -1.2728
 1566TIP3    H226334   5.322   1.919   0.193 -0.6627 -0.4749  0.2584
 1567TIP3   OH226335   6.085   0.840   7.013 -0.2227 -0.7535  0.1719
 1567TIP3    H126336   6.066   0.917   6.959  2.2872 -0.2107 -0.0813
 1567TIP3    H226337   6.157   0.796   6.968  0.6766 -1.3324  2.0610
 1568TIP3   OH226338   0.580   0.968   1.228  0.0789 -1.0340 -0.3801
 1568TIP3    H126339   0.602   0.916   1.151 -0.7780  0.5366 -1.7488
 1568TIP3    H226340   0.551   1.052   1.193 -0.0309 -0.1481  1.6838
 1569TIP3   OH226341   5.868   4.481   6.792  0.3641 -0.0906  0.1819
 1569TIP3    H126342   5.867   4.517   6.880  3.2386  0.0187  0.2652
 1569TIP3    H226343   5.938   4.528   6.747 -0.1810 -1.0247 -1.7801
 1570TIP3   OH226344   5.663   4.073   2.183  0.1805  0.1478 -0.1080
 1570TIP3    H126345   5.654   4.161   2.221  0.7521  0.0529  0.2674
 1570TIP3    H226346   5.700   4.021   2.254  1.7113  0.0661 -0.9304
 1571TIP3   OH226347   3.016   5.366   6.669 -0.5201 -0.0781  0.0368
 1571TIP3    H126348   2.994   5.448   6.713 -0.1034  0.0442  0.0150
 1571TIP3    H226349   2.938   5.346   6.617 -0.1818  0.9292 -0.8962
 1572TIP3   OH226350   3.141   6.449   7.450  0.1066 -0.5606  1.1087
 1572TIP3    H126351   3.080   6.509   7.492 -0.0265  0.5167 -0.5164
 1572TIP3    H226352   3.224   6.464   7.494 -0.0111  0.5720  0.9701
 1573TIP3   OH226353   5.995   2.992   7.667 -0.4469 -0.2962  0.5418
 1573TIP3    H126354   6.070   2.966   7.719 -1.6333 -0.2066  2.3892
 1573TIP3    H226355   5.938   3.039   7.729 -1.5355  0.5614 -1.0387
 1574TIP3   OH226356   5.219   0.177   7.184 -0.0887  0.4535  0.6898
 1574TIP3    H126357   5.170   0.177   7.266  0.6786  1.2864  1.1703
 1574TIP3    H226358   5.153   0.164   7.116 -0.9687  1.4324  1.3218
 1575TIP3   OH226359   0.683   5.539   0.549 -0.6605  0.3894  0.4988
 1575TIP3    H126360   0.620   5.569   0.483 -0.1738  1.4787  0.5122
 1575TIP3    H226361   0.647   5.456   0.581 -1.0904  0.0327 -0.8671
 1576TIP3   OH226362   3.517   1.591   7.768  0.0580 -0.5822 -0.4806
 1576TIP3    H126363   3.461   1.668   7.771  0.3631 -0.3964  1.3529
 1576TIP3    H226364   3.505   1.556   7.679 -5.2281 -2.2656  0.5761
 1577TIP3   OH226365   3.185   4.143   2.128  0.0506  0.0685 -0.2667
 1577TIP3    H126366   3.208   4.159   2.036 -1.0519 -2.0214 -0.9815
 1577TIP3    H226367   3.248   4.077   2.157  0.2650  0.5737  0.4217
 1578TIP3   OH226368   0.308   4.491   1.309  0.3870 -0.0974 -0.1539
 1578TIP3    H126369   0.357   4.417   1.345  0.8316 -0.4936 -1.5301
 1578TIP3    H226370   0.217   4.461   1.306  0.3145 -0.0058  0.7320
 1579TIP3   OH226371   2.341   6.715   6.851 -0.3082 -0.0920 -0.7344
 1579TIP3    H126372   2.349   6.634   6.901 -1.3734  0.0003 -0.3856
 1579TIP3    H226373   2.288   6.691   6.775 -1.4892  0.4906 -0.1098
 1580TIP3   OH226374   0.721   1.426   6.943 -0.1059  0.0390  0.0977
 1580TIP3    H126375   0.791   1.374   6.984 -0.0453 -1.8574 -2.1958
 1580TIP3    H226376   0.640   1.385   6.973 -0.1974  0.8957  1.0685
 1581TIP3   OH226377   2.873   3.622   7.554  0.4320 -0.4892  0.3184
 1581TIP3    H126378   2.898   3.700   7.603 -1.0801 -0.5277  1.1938
 1581TIP3    H226379   2.805   3.581   7.607  0.6647 -1.9952 -0.5111
 1582TIP3   OH226380   0.851   0.110   2.127  0.1897  0.8027 -0.1924
 1582TIP3    H126381   0.793   0.155   2.187  1.6377  1.4480  0.7769
 1582TIP3    H226382   0.904   0.180   2.088 -0.4381  0.3529 -1.9294
 1583TIP3   OH226383   1.521   4.656   7.186  0.2173  0.0278 -0.2678
 1583TIP3    H126384   1.487   4.588   7.129  0.1426 -0.4732  0.3555
 1583TIP3    H226385   1.456   4.664   7.256  0.6726  0.0712  0.1648
 1584TIP3   OH226386   3.022   5.569   7.548 -1.1069 -0.2424 -0.1912
 1584TIP3    H126387   3.078   5.644   7.570 -1.5781 -0.3090  1.3019
 1584TIP3    H226388   3.035   5.557   7.453 -1.3429  1.9826 -0.5674
 1585TIP3   OH226389   4.104   3.201   1.594  0.1922 -0.4042 -0.0788
 1585TIP3    H126390   4.049   3.277   1.576  1.1534 -0.2199 -2.6310
 1585TIP3    H226391   4.059   3.129   1.550 -0.0940 -1.1396  1.3329
 1586TIP3   OH226392   1.542   3.809   6.911  0.5426  0.1305 -0.0286
 1586TIP3    H126393   1.540   3.825   7.005  0.5562  1.3416 -0.2160
 1586TIP3    H226394   1.488   3.731   6.899  0.4845  0.0018  0.9738
 1587TIP3   OH226395   2.876   5.433   7.135  0.1975  0.2118  0.1486
 1587TIP3    H126396   2.869   5.338   7.122  3.5752  0.1304 -2.5899
 1587TIP3    H226397   2.824   5.471   7.064 -0.1565  0.3863  0.4998
 1588TIP3   OH226398   0.160   2.587   0.386 -0.5367  0.1747  0.7676
 1588TIP3    H126399   0.169   2.516   0.450 -0.2574 -0.6597 -0.1769
 1588TIP3    H226400   0.077   2.571   0.343 -0.0947 -0.0594 -0.0119
 1589TIP3   OH226401   5.681   2.586   2.977  0.5311 -0.3412  0.2512
 1589TIP3    H126402   5.733   2.665   2.964  0.9126 -0.3785  1.3831
 1589TIP3    H226403   5.745   2.515   2.978  0.0624 -0.8927 -2.2206
 1590TIP3   OH226404   1.533   1.564   1.186  0.0354  0.0855 -0.0159
 1590TIP3    H126405   1.536   1.471   1.165 -0.5043 -0.1492  0.8842
 1590TIP3    H226406   1.452   1.595   1.145  0.9070  0.4886 -1.5073
 1591TIP3   OH226407   1.285   2.689   0.290  0.4795 -0.1981 -0.2741
 1591TIP3    H126408   1.241   2.749   0.230 -1.2938 -1.2692 -0.1401
 1591TIP3    H226409   1.287   2.605   0.244  1.4750 -0.4286  0.1542
 1592TIP3   OH226410   2.445   1.428   1.364 -0.4546 -0.0205  0.1080
 1592TIP3    H126411   2.462   1.395   1.452 -1.2045 -1.6829 -0.3256
 1592TIP3    H226412   2.358   1.395   1.343  0.1746 -0.6557 -1.6898
 1593TIP3   OH226413   3.157   6.000   0.190  0.3514 -0.2872 -0.4220
 1593TIP3    H126414   3.186   5.921   0.236 -0.8347 -0.8517 -0.6085
 1593TIP3    H226415   3.062   6.001   0.202  0.4061  1.4767  0.1292
 1594TIP3   OH226416   5.984   2.480   6.835  0.2768 -0.0495 -0.3634
 1594TIP3    H126417   5.985   2.532   6.915  0.4746 -0.7315  0.0826
 1594TIP3    H226418   6.018   2.540   6.768  2.0044 -0.0705  0.4399
 1595TIP3   OH226419   1.825   0.379   0.462 -0.1625 -0.4143 -0.0290
 1595TIP3    H126420   1.807   0.443   0.531  0.7197 -0.7927  0.5728
 1595TIP3    H226421   1.840   0.432   0.383  0.0382  0.0949  0.3484
 1596TIP3   OH226422   6.935   2.492   7.800  0.1636  0.0398  0.2721
 1596TIP3    H126423   7.002   2.423   7.799 -0.2676 -0.3906  0.3865
 1596TIP3    H226424   6.971   2.558   7.859  0.0131 -0.6868  1.2126
 1597TIP3   OH226425   4.412   2.657   0.534 -0.0982  0.3471  0.3946
 1597TIP3    H126426   4.382   2.677   0.445 -1.2790  0.6654  0.8446
 1597TIP3    H226427   4.412   2.561   0.538  1.5686  0.2677 -0.4490
 1598TIP3   OH226428   5.671   4.988   7.562  0.2094  0.9112  0.0227
 1598TIP3    H126429   5.690   4.985   7.469 -0.6670 -0.0931 -0.1477
 1598TIP3    H226430   5.749   4.953   7.604 -0.9095 -2.6714 -0.6187
 1599TIP3   OH226431   5.611   2.804   1.448 -0.3179 -0.0781  0.5745
 1599TIP3    H126432   5.702   2.828   1.426  0.2659 -2.4897  0.1255
 1599TIP3    H226433   5.559   2.845   1.380  0.7410 -0.9907 -0.8497
 1600TIP3   OH226434   0.770   1.036   1.677  0.8493 -0.0146  0.2852
 1600TIP3    H126435   0.830   1.108   1.660  0.4113  0.3688  0.3257
 1600TIP3    H226436   0.698   1.076   1.727 -0.5067  0.0213 -1.5819
 1601TIP3   OH226437   0.305   6.237   1.175 -0.5295  0.0364  0.0457
 1601TIP3    H126438   0.221   6.232   1.129 -0.0326 -1.2149 -0.7982
 1601TIP3    H226439   0.290   6.191   1.258 -0.5905 -0.4947 -0.2574
 1602TIP3   OH226440   0.662   2.451   1.584 -0.1831 -0.7297  0.4410
 1602TIP3    H126441   0.757   2.460   1.586 -0.2192  0.5401 -1.2172
 1602TIP3    H226442   0.631   2.517   1.646 -0.0147  1.2722 -1.4801
 1603TIP3   OH226443   4.175   2.124   7.499  0.1155  0.3447  0.7127
 1603TIP3    H126444   4.165   2.060   7.428  0.0895  0.1691  0.8721
 1603TIP3    H226445   4.198   2.206   7.455 -1.9526  0.7599  0.3146
 1604TIP3   OH226446   1.041   5.346   7.013  0.2217 -0.0863 -0.2426
 1604TIP3    H126447   1.010   5.362   7.102  0.0616 -1.4059 -0.0479
 1604TIP3    H226448   0.974   5.386   6.957 -0.4339 -0.5341  0.2089
 1605TIP3   OH226449   5.778   2.668   7.355 -0.4808 -0.3540 -0.7596
 1605TIP3    H126450   5.685   2.658   7.339 -0.2825 -0.0259 -2.2335
 1605TIP3    H226451   5.783   2.698   7.446 -1.7471 -1.1803 -0.3925
 1606TIP3   OH226452   5.290   4.920   1.282 -1.0786 -0.6815  0.0364
 1606TIP3    H126453   5.328   4.886   1.201  0.3966  0.4961  0.2100
 1606TIP3    H226454   5.322   4.861   1.350  0.1949  0.1016  0.1360
 1607TIP3   OH226455   4.915   0.853   2.062 -0.6603 -0.3582  0.0467
 1607TIP3    H126456   4.999   0.893   2.041 -0.7117  0.6412  1.6159
 1607TIP3    H226457   4.920   0.766   2.024 -0.6263  1.0991 -3.7521
 1608TIP3   OH226458   4.625   0.037   7.054  0.0439 -0.2534  0.1073
 1608TIP3    H126459   4.703  -0.018   7.049 -0.4619 -0.9198 -0.9253
 1608TIP3    H226460   4.627   0.090   6.974 -0.6262 -0.3793 -0.0032
 1609TIP3   OH226461   6.921   6.128   8.484 -0.0451  0.4664  0.3414
 1609TIP3    H126462   6.835   6.167   8.467  0.1797  1.4671  1.3701
 1609TIP3    H226463   6.916   6.096   8.574  1.2907  2.3984  1.1703
 1610TIP3   OH226464   0.438   2.620   2.330  0.4862  0.1861 -0.7498
 1610TIP3    H126465   0.399   2.696   2.287  2.3384  2.2205  0.9101
 1610TIP3    H226466   0.411   2.627   2.422  0.4994 -1.3307 -0.5978
 1611TIP3   OH226467   0.906   6.188   7.403 -0.6058 -0.2028  0.2321
 1611TIP3    H126468   0.833   6.145   7.359 -0.0433 -0.0874 -0.8473
 1611TIP3    H226469   0.949   6.119   7.453 -0.5502 -0.5951 -0.3519
 1612TIP3   OH226470   2.538   0.934   0.297  0.1880 -0.0095 -0.2398
 1612TIP3    H126471   2.592   0.855   0.292 -1.2716 -0.9730 -4.0512
 1612TIP3    H226472   2.597   1.005   0.274  0.9609 -0.2943  0.8058
 1613TIP3   OH226473   4.975   1.617   2.530  0.5166 -0.1336  0.2317
 1613TIP3    H126474   4.949   1.525   2.536  2.9857 -0.8565  1.0473
 1613TIP3    H226475   4.997   1.642   2.620 -1.0037  1.5866  0.1840
 1614TIP3   OH226476   2.938   1.793   7.053  0.1031  0.8085  0.1211
 1614TIP3    H126477   2.875   1.768   6.985  0.0850 -0.3420  0.5505
 1614TIP3    H226478   2.901   1.874   7.090 -2.0353 -0.6638  1.4558
 1615TIP3   OH226479   2.000   0.762   2.888  0.2415 -0.9665  0.0261
 1615TIP3    H126480   2.080   0.814   2.881 -0.9653  0.9581 -0.1718
 1615TIP3    H226481   1.953   0.801   2.962 -1.7082 -0.2724 -1.4840
 1616TIP3   OH226482   1.845   4.422   0.675 -0.2048 -0.2647 -0.1967
 1616TIP3    H126483   1.931   4.381   0.671 -0.2267 -0.2400 -1.1806
 1616TIP3    H226484   1.811   4.399   0.762  0.6604 -0.5340  0.0750
 1617TIP3   OH226485   3.776   3.977   6.778  0.1468  0.3609 -0.1107
 1617TIP3    H126486   3.747   3.963   6.868  1.0074 -2.1205 -0.1399
 1617TIP3    H226487   3.871   3.991   6.785  0.2319  0.0828 -0.6154
 1618TIP3   OH226488   5.206   5.639   2.830  0.3675 -0.6643 -1.0183
 1618TIP3    H126489   5.179   5.549   2.851  2.2824 -1.0703 -0.0250
 1618TIP3    H226490   5.299   5.631   2.807  0.8162  1.1700 -0.0389
 1619TIP3   OH226491   3.369   1.290   1.056  0.1505 -0.2748  0.0002
 1619TIP3    H126492   3.440   1.331   1.105  0.5941 -0.7219 -0.2580
 1619TIP3    H226493   3.316   1.246   1.122 -0.6764  1.1824  0.3604
 1620TIP3   OH226494   5.813   1.298   1.784  0.2249 -0.2580 -0.7568
 1620TIP3    H126495   5.765   1.231   1.734 -0.6075 -0.3628  0.1566
 1620TIP3    H226496   5.899   1.302   1.741 -0.0494 -1.1989 -1.4444
 1621TIP3   OH226497   0.906   0.272   1.691 -0.3612 -0.5547 -0.1504
 1621TIP3    H126498   0.850   0.196   1.683 -1.4198  0.2148 -0.2203
 1621TIP3    H226499   0.994   0.239   1.673 -0.4871 -2.1776  1.8627
 1622TIP3   OH226500   1.534   5.423   7.468  0.7490 -0.0168  0.4664
 1622TIP3    H126501   1.444   5.399   7.489  1.3227 -1.4568  1.4403
 1622TIP3    H226502   1.531   5.454   7.378 -0.6967 -0.1323  0.4545
 1623TIP3   OH226503   3.287   3.919   8.017  0.0648 -0.3118  0.3139
 1623TIP3    H126504   3.342   3.896   8.092  0.5300  2.9366  1.1239
 1623TIP3    H226505   3.331   3.878   7.942  2.8954  1.0002  1.1167
 1624TIP3   OH226506   6.624   1.505   1.656 -0.7536  0.7048  0.6763
 1624TIP3    H126507   6.658   1.424   1.618 -1.8758  0.5805 -0.0833
 1624TIP3    H226508   6.592   1.479   1.742 -2.2132  0.0639 -0.0306
 1625TIP3   OH226509   2.759   3.635   1.627  0.6296 -0.0507  0.4949
 1625TIP3    H126510   2.825   3.659   1.561  0.4118 -1.0726 -0.1078
 1625TIP3    H226511   2.720   3.555   1.594  1.0402 -1.0304  2.2440
 1626TIP3   OH226512   5.131   5.487   1.182 -0.2306 -0.2041  0.4673
 1626TIP3    H126513   5.199   5.429   1.148  0.4513  1.1824 -0.5961
 1626TIP3    H226514   5.178   5.558   1.224 -1.0605 -0.1346  1.3147
 1627TIP3   OH226515   2.288   3.576   6.869  0.3024 -0.2324 -0.0649
 1627TIP3    H126516   2.329   3.577   6.783  0.1436  0.6290 -0.1432
 1627TIP3    H226517   2.356   3.540   6.927  0.2654 -1.2075 -0.6020
 1628TIP3   OH226518   3.891   5.561   0.933  0.0839 -0.4089 -0.1352
 1628TIP3    H126519   3.861   5.471   0.947  0.7876 -0.4410  1.4634
 1628TIP3    H226520   3.986   5.555   0.942  0.1870  0.3952 -0.6687
 1629TIP3   OH226521   6.565   2.610   7.529  0.0261  0.0771  0.1827
 1629TIP3    H126522   6.614   2.649   7.457  2.1699 -0.2873  1.3520
 1629TIP3    H226523   6.478   2.593   7.493  0.7425  0.7539 -2.0077
 1630TIP3   OH226524   3.563   3.699   2.119 -0.1732 -0.2083 -0.2162
 1630TIP3    H126525   3.573   3.741   2.034  0.0600 -1.2044 -0.6964
 1630TIP3    H226526   3.478   3.729   2.152  0.4167  1.4072 -0.0857
 1631TIP3   OH226527   2.772   5.600   6.636  0.1800  0.0623 -0.3522
 1631TIP3    H126528   2.797   5.612   6.728 -2.1318  0.2335  0.2972
 1631TIP3    H226529   2.845   5.638   6.587  1.9362 -0.8925  1.3501
 1632TIP3   OH226530   4.310   0.823   6.504  0.4610 -0.3597 -0.2537
 1632TIP3    H126531   4.372   0.884   6.545  0.1329  0.2558 -0.6508
 1632TIP3    H226532   4.249   0.880   6.456 -0.6359 -0.9345  0.4295
 1633TIP3   OH226533   4.827   6.087   1.568  0.2304 -0.7961 -0.1471
 1633TIP3    H126534   4.894   6.156   1.571 -1.2667  0.6948  1.5437
 1633TIP3    H226535   4.782   6.102   1.485 -0.1594  0.3911  0.2590
 1634TIP3   OH226536   1.629   4.261   2.715 -0.2132  0.3569 -0.0654
 1634TIP3    H126537   1.578   4.232   2.639 -0.7894 -0.1282  0.5011
 1634TIP3    H226538   1.670   4.343   2.686  0.2812 -0.2627 -1.1926
 1635TIP3   OH226539   5.192   5.594   6.429  0.1991 -0.1158  0.6349
 1635TIP3    H126540   5.104   5.625   6.452  0.4859  0.1936  1.3654
 1635TIP3    H226541   5.251   5.657   6.471  0.7692 -0.1166 -0.1515
 1636TIP3   OH226542   4.498   3.421   0.179  0.7499 -0.3184 -0.4441
 1636TIP3    H126543   4.530   3.494   0.127 -0.8701  0.5511 -0.2877
 1636TIP3    H226544   4.413   3.399   0.139 -0.7488  0.6580  2.0238
 1637TIP3   OH226545   6.395   1.995   1.079 -0.1686  0.3962 -0.0598
 1637TIP3    H126546   6.406   1.903   1.057 -2.1621  0.2093 -0.4257
 1637TIP3    H226547   6.482   2.024   1.107  0.3904 -1.6750  0.4530
 1638TIP3   OH226548   2.052   3.698   6.962  0.8413  0.0867 -0.0011
 1638TIP3    H126549   1.966   3.709   6.920  0.4132  1.5054  1.1812
 1638TIP3    H226550   2.095   3.630   6.910 -1.4145 -1.4848  0.0415
 1639TIP3   OH226551   3.778   4.755   6.689 -0.1178 -0.0783 -0.3304
 1639TIP3    H126552   3.766   4.663   6.669 -0.8618  0.0870 -0.6778
 1639TIP3    H226553   3.754   4.801   6.608  1.3912  0.3684 -0.5544
 1640TIP3   OH226554   0.906   2.497   8.210 -0.4538  0.1464  0.0000
 1640TIP3    H126555   0.859   2.439   8.270 -0.7490 -1.9928 -2.1148
 1640TIP3    H226556   0.997   2.465   8.212 -0.8213 -1.2482 -1.9694
 1641TIP3   OH226557   3.963   5.919   0.361  0.6418  0.6249  0.1774
 1641TIP3    H126558   3.979   5.845   0.302  1.4188 -0.1212  1.2732
 1641TIP3    H226559   4.043   5.972   0.354  0.8054  0.4494  0.6525
 1642TIP3   OH226560   4.473   0.549   2.245 -0.3405 -0.5416  0.5976
 1642TIP3    H126561   4.475   0.621   2.182 -2.0997  0.7739  1.9367
 1642TIP3    H226562   4.420   0.482   2.201 -0.0466 -0.3755 -0.0270
 1643TIP3   OH226563   1.874   3.008   0.152  0.2496 -0.1592 -0.5357
 1643TIP3    H126564   1.779   3.012   0.154  0.2289 -0.2283 -1.2861
 1643TIP3    H226565   1.902   3.099   0.160  0.1621 -0.2549  1.1488
 1644TIP3   OH226566   4.708   4.634   0.252 -0.2118  0.1105  0.2259
 1644TIP3    H126567   4.655   4.712   0.266  0.0714  0.2805  0.3526
 1644TIP3    H226568   4.734   4.606   0.340 -1.4359 -0.9185  0.2987
 1645TIP3   OH226569   5.381   1.210   8.220  0.1583 -0.2541  0.3196
 1645TIP3    H126570   5.412   1.270   8.151  1.3944 -0.2239  0.8858
 1645TIP3    H226571   5.452   1.147   8.231  1.7854  1.9383  4.1960
 1646TIP3   OH226572   5.490   4.049   1.606  0.0961 -0.2967 -0.1981
 1646TIP3    H126573   5.419   4.051   1.670  0.7859  0.9779  0.5526
 1646TIP3    H226574   5.465   3.979   1.545 -1.7632  0.0938  0.0665
 1647TIP3   OH226575   2.426   5.234   1.554 -0.0520  0.1143 -0.6053
 1647TIP3    H126576   2.414   5.140   1.538  0.9508 -0.0904 -0.2119
 1647TIP3    H226577   2.384   5.249   1.639  2.5681 -0.6837  0.9663
 1648TIP3   OH226578   3.452   3.217   2.271  0.4011  0.5071  0.0263
 1648TIP3    H126579   3.532   3.248   2.313  0.0263  0.7059  0.5966
 1648TIP3    H226580   3.426   3.140   2.322  0.8622 -0.2652 -0.8657
 1649TIP3   OH226581   3.904   5.438   8.449 -0.5423 -0.5178 -0.0010
 1649TIP3    H126582   3.813   5.430   8.478  0.0137 -1.5691  1.5522
 1649TIP3    H226583   3.924   5.353   8.409 -0.6657  0.2195 -1.7507
 1650TIP3   OH226584   2.405   0.455   1.382  0.1369  0.2607  0.0517
 1650TIP3    H126585   2.324   0.475   1.334  0.1644 -1.4929 -0.8010
 1650TIP3    H226586   2.374   0.413   1.463  0.1189  2.5488  1.3020
 1651TIP3   OH226587   6.252   5.164   8.219 -0.3650 -0.0814  0.1146
 1651TIP3    H126588   6.267   5.143   8.127  1.1174  0.3211  0.2532
 1651TIP3    H226589   6.265   5.080   8.265 -0.3993 -0.1281  0.0394
 1652TIP3   OH226590   4.921   6.285   7.506 -0.4212 -0.3149  0.3816
 1652TIP3    H126591   4.894   6.268   7.596 -0.8930  0.5982  0.4186
 1652TIP3    H226592   4.857   6.238   7.452 -0.2270 -0.7336  0.5061
 1653TIP3   OH226593   5.981   1.661   7.332  0.7486 -0.0845  0.3083
 1653TIP3    H126594   6.046   1.668   7.262 -1.3700 -0.0269 -1.7420
 1653TIP3    H226595   6.024   1.701   7.408  3.5000 -1.0377 -0.6150
 1654TIP3   OH226596   5.681   2.038   2.672 -0.3036  0.2423  0.1599
 1654TIP3    H126597   5.768   2.029   2.710  0.0448 -1.5833 -0.9742
 1654TIP3    H226598   5.635   1.959   2.698 -0.4595 -0.4799 -2.0818
 1655TIP3   OH226599   6.830   5.341   0.183  0.1627 -0.3667  0.6947
 1655TIP3    H126600   6.846   5.267   0.125 -0.3723 -1.8656  2.3768
 1655TIP3    H226601   6.745   5.322   0.223  1.4887 -0.6309  3.6758
 1656TIP3   OH226602   2.693   0.793   1.207  0.2486  0.5442  0.2881
 1656TIP3    H126603   2.711   0.702   1.184  0.3676  0.5019  0.5405
 1656TIP3    H226604   2.600   0.793   1.232  0.1750  0.5489  0.0196
 1657TIP3   OH226605   0.567   0.512   0.863 -0.5418 -0.0122 -0.1481
 1657TIP3    H126606   0.602   0.424   0.875 -1.3867 -0.4089 -0.4726
 1657TIP3    H226607   0.477   0.507   0.896 -0.3456  0.9448  0.5633
 1658TIP3   OH226608   2.745   3.457   7.359  0.3676  0.0205 -0.2347
 1658TIP3    H126609   2.655   3.458   7.327  0.3310  0.9285 -0.1186
 1658TIP3    H226610   2.739   3.490   7.449  0.9363  1.1559 -0.5890
 1659TIP3   OH226611   6.654   0.082   0.145  0.3596 -0.4540 -0.0246
 1659TIP3    H126612   6.667   0.107   0.237 -0.1247  0.7905 -0.2680
 1659TIP3    H226613   6.636   0.165   0.100  2.7413 -0.7342 -1.6485
 1660TIP3   OH226614   5.232   1.768   1.239  0.0162  0.3071  0.4211
 1660TIP3    H126615   5.193   1.696   1.288 -0.3583  0.5464  0.4811
 1660TIP3    H226616   5.189   1.765   1.154 -1.6195  1.7641  1.1132
 1661TIP3   OH226617   6.220   3.473   0.852  1.0613  0.4222 -0.0026
 1661TIP3    H126618   6.135   3.492   0.813  0.4844 -3.1264 -0.8612
 1661TIP3    H226619   6.274   3.548   0.830 -0.3926  0.4930 -4.1787
 1662TIP3   OH226620   4.900   2.380   2.161  0.6545  0.1814  0.4352
 1662TIP3    H126621   4.924   2.446   2.096 -1.7749  0.7837  0.0573
 1662TIP3    H226622   4.858   2.430   2.232 -2.6526 -0.9420 -0.5388
 1663TIP3   OH226623   5.108   2.135   0.833  0.2991 -0.0647  0.3332
 1663TIP3    H126624   5.103   2.183   0.750 -0.2419  0.4688  0.6625
 1663TIP3    H226625   5.071   2.049   0.813 -0.8538  0.4204  0.2620
 1664TIP3   OH226626   2.627   4.184   1.593 -0.1523  0.1847 -0.1853
 1664TIP3    H126627   2.581   4.122   1.650  0.0547  0.0557 -0.1570
 1664TIP3    H226628   2.609   4.270   1.632  2.3040 -0.0661  1.8178
 1665TIP3   OH226629   6.131   0.113   7.293  0.3246 -0.0137 -0.0817
 1665TIP3    H126630   6.142   0.042   7.356 -0.9985 -0.2342 -0.0518
 1665TIP3    H226631   6.044   0.098   7.256  0.2906  1.2221 -0.5497
 1666TIP3   OH226632   4.569   6.620   0.243 -0.1125  0.0160  0.1048
 1666TIP3    H126633   4.610   6.538   0.217 -0.1392 -0.1703  0.6385
 1666TIP3    H226634   4.490   6.626   0.188  0.4661  0.2398 -0.7221
 1667TIP3   OH226635   1.523   1.793   1.733  0.0605 -0.0583  0.0538
 1667TIP3    H126636   1.492   1.847   1.806 -1.9941  1.5248 -1.8736
 1667TIP3    H226637   1.576   1.726   1.775  0.0981  1.5604  2.8807
 1668TIP3   OH226638   1.056   3.370   0.777 -0.5417 -0.1834 -0.2464
 1668TIP3    H126639   1.081   3.278   0.768 -1.9312 -0.6183  0.0620
 1668TIP3    H226640   1.015   3.375   0.863  1.5946  1.2586  0.7603
 1669TIP3   OH226641   5.351   2.941   0.089 -0.2274  0.3290 -0.1795
 1669TIP3    H126642   5.388   2.945   0.177 -1.6052  0.6542  0.4141
 1669TIP3    H226643   5.256   2.950   0.103 -0.6176 -1.3418 -1.5630
 1670TIP3   OH226644   3.326   6.613   0.651 -0.0085  0.3986 -0.3566
 1670TIP3    H126645   3.273   6.638   0.727  2.1933  4.8941  0.0238
 1670TIP3    H226646   3.285   6.658   0.577  0.8720  0.4698 -0.8140
 1671TIP3   OH226647   1.128   3.231   0.110 -0.6859 -0.0259  0.1140
 1671TIP3    H126648   1.091   3.149   0.144 -0.0609 -0.3359  0.0650
 1671TIP3    H226649   1.094   3.238   0.021  1.1568 -1.4992 -0.7727
 1672TIP3   OH226650   3.297   2.949   6.879  0.3443  0.0879  0.1278
 1672TIP3    H126651   3.338   3.034   6.895  0.2972  0.1273  0.0392
 1672TIP3    H226652   3.209   2.957   6.917  0.8645 -0.4453  1.5409
 1673TIP3   OH226653   3.390   4.393   7.902  0.2213  0.9894 -0.0932
 1673TIP3    H126654   3.409   4.337   7.977 -0.8079 -0.1919 -0.6707
 1673TIP3    H226655   3.468   4.448   7.892  2.5267 -2.1697 -1.1287
 1674TIP3   OH226656   4.219   4.482   0.446 -0.0430  0.3087  0.6328
 1674TIP3    H126657   4.216   4.423   0.371  1.9404  1.9088 -0.8030
 1674TIP3    H226658   4.131   4.476   0.484 -1.0502 -0.7302 -1.6627
 1675TIP3   OH226659   5.143   2.014   7.459  0.2836  0.0212 -0.1970
 1675TIP3    H126660   5.062   2.061   7.478  0.8775  0.5272  1.2046
 1675TIP3    H226661   5.200   2.079   7.419  0.6334  0.1650  0.5151
 1676TIP3   OH226662   3.614   0.984   1.213 -0.0094  0.1186 -0.0795
 1676TIP3    H126663   3.669   0.907   1.222  0.7628  0.8890  2.3435
 1676TIP3    H226664   3.658   1.037   1.146  1.6553  0.2416  1.0648
 1677TIP3   OH226665   5.697   1.962   2.403  0.7129 -0.2560  0.4109
 1677TIP3    H126666   5.608   1.933   2.384 -0.1850  3.0099 -0.9640
 1677TIP3    H226667   5.693   1.994   2.493 -0.0537  1.5752 -0.2402
 1678TIP3   OH226668   3.094   2.863   1.140 -0.0475 -0.1069  0.5428
 1678TIP3    H126669   3.067   2.782   1.182  1.3914 -0.1285  1.5085
 1678TIP3    H226670   3.042   2.931   1.182  1.3779 -0.1260  2.4833
 1679TIP3   OH226671   2.204   2.626   8.347  0.0250 -0.3745 -0.5738
 1679TIP3    H126672   2.131   2.680   8.380 -0.5075 -1.4247  0.0193
 1679TIP3    H226673   2.200   2.636   8.252 -0.2319  0.4077 -0.4909
 1680TIP3   OH226674   6.457   4.388   1.669  0.2777  0.0511  0.5229
 1680TIP3    H126675   6.365   4.403   1.691 -0.4152 -0.1148 -2.0260
 1680TIP3    H226676   6.495   4.475   1.662  0.6752  0.1126  2.7216
 1681TIP3   OH226677   5.533   6.704   0.398  0.0420 -0.2461 -0.2731
 1681TIP3    H126678   5.536   6.745   0.312  0.3350 -2.0253 -1.1644
 1681TIP3    H226679   5.441   6.683   0.411 -0.2404  1.3997  0.5665
 1682TIP3   OH226680   2.223   3.655   7.166  0.0313 -0.0286  0.1343
 1682TIP3    H126681   2.166   3.679   7.092 -0.8668 -0.7902  0.5631
 1682TIP3    H226682   2.302   3.622   7.125  0.8311  2.4337 -0.4900
 1683TIP3   OH226683   6.102   1.677   1.745 -0.2044 -0.2383 -0.2122
 1683TIP3    H126684   6.026   1.725   1.776 -0.5562 -0.8694 -0.0846
 1683TIP3    H226685   6.066   1.597   1.706  0.1553  0.7714 -2.8225
 1684TIP3   OH226686   5.368   2.100   0.858 -0.5823  0.2370  0.2527
 1684TIP3    H126687   5.367   2.164   0.929 -1.6616 -0.4665  0.8951
 1684TIP3    H226688   5.284   2.110   0.814 -1.1854 -1.3819  0.9651
 1685TIP3   OH226689   4.588   3.530   6.375  0.1658 -0.3211  0.5451
 1685TIP3    H126690   4.498   3.507   6.397  0.2709 -1.0516  0.2343
 1685TIP3    H226691   4.602   3.615   6.418 -0.4556 -0.5091  1.1393
 1686TIP3   OH226692   5.381   2.099   7.694  0.1667 -0.2147 -0.4700
 1686TIP3    H126693   5.396   2.020   7.642 -0.0383  0.0377 -0.9214
 1686TIP3    H226694   5.286   2.101   7.706  0.2535 -0.5319  0.3346
 1687TIP3   OH226695   3.095   6.059   8.445  0.6358 -0.0071 -0.0957
 1687TIP3    H126696   3.127   6.059   8.535 -0.9666  1.4860  0.5380
 1687TIP3    H226697   3.014   6.110   8.448 -1.0740 -2.3576 -1.8251
 1688TIP3   OH226698   2.096   3.782   2.111  0.9212 -0.6519  0.7454
 1688TIP3    H126699   2.123   3.698   2.149  1.4412 -0.7494  0.1724
 1688TIP3    H226700   2.170   3.807   2.055  0.1287 -0.5486 -0.2676
 1689TIP3   OH226701   6.168   0.948   2.142  0.4140  0.3444 -0.6060
 1689TIP3    H126702   6.234   0.959   2.211  0.0400  1.8367 -0.4562
 1689TIP3    H226703   6.099   1.011   2.164 -2.8812 -3.3924  1.2459
 1690TIP3   OH226704   4.265   3.868   7.928 -0.3021 -0.3370 -0.5509
 1690TIP3    H126705   4.347   3.897   7.966 -0.5225 -0.2145 -0.1608
 1690TIP3    H226706   4.197   3.905   7.985 -0.6785  0.7108 -1.6338
 1691TIP3   OH226707   3.386   6.279   6.817 -0.0238  0.2478 -0.4324
 1691TIP3    H126708   3.329   6.211   6.780  0.3682  0.3886 -1.3213
 1691TIP3    H226709   3.410   6.333   6.742 -0.7715  1.7112  0.3506
 1692TIP3   OH226710   3.612   1.985   1.207  0.4194 -0.2624  0.4481
 1692TIP3    H126711   3.581   1.896   1.195  2.5881 -0.8375 -1.7040
 1692TIP3    H226712   3.549   2.040   1.161 -1.2158 -0.5503  2.2275
 1693TIP3   OH226713   5.203   3.056   1.864 -0.3545 -0.0439 -0.0533
 1693TIP3    H126714   5.121   3.024   1.827  0.1305 -0.8300 -0.4910
 1693TIP3    H226715   5.185   3.146   1.889 -1.6170 -0.4673  0.6817
 1694TIP3   OH226716   2.780   3.755   0.401  0.3774  0.2466  0.4445
 1694TIP3    H126717   2.836   3.706   0.461  0.2346  0.2081  0.5468
 1694TIP3    H226718   2.839   3.818   0.360  0.6252 -0.2045  0.0902
 1695TIP3   OH226719   5.329   3.792   1.935 -0.0683 -0.5105  0.4062
 1695TIP3    H126720   5.355   3.700   1.941 -1.4933 -0.9580  0.0950
 1695TIP3    H226721   5.236   3.792   1.957  0.0711  0.9660  1.1089
 1696TIP3   OH226722   3.245   0.357   8.546  0.5103  0.4610 -0.1049
 1696TIP3    H126723   3.239   0.450   8.528  1.6853  0.3899 -0.9666
 1696TIP3    H226724   3.206   0.346   8.633 -1.1890  1.4883 -0.7051
 1697TIP3   OH226725   6.777   5.581   7.091  0.5042 -0.3376 -0.2197
 1697TIP3    H126726   6.694   5.537   7.072  0.7147 -0.8329 -0.0293
 1697TIP3    H226727   6.843   5.525   7.049  0.9063 -1.0085  1.2188
 1698TIP3   OH226728   6.139   3.686   6.791 -0.8136 -0.3274 -0.5766
 1698TIP3    H126729   6.217   3.692   6.847 -0.2184 -1.1282 -1.2884
 1698TIP3    H226730   6.154   3.752   6.723 -1.2105  0.1671 -0.1916
 1699TIP3   OH226731   3.773   0.795   1.014  1.1120  0.4050  0.1105
 1699TIP3    H126732   3.819   0.711   1.016  0.6738  0.1586 -0.1837
 1699TIP3    H226733   3.835   0.855   0.972  0.7680 -0.1669 -1.2481
 1700TIP3   OH226734   5.886   3.162   7.877  0.3537  0.3815 -0.4341
 1700TIP3    H126735   5.848   3.238   7.832 -3.2747 -1.8409 -1.6386
 1700TIP3    H226736   5.838   3.156   7.959  2.0812  0.4891  0.6285
 1701TIP3   OH226737   4.549   2.531   1.939  0.2981 -0.7030 -0.3923
 1701TIP3    H126738   4.486   2.525   1.867  0.5501 -0.1349 -0.6694
 1701TIP3    H226739   4.510   2.480   2.010 -0.9062  0.3600 -0.2566
 1702TIP3   OH226740   3.279   3.934   1.312  0.4565 -0.1489  0.1784
 1702TIP3    H126741   3.199   3.931   1.260  1.1249  3.0142 -1.2862
 1702TIP3    H226742   3.294   3.843   1.339 -2.8665 -1.0524 -0.5623
 1703TIP3   OH226743   4.875   1.229   6.913  0.2844  0.3647  0.3782
 1703TIP3    H126744   4.948   1.230   6.974 -1.0286  0.2690  2.0450
 1703TIP3    H226745   4.822   1.154   6.941 -1.1080  1.1943  0.0728
 1704TIP3   OH226746   1.307   0.382   0.387 -0.5208  0.3989 -0.3779
 1704TIP3    H126747   1.370   0.313   0.367 -1.3854 -1.0659  1.5426
 1704TIP3    H226748   1.360   0.460   0.402  0.7783 -0.5772  0.3092
 1705TIP3   OH226749   4.193   0.171   7.317 -0.5769 -0.2817  0.2407
 1705TIP3    H126750   4.125   0.133   7.261 -0.1707  0.1006 -0.5236
 1705TIP3    H226751   4.259   0.103   7.324 -0.1408  0.0354 -0.6185
 1706TIP3   OH226752   2.694   1.224   1.039  0.2172  0.2149 -0.2653
 1706TIP3    H126753   2.711   1.231   0.945 -0.0730  0.2573 -0.3182
 1706TIP3    H226754   2.660   1.311   1.063 -1.2877 -0.2834 -0.4658
 1707TIP3   OH226755   0.884   0.770   8.010 -0.1057 -0.1637  0.1879
 1707TIP3    H126756   0.796   0.809   8.003 -0.5740 -1.1638  0.3656
 1707TIP3    H226757   0.941   0.844   8.030 -0.8920  0.5203 -0.0157
 1708TIP3   OH226758   1.546   2.680   2.232 -0.0558  0.4727 -0.0973
 1708TIP3    H126759   1.615   2.645   2.288 -0.0809 -0.2177 -0.4843
 1708TIP3    H226760   1.482   2.718   2.293  0.3704  0.5669  0.2918
 1709TIP3   OH226761   5.823   5.550   0.703 -0.2597 -0.7660 -0.4687
 1709TIP3    H126762   5.781   5.480   0.753  0.9684 -2.0767 -1.2059
 1709TIP3    H226763   5.758   5.621   0.701 -1.2052 -1.5483  1.0107
 1710TIP3   OH226764   1.995   6.529   7.308 -0.0738  0.2176  0.1680
 1710TIP3    H126765   1.955   6.536   7.221 -0.8225 -0.8217  0.4101
 1710TIP3    H226766   2.029   6.439   7.312 -0.2829  0.1657  1.0431
 1711TIP3   OH226767   5.969   2.993   0.207  0.0382  0.1732 -0.6777
 1711TIP3    H126768   5.936   3.007   0.296 -1.4424 -0.9880 -1.0006
 1711TIP3    H226769   5.894   3.012   0.150  1.2436  1.8855 -1.7897
 1712TIP3   OH226770   0.514   3.839   8.043  0.5859  0.0654 -0.0525
 1712TIP3    H126771   0.503   3.847   8.137  2.5589  0.7853  0.1643
 1712TIP3    H226772   0.573   3.911   8.020 -0.9274  0.7622 -2.0649
 1713TIP3   OH226773   3.884   6.071   7.092 -0.2404 -0.2663  0.2151
 1713TIP3    H126774   3.966   6.112   7.062  0.5353  0.3532  2.8758
 1713TIP3    H226775   3.902   5.977   7.087  0.3474 -0.1527  0.0566
 1714TIP3   OH226776   5.380   6.333   0.255  0.7462  0.6623 -0.4843
 1714TIP3    H126777   5.457   6.277   0.267  0.7856  0.6305 -0.8810
 1714TIP3    H226778   5.311   6.273   0.227  0.3255  0.5420  0.7382
 1715TIP3   OH226779   1.217   5.911   0.029 -0.1661 -0.8622 -0.2413
 1715TIP3    H126780   1.275   5.907   0.105 -1.4449  1.1571  0.9002
 1715TIP3    H226781   1.132   5.884   0.062 -0.7991  0.2915 -0.8927
 1716TIP3   OH226782   2.537   1.854   1.700 -0.2053 -0.5289  0.3824
 1716TIP3    H126783   2.448   1.844   1.667 -0.8072  0.0870  1.7254
 1716TIP3    H226784   2.526   1.896   1.785  1.3639 -0.6326  0.6655
 1717TIP3   OH226785   5.836   6.364   7.913 -0.3256 -0.0921 -0.0624
 1717TIP3    H126786   5.897   6.394   7.980 -0.2127 -0.6055  0.0678
 1717TIP3    H226787   5.757   6.341   7.962  0.5070 -2.6825  0.2411
 1718TIP3   OH226788   2.259   5.515   7.494 -0.0207 -0.3848  0.5244
 1718TIP3    H126789   2.240   5.434   7.541 -0.3059 -0.8331 -0.3306
 1718TIP3    H226790   2.337   5.495   7.443  0.1609  0.0212  0.6410
 1719TIP3   OH226791   1.302   3.601   0.005  0.0394 -0.2898  0.6006
 1719TIP3    H126792   1.243   3.614   0.080  1.6361 -0.7916  2.0292
 1719TIP3    H226793   1.388   3.623   0.040  0.5992  1.5244 -1.7377
 1720TIP3   OH226794   1.840   1.899   2.059 -0.0479  0.3807 -0.2777
 1720TIP3    H126795   1.828   1.914   2.153 -1.0833  0.2409 -0.3699
 1720TIP3    H226796   1.874   1.810   2.054 -0.4426  0.2113 -0.0472
 1721TIP3   OH226797   1.678   4.862   6.455  0.6713  0.1411  0.2047
 1721TIP3    H126798   1.615   4.821   6.396  2.0024 -1.2133 -0.3410
 1721TIP3    H226799   1.667   4.956   6.440  0.1644 -0.1372 -1.3331
 1722TIP3   OH226800   0.040   5.052   1.225  0.3835 -0.0888  0.7084
 1722TIP3    H126801  -0.050   5.031   1.250 -0.0415  1.4483  0.6122
 1722TIP3    H226802   0.094   4.986   1.269 -0.8544 -1.7872 -0.2431
 1723TIP3   OH226803   0.226   2.632   6.604 -0.4326  0.0505  0.3270
 1723TIP3    H126804   0.132   2.651   6.614 -0.6422  1.4237 -3.0229
 1723TIP3    H226805   0.228   2.539   6.583 -1.4949  0.5822 -2.6573
 1724TIP3   OH226806   3.387   0.809   8.226 -0.1677  0.2992 -0.3608
 1724TIP3    H126807   3.326   0.883   8.223  0.6025  1.0788  1.5183
 1724TIP3    H226808   3.334   0.733   8.202 -1.6463  1.1013  0.2024
 1725TIP3   OH226809   0.255   5.610   8.406  0.2401  0.0382 -0.5642
 1725TIP3    H126810   0.236   5.690   8.358  0.9434  0.0306 -0.8582
 1725TIP3    H226811   0.348   5.616   8.429  0.0229 -0.1578  0.4158
 1726TIP3   OH226812   5.297   4.926   6.890  0.2184  0.0077  0.3757
 1726TIP3    H126813   5.373   4.910   6.834  0.2326  1.9162 -0.2286
 1726TIP3    H226814   5.248   4.844   6.889  1.4729 -0.7522 -0.4836
 1727TIP3   OH226815   4.318   0.093   0.869 -0.0337  0.1491 -0.0538
 1727TIP3    H126816   4.232   0.087   0.912 -0.1327 -2.2102 -0.4094
 1727TIP3    H226817   4.308   0.042   0.789  2.1188 -1.7334  0.7481
 1728TIP3   OH226818   1.461   3.180   7.699 -0.3715  0.0212 -0.1465
 1728TIP3    H126819   1.444   3.115   7.766  2.0653 -0.2800  0.2950
 1728TIP3    H226820   1.497   3.255   7.746 -1.9702  1.2450 -0.7808
 1729TIP3   OH226821   1.914   6.009   0.527  0.3315  0.5996 -0.2058
 1729TIP3    H126822   1.859   6.071   0.574  1.6849 -0.0399  2.4039
 1729TIP3    H226823   2.000   6.052   0.521  0.7345 -0.1780 -0.2093
 1730TIP3   OH226824   5.856   1.907   0.178  0.5152 -0.7874  0.1142
 1730TIP3    H126825   5.882   1.847   0.108  0.8116  0.1022 -0.5498
 1730TIP3    H226826   5.938   1.941   0.213  0.3388 -0.3895  0.1471
 1731TIP3   OH226827   4.787   1.478   7.286  0.1780  0.2481 -0.9113
 1731TIP3    H126828   4.809   1.513   7.373  0.9848  0.2436 -1.1045
 1731TIP3    H226829   4.716   1.415   7.303  1.0969 -0.6149 -0.0853
 1732TIP3   OH226830   0.414   6.530   1.431  0.8360 -0.0065  0.1141
 1732TIP3    H126831   0.352   6.602   1.424  1.5860  0.5243 -1.5104
 1732TIP3    H226832   0.455   6.525   1.345  2.2489 -1.0666  0.8098
 1733TIP3   OH226833   5.672   3.249   7.289 -0.5086  0.1097 -0.6813
 1733TIP3    H126834   5.657   3.337   7.324  0.6787  0.1310 -0.1903
 1733TIP3    H226835   5.602   3.236   7.225 -0.4839  1.5431 -1.0228
 1734TIP3   OH226836   2.365   1.490   0.605  0.6742  0.1531 -0.2361
 1734TIP3    H126837   2.431   1.558   0.595 -1.0203  1.6895 -1.5669
 1734TIP3    H226838   2.335   1.472   0.515  1.3573 -2.7123  0.0051
 1735TIP3   OH226839   0.484   3.446   8.307 -0.2626 -0.2701  0.0525
 1735TIP3    H126840   0.575   3.473   8.295 -0.3408 -0.7779 -2.1282
 1735TIP3    H226841   0.455   3.420   8.220 -3.2735  2.2102  0.1458
 1736TIP3   OH226842   0.394   2.676   7.340 -0.3751  0.1737 -0.0504
 1736TIP3    H126843   0.334   2.742   7.373 -1.3606 -0.6473 -0.1697
 1736TIP3    H226844   0.430   2.635   7.418 -1.3123 -0.5217  0.0270
 1737TIP3   OH226845   4.792   4.204   1.560 -0.2443 -0.0838  0.0446
 1737TIP3    H126846   4.716   4.151   1.583 -0.1057  0.0126  0.7249
 1737TIP3    H226847   4.803   4.189   1.466 -0.3465 -1.0773  0.1775
 1738TIP3   OH226848   3.810   3.762   0.050  0.1058  0.1479  0.4671
 1738TIP3    H126849   3.719   3.751   0.078  0.0039  0.0144  0.0868
 1738TIP3    H226850   3.842   3.673   0.036 -0.4246  0.2307 -1.6659
 1739TIP3   OH226851   6.099   4.235   7.563 -0.0195  0.1072 -0.0791
 1739TIP3    H126852   6.065   4.209   7.477  0.2589 -2.5096  0.4914
 1739TIP3    H226853   6.105   4.152   7.611  2.1939  1.1507  1.6155
 1740TIP3   OH226854   1.142   5.369   7.846 -0.0857 -0.7493  0.5015
 1740TIP3    H126855   1.084   5.294   7.835 -1.8140  0.7031 -0.8008
 1740TIP3    H226856   1.091   5.444   7.817  2.0138  0.7891  0.5289
 1741TIP3   OH226857   5.150   2.780   0.881  0.2560 -0.0217 -0.3188
 1741TIP3    H126858   5.108   2.842   0.940  0.0869 -0.2898 -0.1566
 1741TIP3    H226859   5.228   2.826   0.849  0.4193  0.0777  0.2147
 1742TIP3   OH226860   6.676   3.710   7.852 -0.0388 -0.7694 -0.5258
 1742TIP3    H126861   6.584   3.735   7.858  0.2178  0.0552  0.1917
 1742TIP3    H226862   6.679   3.622   7.888 -0.2710 -0.0543  1.3819
 1743TIP3   OH226863   1.922   2.205   0.247  0.0666  0.0486 -0.4027
 1743TIP3    H126864   1.957   2.162   0.325 -0.9956 -1.7514 -0.8606
 1743TIP3    H226865   1.995   2.204   0.184  0.1460 -0.8654 -0.3081
 1744TIP3   OH226866   0.465   6.848   0.629 -0.0272 -0.3886 -1.0702
 1744TIP3    H126867   0.455   6.936   0.666 -1.2191  0.0889 -2.4300
 1744TIP3    H226868   0.377   6.813   0.626  0.4511 -1.6797 -0.4839
 1745TIP3   OH226869   4.641   3.747   7.907 -0.0898 -0.0755 -0.5683
 1745TIP3    H126870   4.607   3.667   7.946  2.0881 -0.7072  0.1290
 1745TIP3    H226871   4.585   3.816   7.943 -0.5962 -1.0459  0.5694
 1746TIP3   OH226872   5.937   5.473   1.792  0.4750  0.1915  0.4732
 1746TIP3    H126873   5.870   5.447   1.729  0.1238 -1.2916  1.3910
 1746TIP3    H226874   5.985   5.392   1.810  1.8404  1.0107  0.6305
 1747TIP3   OH226875   5.524   2.675   7.579  0.2631 -0.0159 -0.5996
 1747TIP3    H126876   5.502   2.650   7.489  1.8461 -0.7808 -0.8115
 1747TIP3    H226877   5.516   2.594   7.629  1.5869 -0.1181 -0.5153
 1748TIP3   OH226878   5.778   4.488   1.573  0.2505 -0.3234 -0.0128
 1748TIP3    H126879   5.789   4.502   1.667 -0.3669 -0.2084  0.0442
 1748TIP3    H226880   5.734   4.404   1.565 -0.7874  0.2181 -0.1423
 1749TIP3   OH226881   4.478   2.700   7.838  0.4968  0.1747  0.1594
 1749TIP3    H126882   4.536   2.681   7.911 -0.8137 -0.6716  1.0257
 1749TIP3    H226883   4.396   2.727   7.879  0.1896  1.1087 -1.0256
 1750TIP3   OH226884   4.570   5.583   6.902 -0.3556 -0.2905  0.5611
 1750TIP3    H126885   4.559   5.490   6.884 -0.2299 -0.2995  0.5271
 1750TIP3    H226886   4.620   5.616   6.827  1.0246 -0.5249  1.3498
 1751TIP3   OH226887   4.238   2.258   7.718 -0.0639  0.2913 -0.4397
 1751TIP3    H126888   4.230   2.189   7.652  2.0657  0.5268 -1.0207
 1751TIP3    H226889   4.174   2.324   7.693 -1.6814 -1.1626 -0.2444
 1752TIP3   OH226890   0.373   6.348   0.694  0.6483 -0.1849 -0.0065
 1752TIP3    H126891   0.433   6.423   0.696 -1.4220  1.5684  0.7495
 1752TIP3    H226892   0.329   6.355   0.609  0.5664 -0.6240  0.0002
 1753TIP3   OH226893   6.402   0.318   1.949  0.1345  0.2673 -0.6545
 1753TIP3    H126894   6.369   0.305   1.860  2.0916 -2.7637 -1.1013
 1753TIP3    H226895   6.334   0.283   2.006 -0.3117  0.4405 -1.0730
 1754TIP3   OH226896   3.705   3.885   0.350  0.1667 -0.2772 -0.2007
 1754TIP3    H126897   3.636   3.894   0.285 -0.7344 -0.0350  0.7489
 1754TIP3    H226898   3.686   3.952   0.415  1.1526 -0.3814  0.2218
 1755TIP3   OH226899   4.149   3.338   7.399  0.3844 -0.6216  0.2241
 1755TIP3    H126900   4.151   3.244   7.417 -1.8214 -0.8701 -0.5210
 1755TIP3    H226901   4.142   3.379   7.485  3.3728 -0.9188  0.7483
 1756TIP3   OH226902   5.113   1.486   1.729 -0.0648  0.2707 -0.7063
 1756TIP3    H126903   5.171   1.551   1.767  0.7040 -0.8699  0.1435
 1756TIP3    H226904   5.172   1.418   1.696 -0.8801 -1.6134  1.4658
 1757TIP3   OH226905   4.839   4.708   6.887 -0.2340  0.1364 -0.2384
 1757TIP3    H126906   4.844   4.643   6.957  0.4916 -0.4299 -0.7921
 1757TIP3    H226907   4.899   4.777   6.914 -0.6427  0.3533  0.1244
 1758TIP3   OH226908   2.999   6.183   7.549  0.0395  0.1720 -0.3445
 1758TIP3    H126909   3.007   6.259   7.491 -1.7737 -0.3710 -1.3896
 1758TIP3    H226910   3.087   6.172   7.586  0.6080  2.1122 -0.9883
 1759TIP3   OH226911   3.603   4.765   1.442 -0.1083 -0.0507  0.5278
 1759TIP3    H126912   3.680   4.740   1.392 -0.1270 -1.8286  1.3112
 1759TIP3    H226913   3.637   4.824   1.510  0.2701  0.5560 -0.1812
 1760TIP3   OH226914   1.475   1.620   7.630 -0.0893  0.3918  0.7450
 1760TIP3    H126915   1.432   1.703   7.650 -1.2975 -0.4226  1.7277
 1760TIP3    H226916   1.403   1.563   7.601  0.5746 -0.5563  0.9259
 1761TIP3   OH226917   3.948   6.556   1.672  0.4441 -0.9711 -0.5511
 1761TIP3    H126918   3.992   6.479   1.709  1.5837  0.6745  1.7761
 1761TIP3    H226919   4.009   6.589   1.607  1.4128 -0.3499  0.6230
 1762TIP3   OH226920   3.152   4.715   1.031 -0.4080 -0.7213 -0.0292
 1762TIP3    H126921   3.231   4.748   1.074 -1.0390  0.1653  0.4867
 1762TIP3    H226922   3.118   4.791   0.982 -1.0250 -1.0444 -0.1102
 1763TIP3   OH226923   4.327   4.497   1.148  0.2277  0.4065  0.1757
 1763TIP3    H126924   4.414   4.460   1.139  1.1024  2.2354  0.5549
 1763TIP3    H226925   4.333   4.554   1.226 -1.7761 -0.6879  1.2193
 1764TIP3   OH226926   4.794   0.692   7.588  0.6491 -0.1888 -0.3425
 1764TIP3    H126927   4.870   0.689   7.646 -0.4941  0.5616  1.2352
 1764TIP3    H226928   4.810   0.767   7.532  0.7101  0.4461  0.5149
 1765TIP3   OH226929   0.395   2.159   1.229  0.1187 -0.3080 -0.1203
 1765TIP3    H126930   0.440   2.170   1.146 -2.8055  1.0115 -1.7025
 1765TIP3    H226931   0.427   2.231   1.283  0.6512 -0.0195 -0.8098
 1766TIP3   OH226932   1.819   0.422   7.491  0.1120  0.0153  0.5558
 1766TIP3    H126933   1.813   0.517   7.475  0.2657 -0.0145  0.3248
 1766TIP3    H226934   1.747   0.384   7.441  0.1380 -0.0051  0.5338
 1767TIP3   OH226935   3.229   3.243   8.139  0.0055  0.0256 -0.3189
 1767TIP3    H126936   3.261   3.313   8.082  0.0831  0.8230  0.6629
 1767TIP3    H226937   3.158   3.202   8.090 -1.9109  2.5567  0.1288
 1768TIP3   OH226938   5.646   0.330   0.919 -0.1080  0.1692  0.5636
 1768TIP3    H126939   5.656   0.414   0.874  0.5655  0.2105  0.7718
 1768TIP3    H226940   5.695   0.268   0.864 -0.9450 -0.1787  0.1898
 1769TIP3   OH226941   1.785   0.249   1.689 -0.4053 -0.0311 -0.0946
 1769TIP3    H126942   1.693   0.231   1.708 -0.8909  2.4925  0.2635
 1769TIP3    H226943   1.824   0.163   1.673 -2.5628 -1.2511  0.8757
 1770TIP3   OH226944   0.964   2.376   0.460  0.5389  0.3828  0.4144
 1770TIP3    H126945   0.869   2.366   0.456  0.4991  0.3722  1.1338
 1770TIP3    H226946   0.978   2.471   0.465  0.6165  0.4313 -0.5367
 1771TIP3   OH226947   3.337   2.737   1.607  1.0279  0.7877 -0.0928
 1771TIP3    H126948   3.419   2.714   1.565  0.3929 -1.9550 -0.0358
 1771TIP3    H226949   3.270   2.721   1.540  0.2477 -1.0393  1.0414
 1772TIP3   OH226950   5.913   3.656   1.021  0.1520  0.5769 -0.0890
 1772TIP3    H126951   5.836   3.714   1.028 -0.2611  0.1180 -0.6730
 1772TIP3    H226952   5.959   3.666   1.104 -1.5748 -0.5703  1.0764
 1773TIP3   OH226953   1.691   6.853   2.042 -0.0430  0.0125  0.3231
 1773TIP3    H126954   1.596   6.856   2.051  0.0881  0.8986  1.7924
 1773TIP3    H226955   1.717   6.770   2.082 -0.1772 -0.1005  0.1739
 1774TIP3   OH226956   6.880   0.661   1.337  0.4764  0.1254  0.3405
 1774TIP3    H126957   6.855   0.736   1.283  0.0458  0.5432  1.1026
 1774TIP3    H226958   6.798   0.635   1.381  0.6532 -0.6983  0.1991
 1775TIP3   OH226959   1.789   6.403   1.854  0.2027 -0.0072  0.0620
 1775TIP3    H126960   1.816   6.391   1.944 -2.4028  0.1070  0.9405
 1775TIP3    H226961   1.708   6.352   1.845 -0.9865  1.9404 -1.4275
 1776TIP3   OH226962   4.663   5.615   6.449 -0.5272  0.1821 -0.3582
 1776TIP3    H126963   4.595   5.676   6.420  0.7639  0.9708 -1.8675
 1776TIP3    H226964   4.615   5.547   6.498 -1.9182  3.0049  2.5961
 1777TIP3   OH226965   3.402   5.493   8.414  0.1393 -0.2476 -0.0358
 1777TIP3    H126966   3.358   5.409   8.400 -0.7318  0.2503 -0.3753
 1777TIP3    H226967   3.492   5.470   8.436 -0.0830 -1.2674 -0.1579
 1778TIP3   OH226968   4.130   5.957   7.607  0.0904  0.0553  0.4702
 1778TIP3    H126969   4.199   5.896   7.633  0.1225  0.5744  1.6770
 1778TIP3    H226970   4.156   6.040   7.645 -0.3207  0.6684 -0.5585
 1779TIP3   OH226971   5.157   5.148   6.937  0.7666 -0.0326  0.1549
 1779TIP3    H126972   5.208   5.069   6.927  0.8339 -0.0198  0.3770
 1779TIP3    H226973   5.193   5.209   6.873  1.4693  0.1970  0.7589
 1780TIP3   OH226974   2.212   0.515   7.462  0.3809 -0.1391  0.0471
 1780TIP3    H126975   2.232   0.426   7.432 -1.8896 -1.8543  3.0967
 1780TIP3    H226976   2.289   0.541   7.512  0.8497 -0.5756 -0.4258
 1781TIP3   OH226977   4.132   3.635   0.582  0.1285 -0.0290 -0.5382
 1781TIP3    H126978   4.138   3.629   0.486  0.8295  0.9223 -0.5709
 1781TIP3    H226979   4.097   3.723   0.598  0.4810  0.0031  0.0887
 1782TIP3   OH226980   2.408   5.824   8.366  0.0744 -0.6558  0.2085
 1782TIP3    H126981   2.315   5.818   8.345 -0.0776  0.7397  0.4043
 1782TIP3    H226982   2.426   5.918   8.369  1.3443 -0.8978  0.8343
 1783TIP3   OH226983   6.705   0.963   2.335  0.7345 -0.1640 -0.0083
 1783TIP3    H126984   6.722   1.055   2.315 -3.1590  1.1365  1.6929
 1783TIP3    H226985   6.755   0.946   2.414 -0.8838  1.6011  1.4931
 1784TIP3   OH226986   1.729   1.129   7.679 -0.0165  0.1019 -0.2480
 1784TIP3    H126987   1.702   1.221   7.679  1.6598  0.6747  1.5674
 1784TIP3    H226988   1.753   1.112   7.588 -1.8656  0.9363 -0.9478
 1785TIP3   OH226989   1.157   3.490   8.102  0.0349 -0.0200 -0.4861
 1785TIP3    H126990   1.204   3.417   8.142 -0.4306 -0.2020 -0.2692
 1785TIP3    H226991   1.225   3.540   8.056  1.0467  1.5772  2.4779
 1786TIP3   OH226992   3.865   4.683   2.346 -0.3091  0.3812 -0.0652
 1786TIP3    H126993   3.823   4.599   2.364 -0.4055  0.2226 -0.9742
 1786TIP3    H226994   3.808   4.748   2.388 -1.4008  0.1590 -1.1235
 1787TIP3   OH226995   0.928   2.019   6.501 -0.2210  0.0967 -0.1968
 1787TIP3    H126996   1.009   1.973   6.524  0.1108  1.0401  0.5804
 1787TIP3    H226997   0.951   2.112   6.505 -0.2564  0.3967 -3.9710
 1788TIP3   OH226998   6.883   3.350   7.290 -0.1624  0.0204  0.0817
 1788TIP3    H126999   6.819   3.278   7.297 -0.1293  0.0813  1.0870
 1788TIP3    H227000   6.840   3.424   7.333  0.8735 -0.1358  1.4104
 1789TIP3   OH227001   0.174   2.335   2.423  0.0175  0.4440 -0.6736
 1789TIP3    H127002   0.153   2.426   2.403  0.2942  0.6602 -0.0046
 1789TIP3    H227003   0.135   2.319   2.508 -0.8589 -0.3629 -1.1981
 1790TIP3   OH227004   0.784   2.110   0.913 -0.8545 -0.7889 -0.1637
 1790TIP3    H127005   0.841   2.037   0.886 -0.4287  0.0487 -1.6245
 1790TIP3    H227006   0.814   2.131   1.002  0.8788 -0.6200 -0.7444
 1791TIP3   OH227007   1.537   5.893   1.176 -0.1837 -0.4610 -0.2712
 1791TIP3    H127008   1.571   5.812   1.214 -1.6136 -0.7043  0.5308
 1791TIP3    H227009   1.443   5.879   1.169 -1.1267  2.4362  3.3410
 1792TIP3   OH227010   1.266   1.904   1.568 -0.2296 -0.4338  0.3577
 1792TIP3    H127011   1.310   1.988   1.579  0.4639 -0.6282 -0.7920
 1792TIP3    H227012   1.283   1.857   1.649  0.3001  0.1203  0.5723
 1793TIP3   OH227013   2.008   0.246   2.102  0.4163  0.4277  0.5883
 1793TIP3    H127014   1.924   0.226   2.062  0.8152  0.2811 -0.2037
 1793TIP3    H227015   2.031   0.167   2.151  1.4188 -0.6750 -1.5375
 1794TIP3   OH227016   5.293   4.485   0.863 -0.3835 -0.7978 -0.0003
 1794TIP3    H127017   5.381   4.513   0.838 -0.3058 -1.1171 -0.0875
 1794TIP3    H227018   5.236   4.556   0.835  0.0841  0.4733  2.0538
 1795TIP3   OH227019   3.279   5.755   1.297  0.2810  0.1519 -0.0945
 1795TIP3    H127020   3.186   5.775   1.305  0.4894  0.3812  3.3223
 1795TIP3    H227021   3.315   5.829   1.249 -1.2039  0.2307 -1.1602
 1796TIP3   OH227022   2.792   5.207   2.157 -0.2886  0.2026 -0.0166
 1796TIP3    H127023   2.796   5.229   2.063  0.5958  0.7408  0.1349
 1796TIP3    H227024   2.883   5.188   2.181 -0.7720 -2.0123  0.2741
 1797TIP3   OH227025   0.813   1.626   0.310 -0.0449  0.3032 -0.2092
 1797TIP3    H127026   0.833   1.720   0.309 -3.0782  1.0281 -1.2333
 1797TIP3    H227027   0.755   1.613   0.235 -1.5799 -1.9263  1.2528
 1798TIP3   OH227028   4.470   3.656   0.651 -0.0945 -0.1296 -0.2861
 1798TIP3    H127029   4.509   3.603   0.720 -2.0775  0.6582  1.5902
 1798TIP3    H227030   4.434   3.593   0.589 -1.0942 -1.0275  1.1225
 1799TIP3   OH227031   1.379   4.838   6.751  0.5655  0.0029  0.3208
 1799TIP3    H127032   1.363   4.885   6.833  0.9119 -0.6445  0.7722
 1799TIP3    H227033   1.341   4.752   6.765 -2.1455  0.8171 -1.3402
 1800TIP3   OH227034   3.053   0.211   0.355 -0.2612  0.5060  0.1622
 1800TIP3    H127035   2.984   0.208   0.421 -0.3861  1.5678  0.0875
 1800TIP3    H227036   3.007   0.233   0.274  0.2152  1.7237  0.2048
 1801TIP3   OH227037   1.387   6.761   0.260  0.2170  0.1471  0.2380
 1801TIP3    H127038   1.402   6.700   0.188  1.5762  0.4784  0.2097
 1801TIP3    H227039   1.325   6.715   0.318  1.5051 -1.4539  0.4217
 1802TIP3   OH227040   4.542   1.832   1.172  0.9660  0.4142 -0.1391
 1802TIP3    H127041   4.497   1.897   1.117  0.5162  0.9409  0.8361
 1802TIP3    H227042   4.581   1.883   1.242  1.6187 -0.2496 -0.0113
 1803TIP3   OH227043   2.900   0.592   1.315 -0.2359 -0.0127 -0.0245
 1803TIP3    H127044   2.945   0.656   1.371  0.5074  0.1010 -0.7275
 1803TIP3    H227045   2.817   0.576   1.359  0.6810 -0.6179  1.6177
 1804TIP3   OH227046   5.180   1.357   2.158  0.0404 -0.6486 -0.2346
 1804TIP3    H127047   5.242   1.293   2.122  1.1229 -0.2521  0.8470
 1804TIP3    H227048   5.100   1.345   2.107  0.3246 -2.6160 -0.2929
 1805TIP3   OH227049   6.850   6.099   1.354 -0.3636 -0.3047 -0.2788
 1805TIP3    H127050   6.834   6.017   1.308 -1.4747  0.2438 -0.9280
 1805TIP3    H227051   6.770   6.115   1.403 -1.2817  1.6825 -2.2478
 1806TIP3   OH227052   1.925   2.706   7.928 -0.1564 -0.7669  0.5484
 1806TIP3    H127053   2.015   2.678   7.943  1.3572  2.7258 -0.8169
 1806TIP3    H227054   1.903   2.759   8.004 -0.0709  0.4189 -0.2275
 1807TIP3   OH227055   3.174   1.797   0.109 -0.7619 -1.0678 -0.1177
 1807TIP3    H127056   3.139   1.711   0.086 -0.7389 -1.3179  0.7638
 1807TIP3    H227057   3.216   1.784   0.194  0.3119 -0.4660 -0.5310
 1808TIP3   OH227058   6.167   3.729   7.228 -0.2207  0.7013  0.6855
 1808TIP3    H127059   6.101   3.780   7.181  2.1595  2.9036 -0.4987
 1808TIP3    H227060   6.228   3.701   7.159  0.8175 -0.1127  1.8964
 1809TIP3   OH227061   3.912   5.243   1.183 -0.2962  0.8898  0.3897
 1809TIP3    H127062   3.848   5.305   1.220 -0.6981  0.7929 -0.1277
 1809TIP3    H227063   3.862   5.194   1.118 -0.2156 -0.6110  1.4188
 1810TIP3   OH227064   3.181   1.794   7.263 -0.0553 -0.4096  0.1089
 1810TIP3    H127065   3.232   1.756   7.191 -0.5905 -2.6003  0.8165
 1810TIP3    H227066   3.111   1.843   7.218  0.7230 -0.1464 -0.8545
 1811TIP3   OH227067   2.894   5.406   7.784  0.0392 -0.2635 -0.3746
 1811TIP3    H127068   2.977   5.450   7.799 -0.3074  0.1027  0.5853
 1811TIP3    H227069   2.831   5.476   7.770 -0.6222 -0.3693  1.7058
 1812TIP3   OH227070   2.574   4.666   7.683 -0.0593  0.4064 -0.1674
 1812TIP3    H127071   2.646   4.698   7.630 -0.6878  0.2963 -1.1025
 1812TIP3    H227072   2.520   4.615   7.623 -0.8624  0.3911  0.5426
 1813TIP3   OH227073   0.312   2.868   7.501 -0.1148  0.1586  0.2797
 1813TIP3    H127074   0.321   2.958   7.532  0.7440  1.0927 -2.4022
 1813TIP3    H227075   0.389   2.823   7.534 -0.4192  0.4422  1.4189
 1814TIP3   OH227076   2.467   2.535   8.260  0.4244  0.3026  0.3046
 1814TIP3    H127077   2.374   2.550   8.278 -0.1547 -0.2582 -1.9482
 1814TIP3    H227078   2.469   2.458   8.203  2.4480 -0.9530  1.9055
 1815TIP3   OH227079   3.406   1.158   0.779 -0.4284 -0.1036  0.1928
 1815TIP3    H127080   3.330   1.179   0.834 -0.0964  1.2323  0.1734
 1815TIP3    H227081   3.389   1.069   0.747 -1.5943 -0.1259  0.8255
 1816TIP3   OH227082   4.582   5.434   1.763  0.2247 -0.3193 -0.2936
 1816TIP3    H127083   4.516   5.400   1.703  0.7843 -1.6975 -0.1654
 1816TIP3    H227084   4.543   5.422   1.850  0.1681 -0.0455 -0.2812
 1817TIP3   OH227085   0.668   6.304   2.106  0.8941 -0.2407  0.4698
 1817TIP3    H127086   0.686   6.397   2.091  2.2383 -0.5618 -0.0973
 1817TIP3    H227087   0.627   6.301   2.193 -0.9245  1.0421 -0.2841
 1818TIP3   OH227088   2.798   2.489   1.628 -0.3904  0.0756  0.1024
 1818TIP3    H127089   2.707   2.499   1.600 -0.0145 -0.3411 -1.3650
 1818TIP3    H227090   2.813   2.562   1.688 -1.6452  0.2324  0.2393
 1819TIP3   OH227091   2.098   3.366   8.079 -0.3628  0.3712  0.0989
 1819TIP3    H127092   2.042   3.426   8.127 -0.2384 -0.4060  1.2513
 1819TIP3    H227093   2.065   3.369   7.989  0.1382  2.7367 -0.0728
 1820TIP3   OH227094   6.359   5.891   0.057  0.4502 -0.2198  0.4402
 1820TIP3    H127095   6.330   5.808   0.095 -0.4237  0.4462  1.2961
 1820TIP3    H227096   6.350   5.954   0.129 -0.4658  0.9271 -0.6295
 1821TIP3   OH227097   0.125   2.149   1.224 -0.1040 -0.0843 -0.2796
 1821TIP3    H127098   0.219   2.170   1.225 -0.4150  1.3332  0.6724
 1821TIP3    H227099   0.105   2.123   1.314 -0.4903 -1.1463 -0.6492
 1822TIP3   OH227100   4.771   6.799   7.852  0.3462  0.0648 -0.6075
 1822TIP3    H127101   4.759   6.730   7.917 -0.1825  1.0723  0.4108
 1822TIP3    H227102   4.723   6.769   7.776 -0.5564 -0.3423  0.1009
 1823TIP3   OH227103   2.509   2.197   1.279 -0.3555 -0.2325 -0.1751
 1823TIP3    H127104   2.443   2.222   1.215  1.7844 -0.5494 -2.6572
 1823TIP3    H227105   2.480   2.238   1.361 -1.9694  2.2403 -1.8649
 1824TIP3   OH227106   0.713   3.220   0.201  0.3312  0.4813  0.2287
 1824TIP3    H127107   0.686   3.259   0.118 -0.6650  0.5153  0.5533
 1824TIP3    H227108   0.633   3.217   0.253  0.9589  0.5446  1.2286
 1825TIP3   OH227109   0.075   0.260   7.622 -0.1563 -0.0009  0.2279
 1825TIP3    H127110   0.058   0.210   7.542 -0.2229 -1.5480  1.1699
 1825TIP3    H227111   0.147   0.214   7.665  0.3773  1.2406  0.7169
 1826TIP3   OH227112   3.104   1.046   7.584  0.0440 -0.6270 -0.3596
 1826TIP3    H127113   3.063   1.020   7.667 -0.0647  0.2754 -0.1194
 1826TIP3    H227114   3.143   1.132   7.602 -2.7354  1.1516 -2.0683
 1827TIP3   OH227115   3.879   6.079   1.803  0.5925 -0.5647 -0.3699
 1827TIP3    H127116   3.873   6.171   1.829  0.8355 -0.6306 -0.0787
 1827TIP3    H227117   3.848   6.031   1.880  1.4705 -0.7659 -0.1420
 1828TIP3   OH227118   0.479   2.351   2.170  0.2067  0.3748 -0.4407
 1828TIP3    H127119   0.453   2.400   2.249  1.1865  0.2660 -0.0374
 1828TIP3    H227120   0.491   2.419   2.103 -0.8392  0.4488 -0.5608
 1829TIP3   OH227121   3.567   6.666   8.256 -0.0969 -0.1207 -0.2023
 1829TIP3    H127122   3.614   6.591   8.293  0.9392  0.3994 -0.4413
 1829TIP3    H227123   3.532   6.712   8.332  0.6035  0.0240  0.0356
 1830TIP3   OH227124   4.330   3.386   1.311  0.0011 -0.1500 -0.1800
 1830TIP3    H127125   4.308   3.477   1.293 -1.3677  0.0779  2.1834
 1830TIP3    H227126   4.260   3.336   1.268 -0.5098  0.0701  0.3794
 1831TIP3   OH227127   1.228   2.691   7.575  0.9158 -0.0396  0.2000
 1831TIP3    H127128   1.274   2.643   7.506 -1.7136 -3.9121  0.7845
 1831TIP3    H227129   1.151   2.728   7.531  1.5885  1.5249  0.2753
 1832TIP3   OH227130   5.375   5.815   0.037  0.0016  0.3366  0.2200
 1832TIP3    H127131   5.297   5.815  -0.018  0.0829  0.3034  0.1044
 1832TIP3    H227132   5.355   5.878   0.106  0.2813  1.1154 -0.3976
 1833TIP3   OH227133   3.081   2.146   0.532 -0.7248 -0.3934 -0.2052
 1833TIP3    H127134   3.150   2.101   0.581 -0.7344  1.0848  1.2767
 1833TIP3    H227135   3.046   2.080   0.472  0.1260 -1.9489  0.9502
 1834TIP3   OH227136   5.801   1.091   0.340  0.4268  0.0757  0.1376
 1834TIP3    H127137   5.827   1.172   0.383  1.4378  1.0279 -2.1204
 1834TIP3    H227138   5.705   1.094   0.341  0.4494  1.1893  0.2579
 1835TIP3   OH227139   4.053   5.224   1.433 -0.2005  0.1273 -0.1693
 1835TIP3    H127140   4.011   5.198   1.351  1.6728  2.1346 -1.8921
 1835TIP3    H227141   3.999   5.297   1.465  0.4359  1.0026 -1.0149
 1836TIP3   OH227142   3.052   3.890   6.723  0.5674  0.1361  1.0493
 1836TIP3    H127143   2.977   3.835   6.702  0.5692  0.5462 -0.0982
 1836TIP3    H227144   3.127   3.831   6.718  0.6716  0.3604 -1.0371
 1837TIP3   OH227145   5.464   3.897   0.474  0.2834 -0.0531  0.1027
 1837TIP3    H127146   5.500   3.975   0.516 -0.2566  0.2932 -0.0758
 1837TIP3    H227147   5.455   3.834   0.546 -1.8960  0.9787  0.8090
 1838TIP3   OH227148   2.582   0.878   7.192 -0.0150  0.6046 -0.2615
 1838TIP3    H127149   2.655   0.934   7.217 -0.5643  1.5224 -0.6687
 1838TIP3    H227150   2.523   0.935   7.142 -0.9375 -0.1467 -0.0723
 1839TIP3   OH227151   2.634   4.755   1.705 -0.5768 -0.7977  0.1098
 1839TIP3    H127152   2.559   4.778   1.760  1.0532  0.6328  1.9325
 1839TIP3    H227153   2.688   4.835   1.705  0.0506 -1.1170 -2.7405
 1840TIP3   OH227154   0.442   0.772   1.472 -0.6379  0.1712  0.2415
 1840TIP3    H127155   0.533   0.796   1.488 -1.7999  5.1638  0.9531
 1840TIP3    H227156   0.403   0.766   1.559 -1.1737 -1.4785 -0.0727
 1841TIP3   OH227157   5.456   2.086   8.093  0.0015  0.1987 -0.1151
 1841TIP3    H127158   5.499   2.025   8.034 -0.4370 -1.6360  1.3921
 1841TIP3    H227159   5.365   2.088   8.064 -0.3513 -1.1786  0.8182
 1842TIP3   OH227160   5.898   6.267   0.252 -0.0267  0.3773 -0.0736
 1842TIP3    H127161   5.890   6.251   0.346 -1.2142  0.9410 -0.0538
 1842TIP3    H227162   5.908   6.362   0.246 -1.7719  0.5554 -0.5869
 1843TIP3   OH227163   3.351   3.873   8.307  0.2626 -0.1589  0.0774
 1843TIP3    H127164   3.297   3.796   8.323  1.5468 -1.4050 -1.3079
 1843TIP3    H227165   3.392   3.891   8.392 -0.5642 -0.5505  0.5802
 1844TIP3   OH227166   1.553   0.985   0.537  0.0042 -0.7503  0.2417
 1844TIP3    H127167   1.562   0.944   0.623  1.5063  0.8385  0.9066
 1844TIP3    H227168   1.491   1.057   0.552 -3.1319 -2.9615 -1.0570
 1845TIP3   OH227169   0.991   1.309   7.973  0.2049 -0.3029  0.4097
 1845TIP3    H127170   1.021   1.399   7.966 -1.1036  0.0899 -0.4859
 1845TIP3    H227171   1.066   1.256   7.946  0.9174  0.5127  0.7566
 1846TIP3   OH227172   6.232   5.127   0.387 -0.9636 -0.2368 -0.7648
 1846TIP3    H127173   6.198   5.131   0.476  1.1327  2.2907  0.0449
 1846TIP3    H227174   6.293   5.053   0.387 -1.5230 -0.6950 -0.3076
 1847TIP3   OH227175   5.761   5.426   6.907  0.2016  0.0022 -0.3507
 1847TIP3    H127176   5.793   5.511   6.938  1.3064 -0.8654  1.0082
 1847TIP3    H227177   5.799   5.417   6.820  1.9638 -0.0552  0.3820
 1848TIP3   OH227178   0.893   6.724   7.128  0.3471  0.1000 -0.7212
 1848TIP3    H127179   0.840   6.645   7.131  1.3697 -0.5941  1.2460
 1848TIP3    H227180   0.885   6.756   7.038 -0.1475 -2.1945 -1.5515
 1849TIP3   OH227181   5.742   1.520   0.252 -0.5469 -0.2805  0.3251
 1849TIP3    H127182   5.738   1.444   0.309  0.5208  0.2500  1.1239
 1849TIP3    H227183   5.804   1.579   0.294 -0.1969  0.3853 -1.0655
 1850TIP3   OH227184   0.587   1.953   7.453  0.2540 -0.0293  0.0875
 1850TIP3    H127185   0.642   2.010   7.508  1.1490 -1.0087  0.2477
 1850TIP3    H227186   0.554   2.011   7.384  0.8837  0.7516  0.4171
 1851TIP3   OH227187   0.181   1.538   0.195 -0.4877 -0.0328 -0.8807
 1851TIP3    H127188   0.251   1.597   0.223 -1.7183 -0.2046  3.2497
 1851TIP3    H227189   0.217   1.450   0.207 -1.0265 -0.1093  0.3531
 1852TIP3   OH227190   2.163   4.281   7.170  0.8394  0.6405 -0.7675
 1852TIP3    H127191   2.108   4.226   7.226 -0.2569  2.3329 -0.1262
 1852TIP3    H227192   2.134   4.261   7.081 -0.1956  0.8369 -0.4856
 1853TIP3   OH227193   0.816   0.958   3.034  0.2355  0.8475  1.3640
 1853TIP3    H127194   0.900   0.978   3.075  1.4524  0.0359 -0.5940
 1853TIP3    H227195   0.803   0.864   3.050  1.6316  0.0666 -1.4642
 1854TIP3   OH227196   0.623   2.850   0.690 -0.3269  0.1201  0.1702
 1854TIP3    H127197   0.553   2.799   0.649  0.2178  0.1080 -0.7950
 1854TIP3    H227198   0.621   2.826   0.782 -0.7855 -0.8135 -0.0746
 1855TIP3   OH227199   2.161   3.392   0.662 -0.2245  0.3719 -0.1907
 1855TIP3    H127200   2.184   3.457   0.728 -0.4084 -1.5087  1.8728
 1855TIP3    H227201   2.069   3.407   0.643 -0.5660  0.0613  1.1239
 1856TIP3   OH227202   4.943   5.087   1.609 -0.1370  0.1890  0.2977
 1856TIP3    H127203   4.876   5.143   1.571  0.1480 -0.3386 -1.0484
 1856TIP3    H227204   5.016   5.146   1.628 -0.0810  0.3839 -0.5039
 1857TIP3   OH227205   5.717   3.755   0.703 -0.4331 -0.0630  0.2147
 1857TIP3    H127206   5.650   3.740   0.636  0.6844  0.4942 -1.0814
 1857TIP3    H227207   5.792   3.788   0.654  1.6734 -2.9183  1.2346
 1858TIP3   OH227208   5.109   0.478   0.481 -0.1568  0.5433  0.1041
 1858TIP3    H127209   5.052   0.537   0.433  0.5170 -0.2738 -1.8057
 1858TIP3    H227210   5.182   0.532   0.511 -0.8290  1.1563  0.6671
 1859TIP3   OH227211   2.084   5.393   8.178  0.3528  0.5206 -0.3610
 1859TIP3    H127212   2.000   5.434   8.199  0.7937  1.0924  0.2806
 1859TIP3    H227213   2.060   5.306   8.145 -0.5398  0.9937 -1.0088
 1860TIP3   OH227214   6.040   3.300   1.901 -0.3546 -0.0112  0.0943
 1860TIP3    H127215   6.126   3.340   1.910 -1.2506  1.8684  0.8659
 1860TIP3    H227216   6.034   3.239   1.975  0.6601 -0.8926 -0.5315
 1861TIP3   OH227217   4.716   2.871   6.671 -0.1983  0.0976  0.2994
 1861TIP3    H127218   4.802   2.911   6.660 -0.3318  0.1404 -0.6650
 1861TIP3    H227219   4.707   2.811   6.597 -1.3538  0.7565 -0.1243
 1862TIP3   OH227220   1.608   1.661   1.422 -0.1668 -0.4515 -0.3460
 1862TIP3    H127221   1.651   1.593   1.474  0.1240  0.7239  1.0348
 1862TIP3    H227222   1.628   1.638   1.331 -0.9699 -2.7638 -0.0038
 1863TIP3   OH227223   4.117   1.040   2.210  0.4320 -0.0213 -0.6922
 1863TIP3    H127224   4.211   1.059   2.207  0.1227  1.4996 -1.8846
 1863TIP3    H227225   4.076   1.124   2.227 -0.6696 -1.0109  2.2751
 1864TIP3   OH227226   2.058   4.388   2.585  0.3020 -0.2994  0.0688
 1864TIP3    H127227   2.138   4.392   2.533  1.3996 -0.9130  1.6379
 1864TIP3    H227228   2.056   4.472   2.631 -1.0200  0.5245 -1.3755
 1865TIP3   OH227229   3.803   0.013   1.691 -0.0361 -0.3918 -0.0914
 1865TIP3    H127230   3.718   0.042   1.724  0.3032 -1.6167  2.0536
 1865TIP3    H227231   3.803   0.039   1.599 -1.5372  2.2633  0.5292
 1866TIP3   OH227232   0.195   5.944   0.274  0.0386  0.0676  0.1175
 1866TIP3    H127233   0.193   5.935   0.370  0.6395 -3.3426 -0.0403
 1866TIP3    H227234   0.110   5.981   0.252  0.9333  3.6912  2.0366
 1867TIP3   OH227235   3.103   4.968   0.032  0.2558 -0.1683  0.5465
 1867TIP3    H127236   3.039   4.966  -0.039 -0.0359 -0.5505  0.8139
 1867TIP3    H227237   3.136   5.058   0.031  1.7660 -0.6950 -1.3624
 1868TIP3   OH227238   5.200   0.230   7.458 -0.2732  0.4528  0.2604
 1868TIP3    H127239   5.265   0.160   7.467  0.0367  0.8217  0.9680
 1868TIP3    H227240   5.118   0.184   7.439  0.2705  0.0051 -1.1725
 1869TIP3   OH227241   5.490   4.933   8.530 -0.0580 -0.0575 -0.0264
 1869TIP3    H127242   5.482   4.880   8.609  0.0963  1.3345  0.9596
 1869TIP3    H227243   5.410   4.985   8.528  1.0696  1.7902  0.6777
 1870TIP3   OH227244   4.623   4.435   1.433  0.0976  0.2493 -0.2914
 1870TIP3    H127245   4.706   4.401   1.466  1.1239  2.3476 -0.5372
 1870TIP3    H227246   4.623   4.412   1.340  0.3103  0.0888 -0.2531
 1871TIP3   OH227247   6.645   2.733   7.305  0.2620  0.3806  0.8578
 1871TIP3    H127248   6.587   2.791   7.255  0.0986 -0.6938 -0.2732
 1871TIP3    H227249   6.731   2.745   7.264  0.0391 -0.8344 -0.0342
 1872TIP3   OH227250   4.284   4.650   7.689 -0.8182 -0.2797  0.2075
 1872TIP3    H127251   4.287   4.591   7.615 -0.5678 -0.0032 -0.0053
 1872TIP3    H227252   4.272   4.737   7.651 -2.0991 -0.2833  0.5606
 1873TIP3   OH227253   6.904   4.534   8.161 -0.2531 -0.2926 -0.1365
 1873TIP3    H127254   6.950   4.532   8.245 -0.3842  1.5544  0.0284
 1873TIP3    H227255   6.853   4.615   8.164  1.2313  0.8568 -2.7552
 1874TIP3   OH227256   6.046   4.529   1.898  0.5856 -0.1644  0.1608
 1874TIP3    H127257   5.996   4.466   1.948  3.1976 -1.3255  1.5203
 1874TIP3    H227258   6.001   4.613   1.911 -0.1949 -0.8802  2.4685
 1875TIP3   OH227259   1.705   3.498   1.364  0.6546 -0.0204  0.1494
 1875TIP3    H127260   1.712   3.448   1.283 -0.0413  0.9357 -0.5245
 1875TIP3    H227261   1.610   3.505   1.379  0.5480  3.1745 -1.1623
 1876TIP3   OH227262   3.641   5.298   0.423  0.5557 -0.1554  0.7197
 1876TIP3    H127263   3.581   5.224   0.432  0.5340 -0.0413  1.5820
 1876TIP3    H227264   3.704   5.287   0.494  1.6098 -0.3080 -0.2040
 1877TIP3   OH227265   5.738   3.863   2.341 -0.2892 -0.2569 -0.0158
 1877TIP3    H127266   5.658   3.811   2.348  0.3959 -1.9426 -2.9443
 1877TIP3    H227267   5.809   3.799   2.335  0.7693  0.9896 -2.1771
 1878TIP3   OH227268   3.564   6.377   8.529 -0.5955 -0.4169 -0.1632
 1878TIP3    H127269   3.600   6.432   8.599 -2.9379 -0.0272  0.8522
 1878TIP3    H227270   3.530   6.300   8.574 -2.8141  0.1779 -0.6975
 1879TIP3   OH227271   2.834   2.221   1.173  0.1863 -0.4373  0.6058
 1879TIP3    H127272   2.904   2.231   1.237 -0.4749  0.9619  1.1419
 1879TIP3    H227273   2.767   2.169   1.217  0.5233 -1.0966  0.3647
 1880TIP3   OH227274   6.175   2.060   0.066  0.1139  0.0800 -0.0962
 1880TIP3    H127275   6.155   2.153   0.055  2.2558  0.8090  1.3348
 1880TIP3    H227276   6.122   2.033   0.141 -0.7465  0.0331 -0.7043
 1881TIP3   OH227277   6.742   1.625   2.402  0.2483  0.5213 -0.1274
 1881TIP3    H127278   6.809   1.561   2.427  0.4508  1.3415  1.6190
 1881TIP3    H227279   6.704   1.653   2.486 -1.4581  0.9551 -1.0042
 1882TIP3   OH227280   6.423   0.707   2.699 -0.3658  0.3836  0.0944
 1882TIP3    H127281   6.511   0.744   2.697 -0.9576  1.8108 -0.6190
 1882TIP3    H227282   6.437   0.613   2.709  1.2440  0.5474 -0.3906
 1883TIP3   OH227283   3.645   5.974   1.491  0.2060 -0.4522  0.5617
 1883TIP3    H127284   3.696   6.052   1.512  0.4071 -0.3147 -0.3812
 1883TIP3    H227285   3.590   6.001   1.417  1.2653 -1.5814 -0.6789
 1884TIP3   OH227286   0.729   5.125   1.492 -0.7877 -0.6355 -0.1742
 1884TIP3    H127287   0.768   5.074   1.564  1.1409  1.7177  0.6086
 1884TIP3    H227288   0.723   5.064   1.419  3.9489 -1.4893 -0.1487
 1885TIP3   OH227289   5.714   0.273   7.535  0.1774 -0.0233  0.2851
 1885TIP3    H127290   5.629   0.292   7.575  0.2387  0.0944  0.3608
 1885TIP3    H227291   5.749   0.359   7.513  0.0216 -0.0956 -0.2812
 1886TIP3   OH227292   6.809   2.706   8.192  0.4485 -0.2237  0.0950
 1886TIP3    H127293   6.756   2.763   8.136  0.4689 -0.8819 -0.6133
 1886TIP3    H227294   6.745   2.647   8.233  0.3168  0.9161  1.5908
 1887TIP3   OH227295   0.974   1.942   2.200  0.2061  0.0098 -0.6287
 1887TIP3    H127296   1.003   2.032   2.216  1.5578 -0.6444  0.8788
 1887TIP3    H227297   1.042   1.888   2.239 -0.4666 -1.6902 -1.7243
 1888TIP3   OH227298   1.727   0.430   1.501  0.0871  0.1486  0.4090
 1888TIP3    H127299   1.764   0.349   1.536  0.4741  0.2344  0.2028
 1888TIP3    H227300   1.803   0.485   1.481 -0.1570  0.3696  0.0812
 1889TIP3   OH227301   5.217   3.021   1.224 -0.2119 -0.5435 -0.2263
 1889TIP3    H127302   5.302   2.979   1.239 -0.0389 -0.4056 -0.7970
 1889TIP3    H227303   5.217   3.096   1.283 -0.0129 -0.6545 -0.0838
 1890TIP3   OH227304   1.208   5.182   0.576 -0.1911  0.0832  0.4833
 1890TIP3    H127305   1.172   5.254   0.525  2.3592 -1.3620 -3.8411
 1890TIP3    H227306   1.301   5.204   0.585  0.1905 -1.6419  1.1069
 1891TIP3   OH227307   2.638   0.390   1.037 -0.3651  0.2227 -0.7033
 1891TIP3    H127308   2.649   0.314   1.094  0.7292 -0.4365 -1.7337
 1891TIP3    H227309   2.721   0.438   1.046 -0.7735  0.9103 -0.6006
 1892TIP3   OH227310   4.502   6.377   8.013  0.0205 -0.5651  0.3759
 1892TIP3    H127311   4.407   6.369   8.006 -0.0016 -2.5490  2.1770
 1892TIP3    H227312   4.534   6.354   7.926 -1.1268  1.3888 -0.6531
 1893TIP3   OH227313   4.684   5.103   1.913  0.2165  0.2466 -0.1658
 1893TIP3    H127314   4.755   5.161   1.940  1.7824 -2.2830  1.7357
 1893TIP3    H227315   4.629   5.096   1.991 -0.2195 -0.3589 -0.5186
 1894TIP3   OH227316   0.052   4.386   1.313  0.3441 -0.0207 -0.5161
 1894TIP3    H127317   0.037   4.352   1.225 -0.1843  1.4810 -1.0415
 1894TIP3    H227318  -0.035   4.396   1.351  0.5587 -0.4486  0.0989
 1895TIP3   OH227319   0.492   1.320   0.040  0.2760  0.2221 -0.1906
 1895TIP3    H127320   0.544   1.271  -0.022 -0.3144 -0.4664 -0.1546
 1895TIP3    H227321   0.554   1.378   0.084  0.8188  0.1771 -0.8854
 1896TIP3   OH227322   0.974   0.592   0.387  0.9564 -0.4073 -0.1377
 1896TIP3    H127323   1.020   0.663   0.432  0.6760 -0.7198  0.6726
 1896TIP3    H227324   0.963   0.525   0.455  0.6827 -0.9716 -0.7323
 1897TIP3   OH227325   0.713   6.772   8.412 -0.0002  0.4400 -0.1483
 1897TIP3    H127326   0.798   6.814   8.399 -0.4812  1.4307 -0.1553
 1897TIP3    H227327   0.729   6.680   8.388  0.7575  0.8589 -1.3935
 1898TIP3   OH227328   0.604   2.490   8.501  0.1574 -0.9406 -0.1718
 1898TIP3    H127329   0.623   2.468   8.592  0.1937 -1.4619 -0.3011
 1898TIP3    H227330   0.508   2.488   8.495 -0.0066  1.6361  0.4685
 1899TIP3   OH227331   0.533   2.194   2.482 -0.2139 -0.0019 -0.1603
 1899TIP3    H127332   0.602   2.187   2.416  0.2633  0.6431  0.2601
 1899TIP3    H227333   0.534   2.109   2.527 -0.3922 -0.3618 -0.8341
 1900TIP3   OH227334   3.148   1.270   2.140 -1.2387  0.1812 -0.4216
 1900TIP3    H127335   3.199   1.314   2.072  1.3607 -1.6401  0.2007
 1900TIP3    H227336   3.174   1.314   2.221 -0.5786 -0.7860 -0.0958
 1901TIP3   OH227337   5.124   4.387   0.311  0.2572  0.3303 -0.4124
 1901TIP3    H127338   5.122   4.458   0.247 -0.2619 -0.0428 -0.8188
 1901TIP3    H227339   5.161   4.427   0.390 -0.8341  1.3025 -0.3595
 1902TIP3   OH227340   5.271   6.288   1.476 -0.1136 -0.3658 -0.0681
 1902TIP3    H127341   5.363   6.263   1.475  0.3748  1.2608 -2.1553
 1902TIP3    H227342   5.266   6.358   1.541 -0.3052 -1.6948  1.4105
 1903TIP3   OH227343   5.751   4.395   0.635  0.1823  0.2078 -0.4346
 1903TIP3    H127344   5.690   4.468   0.631  1.7308  1.6900  1.2057
 1903TIP3    H227345   5.827   4.430   0.680  2.6401 -1.3318 -3.0882
 1904TIP3   OH227346   3.406   4.319   0.142  0.2943 -0.1038 -0.4065
 1904TIP3    H127347   3.463   4.247   0.170  0.7893 -0.1257 -1.4372
 1904TIP3    H227348   3.437   4.341   0.054  1.0704  2.3075  0.4008
 1905TIP3   OH227349   0.458   1.675   0.338 -0.1958  0.4550 -0.3060
 1905TIP3    H127350   0.519   1.703   0.271  0.5252  1.4483  0.7279
 1905TIP3    H227351   0.509   1.674   0.419 -0.9275 -1.1024  0.1981
 1906TIP3   OH227352   5.202   3.550   0.791 -0.1512  0.0251  0.3747
 1906TIP3    H127353   5.192   3.520   0.881 -0.0213 -0.5427  0.2025
 1906TIP3    H227354   5.261   3.487   0.751 -0.2754  0.2281 -0.1342
 1907TIP3   OH227355   2.091   5.590   7.279  0.2368 -0.0595 -0.3680
 1907TIP3    H127356   2.019   5.600   7.342 -0.0231 -2.6766 -0.1312
 1907TIP3    H227357   2.169   5.583   7.334  0.2654 -0.2963 -0.4374
 1908TIP3   OH227358   3.661   1.454   0.065 -0.4475  0.5118 -0.1044
 1908TIP3    H127359   3.574   1.428   0.035 -1.0019  0.1814  1.6482
 1908TIP3    H227360   3.700   1.374   0.100  0.3425  0.7824 -0.3402
 1909TIP3   OH227361   2.138   3.249   2.289  0.4500 -0.2133  0.5344
 1909TIP3    H127362   2.047   3.234   2.316 -0.1379  1.1025 -0.5699
 1909TIP3    H227363   2.179   3.287   2.367  0.3074 -1.5527  1.3055
 1910TIP3   OH227364   4.108   6.322   1.721 -0.3715  0.2114  0.4825
 1910TIP3    H127365   4.203   6.326   1.705 -0.2493  1.5153  1.3043
 1910TIP3    H227366   4.073   6.270   1.649  0.3625  3.7433 -2.8006
 1911TIP3   OH227367   2.214   3.049   0.342  0.0854  0.9043 -0.3390
 1911TIP3    H127368   2.261   2.965   0.344  0.1716  0.9511 -0.4213
 1911TIP3    H227369   2.141   3.037   0.404  0.3929  0.9393  0.0359
 1912TIP3   OH227370   0.141   2.438   1.728 -0.5455 -0.0071  0.0186
 1912TIP3    H127371   0.170   2.390   1.650  0.6953 -0.9734  1.0389
 1912TIP3    H227372   0.049   2.460   1.710 -0.5012 -0.8606 -1.3859
 1913TIP3   OH227373   1.701   5.212   1.324 -0.1461 -0.4563  0.3029
 1913TIP3    H127374   1.668   5.212   1.414  1.3765 -0.8666  0.8983
 1913TIP3    H227375   1.745   5.296   1.315  0.2858 -0.6888  0.1917
 1914TIP3   OH227376   5.186   4.179   7.264  0.8379 -0.3637 -0.5706
 1914TIP3    H127377   5.227   4.264   7.250  1.5041 -0.5184  0.3939
 1914TIP3    H227378   5.102   4.185   7.217  1.2609  0.5021 -1.2405
 1915TIP3   OH227379   4.946   3.096   8.040  0.6170 -0.3196  0.2660
 1915TIP3    H127380   4.936   3.101   7.945  0.3304  0.3386  0.3242
 1915TIP3    H227381   4.858   3.076   8.072 -0.6118  4.5420  0.7146
 1916TIP3   OH227382   2.119   4.999   6.608  0.2103 -0.1912 -0.0764
 1916TIP3    H127383   2.183   5.063   6.575 -0.0674  0.6005  0.8965
 1916TIP3    H227384   2.034   5.042   6.597 -0.2222 -1.3132 -1.5413
 1917TIP3   OH227385   1.521   2.194   1.220  0.4899 -0.0666  0.5887
 1917TIP3    H127386   1.569   2.250   1.159 -0.0047 -0.3046 -0.0357
 1917TIP3    H227387   1.445   2.245   1.247 -0.5941 -0.8216 -0.8857
 1918TIP3   OH227388   6.097   5.169   7.140 -0.3622 -0.0364  0.1851
 1918TIP3    H127389   6.125   5.152   7.049  1.3572  1.5146  0.3589
 1918TIP3    H227390   6.172   5.142   7.193 -0.9554  0.0304  1.0795
 1919TIP3   OH227391   5.665   1.445   2.793  0.6633  0.2637  0.2623
 1919TIP3    H127392   5.595   1.511   2.787  0.8841  0.5510  0.7466
 1919TIP3    H227393   5.620   1.365   2.820  0.3631  0.1586 -0.5227
 1920TIP3   OH227394   3.549   0.632   7.111 -0.5998  0.4644  0.3661
 1920TIP3    H127395   3.515   0.546   7.136  0.2546 -0.0661 -0.2278
 1920TIP3    H227396   3.521   0.690   7.181  0.5748 -0.7084  1.8828
 1921TIP3   OH227397   5.048   6.242   1.619  0.1975  0.5020 -0.3854
 1921TIP3    H127398   5.121   6.235   1.557  0.2605 -0.1656 -0.2504
 1921TIP3    H227399   5.065   6.172   1.683 -1.2356 -0.5223 -1.0686
 1922TIP3   OH227400   3.871   2.543   7.990 -0.4158 -0.2700 -0.2807
 1922TIP3    H127401   3.784   2.560   7.953 -0.1838 -1.2411 -1.3299
 1922TIP3    H227402   3.855   2.484   8.064 -0.8893  1.7428  1.3428
 1923TIP3   OH227403   2.830   5.032   6.687  0.4326 -0.6163 -0.0515
 1923TIP3    H127404   2.874   5.050   6.770  2.2661  0.8380 -1.2616
 1923TIP3    H227405   2.802   5.118   6.656  1.0983 -0.9361 -1.6216
 1924TIP3   OH227406   4.584   2.020   2.314  0.3289  0.2054  0.0930
 1924TIP3    H127407   4.623   1.974   2.240  0.8017  0.4334  0.2009
 1924TIP3    H227408   4.548   2.100   2.275 -0.5995 -0.2881 -0.1164
 1925TIP3   OH227409   4.870   2.268   0.979  0.5249  0.3769 -0.4752
 1925TIP3    H127410   4.910   2.263   0.892  2.3718  0.6411  0.3094
 1925TIP3    H227411   4.804   2.199   0.979  2.3679 -1.4954 -1.2039
 1926TIP3   OH227412   6.790   1.655   8.413  0.2157  0.1836 -0.2135
 1926TIP3    H127413   6.881   1.631   8.430  0.4306  0.4381 -0.9855
 1926TIP3    H227414   6.787   1.673   8.319 -0.2379  1.8682  0.0928
 1927TIP3   OH227415   6.752   0.864   7.753 -0.1845  0.0891  0.6539
 1927TIP3    H127416   6.730   0.939   7.697 -0.0629  0.8544  1.6027
 1927TIP3    H227417   6.818   0.816   7.703 -0.8614  0.1357 -0.3339
 1928TIP3   OH227418   2.281   5.220   1.777 -0.1719  0.0156 -0.3386
 1928TIP3    H127419   2.330   5.282   1.832 -0.2086 -0.2973  0.0459
 1928TIP3    H227420   2.312   5.134   1.803  0.5454 -0.1100 -1.5121
 1929TIP3   OH227421   5.057   2.812   2.027  0.1170  0.1020  0.0501
 1929TIP3    H127422   5.070   2.795   2.121  1.0877 -0.0455 -0.0941
 1929TIP3    H227423   5.017   2.899   2.023 -3.1542 -1.2177  0.7328
 1930TIP3   OH227424   3.088   4.089   7.088  0.1573  0.0998 -0.3331
 1930TIP3    H127425   3.018   4.105   7.152  0.6917  1.8295 -0.1169
 1930TIP3    H227426   3.045   4.094   7.003 -0.0093  1.2369 -0.2055
 1931TIP3   OH227427   2.432   0.734   7.832 -0.0752  0.7297  0.8773
 1931TIP3    H127428   2.366   0.716   7.899 -0.7292  0.3666  0.1370
 1931TIP3    H227429   2.442   0.652   7.785 -1.0568  1.4810 -0.7388
 1932TIP3   OH227430   0.697   0.612   1.363  1.1432 -0.1328  0.2749
 1932TIP3    H127431   0.720   0.699   1.397  1.3731 -0.2451  0.4114
 1932TIP3    H227432   0.676   0.627   1.271 -0.7930  0.4038  0.7594
 1933TIP3   OH227433   6.324   5.708   7.411  0.2646  0.3667  0.5210
 1933TIP3    H127434   6.399   5.701   7.469 -0.2333  0.7984  1.2234
 1933TIP3    H227435   6.355   5.761   7.337  0.6483  0.5230  0.7940
 1934TIP3   OH227436   5.152   0.365   8.449 -0.1057  0.1611 -0.9450
 1934TIP3    H127437   5.065   0.405   8.436  0.0739  0.1978 -2.0692
 1934TIP3    H227438   5.136   0.294   8.511 -1.5741 -1.9217 -3.5197
 1935TIP3   OH227439   1.118   0.544   1.074  0.1819 -0.8189 -0.1675
 1935TIP3    H127440   1.080   0.461   1.105  1.0216 -1.7651 -1.5807
 1935TIP3    H227441   1.171   0.520   0.998  1.1214  0.9111 -0.1176
 1936TIP3   OH227442   6.482   4.292   0.352 -0.0105 -0.3628  0.6544
 1936TIP3    H127443   6.493   4.325   0.263 -0.4815  0.5439  0.9256
 1936TIP3    H227444   6.568   4.255   0.375  0.0271 -0.8725 -0.2697
 1937TIP3   OH227445   5.264   2.602   0.064  0.3075 -0.8732 -0.1697
 1937TIP3    H127446   5.174   2.573   0.081  0.1488  0.4369  1.5575
 1937TIP3    H227447   5.257   2.657  -0.014 -0.6076  0.0327  0.5170
 1938TIP3   OH227448   4.428   3.820   7.137  0.1234  0.0476 -0.1224
 1938TIP3    H127449   4.408   3.848   7.226  0.6935 -0.9251  0.3350
 1938TIP3    H227450   4.344   3.787   7.103 -0.3754  1.5635 -0.4063
 1939TIP3   OH227451   3.127   6.240   0.783  0.1886 -0.2824 -0.4985
 1939TIP3    H127452   3.143   6.334   0.795  1.5918 -0.5485 -0.1453
 1939TIP3    H227453   3.114   6.230   0.689 -0.8851  0.3825 -0.4403
 1940TIP3   OH227454   1.892   3.215   2.736 -0.4472  0.2079 -0.2297
 1940TIP3    H127455   1.903   3.128   2.697  0.0174 -0.1507  0.6700
 1940TIP3    H227456   1.828   3.203   2.805  0.4099  0.3337  0.6133
 1941TIP3   OH227457   6.304   1.819   7.163 -0.4350  0.3176  0.3452
 1941TIP3    H127458   6.248   1.752   7.125  0.2645  0.2259 -0.5464
 1941TIP3    H227459   6.361   1.772   7.225 -0.2892  0.1651  0.0956
 1942TIP3   OH227460   5.492   6.436   8.229  0.0659  0.1113 -0.4116
 1942TIP3    H127461   5.514   6.362   8.285 -1.8122  0.3257  0.7097
 1942TIP3    H227462   5.399   6.452   8.246  0.6280  3.4536  0.3469
 1943TIP3   OH227463   6.831   3.644   0.902 -0.4576  0.1268  0.0065
 1943TIP3    H127464   6.913   3.630   0.854 -0.6212 -2.1195  0.2712
 1943TIP3    H227465   6.857   3.696   0.979  0.9051 -1.2045  0.5023
 1944TIP3   OH227466   4.139   5.458   6.305 -0.2378  0.6502 -0.7837
 1944TIP3    H127467   4.055   5.497   6.282  0.3291  0.8750 -2.5961
 1944TIP3    H227468   4.125   5.420   6.392 -2.1025  0.9653 -0.9148
 1945TIP3   OH227469   2.552   3.615   8.330 -0.2028 -0.3435  0.0368
 1945TIP3    H127470   2.554   3.689   8.269  0.6990  0.8421  1.4617
 1945TIP3    H227471   2.642   3.582   8.331 -0.6149 -1.5840 -0.6725
 1946TIP3   OH227472   4.095   3.485   8.240  0.1206  0.3265 -0.1619
 1946TIP3    H127473   4.031   3.536   8.191 -1.1222  1.3385  2.3426
 1946TIP3    H227474   4.178   3.532   8.227 -0.8329  2.5840  1.3519
 1947TIP3   OH227475   4.172   1.589   7.385 -0.1302 -0.1954  0.0884
 1947TIP3    H127476   4.260   1.589   7.348 -1.0285 -1.0273 -2.2428
 1947TIP3    H227477   4.149   1.496   7.393 -0.7756  0.0072  0.7884
 1948TIP3   OH227478   2.495   0.621   7.165  0.5501 -0.6082 -0.3812
 1948TIP3    H127479   2.581   0.590   7.193  1.2695  1.3934 -0.2247
 1948TIP3    H227480   2.506   0.716   7.153 -1.3736 -0.4537 -1.3392
 1949TIP3   OH227481   5.073   3.393   0.599  0.1208  0.1797 -0.2328
 1949TIP3    H127482   4.983   3.425   0.600 -0.3059 -0.8516 -1.8639
 1949TIP3    H227483   5.124   3.463   0.640 -1.3891  0.8435  0.5878
 1950TIP3   OH227484   6.630   5.328   6.610  0.2015 -0.4113  0.3416
 1950TIP3    H127485   6.653   5.294   6.523  0.6228 -0.7517  0.5867
 1950TIP3    H227486   6.546   5.374   6.596  1.5975  1.9915 -0.8357
 1951TIP3   OH227487   5.243   6.771   0.045  0.2203 -0.5439 -0.3334
 1951TIP3    H127488   5.179   6.715   0.001  0.6619 -0.8095 -0.6449
 1951TIP3    H227489   5.308   6.711   0.080  0.2438 -0.2818  0.0830
 1952TIP3   OH227490   6.796   1.721   7.522  0.1304  0.3676 -0.1991
 1952TIP3    H127491   6.846   1.695   7.600 -1.1328  1.0786  0.8845
 1952TIP3    H227492   6.772   1.638   7.481 -0.6254 -0.1020  1.1202
 1953TIP3   OH227493   2.816   6.926   1.843 -0.1324  0.0707 -0.2189
 1953TIP3    H127494   2.748   6.987   1.871  0.0189 -0.3100  1.0433
 1953TIP3    H227495   2.897   6.962   1.880  0.3130  0.2784 -1.3285
 1954TIP3   OH227496   2.486   6.181   0.364  0.4287 -0.2529  0.1908
 1954TIP3    H127497   2.562   6.213   0.412  0.8482 -0.8533 -0.0514
 1954TIP3    H227498   2.467   6.096   0.404  2.1586 -1.8366 -2.0721
 1955TIP3   OH227499   2.945   3.986   2.089 -0.1779 -0.6923  0.3232
 1955TIP3    H127500   3.033   4.009   2.057  0.0435 -3.1352 -1.0579
 1955TIP3    H227501   2.894   4.066   2.076  0.9375 -0.3035 -2.4278
 1956TIP3   OH227502   3.751   2.057   2.653 -0.5160 -0.1580  0.0107
 1956TIP3    H127503   3.768   1.965   2.672  2.2955  0.3976  0.5350
 1956TIP3    H227504   3.679   2.055   2.589 -0.8659 -2.6662  0.3836
 1957TIP3   OH227505   5.086   6.740   6.667  0.3628 -0.3660  0.3050
 1957TIP3    H127506   5.002   6.732   6.621  0.6020  1.5080 -0.5531
 1957TIP3    H227507   5.062   6.767   6.755  0.0401 -0.1110  0.1419
 1958TIP3   OH227508   5.139   2.987   7.613  0.2087 -0.4377 -0.0450
 1958TIP3    H127509   5.146   3.074   7.654 -0.6318 -0.4325  0.1055
 1958TIP3    H227510   5.230   2.961   7.598  0.4923  0.2219  0.4353
 1959TIP3   OH227511   3.047   4.924   0.889 -0.5798 -0.2573 -0.3268
 1959TIP3    H127512   3.035   5.016   0.911  0.1267 -0.4204  0.8573
 1959TIP3    H227513   2.966   4.898   0.847 -0.6000  1.0300 -1.1417
 1960TIP3   OH227514   0.068   0.648   6.635 -0.4250 -0.7576 -0.2241
 1960TIP3    H127515   0.014   0.642   6.557  0.3559 -2.2752 -0.6828
 1960TIP3    H227516   0.108   0.735   6.630  1.7524 -1.7508 -3.0407
 1961TIP3   OH227517   1.227   0.689   7.799 -0.0643  0.0936  0.2490
 1961TIP3    H127518   1.318   0.685   7.828 -0.6129 -0.4244  2.0788
 1961TIP3    H227519   1.230   0.724   7.710  1.8925  0.2498  0.3544
 1962TIP3   OH227520   1.212   0.999   8.255 -0.0246  0.1266  0.6692
 1962TIP3    H127521   1.291   1.039   8.218 -0.5618 -0.2301 -0.9250
 1962TIP3    H227522   1.219   1.017   8.349  1.1210  1.5388  0.3607
 1963TIP3   OH227523   4.774   5.511   7.088 -0.2990  0.2309  0.1446
 1963TIP3    H127524   4.696   5.562   7.111 -0.1383  1.2274 -1.3690
 1963TIP3    H227525   4.833   5.575   7.048  0.8482 -0.7304  0.2447
 1964TIP3   OH227526   2.169   2.997   1.927 -0.5675 -0.4490 -0.0394
 1964TIP3    H127527   2.218   2.991   1.845 -1.5417  0.2116 -0.7015
 1964TIP3    H227528   2.198   3.079   1.967 -0.6178 -0.4056 -0.0910
 1965TIP3   OH227529   1.382   5.613   8.280 -0.2088  0.0915  0.0953
 1965TIP3    H127530   1.425   5.588   8.198 -1.1310 -0.0191 -0.3634
 1965TIP3    H227531   1.407   5.545   8.342  1.1420  0.5959  0.1294
 1966TIP3   OH227532   0.324   2.607   7.709  0.2587 -0.2922  0.6965
 1966TIP3    H127533   0.345   2.530   7.656  1.0145  0.7002 -0.5111
 1966TIP3    H227534   0.239   2.637   7.676  0.4182 -0.0579  0.4941
 1967TIP3   OH227535   2.823   6.214   8.414  0.1436  0.3976 -0.4339
 1967TIP3    H127536   2.790   6.298   8.446 -2.8199 -0.5570 -0.6570
 1967TIP3    H227537   2.806   6.216   8.320 -3.0237 -1.5257 -0.0671
 1968TIP3   OH227538   3.207   4.414   8.417  0.2750  0.1831  0.6260
 1968TIP3    H127539   3.127   4.417   8.470  0.2533  0.8772  0.5698
 1968TIP3    H227540   3.188   4.471   8.342  0.2268 -0.9670 -0.2594
 1969TIP3   OH227541   2.801   5.016   8.073 -0.2985 -0.7226 -0.0964
 1969TIP3    H127542   2.796   5.074   8.149  0.3926 -1.6931  0.7250
 1969TIP3    H227543   2.757   5.064   8.003  0.3623  0.8468  0.5122
 1970TIP3   OH227544   5.083   5.467   7.860 -0.1529 -0.5395 -0.1740
 1970TIP3    H127545   5.010   5.428   7.811 -0.2306  0.9945 -1.3318
 1970TIP3    H227546   5.152   5.401   7.855 -1.2254 -1.7705  0.4480
 1971TIP3   OH227547   2.402   3.295   1.604  0.2805 -0.5507  0.2964
 1971TIP3    H127548   2.381   3.381   1.641  0.4307 -1.1387  1.8300
 1971TIP3    H227549   2.364   3.296   1.517 -0.1820  0.8774  0.4937
 1972TIP3   OH227550   5.526   4.795   0.835 -0.2546 -0.1123  0.2909
 1972TIP3    H127551   5.554   4.843   0.913 -1.8323 -0.8435  1.3564
 1972TIP3    H227552   5.489   4.862   0.777  1.5820  0.5381 -0.1937
 1973TIP3   OH227553   2.435   4.148   6.806  0.0756 -0.0666  0.0821
 1973TIP3    H127554   2.403   4.230   6.843 -2.4013  0.2477 -2.4750
 1973TIP3    H227555   2.371   4.082   6.835  1.4921 -0.9869  1.2870
 1974TIP3   OH227556   6.402   0.960   2.320 -0.4306 -0.5184 -0.1830
 1974TIP3    H127557   6.470   0.971   2.253  1.5914  0.2529  1.8635
 1974TIP3    H227558   6.368   1.049   2.334  0.1342 -0.4313  0.7257
 1975TIP3   OH227559   6.348   5.109   6.675 -0.4026  0.0962 -0.0763
 1975TIP3    H127560   6.318   5.149   6.594 -0.0370  1.5072  0.4529
 1975TIP3    H227561   6.439   5.085   6.657 -0.3974  0.1804 -0.1690
 1976TIP3   OH227562   5.841   1.772   1.354 -0.3587  0.0276  0.8637
 1976TIP3    H127563   5.851   1.776   1.259 -1.2032 -0.6342  0.7263
 1976TIP3    H227564   5.905   1.706   1.382 -0.9171 -0.6386  0.6010
 1977TIP3   OH227565   5.791   3.438   8.151 -0.3587  0.0156  0.3116
 1977TIP3    H127566   5.821   3.529   8.154 -0.5497  0.0628  2.4674
 1977TIP3    H227567   5.867   3.387   8.180 -0.5571 -0.4304  0.0558
 1978TIP3   OH227568   1.794   2.742   6.742 -0.5424  1.1403 -0.1657
 1978TIP3    H127569   1.715   2.723   6.692  1.4306  0.6658 -3.4056
 1978TIP3    H227570   1.793   2.836   6.755 -0.7215  1.4239 -1.9809
 1979TIP3   OH227571   5.171   3.994   8.390  0.1329  0.1136  0.0525
 1979TIP3    H127572   5.209   3.932   8.453 -2.1568 -2.7093 -1.1274
 1979TIP3    H227573   5.229   3.989   8.314  0.3791  0.0713  0.2381
 1980TIP3   OH227574   2.906   2.225   1.998 -0.2594  1.0135  0.2702
 1980TIP3    H127575   2.866   2.243   1.914 -1.5663  1.2807  0.9308
 1980TIP3    H227576   2.833   2.207   2.057  0.6970 -1.0909  0.9271
 1981TIP3   OH227577   2.376   3.381   8.061  0.0289  0.4611  0.0770
 1981TIP3    H127578   2.397   3.474   8.070 -0.7973  0.6551  0.0677
 1981TIP3    H227579   2.281   3.376   8.070  0.1707 -0.5378  1.3171
 1982TIP3   OH227580   3.467   6.304   1.331 -0.6559 -0.1759  0.2307
 1982TIP3    H127581   3.480   6.348   1.415  0.2604 -0.2683  0.1503
 1982TIP3    H227582   3.398   6.354   1.288  0.3822  1.2361  0.1245
 1983TIP3   OH227583   3.880   2.343   8.168 -0.1434  0.0639 -0.0368
 1983TIP3    H127584   3.834   2.286   8.229  0.1580  0.2789  0.3943
 1983TIP3    H227585   3.925   2.282   8.108  0.0985 -0.1519  0.3596
 1984TIP3   OH227586   4.332   5.980   8.481  0.4179  0.3835 -0.1418
 1984TIP3    H127587   4.415   5.993   8.434  1.4829 -0.1590  1.5090
 1984TIP3    H227588   4.274   5.942   8.416  1.7297 -0.0325 -1.1252
 1985TIP3   OH227589   1.583   5.423   1.577 -0.3591 -0.0348  0.1926
 1985TIP3    H127590   1.677   5.415   1.592 -0.3612 -1.2463 -0.3795
 1985TIP3    H227591   1.547   5.339   1.605 -1.4263  0.7950  1.4369
 1986TIP3   OH227592   1.841   1.583   7.516 -0.6314 -0.0133 -0.3054
 1986TIP3    H127593   1.825   1.636   7.595  0.8709 -1.1184  0.8021
 1986TIP3    H227594   1.851   1.648   7.446  1.7670  1.3160  1.1074
 1987TIP3   OH227595   0.664   1.629   6.776  0.3342  0.0699 -0.7186
 1987TIP3    H127596   0.748   1.659   6.742  0.8440  2.9934  2.6016
 1987TIP3    H227597   0.685   1.550   6.826  0.9915  0.3733 -0.5099
 1988TIP3   OH227598   1.799   3.976   8.500 -0.0311 -0.4078  0.3909
 1988TIP3    H127599   1.837   3.982   8.412  1.3212  4.5777  1.0225
 1988TIP3    H227600   1.869   3.939   8.554 -0.2576 -1.8510 -0.2478
 1989TIP3   OH227601   0.359   4.915   7.548 -0.2172 -0.2663  0.4071
 1989TIP3    H127602   0.298   4.922   7.476 -1.4257 -1.3249  1.2834
 1989TIP3    H227603   0.330   4.981   7.611  0.7266  0.5376  0.0234
 1990TIP3   OH227604   6.229   5.552   0.075 -0.2097 -0.0544 -0.7104
 1990TIP3    H127605   6.202   5.475   0.124 -2.1718  1.1562  0.2759
 1990TIP3    H227606   6.213   5.530  -0.016  1.4414 -1.5791 -0.6758
 1991TIP3   OH227607   4.481   3.010   0.891 -0.2253 -0.8255  0.0457
 1991TIP3    H127608   4.456   2.940   0.830  1.0483 -0.8363 -0.5066
 1991TIP3    H227609   4.574   3.024   0.873 -0.0474 -0.2063  1.3882
 1992TIP3   OH227610   0.152   2.710   8.031 -0.2905 -0.0579  0.1852
 1992TIP3    H127611   0.102   2.753   7.962  0.1740  1.5480  0.8054
 1992TIP3    H227612   0.091   2.702   8.104 -0.6901 -1.4715 -0.2763
 1993TIP3   OH227613   2.770   4.475   2.495  0.0005 -0.2461  0.0104
 1993TIP3    H127614   2.816   4.398   2.462  0.8334  0.8127 -1.4191
 1993TIP3    H227615   2.821   4.550   2.463 -0.6587  0.9169  1.5255
 1994TIP3   OH227616   5.532   2.053   3.005 -0.3736  0.5283  0.3520
 1994TIP3    H127617   5.492   2.087   2.925 -2.1548 -0.0881  0.9434
 1994TIP3    H227618   5.522   1.958   2.999  2.9389  0.1077 -0.4392
 1995TIP3   OH227619   6.852   0.962   6.754  0.4253  0.2913  0.0257
 1995TIP3    H127620   6.764   0.985   6.724  0.9807  0.8046 -1.2290
 1995TIP3    H227621   6.869   1.021   6.827 -0.6524 -0.4951  0.9616
 1996TIP3   OH227622   5.147   6.656   7.760 -0.4214  0.2080  0.5687
 1996TIP3    H127623   5.109   6.582   7.809  1.5968 -1.9654 -0.9301
 1996TIP3    H227624   5.077   6.683   7.701 -0.5045 -2.1543 -0.5229
 1997TIP3   OH227625   5.180   3.760   7.649 -0.0645 -0.1180  0.3836
 1997TIP3    H127626   5.151   3.712   7.572  0.1150  2.5877 -1.4978
 1997TIP3    H227627   5.103   3.763   7.706 -1.4619  1.0665 -1.4518
 1998TIP3   OH227628   1.486   4.819   1.547 -0.0506 -0.3434  0.0009
 1998TIP3    H127629   1.570   4.789   1.581  0.3773 -0.6125 -1.2265
 1998TIP3    H227630   1.440   4.854   1.623  1.1383 -0.2588  0.7056
 1999TIP3   OH227631   4.647   5.131   0.595  0.2350 -0.2034 -0.9787
 1999TIP3    H127632   4.702   5.135   0.517  0.8634 -0.5406 -0.5706
 1999TIP3    H227633   4.688   5.192   0.657  0.0102 -0.2743 -0.7556
 2000TIP3   OH227634   3.914   1.901   1.044 -0.2879 -0.2733  0.3103
 2000TIP3    H127635   3.998   1.923   1.085 -0.5319  1.0695  0.1573
 2000TIP3    H227636   3.892   1.979   0.992 -1.7433 -0.5040  0.5414
 2001TIP3   OH227637   3.971   3.743   1.341 -0.1031  0.3368  0.3793
 2001TIP3    H127638   3.963   3.667   1.283 -2.2274  1.7723 -1.3656
 2001TIP3    H227639   3.889   3.744   1.391 -1.0328  2.5106 -1.0529
 2002TIP3   OH227640   3.007   1.183   6.835  0.1826 -0.2196  0.2294
 2002TIP3    H127641   2.978   1.093   6.852  1.1105 -0.3833  1.0713
 2002TIP3    H227642   2.926   1.235   6.836 -0.3978 -1.0802 -0.5812
 2003TIP3   OH227643   2.175   5.644   1.345 -0.4656 -0.0782 -0.6456
 2003TIP3    H127644   2.141   5.698   1.274 -1.1883 -0.8899 -0.9430
 2003TIP3    H227645   2.258   5.684   1.369 -0.2416  0.2504 -1.9096
 2004TIP3   OH227646   6.651   3.486   1.881  0.7759  0.5612 -0.3060
 2004TIP3    H127647   6.631   3.511   1.971  2.5715 -0.7916  0.5433
 2004TIP3    H227648   6.600   3.547   1.827 -0.9502  0.9137  1.5923
 2005TIP3   OH227649   5.582   3.811   8.059  0.3374 -0.3552 -0.2958
 2005TIP3    H127650   5.544   3.829   7.973  0.5551  2.1308  0.0471
 2005TIP3    H227651   5.578   3.895   8.105 -2.3819 -2.0765  3.2018
 2006TIP3   OH227652   5.154   2.679   8.308 -0.0403  0.2398  0.5180
 2006TIP3    H127653   5.241   2.650   8.334 -0.1080  1.1122  1.7984
 2006TIP3    H227654   5.157   2.683   8.212  0.5118 -2.1809  0.3814
 2007TIP3   OH227655   3.741   3.201   0.847 -0.1903 -0.5304 -0.1457
 2007TIP3    H127656   3.829   3.183   0.880  0.5929 -0.6404 -2.1306
 2007TIP3    H227657   3.735   3.150   0.766 -0.9060  1.8587 -1.6980
 2008TIP3   OH227658   0.259   2.077   8.431 -0.5459 -0.3389 -0.1766
 2008TIP3    H127659   0.269   1.985   8.409 -2.2149 -0.2557 -1.4214
 2008TIP3    H227660   0.300   2.124   8.358 -2.6958 -0.1056 -1.3118
 2009TIP3   OH227661   4.930   6.593   2.073  0.1351  0.5703  0.3233
 2009TIP3    H127662   4.921   6.685   2.048  0.3899  0.3805 -0.4768
 2009TIP3    H227663   4.873   6.546   2.012 -1.0183  0.3085  1.5572
 2010TIP3   OH227664   2.361   6.020   1.250  0.3205 -0.0268 -0.3211
 2010TIP3    H127665   2.423   6.018   1.176  0.5069  1.5825 -0.2335
 2010TIP3    H227666   2.276   6.003   1.210  0.3150  1.5807 -1.0569
 2011TIP3   OH227667   1.602   0.198   8.315  0.0981 -0.1797 -0.0024
 2011TIP3    H127668   1.691   0.228   8.298  0.5953 -0.3803  2.0797
 2011TIP3    H227669   1.551   0.279   8.327 -0.2755 -0.0268 -2.1850
 2012TIP3   OH227670   3.454   4.065   1.153 -0.8164 -0.5844  0.4869
 2012TIP3    H127671   3.389   4.011   1.197 -0.1195 -0.7475  1.3472
 2012TIP3    H227672   3.526   4.072   1.216 -0.5790  0.7226  0.0969
 2013TIP3   OH227673   4.712   6.567   7.991  0.4400  0.3095 -0.7401
 2013TIP3    H127674   4.672   6.636   8.044  2.2914  0.9353 -0.0894
 2013TIP3    H227675   4.643   6.501   7.982 -1.1676  1.9118 -0.8193
 2014TIP3   OH227676   3.310   1.638   7.046 -0.0434  0.1240  0.2235
 2014TIP3    H127677   3.215   1.624   7.048 -0.3911  1.2336 -2.9707
 2014TIP3    H227678   3.345   1.559   7.006 -0.0981  1.0501 -1.8036
 2015TIP3   OH227679   5.143   4.086   7.778 -1.0694  0.0415  0.7986
 2015TIP3    H127680   5.065   4.120   7.822 -0.7265 -0.9486  2.2437
 2015TIP3    H227681   5.112   4.061   7.691 -2.5082 -0.8073  1.5103
 2016TIP3   OH227682   4.220   3.794   7.661  0.1991  0.4439 -0.3071
 2016TIP3    H127683   4.213   3.832   7.749  0.7708 -1.7583  0.7744
 2016TIP3    H227684   4.313   3.799   7.640  0.4093 -0.9579  0.1842
 2017TIP3   OH227685   6.514   2.559   0.392  0.0845  0.1920 -0.1453
 2017TIP3    H127686   6.460   2.481   0.406 -0.3405  0.5777  0.3953
 2017TIP3    H227687   6.457   2.632   0.415  0.6200  0.6464 -0.2384
 2018TIP3   OH227688   6.252   5.560   1.439 -0.0849  0.7240 -0.1340
 2018TIP3    H127689   6.206   5.480   1.465 -1.1079  0.8834 -1.3411
 2018TIP3    H227690   6.300   5.587   1.518  0.7658 -1.3762  0.1213
 2019TIP3   OH227691   5.071   0.048   2.292 -0.0771  0.3483  0.0751
 2019TIP3    H127692   5.121   0.035   2.373  0.8360 -0.7604 -0.6349
 2019TIP3    H227693   5.131   0.096   2.235  0.5973 -1.7509 -1.1049
 2020TIP3   OH227694   5.647   0.124   0.500 -0.6953  0.2606  0.0158
 2020TIP3    H127695   5.587   0.197   0.486 -0.9233  0.0127 -0.3270
 2020TIP3    H227696   5.682   0.105   0.413 -1.9804 -1.1820 -0.2399
 2021TIP3   OH227697   5.815   3.734   6.932 -0.8075  0.0268  0.4097
 2021TIP3    H127698   5.755   3.738   6.858 -1.2824  1.8137  0.8250
 2021TIP3    H227699   5.864   3.653   6.920  0.7638  1.2957 -3.1213
 2022TIP3   OH227700   6.293   3.447   8.288 -0.2022  0.6125 -0.2459
 2022TIP3    H127701   6.216   3.400   8.256 -1.3245  1.8654  0.5196
 2022TIP3    H227702   6.348   3.459   8.210 -1.0169  0.1525 -0.9095
 2023TIP3   OH227703   4.258   6.238   8.485  0.2225  0.3439  0.7170
 2023TIP3    H127704   4.297   6.151   8.489 -0.4748 -0.0751 -0.7030
 2023TIP3    H227705   4.331   6.299   8.497  1.3034 -0.4090 -1.4785
 2024TIP3   OH227706   1.949   2.858   8.169  0.4352 -0.2282  0.3340
 2024TIP3    H127707   2.034   2.833   8.205  1.6159  0.3142 -1.8974
 2024TIP3    H227708   1.964   2.944   8.129 -1.3149  0.1290  0.3682
 2025TIP3   OH227709   4.955   3.985   6.966  0.6199  0.0938  0.2018
 2025TIP3    H127710   5.034   3.938   6.938 -0.4648 -1.2464 -0.7251
 2025TIP3    H227711   4.911   4.009   6.884  1.2853  3.1283  0.6073
 2026TIP3   OH227712   4.680   1.350   0.420  0.6141 -0.0412 -0.5914
 2026TIP3    H127713   4.649   1.441   0.423  0.2768 -0.1692  0.0580
 2026TIP3    H227714   4.680   1.322   0.511  0.1703 -0.8735 -0.8334
 2027TIP3   OH227715   3.770   2.618   7.690 -0.2139 -0.0704  0.1916
 2027TIP3    H127716   3.796   2.699   7.647 -2.0609  0.2927 -0.3281
 2027TIP3    H227717   3.735   2.645   7.774  0.0808 -0.4298  0.4333
 2028TIP3   OH227718   2.108   4.094   0.523  0.3148  0.2775  0.2458
 2028TIP3    H127719   2.049   4.023   0.548 -1.7165  1.8056  0.0273
 2028TIP3    H227720   2.117   4.147   0.602  2.2087 -0.4254  0.5466
 2029TIP3   OH227721   5.249   2.283   2.387  0.0849  0.0546 -0.4649
 2029TIP3    H127722   5.217   2.257   2.300  0.8366 -0.2989 -0.6410
 2029TIP3    H227723   5.171   2.317   2.431 -0.5699 -0.9270 -0.8334
 2030TIP3   OH227724   4.285   0.094   0.470  0.4741  0.3818 -0.0506
 2030TIP3    H127725   4.232   0.038   0.413  0.5578 -0.2171  0.4453
 2030TIP3    H227726   4.302   0.040   0.547  1.9758  0.4971 -0.2766
 2031TIP3   OH227727   6.377   3.076   1.227 -0.0746 -0.0300 -0.1983
 2031TIP3    H127728   6.469   3.100   1.234 -0.2514  0.4015  1.0309
 2031TIP3    H227729   6.376   2.991   1.185  0.7390  0.9497 -2.3283
 2032TIP3   OH227730   0.010   1.766   7.295  0.6244  0.0348  0.4730
 2032TIP3    H127731  -0.017   1.758   7.203  0.5499 -1.3644  0.6055
 2032TIP3    H227732  -0.071   1.757   7.345  0.8230 -0.3984  0.7215
 2033TIP3   OH227733   6.822   6.928   1.489  0.1521 -0.4118  0.0606
 2033TIP3    H127734   6.760   6.921   1.416 -0.3701  0.0366  0.4564
 2033TIP3    H227735   6.768   6.943   1.566  0.7703  0.3133  0.3691
 2034TIP3   OH227736   4.697   5.421   2.095  0.4021  0.0959  0.1869
 2034TIP3    H127737   4.611   5.407   2.135 -0.6504 -0.4506 -2.1422
 2034TIP3    H227738   4.759   5.405   2.166 -1.3882  0.2402  1.8646
 2035TIP3   OH227739   1.882   0.962   1.400  0.5341  0.0656  0.2768
 2035TIP3    H127740   1.877   0.979   1.494 -1.6729  2.1589 -0.1156
 2035TIP3    H227741   1.799   0.922   1.378  1.1945 -0.7921 -0.7529
 2036TIP3   OH227742   2.467   1.866   8.401 -0.1574  0.0067  0.2315
 2036TIP3    H127743   2.510   1.784   8.378 -0.2445 -0.2358  0.9224
 2036TIP3    H227744   2.441   1.903   8.316  2.0638  0.5465 -0.2621
 2037TIP3   OH227745   4.809   4.500   8.185  0.3252  0.1570  0.0912
 2037TIP3    H127746   4.885   4.452   8.150 -0.8081 -1.8613  0.2498
 2037TIP3    H227747   4.785   4.452   8.264 -1.1079  0.7632  0.0551
 2038TIP3   OH227748   4.792   5.818   7.061  0.8815  0.3038 -0.3879
 2038TIP3    H127749   4.731   5.843   6.992 -0.9413 -4.1783 -0.7039
 2038TIP3    H227750   4.878   5.814   7.018  0.0273 -0.9508 -2.0551
 2039TIP3   OH227751   1.230   2.162   0.955 -0.0218  0.3520 -0.1715
 2039TIP3    H127752   1.215   2.230   0.889 -3.4025 -1.2883 -1.3605
 2039TIP3    H227753   1.184   2.194   1.033 -0.9250 -0.1418 -0.4809
 2040TIP3   OH227754   5.919   6.578   7.114 -0.3496 -0.3087 -0.4603
 2040TIP3    H127755   5.959   6.624   7.188 -2.4935 -0.7211  1.0820
 2040TIP3    H227756   5.911   6.644   7.045  0.6949  0.4011  0.0770
 2041TIP3   OH227757   4.812   3.460   7.247  0.4119  0.7516 -0.4730
 2041TIP3    H127758   4.832   3.378   7.202  0.6412 -0.2796  1.3976
 2041TIP3    H227759   4.730   3.489   7.209 -0.3604 -1.0567 -0.3012
 2042TIP3   OH227760   4.225   3.979   1.953  0.0663  0.2460 -0.4964
 2042TIP3    H127761   4.233   3.885   1.972 -1.3033  0.2238  0.0520
 2042TIP3    H227762   4.237   3.985   1.858 -1.6042 -0.7362 -0.8125
 2043TIP3   OH227763   6.184   0.808   2.781 -0.4159  0.2554 -0.6476
 2043TIP3    H127764   6.268   0.762   2.768  0.3431  1.6538 -0.8325
 2043TIP3    H227765   6.127   0.742   2.821  0.5040 -0.9806 -1.2880
 2044TIP3   OH227766   2.561   6.427   7.135 -0.1581  0.1538  0.2269
 2044TIP3    H127767   2.487   6.475   7.097  0.1810  1.6019  1.3144
 2044TIP3    H227768   2.610   6.395   7.059 -1.4119 -0.0846 -0.5150
 2045TIP3   OH227769   0.181   4.251   7.783  0.0023 -0.2529  0.3883
 2045TIP3    H127770   0.146   4.300   7.857 -1.9930 -2.6060  1.1251
 2045TIP3    H227771   0.246   4.193   7.822  2.2291  1.5257 -0.4514
 2046TIP3   OH227772   0.836   5.793   1.963  0.7772  1.0352 -0.5269
 2046TIP3    H127773   0.787   5.874   1.949  0.9714  1.1531 -0.5297
 2046TIP3    H227774   0.923   5.822   1.991  0.6682  0.8134  0.0428
 2047TIP3   OH227775   4.732   4.385   2.368  0.1187 -0.0786 -0.4366
 2047TIP3    H127776   4.665   4.317   2.371  0.5753 -0.5249 -0.2425
 2047TIP3    H227777   4.814   4.337   2.359  0.4870  0.4272  0.1997
 2048TIP3   OH227778   5.726   3.012   7.159  0.2098 -0.6241  0.0852
 2048TIP3    H127779   5.730   3.028   7.253  0.4071 -0.7274  0.0944
 2048TIP3    H227780   5.793   2.946   7.143  1.1670  0.4244 -0.3548
 2049TIP3   OH227781   5.852   1.071   7.484 -0.3691  0.3242  0.0269
 2049TIP3    H127782   5.805   0.995   7.451 -0.4432  1.0729 -1.6814
 2049TIP3    H227783   5.803   1.146   7.450 -1.0194  1.2060  2.6700
 2050TIP3   OH227784   5.414   0.808   1.313  0.2004  0.0101  0.5861
 2050TIP3    H127785   5.488   0.823   1.372  0.6077  0.6799 -0.0689
 2050TIP3    H227786   5.451   0.757   1.241  0.0342  0.3489  0.2551
 2051TIP3   OH227787   1.472   1.685   0.171 -0.0751  0.0590 -0.6270
 2051TIP3    H127788   1.536   1.751   0.145 -0.8671  1.3749  0.5836
 2051TIP3    H227789   1.443   1.713   0.258  0.1541 -2.3659  0.2937
 2052TIP3   OH227790   1.509   2.761   0.817  0.0125  0.4562 -0.6403
 2052TIP3    H127791   1.551   2.847   0.818  1.2973 -0.1101 -1.8321
 2052TIP3    H227792   1.535   2.723   0.733  1.8970 -2.2396  1.0097
 2053TIP3   OH227793   6.819   1.965   7.641 -0.3424 -0.1191  0.1193
 2053TIP3    H127794   6.867   2.016   7.576 -0.3379 -0.7699 -0.4039
 2053TIP3    H227795   6.827   1.874   7.611  1.7597 -0.7719  2.3537
 2054TIP3   OH227796   0.645   5.559   1.698  0.2716  1.2907  0.1581
 2054TIP3    H127797   0.585   5.504   1.648  1.7954  0.4012 -0.7631
 2054TIP3    H227798   0.609   5.559   1.787  1.7154 -3.8797  1.1178
 2055TIP3   OH227799   1.418   0.305   2.120 -0.7542  0.5108 -0.4305
 2055TIP3    H127800   1.463   0.228   2.157  3.1907  2.6558 -0.1817
 2055TIP3    H227801   1.457   0.315   2.033 -0.8667  2.4034 -0.3013
 2056TIP3   OH227802   0.466   4.025   7.105  0.1990  0.2836  0.3939
 2056TIP3    H127803   0.420   4.009   7.023 -0.4904  2.1567  0.3641
 2056TIP3    H227804   0.398   4.020   7.172  0.7323 -1.0991  0.8821
 2057TIP3   OH227805   6.100   0.475   7.895  0.4626  0.0633 -0.0692
 2057TIP3    H127806   6.060   0.467   7.808  1.2652  2.2364 -0.7080
 2057TIP3    H227807   6.057   0.407   7.948 -2.6257  0.9575 -1.2031
 2058TIP3   OH227808   0.446   1.553   7.617 -0.0318 -0.1082  0.1561
 2058TIP3    H127809   0.396   1.621   7.662  1.6931  0.5414  1.1734
 2058TIP3    H227810   0.475   1.494   7.686  0.9412 -0.2476 -0.3535
 2059TIP3   OH227811   4.204   2.685   7.892 -0.0730  0.0088  0.5360
 2059TIP3    H127812   4.199   2.748   7.820 -0.6117  0.9781  1.3947
 2059TIP3    H227813   4.173   2.603   7.855 -0.2320  0.4654 -0.3681
 2060TIP3   OH227814   4.387   6.218   8.222 -0.4994 -0.1033 -0.5700
 2060TIP3    H127815   4.373   6.307   8.254  1.1871  0.7991 -2.1380
 2060TIP3    H227816   4.299   6.180   8.216 -1.2511  1.4606  0.1031
 2061TIP3   OH227817   6.475   1.728   7.350  0.5204 -0.5201  0.2612
 2061TIP3    H127818   6.439   1.716   7.438 -0.8174 -1.6527 -0.4178
 2061TIP3    H227819   6.512   1.643   7.327 -1.7049 -1.1521 -1.3599
 2062TIP3   OH227820   5.620   5.032   1.931 -0.1409  0.1025  0.8663
 2062TIP3    H127821   5.629   5.036   2.026  0.0793 -0.1530  0.8582
 2062TIP3    H227822   5.575   4.948   1.915 -1.1033  0.6144  0.8072
 2063TIP3   OH227823   6.540   2.595   1.593  0.3556 -0.4533 -0.0577
 2063TIP3    H127824   6.499   2.534   1.532  1.7269 -0.7913 -0.6655
 2063TIP3    H227825   6.576   2.665   1.538 -1.3519  1.0606  0.6352
 2064TIP3   OH227826   5.468   0.557   1.481 -0.0315 -0.0187 -0.2594
 2064TIP3    H127827   5.489   0.641   1.522 -0.6792 -0.1888  0.4442
 2064TIP3    H227828   5.500   0.492   1.543 -1.6955 -0.2840  0.3671
 2065TIP3   OH227829   1.403   5.838   1.749  0.0492  0.1256 -0.4030
 2065TIP3    H127830   1.453   5.853   1.668  1.4615 -1.6405  0.0737
 2065TIP3    H227831   1.313   5.858   1.725  0.6596  1.2730 -1.9438
 2066TIP3   OH227832   4.293   4.838   1.517 -0.0601 -0.2843 -0.0942
 2066TIP3    H127833   4.333   4.867   1.599  1.7992 -0.3333 -0.9177
 2066TIP3    H227834   4.199   4.838   1.534  0.2753 -0.2720  2.0161
 2067TIP3   OH227835   4.631   0.626   2.668  0.2793 -0.5041 -0.4633
 2067TIP3    H127836   4.667   0.648   2.582  1.2167 -2.0123 -0.5051
 2067TIP3    H227837   4.544   0.665   2.669  0.7853  0.7273 -1.5341
 2068TIP3   OH227838   0.254   0.185   1.858  0.0573  0.1929 -0.2446
 2068TIP3    H127839   0.211   0.256   1.809  1.6198  0.7551 -0.8779
 2068TIP3    H227840   0.270   0.222   1.945 -1.1824 -0.2025  0.1622
 2069TIP3   OH227841   6.387   4.106   2.789  0.2244  0.1081 -0.5280
 2069TIP3    H127842   6.475   4.070   2.780  0.8829  1.4791  0.1893
 2069TIP3    H227843   6.395   4.197   2.762 -0.6558  0.6365  0.8956
 2070TIP3   OH227844   2.030   0.519   7.974  0.4341  0.8200  0.4845
 2070TIP3    H127845   2.031   0.517   7.879 -0.0975 -0.5584  0.4913
 2070TIP3    H227846   2.057   0.431   8.001 -1.9967  0.3114  1.5561
 2071TIP3   OH227847   5.850   0.671   0.101  0.3902  0.0494 -0.7508
 2071TIP3    H127848   5.928   0.639   0.055 -0.5699  1.1985 -3.3672
 2071TIP3    H227849   5.885   0.733   0.165  1.6515  0.7160 -2.0183
 2072TIP3   OH227850   6.540   5.882   7.296  0.0196  0.4246  0.1782
 2072TIP3    H127851   6.491   5.963   7.311 -1.0147 -0.4686  2.0825
 2072TIP3    H227852   6.600   5.877   7.370  0.9228  0.0235 -0.5616
 2073TIP3   OH227853   5.720   1.549   0.829 -0.6770 -0.2235 -0.3124
 2073TIP3    H127854   5.633   1.513   0.810 -0.5877 -0.6897  0.1559
 2073TIP3    H227855   5.709   1.644   0.818 -0.9372 -0.3726 -1.4366
 2074TIP3   OH227856   2.469   1.380   0.878  0.5030 -0.1194 -0.2732
 2074TIP3    H127857   2.472   1.450   0.812 -1.3268  0.9005  0.6743
 2074TIP3    H227858   2.507   1.420   0.956  0.9962 -0.7502 -0.1827
 2075TIP3   OH227859   5.817   3.435   7.749 -0.5946 -0.6285  0.0317
 2075TIP3    H127860   5.722   3.429   7.741 -0.5994 -2.3038  0.8168
 2075TIP3    H227861   5.832   3.515   7.800 -1.7291 -1.4404  1.7313
 2076TIP3   OH227862   0.280   4.532   8.483 -0.0662  0.3472  0.0225
 2076TIP3    H127863   0.344   4.593   8.519  0.1499  0.3555 -0.3674
 2076TIP3    H227864   0.318   4.503   8.400 -0.1095 -0.4097  0.2538
 2077TIP3   OH227865   5.592   1.609   0.552  0.9244  0.2657 -0.0447
 2077TIP3    H127866   5.675   1.645   0.520  1.2226 -0.0574  0.3626
 2077TIP3    H227867   5.605   1.514   0.549  0.0256  0.1516 -1.4330
 2078TIP3   OH227868   2.062   0.066   7.433  0.0954 -0.3097 -0.0069
 2078TIP3    H127869   2.071  -0.024   7.401  0.1857  0.1090 -1.2381
 2078TIP3    H227870   1.981   0.066   7.483 -0.4483 -0.8507 -0.8580
 2079TIP3   OH227871   3.530   1.972   2.492  0.1749  0.0616  0.1253
 2079TIP3    H127872   3.576   1.892   2.467  0.6362 -0.3778  2.1885
 2079TIP3    H227873   3.443   1.941   2.519 -0.6499  0.6360 -1.6933
 2080TIP3   OH227874   0.403   5.740   7.134  0.0354 -0.4354  0.0105
 2080TIP3    H127875   0.465   5.675   7.168  2.2420  0.3536 -2.2304
 2080TIP3    H227876   0.358   5.773   7.212  0.5205 -2.9440  1.4469
 2081TIP3   OH227877   5.610   5.108   6.882  0.4635 -0.2711  0.2431
 2081TIP3    H127878   5.567   5.180   6.836  1.7092  0.3395  0.0008
 2081TIP3    H227879   5.686   5.148   6.924  0.0689 -1.0729  1.7659
 2082TIP3   OH227880   5.693   6.558   8.532  0.3773 -0.8955  0.3451
 2082TIP3    H127881   5.669   6.605   8.452 -1.6425 -1.7876  0.3672
 2082TIP3    H227882   5.776   6.516   8.510  1.2831  1.0737 -0.3055
 2083TIP3   OH227883   3.532   6.702   7.961 -0.4632 -0.9379  0.1718
 2083TIP3    H127884   3.487   6.782   7.938 -2.6546 -2.0345  0.4202
 2083TIP3    H227885   3.577   6.722   8.043 -2.0618 -0.3146  0.9284
 2084TIP3   OH227886   2.383   6.780   0.188  0.0608 -0.4509 -0.3439
 2084TIP3    H127887   2.432   6.722   0.247 -1.4337 -1.9013 -0.4582
 2084TIP3    H227888   2.372   6.730   0.108 -3.0512 -0.9798  0.2554
 2085TIP3   OH227889   1.575   5.768   7.814  0.1436  0.6850 -0.1063
 2085TIP3    H127890   1.658   5.787   7.771  0.2397  1.1561  0.2731
 2085TIP3    H227891   1.510   5.770   7.744  0.3943  0.7573 -0.3384
 2086TIP3   OH227892   5.587   0.540   8.491  0.3648 -0.4231 -0.1701
 2086TIP3    H127893   5.615   0.631   8.501 -0.3989 -0.2141  0.1585
 2086TIP3    H227894   5.568   0.511   8.580 -1.5041 -0.1928 -0.4459
 2087TIP3   OH227895   5.979   1.635   0.720 -0.6364  0.2935 -0.4472
 2087TIP3    H127896   5.887   1.611   0.730 -0.7613  0.6824 -0.6503
 2087TIP3    H227897   5.978   1.730   0.707 -0.2540  0.2161 -1.0928
 2088TIP3   OH227898   3.723   2.322   7.748 -0.0187 -0.3823  0.2363
 2088TIP3    H127899   3.711   2.302   7.655 -1.2661 -1.4970  0.6075
 2088TIP3    H227900   3.768   2.407   7.748 -2.0802  0.8169 -1.3813
 2089TIP3   OH227901   3.799   5.300   0.905  0.0764  0.1808  0.0985
 2089TIP3    H127902   3.804   5.210   0.938 -1.2580 -0.9285 -2.3943
 2089TIP3    H227903   3.705   5.316   0.892  0.3618  1.5424 -0.5019
 2090TIP3   OH227904   1.109   3.726   7.778 -0.1110  0.0853  0.0234
 2090TIP3    H127905   1.165   3.757   7.706  0.0628 -0.5334 -0.1132
 2090TIP3    H227906   1.020   3.746   7.748 -0.0754 -0.6358 -0.6125
 2091TIP3   OH227907   5.768   1.429   8.211  0.4251  0.1550  0.1265
 2091TIP3    H127908   5.677   1.454   8.225  0.4656  0.7997 -0.6955
 2091TIP3    H227909   5.811   1.508   8.179  1.4784  0.0977  1.3190
 2092TIP3   OH227910   3.961   0.063   0.725  0.1079  0.0506  0.7933
 2092TIP3    H127911   4.009   0.008   0.664  0.0773  1.4891 -0.5857
 2092TIP3    H227912   3.871   0.030   0.720 -0.5509  1.8495 -2.1998
 2093TIP3   OH227913   2.779   6.828   1.277  0.2488  0.4185 -0.0092
 2093TIP3    H127914   2.687   6.848   1.258  0.2720  0.1228 -0.4607
 2093TIP3    H227915   2.828   6.902   1.242  0.3465 -0.4316 -1.7979
 2094TIP3   OH227916   1.271   3.524   6.518  0.3700  0.5054 -0.0957
 2094TIP3    H127917   1.291   3.579   6.594  2.3315  0.7960 -0.7478
 2094TIP3    H227918   1.245   3.440   6.555 -3.2265  1.8835  0.9601
 2095TIP3   OH227919   1.210   3.623   0.442  0.2402  0.7005  0.0543
 2095TIP3    H127920   1.148   3.627   0.515 -0.4376  0.7070 -0.5115
 2095TIP3    H227921   1.173   3.558   0.383  1.2846 -0.0245  0.1631
 2096TIP3   OH227922   4.918   2.745   8.433  0.6240 -0.4491 -0.1129
 2096TIP3    H127923   4.923   2.667   8.488  2.0121  0.3051  0.9076
 2096TIP3    H227924   4.993   2.738   8.374 -0.1093 -0.6063 -1.0445
 2097TIP3   OH227925   0.245   1.347   1.371  0.1329  0.3918 -0.0095
 2097TIP3    H127926   0.231   1.424   1.426 -0.6965  0.3467 -0.1316
 2097TIP3    H227927   0.265   1.382   1.285  1.6517  0.4643  0.3524
 2098TIP3   OH227928   5.752   2.781   7.961 -0.0872  0.2257 -0.3423
 2098TIP3    H127929   5.836   2.826   7.960 -0.7716  1.5559 -1.2781
 2098TIP3    H227930   5.757   2.717   7.890  0.1165  0.3594 -0.4486
 2099TIP3   OH227931   5.419   1.384   0.159 -0.0463  0.3602 -0.2214
 2099TIP3    H127932   5.331   1.396   0.123  0.3166  0.6156 -1.0581
 2099TIP3    H227933   5.476   1.424   0.093  0.8386 -1.5424 -0.6689
 2100TIP3   OH227934   0.373   4.699   1.491 -0.4132  0.5722  0.3005
 2100TIP3    H127935   0.418   4.648   1.558  0.0830  0.5441 -0.0484
 2100TIP3    H227936   0.302   4.643   1.461 -0.5866  0.5516  0.7421
 2101TIP3   OH227937   1.312   3.360   8.414 -0.4090 -0.5488  0.3143
 2101TIP3    H127938   1.319   3.442   8.463 -2.0138 -0.1346 -0.0911
 2101TIP3    H227939   1.218   3.350   8.397 -0.0454 -1.4057 -1.4188
 2102TIP3   OH227940   5.508   1.725   1.370 -0.1182  0.1546  0.3143
 2102TIP3    H127941   5.550   1.733   1.284 -1.4157 -2.8981 -0.7602
 2102TIP3    H227942   5.433   1.783   1.366 -0.4115 -0.2688 -0.8467
 2103TIP3   OH227943   2.037   5.507   0.953 -0.0647  0.4647  0.3466
 2103TIP3    H127944   2.068   5.555   0.877 -0.5668 -0.8639 -0.7470
 2103TIP3    H227945   2.099   5.435   0.964  0.3100  0.9483  1.5450
 2104TIP3   OH227946   1.263   4.401   1.810 -0.3661 -0.3652 -0.1873
 2104TIP3    H127947   1.201   4.328   1.808 -0.6528 -0.1130 -0.6320
 2104TIP3    H227948   1.210   4.478   1.788  0.1184 -0.1624 -0.6712
 2105TIP3   OH227949   4.369   4.962   7.819 -0.0904  0.3734 -0.1853
 2105TIP3    H127950   4.287   4.923   7.850 -0.5497  0.3585 -1.3496
 2105TIP3    H227951   4.346   5.001   7.734  0.8466  1.3702 -0.0056
 2106TIP3   OH227952   6.643   4.007   8.490 -0.4763  0.5969  0.2974
 2106TIP3    H127953   6.696   3.970   8.420 -1.0996  0.4501 -0.1000
 2106TIP3    H227954   6.677   4.096   8.502  0.4389  0.2151  0.6508
 2107TIP3   OH227955   6.358   1.008   7.916 -0.7487  0.1743 -0.1646
 2107TIP3    H127956   6.263   1.016   7.930 -0.9490 -0.3477 -1.0968
 2107TIP3    H227957   6.373   0.914   7.909 -0.4727  0.2972 -1.7955
 2108TIP3   OH227958   3.034   0.189   6.547 -0.3085  0.5030  0.4773
 2108TIP3    H127959   3.067   0.269   6.506 -2.4461  0.5716 -1.3137
 2108TIP3    H227960   3.107   0.157   6.601  1.0534  2.9169  0.2023
 2109TIP3   OH227961   6.215   4.294   8.205  0.5258 -0.0227 -0.4253
 2109TIP3    H127962   6.307   4.270   8.214  1.2488  2.9080  1.8485
 2109TIP3    H227963   6.167   4.218   8.239  2.2706 -0.6238  0.8631
 2110TIP3   OH227964   4.933   5.661   6.519 -0.2368  0.2929  0.0805
 2110TIP3    H127965   4.926   5.747   6.560 -1.9348  0.0234  0.4405
 2110TIP3    H227966   4.842   5.637   6.498  0.4362  0.0113 -3.0071
 2111TIP3   OH227967   4.138   1.507   0.581 -0.4019 -0.6402 -0.0799
 2111TIP3    H127968   4.191   1.544   0.651 -0.5011 -2.6528  1.1261
 2111TIP3    H227969   4.050   1.542   0.596 -0.8617 -2.4411  2.0216
 2112TIP3   OH227970   4.479   4.751   0.333 -0.5466 -0.0364 -0.3475
 2112TIP3    H127971   4.420   4.675   0.332 -0.8475  0.1974 -0.7285
 2112TIP3    H227972   4.460   4.794   0.417 -1.1760  0.2296 -0.6192
 2113TIP3   OH227973   1.985   3.896   1.406 -0.3051  0.1156 -0.1648
 2113TIP3    H127974   2.073   3.928   1.425 -0.4979  0.7186 -0.2675
 2113TIP3    H227975   1.937   3.974   1.376 -0.3540 -0.5374 -1.9229
 2114TIP3   OH227976   1.109   5.249   8.291  0.2381 -0.3024  0.3231
 2114TIP3    H127977   1.107   5.344   8.299 -0.6398 -0.3581  0.9647
 2114TIP3    H227978   1.182   5.221   8.346  0.9108  0.0315 -0.3820
 2115TIP3   OH227979   2.701   4.170   6.740  0.3785 -0.1777 -0.3674
 2115TIP3    H127980   2.611   4.159   6.770  0.4056  0.4880 -0.0404
 2115TIP3    H227981   2.696   4.237   6.672  0.6026 -0.2710 -0.4780
 2116TIP3   OH227982   3.462   5.102   0.518  0.2795  0.4051 -0.2930
 2116TIP3    H127983   3.385   5.047   0.501  1.0251 -0.1262 -2.1900
 2116TIP3    H227984   3.530   5.040   0.544  0.2001  0.8367  1.0199
 2117TIP3   OH227985   0.690   0.470   8.505  0.1208 -0.3065  0.9678
 2117TIP3    H127986   0.750   0.544   8.515 -1.1826  0.8129  0.8760
 2117TIP3    H227987   0.633   0.475   8.582 -1.1980 -0.0275 -0.0016
 2118TIP3   OH227988   0.889   5.440   7.547  0.0861  0.3078 -0.2793
 2118TIP3    H127989   0.944   5.503   7.501 -1.2231  1.8861  0.2372
 2118TIP3    H227990   0.806   5.486   7.562 -0.6255 -1.2476  0.8765
 2119TIP3   OH227991   3.658   2.924   1.644 -0.5264  0.2107  0.3323
 2119TIP3    H127992   3.582   2.955   1.693 -0.3602 -0.7592  1.2204
 2119TIP3    H227993   3.636   2.835   1.619  0.7995 -0.5522  1.7033
 2120TIP3   OH227994   3.444   3.829   7.790  0.1272  0.6703 -0.0143
 2120TIP3    H127995   3.537   3.810   7.800  0.4376  1.8970 -0.4194
 2120TIP3    H227996   3.416   3.775   7.716  0.1172 -0.9218  1.0965
 2121TIP3   OH227997   0.859   4.387   1.822  0.1054 -0.3855  0.1086
 2121TIP3    H127998   0.882   4.346   1.905  0.8644 -0.7538 -0.2783
 2121TIP3    H227999   0.939   4.432   1.794 -0.1527 -0.2418 -0.4146
 2122TIP3   OH228000   3.254   0.670   1.461 -0.4335  0.2724 -0.2856
 2122TIP3    H128001   3.283   0.758   1.437  0.3429  0.4892  1.3319
 2122TIP3    H228002   3.183   0.684   1.524  0.9558 -0.2011  1.4599
 2123TIP3   OH228003   3.184   6.424   1.586  0.1378 -0.2796  0.3034
 2123TIP3    H128004   3.173   6.495   1.523  2.8048  0.5937  0.6605
 2123TIP3    H228005   3.279   6.411   1.590 -0.1929 -3.2053  1.0259
 2124TIP3   OH228006   4.552   1.694   2.271  0.1175 -0.3537 -0.2108
 2124TIP3    H128007   4.537   1.693   2.366 -0.5063  3.0185 -0.1464
 2124TIP3    H228008   4.473   1.735   2.235  1.0379 -0.0655 -1.9994
 2125TIP3   OH228009   6.609   0.522   7.563  0.1226  0.3607 -0.0860
 2125TIP3    H128010   6.595   0.471   7.483  0.0704  0.4039 -0.1045
 2125TIP3    H228011   6.592   0.612   7.537 -1.2198  0.2432  0.2785
 2126TIP3   OH228012   0.546   1.558   2.396  0.2669  0.3210 -0.2729
 2126TIP3    H128013   0.632   1.541   2.433 -0.0702  1.7241  1.2873
 2126TIP3    H228014   0.485   1.538   2.468 -0.5344  1.5235 -0.5855
 2127TIP3   OH228015   6.394   0.314   0.201  0.2772  0.2786 -0.4948
 2127TIP3    H128016   6.356   0.226   0.198  2.2852 -0.6295 -0.5773
 2127TIP3    H228017   6.346   0.363   0.134  0.4710 -1.3176 -1.8598
 2128TIP3   OH228018   2.181   3.849   7.373  0.0101 -0.5032  0.3833
 2128TIP3    H128019   2.144   3.790   7.307  1.2014  0.7525 -1.4948
 2128TIP3    H228020   2.266   3.812   7.394  1.4305  1.1464 -1.9053
 2129TIP3   OH228021   3.396   0.400   1.602  0.4111 -0.1384 -0.2792
 2129TIP3    H128022   3.395   0.496   1.606 -1.2489 -0.1030  4.1170
 2129TIP3    H228023   3.487   0.377   1.617  0.6010  0.7763  0.0548
 2130TIP3   OH228024   0.174   6.616   0.156 -0.2628  0.1893  0.3038
 2130TIP3    H128025   0.180   6.708   0.133  0.3887 -0.2436 -1.4604
 2130TIP3    H228026   0.263   6.583   0.144 -0.8020 -0.9949 -0.7293
 2131TIP3   OH228027   3.558   0.753   7.364 -0.0874 -0.2342  0.3030
 2131TIP3    H128028   3.473   0.763   7.408 -0.2902  0.2228 -0.1752
 2131TIP3    H228029   3.591   0.668   7.394 -0.0537  0.2139  1.5980
 2132TIP3   OH228030   0.921   3.063   7.169 -0.3367  0.5403 -0.8782
 2132TIP3    H128031   0.832   3.098   7.173 -1.0503 -1.2121 -0.4002
 2132TIP3    H228032   0.917   2.997   7.100  0.5898  0.4105 -0.8135
 2133TIP3   OH228033   2.269   3.219   2.050  0.1300  0.0636  0.3697
 2133TIP3    H128034   2.205   3.220   2.122  2.5938 -1.3730  2.7843
 2133TIP3    H228035   2.350   3.251   2.090  1.6930 -1.0389 -1.7244
 2134TIP3   OH228036   4.450   0.206   1.096 -0.5566 -0.2985  0.2249
 2134TIP3    H128037   4.447   0.202   1.191  2.3391  1.5765  0.4943
 2134TIP3    H228038   4.447   0.114   1.068  0.5957 -1.0108  2.2508
 2135TIP3   OH228039   1.250   5.425   7.444  0.1557 -0.1418  0.3426
 2135TIP3    H128040   1.201   5.351   7.479  2.2191 -1.0891  1.4405
 2135TIP3    H228041   1.196   5.460   7.374 -1.0962 -2.3811  0.1244
 2136TIP3   OH228042   6.361   5.407   7.986 -0.1432 -0.2811  0.1992
 2136TIP3    H128043   6.455   5.409   8.002 -0.3396 -1.6467  1.7890
 2136TIP3    H228044   6.326   5.480   8.037 -0.1007 -0.7201  0.8588
 2137TIP3   OH228045   5.729   2.055   1.854 -0.0123  0.5489 -0.3582
 2137TIP3    H128046   5.727   2.048   1.950 -2.1896 -2.0980 -0.4594
 2137TIP3    H228047   5.644   2.095   1.832  0.2044  0.5415 -1.2194
 2138TIP3   OH228048   2.882   1.306   1.461 -0.4449 -0.7280  0.1517
 2138TIP3    H128049   2.820   1.368   1.424 -0.6245 -2.1044 -2.0198
 2138TIP3    H228050   2.968   1.345   1.443 -0.5270 -1.3911 -1.8687
 2139TIP3   OH228051   6.097   0.612   0.025  0.3739 -0.0854  0.0848
 2139TIP3    H128052   6.120   0.654  -0.058  0.9420  0.6376  0.6052
 2139TIP3    H228053   6.115   0.678   0.092 -0.8200 -0.3820  0.7312
 2140TIP3   OH228054   2.220   5.114   8.092  0.3430  0.4440  0.3519
 2140TIP3    H128055   2.200   5.101   7.999 -0.1597 -0.3093  0.5504
 2140TIP3    H228056   2.301   5.164   8.093  1.0158 -0.5941 -0.4966
 2141TIP3   OH228057   4.230   6.491   7.485 -0.2266 -0.1100  0.3945
 2141TIP3    H128058   4.149   6.440   7.486  0.8922 -1.9907  1.7331
 2141TIP3    H228059   4.295   6.433   7.446  0.5699  1.2600 -0.4117
 2142TIP3   OH228060   2.631   5.998   0.675  0.5698  0.4519  0.6293
 2142TIP3    H128061   2.563   5.939   0.708  1.6492 -1.1277  0.1476
 2142TIP3    H228062   2.672   6.034   0.754 -1.0064  1.6758  0.9195
 2143TIP3   OH228063   6.237   4.767   6.842 -0.1442 -0.3333  1.0756
 2143TIP3    H128064   6.236   4.808   6.755 -0.4857 -0.7102  0.8991
 2143TIP3    H228065   6.179   4.823   6.895 -1.8129 -1.3975  0.4499
 2144TIP3   OH228066   6.617   6.389   0.274 -0.3742 -0.3295 -0.9361
 2144TIP3    H128067   6.531   6.431   0.283 -0.4895 -0.3194 -2.0103
 2144TIP3    H228068   6.675   6.459   0.244  0.8225  0.5297  2.8330
 2145TIP3   OH228069   2.445   6.875   7.383  0.2307 -0.2837 -0.2943
 2145TIP3    H128070   2.509   6.841   7.320 -1.0430 -1.3695 -1.0416
 2145TIP3    H228071   2.372   6.905   7.329  0.2687  1.4095  0.5192
 2146TIP3   OH228072   2.587   2.746   7.197  0.0350 -0.1451  0.3919
 2146TIP3    H128073   2.570   2.653   7.183 -0.0601  0.0569 -0.9354
 2146TIP3    H228074   2.678   2.758   7.170  0.2464  0.0356  1.1614
 2147TIP3   OH228075   3.698   6.063   8.206 -0.1112 -0.0787 -0.1655
 2147TIP3    H128076   3.650   6.087   8.127  0.5024 -0.1281 -0.5584
 2147TIP3    H228077   3.765   6.002   8.176  1.3835  1.3826  0.0519
 2148TIP3   OH228078   0.840   2.455   0.086 -0.0896  0.5272 -0.0225
 2148TIP3    H128079   0.929   2.457   0.122  0.2935 -0.1155 -0.8970
 2148TIP3    H228080   0.838   2.528   0.024  0.0588  0.1176 -0.5143
 2149TIP3   OH228081   1.617   1.339   2.022 -0.2555  0.3965  0.2466
 2149TIP3    H128082   1.683   1.339   2.091 -0.6449 -2.8747  0.8066
 2149TIP3    H228083   1.603   1.246   2.003 -2.6119  1.0813 -1.8857
 2150TIP3   OH228084   1.074   6.555   0.036  0.7801  1.0442  0.5725
 2150TIP3    H128085   1.015   6.525   0.105  0.8814  0.8055  0.5565
 2150TIP3    H228086   1.079   6.650   0.049  1.7808  0.8735  1.6974
 2151TIP3   OH228087   4.928   4.570   0.874 -0.3303  0.0015  0.2430
 2151TIP3    H128088   4.909   4.476   0.872  0.9075 -0.2821  0.9042
 2151TIP3    H228089   4.859   4.606   0.930 -0.9188 -0.4731 -0.1492
 2152TIP3   OH228090   0.946   2.589   1.641 -0.6861 -0.1000 -0.4649
 2152TIP3    H128091   0.990   2.516   1.685 -0.1664  0.0722 -0.6941
 2152TIP3    H228092   0.935   2.656   1.708  1.0119  0.5673 -0.8085
 2153TIP3   OH228093   2.678   4.351   8.126 -0.5910  0.4878  0.1423
 2153TIP3    H128094   2.728   4.290   8.072  0.2820  1.5092 -0.2410
 2153TIP3    H228095   2.720   4.348   8.212 -1.3880 -0.4308  0.5135
 2154TIP3   OH228096   2.917   6.534   0.102 -0.3592  0.1468 -0.2490
 2154TIP3    H128097   2.999   6.543   0.149  0.0523 -0.3567 -0.8589
 2154TIP3    H228098   2.870   6.464   0.148 -0.4798  0.4710  0.1302
 2155TIP3   OH228099   1.185   5.425   2.052 -0.4051 -0.4192 -0.4132
 2155TIP3    H128100   1.106   5.381   2.082 -1.7526  1.2199 -1.3961
 2155TIP3    H228101   1.196   5.396   1.961 -2.1854  2.2144 -1.6097
 2156TIP3   OH228102   6.524   6.705   8.339  0.1238  0.1914 -0.3189
 2156TIP3    H128103   6.485   6.792   8.329 -0.8304 -0.2529 -0.5772
 2156TIP3    H228104   6.578   6.712   8.418 -0.4983  0.8215  0.0613
 2157TIP3   OH228105   5.530   6.532   1.478  0.3090  0.1067 -0.0119
 2157TIP3    H128106   5.530   6.443   1.514  3.1672 -0.3482 -0.8209
 2157TIP3    H228107   5.621   6.562   1.490 -0.1070  2.1669 -1.5007
 2158TIP3   OH228108   3.889   4.158   7.276 -0.1563 -0.7975 -0.1730
 2158TIP3    H128109   3.925   4.195   7.356 -1.0348  0.6010 -0.3768
 2158TIP3    H228110   3.965   4.148   7.218  0.1034  1.2214 -0.2759
 2159TIP3   OH228111   6.396   5.669   0.275  0.0082  0.3455 -1.0677
 2159TIP3    H128112   6.356   5.637   0.356  1.8077  1.1696  0.2175
 2159TIP3    H228113   6.351   5.621   0.206 -0.3391 -1.7926  0.5172
 2160TIP3   OH228114   5.584   2.839   0.812 -0.3039 -0.2468 -0.1839
 2160TIP3    H128115   5.606   2.902   0.881 -1.0955 -1.0509  0.8353
 2160TIP3    H228116   5.606   2.754   0.850 -1.4344 -0.7620 -0.6489
 2161TIP3   OH228117   4.693   4.962   0.307  0.4386  0.1677  0.0036
 2161TIP3    H128118   4.613   5.014   0.296  1.9170  2.5554 -0.3243
 2161TIP3    H228119   4.665   4.886   0.357 -1.9004  1.2785  0.5677
 2162TIP3   OH228120   5.372   3.239   0.994  0.4252  0.1787  0.0967
 2162TIP3    H128121   5.319   3.224   0.915 -0.5847 -0.8422  0.9415
 2162TIP3    H228122   5.318   3.297   1.048 -0.1937 -1.4075  1.2624
 2163TIP3   OH228123   3.274   5.020   8.152  0.2791  0.1178  0.3813
 2163TIP3    H128124   3.197   4.985   8.196  0.2353  0.8025  0.8825
 2163TIP3    H228125   3.321   4.944   8.119  0.0937 -0.3915  1.2683
 2164TIP3   OH228126   2.705   4.055   0.427  0.0196 -0.4118  0.4860
 2164TIP3    H128127   2.658   3.984   0.472  0.6105 -0.1308  1.5783
 2164TIP3    H228128   2.767   4.009   0.370 -0.8539 -0.7715 -0.2153
 2165TIP3   OH228129   0.895   2.862   7.451  0.1623 -0.2679 -0.3055
 2165TIP3    H128130   0.920   2.952   7.470  1.5873 -0.9630  1.4388
 2165TIP3    H228131   0.941   2.841   7.370 -2.8031  1.5078 -2.6680
 2166TIP3   OH228132   4.865   0.944   2.326 -0.6312  0.0325 -0.3952
 2166TIP3    H128133   4.959   0.955   2.339 -0.4340  0.4781 -2.0089
 2166TIP3    H228134   4.856   0.915   2.235 -2.1531  1.8121 -0.8778
 2167TIP3   OH228135   5.138   5.929   0.728 -0.4583 -0.0374 -0.5839
 2167TIP3    H128136   5.212   5.928   0.789  0.1625 -3.3524 -1.1975
 2167TIP3    H228137   5.092   6.011   0.747  1.6943  0.7448  1.8367
 2168TIP3   OH228138   2.144   2.169   2.397 -0.1608 -0.4433  0.1678
 2168TIP3    H128139   2.148   2.228   2.472  1.5124  0.9202 -0.9363
 2168TIP3    H228140   2.208   2.101   2.416 -0.0830 -0.3688  0.1685
 2169TIP3   OH228141   1.635   5.958   1.843 -0.5427 -0.7456  0.8492
 2169TIP3    H128142   1.697   5.924   1.779 -0.8249  1.8967 -0.9738
 2169TIP3    H228143   1.553   5.911   1.823 -1.1802  1.3337 -2.2390
 2170TIP3   OH228144   6.195   4.669   2.126  0.6340  0.6732 -0.2176
 2170TIP3    H128145   6.220   4.601   2.064  1.5148  0.2095  0.6260
 2170TIP3    H228146   6.105   4.691   2.103  0.8971  0.3997 -1.5521
 2171TIP3   OH228147   3.195   5.828   7.553 -0.5667  0.2964  0.0552
 2171TIP3    H128148   3.116   5.864   7.594 -1.9634 -0.0849 -2.1466
 2171TIP3    H228149   3.226   5.897   7.495 -0.7840 -0.4412 -0.9774
 2172TIP3   OH228150   0.624   0.364   0.614  0.7432  0.4426 -0.1144
 2172TIP3    H128151   0.691   0.307   0.576  0.0741 -1.5545  1.5217
 2172TIP3    H228152   0.546   0.347   0.560  0.1354 -1.4395  1.2477
 2173TIP3   OH228153   6.669   2.063   7.001  0.6788 -0.2880  0.0122
 2173TIP3    H128154   6.644   1.972   7.014 -0.5067 -0.3743 -2.4086
 2173TIP3    H228155   6.652   2.080   6.909  0.8404  2.4148  0.4009
 2174TIP3   OH228156   2.135   5.190   1.317  0.2730 -0.3596 -0.0672
 2174TIP3    H128157   2.220   5.204   1.275  0.3526  0.3884  0.3227
 2174TIP3    H228158   2.098   5.278   1.325  0.3059 -0.4566  1.4965
 2175TIP3   OH228159   4.546   3.196   7.297  0.2097 -0.0235 -0.2751
 2175TIP3    H128160   4.508   3.257   7.361 -2.2117 -2.6268  1.0387
 2175TIP3    H228161   4.626   3.165   7.338  2.0482  2.8344 -1.4160
 2176TIP3   OH228162   2.142   6.219   0.880  0.2134 -0.5394 -0.1376
 2176TIP3    H128163   2.144   6.269   0.961  1.2248  0.5938 -0.8406
 2176TIP3    H228164   2.233   6.216   0.851 -0.1778 -0.6796 -1.3846
 2177TIP3   OH228165   6.616   6.446   1.735 -1.0145 -0.1836  0.1913
 2177TIP3    H128166   6.675   6.489   1.797 -1.4240  0.3954  0.1835
 2177TIP3    H228167   6.647   6.475   1.649 -1.5778  0.4730  0.2051
 2178TIP3   OH228168   2.558   0.884   2.808  0.2011  0.1588  0.1859
 2178TIP3    H128169   2.538   0.792   2.828 -0.8164  0.7666  2.2366
 2178TIP3    H228170   2.595   0.918   2.889  2.1697  1.1796 -1.0719
 2179TIP3   OH228171   3.070   4.653   8.354 -0.3788  0.4370 -0.0543
 2179TIP3    H128172   2.986   4.630   8.315  0.3761 -0.6453 -1.0963
 2179TIP3    H228173   3.119   4.693   8.282  0.1933  0.5776  0.4090
 2180TIP3   OH228174   6.773   6.566   1.958  0.0462  0.2151  0.0724
 2180TIP3    H128175   6.796   6.650   1.918  1.8322 -0.9126 -1.3926
 2180TIP3    H228176   6.709   6.589   2.026  0.6520  2.7649 -0.1226
 2181TIP3   OH228177   3.241   5.971   1.980  0.0320  0.1355  0.2093
 2181TIP3    H128178   3.288   5.918   2.044  1.0781  1.3663  0.5045
 2181TIP3    H228179   3.217   6.051   2.028 -1.8559 -0.1968 -0.1072
 2182TIP3   OH228180   3.177   0.196   0.612 -0.7700  0.6426 -0.2899
 2182TIP3    H128181   3.253   0.252   0.604 -0.9452  0.7119 -1.7737
 2182TIP3    H228182   3.146   0.184   0.522 -1.4366 -0.8559  0.1010
 2183TIP3   OH228183   5.368   3.851   1.408  0.6620  0.2662  0.0466
 2183TIP3    H128184   5.421   3.822   1.333  0.1379  1.2665 -0.7515
 2183TIP3    H228185   5.285   3.879   1.368  0.7202  1.7135  0.8681
 2184TIP3   OH228186   1.479   5.659   8.025 -0.3013 -0.2792 -0.2722
 2184TIP3    H128187   1.503   5.687   7.937  0.9866 -0.3547  0.0307
 2184TIP3    H228188   1.384   5.666   8.028 -0.2117  1.9851 -0.9054
 2185TIP3   OH228189   0.325   3.139   1.685  0.3340  0.3441  0.2256
 2185TIP3    H128190   0.250   3.125   1.744  0.9939 -0.0956  0.9800
 2185TIP3    H228191   0.285   3.154   1.600 -0.6259  0.2467  0.6391
 2186TIP3   OH228192   1.388   3.469   1.737 -0.0478 -0.0261  0.0037
 2186TIP3    H128193   1.336   3.548   1.755 -0.6459 -0.6288  1.0491
 2186TIP3    H228194   1.335   3.398   1.772  0.4354 -0.9153 -1.0320
 2187TIP3   OH228195   1.868   0.708   1.723 -0.6272  0.0597 -0.2123
 2187TIP3    H128196   1.892   0.661   1.803 -0.4346  0.1294 -0.2302
 2187TIP3    H228197   1.773   0.717   1.729 -0.4430  1.6306  0.8810
 2188TIP3   OH228198   0.902   5.767   2.788  0.0768 -0.2253 -0.5680
 2188TIP3    H128199   0.840   5.763   2.861  1.9850  0.9909  1.2399
 2188TIP3    H228200   0.902   5.679   2.751 -4.2222  0.1514 -2.0950
 2189TIP3   OH228201   2.097   2.568   0.602 -0.0956 -0.6550 -0.3755
 2189TIP3    H128202   2.044   2.509   0.656  2.0568 -2.7389 -0.3691
 2189TIP3    H228203   2.166   2.512   0.566  1.3523  1.6498 -1.4194
 2190TIP3   OH228204   5.133   3.925   7.996  0.2580  0.0303 -0.6631
 2190TIP3    H128205   5.158   3.986   7.926 -2.1895  1.5533 -0.3301
 2190TIP3    H228206   5.038   3.921   7.992  0.0240  0.0370  2.4535
 2191TIP3   OH228207   4.448   4.274   7.421  0.4255 -0.5430  0.0872
 2191TIP3    H128208   4.518   4.326   7.382  0.0641  0.3596  0.6188
 2191TIP3    H228209   4.411   4.225   7.347 -0.5011  1.4208 -0.8316
 2192TIP3   OH228210   1.893   5.375   2.709 -0.6985  0.3247  0.1750
 2192TIP3    H128211   1.862   5.290   2.738  0.2387 -0.1807 -0.2668
 2192TIP3    H228212   1.814   5.429   2.705 -0.9161  0.4462  3.5428
 2193TIP3   OH228213   5.802   2.743   1.084  0.1761  0.2879 -0.5223
 2193TIP3    H128214   5.848   2.668   1.121  0.3996  0.5366 -0.2977
 2193TIP3    H228215   5.857   2.818   1.104 -0.4093  0.6163 -0.0936
 2194TIP3   OH228216   2.517   1.258   0.072  0.2742 -0.1791 -0.1554
 2194TIP3    H128217   2.610   1.276   0.056  0.8996 -3.1312 -0.4556
 2194TIP3    H228218   2.475   1.344   0.068  2.8163  1.1300 -1.1406
 2195TIP3   OH228219   0.789   3.575   1.239 -0.3189  0.2710  0.3925
 2195TIP3    H128220   0.800   3.621   1.156  1.2912 -0.7219  0.0048
 2195TIP3    H228221   0.694   3.564   1.249 -0.7189  2.9619  0.1692
 2196TIP3   OH228222   3.766   6.041   0.588  0.3703  0.2471 -0.0656
 2196TIP3    H128223   3.750   6.086   0.671  2.9330 -1.6283  1.5847
 2196TIP3    H228224   3.769   6.111   0.523  1.1936  2.1404  1.8986
 2197TIP3   OH228225   3.826   5.163   8.491  0.4354  0.1659  0.1232
 2197TIP3    H128226   3.897   5.124   8.440  0.5164  1.0177 -0.4447
 2197TIP3    H228227   3.833   5.122   8.578  0.9791 -0.4975 -0.2292
 2198TIP3   OH228228   5.729   2.619   6.975  0.0931 -0.9789 -0.2025
 2198TIP3    H128229   5.809   2.623   7.028 -1.0459  0.7070  1.5261
 2198TIP3    H228230   5.737   2.693   6.914 -0.0684 -0.8845 -0.1118
 2199TIP3   OH228231   2.052   2.832   0.723  0.0902 -0.2487  0.0678
 2199TIP3    H128232   2.098   2.837   0.806  1.3072 -1.6439 -0.4851
 2199TIP3    H228233   2.075   2.746   0.687 -1.4209 -0.2123 -1.1293
 2200TIP3   OH228234   2.163   6.308   1.129 -0.0437  0.2380  0.1179
 2200TIP3    H128235   2.197   6.393   1.102 -1.5126  0.7305 -0.2495
 2200TIP3    H228236   2.174   6.307   1.224 -0.6493  1.1362  0.2061
 2201TIP3   OH228237   2.376   4.214   8.145  0.1326  0.2663 -0.1617
 2201TIP3    H128238   2.391   4.281   8.078 -0.7740 -1.2467 -2.0002
 2201TIP3    H228239   2.292   4.237   8.184  0.6758  1.1757  0.4781
 2202TIP3   OH228240   0.574   4.808   2.086  0.6086 -0.1797  0.2994
 2202TIP3    H128241   0.597   4.767   2.002 -0.1531 -1.8296  0.8483
 2202TIP3    H228242   0.519   4.743   2.130  1.6737  0.2936  2.4507
 2203TIP3   OH228243   4.049   2.242   2.234  0.1131  0.3203 -0.6798
 2203TIP3    H128244   4.140   2.224   2.255  0.1780 -0.1875 -1.3749
 2203TIP3    H228245   4.052   2.293   2.153 -0.1739  1.4080 -0.0300
 2204TIP3   OH228246   3.928   3.757   0.868  0.6887  0.0103  0.2127
 2204TIP3    H128247   4.016   3.725   0.887  0.2802 -0.9321  0.5486
 2204TIP3    H228248   3.942   3.840   0.822  1.7583 -0.3989 -0.2204
 2205TIP3   OH228249   4.041   0.181   1.174  0.3689 -0.4405  0.0779
 2205TIP3    H128250   4.043   0.090   1.145  1.8118 -0.6087  0.6313
 2205TIP3    H228251   3.948   0.199   1.190  0.1727 -2.2350  1.2556
 2206TIP3   OH228252   5.822   6.917   8.489 -0.2390 -0.2547 -0.3118
 2206TIP3    H128253   5.787   6.904   8.577 -0.4768 -1.9234 -0.6116
 2206TIP3    H228254   5.749   6.898   8.431  0.7651 -2.7199 -0.9177
 2207TIP3   OH228255   4.540   3.039   2.222  0.1572 -0.5381 -0.0910
 2207TIP3    H128256   4.550   3.011   2.313  1.4855 -1.4517 -0.4983
 2207TIP3    H228257   4.447   3.063   2.215 -0.2471 -1.6037  1.1818
 2208TIP3   OH228258   3.946   4.157   7.777 -0.2044 -0.0329  0.5484
 2208TIP3    H128259   3.879   4.184   7.714  0.3665 -0.5897 -0.3283
 2208TIP3    H228260   4.028   4.192   7.742  0.0933 -0.1752  1.0917
 2209TIP3   OH228261   0.405   3.451   7.731  0.1220  0.0836 -0.0223
 2209TIP3    H128262   0.425   3.468   7.823  0.3516 -0.9426  0.1349
 2209TIP3    H228263   0.310   3.442   7.729  0.1451 -0.2386  0.1837
 2210TIP3   OH228264   6.796   1.096   8.189  0.5561  0.4311  0.4763
 2210TIP3    H128265   6.735   1.067   8.257 -0.2213 -0.5227 -0.5967
 2210TIP3    H228266   6.755   1.069   8.107  1.1740  2.0992 -0.4281
 2211TIP3   OH228267   3.744   4.609   2.028  0.0343 -0.2962 -0.9542
 2211TIP3    H128268   3.742   4.623   1.934  1.3705 -0.2375 -0.9845
 2211TIP3    H228269   3.699   4.685   2.064 -0.1716 -0.1436 -1.5222
 2212TIP3   OH228270   5.591   4.380   6.385 -0.0377  0.2006  0.3450
 2212TIP3    H128271   5.605   4.289   6.357 -0.6910 -0.1898  1.2341
 2212TIP3    H228272   5.514   4.408   6.336  0.7556  0.6401 -0.7003
 2213TIP3   OH228273   5.674   4.461   0.321  0.1376  0.1107 -0.3906
 2213TIP3    H128274   5.607   4.451   0.389  0.9913 -2.1147  0.2094
 2213TIP3    H228275   5.730   4.533   0.352  0.1650 -0.4800  0.9787
 2214TIP3   OH228276   1.413   6.856   2.082 -0.3424 -0.0213 -0.3671
 2214TIP3    H128277   1.430   6.904   2.164 -0.9317 -0.1406 -0.1685
 2214TIP3    H228278   1.380   6.771   2.111 -0.0200 -0.2735 -0.7305
 2215TIP3   OH228279   6.652   1.045   7.955 -0.1867 -0.1784 -0.0165
 2215TIP3    H128280   6.690   0.991   7.886 -1.6188 -0.8475 -0.3160
 2215TIP3    H228281   6.592   1.103   7.909 -0.9403 -0.4305  0.6273
 2216TIP3   OH228282   3.966   5.585   7.381 -0.3510 -0.0628 -0.3119
 2216TIP3    H128283   3.999   5.495   7.378  0.9501  0.3758  0.1198
 2216TIP3    H228284   4.028   5.632   7.436 -2.2566  0.6220  1.3707
 2217TIP3   OH228285   4.330   1.485   0.335  0.0003 -0.1881 -0.0522
 2217TIP3    H128286   4.333   1.433   0.415  0.1921  0.9831  0.7233
 2217TIP3    H228287   4.342   1.421   0.264 -2.9637 -1.6664  0.6352
 2218TIP3   OH228288   1.377   4.906   1.773 -0.7976  0.2098 -0.1771
 2218TIP3    H128289   1.295   4.890   1.821 -0.9336  0.4090 -0.3435
 2218TIP3    H228290   1.430   4.958   1.833 -1.7744  2.2577 -1.0220
 2219TIP3   OH228291   1.195   2.606   0.716  0.1381 -0.7675  0.3349
 2219TIP3    H128292   1.149   2.594   0.633  0.6199 -0.9801  0.0938
 2219TIP3    H228293   1.206   2.701   0.723  0.7759 -0.7917 -0.2292
 2220TIP3   OH228294   1.225   5.280   1.838 -0.1585 -0.0464  0.8209
 2220TIP3    H128295   1.203   5.247   1.750  0.3732  0.7396  0.3780
 2220TIP3    H228296   1.301   5.228   1.864  0.5103  0.5980  0.2371
 2221TIP3   OH228297   6.345   1.562   7.538  0.0851  0.6266 -0.5890
 2221TIP3    H128298   6.397   1.587   7.615 -0.2920  0.4493 -0.2690
 2221TIP3    H228299   6.269   1.621   7.542  0.3778  1.0570 -1.1947
 2222TIP3   OH228300   5.243   4.279   1.718  0.6795  0.1566 -0.4770
 2222TIP3    H128301   5.256   4.214   1.786  0.8876  0.7919  0.1089
 2222TIP3    H228302   5.177   4.241   1.660  0.5518 -0.4235  0.0407
 2223TIP3   OH228303   5.554   1.125   2.263  0.3890  0.6122 -0.4062
 2223TIP3    H128304   5.626   1.098   2.319 -0.8294 -0.8293  0.5371
 2223TIP3    H228305   5.588   1.117   2.174  0.9607 -1.5105 -0.0423
 2224TIP3   OH228306   4.576   4.352   1.167 -0.4466 -0.1865 -0.2340
 2224TIP3    H128307   4.623   4.422   1.121 -0.8556  1.1134  1.2080
 2224TIP3    H228308   4.641   4.282   1.175  0.3542  0.4649 -0.7400
 2225TIP3   OH228309   1.728   2.613   0.625  0.3090 -0.3512  0.1159
 2225TIP3    H128310   1.783   2.659   0.562  1.3196  0.4720  1.5318
 2225TIP3    H228311   1.640   2.617   0.588  0.2643  3.1120  0.3135
 2226TIP3   OH228312   2.120   3.981   1.037  0.5299  0.2432  0.0089
 2226TIP3    H128313   2.189   3.972   0.972  0.0568  1.3172 -0.6589
 2226TIP3    H228314   2.044   3.939   0.998  0.4239  0.3174  0.1339
 2227TIP3   OH228315   3.550   4.613   1.027  0.1089 -0.2517 -0.0963
 2227TIP3    H128316   3.496   4.612   1.106 -0.2845  0.9158 -0.3328
 2227TIP3    H228317   3.512   4.682   0.973  0.2524 -1.1751 -1.4090
 2228TIP3   OH228318   4.564   5.673   0.950  0.3039 -0.7611 -0.2159
 2228TIP3    H128319   4.630   5.668   0.881  0.9041 -2.5095  0.4404
 2228TIP3    H228320   4.594   5.611   1.017 -1.9074 -1.4677  0.1945
 2229TIP3   OH228321   5.026   2.384   1.178 -0.3137 -0.2166  0.1206
 2229TIP3    H128322   4.968   2.344   1.113  1.2442  0.8414 -2.0728
 2229TIP3    H228323   4.991   2.472   1.190  1.4238  0.9050 -2.2332
 2230TIP3   OH228324   6.121   0.976   7.496  0.2830  0.5685 -0.1070
 2230TIP3    H128325   6.032   1.006   7.515  0.9111  1.8656  0.9391
 2230TIP3    H228326   6.121   0.957   7.402 -0.9161  1.1718 -0.2422
 2231TIP3   OH228327   6.693   3.400   8.359 -0.1828 -0.2709  0.7148
 2231TIP3    H128328   6.748   3.370   8.432  1.0373 -1.7413 -0.7370
 2231TIP3    H228329   6.754   3.424   8.290 -1.1902  3.6598  0.9438
 2232TIP3   OH228330   1.268   3.250   7.979 -0.1042 -0.0821  0.2587
 2232TIP3    H128331   1.255   3.181   7.914  0.2396  0.3352 -0.2618
 2232TIP3    H228332   1.280   3.203   8.061  0.0695 -0.6406 -0.0777
 2233TIP3   OH228333   0.627   1.427   8.332  0.2413 -0.9670  0.0220
 2233TIP3    H128334   0.638   1.385   8.246  0.8012 -0.6160 -0.0808
 2233TIP3    H228335   0.647   1.357   8.394  0.9818 -0.9159 -0.1478
 2234TIP3   OH228336   2.593   1.912   0.981  0.3657  0.1295 -0.1800
 2234TIP3    H128337   2.613   1.946   1.068 -1.6266  0.2340  0.2714
 2234TIP3    H228338   2.574   1.989   0.928 -1.9881 -0.0591  0.2781
 2235TIP3   OH228339   5.470   0.776   7.106 -0.2472 -0.1286 -0.0608
 2235TIP3    H128340   5.472   0.777   7.011 -2.6673 -1.2378 -0.2015
 2235TIP3    H228341   5.394   0.829   7.129  1.0014  1.1577  1.3564
 2236TIP3   OH228342   3.322   0.395   1.329  0.8509 -0.5012 -0.5361
 2236TIP3    H128343   3.311   0.486   1.355 -2.6247 -0.8803 -0.1807
 2236TIP3    H228344   3.325   0.346   1.411  0.6940 -0.8534 -0.7380
 2237TIP3   OH228345   4.375   6.290   7.367  0.7936  0.1416  0.7630
 2237TIP3    H128346   4.428   6.267   7.290 -0.1806 -0.6885  0.3258
 2237TIP3    H228347   4.356   6.206   7.409 -0.5037  0.3841  0.6906
 2238TIP3   OH228348   3.956   2.632   0.594 -0.2607 -0.2333  0.5674
 2238TIP3    H128349   3.967   2.693   0.521 -1.6143  0.1504  0.6479
 2238TIP3    H228350   3.942   2.688   0.670 -2.5966 -0.5712  0.4736
 2239TIP3   OH228351   4.111   0.223   2.205  0.2273 -0.8816 -0.3157
 2239TIP3    H128352   4.139   0.132   2.191  1.6509 -0.5153 -0.0210
 2239TIP3    H228353   4.103   0.231   2.300 -0.2771 -0.7928 -0.3620
 2240TIP3   OH228354   0.188   2.302   7.789 -0.1666 -0.2073 -1.2428
 2240TIP3    H128355   0.270   2.324   7.833 -0.5034 -1.2145 -0.0455
 2240TIP3    H228356   0.211   2.294   7.697  0.9103  0.3067 -1.0296
 2241TIP3   OH228357   2.861   0.649   0.643  0.2865  0.2721  0.2489
 2241TIP3    H128358   2.933   0.600   0.603  2.0427  1.9744  1.1570
 2241TIP3    H228359   2.902   0.700   0.713 -1.0747  4.1196 -1.4749
 2242TIP3   OH228360   0.985   3.875   7.974 -0.8696  0.1602 -0.7269
 2242TIP3    H128361   0.905   3.888   7.923  0.4179 -0.0081 -2.9158
 2242TIP3    H228362   1.045   3.832   7.913  2.0715  3.3681 -0.3632
 2243TIP3   OH228363   6.081   1.447   0.300  0.0793 -0.0371 -0.3355
 2243TIP3    H128364   6.150   1.422   0.361 -1.5366  1.4204  2.2333
 2243TIP3    H228365   6.094   1.541   0.287  0.4803 -0.3313 -2.4608
 2244TIP3   OH228366   0.155   0.916   7.775  0.4554 -0.0266  0.2619
 2244TIP3    H128367   0.149   1.003   7.813 -2.6371 -1.6308  4.2530
 2244TIP3    H228368   0.095   0.917   7.700  0.3967  1.2110  0.3197
 2245TIP3   OH228369   1.804   4.352   8.273 -0.0998  0.5050  0.2792
 2245TIP3    H128370   1.773   4.331   8.362  0.0500  0.5139  0.3333
 2245TIP3    H228371   1.774   4.278   8.220 -0.2968  0.5579  0.3136
 2246TIP3   OH228372   4.548   1.412   7.892 -0.3653  0.3881  0.1053
 2246TIP3    H128373   4.582   1.323   7.897  0.9905  0.8936  0.4586
 2246TIP3    H228374   4.458   1.403   7.859  0.2865 -0.9696 -1.3986
 2247TIP3   OH228375   6.933   1.671   7.758  0.5352 -0.5054  0.5157
 2247TIP3    H128376   6.959   1.763   7.769  0.7004 -0.0686 -2.4762
 2247TIP3    H228377   7.015   1.622   7.764  0.6143 -0.3209  0.9824
 2248TIP3   OH228378   5.999   0.916   7.889 -0.0077 -0.6772 -0.1840
 2248TIP3    H128379   5.924   0.909   7.948 -0.4627 -1.5705 -0.8450
 2248TIP3    H228380   6.003   1.009   7.867  0.6099 -0.1900  1.7918
 2249TIP3   OH228381   5.546   6.216   1.416 -0.6727 -0.2853 -0.1178
 2249TIP3    H128382   5.573   6.283   1.354  2.3643 -0.1261  1.2375
 2249TIP3    H228383   5.589   6.239   1.498 -0.0048 -3.5137  0.5739
 2250TIP3   OH228384   1.235   4.395   8.128  0.0883 -0.1657  0.0245
 2250TIP3    H128385   1.279   4.375   8.211  3.8206  2.5871 -1.0062
 2250TIP3    H228386   1.291   4.355   8.061 -1.6692 -0.5156 -1.3173
 2251TIP3   OH228387   0.455   2.280   1.678 -0.0112 -0.2514  0.0105
 2251TIP3    H128388   0.502   2.360   1.654  0.1537 -0.3800 -0.0975
 2251TIP3    H228389   0.524   2.217   1.698 -0.1420  0.0505  1.5135
 2252TIP3   OH228390   4.489   5.085   7.538 -0.0615  0.0950 -0.0446
 2252TIP3    H128391   4.414   5.027   7.555 -0.5508  0.8337  0.3764
 2252TIP3    H228392   4.540   5.040   7.471  0.6091 -1.7666  1.6039
 2253TIP3   OH228393   4.487   2.206   7.769 -0.2845 -0.4368  0.5554
 2253TIP3    H128394   4.514   2.114   7.777 -2.0369 -0.8437  2.3528
 2253TIP3    H228395   4.393   2.205   7.783 -0.8323  1.3332 -2.3289
 2254TIP3   OH228396   2.198   0.485   0.909  0.5808 -0.0119  0.3193
 2254TIP3    H128397   2.249   0.521   0.836  4.1714 -2.2129  1.4938
 2254TIP3    H228398   2.168   0.400   0.877 -1.7392  0.8660 -0.0149
 2255TIP3   OH228399   0.484   3.053   1.413  0.1545  0.3734 -0.0405
 2255TIP3    H128400   0.490   2.958   1.428  2.5332  0.3692 -0.6564
 2255TIP3    H228401   0.392   3.067   1.389 -0.1991 -1.8036 -0.2156
 2256TIP3   OH228402   2.802   1.678   6.831 -0.0592 -0.1250 -0.1211
 2256TIP3    H128403   2.735   1.611   6.818  0.0912 -0.3011  0.0023
 2256TIP3    H228404   2.791   1.738   6.757 -0.2752 -0.2168 -0.1638
 2257TIP3   OH228405   4.637   1.952   1.404  0.1331  0.1991  0.1346
 2257TIP3    H128406   4.559   1.961   1.458  1.0816  1.3578  1.3996
 2257TIP3    H228407   4.700   1.905   1.459  1.3332  1.9530  0.3615
 2258TIP3   OH228408   4.743   5.342   1.542 -0.1005  0.0655 -0.2279
 2258TIP3    H128409   4.652   5.322   1.520  0.2053 -1.2304 -0.3636
 2258TIP3    H228410   4.738   5.386   1.627 -0.8225 -0.3928 -0.0217
 2259TIP3   OH228411   2.044   5.610   7.631 -0.2887  0.0287  0.1724
 2259TIP3    H128412   2.087   5.615   7.716  0.1506  0.4633 -0.0673
 2259TIP3    H228413   2.112   5.579   7.571 -0.5282 -0.0462 -0.0657
 2260TIP3   OH228414   3.589   4.068   8.237 -0.2650  0.4340 -0.0173
 2260TIP3    H128415   3.579   4.028   8.323 -0.7302  1.1065  0.2423
 2260TIP3    H228416   3.566   3.998   8.176  0.8354 -0.2892  0.3697
 2261TIP3   OH228417   2.777   2.573   0.185 -0.6982 -0.1709 -0.1696
 2261TIP3    H128418   2.815   2.595   0.100 -1.7561  0.0654 -0.5896
 2261TIP3    H228419   2.835   2.617   0.249 -0.2749  0.1881 -0.7911
 2262TIP3   OH228420   3.787   1.894   8.420 -0.0314 -0.0072 -0.0919
 2262TIP3    H128421   3.881   1.888   8.404 -0.2428 -0.3560 -1.3295
 2262TIP3    H228422   3.772   1.839   8.497  0.7422 -0.1506 -0.0372
 2263TIP3   OH228423   0.103   5.858   7.472  0.1681 -0.4779 -0.1406
 2263TIP3    H128424   0.148   5.924   7.419  0.3527 -0.1561  0.4027
 2263TIP3    H228425   0.046   5.909   7.530  0.0263 -0.8164  0.0232
 2264TIP3   OH228426   3.365   2.303   1.314  0.6199  0.3317 -0.2404
 2264TIP3    H128427   3.378   2.366   1.243  2.7001 -0.8707 -1.0264
 2264TIP3    H228428   3.448   2.304   1.362  0.8671 -2.0022 -0.4941
 2265TIP3   OH228429   4.285   5.578   6.625  0.0254 -0.1921  0.3272
 2265TIP3    H128430   4.291   5.496   6.674  0.4121 -1.3580 -1.5833
 2265TIP3    H228431   4.191   5.592   6.613 -0.0609 -0.0669  1.0870
 2266TIP3   OH228432   0.362   1.065   0.346  0.4456  0.1595 -0.2588
 2266TIP3    H128433   0.309   0.988   0.329  1.2785 -0.1199 -1.7146
 2266TIP3    H228434   0.450   1.031   0.363  0.6572  0.7465 -0.1551
 2267TIP3   OH228435   0.339   4.948   1.340 -0.2638  0.2488  0.2944
 2267TIP3    H128436   0.350   4.859   1.374 -0.7289 -0.0196 -0.2440
 2267TIP3    H228437   0.345   5.004   1.417 -1.8725 -0.3827  0.9116
 2268TIP3   OH228438   6.206   6.307   1.291 -0.2423 -0.3540 -0.1438
 2268TIP3    H128439   6.214   6.311   1.196 -1.9605 -0.8985 -0.3585
 2268TIP3    H228440   6.126   6.357   1.310  0.8445  0.9885  1.1824
 2269TIP3   OH228441   6.634   4.677   7.898  0.1675 -0.2075  0.5491
 2269TIP3    H128442   6.637   4.593   7.945  0.4201 -0.9292 -0.7015
 2269TIP3    H228443   6.568   4.663   7.830  1.5433 -0.0756 -0.8754
 2270TIP3   OH228444   5.302   1.106   1.473  0.7094 -0.4012  0.6239
 2270TIP3    H128445   5.314   1.179   1.534 -2.0410 -0.1424  0.9767
 2270TIP3    H228446   5.327   1.142   1.388  0.7402  0.5150  1.0048
 2271TIP3   OH228447   2.247   0.710   8.035  0.0398 -0.1840 -0.5227
 2271TIP3    H128448   2.170   0.656   8.021  0.6421 -1.2005 -0.0769
 2271TIP3    H228449   2.298   0.663   8.101  0.3902  1.1529  0.2113
 2272TIP3   OH228450   5.460   0.375   0.108 -0.5441  0.2972  0.1675
 2272TIP3    H128451   5.506   0.303   0.153  0.3813 -1.0384 -2.6192
 2272TIP3    H228452   5.414   0.332   0.036 -1.6336  2.3217 -0.4198
 2273TIP3   OH228453   1.724   2.626   1.820  0.8548 -0.6177 -0.0229
 2273TIP3    H128454   1.738   2.598   1.730  0.9195 -1.8584  0.3468
 2273TIP3    H228455   1.631   2.649   1.824  0.9611 -0.1110 -0.5221
 2274TIP3   OH228456   3.052   1.732   3.024 -0.2188 -0.0455  0.0455
 2274TIP3    H128457   3.100   1.772   2.952 -0.3365 -0.7456 -0.4289
 2274TIP3    H228458   3.004   1.660   2.984 -2.7225  1.3724  0.2245
 2275TIP3   OH228459   6.120   4.030   8.256 -0.4476  0.3721 -0.1564
 2275TIP3    H128460   6.035   4.022   8.215  0.2672 -0.6625 -1.5190
 2275TIP3    H228461   6.124   3.957   8.318 -0.0813 -0.3929 -1.0471
 2276TIP3   OH228462   2.675   5.841   8.492  0.1907  0.1673 -0.5650
 2276TIP3    H128463   2.624   5.764   8.467 -0.2587 -0.0718  0.9968
 2276TIP3    H228464   2.612   5.913   8.491 -0.5493 -0.3087  2.4192
 2277TIP3   OH228465   4.113   3.375   2.865 -0.1798  0.0315  0.2184
 2277TIP3    H128466   4.179   3.377   2.796 -2.4131 -0.1355 -2.1182
 2277TIP3    H228467   4.064   3.294   2.848 -1.3786  0.4627  1.4517
 2278TIP3   OH228468   3.235   1.299   6.746  0.0104  0.5068  0.5974
 2278TIP3    H128469   3.247   1.298   6.651 -0.5723 -1.3044  0.5024
 2278TIP3    H228470   3.148   1.261   6.759 -0.1176  1.1937  1.8464
 2279TIP3   OH228471   2.287   6.181   8.409  0.3368 -0.0427 -0.2638
 2279TIP3    H128472   2.330   6.123   8.347 -1.1207 -1.0391 -0.4024
 2279TIP3    H228473   2.230   6.236   8.355  0.1926  0.1197  0.0500
 2280TIP3   OH228474   0.871   5.392   1.111 -0.1934  0.2652  0.2768
 2280TIP3    H128475   0.910   5.311   1.143 -1.1750 -0.0726  0.6360
 2280TIP3    H228476   0.891   5.456   1.179 -0.6328 -0.0068  0.6613
 2281TIP3   OH228477   3.206   2.089   1.242  0.3974 -0.0427 -0.1980
 2281TIP3    H128478   3.277   2.140   1.282  0.4325 -0.7790  0.7041
 2281TIP3    H228479   3.243   2.061   1.158  1.1822 -0.3988  0.2485
 2282TIP3   OH228480   4.811   1.818   0.940  0.5072  0.2960 -0.0356
 2282TIP3    H128481   4.741   1.860   0.891  1.1998  1.1817 -0.3024
 2282TIP3    H228482   4.812   1.863   1.025 -0.1071 -0.6272  0.4838
 2283TIP3   OH228483   6.240   1.799   1.515 -0.1933  0.3732 -0.0190
 2283TIP3    H128484   6.209   1.795   1.605 -0.0528  1.1547  0.0720
 2283TIP3    H228485   6.335   1.784   1.521 -0.0475  1.2351  0.0689
 2284TIP3   OH228486   5.481   2.953   7.841 -0.4350 -0.0958  0.0797
 2284TIP3    H128487   5.550   2.887   7.852 -0.4843 -0.1186  0.2523
 2284TIP3    H228488   5.446   2.936   7.753  0.5445  0.6486 -0.4785
 2285TIP3   OH228489   4.851   4.255   0.300 -0.1036  0.0159 -0.4409
 2285TIP3    H128490   4.851   4.275   0.394  1.5297 -4.2155  0.6624
 2285TIP3    H228491   4.932   4.295   0.268  0.0956  0.2139  0.2798
 2286TIP3   OH228492   0.437   2.837   1.571 -0.2834  0.6151 -0.3351
 2286TIP3    H128493   0.405   2.883   1.648  0.0363  0.4569 -0.1101
 2286TIP3    H228494   0.515   2.791   1.600  0.2000  1.0569 -0.9075
 2287TIP3   OH228495   5.278   4.328   6.534  0.0014  0.3093 -0.0931
 2287TIP3    H128496   5.273   4.420   6.558 -2.0046  0.3826 -0.6430
 2287TIP3    H228497   5.262   4.326   6.440 -0.4190 -0.6272 -0.0198
 2288TIP3   OH228498   5.576   4.963   1.064 -0.2950 -0.7658  0.3537
 2288TIP3    H128499   5.599   4.881   1.108  0.8502 -0.7642 -0.2287
 2288TIP3    H228500   5.613   5.032   1.120 -0.8885 -0.6548  0.6183
 2289TIP3   OH228501   2.797   4.380   0.328 -0.5417  0.1146  0.1000
 2289TIP3    H128502   2.827   4.464   0.294  0.5300 -0.1306  0.3798
 2289TIP3    H228503   2.841   4.315   0.273 -2.9081 -0.3111 -1.4380
 2290TIP3   OH228504   3.300   4.957   0.745 -0.1271  0.3894  0.1960
 2290TIP3    H128505   3.335   5.035   0.787  0.3763 -0.3341  1.1844
 2290TIP3    H228506   3.212   4.947   0.781 -0.1417  0.4336  0.1716
 2291TIP3   OH228507   3.993   0.519   1.881 -0.5467  0.3459  0.2307
 2291TIP3    H128508   3.969   0.427   1.868 -0.5359  0.1072  1.7825
 2291TIP3    H228509   4.082   0.526   1.846 -0.1959 -0.4601  0.9248
 2292TIP3   OH228510   0.386   3.499   7.112 -0.4507 -0.4340  0.2089
 2292TIP3    H128511   0.451   3.568   7.120 -0.4318 -0.2964 -0.9949
 2292TIP3    H228512   0.394   3.468   7.022 -2.3995 -0.0387 -0.1455
 2293TIP3   OH228513   6.554   6.767   7.865 -0.0706  0.2444 -0.0818
 2293TIP3    H128514   6.526   6.836   7.926 -0.5925 -1.4793  1.7372
 2293TIP3    H228515   6.640   6.740   7.897 -0.0636 -0.2370 -0.4995
 2294TIP3   OH228516   4.596   2.965   2.480 -0.4254 -0.3147  0.0822
 2294TIP3    H128517   4.685   2.999   2.474 -0.6242  0.0843 -0.9636
 2294TIP3    H228518   4.579   2.955   2.574 -0.0342  1.6482  0.4005
 2295TIP3   OH228519   0.656   4.972   1.227 -0.6723  0.1612  0.2518
 2295TIP3    H128520   0.631   4.918   1.152  1.2785 -0.2968 -0.1118
 2295TIP3    H228521   0.670   5.059   1.191  1.7799 -0.3878 -0.2750
 2296TIP3   OH228522   4.655   4.771   2.094 -0.4971  0.4152  0.7567
 2296TIP3    H128523   4.629   4.863   2.099  2.1882  1.2820  0.1107
 2296TIP3    H228524   4.751   4.773   2.094 -0.3515 -2.4436  1.5067
 2297TIP3   OH228525   3.638   2.343   2.631  0.0366 -0.1378  0.1056
 2297TIP3    H128526   3.570   2.369   2.693  0.2187 -1.4754  0.9119
 2297TIP3    H228527   3.601   2.362   2.545 -1.7126 -1.5289  0.4897
 2298TIP3   OH228528   0.544   0.310   7.818  0.4223  0.1948  0.3741
 2298TIP3    H128529   0.604   0.287   7.889  0.1124  1.3008  1.0113
 2298TIP3    H228530   0.601   0.323   7.742  0.7939 -0.5503  0.5099
 2299TIP3   OH228531   1.483   3.369   0.099 -0.0006  0.2956  0.7621
 2299TIP3    H128532   1.390   3.346   0.097  0.4952 -1.8445 -0.5375
 2299TIP3    H228533   1.508   3.378   0.007  1.2369  0.0843  1.0577
 2300TIP3   OH228534   5.141   3.496   7.138 -0.5059 -0.2447 -0.3552
 2300TIP3    H128535   5.189   3.498   7.055 -0.0352  2.1221 -0.0923
 2300TIP3    H228536   5.053   3.525   7.115 -0.3501  0.4994 -0.0316
 2301TIP3   OH228537   5.498   6.266   8.467 -0.0805 -0.3167  0.4325
 2301TIP3    H128538   5.579   6.243   8.513  0.6448 -0.6273 -0.9720
 2301TIP3    H228539   5.465   6.183   8.433  0.9149  0.2274 -2.0153
 2302TIP3   OH228540   5.120   0.194   1.133  0.0430 -0.1722 -0.0915
 2302TIP3    H128541   5.180   0.120   1.139  1.2360  0.4082 -3.3418
 2302TIP3    H228542   5.165   0.265   1.178  0.7601 -0.3456 -0.5280
 2303TIP3   OH228543   4.712   3.954   1.877  0.8446 -0.3066  0.2234
 2303TIP3    H128544   4.805   3.976   1.874  0.3613  1.9957  0.1533
 2303TIP3    H228545   4.687   3.970   1.968  0.5233 -0.9897  0.2599
 2304TIP3   OH228546   6.427   1.904   1.729 -0.0525 -0.0009  0.7186
 2304TIP3    H128547   6.345   1.952   1.744  0.8657  1.4119  1.4917
 2304TIP3    H228548   6.433   1.843   1.802  0.2544  0.8853  1.4489
 2305TIP3   OH228549   3.899   1.433   2.759  0.0970  0.2387 -0.0491
 2305TIP3    H128550   3.893   1.491   2.684 -0.6004 -1.7501 -1.6206
 2305TIP3    H228551   3.813   1.436   2.800  0.8895  2.4673  1.6889
 2306TIP3   OH228552   3.979   4.796   0.865  0.0553 -0.1265  0.0284
 2306TIP3    H128553   4.057   4.850   0.862  1.2997 -1.8743 -1.7670
 2306TIP3    H228554   4.008   4.715   0.907 -1.3813 -0.0323  1.2984
 2307TIP3   OH228555   3.951   6.059   8.365 -0.3133 -0.0007 -0.4027
 2307TIP3    H128556   3.866   6.014   8.370  0.0918 -0.8816 -1.3177
 2307TIP3    H228557   3.974   6.075   8.457 -0.4901 -1.6230 -0.0433
 2308TIP3   OH228558   4.655   2.965   8.477 -0.4088 -0.2766  0.1761
 2308TIP3    H128559   4.723   2.940   8.414  0.1211 -0.0761  0.6550
 2308TIP3    H228560   4.574   2.967   8.426 -0.2908 -1.8387 -0.1391
 2309TIP3   OH228561   3.298   1.274   7.229  0.4222 -1.0414 -0.3805
 2309TIP3    H128562   3.207   1.284   7.258  0.6760 -1.0079  0.4282
 2309TIP3    H228563   3.296   1.295   7.136 -0.3804 -0.9341 -0.3442
 2310TIP3   OH228564   0.062   6.734   6.987  0.1295  0.1403  0.1142
 2310TIP3    H128565  -0.026   6.734   6.949  0.4620  2.9970 -0.9029
 2310TIP3    H228566   0.074   6.823   7.019  2.7035 -0.1527  0.1421
 2311TIP3   OH228567   3.692   2.968   7.028  0.2180  0.4094  0.0652
 2311TIP3    H128568   3.647   3.017   6.960  0.0763 -1.9963 -1.7210
 2311TIP3    H228569   3.785   2.978   7.007  0.1665 -0.5683 -0.7506
 2312TIP3   OH228570   3.822   6.300   6.737  0.2224 -0.0691 -0.0257
 2312TIP3    H128571   3.839   6.381   6.689  1.5067 -0.5115 -0.3726
 2312TIP3    H228572   3.827   6.325   6.829 -1.2223  0.5885 -0.1081
 2313TIP3   OH228573   6.387   4.373   5.902  0.5476 -0.2242  0.1173
 2313TIP3    H128574   6.310   4.320   5.881 -0.1921  1.2647 -1.1623
 2313TIP3    H228575   6.353   4.462   5.911  2.1898  0.5991 -1.2479
 2314TIP3   OH228576   1.317   3.643   1.237  0.3294  0.5322  0.1134
 2314TIP3    H128577   1.358   3.611   1.317  1.0573  1.0787 -0.0342
 2314TIP3    H228578   1.248   3.702   1.267  0.2644  0.3393  0.3429
 2315TIP3   OH228579   5.986   4.077   0.052 -0.4148  0.1154  0.5668
 2315TIP3    H128580   6.032   4.118   0.125  0.8330  0.2145 -0.2424
 2315TIP3    H228581   5.948   4.150   0.003 -0.7918  0.0846  0.8088
 2316TIP3   OH228582   3.289   1.767   8.155  0.1749 -0.4712  0.0788
 2316TIP3    H128583   3.338   1.686   8.145  0.7926 -0.2574  1.2617
 2316TIP3    H228584   3.205   1.740   8.191 -0.4493 -0.7897 -1.5276
 2317TIP3   OH228585   1.485   1.685   8.186  0.0431 -0.0324  0.0583
 2317TIP3    H128586   1.505   1.776   8.165 -3.4442  0.1064 -4.1225
 2317TIP3    H228587   1.539   1.634   8.127 -0.9338 -0.4075 -0.5314
 2318TIP3   OH228588   0.012   6.684   1.413  0.4596 -0.4553 -0.6731
 2318TIP3    H128589  -0.025   6.771   1.427 -1.6236 -1.5619  1.3081
 2318TIP3    H228590   0.063   6.667   1.492 -2.3317 -2.4378  0.8957
 2319TIP3   OH228591   5.621   5.186   0.474  0.4263 -0.2933  0.5385
 2319TIP3    H128592   5.540   5.152   0.511 -0.2877  0.3165 -0.4053
 2319TIP3    H228593   5.619   5.280   0.494  1.0211 -0.3172  0.7227
 2320TIP3   OH228594   0.092   5.064   7.017  1.4647  0.1052 -0.3368
 2320TIP3    H128595   0.031   5.030   7.084  2.0150  0.5943  0.4258
 2320TIP3    H228596   0.136   5.137   7.060  1.5291  0.7037 -1.3899
 2321TIP3   OH228597   4.149   6.844   2.537 -0.8328  0.3979  0.0371
 2321TIP3    H128598   4.207   6.805   2.603  1.9274  1.2435 -1.7120
 2321TIP3    H228599   4.147   6.780   2.466 -2.3805  0.2477  0.1771
 2322TIP3   OH228600   6.474   4.019   7.589  0.2784 -0.2963 -0.0738
 2322TIP3    H128601   6.505   4.059   7.671  0.6773 -0.5441 -0.0974
 2322TIP3    H228602   6.379   4.017   7.598  0.1989  1.2787 -0.3729
 2323TIP3   OH228603   6.022   0.295   0.309  0.3400  0.3174  0.3575
 2323TIP3    H128604   5.947   0.301   0.249 -0.1268 -2.2063  0.6048
 2323TIP3    H228605   5.994   0.342   0.387  0.0145  1.5484 -0.4703
 2324TIP3   OH228606   0.306   6.006   2.438 -0.1840 -0.9230 -0.2729
 2324TIP3    H128607   0.281   6.063   2.366 -2.5585  0.5498  1.5731
 2324TIP3    H228608   0.367   6.059   2.490 -1.8949 -0.1870  1.0952
 2325TIP3   OH228609   1.280   4.029   1.982 -0.4165  0.0905  0.3609
 2325TIP3    H128610   1.328   4.042   1.900 -1.7049 -0.2687 -0.4915
 2325TIP3    H228611   1.327   3.959   2.027 -0.0340 -0.1315 -0.3714
 2326TIP3   OH228612   5.060   3.876   1.955  0.3303 -0.2115  0.2464
 2326TIP3    H128613   5.017   3.945   1.904 -0.3981 -0.3144  0.6961
 2326TIP3    H228614   5.018   3.882   2.041 -0.7002 -2.0767 -0.0848
 2327TIP3   OH228615   3.850   1.428   7.425  0.0984  0.2397 -0.2115
 2327TIP3    H128616   3.865   1.407   7.333 -0.5694 -0.6286 -0.1289
 2327TIP3    H228617   3.902   1.364   7.473 -0.4982 -0.0754  0.0219
 2328TIP3   OH228618   6.125   4.927   6.353 -0.3178 -0.1370 -0.0370
 2328TIP3    H128619   6.200   4.948   6.297 -0.4167  0.0011 -0.1172
 2328TIP3    H228620   6.053   4.912   6.292 -0.1822 -0.9816  0.0031
 2329TIP3   OH228621   2.355   1.996   2.437 -0.8528 -0.3136  0.3082
 2329TIP3    H128622   2.411   1.923   2.461  1.1327  0.5536 -1.4093
 2329TIP3    H228623   2.385   2.023   2.350 -3.2387  0.9128 -0.2259
 2330TIP3   OH228624   1.056   1.054   7.581 -0.3678 -0.2011 -0.1171
 2330TIP3    H128625   1.136   1.106   7.585  0.0070 -0.8182  1.9635
 2330TIP3    H228626   1.071   0.991   7.511 -0.2737  1.5412 -1.7408
 2331TIP3   OH228627   1.751   2.895   0.858 -0.1374 -0.1973 -0.0192
 2331TIP3    H128628   1.770   2.804   0.836 -0.0512 -0.4445  1.0515
 2331TIP3    H228629   1.828   2.944   0.827  0.4878 -0.6847  0.7312
 2332TIP3   OH228630   3.800   4.028   0.945  0.0197  0.3034 -0.1542
 2332TIP3    H128631   3.883   4.015   0.897  0.5142  0.9498  0.5086
 2332TIP3    H228632   3.760   3.941   0.947  0.1593  0.1884 -1.4185
 2333TIP3   OH228633   4.932   2.881   0.662 -0.4721  0.1049 -0.1519
 2333TIP3    H128634   4.977   2.861   0.744 -0.3745 -0.3505 -0.3145
 2333TIP3    H228635   4.938   2.976   0.653  0.9919 -0.0041 -0.4811
 2334TIP3   OH228636   3.571   4.181   0.862  0.0757 -0.3806  0.5525
 2334TIP3    H128637   3.572   4.157   0.955  0.6553  0.7083  0.8440
 2334TIP3    H228638   3.560   4.098   0.816 -1.5086 -0.8174  1.6210
 2335TIP3   OH228639   0.998   3.555   0.603  0.1868  0.6471 -0.1955
 2335TIP3    H128640   1.028   3.477   0.651  1.9212 -0.3463 -2.7016
 2335TIP3    H228641   0.930   3.522   0.544 -1.6508  1.7890  1.1753
 2336TIP3   OH228642   3.039   3.378   0.770  0.7598 -0.5354 -0.6643
 2336TIP3    H128643   2.989   3.347   0.695 -0.0059  1.5526 -1.0726
 2336TIP3    H228644   2.973   3.398   0.836  1.3647 -1.3984  0.2489
 2337TIP3   OH228645   3.945   4.105   1.572  0.2122 -0.4395  0.5057
 2337TIP3    H128646   3.948   4.053   1.652  0.0812  0.1691  0.9098
 2337TIP3    H228647   3.998   4.055   1.509 -0.8957 -1.6713  0.5182
 2338TIP3   OH228648   0.311   3.825   1.974 -0.2172  0.2322  0.0896
 2338TIP3    H128649   0.244   3.835   1.907  0.5493 -0.1879 -0.7719
 2338TIP3    H228650   0.392   3.809   1.925  0.8370  2.2247  1.0152
 2339TIP3   OH228651   3.181   1.059   1.139  0.1328  0.4579  0.0491
 2339TIP3    H128652   3.087   1.073   1.153 -0.1083 -2.1493  1.7527
 2339TIP3    H228653   3.214   1.029   1.224  1.9686 -1.0529 -1.1058
 2340TIP3   OH228654   4.223   1.112   7.642 -0.0446  0.2141 -0.2883
 2340TIP3    H128655   4.223   1.047   7.713  2.2435 -2.1107 -2.1961
 2340TIP3    H228656   4.153   1.084   7.584 -1.1387  1.4256  0.3817
 2341TIP3   OH228657   4.063   2.835   1.405  0.0271 -0.0041  0.4130
 2341TIP3    H128658   4.125   2.872   1.342  0.9127  0.7087  1.6529
 2341TIP3    H228659   3.996   2.903   1.416 -0.2705 -0.2341  0.0714
 2342TIP3   OH228660   6.698   1.745   1.913  0.0732  0.0720 -0.1637
 2342TIP3    H128661   6.607   1.718   1.930 -0.1884  0.4811 -0.8585
 2342TIP3    H228662   6.751   1.683   1.963 -0.5808 -0.3800 -0.0100
 2343TIP3   OH228663   4.443   5.319   0.948  0.2912  0.0731 -0.1290
 2343TIP3    H128664   4.461   5.359   1.033  0.7837  1.6128 -0.9275
 2343TIP3    H228665   4.419   5.228   0.969  1.5353  0.0909  1.5600
 2344TIP3   OH228666   0.817   2.540   1.206  0.6406  0.2358 -0.0947
 2344TIP3    H128667   0.852   2.593   1.135  2.5338 -2.1242 -1.0738
 2344TIP3    H228668   0.728   2.518   1.180  1.0642  0.0116 -1.3797
 2345TIP3   OH228669   2.160   0.423   0.005 -0.0607 -0.2549 -0.8634
 2345TIP3    H128670   2.078   0.379   0.028  0.2100 -0.5007 -0.3428
 2345TIP3    H228671   2.170   0.409  -0.089 -1.6778  1.5742 -1.3705
 2346TIP3   OH228672   0.201   4.470   1.606  0.0962  0.3360 -0.2771
 2346TIP3    H128673   0.207   4.381   1.641  0.4691  0.0457 -1.0484
 2346TIP3    H228674   0.286   4.509   1.624  0.2752  0.1991 -0.8142
 2347TIP3   OH228675   6.791   3.877   8.269 -0.0605 -0.4752 -0.0588
 2347TIP3    H128676   6.846   3.956   8.266  0.0403 -0.5033  0.7612
 2347TIP3    H228677   6.842   3.811   8.223  0.0496 -0.1742 -0.3725
 2348TIP3   OH228678   0.267   0.439   0.252 -0.2285  0.4039  0.5743
 2348TIP3    H128679   0.274   0.465   0.160 -2.2415  0.6162  0.4273
 2348TIP3    H228680   0.178   0.466   0.277  0.0126 -0.3492  2.3648
 2349TIP3   OH228681   3.422   0.170   0.859  0.1149 -0.2311 -0.6729
 2349TIP3    H128682   3.351   0.107   0.869  0.6973 -0.7953  0.0994
 2349TIP3    H228683   3.444   0.196   0.948  0.3970  0.4855 -0.9429
 2350TIP3   OH228684   1.810   3.561   0.287  0.2413  0.3883 -0.3364
 2350TIP3    H128685   1.734   3.507   0.307 -1.5770  1.7322 -2.9686
 2350TIP3    H228686   1.814   3.626   0.357 -0.3199 -0.3689  0.4140
 2351TIP3   OH228687   2.104   5.022   2.111  0.3960  0.4434  0.2726
 2351TIP3    H128688   2.168   5.085   2.143  0.2994  2.2761 -2.8109
 2351TIP3    H228689   2.019   5.057   2.139  0.4979 -0.0399  1.2292
 2352TIP3   OH228690   2.362   6.532   2.296 -0.1287 -0.4881 -0.2673
 2352TIP3    H128691   2.433   6.470   2.278  0.6267  0.3084 -0.1541
 2352TIP3    H228692   2.408   6.615   2.312 -1.0631 -0.0774  0.3473
 2353TIP3   OH228693   2.566   0.144   8.548  0.0610  0.1998  0.7258
 2353TIP3    H128694   2.641   0.126   8.491  1.3234  0.6989  2.1377
 2353TIP3    H228695   2.489   0.123   8.495  1.1730  0.2141 -0.9810
 2354TIP3   OH228696   5.082   6.319   8.322  0.8919  0.4424 -0.5126
 2354TIP3    H128697   5.175   6.333   8.339  0.8253  2.5674 -1.5572
 2354TIP3    H228698   5.080   6.265   8.243  1.2114 -0.1909 -0.0980
 2355TIP3   OH228699   4.437   0.826   8.295  0.1041  0.8058  0.0262
 2355TIP3    H128700   4.401   0.850   8.380  1.9973  1.3646  0.7238
 2355TIP3    H228701   4.459   0.733   8.303  2.0371  1.2842  0.8747
 2356TIP3   OH228702   0.290   6.859   0.111  0.0547 -0.6231  0.0336
 2356TIP3    H128703   0.276   6.893   0.200 -0.9136 -0.0248 -0.3234
 2356TIP3    H228704   0.380   6.828   0.111 -0.0553 -1.0216  1.3479
 2357TIP3   OH228705   5.645   3.365   6.876  0.2358 -0.1620  0.0798
 2357TIP3    H128706   5.574   3.359   6.812 -0.0112  1.2992  0.1940
 2357TIP3    H228707   5.709   3.423   6.836  0.2230  0.5243  1.0227
 2358TIP3   OH228708   3.509   4.876   0.882 -0.2383 -0.0734  0.1795
 2358TIP3    H128709   3.561   4.836   0.811  1.9368  0.0587  1.5900
 2358TIP3    H228710   3.420   4.876   0.849  0.1186 -3.2115 -1.1772
 2359TIP3   OH228711   1.292   5.144   8.494 -0.0584 -0.5573 -0.3242
 2359TIP3    H128712   1.354   5.071   8.501  0.3574 -0.1407  0.5110
 2359TIP3    H228713   1.278   5.171   8.585  0.2912  0.8206 -0.6651
 2360TIP3   OH228714   3.992   4.540   6.885 -0.3545  0.6798  0.4915
 2360TIP3    H128715   4.013   4.539   6.791 -1.9244  0.2086  0.1098
 2360TIP3    H228716   3.948   4.457   6.901  0.4995  0.4605  1.8142
 2361TIP3   OH228717   0.734   1.723   7.050 -0.1326 -0.1579 -0.3678
 2361TIP3    H128718   0.794   1.703   7.122 -0.0791  0.0581 -0.3521
 2361TIP3    H228719   0.760   1.664   6.980 -1.0483 -1.3317  0.2393
 2362TIP3   OH228720   0.501   2.041   0.096 -0.3833  0.4658  0.5763
 2362TIP3    H128721   0.481   2.057   0.188 -0.7833 -0.5499  0.6754
 2362TIP3    H228722   0.417   2.054   0.051 -0.5002 -0.3449  0.5388
 2363TIP3   OH228723   1.522   6.512   2.801 -0.3725 -0.0255  0.0124
 2363TIP3    H128724   1.526   6.533   2.894 -1.3736  1.6804 -0.2866
 2363TIP3    H228725   1.448   6.452   2.792 -2.1018  1.9801  0.0238
 2364TIP3   OH228726   4.830   5.660   8.136  0.4971 -0.1799  0.0391
 2364TIP3    H128727   4.742   5.651   8.171 -0.1560  2.1588 -0.8000
 2364TIP3    H228728   4.838   5.590   8.072 -0.5514 -0.7415  0.5017
 2365TIP3   OH228729   3.534   2.918   0.142  0.3090  0.1320 -0.2000
 2365TIP3    H128730   3.443   2.922   0.110  0.0300 -0.4886  0.4963
 2365TIP3    H228731   3.582   2.875   0.072 -0.1410 -0.4780 -0.1425
 2366TIP3   OH228732   5.431   6.690   7.317  0.1448 -0.0154 -0.4307
 2366TIP3    H128733   5.495   6.713   7.250 -0.6129  1.9355 -0.5496
 2366TIP3    H228734   5.475   6.624   7.371  1.6444  0.1264 -1.4301
 2367TIP3   OH228735   4.735   5.777   0.521 -0.0214  0.0024  0.5526
 2367TIP3    H128736   4.721   5.800   0.429 -1.1766  0.7618  0.8952
 2367TIP3    H228737   4.668   5.712   0.540  0.5390 -0.5275  0.7317
 2368TIP3   OH228738   3.137   4.445   1.932 -0.0234  0.0166  0.1588
 2368TIP3    H128739   3.174   4.528   1.903 -2.1539  0.4704 -1.5794
 2368TIP3    H228740   3.087   4.468   2.011  0.2722  0.1586  0.3077
 2369TIP3   OH228741   6.655   6.129   8.245 -0.0860  0.1697  0.0862
 2369TIP3    H128742   6.570   6.170   8.228  0.2488  1.8329  1.9973
 2369TIP3    H228743   6.639   6.071   8.319  0.3868  0.2611  0.2609
 2370TIP3   OH228744   1.857   5.120   0.745  0.4469  0.7530 -0.4427
 2370TIP3    H128745   1.811   5.043   0.711  1.4892 -0.9221  1.6987
 2370TIP3    H228746   1.923   5.138   0.679 -1.1618  1.2013 -2.0063
 2371TIP3   OH228747   5.623   2.888   2.565 -0.6531 -0.1188 -0.3418
 2371TIP3    H128748   5.672   2.966   2.590  0.0901 -0.6597 -0.0771
 2371TIP3    H228749   5.550   2.884   2.626  0.0688 -0.3707  0.5215
 2372TIP3   OH228750   0.609   5.608   1.988 -0.0639  0.1086 -0.0492
 2372TIP3    H128751   0.533   5.656   2.022  0.4880  0.0895  1.2706
 2372TIP3    H228752   0.681   5.671   1.993  0.2774 -0.2766 -0.0572
 2373TIP3   OH228753   4.379   6.592   7.721  0.7906  0.1381 -0.0162
 2373TIP3    H128754   4.334   6.547   7.649  1.4859  0.4489 -0.6473
 2373TIP3    H228755   4.351   6.544   7.799 -1.8554  1.2122 -0.1779
 2374TIP3   OH228756   5.105   2.740   6.356 -0.6247  0.2947 -0.6375
 2374TIP3    H128757   5.118   2.807   6.422 -0.6785  0.0887 -0.4143
 2374TIP3    H228758   5.027   2.692   6.385 -0.7155  0.2730 -0.9089
 2375TIP3   OH228759   2.791   0.110   6.497 -0.2554 -0.1942  0.4109
 2375TIP3    H128760   2.875   0.135   6.535 -1.2065 -0.4348  2.8119
 2375TIP3    H228761   2.745   0.193   6.484  0.6767  0.0467 -1.9640
 2376TIP3   OH228762   0.491   4.232   0.115 -0.1699  0.1972  0.3932
 2376TIP3    H128763   0.544   4.295   0.165  2.0625 -1.1159 -0.1679
 2376TIP3    H228764   0.432   4.193   0.179  0.4517  0.7893  1.3412
 2377TIP3   OH228765   0.154   0.871   1.265 -0.1660  0.1489  0.1093
 2377TIP3    H128766   0.113   0.953   1.290 -1.0164 -0.2448  0.0538
 2377TIP3    H228767   0.097   0.803   1.303  1.4316 -0.4348  1.6588
 2378TIP3   OH228768   4.744   3.101   0.317  0.3695  0.0558 -0.2632
 2378TIP3    H128769   4.774   3.167   0.254 -0.7955 -1.8070 -3.0041
 2378TIP3    H228770   4.823   3.054   0.343  0.8973  0.9397 -0.2401
 2379TIP3   OH228771   4.405   0.211   8.387 -0.1199  0.0493  0.1730
 2379TIP3    H128772   4.470   0.183   8.322 -2.2203 -2.6291 -0.9484
 2379TIP3    H228773   4.325   0.226   8.338 -1.3855 -0.5247  1.9435
 2380TIP3   OH228774   6.707   5.663   1.468  0.0565  0.2636 -0.0740
 2380TIP3    H128775   6.734   5.695   1.382  0.5910  0.2538  0.0890
 2380TIP3    H228776   6.653   5.587   1.449  0.7929 -0.1915 -0.3822
 2381TIP3   OH228777   2.663   0.967   0.951 -0.5080  0.2785 -0.3815
 2381TIP3    H128778   2.679   1.051   0.995  0.9044 -0.9098  1.5182
 2381TIP3    H228779   2.670   0.902   1.020  1.0201 -1.6565 -2.2416
 2382TIP3   OH228780   2.224   5.384   0.722 -0.4147 -0.7133  1.2957
 2382TIP3    H128781   2.150   5.359   0.667 -0.3591 -1.0532  1.3761
 2382TIP3    H228782   2.246   5.305   0.771 -0.1923 -0.5287  1.4951
 2383TIP3   OH228783   1.374   1.135   2.535 -0.2344 -0.0089  0.0807
 2383TIP3    H128784   1.424   1.154   2.456 -0.5358 -0.1984 -0.1576
 2383TIP3    H228785   1.355   1.221   2.572  0.6557  0.0505  0.4244
 2384TIP3   OH228786   5.170   3.784   7.202 -0.0955  0.0971 -0.1247
 2384TIP3    H128787   5.106   3.719   7.232 -0.6711  0.8528  0.3325
 2384TIP3    H228788   5.243   3.732   7.168 -0.2760 -0.7876  0.7808
 2385TIP3   OH228789   3.175   5.536   0.227  0.0770 -0.1032  0.1585
 2385TIP3    H128790   3.236   5.593   0.274 -1.1138  0.9579  0.4533
 2385TIP3    H228791   3.136   5.482   0.296 -1.6535  1.4375  0.4546
 2386TIP3   OH228792   2.123   0.080   7.775 -0.1473  0.2186  0.1597
 2386TIP3    H128793   2.085   0.013   7.832 -1.3984  0.5020 -0.3104
 2386TIP3    H228794   2.056   0.095   7.708  1.4194 -0.4064 -1.6583
 2387TIP3   OH228795   4.670   6.550   1.385 -0.0047  0.3754  0.3167
 2387TIP3    H128796   4.736   6.610   1.418  0.0928 -1.2507  3.4019
 2387TIP3    H228797   4.720   6.479   1.345 -0.0335  0.7342 -0.3781
 2388TIP3   OH228798   2.444   2.539   0.646  0.2824  0.8458  0.8163
 2388TIP3    H128799   2.410   2.597   0.714  1.2598  2.2845  0.1395
 2388TIP3    H228800   2.522   2.500   0.684  1.0704  1.9761  0.4250
 2389TIP3   OH228801   4.545   6.268   7.153  0.5463  0.2811  0.3154
 2389TIP3    H128802   4.519   6.347   7.107 -0.8169 -0.7332 -0.7313
 2389TIP3    H228803   4.590   6.215   7.087  0.6621 -0.1886  0.7658
 2390TIP3   OH228804   1.842   4.163   0.262  0.2075  0.5375  0.0800
 2390TIP3    H128805   1.850   4.243   0.313 -0.9700  1.0807 -0.5480
 2390TIP3    H228806   1.789   4.105   0.317 -2.2960  1.6387 -1.0280
 2391TIP3   OH228807   0.602   0.177   0.330 -0.0918 -0.0242 -0.5287
 2391TIP3    H128808   0.517   0.202   0.368  0.3188  0.5931  0.0149
 2391TIP3    H228809   0.659   0.166   0.406  0.5121  0.3248 -0.9242
 2392TIP3   OH228810   5.749   5.720   0.166  0.2630 -0.1663 -0.2505
 2392TIP3    H128811   5.740   5.766   0.250 -0.5771  0.9074 -0.8908
 2392TIP3    H228812   5.691   5.644   0.175 -1.6229  1.1541 -0.6209
 2393TIP3   OH228813   6.164   6.496   0.208  0.4327 -0.1234 -0.0764
 2393TIP3    H128814   6.219   6.424   0.240  1.0053 -1.2437 -3.1967
 2393TIP3    H228815   6.079   6.455   0.191  0.3072  0.2946 -0.4592
 2394TIP3   OH228816   5.241   0.938   7.110 -0.0370 -0.0633 -0.1728
 2394TIP3    H128817   5.185   1.013   7.131 -0.7706 -0.7775  0.5216
 2394TIP3    H228818   5.180   0.868   7.087  0.5915 -0.6676 -0.0452
 2395TIP3   OH228819   6.676   5.091   0.493  0.1616  0.4086  0.0425
 2395TIP3    H128820   6.587   5.093   0.458  0.6029  1.0367 -1.0771
 2395TIP3    H228821   6.709   5.179   0.479  1.3950 -0.1559 -0.7169
 2396TIP3   OH228822   2.176   2.523   1.521 -0.3311 -0.1989 -0.2660
 2396TIP3    H128823   2.121   2.568   1.585  1.8480  0.0416  1.5743
 2396TIP3    H228824   2.126   2.526   1.440 -2.4430  1.0802  0.9824
 2397TIP3   OH228825   2.885   5.158   1.459 -0.2811 -0.3289  0.2842
 2397TIP3    H128826   2.953   5.142   1.394 -1.7579 -1.7737 -1.0027
 2397TIP3    H228827   2.932   5.165   1.542  1.4575 -0.8770 -0.6052
 2398TIP3   OH228828   3.949   4.282   0.231  0.2465  0.3596  0.4084
 2398TIP3    H128829   3.939   4.268   0.136 -0.9712  0.3245  0.5319
 2398TIP3    H228830   3.892   4.356   0.251 -0.6670 -0.5723  1.3585
 2399TIP3   OH228831   2.899   2.685   1.788  0.5601 -0.3985  0.1675
 2399TIP3    H128832   2.966   2.753   1.799 -1.6682  1.6573  2.0797
 2399TIP3    H228833   2.867   2.668   1.876 -1.8284 -0.8486 -0.7170
 2400TIP3   OH228834   3.740   0.497   6.980 -0.2139  0.5049 -0.3544
 2400TIP3    H128835   3.773   0.572   6.930 -0.1596 -0.7817 -2.3625
 2400TIP3    H228836   3.652   0.522   7.006 -0.4154  1.0522 -1.5023
 2401TIP3   OH228837   0.605   2.050   1.780  0.4977 -0.4504  0.1321
 2401TIP3    H128838   0.598   1.984   1.849  0.8916  1.1239  1.7490
 2401TIP3    H228839   0.698   2.052   1.758  0.1410 -2.3446 -1.9740
 2402TIP3   OH228840   2.936   1.972   0.311  0.1944  0.0185  0.0097
 2402TIP3    H128841   3.027   1.975   0.284  0.6098  0.0092  1.3462
 2402TIP3    H228842   2.925   1.886   0.352 -0.6385 -0.3118 -0.8600
 2403TIP3   OH228843   0.701   2.573   6.416 -0.4531  0.5030 -0.4229
 2403TIP3    H128844   0.645   2.648   6.437 -0.4754  0.1250  0.9611
 2403TIP3    H228845   0.643   2.510   6.374 -0.3427  1.4023 -2.0332
 2404TIP3   OH228846   2.698   2.470   1.105 -0.3328 -0.4852 -0.3426
 2404TIP3    H128847   2.723   2.379   1.119  0.2047 -0.6845 -2.3038
 2404TIP3    H228848   2.605   2.468   1.085 -0.0524 -0.7984 -1.7194
 2405TIP3   OH228849   0.829   2.739   1.019 -0.2644  0.2319 -0.2517
 2405TIP3    H128850   0.863   2.730   0.930  0.0898 -0.5451 -0.0441
 2405TIP3    H228851   0.782   2.822   1.018  1.3630  1.1932 -0.6392
 2406TIP3   OH228852   1.603   1.962   0.699 -0.3229 -0.1812  0.0394
 2406TIP3    H128853   1.638   2.024   0.763  0.9113 -0.7828 -0.0232
 2406TIP3    H228854   1.520   1.933   0.736 -1.7773  2.6797 -0.6598
 2407TIP3   OH228855   1.545   5.059   0.870 -0.3821 -0.0913  0.5670
 2407TIP3    H128856   1.576   5.106   0.793  1.3341  0.1809  1.3702
 2407TIP3    H228857   1.555   5.122   0.942  1.9029 -1.5605  1.6596
 2408TIP3   OH228858   1.388   5.352   6.758 -0.1176  0.3336 -0.0999
 2408TIP3    H128859   1.426   5.439   6.749  1.1136  0.1076  2.1247
 2408TIP3    H228860   1.446   5.294   6.710 -0.1073  0.5554 -0.3534
 2409TIP3   OH228861   3.341   1.310   0.259 -0.2951 -0.2688  0.2073
 2409TIP3    H128862   3.267   1.322   0.318 -0.0413  1.8845  0.1445
 2409TIP3    H228863   3.311   1.243   0.197 -2.5351  1.0813 -0.2901
 2410TIP3   OH228864   5.209   4.095   0.187 -0.1690  0.7895  0.2101
 2410TIP3    H128865   5.210   4.188   0.162  0.4477  0.9930  0.9605
 2410TIP3    H228866   5.207   4.096   0.283  3.9125  0.0701  0.4578
 2411TIP3   OH228867   2.570   1.837   7.382  0.0584 -0.2225 -0.0534
 2411TIP3    H128868   2.499   1.896   7.355  0.8569  1.1196  0.6373
 2411TIP3    H228869   2.547   1.813   7.472  1.3125  1.6805  0.8522
 2412TIP3   OH228870   6.934   3.012   7.624  0.7374 -0.2636 -0.2174
 2412TIP3    H128871   6.857   3.067   7.620  1.2215  0.6207  1.5567
 2412TIP3    H228872   7.006   3.072   7.644  1.2530 -1.4825  2.0161
 2413TIP3   OH228873   6.013   5.584   8.276  0.2944  0.2030  0.3760
 2413TIP3    H128874   6.082   5.533   8.319 -0.7415 -1.4416  0.1799
 2413TIP3    H228875   6.036   5.581   8.183  1.3096  1.8356  0.5462
 2414TIP3   OH228876   5.326   5.959   0.275 -0.2723  0.7580 -0.3451
 2414TIP3    H128877   5.336   5.905   0.354  0.1044  0.7826 -0.3720
 2414TIP3    H228878   5.384   6.034   0.290 -0.9238  1.2519 -0.2300
 2415TIP3   OH228879   5.619   4.357   1.209 -0.0098  0.1832  0.0975
 2415TIP3    H128880   5.568   4.410   1.270 -0.8429  0.4782 -0.8320
 2415TIP3    H228881   5.578   4.270   1.213 -0.4236  0.3499 -0.4515
 2416TIP3   OH228882   3.766   0.519   0.693  0.1975 -0.0690  0.3727
 2416TIP3    H128883   3.730   0.532   0.780  2.6916  0.2325  1.4413
 2416TIP3    H228884   3.700   0.555   0.634 -1.9556 -1.0786  2.0133
 2417TIP3   OH228885   0.578   3.297   6.690  0.5643  0.6973  0.0021
 2417TIP3    H128886   0.585   3.218   6.636  0.7999  0.0871  0.9077
 2417TIP3    H228887   0.632   3.361   6.644  1.8079 -0.1913  0.1624
 2418TIP3   OH228888   6.858   6.135   2.453  0.2433  0.3542 -0.0192
 2418TIP3    H128889   6.838   6.109   2.543 -0.3309 -1.1749 -0.5353
 2418TIP3    H228890   6.781   6.106   2.403  1.7632 -1.6052 -1.4320
 2419TIP3   OH228891   1.100   1.036   2.845  0.7223  0.3843 -0.8193
 2419TIP3    H128892   1.126   0.966   2.786 -0.9939 -0.1117 -1.0345
 2419TIP3    H228893   1.101   0.996   2.932 -3.2066 -0.9572 -1.2000
 2420TIP3   OH228894   4.980   2.701   0.458 -0.0310 -0.1447  0.3289
 2420TIP3    H128895   4.889   2.700   0.429  0.4230  1.1966 -1.2349
 2420TIP3    H228896   4.982   2.764   0.530  0.3555  3.0514 -2.3070
 2421TIP3   OH228897   4.704   5.714   6.704  0.0704 -0.5499 -0.3356
 2421TIP3    H128898   4.768   5.785   6.699  1.2335 -1.4066  1.4470
 2421TIP3    H228899   4.684   5.694   6.612  0.6337  1.2464 -0.8926
 2422TIP3   OH228900   0.191   3.124   1.441  0.4622 -0.0369 -0.4006
 2422TIP3    H128901   0.115   3.070   1.463  1.3883 -2.0587 -1.8547
 2422TIP3    H228902   0.204   3.110   1.347  2.6171  0.2217 -0.1831
 2423TIP3   OH228903   4.915   3.608   2.112  0.2736  0.2074 -0.4293
 2423TIP3    H128904   4.898   3.695   2.147  0.6766  0.2830 -0.4132
 2423TIP3    H228905   4.830   3.578   2.079 -0.0065  0.3349  0.1608
 2424TIP3   OH228906   6.402   4.844   2.176  0.4506  0.0468  0.1982
 2424TIP3    H128907   6.329   4.786   2.154 -1.6406  2.6002 -0.2012
 2424TIP3    H228908   6.480   4.791   2.164 -1.0907 -1.7198 -3.3404
 2425TIP3   OH228909   4.304   6.003   7.354 -0.1564  0.2122 -0.0269
 2425TIP3    H128910   4.299   5.967   7.443 -0.0427 -0.1252 -0.1554
 2425TIP3    H228911   4.218   5.985   7.316 -0.4099  0.8853  0.2101
 2426TIP3   OH228912   1.118   5.942   1.754 -0.1524 -0.3581 -0.2038
 2426TIP3    H128913   1.036   5.959   1.707 -0.1550 -0.1111 -0.1088
 2426TIP3    H228914   1.122   5.846   1.760  0.4853 -0.4700 -1.8497
 2427TIP3   OH228915   5.639   2.318   8.509 -0.4771  0.6092 -0.2508
 2427TIP3    H128916   5.614   2.404   8.545 -0.9391 -0.5607  2.5107
 2427TIP3    H228917   5.673   2.270   8.585  1.0998 -1.2046 -2.0000
 2428TIP3   OH228918   2.911   2.658   8.149  0.0137  0.0940  0.4369
 2428TIP3    H128919   3.000   2.638   8.178 -0.5554 -0.8134  1.6834
 2428TIP3    H228920   2.902   2.752   8.160  0.8300  0.1915  0.2798
 2429TIP3   OH228921   6.489   2.114   7.983  0.5533  0.4664  0.2329
 2429TIP3    H128922   6.511   2.094   7.892  1.1321 -1.1722  0.6989
 2429TIP3    H228923   6.395   2.096   7.989  0.8026 -0.9285  0.3045
 2430TIP3   OH228924   2.918   0.586   0.013  0.1166  0.4167  0.4475
 2430TIP3    H128925   2.911   0.525  -0.061  1.8625  0.4572  0.2096
 2430TIP3    H228926   3.008   0.619   0.008  0.1556  0.6804  2.3967
 2431TIP3   OH228927   2.995   4.414   1.054 -0.3972 -0.3091  0.4165
 2431TIP3    H128928   2.976   4.342   0.994 -2.2136  0.1513  0.3830
 2431TIP3    H228929   3.025   4.485   0.998  1.4994 -0.9986  0.4576
 2432TIP3   OH228930   6.792   3.869   1.699 -0.3478  0.4130 -0.0307
 2432TIP3    H128931   6.801   3.778   1.672  0.2149  0.5807 -0.4074
 2432TIP3    H228932   6.719   3.868   1.761 -0.9768 -0.1378 -0.7617
 2433TIP3   OH228933   3.092   5.253   2.637  0.1050  0.2505 -0.1873
 2433TIP3    H128934   3.129   5.260   2.725  0.7731 -1.7578 -0.2482
 2433TIP3    H228935   3.159   5.208   2.586 -0.1121  1.6919 -1.8666
 2434TIP3   OH228936   2.217   4.700   0.447  0.0071  0.7902  0.3122
 2434TIP3    H128937   2.185   4.675   0.534 -1.7486  0.3638 -0.4242
 2434TIP3    H228938   2.201   4.623   0.393  0.7910  1.1683 -0.4743
 2435TIP3   OH228939   0.293   4.097   1.282  0.0036  0.2218 -0.0985
 2435TIP3    H128940   0.363   4.146   1.324 -0.8477  0.8504  0.6384
 2435TIP3    H228941   0.246   4.055   1.354 -0.3529 -0.2255 -0.5818
 2436TIP3   OH228942   0.961   1.697   6.847 -0.1998 -0.1653  0.3020
 2436TIP3    H128943   0.976   1.770   6.906  0.4573 -0.6886  0.8019
 2436TIP3    H228944   0.993   1.620   6.895  0.3969 -0.5923 -0.7480
 2437TIP3   OH228945   1.727   5.875   8.036 -0.2054 -0.1732  0.0265
 2437TIP3    H128946   1.670   5.829   7.974  0.8699 -2.2427  0.4928
 2437TIP3    H228947   1.778   5.934   7.982 -0.3029 -0.8905 -0.8756
 2438TIP3   OH228948   0.542   1.668   1.291  0.2417  0.1691  0.1534
 2438TIP3    H128949   0.529   1.674   1.197 -1.0462 -0.0827  0.2941
 2438TIP3    H228950   0.466   1.713   1.329  0.9039  0.5410  1.0686
 2439TIP3   OH228951   0.408   5.366   8.529 -0.0980  0.1726 -0.4022
 2439TIP3    H128952   0.320   5.375   8.492 -0.9641 -0.5760  1.3571
 2439TIP3    H228953   0.447   5.453   8.521 -0.7294  0.3453 -1.8210
 2440TIP3   OH228954   6.823   2.735   1.697 -0.4634 -0.4520  0.4279
 2440TIP3    H128955   6.813   2.653   1.649 -0.1648  0.6201 -1.5449
 2440TIP3    H228956   6.823   2.803   1.630  1.1043  1.0476  1.8438
 2441TIP3   OH228957   3.181   1.651   2.152  0.1057  0.4603 -0.4172
 2441TIP3    H128958   3.139   1.599   2.220  1.1027  0.2494  0.0487
 2441TIP3    H228959   3.150   1.612   2.070  0.5177 -0.6326 -0.0768
 2442TIP3   OH228960   1.961   1.593   1.972 -0.1095  0.0035 -0.0738
 2442TIP3    H128961   2.032   1.637   2.020  1.3297  0.8836 -2.7929
 2442TIP3    H228962   1.979   1.499   1.984  0.6079  0.2024  0.5268
 2443TIP3   OH228963   3.711   0.347   1.659  0.0406 -0.0294 -0.5209
 2443TIP3    H128964   3.677   0.258   1.668 -2.6985  0.9911  0.3108
 2443TIP3    H228965   3.718   0.379   1.749  1.9097  0.3245 -0.7579
 2444TIP3   OH228966   2.125   4.506   0.222 -0.4735 -0.1768 -0.0062
 2444TIP3    H128967   2.075   4.581   0.255  1.3341  0.7404  0.7577
 2444TIP3    H228968   2.131   4.521   0.127 -1.1916 -0.0315 -0.0354
 2445TIP3   OH228969   0.061   0.152   7.378  0.6152 -0.7381 -0.6327
 2445TIP3    H128970   0.008   0.200   7.314  0.3320 -2.3710 -1.6831
 2445TIP3    H228971   0.065   0.063   7.343  1.5457 -1.3618  0.9842
 2446TIP3   OH228972   0.603   0.544   8.237 -0.1736 -0.6482  0.3353
 2446TIP3    H128973   0.666   0.531   8.308  0.1373  0.5107  0.2891
 2446TIP3    H228974   0.595   0.458   8.196  0.0062 -1.2231  1.4643
 2447TIP3   OH228975   0.310   2.164   0.836  0.4842  0.1388  0.5304
 2447TIP3    H128976   0.381   2.116   0.877  0.8519 -2.1660 -2.5080
 2447TIP3    H228977   0.287   2.113   0.758 -2.3784  2.4504 -0.3394
 2448TIP3   OH228978   2.545   6.539   1.248 -0.0627 -0.5520  0.1993
 2448TIP3    H128979   2.559   6.629   1.279 -1.7859 -0.3360  0.4419
 2448TIP3    H228980   2.528   6.489   1.328  2.7621 -1.5589  0.2925
 2449TIP3   OH228981   1.756   4.846   0.619 -0.3142 -0.8026 -0.2353
 2449TIP3    H128982   1.783   4.812   0.704 -0.0874  1.2228  0.5647
 2449TIP3    H228983   1.683   4.790   0.592 -0.4786 -1.4029  1.3638
 2450TIP3   OH228984   1.812   5.946   1.168  0.2758 -0.5082  0.4586
 2450TIP3    H128985   1.826   6.029   1.213 -0.0565 -1.2529  1.9938
 2450TIP3    H228986   1.717   5.938   1.163  0.2243  0.6009 -2.4587
 2451TIP3   OH228987   5.718   1.848   0.800  0.1642 -0.3641 -0.0423
 2451TIP3    H128988   5.633   1.882   0.773  0.5869  0.4758 -0.3581
 2451TIP3    H228989   5.782   1.909   0.761  0.8309  0.8020  2.5976
 2452TIP3   OH228990   3.984   6.589   0.911 -0.4336  0.3345  0.3753
 2452TIP3    H128991   3.897   6.563   0.880  0.2799 -0.0618 -1.4267
 2452TIP3    H228992   4.036   6.509   0.905  0.9767  1.3138 -2.1519
 2453TIP3   OH228993   2.098   2.097   0.935 -0.9110 -0.1596  0.2729
 2453TIP3    H128994   2.058   2.173   0.892 -0.0168 -0.1195 -0.5475
 2453TIP3    H228995   2.171   2.074   0.877 -0.5574 -1.0188  1.0469
 2454TIP3   OH228996   2.349   6.270   7.381 -0.1598  0.5689  0.3288
 2454TIP3    H128997   2.358   6.365   7.387  0.4054  0.6022 -0.7717
 2454TIP3    H228998   2.363   6.251   7.288 -1.0247 -0.5136  0.4011
 2455TIP3   OH228999   3.746   2.153   1.661  0.3217 -0.2158  0.5405
 2455TIP3    H129000   3.748   2.243   1.694 -0.1428 -0.1800  0.4786
 2455TIP3    H229001   3.789   2.158   1.576  2.0254 -0.4116  1.3662
 2456TIP3   OH229002   0.798   3.806   7.742 -0.1019 -0.3381  0.3266
 2456TIP3    H129003   0.741   3.883   7.745 -2.6599 -2.1384  1.5858
 2456TIP3    H229004   0.816   3.793   7.649 -1.4401  0.5289 -0.0773
 2457TIP3   OH229005   5.177   6.259   1.956 -0.0849 -0.4004  0.9907
 2457TIP3    H129006   5.120   6.199   1.908 -0.9659  0.5757  0.7829
 2457TIP3    H229007   5.138   6.264   2.043 -0.9549  1.0331  0.5655
 2458TIP3   OH229008   1.177   6.811   1.622  0.3223 -0.7484 -0.4932
 2458TIP3    H129009   1.160   6.721   1.648 -0.1394 -0.7832 -0.8942
 2458TIP3    H229010   1.142   6.864   1.693  0.1464 -0.8748 -0.4846
 2459TIP3   OH229011   6.011   2.878   7.993 -0.4680 -0.4984 -0.0768
 2459TIP3    H129012   6.001   2.941   8.064 -4.2309  1.7916 -2.2878
 2459TIP3    H229013   6.064   2.923   7.928 -0.3105 -1.0298 -0.3236
 2460TIP3   OH229014   3.683   6.562   7.776 -0.0940 -0.9644 -0.1867
 2460TIP3    H129015   3.594   6.562   7.742 -0.5440 -2.0324  0.9437
 2460TIP3    H229016   3.676   6.601   7.863  0.5136 -1.2373 -0.0098
 2461TIP3   OH229017   1.726   2.073   8.215  0.1406 -0.1325  0.6003
 2461TIP3    H129018   1.636   2.063   8.245 -0.3169  0.4780 -0.5156
 2461TIP3    H229019   1.764   2.139   8.273 -0.3031  0.0346  0.7006
 2462TIP3   OH229020   1.219   6.456   0.342  0.1377  0.5717  0.1382
 2462TIP3    H129021   1.168   6.537   0.343 -1.2139 -0.2456  0.0738
 2462TIP3    H229022   1.229   6.433   0.434  0.0531  0.5172  0.1331
 2463TIP3   OH229023   3.083   1.751   7.702  0.1576  0.2750 -0.1623
 2463TIP3    H129024   3.052   1.839   7.679 -1.9621 -0.4542 -0.3553
 2463TIP3    H229025   3.065   1.699   7.624 -1.6402 -0.9922  1.0246
 2464TIP3   OH229026   0.920   5.687   2.315 -0.4250 -0.7723 -0.5717
 2464TIP3    H129027   0.904   5.764   2.261  1.0114  0.7004  0.9720
 2464TIP3    H229028   0.843   5.679   2.371 -0.0375  0.3975  0.1685
 2465TIP3   OH229029   1.442   0.447   1.076 -0.4417  0.7002 -0.6720
 2465TIP3    H129030   1.407   0.358   1.077  0.1323  0.4720 -0.1294
 2465TIP3    H229031   1.446   0.473   1.168  2.2973  0.0996 -0.5283
 2466TIP3   OH229032   6.267   6.266   0.323  0.2834  0.3515  0.5188
 2466TIP3    H129033   6.217   6.200   0.275  0.0149  0.6268  0.4126
 2466TIP3    H229034   6.357   6.234   0.321  0.1677  0.0269  0.4035
 2467TIP3   OH229035   6.284   5.024   7.282  0.4902  0.5600 -0.4216
 2467TIP3    H129036   6.338   4.964   7.334  1.1999  0.7147 -0.9711
 2467TIP3    H229037   6.335   5.105   7.279  0.2825  0.6706 -1.0474
 2468TIP3   OH229038   1.948   5.477   1.211 -0.0306 -0.0196 -0.4799
 2468TIP3    H129039   1.959   5.481   1.115 -2.2368  0.5444 -0.7526
 2468TIP3    H229040   1.964   5.567   1.240 -1.7153  0.3690 -0.6520
 2469TIP3   OH229041   3.268   3.637   1.330  1.1785  0.1403 -0.4046
 2469TIP3    H129042   3.262   3.575   1.257 -2.1361  1.1607 -1.1592
 2469TIP3    H229043   3.278   3.582   1.407  0.1701 -1.2490 -1.2207
 2470TIP3   OH229044   4.838   4.534   7.104  0.4163  0.1047 -0.0851
 2470TIP3    H129045   4.911   4.582   7.142  0.9065  0.3922 -1.3375
 2470TIP3    H229046   4.875   4.448   7.082  0.6172  0.5290 -1.4693
 2471TIP3   OH229047   4.134   0.199   2.496  0.6009  0.3623  0.2836
 2471TIP3    H129048   4.045   0.228   2.518  0.0822 -0.4923 -0.5983
 2471TIP3    H229049   4.143   0.114   2.539  1.3059  0.8047  1.0393
 2472TIP3   OH229050   3.479   6.732   1.510  0.4797  0.0563  0.0438
 2472TIP3    H129051   3.485   6.715   1.604  0.6585 -0.6630 -0.0874
 2472TIP3    H229052   3.396   6.693   1.483  0.1432  0.7872  0.0054
 2473TIP3   OH229053   0.125   0.105   2.466 -0.0306 -0.0604  0.0681
 2473TIP3    H129054   0.180   0.183   2.470  0.4175 -0.2271 -1.7732
 2473TIP3    H229055   0.187   0.033   2.458 -0.4763 -0.4320 -0.0415
 2474TIP3   OH229056   6.424   5.863   8.370 -0.5017  0.1084 -0.3156
 2474TIP3    H129057   6.354   5.883   8.432 -0.6973 -1.8156  0.1513
 2474TIP3    H229058   6.504   5.893   8.414 -0.7749  0.0098  0.2525
 2475TIP3   OH229059   4.691   5.964   1.119 -0.3878 -0.3600  0.3360
 2475TIP3    H129060   4.785   5.966   1.103 -0.4430 -0.4742 -0.0057
 2475TIP3    H229061   4.655   5.911   1.048 -0.6109 -1.0549  0.9515
 2476TIP3   OH229062   5.490   1.854   1.959  0.4396 -0.1797  0.2047
 2476TIP3    H129063   5.535   1.899   1.888 -1.5462  0.6914 -0.5386
 2476TIP3    H229064   5.418   1.912   1.984 -0.1602 -1.4206  1.5209
 2477TIP3   OH229065   3.401   4.253   8.145  0.0590  0.1469 -1.0404
 2477TIP3    H129066   3.457   4.181   8.173  1.6919  1.2573 -1.2839
 2477TIP3    H229067   3.416   4.322   8.210  0.3446  1.0866 -2.0736
 2478TIP3   OH229068   4.700   2.683   8.025  0.0836  0.0218 -0.5263
 2478TIP3    H129069   4.713   2.767   7.981  2.0837  0.2326  0.3962
 2478TIP3    H229070   4.762   2.624   7.982 -2.2689 -1.4444 -2.1497
 2479TIP3   OH229071   1.687   5.927   2.121  0.6123  0.1758 -0.4052
 2479TIP3    H129072   1.676   5.941   2.026 -0.0396  0.9396 -0.2328
 2479TIP3    H229073   1.679   6.015   2.159 -0.7316 -0.3025  0.4923
 2480TIP3   OH229074   0.617   3.445   1.624 -0.2590 -0.4292 -0.0862
 2480TIP3    H129075   0.702   3.490   1.627 -1.3244  1.7822 -0.8248
 2480TIP3    H229076   0.637   3.359   1.585  1.7835 -0.4422  0.8411
 2481TIP3   OH229077   5.287   6.536   1.631  0.4096  0.1683  0.2895
 2481TIP3    H129078   5.309   6.548   1.724  0.1119  0.8536  0.2792
 2481TIP3    H229079   5.367   6.561   1.585  1.2405 -2.0640  0.4053
 2482TIP3   OH229080   3.988   4.180   8.062  0.1752 -0.1810  0.1801
 2482TIP3    H129081   3.963   4.219   7.978 -1.7924  0.8164  1.1767
 2482TIP3    H229082   4.066   4.229   8.088 -0.8662  1.5076  0.2614
 2483TIP3   OH229083   6.444   3.328   8.496 -0.7287  0.0580  0.0693
 2483TIP3    H129084   6.508   3.396   8.476 -2.5689  1.9126  0.0926
 2483TIP3    H229085   6.369   3.349   8.441 -0.9842 -2.6662 -0.7476
 2484TIP3   OH229086   4.349   2.062   8.283  0.2001  0.6585 -0.0994
 2484TIP3    H129087   4.367   2.016   8.201 -0.1865 -3.1884  1.7610
 2484TIP3    H229088   4.256   2.085   8.278 -0.8129 -2.7768  0.5157
 2485TIP3   OH229089   5.253   4.408   7.625 -0.0753  0.1054  0.4699
 2485TIP3    H129090   5.182   4.416   7.561  0.0861  2.3383  0.4788
 2485TIP3    H229091   5.322   4.361   7.578 -1.3473 -1.7360  0.3247
 2486TIP3   OH229092   4.442   0.372   0.675  0.5817 -0.7000  0.2654
 2486TIP3    H129093   4.480   0.323   0.602 -0.1315 -1.8224  0.6251
 2486TIP3    H229094   4.373   0.315   0.708  0.5130  0.0522  1.4524
 2487TIP3   OH229095   5.796   5.696   7.735 -0.8643 -0.4571 -0.4510
 2487TIP3    H129096   5.762   5.757   7.800 -0.0863 -0.5417  0.0428
 2487TIP3    H229097   5.878   5.734   7.707 -1.5969  0.0295 -2.0478
 2488TIP3   OH229098   0.460   5.476   1.217 -0.1065 -0.2768 -0.4400
 2488TIP3    H129099   0.436   5.384   1.204  1.6265 -0.9612  0.7405
 2488TIP3    H229100   0.465   5.512   1.129 -0.1878 -1.4941 -0.9676
 2489TIP3   OH229101   6.368   3.118   7.938  0.6002  0.4276 -0.5367
 2489TIP3    H129102   6.458   3.088   7.932  0.3865 -0.4536  0.2906
 2489TIP3    H229103   6.315   3.039   7.927 -0.0092  0.6386  0.6320
 2490TIP3   OH229104   1.491   5.177   1.580  0.2595  0.2163  0.2691
 2490TIP3    H129105   1.415   5.149   1.530  0.4887  0.2605 -0.1080
 2490TIP3    H229106   1.500   5.112   1.649 -1.2611  1.2217  1.5033
 2491TIP3   OH229107   1.280   0.497   0.858 -0.2062 -0.0992  0.5959
 2491TIP3    H129108   1.332   0.516   0.936 -0.6166  0.0377  0.8383
 2491TIP3    H229109   1.326   0.424   0.816  2.0742  2.1071 -1.0006
 2492TIP3   OH229110   2.240   5.536   2.407 -0.5441  0.8934 -0.0853
 2492TIP3    H129111   2.205   5.572   2.489  0.4137 -0.7066  1.0756
 2492TIP3    H229112   2.326   5.578   2.398 -0.4915  0.7873 -0.0730
 2493TIP3   OH229113   4.444   0.458   6.863 -0.2834 -0.8160  0.3474
 2493TIP3    H129114   4.358   0.421   6.845  0.3820 -0.9644 -3.4210
 2493TIP3    H229115   4.441   0.546   6.825  1.3055 -1.0149 -0.3300
 2494TIP3   OH229116   0.771   5.450   0.074  0.3089 -0.0091  0.6349
 2494TIP3    H129117   0.691   5.399   0.084 -1.0723  1.4950 -1.7752
 2494TIP3    H229118   0.759   5.526   0.130 -0.0558  0.3186  0.1157
 2495TIP3   OH229119   4.290   2.123   1.384  0.4185  0.5170 -0.0834
 2495TIP3    H129120   4.360   2.172   1.341  1.0851  0.5360  0.9776
 2495TIP3    H229121   4.255   2.183   1.450  0.4462 -0.0231  0.4293
 2496TIP3   OH229122   6.175   3.737   0.462  0.2688 -0.2091 -0.2281
 2496TIP3    H129123   6.265   3.762   0.441  0.2887 -0.4113 -0.3969
 2496TIP3    H229124   6.165   3.758   0.555  0.0023  1.2189 -0.5599
 2497TIP3   OH229125   0.303   0.442   0.982 -0.2046 -0.2099 -0.0802
 2497TIP3    H129126   0.332   0.380   1.048 -1.5851 -3.5278 -2.3336
 2497TIP3    H229127   0.230   0.488   1.023  0.7465 -0.1156  1.5973
 2498TIP3   OH229128   3.177   0.253   1.536 -0.3270 -0.1232 -0.5627
 2498TIP3    H129129   3.093   0.291   1.562 -0.3094  1.1390 -2.1241
 2498TIP3    H229130   3.239   0.289   1.599 -0.6467  0.7683 -0.7276
 2499TIP3   OH229131   6.461   1.995   6.699 -0.4982  0.2907  0.4178
 2499TIP3    H129132   6.419   2.065   6.649 -0.2877 -0.3746 -0.7432
 2499TIP3    H229133   6.534   1.968   6.643 -1.0860 -1.4259  0.4286
 2500TIP3   OH229134   1.561   6.389   2.164  0.1486 -0.3261 -0.1119
 2500TIP3    H129135   1.617   6.315   2.185  1.5858  0.4613 -1.0413
 2500TIP3    H229136   1.576   6.451   2.235  0.0802 -0.3099 -0.1113
 2501TIP3   OH229137   5.246   2.505   7.535 -0.6053 -0.0390  0.3974
 2501TIP3    H129138   5.329   2.464   7.556  0.3180  1.4555 -0.1507
 2501TIP3    H229139   5.251   2.524   7.441 -2.0356 -0.9013  0.1027
 2502TIP3   OH229140   0.172   2.862   8.539 -0.0394  0.7067 -0.2474
 2502TIP3    H129141   0.227   2.830   8.468 -2.7347 -0.5660 -1.9166
 2502TIP3    H229142   0.157   2.955   8.519 -1.6689  0.1088 -2.0661
 2503TIP3   OH229143   3.252   6.148   1.022  0.2373 -0.4178  0.1123
 2503TIP3    H129144   3.169   6.158   1.067  0.7249  0.8891  0.7603
 2503TIP3    H229145   3.234   6.174   0.932 -0.1029 -0.3798  0.1912
 2504TIP3   OH229146   4.255   6.393   7.887 -0.1605  0.2878 -0.0477
 2504TIP3    H129147   4.188   6.401   7.954  0.4952  1.4022  0.4937
 2504TIP3    H229148   4.211   6.349   7.814 -2.0133  2.5353 -0.4036
 2505TIP3   OH229149   0.718   2.507   7.894 -0.3587  0.4660  0.4088
 2505TIP3    H129150   0.803   2.465   7.889 -0.3717  0.3071  1.4032
 2505TIP3    H229151   0.720   2.574   7.825 -0.5994 -1.5729 -1.6715
 2506TIP3   OH229152   3.756   1.325   2.509 -0.3741  0.3114  0.0047
 2506TIP3    H129153   3.668   1.307   2.542 -0.1269  0.3137  0.6760
 2506TIP3    H229154   3.778   1.411   2.546  0.5931 -0.4623  1.2729
 2507TIP3   OH229155   6.899   2.864   1.191  0.2506  0.1351  0.8548
 2507TIP3    H129156   6.811   2.830   1.170  1.1011 -2.4451  1.1558
 2507TIP3    H229157   6.889   2.906   1.276 -0.6963 -0.0919  0.8684
 2508TIP3   OH229158   1.087   5.528   8.320 -0.5221  0.1300  0.6135
 2508TIP3    H129159   1.046   5.584   8.386  1.7536  1.5057  0.9573
 2508TIP3    H229160   1.174   5.565   8.308  0.2085 -1.9248 -0.9584
 2509TIP3   OH229161   5.997   4.911   0.499 -1.0029 -0.0177  0.3372
 2509TIP3    H129162   5.926   4.950   0.448 -0.9717  0.4202  0.6257
 2509TIP3    H229163   6.061   4.882   0.433 -1.3725 -0.2671  0.0868
 2510TIP3   OH229164   3.139   4.659   0.061  0.0933  0.2082 -0.3674
 2510TIP3    H129165   3.110   4.749   0.073  1.2184  0.6211 -0.5557
 2510TIP3    H229166   3.137   4.646  -0.034 -1.3546 -0.4382 -0.2769
 2511TIP3   OH229167   1.213   4.546   0.539 -0.0122  0.5057  0.0313
 2511TIP3    H129168   1.263   4.466   0.552  0.9040  0.8263 -1.3688
 2511TIP3    H229169   1.176   4.565   0.625  0.6881 -0.7867  0.6441
 2512TIP3   OH229170   4.152   3.505   7.610  0.3246 -0.1667 -0.2141
 2512TIP3    H129171   4.180   3.597   7.608 -0.1914  0.0130  0.4572
 2512TIP3    H229172   4.165   3.478   7.700  3.0695 -1.6048 -0.9111
 2513TIP3   OH229173   5.631   2.049   6.365 -0.0360  0.3300 -0.0159
 2513TIP3    H129174   5.711   2.079   6.321  0.3711 -0.3947  0.2032
 2513TIP3    H229175   5.618   2.111   6.437  0.1917  0.5925 -0.1977
 2514TIP3   OH229176   5.226   0.666   0.064  0.1797  0.7281  0.3756
 2514TIP3    H129177   5.220   0.761   0.073 -0.6678  1.1794 -3.3069
 2514TIP3    H229178   5.293   0.653  -0.004  0.8078 -1.3775  1.3247
 2515TIP3   OH229179   2.405   2.928   1.369  0.0058  0.6691 -0.1572
 2515TIP3    H129180   2.468   2.867   1.329  0.2845 -0.2371  1.5723
 2515TIP3    H229181   2.459   3.002   1.397  0.1374  0.4275  0.2486
 2516TIP3   OH229182   5.860   1.774   1.810  0.4017 -0.5290 -0.1014
 2516TIP3    H129183   5.859   1.807   1.900  0.4145 -0.1889 -0.2243
 2516TIP3    H229184   5.824   1.846   1.758  1.1970 -0.3869 -0.4783
 2517TIP3   OH229185   3.010   0.039   7.702  0.3658 -0.1827  0.6209
 2517TIP3    H129186   2.947   0.075   7.640  2.9271 -0.5609 -2.4445
 2517TIP3    H229187   3.054   0.116   7.738 -0.8330  0.0181  1.7395
 2518TIP3   OH229188   6.499   4.979   7.048 -0.5188 -0.0776  0.3428
 2518TIP3    H129189   6.437   4.929   6.994  0.5937 -0.5736 -0.5346
 2518TIP3    H229190   6.479   5.070   7.029 -0.9135 -0.2335 -0.0087
 2519TIP3   OH229191   5.050   5.711   8.308  0.4026  0.0073 -0.0010
 2519TIP3    H129192   4.973   5.687   8.256  0.7925  1.2661 -1.2248
 2519TIP3    H229193   5.124   5.697   8.248  0.7795  2.5159 -0.2109
 2520TIP3   OH229194   0.889   0.638   1.649  0.6328 -0.6434 -0.0410
 2520TIP3    H129195   0.975   0.681   1.653  0.0183  0.5836  0.7719
 2520TIP3    H229196   0.833   0.702   1.605 -0.6012 -0.0376  2.2708
 2521TIP3   OH229197   6.875   3.979   0.575 -0.4816  0.0922 -0.3010
 2521TIP3    H129198   6.896   4.007   0.664 -1.4009  1.1926 -0.4136
 2521TIP3    H229199   6.880   3.884   0.578 -2.3674  0.0003  1.4174
 2522TIP3   OH229200   0.949   4.196   6.908 -0.2178  0.5541 -0.2502
 2522TIP3    H129201   0.866   4.191   6.957 -0.5358  0.7999 -0.7519
 2522TIP3    H229202   0.922   4.193   6.816  0.3508  0.4132 -0.4131
 2523TIP3   OH229203   1.984   2.488   8.569  0.8340 -0.1543  0.2218
 2523TIP3    H129204   2.012   2.560   8.513  0.4814 -0.4467 -0.3327
 2523TIP3    H229205   1.940   2.531   8.643  0.1088  0.1853 -0.3953
 2524TIP3   OH229206   6.938   0.290   0.078 -0.4064 -0.5383 -0.1907
 2524TIP3    H129207   6.941   0.385   0.068 -0.0222 -0.3328  1.5413
 2524TIP3    H229208   6.854   0.265   0.041 -0.2822  0.4019 -1.1624
 2525TIP3   OH229209   4.244   1.772   1.230 -0.1756  0.3853  0.4591
 2525TIP3    H129210   4.329   1.804   1.259  0.6009  0.5002 -1.7306
 2525TIP3    H229211   4.222   1.827   1.155 -2.1415  0.2658  0.8755
 2526TIP3   OH229212   5.555   2.375   1.055 -0.3356 -0.2110  0.2440
 2526TIP3    H129213   5.464   2.346   1.063 -1.9225  4.2561  1.6705
 2526TIP3    H229214   5.596   2.349   1.137 -0.8472 -0.8256  0.3093
 2527TIP3   OH229215   4.848   4.209   7.510  0.2696  0.3494  0.2879
 2527TIP3    H129216   4.881   4.283   7.458  0.9462  0.7749  1.2962
 2527TIP3    H229217   4.798   4.250   7.581  2.3819  0.0063  2.0890
 2528TIP3   OH229218   2.868   3.124   1.931 -0.1599 -0.3064 -0.5313
 2528TIP3    H129219   2.899   3.191   1.870  1.8135 -1.9001 -1.3875
 2528TIP3    H229220   2.939   3.114   1.994 -0.7513 -1.0733  0.0307
 2529TIP3   OH229221   4.924   5.834   1.904  0.1135 -0.2987  0.2498
 2529TIP3    H129222   4.941   5.754   1.855 -1.8024  0.0261 -1.0389
 2529TIP3    H229223   4.915   5.806   1.995 -0.0909 -1.4704 -0.1208
 2530TIP3   OH229224   5.997   2.019   1.133  0.4142  0.4743  0.2236
 2530TIP3    H129225   6.071   1.975   1.174 -0.8854 -0.7436  1.3589
 2530TIP3    H229226   5.948   2.057   1.206 -0.8173  0.0648 -0.3622
 2531TIP3   OH229227   6.677   5.272   2.259 -0.4076 -0.1265  0.0227
 2531TIP3    H129228   6.725   5.190   2.265 -0.2631 -0.1851 -1.6315
 2531TIP3    H229229   6.615   5.260   2.187 -0.1758  1.3009 -0.4602
 2532TIP3   OH229230   0.568   0.712   0.140  0.6731 -0.0280 -0.0376
 2532TIP3    H129231   0.649   0.732   0.186 -0.8084  0.6090  2.4988
 2532TIP3    H229232   0.549   0.621   0.162  0.3794  0.0291 -0.0431
 2533TIP3   OH229233   6.028   0.612   1.563  0.2248  0.0973 -0.1442
 2533TIP3    H129234   6.048   0.520   1.547 -1.7983 -0.6014  0.9168
 2533TIP3    H229235   6.006   0.616   1.656  0.3535  1.6657 -0.1516
 2534TIP3   OH229236   4.318   6.503   8.250 -0.9349  0.0317  0.9476
 2534TIP3    H129237   4.288   6.561   8.320 -1.1718  0.4713  0.4831
 2534TIP3    H229238   4.246   6.502   8.187  0.1169  1.3205 -0.3215
 2535TIP3   OH229239   3.757   1.201   0.126  0.6364  0.2647  0.4291
 2535TIP3    H129240   3.745   1.128   0.188 -0.4899  1.4043  1.6123
 2535TIP3    H229241   3.846   1.189   0.092  0.1769 -2.1329 -0.0791
 2536TIP3   OH229242   1.955   2.757   1.869 -0.0378  0.3471 -0.2624
 2536TIP3    H129243   1.971   2.763   1.775 -0.3787  0.5179 -0.3132
 2536TIP3    H229244   1.877   2.701   1.876  1.0591 -1.1959  0.0223
 2537TIP3   OH229245   5.101   2.305   7.626 -0.1109  0.0502  0.6890
 2537TIP3    H129246   5.132   2.389   7.591 -1.4576  0.4420  0.3917
 2537TIP3    H229247   5.145   2.297   7.711  0.7067  0.6262  0.3367
 2538TIP3   OH229248   6.325   0.687   1.386  0.1071  0.7992  0.1359
 2538TIP3    H129249   6.289   0.754   1.328 -0.2171 -0.5237 -1.2978
 2538TIP3    H229250   6.292   0.604   1.349  2.6986 -0.3359  0.1391
 2539TIP3   OH229251   5.931   6.676   7.850  0.5383 -0.0501 -0.1200
 2539TIP3    H129252   5.996   6.661   7.919 -0.5075  0.8440  1.1265
 2539TIP3    H229253   5.849   6.687   7.898 -0.6227 -1.5411 -1.6753
 2540TIP3   OH229254   4.807   1.740   1.781  0.2861  0.0338 -0.0496
 2540TIP3    H129255   4.790   1.832   1.804 -2.2542 -0.6778  1.2086
 2540TIP3    H229256   4.723   1.707   1.751  0.7172 -2.3448  1.1316
 2541TIP3   OH229257   2.958   6.077   2.167  0.0182 -0.2500  0.2347
 2541TIP3    H129258   2.875   6.125   2.169  0.2064  0.0375  1.4703
 2541TIP3    H229259   3.009   6.112   2.239  0.6711 -1.4051  0.3664
 2542TIP3   OH229260   5.938   5.947   1.167  0.0072  0.4641 -0.1133
 2542TIP3    H129261   5.978   5.925   1.251 -0.1173 -0.0982 -0.1946
 2542TIP3    H229262   6.013   5.969   1.111  0.0527  1.3395  0.2811
 2543TIP3   OH229263   4.251   1.386   0.057 -0.2369 -0.3301  0.3059
 2543TIP3    H129264   4.278   1.476   0.040 -1.9675  0.7427  2.8037
 2543TIP3    H229265   4.329   1.334   0.035  1.0126  1.7718 -0.6099
 2544TIP3   OH229266   4.464   6.087   0.126 -0.0458 -0.2686 -1.4717
 2544TIP3    H129267   4.412   6.047   0.057 -0.0182 -0.1465 -1.5646
 2544TIP3    H229268   4.553   6.057   0.110  0.0014 -0.0413 -1.6385
 2545TIP3   OH229269   6.230   0.225   0.504  0.2586 -0.0391 -0.4852
 2545TIP3    H129270   6.228   0.174   0.423  0.9877 -0.2753 -0.3591
 2545TIP3    H229271   6.201   0.313   0.478  0.8600 -0.0162 -1.0733
 2546TIP3   OH229272   5.172   0.119   0.516 -0.5028  0.2708 -0.2220
 2546TIP3    H129273   5.172   0.132   0.421  0.1733 -0.3286 -0.3157
 2546TIP3    H229274   5.176   0.024   0.526  0.4870  0.3701  0.4035
 2547TIP3   OH229275   3.176   6.805   0.439 -0.4400 -0.1492  0.2651
 2547TIP3    H129276   3.242   6.875   0.444  0.5215 -0.8503 -1.5741
 2547TIP3    H229277   3.096   6.846   0.472  0.4339  1.3743  0.6177
 2548TIP3   OH229278   0.967   3.495   1.689 -0.5338 -0.3452  0.3307
 2548TIP3    H129279   1.027   3.515   1.617 -0.2403  0.6176  0.8343
 2548TIP3    H229280   0.938   3.580   1.721 -0.6101 -0.7580  1.4009
 2549TIP3   OH229281   1.744   0.167   2.048  0.1782 -0.7153  0.1510
 2549TIP3    H129282   1.716   0.079   2.024  0.9649 -0.9353  0.0136
 2549TIP3    H229283   1.690   0.224   1.993  0.9051 -1.1724 -1.0927
 2550TIP3   OH229284   6.362   2.217   6.286 -0.2526  0.2629 -0.7537
 2550TIP3    H129285   6.301   2.279   6.325  0.0189 -0.4992  0.9849
 2550TIP3    H229286   6.315   2.133   6.287  0.0584  0.0677 -1.3790
 2551TIP3   OH229287   4.143   2.955   0.893  0.3816 -0.6672 -0.5013
 2551TIP3    H129288   4.180   2.927   0.977 -1.0163 -1.0881  0.0035
 2551TIP3    H229289   4.177   2.892   0.830 -2.9053 -3.8907  0.6384
 2552TIP3   OH229290   2.192   3.085   8.404  0.0196 -0.2589 -0.0351
 2552TIP3    H129291   2.148   3.011   8.446 -2.1005  0.9527  0.0335
 2552TIP3    H229292   2.123   3.152   8.395  1.3918  1.0177 -1.7834
 2553TIP3   OH229293   4.160   5.916   6.521  0.1799  0.7107  0.2330
 2553TIP3    H129294   4.092   5.857   6.555  0.0958  0.2647 -0.6725
 2553TIP3    H229295   4.112   5.995   6.496 -0.3511 -0.2572 -2.0810
 2554TIP3   OH229296   2.731   2.649   7.567 -0.0227  0.1578 -0.0332
 2554TIP3    H129297   2.772   2.707   7.631  0.3264  1.4740 -1.3939
 2554TIP3    H229298   2.800   2.631   7.504 -0.8961  0.5785 -1.1468
 2555TIP3   OH229299   3.243   1.098   6.939  0.2741  0.4090  0.2013
 2555TIP3    H129300   3.281   1.082   6.853  0.7203 -1.7438  0.7384
 2555TIP3    H229301   3.163   1.148   6.921 -0.1545 -0.8178 -1.5633
 2556TIP3   OH229302   5.021   0.490   0.106  0.5924 -0.2185  0.0330
 2556TIP3    H129303   5.105   0.535   0.098 -0.5238  1.7493 -1.6999
 2556TIP3    H229304   4.990   0.481   0.016 -0.5262 -2.0383  0.5515
 2557TIP3   OH229305   2.987   6.443   2.074  0.0413  0.2044 -0.1037
 2557TIP3    H129306   2.994   6.451   2.169 -1.5900 -0.3389  0.1086
 2557TIP3    H229307   3.042   6.512   2.039  1.9841 -0.6097  1.1900
 2558TIP3   OH229308   6.828   4.198   6.937 -0.2405  0.1256 -0.2280
 2558TIP3    H129309   6.841   4.117   6.886  1.5326 -0.1364  0.5676
 2558TIP3    H229310   6.790   4.259   6.874 -0.2441 -0.8812 -1.2520
 2559TIP3   OH229311   0.632   3.266   7.876  0.2362  0.8431  0.0428
 2559TIP3    H129312   0.668   3.350   7.848 -0.2061  0.6148 -1.2767
 2559TIP3    H229313   0.708   3.218   7.909  0.9903  0.7967 -1.6436
 2560TIP3   OH229314   6.170   3.518   6.520  0.0670 -0.1267 -0.2821
 2560TIP3    H129315   6.252   3.524   6.569  0.8662  0.2048 -1.6157
 2560TIP3    H229316   6.171   3.593   6.461  0.1093 -1.5776 -2.2358
 2561TIP3   OH229317   3.374   5.703   1.888  0.3559  0.1338 -0.2596
 2561TIP3    H129318   3.453   5.720   1.836  0.2747  0.7813 -0.1750
 2561TIP3    H229319   3.405   5.696   1.978  0.4906 -0.9472 -0.3713
 2562TIP3   OH229320   6.352   4.118   1.106 -0.4082 -0.3557 -0.2183
 2562TIP3    H129321   6.390   4.096   1.020 -1.3966 -2.6936 -0.1523
 2562TIP3    H229322   6.384   4.206   1.125  0.6150 -0.1437 -2.5491
 2563TIP3   OH229323   0.947   2.990   8.245  0.0532 -0.5034  0.0974
 2563TIP3    H129324   0.955   2.900   8.213 -0.0823 -1.7342  3.2023
 2563TIP3    H229325   1.036   3.014   8.270 -0.1781 -0.4814  0.9293
 2564TIP3   OH229326   1.627   6.410   8.125 -0.1895 -0.4721  0.5618
 2564TIP3    H129327   1.709   6.435   8.083  0.2696  0.0281  1.7142
 2564TIP3    H229328   1.642   6.320   8.154  0.0970 -0.2466  1.1169
 2565TIP3   OH229329   4.848   4.791   1.465  0.4349 -0.4811  0.3605
 2565TIP3    H129330   4.898   4.794   1.383  1.3946 -0.1405  0.9439
 2565TIP3    H229331   4.837   4.883   1.489 -0.8614 -0.5274  0.0285
 2566TIP3   OH229332   0.999   5.613   7.845 -0.5111 -0.3111  0.0050
 2566TIP3    H129333   0.953   5.540   7.886 -0.6072  0.2585  0.9244
 2566TIP3    H229334   0.929   5.667   7.807 -0.4954 -0.2344  0.0865
 2567TIP3   OH229335   5.297   3.502   1.572 -0.0631 -0.1408 -0.1290
 2567TIP3    H129336   5.309   3.410   1.598 -1.8292 -0.4365 -0.2190
 2567TIP3    H229337   5.349   3.552   1.634 -1.1994 -1.0704  1.6706
 2568TIP3   OH229338   6.145   6.283   8.517 -0.1535  0.1401  0.2922
 2568TIP3    H129339   6.132   6.194   8.547 -1.4647  0.3762  0.4894
 2568TIP3    H229340   6.238   6.289   8.498 -0.3409 -1.8590 -1.6462
 2569TIP3   OH229341   2.526   1.257   3.046 -0.0810  0.1505  0.2522
 2569TIP3    H129342   2.451   1.280   2.991  1.1583  0.2778 -1.4806
 2569TIP3    H229343   2.601   1.299   3.003  1.6811 -3.5422 -0.7421
 2570TIP3   OH229344   4.012   1.829   7.873  0.2082 -0.2398  0.1390
 2570TIP3    H129345   4.037   1.761   7.811 -1.0039 -0.8914  0.3238
 2570TIP3    H229346   3.974   1.898   7.819  1.2855  0.2473 -0.0324
 2571TIP3   OH229347   1.882   5.973   8.402  0.0540  0.3413  0.5592
 2571TIP3    H129348   1.949   6.009   8.344  0.3248  1.2151  1.3953
 2571TIP3    H229349   1.815   5.939   8.343 -0.1654  2.1243 -0.2860
 2572TIP3   OH229350   0.922   5.025   0.748 -0.3615 -0.0215 -0.1449
 2572TIP3    H129351   1.002   5.055   0.791 -0.9121  0.7653  0.3675
 2572TIP3    H229352   0.861   5.008   0.820 -0.6751 -0.5728 -0.5280
 2573TIP3   OH229353   2.666   0.567   1.430  0.2651  0.8198 -0.3498
 2573TIP3    H129354   2.618   0.487   1.410  0.3759  0.8583 -0.7813
 2573TIP3    H229355   2.605   0.620   1.482  0.0348  0.6449 -0.4429
 2574TIP3   OH229356   5.139   0.035   0.860  0.4569  0.2738 -0.0538
 2574TIP3    H129357   5.201   0.108   0.866 -0.0569  0.7436 -0.3269
 2574TIP3    H229358   5.055   0.077   0.842 -0.2603 -0.2403  1.9112
 2575TIP3   OH229359   3.418   1.543   8.155 -0.6806 -0.0571 -0.0735
 2575TIP3    H129360   3.444   1.523   8.245 -3.5793 -1.6571  0.5175
 2575TIP3    H229361   3.495   1.522   8.103  0.0268 -2.3966  1.7276
 2576TIP3   OH229362   3.012   0.486   0.488 -0.1908  0.0467  0.8780
 2576TIP3    H129363   3.091   0.488   0.543 -0.5954 -1.4393  1.5531
 2576TIP3    H229364   2.978   0.398   0.498 -0.1868 -0.3593 -1.9417
 2577TIP3   OH229365   0.538   5.126   8.064 -0.1420  0.4063 -0.8516
 2577TIP3    H129366   0.620   5.082   8.043 -0.2204 -0.2011  0.0570
 2577TIP3    H229367   0.545   5.211   8.020  0.5975  0.0306 -1.4920
 2578TIP3   OH229368   2.300   3.911   6.870 -0.4451  0.4198  0.7913
 2578TIP3    H129369   2.295   3.819   6.846  0.3762  0.7025 -0.5257
 2578TIP3    H229370   2.226   3.924   6.930 -0.3041 -1.1776  1.3518
 2579TIP3   OH229371   1.152   5.567   6.733 -0.2043  0.4947 -0.1291
 2579TIP3    H129372   1.073   5.537   6.778  0.0373  0.9417  0.6065
 2579TIP3    H229373   1.159   5.511   6.656 -0.6531 -0.2467  0.3650
 2580TIP3   OH229374   6.605   4.396   7.971 -0.1387  0.0064  0.3399
 2580TIP3    H129375   6.685   4.354   7.940  0.5617  1.5255 -0.0271
 2580TIP3    H229376   6.610   4.390   8.066 -0.2422 -1.0443  0.2876
 2581TIP3   OH229377   4.592   4.045   8.543 -0.0805 -0.0222 -0.1716
 2581TIP3    H129378   4.641   4.052   8.625  2.1125  1.2140 -1.5069
 2581TIP3    H229379   4.534   4.121   8.543 -0.9865 -0.6791  0.7318
 2582TIP3   OH229380   3.217   4.936   2.641  0.6483  0.5659 -0.1726
 2582TIP3    H129381   3.125   4.915   2.660  0.7517 -1.7513 -1.8354
 2582TIP3    H229382   3.222   4.935   2.545  2.1085  2.2854 -0.1657
 2583TIP3   OH229383   0.039   6.565   0.387  0.2213 -0.2581 -0.2420
 2583TIP3    H129384   0.078   6.572   0.300 -1.1056 -3.5081 -1.2505
 2583TIP3    H229385   0.111   6.584   0.447  1.2210  1.8929 -1.9834
 2584TIP3   OH229386   6.565   5.571   2.110  0.0400 -0.4851  0.0222
 2584TIP3    H129387   6.576   5.666   2.107  1.2544 -0.6160  0.0094
 2584TIP3    H229388   6.594   5.546   2.198  0.5949 -0.9460 -0.2879
 2585TIP3   OH229389   1.482   4.330   0.899 -0.2523 -0.2911 -0.8869
 2585TIP3    H129390   1.510   4.359   0.986 -1.1409 -1.6624 -0.0953
 2585TIP3    H229391   1.485   4.408   0.845 -0.2875  0.7346  0.5449
 2586TIP3   OH229392   6.349   4.466   2.004  0.0617 -0.5828 -0.1392
 2586TIP3    H129393   6.328   4.473   1.911 -1.3382 -0.0697  0.1853
 2586TIP3    H229394   6.320   4.378   2.028  0.4546 -0.7275 -0.2014
 2587TIP3   OH229395   3.447   6.243   0.714  0.0481  0.1478  0.1456
 2587TIP3    H129396   3.425   6.314   0.774  1.5003  1.0652 -0.3483
 2587TIP3    H229397   3.453   6.284   0.629  1.0858 -0.5146 -0.1293
 2588TIP3   OH229398   2.229   3.932   0.782  0.0960  0.0611  0.7369
 2588TIP3    H129399   2.308   3.921   0.729 -0.4948  2.3322 -0.7141
 2588TIP3    H229400   2.164   3.874   0.740 -0.6580  2.5278 -1.8218
 2589TIP3   OH229401   3.422   2.473   7.693  0.0863 -0.2759  0.3490
 2589TIP3    H129402   3.447   2.564   7.705  0.6048 -0.3220 -0.3195
 2589TIP3    H229403   3.402   2.442   7.782  2.1985 -0.1637  0.9106
 2590TIP3   OH229404   0.132   0.519   2.340 -0.3881  0.6552  0.2861
 2590TIP3    H129405   0.185   0.449   2.378  0.0247  1.4439  1.1987
 2590TIP3    H229406   0.117   0.580   2.412  0.6904  2.3660 -0.8621
 2591TIP3   OH229407   5.943   2.053   8.269 -0.7387 -0.0103 -0.1326
 2591TIP3    H129408   5.880   2.052   8.340  0.2391  0.6485  0.7931
 2591TIP3    H229409   6.017   2.104   8.304  1.1998 -2.4782 -0.3893
 2592TIP3   OH229410   4.168   4.959   8.138 -0.1514  0.4968  0.1485
 2592TIP3    H129411   4.216   4.978   8.219  0.4225 -0.1610 -0.0336
 2592TIP3    H229412   4.159   5.045   8.096  2.0560  0.4958 -0.4642
 2593TIP3   OH229413   2.624   6.499   0.154  0.5600 -0.0851 -0.1859
 2593TIP3    H129414   2.681   6.426   0.130  0.7153 -0.3699  1.0184
 2593TIP3    H229415   2.541   6.458   0.178  0.6823  0.1266  0.5963
 2594TIP3   OH229416   6.147   2.659   0.726  0.2116 -0.1506 -0.3924
 2594TIP3    H129417   6.132   2.565   0.736  0.5883 -0.0978  0.7499
 2594TIP3    H229418   6.060   2.698   0.735  0.1602 -0.3307 -0.1063
 2595TIP3   OH229419   1.464   4.644   7.795  0.0386  0.0945 -0.1205
 2595TIP3    H129420   1.479   4.729   7.753 -2.2993  0.9214  0.5321
 2595TIP3    H229421   1.386   4.658   7.849  0.8295 -1.9064  1.6861
 2596TIP3   OH229422   0.207   1.435   2.020 -0.4709  0.2229  0.4537
 2596TIP3    H129423   0.208   1.525   1.986 -0.5468  0.4209  0.9661
 2596TIP3    H229424   0.230   1.381   1.945 -1.0003  0.6219 -0.0021
 2597TIP3   OH229425   4.260   1.050   6.787  0.6931  0.2741 -0.3846
 2597TIP3    H129426   4.349   1.013   6.784  1.6699  2.4279 -0.1309
 2597TIP3    H229427   4.272   1.142   6.763 -1.5310  0.5584 -0.5671
 2598TIP3   OH229428   1.139   4.763   7.135  0.3889  0.1291 -0.0552
 2598TIP3    H129429   1.191   4.762   7.215  0.4913 -2.4126 -0.0701
 2598TIP3    H229430   1.049   4.750   7.166  0.4862 -1.3605 -0.3399
 2599TIP3   OH229431   2.683   5.534   7.945  0.6014  0.0903 -0.1582
 2599TIP3    H129432   2.637   5.477   7.883  0.8649 -0.5264  0.1963
 2599TIP3    H229433   2.617   5.595   7.975  0.1007 -0.5382  0.0495
 2600TIP3   OH229434   4.436   1.420   1.418  0.0455  0.4245  0.3719
 2600TIP3    H129435   4.458   1.376   1.500  0.2640  1.3444  0.8288
 2600TIP3    H229436   4.387   1.498   1.446  1.5656  1.6527 -0.2405
 2601TIP3   OH229437   5.139   5.256   7.207 -1.3336  0.3134 -0.6967
 2601TIP3    H129438   5.205   5.202   7.248 -2.3586 -0.4404  0.0117
 2601TIP3    H229439   5.164   5.259   7.114  0.4948  1.2892 -0.2100
 2602TIP3   OH229440   2.044   2.480   1.800  0.1013  0.2337 -0.0253
 2602TIP3    H129441   2.015   2.570   1.783 -0.7059  0.1144  0.6923
 2602TIP3    H229442   1.974   2.441   1.852  0.9161 -0.4993  0.5504
 2603TIP3   OH229443   4.099   6.235   6.713  0.1428 -0.3323 -0.3160
 2603TIP3    H129444   4.111   6.286   6.632  0.6201 -1.7076 -1.1555
 2603TIP3    H229445   4.006   6.214   6.714 -0.2829  1.4495  0.6236
 2604TIP3   OH229446   2.175   1.636   8.310 -0.5980 -0.3355 -0.2688
 2604TIP3    H129447   2.100   1.587   8.277 -1.5145  1.3313 -0.7632
 2604TIP3    H229448   2.175   1.619   8.404 -1.6360 -0.3141 -0.2527
 2605TIP3   OH229449   5.372   6.225   7.878 -0.4823 -0.1968 -0.6147
 2605TIP3    H129450   5.441   6.170   7.840 -0.1522 -0.6047  0.5268
 2605TIP3    H229451   5.324   6.259   7.802  1.5293  0.8528 -1.4891
 2606TIP3   OH229452   6.295   0.341   7.681 -0.2721 -0.4318 -0.3049
 2606TIP3    H129453   6.363   0.356   7.747 -0.8121 -0.2855  0.2266
 2606TIP3    H229454   6.281   0.426   7.640 -0.9365 -0.2091  0.3722
 2607TIP3   OH229455   1.703   6.162   8.205  0.3368 -0.4141  0.3506
 2607TIP3    H129456   1.647   6.157   8.282 -0.8347 -0.7128 -0.4952
 2607TIP3    H229457   1.682   6.084   8.154  0.4976  0.1745 -0.6560
 2608TIP3   OH229458   0.299   1.294   0.242 -0.1300  0.1484 -0.2882
 2608TIP3    H129459   0.357   1.288   0.166 -1.1666 -1.4434 -1.0104
 2608TIP3    H229460   0.296   1.204   0.277 -2.4572  0.0816 -0.5288
 2609TIP3   OH229461   1.618   5.997   0.350 -0.6336  0.3072  0.0748
 2609TIP3    H129462   1.699   5.953   0.322 -0.9217 -0.0706 -0.1593
 2609TIP3    H229463   1.615   5.981   0.445  1.3914  3.2590  0.7862
 2610TIP3   OH229464   1.727   5.045   1.720  0.0991  0.3602  0.2800
 2610TIP3    H129465   1.784   5.121   1.718 -0.3466  0.7703  1.7889
 2610TIP3    H229466   1.714   5.027   1.813 -0.0833 -1.3578 -0.0410
 2611TIP3   OH229467   6.633   2.287   0.428 -0.0861 -0.0355 -0.4758
 2611TIP3    H129468   6.657   2.197   0.403 -0.9169 -0.5150  0.3776
 2611TIP3    H229469   6.537   2.286   0.431 -0.0805  0.6840  0.2618
 2612TIP3   OH229470   2.659   1.391   8.335 -0.2546 -0.2228 -0.1940
 2612TIP3    H129471   2.753   1.385   8.350 -0.1792  0.2165 -0.4555
 2612TIP3    H229472   2.635   1.307   8.297  0.2285  0.0526 -1.1301
 2613TIP3   OH229473   4.088   2.836   2.133 -0.0037 -0.4870 -0.4503
 2613TIP3    H129474   4.065   2.915   2.084  0.0538 -1.8155 -2.7098
 2613TIP3    H229475   4.140   2.783   2.073  0.6418 -1.9338  1.2722
 2614TIP3   OH229476   0.339   6.202   0.038  0.0141 -0.5036  0.1436
 2614TIP3    H129477   0.332   6.177  -0.054  1.1338  2.1354 -0.7745
 2614TIP3    H229478   0.248   6.209   0.068 -0.3502 -1.9744 -0.5585
 2615TIP3   OH229479   0.001   1.361   8.485 -0.4065 -0.2707  0.6417
 2615TIP3    H129480   0.008   1.278   8.533 -1.5903 -0.4102  0.6069
 2615TIP3    H229481  -0.093   1.372   8.471 -0.1114 -0.5525 -2.1829
 2616TIP3   OH229482   4.058   0.949   6.920  0.3134  0.6446  0.7587
 2616TIP3    H129483   4.124   0.990   6.865 -1.0409  1.2429 -0.4889
 2616TIP3    H229484   3.990   1.016   6.931  0.0469  0.1631  2.2686
 2617TIP3   OH229485   6.607   4.177   7.148 -0.4586 -0.3530  0.5202
 2617TIP3    H129486   6.676   4.149   7.088 -2.5459 -1.4975 -1.5428
 2617TIP3    H229487   6.569   4.254   7.105  0.1047  0.8906  2.1375
 2618TIP3   OH229488   0.696   0.263   0.860 -0.0697 -0.1667  0.0936
 2618TIP3    H129489   0.692   0.258   0.765  1.6803 -0.2784  0.0017
 2618TIP3    H229490   0.788   0.247   0.882  0.1552  2.5771  1.6102
 2619TIP3   OH229491   0.550   0.433   0.156  0.2778 -0.1109 -0.3053
 2619TIP3    H129492   0.456   0.438   0.167  0.1000  0.1211 -1.8127
 2619TIP3    H229493   0.582   0.404   0.242 -1.1359 -0.1199  0.2470
 2620TIP3   OH229494   2.182   5.497   6.877 -0.2956 -0.4256  0.2741
 2620TIP3    H129495   2.240   5.552   6.824  1.4528 -0.5849  1.9399
 2620TIP3    H229496   2.166   5.420   6.822  1.5342 -0.6241 -0.0398
 2621TIP3   OH229497   5.383   2.295   6.916  0.1304  0.6144 -0.1816
 2621TIP3    H129498   5.320   2.316   6.848  0.0862  0.8160 -0.0793
 2621TIP3    H229499   5.454   2.249   6.871  0.7294  1.8837 -0.5856
 2622TIP3   OH229500   4.953   4.054   1.775 -0.1972 -0.0560  0.6360
 2622TIP3    H129501   5.008   4.057   1.697  0.3796  0.8007  1.0568
 2622TIP3    H229502   4.923   4.144   1.787 -0.2283 -0.1660  1.4371
 2623TIP3   OH229503   3.244   0.536   1.869  0.0506 -0.6904  0.1698
 2623TIP3    H129504   3.304   0.570   1.803  0.6732 -0.2271  0.9488
 2623TIP3    H229505   3.200   0.463   1.826 -0.1646  0.1087 -1.0189
 2624TIP3   OH229506   1.250   3.995   8.234  0.6453 -0.3144 -0.1617
 2624TIP3    H129507   1.250   3.919   8.292 -1.2647  0.1585  0.5194
 2624TIP3    H229508   1.157   4.012   8.216  0.8277  3.1315  1.4012
 2625TIP3   OH229509   6.243   2.313   1.439 -0.3382  0.3516  0.4771
 2625TIP3    H129510   6.153   2.300   1.470  0.1048 -0.7509  1.3687
 2625TIP3    H229511   6.269   2.227   1.406 -0.4089  1.2094 -2.0545
 2626TIP3   OH229512   6.502   1.196   7.756 -0.3082  0.2427 -0.4682
 2626TIP3    H129513   6.435   1.250   7.714 -0.1499 -1.0590 -2.5421
 2626TIP3    H229514   6.454   1.145   7.821 -1.1135  0.3275 -0.9794
 2627TIP3   OH229515   3.090   0.772   2.898 -0.5168 -0.1735  0.4813
 2627TIP3    H129516   3.165   0.787   2.955  0.4628  0.2281 -0.8629
 2627TIP3    H229517   3.015   0.808   2.946  0.0285 -1.1147  2.0976
 2628TIP3   OH229518   0.780   3.715   2.525  0.4851 -0.4337  0.2346
 2628TIP3    H129519   0.686   3.705   2.543  0.5484 -0.4961  0.5305
 2628TIP3    H229520   0.792   3.673   2.440 -0.3015  2.1336 -1.2708
 2629TIP3   OH229521   1.047   3.970   7.614  0.2185 -0.0349  0.1981
 2629TIP3    H129522   0.981   3.915   7.572  0.0179  0.2595  0.1278
 2629TIP3    H229523   0.997   4.024   7.675  0.4865 -0.3432  0.6976
 2630TIP3   OH229524   1.785   4.968   7.461 -0.9198 -0.1623  0.1011
 2630TIP3    H129525   1.809   4.915   7.538 -3.1496  1.5844  2.1279
 2630TIP3    H229526   1.778   4.904   7.390  2.2203 -1.7316  0.9745
 2631TIP3   OH229527   0.452   3.110   7.739  0.4475  0.9819  0.2626
 2631TIP3    H129528   0.520   3.146   7.796 -0.8816  1.4622  1.6347
 2631TIP3    H229529   0.458   3.162   7.659  2.4292  0.2293 -0.1313
 2632TIP3   OH229530   4.747   2.530   6.574  0.0347 -0.1839  0.2080
 2632TIP3    H129531   4.683   2.466   6.605 -0.5290  0.4949  0.4668
 2632TIP3    H229532   4.696   2.591   6.521  1.1447 -2.0292 -3.2884
 2633TIP3   OH229533   4.365   5.631   0.256  0.0195 -0.1869 -0.7095
 2633TIP3    H129534   4.327   5.613   0.170 -0.9830 -1.2365 -0.0823
 2633TIP3    H229535   4.356   5.725   0.268 -3.7078 -0.4615 -0.0623
 2634TIP3   OH229536   0.905   2.644   0.748 -0.1881  0.3068  0.1469
 2634TIP3    H129537   0.889   2.551   0.768 -0.2335 -0.0660 -1.5225
 2634TIP3    H229538   0.998   2.648   0.727 -0.4729  0.3385 -1.2059
 2635TIP3   OH229539   0.969   1.458   1.459 -0.6156  0.3901 -0.0820
 2635TIP3    H129540   1.013   1.441   1.542 -1.3152 -2.7395 -0.2433
 2635TIP3    H229541   0.890   1.506   1.483 -0.5712 -0.0609  0.9844
 2636TIP3   OH229542   1.411   0.053   0.405 -0.0313 -0.6706 -0.2633
 2636TIP3    H129543   1.415  -0.024   0.350 -0.9121  0.0254 -1.3329
 2636TIP3    H229544   1.317   0.065   0.424  0.3249 -1.7914  2.7128
 2637TIP3   OH229545   3.156   3.302   1.979 -0.7677 -0.2576  0.5612
 2637TIP3    H129546   3.178   3.393   2.002  1.6296 -0.4871 -0.5726
 2637TIP3    H229547   3.084   3.280   2.038 -2.0474  2.6422  0.2734
 2638TIP3   OH229548   0.305   2.228   1.916  0.1153  0.2040  0.3806
 2638TIP3    H129549   0.364   2.245   1.843 -1.7770  0.2000 -1.2272
 2638TIP3    H229550   0.363   2.221   1.992  2.0503  1.4111 -0.8850
 2639TIP3   OH229551   4.942   0.611   0.330  0.1240  0.6794  0.7950
 2639TIP3    H129552   4.964   0.570   0.246 -2.3293  0.9881 -0.1029
 2639TIP3    H229553   4.937   0.705   0.309  0.9995  0.9387  1.6856
 2640TIP3   OH229554   4.300   1.401   7.752 -0.0160 -0.2210  0.2845
 2640TIP3    H129555   4.217   1.354   7.747 -1.5131  2.2795 -0.7966
 2640TIP3    H229556   4.355   1.361   7.685 -1.1694 -0.5386 -0.5022
 2641TIP3   OH229557   0.293   4.100   6.482  0.8337  0.1537 -0.2593
 2641TIP3    H129558   0.280   4.020   6.431  0.5837  0.5228 -0.7915
 2641TIP3    H229559   0.207   4.120   6.518  1.1874 -0.5695  1.0285
 2642TIP3   OH229560   2.406   5.435   0.531  0.1291  0.1289  0.3774
 2642TIP3    H129561   2.369   5.496   0.468 -0.5714  1.5395  2.0504
 2642TIP3    H229562   2.346   5.438   0.605  0.0352 -2.7039  0.5113
 2643TIP3   OH229563   1.658   1.064   1.939 -0.4285 -0.0134  0.4812
 2643TIP3    H129564   1.741   1.070   1.986 -1.4421 -0.7281  2.4715
 2643TIP3    H229565   1.622   0.980   1.965 -1.9616  0.4622 -0.0260
 2644TIP3   OH229566   1.581   1.213   1.222  1.1092 -0.3093  0.2646
 2644TIP3    H129567   1.597   1.130   1.177  1.3917 -0.3798  0.4972
 2644TIP3    H229568   1.649   1.219   1.288  1.7605  0.6280 -0.4525
 2645TIP3   OH229569   1.438   1.426   0.126  0.1482 -0.2463 -0.0553
 2645TIP3    H129570   1.438   1.519   0.148 -0.8182 -0.6244  1.7385
 2645TIP3    H229571   1.500   1.418   0.053  1.1084  1.6035  0.5114
 2646TIP3   OH229572   4.626   0.492   7.488 -0.1029 -0.0983  0.1461
 2646TIP3    H129573   4.667   0.420   7.536  0.3218 -0.3856 -0.6286
 2646TIP3    H229574   4.665   0.571   7.526  1.5254 -0.3718 -0.8497
 2647TIP3   OH229575   2.439   4.226   0.977  0.7511 -0.2391 -0.2690
 2647TIP3    H129576   2.389   4.160   1.026  0.2241 -0.1975 -0.7354
 2647TIP3    H229577   2.514   4.246   1.032  1.5675 -2.1063 -0.6427
 2648TIP3   OH229578   5.554   3.198   7.737  0.6937  0.2610  0.7957
 2648TIP3    H129579   5.487   3.226   7.675  1.2375  0.4608  0.2968
 2648TIP3    H229580   5.531   3.107   7.757  1.6934 -0.5268 -1.3260
 2649TIP3   OH229581   0.568   1.155   8.021  0.1996  0.1332  0.0914
 2649TIP3    H129582   0.507   1.203   8.076  0.7928  2.4781 -1.1594
 2649TIP3    H229583   0.645   1.213   8.013  1.5570 -1.6334 -0.3840
 2650TIP3   OH229584   5.148   2.635   6.873 -0.2779  0.1564  0.1981
 2650TIP3    H129585   5.221   2.696   6.865 -0.5819  0.5516  0.3930
 2650TIP3    H229586   5.176   2.558   6.824 -0.1185  0.6694 -0.5500
 2651TIP3   OH229587   5.135   3.583   7.468 -0.1546  0.0878 -0.4140
 2651TIP3    H129588   5.189   3.511   7.499 -1.9895 -0.7782  0.9306
 2651TIP3    H229589   5.136   3.575   7.372  1.7975 -0.0608 -0.4177
 2652TIP3   OH229590   5.410   0.938   6.330 -0.0122  0.2937  0.0674
 2652TIP3    H129591   5.455   0.863   6.368 -1.0276 -1.6069 -2.1812
 2652TIP3    H229592   5.475   1.007   6.326  1.3502 -0.8889  1.0633
 2653TIP3   OH229593   4.407   6.899   7.508 -0.0538  0.7437 -0.1657
 2653TIP3    H129594   4.427   6.921   7.417 -1.0261  1.3021 -0.2575
 2653TIP3    H229595   4.335   6.838   7.503  0.3596  0.2154  0.2182
 2654TIP3   OH229596   3.855   2.512   2.188  0.4444 -0.1229  0.0471
 2654TIP3    H129597   3.861   2.427   2.232  2.7553 -0.0493  0.0285
 2654TIP3    H229598   3.893   2.574   2.251 -1.2267  0.9375  0.0717
 2655TIP3   OH229599   0.853   6.641   2.037  0.0858 -0.4695  0.5120
 2655TIP3    H129600   0.815   6.702   1.974  0.4256 -0.3803  0.3936
 2655TIP3    H229601   0.892   6.697   2.105  0.9935 -0.5324  0.0597
 2656TIP3   OH229602   0.152   2.907   0.223 -0.2873  0.0745  0.2339
 2656TIP3    H129603   0.064   2.930   0.255 -0.2480 -0.6599  0.9089
 2656TIP3    H229604   0.138   2.881   0.132 -0.7813 -0.0802  0.3478
 2657TIP3   OH229605   1.740   0.213   7.814  0.1463  0.2060 -0.8085
 2657TIP3    H129606   1.765   0.157   7.887 -1.5435 -3.5858 -2.8251
 2657TIP3    H229607   1.662   0.259   7.844 -0.4011 -1.1340 -0.0899
 2658TIP3   OH229608   0.899   6.434   2.719 -0.4079  0.2074  0.1531
 2658TIP3    H129609   0.974   6.387   2.684 -0.9494 -1.2699  0.8992
 2658TIP3    H229610   0.924   6.457   2.809 -1.2901 -1.4605  0.8696
 2659TIP3   OH229611   5.434   0.345   7.578 -0.0031  0.0625  0.4563
 2659TIP3    H129612   5.474   0.432   7.570  0.6065 -0.2790 -0.3720
 2659TIP3    H229613   5.373   0.340   7.504  2.0797 -1.2777 -1.2874
 2660TIP3   OH229614   3.565   5.480   7.812  0.1962  0.0921  0.3137
 2660TIP3    H129615   3.501   5.474   7.741 -1.7759  0.7587  1.9218
 2660TIP3    H229616   3.578   5.390   7.841 -0.0054 -0.0474 -0.0234
 2661TIP3   OH229617   3.961   0.420   7.716  0.2805  0.6443  0.1968
 2661TIP3    H129618   4.018   0.376   7.779  0.3893 -0.1651 -0.4509
 2661TIP3    H229619   3.993   0.391   7.631 -0.6554  0.7447 -0.1961
 2662TIP3   OH229620   6.027   3.959   2.163 -0.5696  0.4929  0.3214
 2662TIP3    H129621   6.083   4.007   2.224 -0.3982  0.5388  0.1252
 2662TIP3    H229622   6.027   3.869   2.195  0.1778  0.3450 -0.0871
 2663TIP3   OH229623   6.663   4.996   0.760  0.3544  0.5882  0.2140
 2663TIP3    H129624   6.650   4.988   0.665  0.6276  0.7803  0.1600
 2663TIP3    H229625   6.742   5.050   0.769  1.5709 -1.1440  0.5186
 2664TIP3   OH229626   1.549   3.210   1.773 -0.5618  0.0236 -0.1669
 2664TIP3    H129627   1.471   3.159   1.752 -2.2314  1.9076  1.0514
 2664TIP3    H229628   1.529   3.298   1.742  0.9492  0.6287  0.4819
 2665TIP3   OH229629   6.868   4.131   0.827 -0.3898 -0.2099 -0.6876
 2665TIP3    H129630   6.955   4.159   0.853 -0.9188  0.0393  0.8690
 2665TIP3    H229631   6.845   4.189   0.754  0.4557  0.1645 -0.6651
 2666TIP3   OH229632   2.850   3.784   1.384 -0.0252  0.3207 -0.1544
 2666TIP3    H129633   2.815   3.743   1.305  3.4084  1.2645 -2.3666
 2666TIP3    H229634   2.813   3.872   1.384 -1.4950 -0.2720  0.3946
 2667TIP3   OH229635   3.614   4.154   0.218 -0.4143 -0.2942 -0.1185
 2667TIP3    H129636   3.695   4.167   0.169 -0.4651  0.6528  0.0345
 2667TIP3    H229637   3.643   4.141   0.308 -0.3868 -0.8281 -0.2035
 2668TIP3   OH229638   2.744   6.477   8.459  0.5127 -0.3871 -0.4411
 2668TIP3    H129639   2.783   6.502   8.543  0.0264 -1.0360 -0.0066
 2668TIP3    H229640   2.790   6.530   8.394 -0.4529  1.6046  0.4080
 2669TIP3   OH229641   3.889   3.901   8.407 -0.0232  0.3860  0.0582
 2669TIP3    H129642   3.975   3.860   8.416  0.9828  1.8325 -2.0573
 2669TIP3    H229643   3.836   3.862   8.476  2.2240 -0.8110  1.2071
 2670TIP3   OH229644   3.220   4.983   2.376 -0.8212 -0.1518  0.3462
 2670TIP3    H129645   3.306   4.984   2.334 -1.6343  1.3625 -1.4092
 2670TIP3    H229646   3.171   4.917   2.328 -1.2168  0.3296  0.0838
 2671TIP3   OH229647   1.559   1.857   7.439  0.1079  0.1581 -0.1882
 2671TIP3    H129648   1.601   1.880   7.522  0.1009 -1.0124  0.1548
 2671TIP3    H229649   1.594   1.921   7.377  1.5577 -0.0988  0.3178
 2672TIP3   OH229650   4.837   3.113   1.857  0.4358 -0.1058  0.5851
 2672TIP3    H129651   4.882   3.144   1.779  0.2840  0.4809  0.7205
 2672TIP3    H229652   4.774   3.182   1.877  0.1144 -0.4922  0.9265
 2673TIP3   OH229653   6.078   6.681   8.562 -0.0595 -0.1010  0.2695
 2673TIP3    H129654   6.066   6.776   8.560  1.9251  0.1876 -1.7123
 2673TIP3    H229655   6.117   6.664   8.648  1.8993  1.2706 -0.2720
 2674TIP3   OH229656   3.607   5.490   7.497 -0.2060 -0.1255  0.2288
 2674TIP3    H129657   3.520   5.485   7.536 -1.2638  1.7574 -1.6849
 2674TIP3    H229658   3.610   5.417   7.435 -1.0480  0.6326 -0.7485
 2675TIP3   OH229659   4.633   0.296   7.983  0.0471  0.2592 -0.2989
 2675TIP3    H129660   4.644   0.240   7.906  0.5468 -3.0964  1.9906
 2675TIP3    H229661   4.722   0.317   8.010 -0.0926  0.6087 -0.1018
 2676TIP3   OH229662   3.763   5.224   0.197  0.6338  0.3790  0.0484
 2676TIP3    H129663   3.739   5.264   0.281 -1.3042  0.4137 -0.4733
 2676TIP3    H229664   3.707   5.267   0.133  1.8640  0.1229 -1.2489
 2677TIP3   OH229665   2.537   2.306   0.201  0.0581 -0.5664  0.1370
 2677TIP3    H129666   2.510   2.306   0.109  0.1293  0.2918  0.1126
 2677TIP3    H229667   2.472   2.361   0.245  2.2817  2.4967 -0.0968
 2678TIP3   OH229668   1.950   2.833   7.094 -0.3887 -0.4389  0.1268
 2678TIP3    H129669   2.000   2.787   7.162  1.8510  1.2279 -0.2722
 2678TIP3    H229670   1.963   2.926   7.113 -0.0005  0.0822 -2.3289
 2679TIP3   OH229671   6.652   0.268   1.997 -0.0438 -0.3726  0.2519
 2679TIP3    H129672   6.657   0.178   2.029  0.0587 -0.6897 -0.6170
 2679TIP3    H229673   6.560   0.278   1.970 -0.3694  0.2136  1.5362
 2680TIP3   OH229674   4.465   1.552   8.161 -0.0405  0.2610  0.6795
 2680TIP3    H129675   4.517   1.502   8.224  0.3452  1.8246  1.6515
 2680TIP3    H229676   4.509   1.537   8.077  1.9273  1.3855  1.4403
 2681TIP3   OH229677   4.368   1.023   2.514  0.1556 -0.2525  0.6351
 2681TIP3    H129678   4.427   1.081   2.465 -1.0671  0.4221 -0.0774
 2681TIP3    H229679   4.398   1.029   2.605 -0.7252  2.5299  0.8195
 2682TIP3   OH229680   4.762   0.701   1.099 -0.2476 -0.2329 -0.9443
 2682TIP3    H129681   4.852   0.674   1.116  0.2991  2.1545  0.3408
 2682TIP3    H229682   4.767   0.796   1.084 -2.1948 -0.4502 -3.8074
 2683TIP3   OH229683   6.881   2.350   0.283 -0.4111 -0.7368 -0.0697
 2683TIP3    H129684   6.799   2.312   0.316 -0.9894  0.5012 -0.0434
 2683TIP3    H229685   6.945   2.279   0.292 -0.6877 -0.7294  3.1166
 2684TIP3   OH229686   0.687   4.385   1.573 -0.1798 -0.0740  0.5716
 2684TIP3    H129687   0.742   4.407   1.648 -0.1465  0.5549  0.3715
 2684TIP3    H229688   0.746   4.394   1.497 -0.7625  1.5185  0.2631
 2685TIP3   OH229689   3.868   4.608   7.378 -0.2998  0.1662  0.1908
 2685TIP3    H129690   3.939   4.637   7.320 -0.1304 -1.3720 -0.4107
 2685TIP3    H229691   3.794   4.664   7.354  0.4112  1.0921  0.1001
 2686TIP3   OH229692   1.173   3.297   1.801  0.6804 -0.3367  0.5498
 2686TIP3    H129693   1.155   3.265   1.889  2.5376 -0.0001  1.0903
 2686TIP3    H229694   1.095   3.348   1.777 -0.1774 -1.0914  1.6559
 2687TIP3   OH229695   4.275   5.793   2.013 -0.1283 -0.3021 -0.4715
 2687TIP3    H129696   4.335   5.720   1.996  1.1480  0.1334  1.7778
 2687TIP3    H229697   4.332   5.868   2.027 -1.3099  0.5819 -0.2386
 2688TIP3   OH229698   3.657   1.169   7.464  0.4048  0.4991  1.1129
 2688TIP3    H129699   3.637   1.263   7.465  0.0037  0.4280  2.6900
 2688TIP3    H229700   3.741   1.162   7.510  1.2129  0.2141 -0.3612
 2689TIP3   OH229701   1.721   1.232   8.292 -0.0521  0.0623  0.1293
 2689TIP3    H129702   1.710   1.245   8.198  0.4626  2.5932  0.3515
 2689TIP3    H229703   1.645   1.179   8.318 -0.8237  0.3038 -1.5282
 2690TIP3   OH229704   3.391   4.166   6.428  0.4042  0.3328  0.2606
 2690TIP3    H129705   3.318   4.104   6.429  1.3128 -0.8812 -2.0789
 2690TIP3    H229706   3.350   4.252   6.423 -0.8691 -0.0771  2.5338
 2691TIP3   OH229707   6.423   1.159   8.328  0.3025 -0.5421  0.7182
 2691TIP3    H129708   6.393   1.075   8.294  0.8307 -0.3888 -0.1380
 2691TIP3    H229709   6.379   1.224   8.273 -1.2344 -0.1892  2.2732
 2692TIP3   OH229710   4.584   3.282   1.334 -0.4195  0.2177 -0.0957
 2692TIP3    H129711   4.638   3.356   1.358 -1.8361  1.3857 -0.3902
 2692TIP3    H229712   4.494   3.313   1.342 -1.0377 -0.8642 -2.0219
 2693TIP3   OH229713   3.534   5.318   0.748 -0.0449 -0.7637 -0.0694
 2693TIP3    H129714   3.539   5.282   0.659 -0.6946  0.6501 -0.7182
 2693TIP3    H229715   3.466   5.267   0.791 -0.0021 -1.2069 -0.5192
 2694TIP3   OH229716   2.239   0.084   2.038 -0.0024 -0.0965  0.1795
 2694TIP3    H129717   2.161   0.047   2.078  0.6103 -1.1685  0.4163
 2694TIP3    H229718   2.221   0.178   2.034 -0.7948 -0.1720  1.3615
 2695TIP3   OH229719   2.792   1.329   0.078  0.1065 -0.0938  0.4953
 2695TIP3    H129720   2.869   1.339   0.022 -0.6057 -0.5978 -0.5887
 2695TIP3    H229721   2.792   1.407   0.133  1.4989 -0.1768  0.6530
 2696TIP3   OH229722   4.821   0.338   7.624 -0.1148 -0.3903  1.0339
 2696TIP3    H129723   4.891   0.392   7.585 -0.7166  0.0871  0.5788
 2696TIP3    H229724   4.865   0.258   7.652  0.1471 -1.4115 -1.9550
 2697TIP3   OH229725   4.798   6.773   6.756  0.2816  0.6925  0.2537
 2697TIP3    H129726   4.795   6.795   6.849 -0.2767 -0.2524  0.4683
 2697TIP3    H229727   4.710   6.791   6.723  0.1271 -0.1234  0.1913
 2698TIP3   OH229728   1.495   3.602   0.310 -0.0568 -0.3130  0.2171
 2698TIP3    H129729   1.414   3.600   0.360 -0.8424 -0.8912 -1.0389
 2698TIP3    H229730   1.508   3.512   0.280  1.2042 -0.2905  0.6380
 2699TIP3   OH229731   0.438   2.750   0.511  0.0025  0.0324 -0.0132
 2699TIP3    H129732   0.450   2.708   0.426  1.2055  2.0881 -0.9518
 2699TIP3    H229733   0.369   2.815   0.495  0.3846  0.5729  0.5192
 2700TIP3   OH229734   0.619   2.285   7.622  0.0566  0.4891  0.2060
 2700TIP3    H129735   0.556   2.263   7.690 -1.2025  0.9241 -0.7750
 2700TIP3    H229736   0.697   2.233   7.643 -0.1905  0.8210  2.1034
 2701TIP3   OH229737   5.153   2.500   0.828 -0.0319 -0.3982 -0.2352
 2701TIP3    H129738   5.186   2.506   0.739  0.3662  1.1553 -0.0190
 2701TIP3    H229739   5.147   2.591   0.857 -1.8534 -0.7704  0.7045
 2702TIP3   OH229740   5.751   3.657   7.896  0.1123 -0.0464  0.0499
 2702TIP3    H129741   5.709   3.701   7.822 -1.8194 -0.1530  1.0044
 2702TIP3    H229742   5.712   3.699   7.973  1.7765 -0.2056  1.0201
 2703TIP3   OH229743   4.862   2.073   7.141 -0.2180  0.1603  0.5530
 2703TIP3    H129744   4.841   2.166   7.148  0.9527  0.6711 -1.6915
 2703TIP3    H229745   4.925   2.068   7.068 -0.5221 -2.4211  0.3736
 2704TIP3   OH229746   4.086   5.220   8.383  0.1866 -0.0976  0.8436
 2704TIP3    H129747   4.163   5.251   8.335 -0.0113 -0.0465  0.5571
 2704TIP3    H229748   4.122   5.166   8.453  0.4558 -0.6042  0.3258
 2705TIP3   OH229749   1.926   1.821   7.352 -0.5345 -0.3405 -0.4648
 2705TIP3    H129750   1.945   1.848   7.262 -0.0673 -0.7066 -0.4763
 2705TIP3    H229751   1.887   1.899   7.392  2.0820  0.8648 -0.0779
 2706TIP3   OH229752   4.254   4.588   7.943  0.5037 -0.1928 -0.2401
 2706TIP3    H129753   4.264   4.606   7.849 -0.5235 -1.2927 -0.5761
 2706TIP3    H229754   4.340   4.556   7.970  1.4283  1.9871 -0.3231
 2707TIP3   OH229755   2.345   6.580   8.575  0.3909 -0.2300 -0.4853
 2707TIP3    H129756   2.389   6.512   8.524 -1.7655 -3.2582  1.3501
 2707TIP3    H229757   2.289   6.532   8.635 -0.1084  3.2093  2.1012
 2708TIP3   OH229758   6.567   3.836   1.892  0.5666  0.1683  0.0191
 2708TIP3    H129759   6.487   3.784   1.887  0.8657 -0.2310 -0.7400
 2708TIP3    H229760   6.549   3.902   1.959  1.3039 -2.8351  3.5221
 2709TIP3   OH229761   2.925   3.736   8.467 -0.5372 -0.8075 -0.5073
 2709TIP3    H129762   2.835   3.753   8.496 -0.6604 -2.1552 -0.0343
 2709TIP3    H229763   2.921   3.650   8.425  0.5076 -0.8373 -0.5797
 2710TIP3   OH229764   3.728   6.812   7.632  0.3986  0.1742  0.3281
 2710TIP3    H129765   3.817   6.835   7.657  0.1125 -0.0437  1.6183
 2710TIP3    H229766   3.717   6.722   7.661  1.0136 -1.2596 -3.3173
 2711TIP3   OH229767   5.371   5.977   1.462 -0.3400 -0.8648  0.2148
 2711TIP3    H129768   5.382   5.951   1.371 -1.4990  0.0941 -0.2184
 2711TIP3    H229769   5.441   6.040   1.478 -1.2846  0.4603 -0.6353
 2712TIP3   OH229770   1.135   0.654   1.918  0.2150  0.5983 -0.3929
 2712TIP3    H129771   1.096   0.568   1.898 -0.5326  0.8693 -0.1315
 2712TIP3    H229772   1.206   0.664   1.854 -0.5386  0.3669 -1.2841
 2713TIP3   OH229773   6.168   5.070   0.649 -0.0432  0.8893  0.1671
 2713TIP3    H129774   6.105   5.019   0.597  0.0504  0.5190  0.4140
 2713TIP3    H229775   6.207   5.006   0.709  2.3324  0.5440 -1.5944
 2714TIP3   OH229776   6.189   2.569   1.759 -0.2337 -0.3311 -0.5572
 2714TIP3    H129777   6.203   2.662   1.779 -1.3020  0.2796 -2.3694
 2714TIP3    H229778   6.276   2.531   1.755  0.3146  0.9173 -1.0954
 2715TIP3   OH229779   1.503   3.315   2.698 -0.4482 -0.1316  0.4566
 2715TIP3    H129780   1.457   3.379   2.753 -0.9973  0.0257 -0.1624
 2715TIP3    H229781   1.488   3.346   2.609 -0.5892 -1.0343  0.1575
 2716TIP3   OH229782   5.651   6.553   6.782  0.5108 -0.1803 -0.1977
 2716TIP3    H129783   5.649   6.645   6.810  0.6780 -0.0047 -0.7470
 2716TIP3    H229784   5.708   6.553   6.706  3.1694 -1.2523  1.6343
 2717TIP3   OH229785   6.888   0.237   8.327 -0.0935 -0.6447  0.6274
 2717TIP3    H129786   6.887   0.320   8.279  0.1914 -1.1183 -0.2076
 2717TIP3    H229787   6.975   0.200   8.310  0.0506 -0.7811  1.5893
 2718TIP3   OH229788   2.936   0.378   7.397 -0.3575 -0.5075 -0.3626
 2718TIP3    H129789   3.024   0.389   7.434 -0.3078  0.0023 -0.6366
 2718TIP3    H229790   2.929   0.445   7.330 -1.8573  1.1322  1.3029
 2719TIP3   OH229791   0.966   0.364   0.537 -0.0418  0.0485  0.1190
 2719TIP3    H129792   1.059   0.342   0.524  0.4834  0.0629  3.1754
 2719TIP3    H229793   0.921   0.279   0.533  0.2800 -0.1127 -0.1578
 2720TIP3   OH229794   3.985   3.868   0.576 -0.4705  0.1752  0.0734
 2720TIP3    H129795   4.007   3.943   0.521 -0.4569  1.3397  1.5791
 2720TIP3    H229796   3.889   3.863   0.573 -0.5633  1.0678  0.9363
 2721TIP3   OH229797   4.945   6.012   2.380  0.0517  0.1700 -0.3755
 2721TIP3    H129798   4.956   6.098   2.422 -0.7551 -0.4308  1.1505
 2721TIP3    H229799   5.031   5.993   2.343  0.5860  1.1128  0.3291
 2722TIP3   OH229800   4.255   3.286   0.057 -0.0488  0.6122  0.8092
 2722TIP3    H129801   4.164   3.310   0.076 -0.2512  0.6707 -0.1898
 2722TIP3    H229802   4.260   3.284  -0.039  0.8466  0.0090  0.8562
 2723TIP3   OH229803   2.991   3.720   2.163  0.3574  0.0284 -0.1267
 2723TIP3    H129804   2.968   3.809   2.136  0.3510  0.1503  0.2697
 2723TIP3    H229805   3.071   3.700   2.114  0.4494  0.3121 -0.0971
 2724TIP3   OH229806   4.034   3.175   1.229  0.0129  0.1779  0.6457
 2724TIP3    H129807   4.111   3.118   1.230  0.5564  0.8849  0.5062
 2724TIP3    H229808   4.035   3.215   1.142  1.2781  2.5124  1.6400
 2725TIP3   OH229809   5.189   2.004   0.573  0.0614  0.3783  0.0241
 2725TIP3    H129810   5.139   2.027   0.494 -0.0592 -0.2565 -0.0898
 2725TIP3    H229811   5.123   1.970   0.634  0.1412  0.9447  0.4377
 2726TIP3   OH229812   4.110   3.062   7.430  0.5643 -0.1022  0.0653
 2726TIP3    H129813   4.102   2.971   7.459  0.1746 -0.1016 -0.0339
 2726TIP3    H229814   4.183   3.061   7.368 -0.5189 -0.6755 -1.2347
 2727TIP3   OH229815   5.418   2.257   3.144 -0.2020  0.1784 -1.0841
 2727TIP3    H129816   5.459   2.193   3.086  0.6278 -0.5841  0.2956
 2727TIP3    H229817   5.376   2.204   3.211 -0.4844  1.0641 -0.5538
 2728TIP3   OH229818   1.012   4.175   1.463  0.8043 -0.4115 -0.2123
 2728TIP3    H129819   0.961   4.183   1.382 -1.4375 -0.1551  1.1332
 2728TIP3    H229820   1.040   4.265   1.481 -4.3004  1.0578  2.5362
 2729TIP3   OH229821   6.872   2.034   0.406  0.0366 -0.0155 -0.6127
 2729TIP3    H129822   6.946   2.005   0.353 -0.8961 -2.5439 -0.6860
 2729TIP3    H229823   6.796   1.996   0.363 -0.9396 -0.4950  1.4265
 2730TIP3   OH229824   5.487   3.198   7.043  0.5131  0.5437  0.1449
 2730TIP3    H129825   5.499   3.114   7.000 -0.8592  0.4118 -0.0170
 2730TIP3    H229826   5.543   3.258   6.994  0.7544 -0.0724 -0.3480
 2731TIP3   OH229827   6.035   4.690   6.645  0.4316  0.5529 -0.5389
 2731TIP3    H129828   6.100   4.748   6.604 -0.4309  2.4800  0.6527
 2731TIP3    H229829   6.010   4.736   6.725  0.8329 -2.2545  1.3270
 2732TIP3   OH229830   2.650   1.840   2.094 -0.3481  0.5242 -0.2007
 2732TIP3    H129831   2.683   1.922   2.059  1.7634 -0.3179 -0.2943
 2732TIP3    H229832   2.728   1.787   2.110 -1.6488 -1.5878 -0.4412
 2733TIP3   OH229833   1.886   1.422   0.116 -0.4560 -0.3569 -0.3535
 2733TIP3    H129834   1.826   1.419   0.041  0.2701  1.1632 -1.0474
 2733TIP3    H229835   1.898   1.516   0.132 -0.2204 -0.6525  1.3851
 2734TIP3   OH229836   5.111   0.574   1.649  0.2732  0.2873  0.4078
 2734TIP3    H129837   5.093   0.494   1.600  0.3678 -0.0814  0.9689
 2734TIP3    H229838   5.186   0.553   1.703 -1.2582 -0.1138  2.4897
 2735TIP3   OH229839   1.250   1.491   0.371 -0.2760  0.2968  0.0497
 2735TIP3    H129840   1.333   1.445   0.360 -0.6884 -0.2914 -0.6437
 2735TIP3    H229841   1.254   1.563   0.309 -0.3234  0.2120 -0.0517
 2736TIP3   OH229842   4.086   5.832   7.284  0.2873 -0.0432  0.3163
 2736TIP3    H129843   4.023   5.810   7.215 -0.1277  0.0515  0.6633
 2736TIP3    H229844   4.162   5.779   7.264  1.1978  1.8469 -1.7450
 2737TIP3   OH229845   4.599   6.801   1.905 -0.7904 -0.0465  0.0095
 2737TIP3    H129846   4.505   6.820   1.905 -0.9826 -0.8644  1.2334
 2737TIP3    H229847   4.607   6.718   1.857 -0.4988  0.7010 -1.3019
 2738TIP3   OH229848   0.009   6.733   7.675  0.5487  0.1505  0.1528
 2738TIP3    H129849  -0.006   6.823   7.647  1.1454  1.0841  2.5794
 2738TIP3    H229850  -0.061   6.683   7.635  1.1947  1.3386 -2.6944
 2739TIP3   OH229851   5.310   4.026   1.084  0.2721 -0.5367  0.1869
 2739TIP3    H129852   5.363   3.999   1.159 -0.8816 -1.1995  0.7983
 2739TIP3    H229853   5.307   4.121   1.090  1.6219 -0.4682 -0.0380
 2740TIP3   OH229854   3.787   6.403   0.747  0.8244  0.0521 -0.0378
 2740TIP3    H129855   3.748   6.373   0.665  0.0244 -0.0759  0.3755
 2740TIP3    H229856   3.803   6.323   0.797  2.3281  0.0492 -0.4980
 2741TIP3   OH229857   1.316   3.075   1.736  0.4200  0.3173  0.3947
 2741TIP3    H129858   1.253   3.145   1.753 -0.0126  0.0203  0.0312
 2741TIP3    H229859   1.262   2.995   1.730  0.7676  0.1329 -0.4182
 2742TIP3   OH229860   4.746   2.499   1.244 -0.1132  0.0196 -0.0984
 2742TIP3    H129861   4.814   2.566   1.242 -0.1200  0.1414  1.8742
 2742TIP3    H229862   4.721   2.487   1.152  2.2329  0.2925 -0.8290
 2743TIP3   OH229863   5.279   4.764   2.158  0.0715  0.2135 -0.2770
 2743TIP3    H129864   5.238   4.850   2.152 -0.0421  0.4232  2.3841
 2743TIP3    H229865   5.220   4.713   2.214  0.1374 -1.6338 -1.7860
 2744TIP3   OH229866   1.246   5.729   6.490 -0.7572  0.0581  0.1364
 2744TIP3    H129867   1.183   5.716   6.419 -0.6151 -1.7402  0.2920
 2744TIP3    H229868   1.198   5.704   6.569 -0.6480  1.2314  0.5911
 2745TIP3   OH229869   0.907   1.029   7.299 -0.1601 -0.2591  0.1229
 2745TIP3    H129870   0.991   0.991   7.324 -0.4580 -1.0476 -0.0370
 2745TIP3    H229871   0.873   1.066   7.381 -0.1948 -0.9931  0.4498
 2746TIP3   OH229872   0.559   4.081   1.888  0.5039 -0.2389 -0.1556
 2746TIP3    H129873   0.530   4.143   1.954 -1.6305 -2.0249  0.7087
 2746TIP3    H229874   0.482   4.066   1.833  2.4230  1.9578 -3.8730
 2747TIP3   OH229875   0.706   1.722   7.791  0.3259 -0.1349 -0.4532
 2747TIP3    H129876   0.799   1.744   7.796  0.3120  0.1218 -1.1855
 2747TIP3    H229877   0.699   1.659   7.719  0.1512 -1.4551  0.6775
 2748TIP3   OH229878   4.224   0.801   2.758  0.1890  0.1273  0.7888
 2748TIP3    H129879   4.149   0.819   2.702  1.7981 -0.7500 -1.8234
 2748TIP3    H229880   4.223   0.872   2.823 -1.7781  1.2148 -0.3269
 2749TIP3   OH229881   2.893   2.103   8.259  0.4577  0.0567  0.2601
 2749TIP3    H129882   2.967   2.120   8.200  0.1527  1.3197  0.1949
 2749TIP3    H229883   2.897   2.174   8.324 -0.1349 -0.4046  0.8151
 2750TIP3   OH229884   2.279   2.695   7.773 -0.5040  0.3225 -0.3217
 2750TIP3    H129885   2.338   2.769   7.765 -0.0347 -0.2035 -2.0782
 2750TIP3    H229886   2.211   2.711   7.708 -2.5703  1.0832  1.8628
 2751TIP3   OH229887   5.855   0.686   6.929 -0.0973  0.0467 -0.4029
 2751TIP3    H129888   5.911   0.748   6.975  0.7724 -1.3998  0.5606
 2751TIP3    H229889   5.841   0.614   6.991  0.2377 -1.4783 -2.0057
 2752TIP3   OH229890   5.639   4.118   6.718  0.0022  0.1926 -0.1755
 2752TIP3    H129891   5.572   4.096   6.653 -0.1663  0.1818 -0.0000
 2752TIP3    H229892   5.620   4.061   6.792 -0.2783  0.7295  0.1810
 2753TIP3   OH229893   5.518   3.943   6.130  0.3483 -0.3339 -0.2085
 2753TIP3    H129894   5.561   3.987   6.204  0.0308 -0.3635 -0.0036
 2753TIP3    H229895   5.542   3.851   6.139  0.5529 -0.2919 -0.3147
 2754TIP3   OH229896   2.019   5.052   0.936 -0.2413 -0.1159 -0.1592
 2754TIP3    H129897   1.935   5.070   0.892 -0.5982 -0.0444  0.5473
 2754TIP3    H229898   2.079   5.034   0.864 -0.6911  0.5230 -0.7170
 2755TIP3   OH229899   5.574   0.236   6.613 -0.1342  0.8209  0.3859
 2755TIP3    H129900   5.485   0.202   6.621 -0.1223  0.4828 -0.7848
 2755TIP3    H229901   5.596   0.267   6.701 -0.7626 -0.6672  1.0875
 2756TIP3   OH229902   3.670   6.610   0.085 -0.0999 -0.1684  0.1985
 2756TIP3    H129903   3.614   6.668   0.033  0.0938  1.7363  2.0025
 2756TIP3    H229904   3.746   6.594   0.029 -1.9711 -2.1785 -1.9805
 2757TIP3   OH229905   4.648   4.027   8.242 -0.3330 -0.0379  0.7013
 2757TIP3    H129906   4.742   4.046   8.245 -0.6395  1.5258  1.2095
 2757TIP3    H229907   4.625   4.002   8.332 -0.5821  0.5635  0.8095
 2758TIP3   OH229908   5.762   6.563   1.806 -0.1248 -0.0073  0.2447
 2758TIP3    H129909   5.834   6.518   1.850 -0.4520  0.2575  1.0569
 2758TIP3    H229910   5.793   6.574   1.716 -0.0249 -1.8292  0.0183
 2759TIP3   OH229911   5.664   1.361   7.701  0.3883 -0.6769 -0.0283
 2759TIP3    H129912   5.583   1.376   7.652 -0.6807 -1.5351  1.3643
 2759TIP3    H229913   5.734   1.371   7.637 -0.8129  0.2134 -1.2511
 2760TIP3   OH229914   6.555   5.031   0.215  0.0049 -0.4916 -0.7588
 2760TIP3    H129915   6.639   5.062   0.181 -0.1305  1.5211  0.5957
 2760TIP3    H229916   6.490   5.067   0.155 -0.0276  0.1618 -0.3411
 2761TIP3   OH229917   2.915   2.649   7.841 -0.2484  0.1132 -0.2076
 2761TIP3    H129918   2.844   2.640   7.904 -0.2333 -2.0492 -0.4283
 2761TIP3    H229919   2.991   2.609   7.885 -0.0399 -0.6788 -1.2560
 2762TIP3   OH229920   2.249   5.506   7.985 -0.3642  0.9033 -0.0753
 2762TIP3    H129921   2.251   5.459   8.069  1.0617 -0.3218 -0.7612
 2762TIP3    H229922   2.156   5.525   7.971 -1.1649 -2.4413 -0.1084
 2763TIP3   OH229923   4.333   5.348   7.060 -0.5441 -0.7880  0.6512
 2763TIP3    H129924   4.265   5.282   7.076 -1.8404  0.9962  3.2850
 2763TIP3    H229925   4.330   5.364   6.966 -2.7607 -1.8374  0.4823
 2764TIP3   OH229926   5.921   3.340   1.658 -0.1747 -0.2763  0.0635
 2764TIP3    H129927   5.949   3.323   1.748 -0.0649 -1.1630 -0.1352
 2764TIP3    H229928   5.922   3.254   1.615 -2.4443 -0.2502 -0.1637
 2765TIP3   OH229929   3.591   5.177   7.892 -0.6838 -0.5126  0.1242
 2765TIP3    H129930   3.649   5.162   7.967 -3.0670  0.6377  2.3562
 2765TIP3    H229931   3.517   5.118   7.906 -1.3164 -0.0731 -1.1682
 2766TIP3   OH229932   5.724   1.218   3.111 -0.2547 -0.0575 -0.0268
 2766TIP3    H129933   5.730   1.156   3.038 -0.2420  1.4741 -1.3717
 2766TIP3    H229934   5.815   1.234   3.136 -0.0327  1.7067 -1.7346
 2767TIP3   OH229935   6.803   1.240   2.333  0.3129  0.8535 -0.0797
 2767TIP3    H129936   6.867   1.289   2.281  1.0149  0.2752  0.2170
 2767TIP3    H229937   6.848   1.223   2.416  1.1108 -2.5065 -1.0585
 2768TIP3   OH229938   4.011   6.218   1.254 -0.2713 -0.4457 -0.4705
 2768TIP3    H129939   4.023   6.226   1.349 -0.4358  1.9580 -0.5908
 2768TIP3    H229940   3.917   6.229   1.241 -0.2415 -0.7063 -0.9323
 2769TIP3   OH229941   5.819   1.520   2.994 -0.3024 -0.2923  0.1234
 2769TIP3    H129942   5.759   1.515   2.919  3.3450  1.2294 -3.2216
 2769TIP3    H229943   5.813   1.611   3.022 -0.9182 -0.6226  1.1169
 2770TIP3   OH229944   1.585   5.726   6.756 -0.0549 -0.1060  0.1249
 2770TIP3    H129945   1.636   5.655   6.716  0.8242  0.4985  0.1331
 2770TIP3    H229946   1.507   5.683   6.791 -0.4218 -0.7725 -1.4653
 2771TIP3   OH229947   2.092   2.080   1.716  0.0922  0.3466  0.3184
 2771TIP3    H129948   2.121   1.990   1.730  1.2061  0.6692  0.2003
 2771TIP3    H229949   2.024   2.074   1.649  1.4287 -0.2417 -1.0446
 2772TIP3   OH229950   6.829   6.467   8.510  0.1087  0.3268 -0.3664
 2772TIP3    H129951   6.843   6.559   8.530 -1.7900  0.3190  1.3262
 2772TIP3    H229952   6.811   6.465   8.416  1.4853  1.4771 -0.6832
 2773TIP3   OH229953   1.942   1.695   0.195 -0.0932 -0.0656  0.0981
 2773TIP3    H129954   1.892   1.681   0.276  0.9127  1.1124  0.9538
 2773TIP3    H229955   1.973   1.785   0.201 -3.1904  1.4852 -3.4095
 2774TIP3   OH229956   3.260   6.354   8.476 -0.1873  0.7039  0.0116
 2774TIP3    H129957   3.348   6.331   8.508 -1.1324 -1.0776  1.5702
 2774TIP3    H229958   3.238   6.282   8.416 -1.3288 -0.0011  1.2170
 2775TIP3   OH229959   4.049   2.079   0.741  0.3601 -0.0353  0.0695
 2775TIP3    H129960   4.066   1.988   0.718 -0.6207 -0.0856 -0.5474
 2775TIP3    H229961   4.100   2.129   0.677 -1.0454 -0.1790 -1.2345
 2776TIP3   OH229962   6.487   5.188   7.712  0.1416 -0.2242  0.3105
 2776TIP3    H129963   6.545   5.245   7.763  1.2074  0.0281 -1.1313
 2776TIP3    H229964   6.515   5.201   7.621 -2.4267  0.2077 -0.4917
 2777TIP3   OH229965   3.305   2.475   0.536 -0.4516  0.2547  0.2014
 2777TIP3    H129966   3.272   2.473   0.626 -0.4403 -0.8387  0.1923
 2777TIP3    H229967   3.241   2.425   0.486 -0.4832  0.9042 -0.4115
 2778TIP3   OH229968   3.057   6.115   0.529  0.1196 -0.1075 -0.0726
 2778TIP3    H129969   3.026   6.057   0.459 -0.5850  1.1825 -0.8649
 2778TIP3    H229970   3.150   6.127   0.512  0.4930 -1.7156  0.6473
 2779TIP3   OH229971   3.882   4.774   7.793  0.2280  0.0146  0.0829
 2779TIP3    H129972   3.968   4.790   7.831  1.7275 -0.2413 -2.9159
 2779TIP3    H229973   3.843   4.861   7.785  0.9576  0.3340 -0.1139
 2780TIP3   OH229974   0.906   6.087   0.751 -0.4930  0.0516 -0.4163
 2780TIP3    H129975   0.904   6.028   0.676  0.5179 -0.2331 -0.2382
 2780TIP3    H229976   0.815   6.113   0.764 -0.9000 -1.1510 -0.7446
 2781TIP3   OH229977   0.979   0.458   1.391 -0.1385 -0.0200 -0.1767
 2781TIP3    H129978   1.072   0.437   1.399 -0.0435  0.3678 -0.2348
 2781TIP3    H229979   0.953   0.421   1.307 -0.0838 -0.3075 -0.0649
 2782TIP3   OH229980   3.067   6.712   2.073  0.1111 -0.2973 -0.2122
 2782TIP3    H129981   3.126   6.747   2.140 -0.0588  1.2245 -0.8032
 2782TIP3    H229982   3.067   6.779   2.004 -0.6765 -1.2476 -1.1707
 2783TIP3   OH229983   1.498   4.041   0.594 -0.1192 -0.0368 -0.2956
 2783TIP3    H129984   1.403   4.030   0.596  0.0125 -1.5532 -1.1213
 2783TIP3    H229985   1.522   4.057   0.686 -0.8925 -2.6066  0.4492
 2784TIP3   OH229986   2.679   3.850   7.314  0.0325 -0.3521  0.0442
 2784TIP3    H129987   2.590   3.875   7.288 -0.4762 -3.2809 -1.5051
 2784TIP3    H229988   2.709   3.922   7.370 -2.2667  2.0357 -1.5287
 2785TIP3   OH229989   5.589   6.747   7.101 -0.0814  0.7620  0.0570
 2785TIP3    H129990   5.664   6.717   7.050  0.2414 -2.0434  1.9140
 2785TIP3    H229991   5.539   6.803   7.042  1.7256 -0.0040 -2.3194
 2786TIP3   OH229992   0.028   6.283   1.193 -0.9336 -0.4219 -0.3476
 2786TIP3    H129993  -0.060   6.308   1.166 -1.2511 -1.3660 -0.2204
 2786TIP3    H229994   0.015   6.210   1.255 -0.1670  0.6643  1.1731
 2787TIP3   OH229995   2.466   1.683   0.997 -0.1250 -0.4306  0.1397
 2787TIP3    H129996   2.376   1.713   0.989 -0.1286 -0.5616 -0.3704
 2787TIP3    H229997   2.518   1.764   1.001 -0.0068 -0.2690 -2.6794
 2788TIP3   OH229998   0.460   5.580   0.951 -0.0642 -0.3653  0.1032
 2788TIP3    H129999   0.427   5.495   0.919  1.7544 -0.6253 -1.2676
 2788TIP3    H230000   0.552   5.580   0.926  0.0272  1.9521  0.2643
 2789TIP3   OH230001   0.049   3.424   6.763  0.0188 -0.0519 -0.1033
 2789TIP3    H130002   0.033   3.407   6.856 -0.9082 -0.7563 -0.3692
 2789TIP3    H230003   0.144   3.421   6.754  0.1809  1.0030  0.9850
 2790TIP3   OH230004   0.848   4.250   0.731 -0.3774  0.1183 -0.5792
 2790TIP3    H130005   0.771   4.193   0.733 -1.4104  1.1842 -3.5883
 2790TIP3    H230006   0.885   4.236   0.644  1.2275  1.6513 -0.1938
 2791TIP3   OH230007   6.235   3.952   1.741 -0.0119 -0.4311  0.4172
 2791TIP3    H130008   6.316   3.997   1.720 -0.9411  0.8876 -0.5133
 2791TIP3    H230009   6.255   3.903   1.821  1.3882  0.6916  0.8023
 2792TIP3   OH230010   1.636   6.750   1.194  0.3404 -0.6587 -0.0016
 2792TIP3    H130011   1.552   6.735   1.239  1.1351  2.3578  2.8913
 2792TIP3    H230012   1.687   6.671   1.213 -0.0666 -0.3444  3.0194
 2793TIP3   OH230013   5.630   3.037   7.482  0.3280  0.0535 -0.5430
 2793TIP3    H130014   5.719   3.015   7.510  0.1757  2.4060  2.2659
 2793TIP3    H230015   5.639   3.123   7.439 -0.6905  1.0889  1.1908
 2794TIP3   OH230016   2.652   3.682   0.820  0.1939  0.6541  0.7766
 2794TIP3    H130017   2.611   3.730   0.891 -1.6498  0.4542 -0.0871
 2794TIP3    H230018   2.675   3.597   0.858 -0.1968  0.7778  1.3004
 2795TIP3   OH230019   1.698   5.077   2.345  0.5712  0.0842  0.3899
 2795TIP3    H130020   1.732   5.006   2.291  0.1303  0.0750  0.1219
 2795TIP3    H230021   1.701   5.044   2.434  1.7294  0.2625  0.4281
 2796TIP3   OH230022   3.135   3.100   1.792  0.6663 -0.2377 -0.1382
 2796TIP3    H130023   3.139   3.151   1.873 -0.1920 -0.1321 -0.1496
 2796TIP3    H230024   3.121   3.165   1.723 -0.6898 -0.4771 -0.1239
 2797TIP3   OH230025   5.766   2.003   8.471  0.2347  0.6503  0.4695
 2797TIP3    H130026   5.755   2.061   8.547  1.2981 -1.3724  2.2614
 2797TIP3    H230027   5.802   1.922   8.507  0.4678 -0.5300 -2.1775
 2798TIP3   OH230028   5.725   3.868   0.986  0.8021  0.6571 -0.1212
 2798TIP3    H130029   5.735   3.830   0.898 -0.3076  0.5841 -0.2324
 2798TIP3    H230030   5.723   3.963   0.971  0.8225  0.6523 -0.1545
 2799TIP3   OH230031   5.275   3.698   8.110 -0.3942  0.7594  0.0736
 2799TIP3    H130032   5.218   3.773   8.129 -0.4950  0.1611  2.3420
 2799TIP3    H230033   5.364   3.734   8.116 -0.4627  1.1260 -0.9185
 2800TIP3   OH230034   5.225   6.086   0.522  0.2206  0.2226  0.3341
 2800TIP3    H130035   5.221   6.006   0.575  1.0727  0.1990  0.3803
 2800TIP3    H230036   5.151   6.078   0.462 -1.6972  0.9922  2.5033
 2801TIP3   OH230037   5.939   2.836   0.810 -0.1657  0.1693  0.2884
 2801TIP3    H130038   5.986   2.902   0.860  0.3837  0.3277 -0.4215
 2801TIP3    H230039   5.870   2.805   0.869  0.6558  0.1305  1.2474
 2802TIP3   OH230040   5.757   1.681   8.082  0.4114 -0.3353  0.1902
 2802TIP3    H130041   5.677   1.647   8.041  0.8397  0.1952 -1.1305
 2802TIP3    H230042   5.741   1.775   8.092  1.0261 -0.1422 -0.5135
 2803TIP3   OH230043   1.127   6.287   8.389  0.3154  0.5749 -0.1164
 2803TIP3    H130044   1.169   6.254   8.468  0.0657  1.9601  0.6307
 2803TIP3    H230045   1.195   6.340   8.347  0.2944  0.2338 -0.5835
 2804TIP3   OH230046   3.264   6.111   8.212 -0.1077 -0.5613  0.4332
 2804TIP3    H130047   3.204   6.121   8.286 -1.4221 -0.6183 -0.6052
 2804TIP3    H230048   3.211   6.131   8.135  1.3133 -0.2196 -0.4896
 2805TIP3   OH230049   2.546   5.605   7.301 -0.4108  0.1954 -0.6212
 2805TIP3    H130050   2.502   5.632   7.220 -1.9125 -0.9919 -0.2443
 2805TIP3    H230051   2.503   5.523   7.326  0.0895  0.4796  1.3391
 2806TIP3   OH230052   0.940   5.595   1.319 -0.1790 -0.6968 -0.3239
 2806TIP3    H130053   0.978   5.635   1.397 -1.4863  2.4266 -1.1426
 2806TIP3    H230054   0.853   5.566   1.347  0.8322 -3.4811  0.3226
 2807TIP3   OH230055   0.167   2.098   7.982  0.2777 -0.0683 -0.2857
 2807TIP3    H130056   0.182   2.145   7.900 -0.0631  0.1923 -0.2033
 2807TIP3    H230057   0.252   2.061   8.004  0.2981 -0.4054 -0.9178
 2808TIP3   OH230058   5.393   0.773   0.939 -0.4087 -0.3242  0.1745
 2808TIP3    H130059   5.338   0.738   0.869  0.0716 -0.7209 -0.0112
 2808TIP3    H230060   5.355   0.858   0.960  0.7942  0.8740 -2.1588
 2809TIP3   OH230061   6.057   1.349   0.004  0.2726 -0.0617 -0.5379
 2809TIP3    H130062   5.978   1.396   0.028 -0.2822 -0.3702 -1.7128
 2809TIP3    H230063   6.114   1.358   0.081 -0.9596 -0.0087  0.4004
 2810TIP3   OH230064   1.317   5.875   1.430 -0.7787  0.2016 -0.4260
 2810TIP3    H130065   1.383   5.937   1.460  1.4551 -2.4753  0.6641
 2810TIP3    H230066   1.310   5.890   1.336  1.2309  0.7701 -0.5229
 2811TIP3   OH230067   2.127   1.026   0.467 -1.1338  0.6093  0.1635
 2811TIP3    H130068   2.141   1.112   0.506  1.1636  0.8238 -0.9612
 2811TIP3    H230069   2.187   0.968   0.514 -0.9693  0.1217 -0.6307
 2812TIP3   OH230070   4.155   4.547   1.593  0.2083  0.2113 -0.0631
 2812TIP3    H130071   4.242   4.578   1.620  0.1660  1.4032 -1.1832
 2812TIP3    H230072   4.172   4.486   1.522  0.1749 -0.5348  0.5596
 2813TIP3   OH230073   0.852   0.505   0.880  0.3802 -0.1169  0.2337
 2813TIP3    H130074   0.901   0.541   0.805 -0.5270 -0.5998 -0.6104
 2813TIP3    H230075   0.772   0.470   0.841 -0.2108 -0.1726  1.4761
 2814TIP3   OH230076   0.124   0.645   7.862 -0.7469  0.0355  0.5842
 2814TIP3    H130077   0.114   0.731   7.822  1.3958  0.2257  0.3368
 2814TIP3    H230078   0.165   0.661   7.946  1.7696 -0.8007 -0.3826
 2815TIP3   OH230079   6.830   0.511   8.107 -0.1060  0.4004  0.1060
 2815TIP3    H130080   6.779   0.586   8.076 -0.6569  0.5310  1.2928
 2815TIP3    H230081   6.830   0.451   8.032 -1.0109  0.8998 -0.3231
 2816TIP3   OH230082   5.564   2.609   8.106 -0.1608  0.8171 -0.3029
 2816TIP3    H130083   5.517   2.579   8.027  1.8755  1.2466 -1.7599
 2816TIP3    H230084   5.622   2.679   8.074 -1.3075  3.0636  2.1226
 2817TIP3   OH230085   0.691   1.844   0.123  0.1755 -0.0876  0.6107
 2817TIP3    H130086   0.620   1.905   0.101 -0.3366 -0.5419  0.9767
 2817TIP3    H230087   0.765   1.900   0.146 -0.2575  0.3967  0.8399
 2818TIP3   OH230088   2.105   3.989   7.679  0.0615  0.2059  0.0886
 2818TIP3    H130089   2.034   3.970   7.618  1.8418 -0.8797 -1.7836
 2818TIP3    H230090   2.081   3.941   7.759 -0.5956 -1.4448 -1.0292
 2819TIP3   OH230091   1.570   1.878   1.989 -0.4152  0.4594  0.0860
 2819TIP3    H130092   1.551   1.791   2.024 -0.4724 -0.1405 -1.3572
 2819TIP3    H230093   1.664   1.890   2.004 -0.2747 -0.1331 -0.3031
 2820TIP3   OH230094   6.481   6.828   7.226  0.2888 -0.2703  0.1404
 2820TIP3    H130095   6.567   6.829   7.267  0.5284 -1.3783 -0.3053
 2820TIP3    H230096   6.463   6.920   7.206  1.5917 -0.0711 -0.2258
 2821TIP3   OH230097   1.161   2.972   7.251  0.0720  0.0801  0.3558
 2821TIP3    H130098   1.070   2.983   7.223 -0.3561 -1.9544  0.8463
 2821TIP3    H230099   1.211   3.020   7.185 -1.1665 -1.1343 -1.5873
 2822TIP3   OH230100   1.106   1.519   7.277 -0.2200  0.0473 -0.5391
 2822TIP3    H130101   1.154   1.437   7.267 -1.2476 -0.5466 -0.8130
 2822TIP3    H230102   1.171   1.587   7.264  0.1793 -0.7169 -3.1045
 2823TIP3   OH230103   4.209   6.582   1.532  0.0514  0.1146 -0.1881
 2823TIP3    H130104   4.137   6.630   1.491 -2.0690 -1.9485  0.8625
 2823TIP3    H230105   4.255   6.540   1.459 -0.8585  0.1410 -0.7852
 2824TIP3   OH230106   1.489   6.346   8.521 -0.0975 -0.2011  0.1592
 2824TIP3    H130107   1.470   6.265   8.473  1.6485 -1.1601  1.0092
 2824TIP3    H230108   1.554   6.391   8.468 -0.1089  0.0179  0.3314
 2825TIP3   OH230109   4.023   3.924   0.135 -0.4099  0.3055  0.3353
 2825TIP3    H130110   3.987   3.857   0.077  1.2548  0.4119 -0.8877
 2825TIP3    H230111   4.062   3.989   0.077 -0.6563  1.5881  1.5314
 2826TIP3   OH230112   1.952   1.151   1.061  0.1189 -0.5273  0.5551
 2826TIP3    H130113   1.982   1.100   0.986 -1.3356  0.2426 -0.6225
 2826TIP3    H230114   2.028   1.202   1.087  0.5530 -0.4882 -0.7072
 2827TIP3   OH230115   5.008   0.847   1.437  0.4551  0.0438  0.2892
 2827TIP3    H130116   5.092   0.830   1.394 -0.5932 -0.0570 -1.8482
 2827TIP3    H230117   4.969   0.760   1.447  0.1412  0.1794  0.2463
 2828TIP3   OH230118   4.008   6.907   7.479 -0.3347 -0.9753 -0.0208
 2828TIP3    H130119   4.014   6.936   7.389  2.0585  2.4083  1.0539
 2828TIP3    H230120   4.093   6.867   7.498 -0.3915 -0.6434  1.0197
 2829TIP3   OH230121   6.076   0.161   0.705  0.1989  0.2986  0.3960
 2829TIP3    H130122   6.100   0.068   0.709 -0.6916  0.0540  0.3047
 2829TIP3    H230123   6.133   0.198   0.638  0.2463 -0.2896  0.1031
 2830TIP3   OH230124   4.436   4.890   0.090 -0.0553  0.2711  0.3800
 2830TIP3    H130125   4.376   4.820   0.114 -0.5703  0.6003  0.0754
 2830TIP3    H230126   4.446   4.941   0.170 -0.2197  0.2414  0.4197
 2831TIP3   OH230127   4.690   1.783   0.557  0.6632  0.3199  0.2599
 2831TIP3    H130128   4.609   1.824   0.586  0.3568  0.1455 -0.3154
 2831TIP3    H230129   4.664   1.733   0.479  1.1922 -0.2775  0.4613
 2832TIP3   OH230130   1.707   0.412   0.986  0.0643  0.4442 -0.1112
 2832TIP3    H130131   1.706   0.344   0.919 -0.2746  1.7763 -1.5089
 2832TIP3    H230132   1.620   0.407   1.026  1.4226 -2.8983  3.0424
 2833TIP3   OH230133   3.422   3.049   2.787 -0.3863 -0.2016  0.7286
 2833TIP3    H130134   3.506   3.009   2.810  1.1892  0.8009 -2.5583
 2833TIP3    H230135   3.440   3.143   2.783 -2.5253  0.3725  2.8249
 2834TIP3   OH230136   2.086   5.376   8.534  0.4140  0.6246 -0.0385
 2834TIP3    H130137   2.125   5.353   8.619  0.7140  0.4106 -0.2302
 2834TIP3    H230138   2.001   5.415   8.556 -1.6273 -3.4299  0.2543
 2835TIP3   OH230139   2.354   5.237   7.082 -0.0355  0.3625  0.2555
 2835TIP3    H130140   2.292   5.242   7.009 -0.0232 -2.4052 -0.0643
 2835TIP3    H230141   2.305   5.270   7.157 -1.3132 -0.0674 -0.3481
 2836TIP3   OH230142   0.844   4.949   2.104 -0.2176  0.2458 -0.7746
 2836TIP3    H130143   0.840   4.920   2.195  0.7241  2.0983 -0.0815
 2836TIP3    H230144   0.763   4.917   2.065 -0.0591 -1.6869  0.3426
 2837TIP3   OH230145   4.419   5.376   0.692  0.2553 -0.2595 -0.1477
 2837TIP3    H130146   4.456   5.375   0.780 -0.5880  0.2453  0.2264
 2837TIP3    H230147   4.328   5.348   0.704  0.5281 -1.7097 -1.0674
 2838TIP3   OH230148   4.177   1.372   1.615  0.2762 -0.3695 -0.3263
 2838TIP3    H130149   4.170   1.379   1.710 -1.4017  0.0288 -0.4581
 2838TIP3    H230150   4.267   1.342   1.600  0.3840 -1.0165  1.4023
 2839TIP3   OH230151   6.166   6.268   0.863  0.3494  0.4974  0.0734
 2839TIP3    H130152   6.125   6.353   0.846 -0.8394  0.5751  2.7140
 2839TIP3    H230153   6.257   6.288   0.883 -0.0466  1.2797  1.2117
 2840TIP3   OH230154   3.961   3.840   7.158 -0.1530 -0.0699 -0.0725
 2840TIP3    H130155   3.931   3.820   7.069 -0.3345  1.2727 -0.3319
 2840TIP3    H230156   3.885   3.824   7.213 -1.0109  2.0903 -0.5678
 2841TIP3   OH230157   2.272   6.220   2.102  0.5943  0.1871  0.2264
 2841TIP3    H130158   2.241   6.146   2.051 -0.5698  1.1600 -0.5380
 2841TIP3    H230159   2.365   6.202   2.117  0.8857 -0.3372 -1.8992
 2842TIP3   OH230160   1.032   5.605   0.547 -1.0286 -0.4084 -0.6801
 2842TIP3    H130161   1.102   5.554   0.507 -2.3836 -1.9243 -1.2257
 2842TIP3    H230162   1.051   5.602   0.641 -0.1933 -0.5082 -0.8450
 2843TIP3   OH230163   4.790   2.320   8.139 -0.4050  0.7916  0.1244
 2843TIP3    H130164   4.760   2.329   8.049 -0.3211 -0.1021  0.0028
 2843TIP3    H230165   4.742   2.244   8.173  1.2468 -0.3108  0.1161
 2844TIP3   OH230166   5.007   6.834   2.866  0.7590 -0.3189 -0.2336
 2844TIP3    H130167   5.045   6.765   2.811  0.6116  0.9318 -1.9826
 2844TIP3    H230168   5.083   6.871   2.911  1.0254 -0.7019 -0.3546
 2845TIP3   OH230169   5.335   1.975   1.385 -0.1631 -0.1583  0.1063
 2845TIP3    H130170   5.281   1.911   1.340  1.1534 -0.4956 -1.0645
 2845TIP3    H230171   5.301   2.060   1.356  1.3465 -0.3373 -2.5677
 2846TIP3   OH230172   2.806   1.617   2.093  1.2701  0.1350 -0.1805
 2846TIP3    H130173   2.713   1.594   2.096  1.0794  0.7380 -0.9683
 2846TIP3    H230174   2.852   1.534   2.099  0.6401 -0.3544 -1.6752
 2847TIP3   OH230175   2.303   2.489   7.069 -0.2821  0.2475 -0.0556
 2847TIP3    H130176   2.327   2.420   7.006 -0.4346  0.1687 -0.0275
 2847TIP3    H230177   2.386   2.515   7.108  0.0081  1.3055 -1.3040
 2848TIP3   OH230178   0.335   1.027   1.089  0.4501  0.3708 -0.4842
 2848TIP3    H130179   0.270   0.961   1.067  0.5444  0.0184  0.2547
 2848TIP3    H230180   0.284   1.106   1.108  0.1428 -0.1386  0.9655
 2849TIP3   OH230181   1.670   3.515   8.222 -0.0316 -0.2359 -0.0289
 2849TIP3    H130182   1.643   3.603   8.249  0.7333  0.3722 -1.1574
 2849TIP3    H230183   1.607   3.457   8.265  0.3891  0.7259  2.0223
 2850TIP3   OH230184   5.225   3.049   0.492 -0.2160 -0.0340  0.0173
 2850TIP3    H130185   5.168   2.990   0.443  0.5056 -0.6027 -0.1527
 2850TIP3    H230186   5.286   2.991   0.538 -0.4365  0.5146  1.0463
 2851TIP3   OH230187   4.270   0.047   8.156 -0.1054  0.0316 -0.5905
 2851TIP3    H130188   4.198   0.026   8.096 -0.0897 -1.2032 -0.2100
 2851TIP3    H230189   4.342   0.073   8.099 -1.0280  1.9806 -0.9536
 2852TIP3   OH230190   4.502   4.791   7.281  0.6973 -0.1868  0.1916
 2852TIP3    H130191   4.536   4.815   7.368 -1.2616  0.2002  0.9101
 2852TIP3    H230192   4.470   4.873   7.245 -0.4020 -0.6852  0.0072
 2853TIP3   OH230193   2.506   6.773   8.458 -0.3595  0.2472 -0.0181
 2853TIP3    H130194   2.497   6.788   8.552 -2.2382 -1.1285  0.0757
 2853TIP3    H230195   2.517   6.679   8.449  1.1227  0.4808 -1.1412
 2854TIP3   OH230196   1.843   3.120   2.381 -0.4886  0.1659  0.0468
 2854TIP3    H130197   1.862   3.072   2.462 -0.1993  0.1790 -0.0122
 2854TIP3    H230198   1.752   3.098   2.361 -0.3027 -0.5047 -0.0787
 2855TIP3   OH230199   5.782   2.365   7.281 -0.2076 -0.1972 -0.3297
 2855TIP3    H130200   5.714   2.362   7.213 -0.4926 -0.0757 -0.0531
 2855TIP3    H230201   5.746   2.312   7.353 -0.1287  0.0954 -0.0735
 2856TIP3   OH230202   4.700   1.611   8.545  0.5457 -0.1607 -0.5693
 2856TIP3    H130203   4.740   1.579   8.626  0.4656 -0.1805 -0.5372
 2856TIP3    H230204   4.670   1.532   8.501  0.4181 -0.1346 -0.5275
 2857TIP3   OH230205   6.501   3.872   8.289  0.5877  0.1567 -0.2659
 2857TIP3    H130206   6.591   3.868   8.257  1.1069 -0.1237  1.1717
 2857TIP3    H230207   6.503   3.934   8.362 -0.3222 -0.0732 -0.0257
 2858TIP3   OH230208   0.153   1.631   2.420 -0.8632 -0.0682 -0.2618
 2858TIP3    H130209   0.093   1.558   2.439 -0.2794 -0.8421 -1.3263
 2858TIP3    H230210   0.108   1.681   2.353  1.0049 -2.5399 -3.6570
 2859TIP3   OH230211   5.532   0.013   8.559  0.2297 -0.2789 -0.2419
 2859TIP3    H130212   5.479  -0.064   8.539 -0.7635 -0.4791  2.7619
 2859TIP3    H230213   5.492   0.083   8.508 -1.3114 -0.9658 -0.0365
 2860TIP3   OH230214   6.331   4.379   7.910 -0.3310  0.0647 -0.1436
 2860TIP3    H130215   6.291   4.351   7.992  1.5107 -1.0893  0.4296
 2860TIP3    H230216   6.421   4.348   7.916  0.3811  1.6181 -1.7962
 2861TIP3   OH230217   4.026   1.248   7.999  0.2042 -0.0051  0.0420
 2861TIP3    H130218   3.961   1.307   7.962  1.5293  0.9429 -0.8641
 2861TIP3    H230219   4.110   1.293   7.986  1.1510 -1.6306  0.2521
 2862TIP3   OH230220   0.600   6.514   0.732 -0.7993 -0.2615 -0.3398
 2862TIP3    H130221   0.644   6.598   0.723 -1.5154  0.1308 -0.2427
 2862TIP3    H230222   0.634   6.477   0.813  0.8954 -0.9062 -1.3057
 2863TIP3   OH230223   3.567   0.351   0.206  0.2796  0.5628  0.0157
 2863TIP3    H130224   3.547   0.438   0.174 -1.9299  0.2160  0.2735
 2863TIP3    H230225   3.570   0.296   0.128 -1.1205  0.4130  0.0452
 2864TIP3   OH230226   4.807   6.930   0.215 -0.1140 -0.4607  0.1872
 2864TIP3    H130227   4.812   7.020   0.185  2.5849 -1.1912 -1.9981
 2864TIP3    H230228   4.739   6.890   0.161  1.3936 -0.5906 -1.7335
 2865TIP3   OH230229   1.780   4.302   0.921  0.4802 -0.0897 -1.0050
 2865TIP3    H130230   1.866   4.327   0.954 -0.1873  0.0920  0.7197
 2865TIP3    H230231   1.721   4.320   0.994 -1.1245  0.3974 -2.3680
 2866TIP3   OH230232   1.522   3.872   0.181  0.2737 -0.0542  0.2787
 2866TIP3    H130233   1.438   3.898   0.220 -0.3653  1.3313 -1.8492
 2866TIP3    H230234   1.524   3.777   0.190 -2.3726 -0.3379 -1.1042
 2867TIP3   OH230235   2.915   6.378   6.966 -0.1182 -0.2556  0.7008
 2867TIP3    H130236   2.825   6.362   6.940  0.2400 -0.0465 -0.7472
 2867TIP3    H230237   2.966   6.365   6.886  1.0677  0.1914  1.3592
 2868TIP3   OH230238   6.283   2.606   7.490 -0.2753  0.9029  0.2379
 2868TIP3    H130239   6.243   2.601   7.577 -3.8923  0.5687 -1.2757
 2868TIP3    H230240   6.257   2.691   7.456  0.2364  0.6232 -0.9057
 2869TIP3   OH230241   4.586   3.023   7.080 -0.3240 -0.1645 -0.3952
 2869TIP3    H130242   4.546   3.066   7.156  1.9603  0.6377  0.4407
 2869TIP3    H230243   4.535   3.053   7.005 -1.1614  0.9343  0.5819
 2870TIP3   OH230244   0.129   1.811   1.607 -0.0398  0.1496 -0.7519
 2870TIP3    H130245   0.199   1.834   1.668  1.7273 -0.5028 -2.4352
 2870TIP3    H230246   0.055   1.787   1.664  1.1247  0.7125  1.0951
 2871TIP3   OH230247   0.295   5.473   0.639 -0.2828 -0.1454 -0.3308
 2871TIP3    H130248   0.373   5.437   0.595  0.8573 -0.2456  1.6517
 2871TIP3    H230249   0.312   5.567   0.645 -1.3956  0.1973 -1.8752
 2872TIP3   OH230250   4.484   1.264   0.167 -0.6912  0.6395  0.1883
 2872TIP3    H130251   4.477   1.170   0.150  0.9137  0.4258  0.5830
 2872TIP3    H230252   4.512   1.270   0.258 -0.9518  1.5157  0.2218
 2873TIP3   OH230253   0.560   3.417   0.033  0.1747  0.8606  0.3859
 2873TIP3    H130254   0.488   3.422   0.096 -0.2514  1.0377 -0.1087
 2873TIP3    H230255   0.603   3.503   0.040  2.5018 -0.3359  3.1598
 2874TIP3   OH230256   1.497   5.603   1.912 -0.2436 -0.1035  0.2244
 2874TIP3    H130257   1.582   5.583   1.872 -0.9799 -0.1580 -1.3682
 2874TIP3    H230258   1.464   5.678   1.862 -0.8620  0.3272  1.2507
 2875TIP3   OH230259   0.682   0.261   1.484 -0.5087  0.2432  0.0852
 2875TIP3    H130260   0.709   0.171   1.500  0.9168  0.5062 -0.6275
 2875TIP3    H230261   0.590   0.264   1.511  0.1875 -0.6534  2.8937
 2876TIP3   OH230262   2.684   2.064   0.443  0.3696 -0.3191 -0.1340
 2876TIP3    H130263   2.678   1.992   0.506  0.8963  0.3952  0.7513
 2876TIP3    H230264   2.777   2.067   0.418  0.1601 -0.6313 -1.0093
 2877TIP3   OH230265   3.648   2.773   0.680  0.3966 -0.1225  0.1404
 2877TIP3    H130266   3.601   2.782   0.598 -0.2631  0.5277  0.5804
 2877TIP3    H230267   3.728   2.825   0.669 -0.2091  0.8613  0.2873
 2878TIP3   OH230268   6.658   3.838   0.766  0.1263 -0.4695 -0.3220
 2878TIP3    H130269   6.713   3.826   0.688  0.9752 -1.3721  0.3917
 2878TIP3    H230270   6.696   3.779   0.831 -0.5235  0.3394  0.8115
 2879TIP3   OH230271   5.740   3.146   1.255 -0.2840  0.2619 -0.0298
 2879TIP3    H130272   5.734   3.237   1.224 -0.2426  0.0908 -0.5467
 2879TIP3    H230273   5.714   3.151   1.347 -2.4515  0.5000 -0.5760
 2880TIP3   OH230274   2.210   1.326   8.485  0.5749 -0.3225 -0.0892
 2880TIP3    H130275   2.130   1.303   8.438  0.0481  0.5095  0.3882
 2880TIP3    H230276   2.270   1.253   8.467 -0.0009 -0.5575 -1.1192
 2881TIP3   OH230277   0.251   0.757   0.922  0.1496  1.0780  0.4752
 2881TIP3    H130278   0.334   0.748   0.876 -0.1015 -0.5041  0.2697
 2881TIP3    H230279   0.269   0.729   1.011  0.1921  2.2889  0.8590
 2882TIP3   OH230280   5.121   1.106   7.782 -0.6022 -0.1622 -0.3025
 2882TIP3    H130281   5.121   1.192   7.741 -0.3515  0.0915  0.2169
 2882TIP3    H230282   5.048   1.109   7.844  0.4872  0.3140  1.0039
 2883TIP3   OH230283   1.318   3.301   0.523 -0.2146 -0.0343 -0.0553
 2883TIP3    H130284   1.359   3.382   0.552  1.1843 -0.9592  0.6564
 2883TIP3    H230285   1.256   3.329   0.456  0.5664  1.5743 -0.1699
 2884TIP3   OH230286   3.526   3.874   7.163 -0.1888 -0.1662  0.2495
 2884TIP3    H130287   3.465   3.947   7.165 -0.0462  0.0837 -2.2671
 2884TIP3    H230288   3.476   3.802   7.125  0.4558 -0.5845  0.1818
 2885TIP3   OH230289   3.548   6.013   8.428  0.8818 -0.0382  0.2904
 2885TIP3    H130290   3.491   5.947   8.388  0.3856  0.2654  0.4913
 2885TIP3    H230291   3.589   6.057   8.354 -1.8677  2.1970 -0.0960
 2886TIP3   OH230292   2.058   4.447   1.643 -0.2394 -0.3784 -0.4861
 2886TIP3    H130293   2.130   4.481   1.589  0.8673 -0.3641  0.9429
 2886TIP3    H230294   2.026   4.524   1.691  1.8296 -1.0737  2.2589
 2887TIP3   OH230295   2.810   6.418   0.812 -0.1996  0.1581  0.0317
 2887TIP3    H130296   2.821   6.484   0.744 -1.3765  0.5573  0.2091
 2887TIP3    H230297   2.729   6.443   0.857 -1.0961 -1.8421 -0.3886
 2888TIP3   OH230298   4.634   6.077   8.083  0.4704 -0.3865 -0.2297
 2888TIP3    H130299   4.578   6.147   8.115  0.4015 -1.0730  1.2291
 2888TIP3    H230300   4.616   6.003   8.141  3.3779 -0.4230  0.7971
 2889TIP3   OH230301   1.004   6.543   8.013  0.2252 -0.7325  0.1962
 2889TIP3    H130302   0.950   6.572   8.086 -0.0935 -1.1442  0.1285
 2889TIP3    H230303   0.994   6.612   7.947  0.4196 -0.4189  0.4928
 2890TIP3   OH230304   6.134   0.289   8.263 -0.3237 -0.1535  0.3899
 2890TIP3    H130305   6.122   0.323   8.352  2.9557 -0.5035  1.0904
 2890TIP3    H230306   6.157   0.197   8.276 -0.4063 -0.3705 -0.8844
 2891TIP3   OH230307   4.222   1.089   1.449 -0.2238 -0.0060 -0.1897
 2891TIP3    H130308   4.204   1.029   1.376  3.1097  1.7360 -2.7487
 2891TIP3    H230309   4.289   1.045   1.501  0.2463  0.3013 -0.5150
 2892TIP3   OH230310   1.070   6.517   2.436 -0.3173  0.0418  0.4202
 2892TIP3    H130311   1.081   6.440   2.492 -0.7119  0.3322  0.9037
 2892TIP3    H230312   1.117   6.587   2.481  0.4110 -0.0061 -0.2376
 2893TIP3   OH230313   3.965   2.029   2.073 -0.4177  0.2959 -0.0926
 2893TIP3    H130314   3.973   1.990   1.986 -0.9852 -1.8189  0.7412
 2893TIP3    H230315   4.051   2.068   2.090  0.9303 -2.4084 -0.2137
 2894TIP3   OH230316   6.898   5.970   1.784 -0.0479  0.3113 -0.0209
 2894TIP3    H130317   6.818   6.015   1.756 -0.5207  0.3340  1.2936
 2894TIP3    H230318   6.885   5.879   1.757  0.7140  0.8355 -2.2898
 2895TIP3   OH230319   2.911   0.478   7.863  0.1692 -0.2228 -0.4000
 2895TIP3    H130320   2.986   0.417   7.866  1.6737  1.0850 -4.2374
 2895TIP3    H230321   2.845   0.431   7.812 -0.3449 -0.2012  0.2502
 2896TIP3   OH230322   0.845   1.741   8.191  0.6688  0.2564  0.1863
 2896TIP3    H130323   0.803   1.728   8.276 -0.6523  1.5781 -0.2311
 2896TIP3    H230324   0.908   1.812   8.206  1.3623 -0.3711  0.3341
 2897TIP3   OH230325   2.033   0.412   1.586  0.3018  0.3336 -0.4880
 2897TIP3    H130326   2.095   0.342   1.566  0.4958 -0.1850  1.6376
 2897TIP3    H230327   2.020   0.406   1.681 -1.8699  1.3818 -0.6532
 2898TIP3   OH230328   2.585   1.529   6.776  0.6913 -0.2273  0.5571
 2898TIP3    H130329   2.549   1.492   6.695  0.8951 -0.1984  0.4531
 2898TIP3    H230330   2.508   1.556   6.826  0.5852  0.9221 -0.1830
 2899TIP3   OH230331   4.047   4.063   0.384  0.2289  0.4114  0.7585
 2899TIP3    H130332   4.045   4.014   0.302 -0.1199  0.6297  0.6357
 2899TIP3    H230333   3.989   4.138   0.369 -0.1666  0.2278  1.3471
 2900TIP3   OH230334   5.534   0.184   1.829 -0.0189 -0.1180  0.1475
 2900TIP3    H130335   5.527   0.115   1.894  1.8467 -0.3587  0.1332
 2900TIP3    H230336   5.624   0.214   1.834 -0.2876  1.0521 -1.1385
 2901TIP3   OH230337   5.289   6.454   8.416  0.4250 -0.2254 -0.4640
 2901TIP3    H130338   5.232   6.500   8.478 -0.9971 -2.0537 -0.3295
 2901TIP3    H230339   5.341   6.395   8.471  0.6783 -0.3450 -0.8287
 2902TIP3   OH230340   4.356   0.689   6.756  0.0056  0.2260 -0.0467
 2902TIP3    H130341   4.443   0.724   6.777  0.3779 -1.7767  2.1225
 2902TIP3    H230342   4.331   0.734   6.675  2.9430  1.0280 -0.6170
 2903TIP3   OH230343   6.881   2.246   0.616 -0.3771 -0.0921 -0.6627
 2903TIP3    H130344   6.854   2.219   0.528  1.0018  0.2734 -1.2229
 2903TIP3    H230345   6.947   2.181   0.642  1.5752  1.5428 -1.2503
 2904TIP3   OH230346   2.479   4.859   7.515  0.0906  0.0399  0.1550
 2904TIP3    H130347   2.550   4.826   7.569  0.6032 -0.4487 -0.7784
 2904TIP3    H230348   2.475   4.798   7.441 -0.4865  0.7647 -0.4325
 2905TIP3   OH230349   6.379   3.945   1.318  0.0211 -0.0311  0.4475
 2905TIP3    H130350   6.344   4.005   1.252 -1.9248 -1.2859  0.2785
 2905TIP3    H230351   6.364   3.991   1.401  1.6894  1.1690  0.1471
 2906TIP3   OH230352   2.034   2.907   2.248  0.8755  0.2823 -0.2070
 2906TIP3    H130353   1.967   2.972   2.268  1.4745  1.0575 -0.6481
 2906TIP3    H230354   2.044   2.857   2.329  0.2194  0.5663  0.0538
 2907TIP3   OH230355   4.138   2.320   0.601  0.1282 -0.0575  0.6275
 2907TIP3    H130356   4.201   2.339   0.532 -2.7912  0.3082 -2.1916
 2907TIP3    H230357   4.053   2.323   0.557 -1.7533 -2.9855  3.5938
 2908TIP3   OH230358   2.486   0.108   2.101  0.0200  0.8653 -0.0418
 2908TIP3    H130359   2.400   0.082   2.066  0.3654 -0.0518 -0.2247
 2908TIP3    H230360   2.480   0.089   2.194 -0.3150  1.7421  0.1260
 2909TIP3   OH230361   4.358   2.692   1.256  0.3409  0.2765  0.3215
 2909TIP3    H130362   4.316   2.661   1.176  0.7630 -1.1148  0.6130
 2909TIP3    H230363   4.421   2.624   1.279  0.9537  1.1284  1.2852
 2910TIP3   OH230364   4.637   3.122   6.543 -0.5838 -0.2928  0.5091
 2910TIP3    H130365   4.615   3.032   6.522 -3.7042  0.6374 -0.6563
 2910TIP3    H230366   4.695   3.150   6.472  0.7575 -1.3989  1.0987
 2911TIP3   OH230367   2.720   6.215   0.520  0.5251 -0.5282  0.6556
 2911TIP3    H130368   2.779   6.251   0.587  0.6936 -0.8654  0.6897
 2911TIP3    H230369   2.723   6.120   0.534  0.9890 -0.6471 -0.1850
 2912TIP3   OH230370   6.356   4.333   1.404  0.4039  0.2289  0.3811
 2912TIP3    H130371   6.431   4.325   1.345  0.1551  2.3698 -0.3383
 2912TIP3    H230372   6.394   4.340   1.491  1.1460  1.9891 -0.0360
 2913TIP3   OH230373   4.937   2.737   6.995  0.5412 -0.0485 -0.1342
 2913TIP3    H130374   5.003   2.718   6.928  1.9735 -0.2670  1.2849
 2913TIP3    H230375   4.962   2.822   7.031  0.9505 -0.7896  1.4187
 2914TIP3   OH230376   5.747   3.896   1.802  0.0662 -0.3257 -0.6076
 2914TIP3    H130377   5.703   3.981   1.796  0.2160 -0.0320  1.8195
 2914TIP3    H230378   5.720   3.861   1.886  3.3483 -0.7801  0.3764
 2915TIP3   OH230379   4.517   3.183   0.443 -0.6736 -0.4780  0.2841
 2915TIP3    H130380   4.603   3.160   0.409 -0.6149 -0.9415  0.7276
 2915TIP3    H230381   4.490   3.106   0.494 -1.0001 -0.0317  0.8016
 2916TIP3   OH230382   6.881   3.415   8.099 -0.4292 -0.4896  0.3862
 2916TIP3    H130383   6.906   3.324   8.083  1.0780  0.3158 -2.6852
 2916TIP3    H230384   6.964   3.461   8.109 -1.1078  0.7278  0.5506
 2917TIP3   OH230385   0.218   4.689   0.901  0.1082 -0.2093 -0.0067
 2917TIP3    H130386   0.197   4.643   0.983 -1.3506 -0.1767 -0.3278
 2917TIP3    H230387   0.226   4.620   0.836  1.8161 -0.2820  0.2275
 2918TIP3   OH230388   6.702   1.958   8.198 -0.0889 -0.3321  0.4700
 2918TIP3    H130389   6.709   1.936   8.291 -0.0839  0.2992  0.6283
 2918TIP3    H230390   6.792   1.958   8.167 -0.0840 -0.4750  0.4863
 2919TIP3   OH230391   4.538   4.101   1.695 -0.0154 -0.0051  0.0849
 2919TIP3    H130392   4.468   4.039   1.712 -0.8657  1.3275  1.6650
 2919TIP3    H230393   4.611   4.070   1.749  0.7346 -1.4629 -1.6549
 2920TIP3   OH230394   3.751   1.237   1.954 -0.1157  0.6742 -0.5777
 2920TIP3    H130395   3.785   1.156   1.992  0.2497  0.9189 -0.3801
 2920TIP3    H230396   3.801   1.248   1.873 -1.2786 -0.1430 -1.4348
 2921TIP3   OH230397   3.104   2.855   2.159 -0.2124  0.1154  0.0718
 2921TIP3    H130398   3.143   2.830   2.243 -0.4614 -1.1091 -0.1617
 2921TIP3    H230399   3.010   2.849   2.174 -0.2711  0.6319 -0.0833
 2922TIP3   OH230400   5.896   3.201   8.465 -0.0630 -0.2337  0.2810
 2922TIP3    H130401   5.918   3.286   8.504 -0.2532 -0.8000  1.6785
 2922TIP3    H230402   5.807   3.183   8.495 -0.8615  0.0318 -1.7630
 2923TIP3   OH230403   2.037   5.792   0.035  0.0940  0.5635  0.1604
 2923TIP3    H130404   2.057   5.802  -0.058  0.0838  2.8137  0.3394
 2923TIP3    H230405   2.122   5.797   0.079  0.1156 -0.6650  0.2785
 2924TIP3   OH230406   2.196   4.027   2.036 -0.1938  0.0528  0.6158
 2924TIP3    H130407   2.134   4.065   1.975  1.7293 -0.0654 -1.5702
 2924TIP3    H230408   2.216   4.097   2.098 -1.5033  0.4723  0.5872
 2925TIP3   OH230409   3.971   3.876   2.897  0.3466 -0.1606  0.6299
 2925TIP3    H130410   3.933   3.793   2.925 -0.8713  0.1320 -0.1009
 2925TIP3    H230411   3.910   3.910   2.832  2.2450 -0.0213 -1.1637
 2926TIP3   OH230412   4.114   4.529   0.968 -0.2174 -0.0208  0.2101
 2926TIP3    H130413   4.192   4.508   1.021 -0.2356  2.1762  1.2240
 2926TIP3    H230414   4.041   4.518   1.029 -0.3858  1.0573  0.2045
 2927TIP3   OH230415   1.839   2.320   1.312 -0.2592 -0.3696  0.1035
 2927TIP3    H130416   1.760   2.277   1.280 -0.9104  0.1486  0.9441
 2927TIP3    H230417   1.841   2.404   1.265 -0.3353 -0.2891  0.2428
 2928TIP3   OH230418   3.196   2.644   8.215  0.0231 -0.0186  0.2326
 2928TIP3    H130419   3.241   2.722   8.248  0.5620 -0.3387  0.2741
 2928TIP3    H230420   3.164   2.600   8.294 -2.9500  1.6657  0.1251
 2929TIP3   OH230421   0.690   4.216   1.198  0.2820  0.5753  0.6986
 2929TIP3    H130422   0.717   4.136   1.244  0.5108 -0.5807 -1.2878
 2929TIP3    H230423   0.758   4.280   1.219  2.6256 -1.1111 -1.0683
 2930TIP3   OH230424   6.181   1.815   8.516 -0.3725  0.3452  0.3452
 2930TIP3    H130425   6.183   1.882   8.584 -1.3993  0.1931  0.5315
 2930TIP3    H230426   6.204   1.862   8.436 -0.1319  0.7203  0.6279
 2931TIP3   OH230427   5.879   4.701   6.983 -0.5920 -0.1379  0.0016
 2931TIP3    H130428   5.830   4.762   6.927 -3.4032 -0.8816  1.4491
 2931TIP3    H230429   5.867   4.736   7.071  0.9533 -0.7789  0.4928
 2932TIP3   OH230430   0.029   2.157   7.040  0.1296  0.2359  0.1855
 2932TIP3    H130431   0.085   2.199   6.975  0.0100  0.7073  0.3854
 2932TIP3    H230432   0.043   2.063   7.026  0.2562  0.3345 -0.3873
 2933TIP3   OH230433   2.486   2.587   7.455  0.5436  0.5659 -0.0125
 2933TIP3    H130434   2.507   2.572   7.363 -0.4221  0.8575 -0.2994
 2933TIP3    H230435   2.568   2.615   7.494  0.3759  3.5904 -1.4991
 2934TIP3   OH230436   3.378   5.162   1.216 -0.1348  0.7846  0.1619
 2934TIP3    H130437   3.354   5.078   1.254 -0.7387  0.2190 -1.3715
 2934TIP3    H230438   3.455   5.190   1.265 -0.5544 -0.1410  1.4048
 2935TIP3   OH230439   2.772   1.301   6.833 -0.0223  0.0151  0.0395
 2935TIP3    H130440   2.757   1.253   6.914 -1.3345  1.5716  0.7549
 2935TIP3    H230441   2.685   1.328   6.804  0.6892  2.9292  0.3005
 2936TIP3   OH230442   3.748   2.199   2.042 -0.3717 -0.2740  0.0193
 2936TIP3    H130443   3.743   2.259   1.968 -0.3068  0.6085  0.7098
 2936TIP3    H230444   3.833   2.156   2.032 -0.9895 -1.2952 -1.2329
 2937TIP3   OH230445   5.803   6.432   1.189  0.2300  0.0504  0.4810
 2937TIP3    H130446   5.709   6.416   1.192  0.1916  0.0202 -0.5292
 2937TIP3    H230447   5.842   6.346   1.173  0.2286  0.3999 -1.7727
 2938TIP3   OH230448   1.804   4.436   1.836  0.0483 -0.0085 -0.0270
 2938TIP3    H130449   1.852   4.499   1.782 -0.4538 -0.5021 -1.0715
 2938TIP3    H230450   1.715   4.471   1.840  0.2233  0.3724  1.0616
 2939TIP3   OH230451   5.984   4.109   0.836  0.3261  0.2999  0.2648
 2939TIP3    H130452   6.017   4.020   0.824 -2.8219 -1.0449  0.7614
 2939TIP3    H230453   6.014   4.156   0.758 -0.3687 -1.9938 -1.5045
 2940TIP3   OH230454   3.008   1.094   0.874 -0.0257  0.3581  0.2014
 2940TIP3    H130455   2.918   1.128   0.869 -0.1601  0.0260  0.3279
 2940TIP3    H230456   3.013   1.029   0.805  0.2404  0.6518 -0.0572
 2941TIP3   OH230457   2.197   3.081   7.686  0.1018  0.0162  0.2265
 2941TIP3    H130458   2.141   3.003   7.692  0.2027 -0.1510 -0.7932
 2941TIP3    H230459   2.285   3.045   7.675  0.1142  0.2560 -0.5489
 2942TIP3   OH230460   1.134   3.365   0.341  0.4519 -0.4494  0.1250
 2942TIP3    H130461   1.140   3.321   0.256  1.4615  1.4201 -0.8222
 2942TIP3    H230462   1.041   3.374   0.357  0.2476 -0.2415 -1.1112
 2943TIP3   OH230463   4.734   2.700   7.289 -0.2870  0.4333 -0.2050
 2943TIP3    H130464   4.735   2.793   7.311 -0.4531  0.3983 -0.0503
 2943TIP3    H230465   4.644   2.672   7.303  0.1511 -0.1892  1.6351
 2944TIP3   OH230466   6.763   6.057   6.380 -0.4905  0.3760 -0.0809
 2944TIP3    H130467   6.713   6.021   6.453 -1.0861 -0.1312 -0.7271
 2944TIP3    H230468   6.817   5.985   6.350 -0.9903  0.2878 -0.7794
 2945TIP3   OH230469   0.508   6.556   2.209 -0.2811  0.7298 -0.2413
 2945TIP3    H130470   0.493   6.539   2.302 -1.4762 -3.6497 -1.0148
 2945TIP3    H230471   0.432   6.608   2.182 -0.6635  0.8201  0.9400
 2946TIP3   OH230472   2.344   5.167   0.842 -0.0523  0.5911  0.0152
 2946TIP3    H130473   2.420   5.138   0.893  1.5835  3.2583 -0.7114
 2946TIP3    H230474   2.322   5.091   0.788  1.6017 -0.5109  0.7981
 2947TIP3   OH230475   0.594   3.146   1.671  0.2208 -0.2283 -0.1735
 2947TIP3    H130476   0.625   3.135   1.581  1.0684  0.4064  0.0265
 2947TIP3    H230477   0.500   3.161   1.662  0.5232  1.3960 -1.0970
 2948TIP3   OH230478   6.791   0.276   1.319  0.7502 -0.0461 -0.1845
 2948TIP3    H130479   6.843   0.218   1.375  0.8673 -1.0838 -1.3149
 2948TIP3    H230480   6.735   0.325   1.379  1.6961 -0.2836  0.9106
 2949TIP3   OH230481   4.366   2.507   0.176 -0.0134 -0.4908 -0.5678
 2949TIP3    H130482   4.328   2.488   0.090 -0.3303 -0.2958 -0.4710
 2949TIP3    H230483   4.366   2.602   0.181  3.4697 -0.2637 -1.9270
 2950TIP3   OH230484   4.271   2.076   0.017 -0.4090  0.8252  0.7640
 2950TIP3    H130485   4.296   2.104  -0.071  0.1830 -1.1300  0.2581
 2950TIP3    H230486   4.233   2.154   0.057 -1.0808  1.6635 -1.3617
 2951TIP3   OH230487   2.276   2.248   1.848  0.0244 -0.1496  0.1228
 2951TIP3    H130488   2.245   2.166   1.809 -0.2709 -0.2219  0.5049
 2951TIP3    H230489   2.200   2.307   1.842  0.7265  0.6414 -1.6651
 2952TIP3   OH230490   1.722   5.591   8.119  0.5941 -0.2001 -0.1732
 2952TIP3    H130491   1.666   5.638   8.057 -0.0564 -0.3492  0.2897
 2952TIP3    H230492   1.669   5.516   8.148  0.4435  0.4670  1.3993
 2953TIP3   OH230493   0.511   0.650   7.944 -0.1152  0.4169  0.6860
 2953TIP3    H130494   0.417   0.632   7.945 -0.0299 -0.2508 -0.9354
 2953TIP3    H230495   0.542   0.617   8.029 -0.8951 -2.0880  0.0758
 2954TIP3   OH230496   6.545   6.501   8.144  0.0528 -0.1210  0.6980
 2954TIP3    H130497   6.533   6.589   8.179  1.3884  1.1291 -1.7070
 2954TIP3    H230498   6.459   6.478   8.107  0.1123  0.9174 -0.1359
 2955TIP3   OH230499   2.673   0.113   7.965  0.2139  0.0276 -0.0029
 2955TIP3    H130500   2.602   0.058   7.933  1.4005 -1.1998 -0.6239
 2955TIP3    H230501   2.753   0.066   7.941  1.3046  2.1823 -0.8601
 2956TIP3   OH230502   5.025   1.669   1.939 -0.0156 -0.6055 -0.1742
 2956TIP3    H130503   4.953   1.669   1.876 -0.3866 -0.3987  0.2362
 2956TIP3    H230504   5.103   1.650   1.888 -0.2693 -0.1423 -0.7378
 2957TIP3   OH230505   3.006   2.040   7.215  0.4436 -0.6890 -0.4837
 2957TIP3    H130506   3.096   2.071   7.220  0.3429 -0.4327 -0.2706
 2957TIP3    H230507   2.968   2.086   7.140  0.9144 -1.8927 -1.4949
 2958TIP3   OH230508   0.180   0.560   6.865  0.0841  0.2206 -0.6695
 2958TIP3    H130509   0.156   0.478   6.908 -2.7804  1.6096  0.6843
 2958TIP3    H230510   0.144   0.551   6.776  1.1235 -0.5211 -1.0355
 2959TIP3   OH230511   3.369   3.417   7.118 -0.3055 -0.2179  0.3237
 2959TIP3    H130512   3.407   3.422   7.206 -0.7141 -0.9333  0.5429
 2959TIP3    H230513   3.351   3.509   7.095  0.8565  0.0811  0.5077
 2960TIP3   OH230514   4.700   1.237   1.061  0.1572  0.4592 -0.8455
 2960TIP3    H130515   4.622   1.261   1.112  0.4263  0.4268 -0.4079
 2960TIP3    H230516   4.737   1.320   1.033  0.9447  0.5825  0.4496
 2961TIP3   OH230517   5.385   2.755   1.706  0.1305  0.0594 -0.2144
 2961TIP3    H130518   5.335   2.695   1.761  1.7314 -1.2381 -0.1139
 2961TIP3    H230519   5.391   2.835   1.759 -0.3412 -0.3651  0.5071
 2962TIP3   OH230520   4.625   6.448   2.085  0.4642  0.5497 -0.2604
 2962TIP3    H130521   4.689   6.380   2.063  1.4027  1.0891  0.6800
 2962TIP3    H230522   4.619   6.445   2.180  0.5780  1.8305 -0.1952
 2963TIP3   OH230523   2.103   0.213   0.875  0.2415 -0.1267  0.0719
 2963TIP3    H130524   2.123   0.151   0.805  1.6939 -0.2997  0.6127
 2963TIP3    H230525   2.021   0.254   0.848  0.6092 -0.4186 -1.5716
 2964TIP3   OH230526   5.702   5.170   1.178  0.1533  0.1399 -0.0564
 2964TIP3    H130527   5.747   5.133   1.254 -2.8589 -2.4837  0.6887
 2964TIP3    H230528   5.648   5.240   1.214  0.5458  0.5380 -0.2334
 2965TIP3   OH230529   3.043   3.233   1.152 -0.2218  0.6412 -0.0112
 2965TIP3    H130530   2.987   3.158   1.175  0.2722  0.5131  0.7995
 2965TIP3    H230531   2.984   3.293   1.105 -1.6699  1.5308  2.7235
 2966TIP3   OH230532   6.693   5.520   8.553 -0.0927  0.0366  0.0794
 2966TIP3    H130533   6.715   5.613   8.552  0.3385 -0.0648 -0.1745
 2966TIP3    H230534   6.758   5.480   8.610  1.4601 -0.5097 -1.9478
 2967TIP3   OH230535   2.096   4.014   1.730  0.1823  0.2346  0.0116
 2967TIP3    H130536   2.026   4.004   1.794 -0.5304 -0.4907 -0.8692
 2967TIP3    H230537   2.062   4.077   1.667 -0.2504 -1.1161 -1.1564
 2968TIP3   OH230538   3.357   4.095   7.159  0.0229  0.2170 -0.1035
 2968TIP3    H130539   3.393   4.174   7.199 -3.2079  1.7137  0.2006
 2968TIP3    H230540   3.275   4.124   7.119 -0.4064 -2.6756 -1.5835
 2969TIP3   OH230541   1.605   4.263   7.016  0.0599  0.3623  0.0741
 2969TIP3    H130542   1.568   4.304   6.937 -0.9752 -1.5310 -0.4733
 2969TIP3    H230543   1.679   4.212   6.984 -0.4042 -0.4669  0.3016
 2970TIP3   OH230544   1.776   0.656   1.235 -0.7173 -0.3997 -0.4318
 2970TIP3    H130545   1.820   0.641   1.319 -2.2378 -1.1715  0.2877
 2970TIP3    H230546   1.830   0.611   1.171  0.7680  0.6561  0.0368
 2971TIP3   OH230547   1.910   1.285   0.377  0.0963 -0.0787 -0.9153
 2971TIP3    H130548   1.909   1.194   0.347 -1.4721 -0.4753  0.1967
 2971TIP3    H230549   1.941   1.336   0.301  2.3124 -1.6292 -1.1517
 2972TIP3   OH230550   5.971   0.502   7.665  0.6541 -0.0518  0.0032
 2972TIP3    H130551   6.017   0.586   7.665 -1.3984  1.2082  2.0125
 2972TIP3    H230552   5.930   0.498   7.578  0.6109  1.1437 -0.0531
 2973TIP3   OH230553   0.414   5.794   2.105  0.3234  0.5592  0.4408
 2973TIP3    H130554   0.435   5.883   2.132  0.0933  0.5421  0.6820
 2973TIP3    H230555   0.425   5.742   2.185  0.4373  0.3749  0.3059
 2974TIP3   OH230556   0.652   6.198   0.772 -0.1326  0.0497 -0.0188
 2974TIP3    H130557   0.594   6.176   0.846 -0.4664 -0.0821 -0.3161
 2974TIP3    H230558   0.608   6.272   0.729 -0.1905 -0.1884 -0.3695
 2975TIP3   OH230559   5.595   0.780   1.618 -0.1452 -0.8205  0.1185
 2975TIP3    H130560   5.657   0.853   1.618 -1.3032  0.2128 -0.9029
 2975TIP3    H230561   5.555   0.782   1.704 -0.8227  0.3610 -0.2028
 2976TIP3   OH230562   2.919   1.129   1.210 -0.1716 -0.4204 -0.4334
 2976TIP3    H130563   2.849   1.159   1.152  0.3661  1.2410 -0.2860
 2976TIP3    H230564   2.889   1.152   1.298 -0.2109 -1.3115 -0.2124
 2977TIP3   OH230565   1.903   3.582   7.157  0.4395  0.1311 -0.0526
 2977TIP3    H130566   1.939   3.505   7.201  1.3469  1.7153  2.1960
 2977TIP3    H230567   1.977   3.619   7.108  0.8588  1.1606  1.2960
 2978TIP3   OH230568   3.160   3.447   0.477 -0.0538  0.5440  0.4248
 2978TIP3    H130569   3.136   3.537   0.499 -0.6090  0.4380  0.2630
 2978TIP3    H230570   3.144   3.398   0.558 -0.0839  0.5255  0.4073
 2979TIP3   OH230571   1.045   4.109   7.144  0.3515  0.3662  0.2512
 2979TIP3    H130572   1.019   4.017   7.154  1.5977 -0.2756 -1.7401
 2979TIP3    H230573   1.019   4.131   7.055  3.0536  0.8574 -0.4969
 2980TIP3   OH230574   1.245   0.715   8.360  0.1949  0.1825  0.6385
 2980TIP3    H130575   1.218   0.787   8.304 -1.6590  1.9787  3.6175
 2980TIP3    H230576   1.322   0.748   8.406  0.9876 -0.8401  0.1052
 2981TIP3   OH230577   0.491   6.107   6.811 -0.2305 -0.2348  0.2995
 2981TIP3    H130578   0.532   6.027   6.778 -1.4162 -0.0992 -1.6141
 2981TIP3    H230579   0.499   6.170   6.740 -1.7462  0.4899  0.7208
 2982TIP3   OH230580   0.951   0.679   7.743 -0.2669  0.1997 -0.5445
 2982TIP3    H130581   0.919   0.713   7.826  1.5684  0.1484  0.2422
 2982TIP3    H230582   1.045   0.670   7.756 -0.3267 -3.0267 -1.4598
 2983TIP3   OH230583   4.933   1.582   1.107 -0.6031 -0.0075 -0.1245
 2983TIP3    H130584   4.903   1.575   1.198 -0.5657  0.7822 -0.0402
 2983TIP3    H230585   4.882   1.655   1.072 -1.7821 -1.2943 -1.2232
 2984TIP3   OH230586   2.918   0.741   7.785  0.1880 -0.0435  0.9310
 2984TIP3    H130587   2.950   0.668   7.839 -0.5137 -1.3641 -0.3537
 2984TIP3    H230588   2.825   0.721   7.770  0.4425  0.0263 -1.0737
 2985TIP3   OH230589   2.081   5.333   6.686  0.1524 -0.2339  0.0075
 2985TIP3    H130590   2.156   5.292   6.643  0.7936  0.7454  0.1343
 2985TIP3    H230591   2.022   5.358   6.615  0.7454  0.4935 -0.2465
 2986TIP3   OH230592   2.933   3.961   0.273 -0.1165 -0.5083  0.1709
 2986TIP3    H130593   2.928   4.047   0.232 -1.0578 -0.8686 -0.5218
 2986TIP3    H230594   2.990   3.910   0.215 -0.4670 -0.6702 -0.0327
 2987TIP3   OH230595   6.403   0.697   0.260 -0.5207  0.5963 -0.6296
 2987TIP3    H130596   6.476   0.756   0.280  0.5092  0.1657 -2.7995
 2987TIP3    H230597   6.365   0.733   0.179 -1.2323 -0.5253 -0.8122
 2988TIP3   OH230598   3.372   6.374   0.450 -0.0371 -0.2439 -0.5027
 2988TIP3    H130599   3.355   6.465   0.425 -0.5130 -0.7757 -2.2008
 2988TIP3    H230600   3.456   6.353   0.409 -0.0433 -0.6396 -0.3139
 2989TIP3   OH230601   0.927   0.656   7.465  0.5402  0.1143  0.1327
 2989TIP3    H130602   0.975   0.729   7.425  0.7572 -0.3118 -0.3921
 2989TIP3    H230603   0.954   0.657   7.557  0.7589  0.5243  0.0661
 2990TIP3   OH230604   6.788   5.835   0.834 -1.2612 -0.0477  0.0607
 2990TIP3    H130605   6.803   5.863   0.744 -0.0356  2.1341  0.8874
 2990TIP3    H230606   6.717   5.771   0.827  0.2318 -1.6110 -2.6809
 2991TIP3   OH230607   1.096   1.133   0.280  0.1502 -0.3301  0.5230
 2991TIP3    H130608   1.002   1.151   0.279  0.6454  3.0538  0.5911
 2991TIP3    H230609   1.119   1.135   0.373  0.3934 -0.4428  0.4661
 2992TIP3   OH230610   5.901   0.041   0.999 -0.4607  0.7314  0.5136
 2992TIP3    H130611   5.961  -0.024   0.961 -0.8450  1.3203 -1.2079
 2992TIP3    H230612   5.817   0.024   0.956 -1.0455  1.1573  1.4591
 2993TIP3   OH230613   4.664   2.104   0.380  0.0793  0.1609  0.6325
 2993TIP3    H130614   4.616   2.035   0.426  0.6678  0.0775  1.1349
 2993TIP3    H230615   4.636   2.096   0.289  0.0974 -0.7083  0.6965
 2994TIP3   OH230616   2.611   6.573   7.417 -0.1320 -0.0981 -0.0674
 2994TIP3    H130617   2.661   6.492   7.417 -1.2521 -0.8568 -1.8838
 2994TIP3    H230618   2.633   6.615   7.334 -0.7675  0.6690  0.1316
 2995TIP3   OH230619   4.687   4.503   6.435 -0.0661  0.1552  0.4834
 2995TIP3    H130620   4.642   4.515   6.519 -1.0949  0.8683 -0.1527
 2995TIP3    H230621   4.637   4.435   6.390 -0.7368  1.1972 -0.3700
 2996TIP3   OH230622   1.590   5.163   7.751 -0.4670  0.4144  0.4532
 2996TIP3    H130623   1.533   5.239   7.761  0.4675  1.1432  0.4185
 2996TIP3    H230624   1.575   5.133   7.661 -0.8762  0.5326  0.4813
 2997TIP3   OH230625   4.525   2.702   0.942 -0.1842 -0.1555 -0.1706
 2997TIP3    H130626   4.597   2.641   0.953  1.3807  1.7443  0.7990
 2997TIP3    H230627   4.550   2.756   0.867 -0.9830  0.0300 -0.3165
 2998TIP3   OH230628   3.379   0.308   8.071  0.4843 -0.7576 -0.2478
 2998TIP3    H130629   3.287   0.283   8.069  0.5697 -1.1701  0.4969
 2998TIP3    H230630   3.425   0.240   8.022  0.3917 -0.5159 -0.6772
 2999TIP3   OH230631   5.372   1.004   2.441  0.3017 -0.2933 -0.2105
 2999TIP3    H130632   5.282   1.037   2.435  0.9550  1.6452  0.1827
 2999TIP3    H230633   5.420   1.052   2.375  1.3193 -0.4003  0.4268
 3000TIP3   OH230634   4.000   5.748   0.118  0.6004 -0.1205 -0.2318
 3000TIP3    H130635   4.078   5.704   0.084  0.3075  1.4572 -3.3745
 3000TIP3    H230636   4.017   5.841   0.104 -0.5955  0.5212  2.0614
 3001TIP3   OH230637   5.270   2.062   3.267  0.4340 -0.9255  0.1660
 3001TIP3    H130638   5.266   1.976   3.226 -1.2478 -0.4158 -0.8165
 3001TIP3    H230639   5.187   2.070   3.313 -0.7032  1.2284 -2.0441
 3002TIP3   OH230640   0.893   3.813   7.460 -0.0021  0.1181  0.8097
 3002TIP3    H130641   0.825   3.758   7.422  1.7137 -0.0337 -2.3219
 3002TIP3    H230642   0.884   3.897   7.415  1.0658  0.5026  1.2890
 3003TIP3   OH230643   2.521   6.855   0.528  0.0345  0.4547  0.4916
 3003TIP3    H130644   2.501   6.778   0.583 -1.0840  0.6484  0.3737
 3003TIP3    H230645   2.528   6.927   0.590 -0.9513  0.6216  0.4259
 3004TIP3   OH230646   2.886   3.482   2.031 -0.0445  0.2533 -0.4421
 3004TIP3    H130647   2.835   3.436   2.098  2.1813 -0.6745  0.7469
 3004TIP3    H230648   2.909   3.565   2.072  0.2668  0.2119 -0.5319
 3005TIP3   OH230649   6.118   0.170   6.761  0.4498 -0.7125  0.4357
 3005TIP3    H130650   6.035   0.163   6.808  0.7676  2.5128  1.7132
 3005TIP3    H230651   6.094   0.194   6.672 -0.0121  0.6893  0.9230
 3006TIP3   OH230652   1.541   3.872   8.096  1.1298  0.2759  0.0977
 3006TIP3    H130653   1.585   3.957   8.098 -0.0867  0.9147  0.9693
 3006TIP3    H230654   1.548   3.839   8.185 -0.7505  0.7408  0.4602
 3007TIP3   OH230655   1.861   2.002   2.560 -0.4799  0.4297 -0.3052
 3007TIP3    H130656   1.909   2.085   2.557  2.2477 -1.0299 -0.4230
 3007TIP3    H230657   1.842   1.981   2.469 -0.3368  0.4928 -0.3494
 3008TIP3   OH230658   0.230   1.113   0.611 -0.1709  0.0040  0.7089
 3008TIP3    H130659   0.206   1.035   0.660 -1.0859 -0.1147  0.0896
 3008TIP3    H230660   0.245   1.082   0.522  0.1076  0.4347  0.5987
 3009TIP3   OH230661   1.455   5.426   0.909 -0.2800 -0.2979 -0.1547
 3009TIP3    H130662   1.525   5.371   0.944 -0.5335  0.9094  2.5060
 3009TIP3    H230663   1.395   5.439   0.983 -1.0626  2.2314 -1.1151
 3010TIP3   OH230664   3.561   6.015   0.386 -0.2935 -0.0576 -0.3497
 3010TIP3    H130665   3.537   5.949   0.322 -0.9122  0.6360 -0.8496
 3010TIP3    H230666   3.636   5.978   0.433  0.1474 -0.5800 -1.4530
 3011TIP3   OH230667   0.165   0.469   7.416  0.2724 -0.1354  0.6440
 3011TIP3    H130668   0.123   0.392   7.454  0.0749 -0.0677  0.5664
 3011TIP3    H230669   0.108   0.542   7.440 -0.1795 -0.1698 -0.2809
 3012TIP3   OH230670   4.943   6.514   8.215 -0.2779 -0.4138  0.2148
 3012TIP3    H130671   5.013   6.455   8.242  0.6581  0.7512  0.4133
 3012TIP3    H230672   4.931   6.496   8.122  0.3069 -0.6250  0.1756
 3013TIP3   OH230673   5.969   2.052   0.852  0.0343 -0.2719  0.0528
 3013TIP3    H130674   6.047   2.106   0.838 -0.5922  0.9562  1.0890
 3013TIP3    H230675   5.968   2.036   0.946  0.4761 -2.5952 -0.2592
 3014TIP3   OH230676   3.832   0.935   8.259  0.6539 -0.9317  0.0810
 3014TIP3    H130677   3.770   0.867   8.232 -0.5609  0.0103  0.4216
 3014TIP3    H230678   3.791   1.017   8.231  1.0003 -0.1749  1.6799
 3015TIP3   OH230679   2.965   6.283   7.270  0.5639  0.3962  0.2082
 3015TIP3    H130680   3.034   6.255   7.210 -0.2931 -0.9011 -0.2310
 3015TIP3    H230681   3.002   6.357   7.317  1.7243  0.6301 -1.0174
 3016TIP3   OH230682   4.309   5.296   1.290  0.0867 -0.3306 -0.1453
 3016TIP3    H130683   4.223   5.330   1.316  0.1492 -0.4903  0.2782
 3016TIP3    H230684   4.302   5.201   1.305  0.3101 -0.3536 -0.1912
 3017TIP3   OH230685   5.445   3.303   0.411 -0.2674  0.2869  0.7143
 3017TIP3    H130686   5.358   3.326   0.379  0.4980 -0.2033 -1.9120
 3017TIP3    H230687   5.446   3.208   0.414  0.2495  0.2814  0.5000
 3018TIP3   OH230688   5.998   1.992   7.493 -0.5268  0.5341  0.2766
 3018TIP3    H130689   5.991   2.061   7.427  1.0126 -0.4073 -0.9458
 3018TIP3    H230690   5.910   1.955   7.498 -0.8598  1.1606 -0.6631
 3019TIP3   OH230691   5.104   2.802   2.305  0.6386  0.5384  0.1586
 3019TIP3    H130692   5.079   2.732   2.366 -0.1064 -0.1108 -0.8407
 3019TIP3    H230693   5.164   2.857   2.354 -1.6510  1.3398  2.2640
 3020TIP3   OH230694   1.647   4.439   2.112  0.8570  0.2228 -1.1089
 3020TIP3    H130695   1.667   4.499   2.184 -1.4622  0.1456 -0.3101
 3020TIP3    H230696   1.636   4.496   2.036 -0.9516  0.8582 -0.4351
 3021TIP3   OH230697   5.009   6.927   2.589 -0.5077 -0.2395  0.0357
 3021TIP3    H130698   5.051   6.852   2.633 -0.2279  0.4387  0.9489
 3021TIP3    H230699   5.057   7.003   2.620 -1.3175  0.4013 -0.2529
 3022TIP3   OH230700   1.431   0.096   1.001 -0.4367 -0.4795  0.7586
 3022TIP3    H130701   1.412   0.139   0.918 -0.4521  0.5646  1.2949
 3022TIP3    H230702   1.355   0.114   1.055  0.7949  1.3927  1.9907
 3023TIP3   OH230703   5.966   2.669   1.632 -0.2289  0.8958  0.2252
 3023TIP3    H130704   6.015   2.617   1.696  0.0471  0.7311 -0.1222
 3023TIP3    H230705   5.875   2.642   1.645  0.0155 -0.4211 -0.6338
 3024TIP3   OH230706   1.309   2.484   0.062 -0.2106  0.2532  0.2634
 3024TIP3    H130707   1.219   2.486   0.092 -0.1660  0.4653  0.3854
 3024TIP3    H230708   1.306   2.515  -0.029 -0.2560  0.2906  0.2779
 3025TIP3   OH230709   5.898   4.758   1.963  0.2039 -0.1266  0.0655
 3025TIP3    H130710   5.900   4.827   1.896  0.6903  1.4431  1.6019
 3025TIP3    H230711   5.864   4.802   2.041 -0.3005 -1.8778  0.8756
 3026TIP3   OH230712   4.470   1.745   2.529 -0.8641  0.3663  0.4508
 3026TIP3    H130713   4.484   1.817   2.590 -2.3342  0.0673  1.1960
 3026TIP3    H230714   4.383   1.711   2.552 -0.7071 -0.8713 -0.6700
 3027TIP3   OH230715   1.084   2.429   0.219  0.1811 -0.2996 -0.2374
 3027TIP3    H130716   1.036   2.423   0.302 -1.4337 -1.0989 -1.1955
 3027TIP3    H230717   1.118   2.341   0.204  0.7663 -0.0743 -0.2758
 3028TIP3   OH230718   4.685   1.033   1.433 -0.1359  0.3239 -0.1896
 3028TIP3    H130719   4.723   1.115   1.402 -1.0966  1.2927  1.1129
 3028TIP3    H230720   4.728   1.016   1.517 -1.1767  0.4233  0.3808
 3029TIP3   OH230721   5.789   0.831   2.194  0.8509 -0.7014  0.3594
 3029TIP3    H130722   5.769   0.859   2.283  2.7375 -1.0608  0.9308
 3029TIP3    H230723   5.771   0.908   2.140  0.1288 -0.3381  1.0981
 3030TIP3   OH230724   5.703   6.880   0.845  0.3796  0.1114  0.6452
 3030TIP3    H130725   5.607   6.884   0.843  0.3848  0.7237  1.2664
 3030TIP3    H230726   5.727   6.837   0.763 -0.3576  1.2393 -0.1824
 3031TIP3   OH230727   1.658   4.009   6.666 -0.1221  0.4541 -0.1825
 3031TIP3    H130728   1.661   4.062   6.586  1.2428 -0.5529 -0.8432
 3031TIP3    H230729   1.700   4.064   6.732  1.2864  0.2227 -0.8605
 3032TIP3   OH230730   1.698   2.224   1.926  0.5245  0.1600 -0.2120
 3032TIP3    H130731   1.737   2.237   1.840 -0.1061  1.9287 -0.2671
 3032TIP3    H230732   1.735   2.294   1.980 -0.7469  0.4094  0.3698
 3033TIP3   OH230733   0.365   0.167   7.488 -0.4065 -0.3136 -0.1277
 3033TIP3    H130734   0.324   0.151   7.403  1.2509 -3.3429 -0.4891
 3033TIP3    H230735   0.311   0.116   7.549 -1.0328  1.0945  0.5364
 3034TIP3   OH230736   5.514   1.861   7.918 -0.3796 -0.0190 -0.3070
 3034TIP3    H130737   5.604   1.868   7.886 -0.2646 -1.2963 -0.3039
 3034TIP3    H230738   5.489   1.770   7.901 -1.1320 -0.1001  1.1080
 3035TIP3   OH230739   6.531   3.949   0.159  0.0094  0.3080 -0.5511
 3035TIP3    H130740   6.571   3.940   0.072  0.5747  0.8022 -0.3537
 3035TIP3    H230741   6.440   3.973   0.141 -0.0674 -0.2825 -1.0086
 3036TIP3   OH230742   2.900   2.905   0.552  0.0166  0.5786 -0.3766
 3036TIP3    H130743   2.930   2.940   0.636  1.5510 -1.7413  0.1342
 3036TIP3    H230744   2.981   2.883   0.505 -0.8497 -0.3034 -1.5005
 3037TIP3   OH230745   0.070   3.911   0.068 -0.0655 -0.1766  0.0050
 3037TIP3    H130746   0.004   3.907   0.137 -0.3979 -0.0603 -0.3015
 3037TIP3    H230747   0.029   3.868  -0.007  0.9242 -1.8442  0.3706
 3038TIP3   OH230748   4.494   4.822   1.198  0.5025 -0.3686 -0.2931
 3038TIP3    H130749   4.425   4.762   1.227 -1.8577  1.9106 -0.8208
 3038TIP3    H230750   4.527   4.862   1.278  0.2789 -0.4887 -0.1417
 3039TIP3   OH230751   1.453   5.118   2.230  0.0822  0.9542  0.3988
 3039TIP3    H130752   1.524   5.090   2.287 -0.2689  1.4768  1.1085
 3039TIP3    H230753   1.384   5.053   2.243  0.7555 -0.1076 -1.0202
 3040TIP3   OH230754   1.510   4.236   1.364 -0.6012 -0.4207  0.4659
 3040TIP3    H130755   1.448   4.173   1.328  1.3204 -2.5108  0.6102
 3040TIP3    H230756   1.455   4.304   1.404 -2.7595 -1.7757 -0.0587
 3041TIP3   OH230757   5.563   6.109   7.715 -0.1721 -0.1026 -0.1251
 3041TIP3    H130758   5.521   6.037   7.668 -0.3697  0.2846 -0.5564
 3041TIP3    H230759   5.641   6.070   7.754 -0.9553 -0.8429  0.7313
 3042TIP3   OH230760   2.875   4.226   7.602 -0.2333 -0.3218 -0.1018
 3042TIP3    H130761   2.930   4.150   7.621  0.6991  0.3946  0.1274
 3042TIP3    H230762   2.927   4.301   7.630 -0.1783  0.5790 -2.4247
 3043TIP3   OH230763   1.988   5.633   7.905 -0.8528  0.0724 -0.2991
 3043TIP3    H130764   1.918   5.696   7.888 -1.5210 -0.1200  1.4453
 3043TIP3    H230765   1.945   5.548   7.898 -0.4018 -0.1188 -0.7908
 3044TIP3   OH230766   5.462   6.262   0.640 -0.4028  0.0687 -0.3469
 3044TIP3    H130767   5.394   6.215   0.591  0.7274 -1.5196 -0.5047
 3044TIP3    H230768   5.433   6.261   0.730 -0.5894 -0.6422 -0.4078
 3045TIP3   OH230769   5.414   5.172   1.597  0.1104  0.2992 -0.4879
 3045TIP3    H130770   5.448   5.095   1.550  2.3694 -0.1461  1.7113
 3045TIP3    H230771   5.453   5.167   1.684 -4.0104  0.9558  1.6692
 3046TIP3   OH230772   2.362   6.844   1.695 -0.3127  0.6221 -0.2131
 3046TIP3    H130773   2.287   6.799   1.734 -0.7799  1.1650 -0.4565
 3046TIP3    H230774   2.371   6.805   1.608  0.6038 -0.4486  0.3412
 3047TIP3   OH230775   2.536   2.443   2.204 -0.2944 -0.0621 -0.2045
 3047TIP3    H130776   2.611   2.434   2.263 -0.7848  2.1417  0.8676
 3047TIP3    H230777   2.575   2.445   2.117  0.7360 -0.5783  0.2287
 3048TIP3   OH230778   0.323   0.787   0.011  0.2539 -0.3755  0.1199
 3048TIP3    H130779   0.391   0.800   0.077  0.7373 -2.1263  0.0132
 3048TIP3    H230780   0.330   0.694  -0.013 -4.0074 -1.5252  2.1944
 3049TIP3   OH230781   1.107   5.202   7.507  0.2089  0.6622  0.1444
 3049TIP3    H130782   1.075   5.147   7.578  0.3658 -0.4783 -0.6468
 3049TIP3    H230783   1.033   5.210   7.447  0.9884 -1.0107 -1.1059
 3050TIP3   OH230784   6.678   1.902   7.272 -0.0692  0.1114 -0.1563
 3050TIP3    H130785   6.699   1.863   7.187 -0.0889  0.0522 -0.1338
 3050TIP3    H230786   6.632   1.833   7.319  1.4454 -0.4633  0.5429
 3051TIP3   OH230787   2.496   3.155   1.835  0.0973 -0.2144  0.3138
 3051TIP3    H130788   2.444   3.191   1.763  2.0898  0.2190 -0.9806
 3051TIP3    H230789   2.498   3.225   1.901 -0.0042  0.2025 -0.1234
 3052TIP3   OH230790   2.004   6.900   2.107 -0.0261 -0.1176  0.1956
 3052TIP3    H130791   1.921   6.854   2.092 -0.0069 -0.8487  2.0309
 3052TIP3    H230792   2.047   6.849   2.176 -0.3364  3.0265  2.9264
 3053TIP3   OH230793   6.511   6.824   0.284  0.4382 -0.0319  0.2704
 3053TIP3    H130794   6.559   6.883   0.224  0.0575 -0.6298 -0.6484
 3053TIP3    H230795   6.579   6.770   0.323  0.7568  0.7621  0.8437
 3054TIP3   OH230796   5.310   3.346   7.564 -0.0606  0.1420 -0.1372
 3054TIP3    H130797   5.345   3.295   7.491  0.6144  2.2543 -1.3822
 3054TIP3    H230798   5.376   3.414   7.580 -2.2965  2.6396 -0.7882
 3055TIP3   OH230799   1.231   4.005   0.601 -0.3219 -0.2831  0.3919
 3055TIP3    H130800   1.174   4.082   0.594 -0.0254  0.1054  1.8711
 3055TIP3    H230801   1.195   3.955   0.674  0.9935 -0.2272  1.0994
 3056TIP3   OH230802   0.640   2.753   7.130 -0.8900 -0.0779 -0.1173
 3056TIP3    H130803   0.650   2.805   7.050 -1.7100 -0.1777 -0.2959
 3056TIP3    H230804   0.730   2.735   7.158 -0.5615 -0.8660 -1.5488
 3057TIP3   OH230805   1.943   1.030   0.250  0.7321  0.8315  0.4928
 3057TIP3    H130806   2.017   1.004   0.306  0.2632  0.8775  1.1460
 3057TIP3    H230807   1.962   0.990   0.165  1.2698  0.4449  0.7883
 3058TIP3   OH230808   1.834   1.388   2.255  0.2945  0.1120 -0.7048
 3058TIP3    H130809   1.827   1.293   2.248  1.0261 -0.0074  0.0040
 3058TIP3    H230810   1.927   1.406   2.242  0.1727  0.7292 -0.7606
 3059TIP3   OH230811   5.311   1.464   0.549 -0.1783  0.1406 -0.2752
 3059TIP3    H130812   5.251   1.490   0.479  0.0864  1.4104 -0.0719
 3059TIP3    H230813   5.387   1.522   0.538  0.0283  0.1043  0.8144
 3060TIP3   OH230814   6.191   6.092   1.070 -0.0660 -0.7298  0.1406
 3060TIP3    H130815   6.280   6.085   1.035  1.0775  1.7121  2.2027
 3060TIP3    H230816   6.150   6.160   1.016 -0.3497 -1.1281 -0.1522
 3061TIP3   OH230817   5.149   2.650   1.824  0.6230 -0.0989 -0.1965
 3061TIP3    H130818   5.084   2.633   1.756  1.3582  0.7440 -1.1448
 3061TIP3    H230819   5.105   2.707   1.887 -0.0746 -0.9190  0.0890
 3062TIP3   OH230820   1.931   1.401   1.507 -0.2290  0.1120 -0.3881
 3062TIP3    H130821   1.849   1.416   1.554 -0.2996  0.4263 -0.6087
 3062TIP3    H230822   1.905   1.348   1.431 -0.3838  0.9734 -0.9553
 3063TIP3   OH230823   5.407   1.533   2.062 -0.3834 -0.3738 -0.2385
 3063TIP3    H130824   5.495   1.528   2.099 -1.1818 -2.4936  1.6630
 3063TIP3    H230825   5.415   1.499   1.974  1.1320  2.2129 -1.2013
 3064TIP3   OH230826   3.453   0.833   2.371  0.3124 -0.0931 -0.1380
 3064TIP3    H130827   3.518   0.765   2.389  1.6498  0.7181 -1.6184
 3064TIP3    H230828   3.425   0.815   2.281 -0.2664  0.5684 -0.0947
 3065TIP3   OH230829   1.885   2.985   7.453  0.3169  0.3281  0.3089
 3065TIP3    H130830   1.813   3.032   7.493  0.4499  0.3480  0.5264
 3065TIP3    H230831   1.896   3.026   7.367  0.3987  0.6627  0.4758
 3066TIP3   OH230832   1.615   0.838   7.404  0.1160  0.2250 -0.1484
 3066TIP3    H130833   1.648   0.928   7.411  0.0473  0.2046  0.4940
 3066TIP3    H230834   1.531   0.847   7.358  0.1533  0.4768 -0.1708
 3067TIP3   OH230835   4.662   3.538   2.047  0.0854  0.0268 -0.7818
 3067TIP3    H130836   4.572   3.537   2.013 -0.2284  2.3468 -0.1478
 3067TIP3    H230837   4.652   3.518   2.140  0.5213 -1.9802 -1.1057
 3068TIP3   OH230838   0.984   6.381   7.614  0.2949  0.4516  0.0685
 3068TIP3    H130839   0.915   6.440   7.645 -0.3387 -0.2657  0.0332
 3068TIP3    H230840   0.965   6.297   7.655  1.8750  0.5396  1.0614
 3069TIP3   OH230841   5.718   2.738   0.415 -0.7072  0.0748  0.3626
 3069TIP3    H130842   5.684   2.653   0.441  0.3701 -0.7708 -0.8608
 3069TIP3    H230843   5.773   2.720   0.338  0.1829  1.7522  0.5449
 3070TIP3   OH230844   5.634   4.263   1.876 -0.1315 -0.4170  0.4079
 3070TIP3    H130845   5.586   4.182   1.891  0.5339 -0.7581  0.7496
 3070TIP3    H230846   5.649   4.266   1.782  0.9301 -1.3360  0.5318
 3071TIP3   OH230847   3.382   2.105   7.764 -0.1124 -0.6795  0.2065
 3071TIP3    H130848   3.368   2.124   7.671  1.4246 -2.2722 -0.3888
 3071TIP3    H230849   3.346   2.017   7.776  1.0074 -1.0746  0.7638
 3072TIP3   OH230850   3.248   3.974   0.024  0.1069 -0.6151  0.2398
 3072TIP3    H130851   3.178   3.989  -0.039 -1.1012 -1.4867  1.3227
 3072TIP3    H230852   3.208   3.922   0.093  0.6418  2.3558  3.0547
 3073TIP3   OH230853   3.803   1.688   2.020  0.0815 -0.7001  0.3283
 3073TIP3    H130854   3.757   1.767   2.050 -0.7108 -0.7200 -0.7702
 3073TIP3    H230855   3.801   1.695   1.924 -1.0950 -2.6428  0.1545
 3074TIP3   OH230856   0.354   3.947   6.818 -0.1929  0.2845  0.2229
 3074TIP3    H130857   0.283   3.918   6.760  0.7646 -1.8431  0.0454
 3074TIP3    H230858   0.399   4.015   6.768 -0.2777 -0.4877 -0.9671
 3075TIP3   OH230859   2.326   3.241   1.338 -0.0163 -0.3090 -0.2130
 3075TIP3    H130860   2.342   3.251   1.244  1.4066  1.4246  0.1649
 3075TIP3    H230861   2.241   3.283   1.352  0.3190  0.5065 -0.5597
 3076TIP3   OH230862   5.791   0.579   8.154  0.1180 -0.1675  0.1119
 3076TIP3    H130863   5.717   0.583   8.093  0.2106  0.2619  0.0195
 3076TIP3    H230864   5.796   0.488   8.180 -0.6019 -0.1541  0.3076
 3077TIP3   OH230865   3.490   1.896   7.974 -0.2715  0.0198 -0.4743
 3077TIP3    H130866   3.485   1.819   8.030  0.0551 -1.0227 -1.8199
 3077TIP3    H230867   3.427   1.879   7.904  0.7292  0.3475 -1.4989
 3078TIP3   OH230868   3.627   5.611   0.792  0.2065  0.3397 -0.0561
 3078TIP3    H130869   3.715   5.626   0.828 -0.1448  1.1631  0.4866
 3078TIP3    H230870   3.627   5.519   0.768  1.2466  0.3422 -0.1373
 3079TIP3   OH230871   0.515   3.258   6.958  0.0783  0.3957  0.5269
 3079TIP3    H130872   0.430   3.215   6.952 -0.2276  1.1868 -1.8024
 3079TIP3    H230873   0.541   3.273   6.867  1.8305  1.8968  1.2138
 3080TIP3   OH230874   6.905   5.514   7.996  0.5192  0.2784  0.1685
 3080TIP3    H130875   6.971   5.542   8.060 -0.4973  1.1487  0.8805
 3080TIP3    H230876   6.943   5.536   7.911  0.8399  1.4997  0.6047
 3081TIP3   OH230877   3.569   4.910   8.509  0.0761  0.1018  0.3082
 3081TIP3    H130878   3.613   4.974   8.454  2.2624 -1.3340  0.2544
 3081TIP3    H230879   3.495   4.880   8.456  1.5885 -0.5713 -1.5396
 3082TIP3   OH230880   4.002   4.615   8.034 -0.2122 -0.3171  0.6339
 3082TIP3    H130881   3.947   4.617   7.956  1.0090 -0.1131 -0.2689
 3082TIP3    H230882   4.081   4.567   8.006  0.2965 -0.1321  1.7033
 3083TIP3   OH230883   2.434   2.926   1.032  0.1892 -0.3365  0.0484
 3083TIP3    H130884   2.517   2.917   1.078  0.4473 -0.0448 -0.3524
 3083TIP3    H230885   2.458   2.959   0.946 -0.3165 -0.5655 -0.1839
 3084TIP3   OH230886   6.424   1.816   1.280 -0.5781 -0.1603  0.2177
 3084TIP3    H130887   6.460   1.789   1.364  0.2692 -0.3878 -0.1961
 3084TIP3    H230888   6.496   1.799   1.218 -1.0249  0.4359 -0.4702
 3085TIP3   OH230889   5.279   5.766   7.692  0.5727 -0.3206 -0.7843
 3085TIP3    H130890   5.194   5.744   7.652 -0.1255 -0.5697  0.7921
 3085TIP3    H230891   5.309   5.685   7.732  0.6222  0.2251  0.3176
 3086TIP3   OH230892   3.122   5.769   8.457 -0.0442  0.1376 -0.7442
 3086TIP3    H130893   3.146   5.853   8.417  2.2600 -0.5610 -0.9860
 3086TIP3    H230894   3.123   5.707   8.384  0.0295 -0.4021 -0.2942
 3087TIP3   OH230895   5.712   1.675   7.691  0.7254  0.5286  0.1800
 3087TIP3    H130896   5.647   1.622   7.736  0.7769  0.7421  0.5070
 3087TIP3    H230897   5.796   1.635   7.713  0.6241 -1.1243 -2.0195
 3088TIP3   OH230898   0.409   1.831   1.673  0.1970  0.2881 -0.1802
 3088TIP3    H130899   0.494   1.796   1.646 -0.0186 -0.2952 -0.1240
 3088TIP3    H230900   0.430   1.898   1.738  0.6781  1.1021 -1.1419
 3089TIP3   OH230901   4.433   3.627   2.255 -0.7498  0.2562  0.3822
 3089TIP3    H130902   4.416   3.544   2.211  0.0391 -0.7204  1.8330
 3089TIP3    H230903   4.452   3.603   2.345 -0.8235  2.0545  0.9203
 3090TIP3   OH230904   6.235   5.421   8.363 -0.0258 -0.1166 -0.3080
 3090TIP3    H130905   6.231   5.355   8.295 -1.6921  2.1965 -2.6555
 3090TIP3    H230906   6.286   5.493   8.324 -0.1863  0.9068  1.2479
 3091TIP3   OH230907   5.615   4.483   8.389  0.8102  0.3176 -0.2465
 3091TIP3    H130908   5.525   4.511   8.373  1.0787  0.8892 -0.8080
 3091TIP3    H230909   5.611   4.434   8.471 -0.2490 -0.8448 -0.9476
 3092TIP3   OH230910   6.638   2.749   1.146 -0.0411 -0.3158 -0.0698
 3092TIP3    H130911   6.543   2.759   1.140 -0.1947 -0.3021  1.8271
 3092TIP3    H230912   6.656   2.669   1.098 -0.9531 -0.1191 -0.7839
 3093TIP3   OH230913   6.196   5.492   7.230  0.2687  0.1366  0.1168
 3093TIP3    H130914   6.121   5.459   7.278  2.1545 -2.0579  1.7760
 3093TIP3    H230915   6.216   5.576   7.271 -0.7778  0.3780  0.1551
 3094TIP3   OH230916   2.962   1.723   1.882 -0.0296 -0.4249  0.6163
 3094TIP3    H130917   2.893   1.719   1.948  1.5200 -1.0573  2.2843
 3094TIP3    H230918   2.981   1.816   1.874 -0.7707 -0.2789  0.4505
 3095TIP3   OH230919   1.719   5.707   0.680  0.2545 -0.0637  0.0345
 3095TIP3    H130920   1.704   5.793   0.642 -0.4180 -0.0672  0.2773
 3095TIP3    H230921   1.643   5.692   0.735  0.0071 -1.1248 -0.5701
 3096TIP3   OH230922   2.703   3.265   7.853 -0.5239 -0.5042 -0.0319
 3096TIP3    H130923   2.700   3.174   7.825 -0.7787 -0.3576 -0.4851
 3096TIP3    H230924   2.787   3.297   7.821 -0.1129 -0.7728  0.7467
 3097TIP3   OH230925   5.923   0.808   1.846  0.0034  0.0817 -0.5686
 3097TIP3    H130926   5.848   0.748   1.858 -0.3860  0.8686  1.1355
 3097TIP3    H230927   5.990   0.774   1.904  0.2146  0.6028 -0.5067
 3098TIP3   OH230928   6.004   3.386   2.355  0.3872  0.2161 -0.3196
 3098TIP3    H130929   6.098   3.403   2.355  0.4436 -0.0947 -0.4684
 3098TIP3    H230930   5.990   3.326   2.282  0.0072  0.6218 -0.5839
 3099TIP3   OH230931   1.938   0.640   1.440 -0.2712 -0.5000 -0.0383
 3099TIP3    H130932   1.953   0.664   1.531  0.4242 -0.6149 -0.1154
 3099TIP3    H230933   2.013   0.585   1.417 -0.4810 -0.5389 -0.6586
 3100TIP3   OH230934   3.198   2.055   0.967  0.5784 -0.2517  0.4946
 3100TIP3    H130935   3.154   1.977   0.932  0.0908  0.4160 -0.4431
 3100TIP3    H230936   3.137   2.127   0.949  1.8757  0.6584 -0.5361
 3101TIP3   OH230937   5.867   0.013   7.261  0.3439 -0.6458 -0.7524
 3101TIP3    H130938   5.827  -0.063   7.302  0.3673 -0.2543  0.0111
 3101TIP3    H230939   5.822   0.088   7.299  0.7939 -0.2491 -0.9837
 3102TIP3   OH230940   6.425   1.575   0.903 -0.0564 -0.0153 -0.1193
 3102TIP3    H130941   6.371   1.605   0.830 -2.3987  1.1101  1.9219
 3102TIP3    H230942   6.392   1.487   0.923  0.0860 -0.0421 -0.0018
 3103TIP3   OH230943   1.184   2.116   8.073  0.4678  0.8425 -0.6478
 3103TIP3    H130944   1.239   2.123   8.152 -0.8598  1.5174  0.2454
 3103TIP3    H230945   1.174   2.206   8.043 -2.3919  1.1346  0.8370
 3104TIP3   OH230946   3.727   4.395   2.202 -0.1070 -0.1151  0.3111
 3104TIP3    H130947   3.696   4.428   2.286 -2.4485  0.6767 -0.7825
 3104TIP3    H230948   3.745   4.474   2.151 -0.9921 -0.5352 -0.6817
 3105TIP3   OH230949   0.413   2.622   6.936  0.2238 -0.0486 -0.3532
 3105TIP3    H130950   0.414   2.549   6.874  0.6964  0.7586 -1.3205
 3105TIP3    H230951   0.359   2.689   6.894 -0.2891  0.1305  0.5704
 3106TIP3   OH230952   0.961   3.984   1.666 -0.2971  0.1404  0.0918
 3106TIP3    H130953   0.866   3.987   1.651 -0.3300  0.1679  0.3037
 3106TIP3    H230954   0.998   4.038   1.597 -0.3086 -1.3117 -1.1178
 3107TIP3   OH230955   6.430   2.690   0.771 -0.9031 -0.0881  0.2509
 3107TIP3    H130956   6.341   2.665   0.746  0.7659 -3.4143 -3.3780
 3107TIP3    H230957   6.467   2.611   0.811  0.8146  0.8093  0.5508
 3108TIP3   OH230958   0.558   5.934   7.753 -0.1476 -0.4631  0.4886
 3108TIP3    H130959   0.609   6.014   7.739  0.1582 -0.8500 -0.6950
 3108TIP3    H230960   0.467   5.963   7.746 -0.0652 -0.0046  1.2851
 3109TIP3   OH230961   0.450   5.571   0.396 -0.0477 -0.3851 -0.3617
 3109TIP3    H130962   0.425   5.646   0.450 -0.9772 -0.8109 -0.1794
 3109TIP3    H230963   0.385   5.569   0.326 -0.2431 -1.2261 -0.1667
 3110TIP3   OH230964   6.695   6.404   1.181  0.0657  0.4947  0.2675
 3110TIP3    H130965   6.705   6.497   1.199  0.6453  0.4274  0.3052
 3110TIP3    H230966   6.673   6.399   1.088 -1.5399  0.7571  0.5959
 3111TIP3   OH230967   2.321   2.590   1.810 -0.5226 -0.2853 -0.5694
 3111TIP3    H130968   2.258   2.520   1.794 -2.5669  1.5628 -1.0176
 3111TIP3    H230969   2.299   2.623   1.897  0.8660 -0.5712 -0.0703
 3112TIP3   OH230970   1.163   0.745   2.306 -0.6819 -0.3038  0.0904
 3112TIP3    H130971   1.118   0.717   2.226 -1.3209  0.6813  0.0885
 3112TIP3    H230972   1.132   0.684   2.373 -1.0688 -0.3865 -0.1606
 3113TIP3   OH230973   0.833   0.765   0.250  0.1174  0.1615 -0.6086
 3113TIP3    H130974   0.869   0.691   0.299  1.4390  0.6108 -0.8533
 3113TIP3    H230975   0.894   0.778   0.177  0.1510  1.7511 -0.3339
 3114TIP3   OH230976   0.017   5.253   0.520 -0.9900 -0.0815 -0.1521
 3114TIP3    H130977   0.064   5.251   0.437  0.5025  0.8479  0.6272
 3114TIP3    H230978  -0.052   5.319   0.507 -1.7570 -1.0473 -1.1222
 3115TIP3   OH230979   0.599   4.794   0.990  0.4604 -0.3063 -0.3371
 3115TIP3    H130980   0.543   4.818   0.916  0.3578  1.7512  0.3180
 3115TIP3    H230981   0.552   4.725   1.035 -0.5561 -0.0380 -0.9577
 3116TIP3   OH230982   1.722   2.205   0.812 -0.5876  0.2116 -0.1271
 3116TIP3    H130983   1.803   2.250   0.787 -0.4339  0.4690  0.7994
 3116TIP3    H230984   1.663   2.276   0.841 -1.0119 -0.0098 -0.4396
 3117TIP3   OH230985   4.027   2.784   7.417 -0.5593 -0.0526 -0.3805
 3117TIP3    H130986   4.022   2.695   7.452  0.3394 -0.0918 -0.3409
 3117TIP3    H230987   4.038   2.772   7.323  2.2037 -0.0847 -0.1440
 3118TIP3   OH230988   2.694   5.885   7.630 -0.4217 -0.6483 -0.6021
 3118TIP3    H130989   2.622   5.924   7.580  0.7031  0.6090 -1.2821
 3118TIP3    H230990   2.694   5.793   7.605 -1.4690 -0.5646 -0.9678
 3119TIP3   OH230991   6.560   4.343   7.645 -0.2237  0.8991 -0.3313
 3119TIP3    H130992   6.487   4.312   7.592  0.5668  0.8030 -1.4071
 3119TIP3    H230993   6.557   4.290   7.725 -1.0399  0.5762 -0.5726
 3120TIP3   OH230994   6.240   1.265   7.682 -0.8771  0.1529  0.0777
 3120TIP3    H130995   6.236   1.194   7.618 -3.6143  0.1395  0.1683
 3120TIP3    H230996   6.222   1.344   7.631  2.0456  0.8759 -0.0037
 3121TIP3   OH230997   5.536   6.372   1.176 -0.1854  1.1021  0.0398
 3121TIP3    H130998   5.533   6.320   1.096 -0.5624  1.8952 -0.4776
 3121TIP3    H230999   5.454   6.422   1.175 -0.1252  1.2396  0.8464
 3122TIP3   OH231000   0.392   1.536   7.347  0.1800 -0.6878 -0.4877
 3122TIP3    H131001   0.428   1.522   7.435 -0.6778 -2.2000 -0.3466
 3122TIP3    H231002   0.297   1.539   7.360  0.1170  1.3225 -1.1018
 3123TIP3   OH231003   1.401   2.163   8.251 -0.7410  0.0322  0.1439
 3123TIP3    H131004   1.345   2.157   8.329  0.9923  0.2360  1.4545
 3123TIP3    H231005   1.433   2.254   8.252 -0.6953  0.0329 -0.8180
 3124TIP3   OH231006   2.671   2.820   1.178  0.5531  0.0997  0.4975
 3124TIP3    H131007   2.762   2.824   1.205  1.2985  1.4476 -1.9522
 3124TIP3    H231008   2.662   2.734   1.136  0.4033 -0.4005  1.5047
 3125TIP3   OH231009   0.424   0.328   1.605  0.6290  0.6461  0.0937
 3125TIP3    H131010   0.492   0.387   1.638  0.1841  1.0173  0.3529
 3125TIP3    H231011   0.428   0.252   1.663 -0.1452  1.2903  1.0216
 3126TIP3   OH231012   6.212   0.840   0.967 -0.3182 -0.0701  0.7916
 3126TIP3    H131013   6.130   0.839   0.916  0.3076 -0.5218 -0.2317
 3126TIP3    H231014   6.275   0.882   0.908  0.2326  0.1288  1.5188
 3127TIP3   OH231015   3.810   6.209   2.638  0.1366 -0.5798 -0.0032
 3127TIP3    H131016   3.851   6.158   2.568 -1.9111 -1.0102 -0.9488
 3127TIP3    H231017   3.716   6.194   2.628 -0.2723 -0.0756  2.4132
 3128TIP3   OH231018   3.451   4.337   7.649  0.3101  0.1898 -0.6659
 3128TIP3    H131019   3.466   4.425   7.614 -0.7031  0.6787  0.0990
 3128TIP3    H231020   3.416   4.351   7.737  0.6937 -0.9946 -0.3009
 3129TIP3   OH231021   4.878   0.691   0.651 -0.0032 -0.0010 -0.1151
 3129TIP3    H131022   4.907   0.704   0.561  1.8455  1.0078  0.5532
 3129TIP3    H231023   4.956   0.711   0.704 -1.2319  0.1580  1.7315
 3130TIP3   OH231024   5.504   1.236   2.869 -0.2351  0.4202 -0.2554
 3130TIP3    H131025   5.504   1.148   2.906 -0.2126 -0.2557 -1.7830
 3130TIP3    H231026   5.452   1.288   2.930  1.1628 -0.2129  1.5829
 3131TIP3   OH231027   0.219   0.152   1.029 -0.3229  0.1128 -0.4163
 3131TIP3    H131028   0.157   0.200   1.084  0.7385  1.1894 -0.1227
 3131TIP3    H231029   0.216   0.062   1.064 -0.3908  0.5543  0.7780
 3132TIP3   OH231030   2.846   4.603   8.185 -0.0946 -0.5060  0.5550
 3132TIP3    H131031   2.824   4.643   8.101  1.1349 -2.7915 -0.9610
 3132TIP3    H231032   2.763   4.566   8.216 -0.8008  1.3026  0.9935
 3133TIP3   OH231033   4.059   1.457   7.137  0.0331 -0.4468  0.3873
 3133TIP3    H131034   4.101   1.488   7.217  1.2187 -3.2548  0.9886
 3133TIP3    H231035   3.983   1.408   7.168 -0.4266 -0.2036 -0.3334
 3134TIP3   OH231036   3.264   2.325   8.222 -0.0966 -0.4235 -0.1815
 3134TIP3    H131037   3.325   2.346   8.150  1.8225 -2.8302  0.6228
 3134TIP3    H231038   3.236   2.235   8.205 -1.1032 -0.3802  1.0916
 3135TIP3   OH231039   0.521   3.408   7.326 -0.7280  0.0028  0.1194
 3135TIP3    H131040   0.483   3.439   7.408 -1.3564  0.3762 -0.3078
 3135TIP3    H231041   0.468   3.449   7.258  0.1968  0.2307 -0.4906
 3136TIP3   OH231042   2.132   4.739   6.713  0.2038 -0.2325 -0.1204
 3136TIP3    H131043   2.122   4.821   6.665  1.1185 -0.1914 -0.2624
 3136TIP3    H231044   2.112   4.762   6.804  0.2463  0.0995 -0.1926
 3137TIP3   OH231045   4.588   3.859   1.367 -0.1632  0.0561  0.6619
 3137TIP3    H131046   4.501   3.830   1.395 -0.6391  0.3961 -0.4163
 3137TIP3    H231047   4.643   3.848   1.445 -0.7409 -1.9378  0.8611
 3138TIP3   OH231048   0.041   1.202   7.817 -0.5911  0.1793 -0.1048
 3138TIP3    H131049   0.096   1.241   7.885 -0.2972 -1.2910  0.5279
 3138TIP3    H231050   0.041   1.267   7.747  0.5948  0.9312  0.5518
 3139TIP3   OH231051   4.465   4.335   0.536  0.3672  0.1687  0.1102
 3139TIP3    H131052   4.382   4.382   0.528  0.8546  1.2016  0.9876
 3139TIP3    H231053   4.465   4.275   0.461 -1.1986  0.0823  0.1419
 3140TIP3   OH231054   6.353   1.411   1.568 -0.0238 -0.4523  0.5547
 3140TIP3    H131055   6.373   1.328   1.612 -0.2968 -0.4691  0.6540
 3140TIP3    H231056   6.438   1.448   1.545  0.0773 -1.3009 -0.5078
 3141TIP3   OH231057   3.958   3.927   1.761  0.4497 -0.6909 -0.4061
 3141TIP3    H131058   3.988   3.840   1.736  1.5481 -0.4888  0.1314
 3141TIP3    H231059   3.971   3.930   1.856 -0.0632 -0.1212 -0.3463
 3142TIP3   OH231060   6.612   4.244   2.214  0.3579 -0.4311  0.0797
 3142TIP3    H131061   6.621   4.339   2.221  1.8254 -0.5594  0.3095
 3142TIP3    H231062   6.648   4.210   2.296 -0.0159 -1.1873 -0.0580
 3143TIP3   OH231063   4.573   1.436   8.375  0.0850 -0.3664  0.4330
 3143TIP3    H131064   4.516   1.370   8.415  0.3667 -0.9952 -0.1684
 3143TIP3    H231065   4.645   1.385   8.339 -0.6505  0.0525 -1.7492
 3144TIP3   OH231066   6.524   6.269   2.339  0.7147 -0.0711  0.7059
 3144TIP3    H131067   6.506   6.318   2.259  1.3438  1.2981  1.3684
 3144TIP3    H231068   6.539   6.179   2.310 -0.6151  0.0839 -0.5243
 3145TIP3   OH231069   6.779   3.093   0.059  0.4463  0.0260 -0.5738
 3145TIP3    H131070   6.813   3.017   0.013 -0.3006 -0.2840 -0.6281
 3145TIP3    H231071   6.689   3.101   0.028  0.6421  1.1971 -0.9147
 3146TIP3   OH231072   3.652   4.338   8.217  0.0152  0.2961  0.2014
 3146TIP3    H131073   3.677   4.332   8.125 -1.6175 -0.4108 -0.2195
 3146TIP3    H231074   3.630   4.249   8.243  0.7368  0.4351  1.3757
 3147TIP3   OH231075   1.313   1.529   1.703 -0.2622  0.3931  0.1166
 3147TIP3    H131076   1.339   1.521   1.611 -0.9842 -1.9774  0.0428
 3147TIP3    H231077   1.309   1.623   1.719 -0.3386  0.8739 -2.3508
 3148TIP3   OH231078   3.466   0.682   1.696  0.5366 -0.0392  0.1521
 3148TIP3    H131079   3.413   0.755   1.728  0.1139 -0.2911  0.0369
 3148TIP3    H231080   3.554   0.700   1.728  0.4591  0.5794  0.0328
 3149TIP3   OH231081   4.870   0.454   7.930  0.0161 -0.9135 -0.1253
 3149TIP3    H131082   4.961   0.481   7.941  0.1407 -0.9960 -0.9234
 3149TIP3    H231083   4.861   0.435   7.836 -0.8772 -0.6814 -0.0988
 3150TIP3   OH231084   6.103   2.427   7.885 -0.1005 -0.2161  0.3194
 3150TIP3    H131085   6.034   2.399   7.945  0.1062  0.1278  0.7226
 3150TIP3    H231086   6.159   2.484   7.938  0.2832 -0.1936 -0.1054
 3151TIP3   OH231087   2.676   4.504   0.583 -0.6341  1.0815 -0.2055
 3151TIP3    H131088   2.597   4.537   0.625 -0.3423 -0.7705  1.9868
 3151TIP3    H231089   2.733   4.580   0.577 -1.5440  1.8753  0.7693
 3152TIP3   OH231090   3.139   1.947   1.878 -0.0133  0.4492 -0.1837
 3152TIP3    H131091   3.178   2.033   1.864  0.6418  0.2392  0.2992
 3152TIP3    H231092   3.213   1.887   1.880  0.0931  0.4184  3.9009
 3153TIP3   OH231093   2.059   6.344   1.390  0.1882  0.1628  0.3429
 3153TIP3    H131094   2.092   6.287   1.459  0.8288  1.1798  0.9019
 3153TIP3    H231095   2.034   6.425   1.435 -2.1278 -0.1826 -0.2183
 3154TIP3   OH231096   1.519   5.563   0.036 -0.6826  0.3898  0.1950
 3154TIP3    H131097   1.506   5.490  -0.025 -0.6792  0.5088  0.0534
 3154TIP3    H231098   1.447   5.555   0.098  0.6427 -1.1945  1.6291
 3155TIP3   OH231099   0.960   2.819   2.115  0.5423 -0.1523 -0.1152
 3155TIP3    H131100   1.011   2.740   2.132  1.3371  0.1705 -0.9184
 3155TIP3    H231101   0.981   2.877   2.188 -0.4640 -0.8670  0.7679
 3156TIP3   OH231102   0.971   0.324   7.751 -0.0166  0.3967  0.6794
 3156TIP3    H131103   1.049   0.368   7.786 -0.5388  1.5705  0.4156
 3156TIP3    H231104   0.910   0.321   7.825  0.5555 -1.2580  1.1171
 3157TIP3   OH231105   0.560   5.380   7.977 -0.2632  0.3702 -0.3478
 3157TIP3    H131106   0.478   5.382   8.025 -0.7338  1.2138 -1.1620
 3157TIP3    H231107   0.534   5.381   7.885  0.6246 -0.7959 -0.6446
 3158TIP3   OH231108   3.205   1.369   0.495 -0.1491  0.0612  0.7029
 3158TIP3    H131109   3.163   1.452   0.519  0.2689  0.5910 -0.3414
 3158TIP3    H231110   3.295   1.377   0.526 -0.2138 -0.1710  0.9569
 3159TIP3   OH231111   1.197   1.744   2.243 -0.1120 -0.2109  0.0925
 3159TIP3    H131112   1.278   1.765   2.290 -0.1054 -1.5741  0.7342
 3159TIP3    H231113   1.137   1.715   2.312 -0.6350 -0.7130 -0.5641
 3160TIP3   OH231114   4.998   3.624   0.364 -0.3270  0.4931 -0.0976
 3160TIP3    H131115   5.042   3.672   0.434 -1.5515  0.8406  0.4633
 3160TIP3    H231116   4.906   3.625   0.389 -0.4483 -1.8269 -0.2630
 3161TIP3   OH231117   6.145   5.742   1.267 -0.0123  0.3078 -0.1537
 3161TIP3    H131118   6.189   5.693   1.336  0.5243  0.9924  0.0001
 3161TIP3    H231119   6.135   5.680   1.195 -0.2387 -0.3054  0.3969
 3162TIP3   OH231120   1.843   4.696   8.464 -0.1754  0.1008  0.0997
 3162TIP3    H131121   1.792   4.620   8.491 -0.9447 -0.0762 -1.7246
 3162TIP3    H231122   1.787   4.771   8.484 -0.1518  0.0673  0.2899
 3163TIP3   OH231123   2.966   0.600   2.235 -0.3241  0.4954  0.3898
 3163TIP3    H131124   2.893   0.586   2.295 -0.8302 -1.1447 -0.5724
 3163TIP3    H231125   3.044   0.586   2.289 -0.7584 -0.3018  0.8198
 3164TIP3   OH231126   1.679   4.159   1.585 -0.0817  0.0712 -0.0806
 3164TIP3    H131127   1.718   4.210   1.514  0.7855 -0.4905 -0.0175
 3164TIP3    H231128   1.585   4.162   1.567  0.0173  1.0243 -0.5193
 3165TIP3   OH231129   3.706   4.068   7.057  0.9144  0.2059 -0.5703
 3165TIP3    H131130   3.654   3.998   7.095 -0.5440  1.3081 -0.4612
 3165TIP3    H231131   3.756   4.103   7.131  2.2076 -1.1368 -0.7581
 3166TIP3   OH231132   3.067   0.044   1.970 -0.2225 -0.0561  0.5066
 3166TIP3    H131133   3.143   0.049   2.027 -1.3815  1.9117  2.0040
 3166TIP3    H231134   3.043   0.135   1.954 -2.7201 -0.5973  0.7461
 3167TIP3   OH231135   5.101   6.025   1.827  0.1105 -0.5007 -0.7540
 3167TIP3    H131136   5.020   5.973   1.830 -0.8946  0.9637 -1.5900
 3167TIP3    H231137   5.157   5.984   1.893 -1.9088 -0.5710  1.0402
 3168TIP3   OH231138   3.637   2.630   7.918  0.0791  0.1028 -0.1791
 3168TIP3    H131139   3.597   2.704   7.963  1.3777  1.2615 -0.8596
 3168TIP3    H231140   3.579   2.556   7.937 -1.4932  1.3718  0.1687
 3169TIP3   OH231141   1.052   6.512   0.701 -0.0988  0.2795 -0.7186
 3169TIP3    H131142   1.045   6.452   0.775 -1.7700  1.0312 -0.2042
 3169TIP3    H231143   1.096   6.589   0.736  0.5625  0.0123 -0.9471
 3170TIP3   OH231144   3.041   5.360   0.401 -0.2126 -0.5291  0.0672
 3170TIP3    H131145   3.072   5.270   0.408 -3.1908 -1.5585  2.0073
 3170TIP3    H231146   2.954   5.353   0.361 -1.1452  1.2780  1.6135
 3171TIP3   OH231147   0.124   0.162   0.582  0.5907 -0.5271 -0.2826
 3171TIP3    H131148   0.121   0.256   0.567  0.0895 -0.6612 -1.0551
 3171TIP3    H231149   0.107   0.152   0.676  1.3900  0.1886 -0.0484
 3172TIP3   OH231150   3.271   6.597   7.874  0.2069  0.2843 -0.2900
 3172TIP3    H131151   3.239   6.687   7.873 -0.3542  0.1055 -1.8195
 3172TIP3    H231152   3.339   6.595   7.941 -0.8274  1.4587  0.8432
 3173TIP3   OH231153   2.680   2.165   2.180 -0.2110  0.9333  0.6620
 3173TIP3    H131154   2.666   2.084   2.229  1.8687 -0.3091 -0.6345
 3173TIP3    H231155   2.592   2.193   2.155 -0.9599 -1.5860  0.1755
 3174TIP3   OH231156   6.890   2.512   7.473 -0.6558 -0.1828  0.2933
 3174TIP3    H131157   6.906   2.595   7.517  0.8694 -0.3693  0.1512
 3174TIP3    H231158   6.807   2.481   7.509 -1.1271  1.2788  0.5172
 3175TIP3   OH231159   4.875   5.034   7.529 -0.0174 -0.0456 -0.2209
 3175TIP3    H131160   4.810   5.036   7.459 -0.1594  2.8051 -0.1576
 3175TIP3    H231161   4.954   5.000   7.488 -1.2033 -2.5278 -0.5760
 3176TIP3   OH231162   1.151   2.448   0.959  1.1163 -0.0965 -0.2823
 3176TIP3    H131163   1.212   2.479   1.026 -1.9618  1.4137  2.0961
 3176TIP3    H231164   1.163   2.508   0.886  2.3739  0.2160  0.1560
 3177TIP3   OH231165   6.517   2.826   8.483 -0.0898  0.1820  0.7269
 3177TIP3    H131166   6.482   2.913   8.503 -0.8293  0.0711 -0.0322
 3177TIP3    H231167   6.498   2.774   8.561  0.2309  0.6544  1.1295
 3178TIP3   OH231168   5.559   6.496   2.541  0.3255 -0.2534 -0.1239
 3178TIP3    H131169   5.469   6.528   2.550  0.3510 -0.1631 -0.1885
 3178TIP3    H231170   5.574   6.446   2.622 -0.2156 -1.3643 -0.6834
 3179TIP3   OH231171   1.931   6.406   2.694 -0.2465  0.6229  0.0583
 3179TIP3    H131172   1.889   6.389   2.778  1.1130  0.1007  0.6654
 3179TIP3    H231173   1.901   6.336   2.637  3.3376 -2.7709  1.8256
 3180TIP3   OH231174   2.030   4.794   6.951  0.5825 -0.0995 -0.0185
 3180TIP3    H131175   2.011   4.716   7.004 -0.8063  1.1597  1.4189
 3180TIP3    H231176   2.043   4.864   7.015 -0.1379  1.2750 -1.3268
 3181TIP3   OH231177   0.863   4.348   7.562  0.3856 -0.4874  0.3293
 3181TIP3    H131178   0.876   4.294   7.484 -0.1198 -1.2684  0.7694
 3181TIP3    H231179   0.900   4.433   7.538 -0.9123 -0.3028 -1.2487
 3182TIP3   OH231180   6.867   3.461   0.473 -0.0289  0.1883 -0.2506
 3182TIP3    H131181   6.806   3.399   0.513  0.5910 -1.1622 -1.3271
 3182TIP3    H231182   6.953   3.435   0.505  0.3168  0.0082 -1.2853
 3183TIP3   OH231183   6.376   1.655   1.839  0.1174  0.0215  0.0604
 3183TIP3    H131184   6.356   1.711   1.914 -1.2931  2.1303 -1.7472
 3183TIP3    H231185   6.290   1.627   1.806  0.7089 -1.1395 -0.5853
 3184TIP3   OH231186   0.714   0.854   1.483  0.0703  0.1230  0.2365
 3184TIP3    H131187   0.731   0.915   1.555 -0.3179  1.0794 -0.4573
 3184TIP3    H231188   0.671   0.907   1.417 -1.0176 -1.0975 -0.0743
 3185TIP3   OH231189   1.029   0.494   7.247  0.5617 -0.2710  0.0948
 3185TIP3    H131190   1.067   0.582   7.253  0.3095  0.1686 -3.0130
 3185TIP3    H231191   0.950   0.498   7.301  1.5989  0.7262  1.6363
 3186TIP3   OH231192   1.771   5.850   7.131 -0.2785 -0.1068  0.6539
 3186TIP3    H131193   1.863   5.875   7.126 -0.1180 -0.8802 -1.1729
 3186TIP3    H231194   1.762   5.808   7.217  0.8472  0.7582  1.2181
 3187TIP3   OH231195   1.091   6.213   0.546 -0.0556 -1.0665 -0.8711
 3187TIP3    H131196   1.032   6.177   0.613  0.1255 -1.0644 -0.7082
 3187TIP3    H231197   1.161   6.254   0.596 -0.0313 -0.8733 -1.0630
 3188TIP3   OH231198   3.073   5.184   7.526 -0.0537  0.0211 -0.1021
 3188TIP3    H131199   3.003   5.123   7.551  0.9925 -0.9716  0.4703
 3188TIP3    H231200   3.038   5.270   7.549 -1.1169 -0.4549  0.1238
 3189TIP3   OH231201   4.584   5.895   7.849  0.2259 -0.0019 -0.3574
 3189TIP3    H131202   4.516   5.955   7.881  1.1179  0.4960  0.6931
 3189TIP3    H231203   4.611   5.846   7.926  2.0636  0.8474 -0.3995
 3190TIP3   OH231204   2.543   5.774   1.673  0.6028 -0.1894 -0.8555
 3190TIP3    H131205   2.530   5.708   1.605 -0.1579  0.5791 -1.4747
 3190TIP3    H231206   2.551   5.724   1.754  1.5357 -1.1204 -1.4906
 3191TIP3   OH231207   3.757   6.468   8.335 -0.3376  0.2904  0.5115
 3191TIP3    H131208   3.720   6.412   8.403  0.1487 -0.4081  0.2110
 3191TIP3    H231209   3.819   6.524   8.381  0.0690 -0.2519  0.6316
 3192TIP3   OH231210   6.454   2.637   0.115 -0.1052  0.1077 -0.1699
 3192TIP3    H131211   6.486   2.635   0.206  0.7717 -0.4479 -0.4765
 3192TIP3    H231212   6.368   2.678   0.121 -0.9548 -1.7235  1.1966
 3193TIP3   OH231213   6.554   4.559   1.338 -0.0233 -0.0798 -0.2517
 3193TIP3    H131214   6.525   4.642   1.302  0.6842 -0.0325 -0.7377
 3193TIP3    H231215   6.525   4.494   1.274 -2.1813 -0.4423  0.9917
 3194TIP3   OH231216   4.519   0.507   7.839  0.5494  0.2790 -0.4722
 3194TIP3    H131217   4.526   0.430   7.896  0.0325  0.7012  0.1878
 3194TIP3    H231218   4.575   0.572   7.881 -1.4618  1.3044  0.8122
 3195TIP3   OH231219   5.100   4.083   0.498  0.4575 -0.1071 -0.3674
 3195TIP3    H131220   5.159   4.130   0.556  2.0368  1.1356 -2.7915
 3195TIP3    H231221   5.027   4.143   0.483  0.4093 -0.1303 -0.2239
 3196TIP3   OH231222   3.020   5.798   1.847  0.1307  0.5022 -0.4017
 3196TIP3    H131223   2.937   5.828   1.883  0.2609 -1.2568  1.5691
 3196TIP3    H231224   2.998   5.719   1.798  0.5271  0.6284 -0.7981
 3197TIP3   OH231225   5.284   3.500   6.843 -0.4612  0.5773  0.2166
 3197TIP3    H131226   5.319   3.430   6.787 -2.2697  0.9339 -1.4886
 3197TIP3    H231227   5.298   3.580   6.792  2.2278  1.6852  2.4291
 3198TIP3   OH231228   0.080   6.136   6.510 -0.2695 -0.4230  0.0329
 3198TIP3    H131229   0.135   6.170   6.439 -0.8244  0.1745 -0.1248
 3198TIP3    H231230   0.006   6.095   6.465  0.1292 -1.3863  0.2371
 3199TIP3   OH231231   0.363   5.716   8.083 -0.0872 -0.2534 -0.3606
 3199TIP3    H131232   0.429   5.707   8.013 -0.6655  1.4457 -1.1825
 3199TIP3    H231233   0.284   5.743   8.037 -1.4492 -2.4077  0.6055
 3200TIP3   OH231234   2.549   1.079   1.340  0.6892  0.1873 -0.3592
 3200TIP3    H131235   2.557   1.140   1.266  1.1236  0.7833  0.1770
 3200TIP3    H231236   2.457   1.053   1.339  0.7258  0.0590 -1.2108
 3201TIP3   OH231237   2.816   1.127   7.049 -0.8513 -0.5882 -0.4388
 3201TIP3    H131238   2.757   1.115   7.123  0.1992  0.1913  0.5690
 3201TIP3    H231239   2.879   1.193   7.079  0.6654 -1.5396 -1.3852
 3202TIP3   OH231240   2.271   2.070   7.046  0.6380  0.3136  0.2607
 3202TIP3    H131241   2.295   2.124   6.970  1.8510 -0.0399  0.3679
 3202TIP3    H231242   2.226   1.995   7.009  0.1743  0.7189 -0.0068
 3203TIP3   OH231243   3.580   5.758   1.254  0.3719 -0.2630  0.2751
 3203TIP3    H131244   3.636   5.832   1.228  0.7883 -0.6553  0.0457
 3203TIP3    H231245   3.552   5.719   1.171  1.2864 -1.2078  0.4033
 3204TIP3   OH231246   3.038   3.131   2.144 -0.2804 -0.0424  0.0354
 3204TIP3    H131247   3.076   3.043   2.141  0.8377  0.4333 -0.4125
 3204TIP3    H231248   3.038   3.153   2.237  1.5656  0.3352 -0.0045
 3205TIP3   OH231249   3.003   4.349   7.324  0.4206 -0.4416 -0.0903
 3205TIP3    H131250   2.935   4.288   7.354 -0.6129  0.0819 -1.2712
 3205TIP3    H231251   3.061   4.359   7.399 -1.0193 -0.6167  1.1017
 3206TIP3   OH231252   2.620   1.008   3.053 -1.0757 -0.7516  0.2726
 3206TIP3    H131253   2.596   0.976   3.140 -0.4793 -0.1193  0.6762
 3206TIP3    H231254   2.578   1.094   3.047 -0.3996 -0.4136  0.2873
 3207TIP3   OH231255   4.073   3.991   1.338  0.1701 -0.3845 -0.2047
 3207TIP3    H131256   4.024   3.909   1.338  0.2692 -0.4411 -0.7687
 3207TIP3    H231257   4.082   4.014   1.246 -0.6512  0.7320 -0.0317
 3208TIP3   OH231258   5.644   5.951   0.056 -0.2375 -0.5708  0.2754
 3208TIP3    H131259   5.678   5.879   0.108 -0.5465  1.1314  3.0552
 3208TIP3    H231260   5.552   5.929   0.040  0.3753 -2.0843 -1.5054
 3209TIP3   OH231261   5.781   1.248   7.924 -0.6989  0.4382  0.4536
 3209TIP3    H131262   5.876   1.250   7.914 -0.7983  0.7268 -0.5211
 3209TIP3    H231263   5.747   1.276   7.839 -1.6588  0.1996  0.7441
 3210TIP3   OH231264   3.426   2.389   2.857  0.1087  0.1911 -0.2856
 3210TIP3    H131265   3.448   2.314   2.913 -0.2811 -0.2904 -0.7624
 3210TIP3    H231266   3.330   2.392   2.859 -0.0070 -0.8218 -2.1694
 3211TIP3   OH231267   5.790   3.402   1.096  0.2268 -0.1707 -0.3597
 3211TIP3    H131268   5.820   3.489   1.121 -2.4667  0.7311  0.0574
 3211TIP3    H231269   5.709   3.417   1.047 -0.1140 -2.4225 -0.6160
 3212TIP3   OH231270   2.357   2.774   2.934  0.0248  0.3702 -0.0209
 3212TIP3    H131271   2.325   2.728   3.012  0.1038 -1.1599 -0.8685
 3212TIP3    H231272   2.419   2.714   2.894  0.9733  1.6761 -0.5845
 3213TIP3   OH231273   2.154   6.902   2.640 -0.1892 -0.0488 -0.4193
 3213TIP3    H131274   2.223   6.942   2.587 -1.8462 -0.1896 -2.7815
 3213TIP3    H231275   2.146   6.961   2.716  1.0630  1.1373 -1.1576
 3214TIP3   OH231276   0.623   2.489   2.491  0.0104  0.6936  0.3977
 3214TIP3    H131277   0.563   2.528   2.429  0.0581  1.8396  1.0444
 3214TIP3    H231278   0.587   2.402   2.509  0.2775  0.1187 -1.5894
 3215TIP3   OH231279   4.738   0.425   1.304 -0.2651  0.2998 -0.5054
 3215TIP3    H131280   4.764   0.383   1.222 -0.2237 -0.1234 -0.2768
 3215TIP3    H231281   4.658   0.473   1.281  0.7783  1.7366 -1.2388
 3216TIP3   OH231282   4.875   5.336   0.579  0.2896  0.5728  0.1292
 3216TIP3    H131283   4.964   5.336   0.615 -0.1834  3.1768  1.5717
 3216TIP3    H231284   4.819   5.355   0.654 -1.9635 -3.9930 -0.0671
 3217TIP3   OH231285   1.864   6.665   1.866 -0.7736 -0.3261 -0.2376
 3217TIP3    H131286   1.849   6.685   1.959 -1.1308  1.5620 -0.6637
 3217TIP3    H231287   1.852   6.570   1.860  1.4455 -0.8638  2.0522
 3218TIP3   OH231288   2.017   4.551   1.321  0.3481 -0.0160  0.0876
 3218TIP3    H131289   2.102   4.570   1.361  0.2481  1.3284 -0.2916
 3218TIP3    H231290   1.960   4.621   1.352  0.2183  0.9824 -2.1994
 3219TIP3   OH231291   2.438   1.908   1.925  0.4323  0.9050 -0.3197
 3219TIP3    H131292   2.356   1.941   1.962  0.3788  0.5966 -0.1569
 3219TIP3    H231293   2.487   1.876   2.001  1.2906  2.3141 -0.2371
 3220TIP3   OH231294   3.623   3.007   0.992  0.0763  0.6590  0.2421
 3220TIP3    H131295   3.648   3.090   0.952 -0.0414  0.6205  0.0860
 3220TIP3    H231296   3.666   3.007   1.078  0.9434  0.4044 -0.1869
 3221TIP3   OH231297   2.478   5.421   8.356  0.0235  0.3226 -0.0707
 3221TIP3    H131298   2.557   5.473   8.366  0.3075 -0.4662  2.7181
 3221TIP3    H231299   2.406   5.485   8.362  0.4128  0.8289 -0.7267
 3222TIP3   OH231300   0.004   4.479   8.435 -0.8608 -0.5251  0.0321
 3222TIP3    H131301  -0.055   4.506   8.505  0.4648 -0.8143  1.3183
 3222TIP3    H231302   0.086   4.524   8.455 -0.8427  0.5107 -2.1734
 3223TIP3   OH231303   4.331   4.187   7.179 -0.3077  0.0560  0.0559
 3223TIP3    H131304   4.362   4.178   7.089 -0.2580 -1.1353  0.1826
 3223TIP3    H231305   4.242   4.152   7.178 -0.7346  1.0906  0.2403
 3224TIP3   OH231306   2.383   0.425   0.172  0.6897 -0.3854 -0.1622
 3224TIP3    H131307   2.309   0.422   0.111 -0.8636  0.8244  1.5784
 3224TIP3    H231308   2.448   0.480   0.127 -0.1862  0.0178 -0.9670
 3225TIP3   OH231309   6.100   0.335   1.491  0.3049 -0.1720  0.0544
 3225TIP3    H131310   6.132   0.348   1.402  0.6513 -0.9398  0.0615
 3225TIP3    H231311   6.041   0.260   1.484 -1.1691  0.9258  0.1249
 3226TIP3   OH231312   6.468   0.110   0.803  0.2318  0.1325 -0.0032
 3226TIP3    H131313   6.435   0.050   0.736 -0.2512  0.1026  0.2538
 3226TIP3    H231314   6.469   0.195   0.761  0.4328  0.0270 -0.2130
 3227TIP3   OH231315   5.622   5.724   0.642 -0.5535 -0.1196  0.6262
 3227TIP3    H131316   5.528   5.712   0.659 -0.5172  0.6886  1.5602
 3227TIP3    H231317   5.649   5.790   0.707  0.2927  0.9393 -0.7388
 3228TIP3   OH231318   3.616   5.692   8.165  0.0582  0.1732  0.8992
 3228TIP3    H131319   3.657   5.682   8.079  0.6842 -0.9427  1.3121
 3228TIP3    H231320   3.563   5.771   8.157 -0.1877 -0.1122 -0.6327
 3229TIP3   OH231321   1.427   4.247   7.633 -0.0865  0.1385  0.1039
 3229TIP3    H131322   1.336   4.220   7.618  0.0649  0.2764 -1.2354
 3229TIP3    H231323   1.441   4.318   7.571  1.1175 -0.2897 -0.1392
 3230TIP3   OH231324   0.922   4.394   0.200  0.6027  0.3039 -0.2045
 3230TIP3    H131325   0.961   4.476   0.230  0.3423  0.0307  0.9317
 3230TIP3    H231326   0.981   4.363   0.131  1.7334  0.5158  0.6269
 3231TIP3   OH231327   3.362   0.094   8.553  0.4342 -0.1613 -0.0723
 3231TIP3    H131328   3.333   0.179   8.587  0.9017 -0.1023  0.1918
 3231TIP3    H231329   3.373   0.040   8.631 -0.4819 -0.6760 -0.2772
 3232TIP3   OH231330   4.013   5.711   6.660  0.1318  0.3719  0.3798
 3232TIP3    H131331   4.018   5.654   6.736 -1.0524  0.6550  0.6811
 3232TIP3    H231332   3.923   5.742   6.658  0.0193  0.0389 -1.3932
 3233TIP3   OH231333   0.296   3.036   7.955  0.2198  0.2304 -0.3659
 3233TIP3    H131334   0.331   3.045   7.866  1.5956 -1.2579 -0.0283
 3233TIP3    H231335   0.352   2.970   7.996 -0.5176  0.7256  1.5521
 3234TIP3   OH231336   2.872   5.946   1.071 -0.1331 -0.1937 -0.4172
 3234TIP3    H131337   2.837   5.858   1.056 -0.2379 -0.4175  1.0177
 3234TIP3    H231338   2.961   5.943   1.034 -0.3888 -0.6764 -1.0000
 3235TIP3   OH231339   3.529   2.477   6.745 -0.6493  0.6104 -0.4073
 3235TIP3    H131340   3.498   2.391   6.718 -1.9955  1.1985 -0.8336
 3235TIP3    H231341   3.582   2.508   6.672 -0.3341  0.2373 -0.3403
 3236TIP3   OH231342   1.878   5.528   0.032 -0.3393  0.3903  0.0636
 3236TIP3    H131343   1.919   5.610   0.061 -0.7276  0.8136 -0.5677
 3236TIP3    H231344   1.853   5.544  -0.059  1.1804 -1.0364 -0.6536
 3237TIP3   OH231345   6.202   6.814   2.119  0.7374  0.3760 -0.0376
 3237TIP3    H131346   6.287   6.851   2.143 -0.0017  1.1432  1.5366
 3237TIP3    H231347   6.138   6.876   2.155 -0.5013 -0.1005 -1.3262
 3238TIP3   OH231348   2.666   2.638   2.446  0.3736 -0.2828 -0.1552
 3238TIP3    H131349   2.637   2.573   2.383  1.2454 -1.7250  0.8644
 3238TIP3    H231350   2.754   2.662   2.418 -0.6443  2.0728 -1.6970
 3239TIP3   OH231351   2.072   0.083   1.580 -0.4960  0.1212  0.3166
 3239TIP3    H131352   2.084   0.016   1.512 -1.0274  1.8974 -1.6534
 3239TIP3    H231353   1.982   0.072   1.610 -1.2232  1.0568 -1.3684
 3240TIP3   OH231354   4.021   1.206   0.017  0.4419  0.4606  0.6754
 3240TIP3    H131355   4.064   1.141   0.073  0.6007  0.6090  0.7273
 3240TIP3    H231356   4.089   1.270  -0.002 -0.1787  1.6242  2.1660
 3241TIP3   OH231357   5.921   3.078   1.668  0.1518 -0.3311  0.1587
 3241TIP3    H131358   5.915   3.030   1.585 -1.2872 -0.0198  0.0511
 3241TIP3    H231359   5.898   3.013   1.735 -0.0700 -0.2368  0.1754
 3242TIP3   OH231360   5.254   0.732   8.033  0.2342  0.0377 -0.5084
 3242TIP3    H131361   5.180   0.736   8.093  1.1918 -0.8432  0.7986
 3242TIP3    H231362   5.257   0.641   8.004  0.4226  0.2129 -1.0628
 3243TIP3   OH231363   2.299   1.950   7.725 -0.8305  0.3280 -0.2873
 3243TIP3    H131364   2.390   1.980   7.734 -0.4537 -0.1283 -2.1654
 3243TIP3    H231365   2.292   1.877   7.787 -1.2662  2.9978  3.1243
 3244TIP3   OH231366   6.117   0.779   0.245  0.0234  0.1134  0.3036
 3244TIP3    H131367   6.196   0.740   0.283  0.2453 -1.8827 -1.9552
 3244TIP3    H231368   6.049   0.763   0.311  0.9202 -0.6835  1.0723
 3245TIP3   OH231369   3.047   6.309   6.724  0.0289 -0.4439 -0.4838
 3245TIP3    H131370   3.123   6.339   6.673  1.6028 -3.9480 -0.5318
 3245TIP3    H231371   2.977   6.301   6.659 -0.0312  1.5275 -0.7136
 3246TIP3   OH231372   1.014   1.258   7.073  0.7575 -0.2715 -0.2493
 3246TIP3    H131373   0.940   1.279   7.130  1.1840 -0.4004  0.3682
 3246TIP3    H231374   1.023   1.163   7.080  0.7107 -0.3055 -0.6603
 3247TIP3   OH231375   4.293   0.648   7.950 -0.5959  0.1552  0.0628
 3247TIP3    H131376   4.343   0.599   7.886  0.4680  1.2139  0.0408
 3247TIP3    H231377   4.214   0.595   7.966 -0.0604 -0.9377 -0.8251
 3248TIP3   OH231378   0.414   2.912   1.900 -0.5039 -0.0412 -1.2302
 3248TIP3    H131379   0.373   2.957   1.974 -0.8510  0.4889 -1.7389
 3248TIP3    H231380   0.379   2.823   1.904  1.9693 -1.0672  1.1922
 3249TIP3   OH231381   6.413   2.319   8.476  0.1888  0.6285  0.3368
 3249TIP3    H131382   6.488   2.344   8.422  0.6001 -1.2066 -0.0129
 3249TIP3    H231383   6.449   2.313   8.565  0.2030  0.7447  0.3398
 3250TIP3   OH231384   0.320   1.077   7.295 -0.7368  0.1339  0.3391
 3250TIP3    H131385   0.255   1.046   7.232 -0.8727 -0.3349  0.7003
 3250TIP3    H231386   0.356   1.156   7.256 -0.0852 -0.7050 -0.8036
 3251TIP3   OH231387   2.007   3.781   8.188 -0.4243  0.0534 -0.3093
 3251TIP3    H131388   2.056   3.712   8.233  3.3798  0.7567 -2.8623
 3251TIP3    H231389   1.949   3.734   8.129  1.7461 -1.1203 -1.6552
 3252TIP3   OH231390   2.146   5.966   0.774 -0.2529  0.2852  0.0702
 3252TIP3    H131391   2.147   6.045   0.828 -1.8116  0.8479 -0.6444
 3252TIP3    H231392   2.066   5.975   0.722  0.4461 -0.9398 -1.2650
 3253TIP3   OH231393   5.821   0.439   6.495  0.0019  0.0240  0.0350
 3253TIP3    H131394   5.825   0.487   6.578  2.1161  0.1720 -0.0858
 3253TIP3    H231395   5.742   0.385   6.502 -0.8038  1.2994  1.4064
 3254TIP3   OH231396   6.333   1.766   2.097  0.1413 -0.2975  0.6397
 3254TIP3    H131397   6.276   1.813   2.158  0.1219  1.4122 -0.6579
 3254TIP3    H231398   6.418   1.763   2.141 -0.4804 -1.4387  1.8682
 3255TIP3   OH231399   2.692   6.435   1.625 -0.0457  0.4853 -0.6094
 3255TIP3    H131400   2.720   6.514   1.578 -0.2311  1.2611  0.5506
 3255TIP3    H231401   2.768   6.408   1.676  0.1414 -0.3313 -1.2957
 3256TIP3   OH231402   6.202   4.453   7.690  0.0415 -0.1161  0.1932
 3256TIP3    H131403   6.160   4.378   7.649 -1.0580  0.5276  0.0945
 3256TIP3    H231404   6.259   4.416   7.757  0.6855 -1.1028 -0.8918
 3257TIP3   OH231405   5.429   1.561   0.963 -0.6230 -0.2212 -0.2966
 3257TIP3    H131406   5.365   1.546   1.031  0.9650  0.1669  1.3598
 3257TIP3    H231407   5.476   1.478   0.955 -1.2628 -0.4907 -1.4575
 3258TIP3   OH231408   2.836   0.566   1.044 -0.1662 -0.2209  0.2688
 3258TIP3    H131409   2.874   0.573   1.132 -1.3823  0.0695  0.8011
 3258TIP3    H231410   2.902   0.603   0.986 -0.1158  1.4241  1.3014
 3259TIP3   OH231411   3.862   6.723   2.591 -0.4230 -0.0125 -0.2810
 3259TIP3    H131412   3.929   6.790   2.581 -0.0716 -0.3809 -0.4382
 3259TIP3    H231413   3.783   6.771   2.617 -0.2335  0.4827 -0.6068
 3260TIP3   OH231414   1.453   2.591   1.892 -0.5208  0.2770  0.2481
 3260TIP3    H131415   1.503   2.536   1.952 -0.6237  3.0279  3.1141
 3260TIP3    H231416   1.364   2.588   1.925 -0.0175  4.4832  2.6856
 3261TIP3   OH231417   1.214   5.054   1.039 -0.1811  0.7210  0.0490
 3261TIP3    H131418   1.307   5.070   1.054 -0.2702  1.7083 -0.3696
 3261TIP3    H231419   1.203   4.960   1.054  1.4928 -0.0707 -2.9961
 3262TIP3   OH231420   1.491   5.937   6.497 -0.2219  0.4319 -0.2807
 3262TIP3    H131421   1.445   6.012   6.460 -3.2794 -0.8361  0.6259
 3262TIP3    H231422   1.424   5.869   6.503  1.7888 -1.5495  1.3496
 3263TIP3   OH231423   0.269   6.783   7.864 -0.3519  0.1725 -0.3414
 3263TIP3    H131424   0.234   6.698   7.839  3.2636 -1.7380  0.3943
 3263TIP3    H231425   0.262   6.784   7.960  0.4279  0.3040 -0.2823
 3264TIP3   OH231426   2.924   0.261   0.791 -0.1365  0.0569  0.7142
 3264TIP3    H131427   2.997   0.212   0.754 -0.3672  0.5096 -0.3808
 3264TIP3    H231428   2.959   0.301   0.871  1.0673  0.9100 -0.2080
 3265TIP3   OH231429   1.361   1.551   0.784 -0.1447 -0.4074  0.7661
 3265TIP3    H131430   1.300   1.571   0.854  0.2569  0.0344  0.9994
 3265TIP3    H231431   1.401   1.468   0.809 -1.4836 -1.2991  0.0270
 3266TIP3   OH231432   4.038   0.929   8.434  0.4652  0.9123 -0.1307
 3266TIP3    H131433   3.973   0.926   8.364  1.4884 -1.2653 -1.0960
 3266TIP3    H231434   3.989   0.956   8.512 -2.0485 -2.2260 -0.4423
 3267TIP3   OH231435   4.138   0.255   7.852  0.4170  0.9723  0.7092
 3267TIP3    H131436   4.230   0.241   7.831  0.4524 -0.6677  1.8102
 3267TIP3    H231437   4.139   0.283   7.944 -0.2783 -1.3108  1.4689
 3268TIP3   OH231438   6.018   2.956   1.983  0.2442  0.2469 -0.2483
 3268TIP3    H131439   6.065   2.961   1.899  0.6340 -3.0309 -0.3706
 3268TIP3    H231440   5.946   2.896   1.966  1.2964 -1.8565  2.1079
 3269TIP3   OH231441   2.631   4.272   7.733  0.6062 -0.8455  0.1797
 3269TIP3    H131442   2.714   4.231   7.709  1.2038  1.4574 -2.1131
 3269TIP3    H231443   2.656   4.344   7.791  0.2646 -0.0642 -0.6229
 3270TIP3   OH231444   6.818   6.798   2.616 -0.5344  0.1173 -0.1866
 3270TIP3    H131445   6.883   6.770   2.680  0.6920  0.3115 -1.3157
 3270TIP3    H231446   6.810   6.893   2.629  0.6269  0.3525 -1.1277
 3271TIP3   OH231447   3.593   2.553   8.491  0.4985 -0.0658  0.5203
 3271TIP3    H131448   3.552   2.470   8.465  1.8239 -0.4691 -0.3818
 3271TIP3    H231449   3.553   2.573   8.576  0.3775 -1.8113  0.9292
 3272TIP3   OH231450   6.110   2.677   0.086 -0.1544  0.3400 -0.1184
 3272TIP3    H131451   6.023   2.694   0.121  1.0309  2.5664  2.0996
 3272TIP3    H231452   6.166   2.669   0.164  1.6230 -1.3568 -1.4459
 3273TIP3   OH231453   4.554   2.367   7.245 -0.2654 -0.0253  0.5659
 3273TIP3    H131454   4.525   2.347   7.334  1.4538 -0.1939  1.1291
 3273TIP3    H231455   4.647   2.344   7.245 -0.4629 -1.0399 -1.5980
 3274TIP3   OH231456   4.147   0.946   1.170 -0.5430  0.0010 -0.0069
 3274TIP3    H131457   4.206   0.872   1.186 -1.3240 -0.2060  2.2389
 3274TIP3    H231458   4.205   1.021   1.163  0.0752 -0.3156  1.3710
 3275TIP3   OH231459   5.130   2.889   0.295  0.2039  0.3791 -0.0665
 3275TIP3    H131460   5.117   2.876   0.201  1.7790 -0.4590 -0.2080
 3275TIP3    H231461   5.121   2.802   0.333  1.0887  0.4414  0.3284
 3276TIP3   OH231462   3.405   4.759   7.290  0.1955  0.2332  0.7533
 3276TIP3    H131463   3.497   4.782   7.302 -0.2726  1.5269  2.0929
 3276TIP3    H231464   3.385   4.789   7.201  0.7834  0.9441  0.8499
 3277TIP3   OH231465   6.069   4.022   1.155 -0.4365  0.2922  0.2512
 3277TIP3    H131466   6.074   3.926   1.153 -0.1769  0.2571  1.5566
 3277TIP3    H231467   6.150   4.051   1.115  0.3425 -0.0655  1.5245
 3278TIP3   OH231468   5.355   3.910   7.380 -0.4947 -0.4242  0.4538
 3278TIP3    H131469   5.284   3.881   7.322  0.1443  1.1438 -1.1884
 3278TIP3    H231470   5.324   3.888   7.468 -3.7279  1.5019 -0.0468
 3279TIP3   OH231471   0.157   5.111   7.308 -0.6156  0.3882  0.1029
 3279TIP3    H131472   0.153   5.169   7.231 -0.5806  0.5637  0.2322
 3279TIP3    H231473   0.210   5.036   7.279 -1.4391 -0.0260 -0.3581
 3280TIP3   OH231474   6.068   1.205   1.765 -0.3420  0.0356  0.5010
 3280TIP3    H131475   6.034   1.126   1.805 -0.2778  0.0160  0.5168
 3280TIP3    H231476   6.098   1.178   1.679 -0.9191  0.1729  0.2509
 3281TIP3   OH231477   2.857   5.601   1.695 -0.0033 -0.3442 -0.1554
 3281TIP3    H131478   2.817   5.531   1.643 -0.6424 -2.1024  2.4657
 3281TIP3    H231479   2.784   5.640   1.744  0.4166  1.9203 -1.2120
 3282TIP3   OH231480   5.009   0.693   7.777 -0.1792 -0.6110 -0.3940
 3282TIP3    H131481   5.044   0.610   7.811  0.2935 -0.5720 -0.7686
 3282TIP3    H231482   5.087   0.747   7.760 -0.5058  0.0960  0.3126
 3283TIP3   OH231483   4.135   0.388   0.988  0.6045 -0.3885  0.5721
 3283TIP3    H131484   4.134   0.322   1.057  0.7680  0.3150  1.2754
 3283TIP3    H231485   4.144   0.339   0.907  1.8036 -1.1717  1.1535
 3284TIP3   OH231486   3.222   2.705   7.461 -0.1168 -0.5083 -0.0720
 3284TIP3    H131487   3.305   2.744   7.486  0.5008 -2.0958  0.4996
 3284TIP3    H231488   3.226   2.698   7.366  1.5640 -2.8943  0.0877
 3285TIP3   OH231489   2.073   4.708   0.722  0.4122  0.1315  0.1732
 3285TIP3    H131490   2.089   4.613   0.723 -1.4975 -0.2154  1.2034
 3285TIP3    H231491   1.989   4.719   0.765  1.0285  2.4139  0.9236
 3286TIP3   OH231492   5.870   2.438   2.039  0.1948  0.1276 -0.2766
 3286TIP3    H131493   5.926   2.383   1.985  0.1606 -0.4809  0.2999
 3286TIP3    H231494   5.885   2.407   2.129 -0.8914  0.1096 -0.0946
 3287TIP3   OH231495   2.253   2.669   8.052  0.4791  0.2353  0.3033
 3287TIP3    H131496   2.294   2.754   8.067  0.5021  0.1146  0.9553
 3287TIP3    H231497   2.292   2.637   7.970  1.3205  0.3373  0.6573
 3288TIP3   OH231498   1.315   3.946   7.937  0.4125  0.6952 -0.6109
 3288TIP3    H131499   1.401   3.928   7.976  0.1206  0.4503 -0.0687
 3288TIP3    H231500   1.286   4.026   7.980  0.2573  0.6362 -0.6065
 3289TIP3   OH231501   1.199   1.539   0.010  0.3359  0.3453  0.2160
 3289TIP3    H131502   1.226   1.621  -0.033  1.1630  1.1490  2.1592
 3289TIP3    H231503   1.281   1.503   0.045 -0.3350 -0.1394  1.3147
 3290TIP3   OH231504   2.501   2.960   8.473  0.0754 -0.3177 -0.1570
 3290TIP3    H131505   2.482   3.038   8.421 -1.3505 -0.3889  0.2090
 3290TIP3    H231506   2.547   2.901   8.413 -0.1097  0.2429 -0.8536
 3291TIP3   OH231507   1.391   3.998   7.386  0.0040  0.2612  0.4452
 3291TIP3    H131508   1.372   3.984   7.479 -0.6105 -0.8147  0.1797
 3291TIP3    H231509   1.312   4.040   7.351 -1.1363 -2.2402 -0.2114
 3292TIP3   OH231510   6.870   0.697   2.883 -0.4109 -0.0205 -1.0149
 3292TIP3    H131511   6.863   0.741   2.968  0.1556 -2.3555  0.3539
 3292TIP3    H231512   6.956   0.723   2.849 -0.3999  0.4989 -0.5990
 3293TIP3   OH231513   5.357   0.438   7.329 -0.2173 -0.3288 -0.2925
 3293TIP3    H131514   5.280   0.492   7.312  0.1928 -0.2620 -2.0573
 3293TIP3    H231515   5.348   0.363   7.271  0.4183 -0.9770  0.4171
 3294TIP3   OH231516   0.023   0.917   7.556 -0.2543  0.5079 -0.3879
 3294TIP3    H131517  -0.045   0.978   7.526 -1.0958 -0.3275 -0.2343
 3294TIP3    H231518   0.052   0.874   7.475  1.0623  1.7952 -0.6367
 3295TIP3   OH231519   1.512   3.436   2.277 -0.5298  0.1291  0.0905
 3295TIP3    H131520   1.601   3.448   2.311 -0.1173 -0.4435 -0.7097
 3295TIP3    H231521   1.463   3.399   2.350  0.1446 -0.4263  0.2813
 3296TIP3   OH231522   3.993   6.557   1.184  0.4054 -0.6403  0.3413
 3296TIP3    H131523   3.985   6.577   1.090  1.0176 -0.9518  0.2192
 3296TIP3    H231524   4.085   6.535   1.196  0.8571  1.5159  1.4281
 3297TIP3   OH231525   0.511   2.505   7.511  0.1828  0.3270  0.0394
 3297TIP3    H131526   0.581   2.552   7.556  0.3554 -1.1977  1.4303
 3297TIP3    H231527   0.514   2.417   7.547 -1.2571 -0.2872 -1.2456
 3298TIP3   OH231528   1.396   1.248   2.966 -0.1692 -0.4374 -0.2643
 3298TIP3    H131529   1.349   1.184   3.019  0.3684 -1.1107 -0.5768
 3298TIP3    H231530   1.342   1.260   2.888 -1.4875  1.3328  0.8384
 3299TIP3   OH231531   6.102   5.581   8.005  0.2427 -0.3218  0.2749
 3299TIP3    H131532   6.127   5.671   7.985 -0.6225 -0.2161 -0.4246
 3299TIP3    H231533   6.092   5.540   7.919  0.9098 -1.1767  0.5897
 3300TIP3   OH231534   5.707   4.669   7.517  0.0564  0.2929  0.2453
 3300TIP3    H131535   5.636   4.721   7.554  0.4404  0.4122  0.8330
 3300TIP3    H231536   5.736   4.719   7.440 -0.9207 -0.0888 -0.3916
 3301TIP3   OH231537   1.263   6.173   6.101  0.3715 -0.1970  0.4581
 3301TIP3    H131538   1.184   6.119   6.107  0.0581  0.1077 -0.7456
 3301TIP3    H231539   1.324   6.133   6.163  0.5243 -2.5707 -1.1252
 3302TIP3   OH231540   0.052   0.869   8.214  0.4014 -0.2359  0.0694
 3302TIP3    H131541   0.133   0.919   8.211  0.5702 -0.3015  2.3244
 3302TIP3    H231542  -0.017   0.935   8.202  0.6913  0.2665  1.1091
 3303TIP3   OH231543   4.401   3.731   0.040  0.4508  0.5805 -0.4001
 3303TIP3    H131544   4.347   3.726   0.119 -0.5657  0.1390 -1.1113
 3303TIP3    H231545   4.368   3.808  -0.006 -0.7513 -0.6426 -1.6668
 3304TIP3   OH231546   0.864   4.595   2.063  0.8762 -0.2100  0.2205
 3304TIP3    H131547   0.938   4.551   2.020  1.2432 -2.0881  2.5507
 3304TIP3    H231548   0.807   4.622   1.991  2.8335 -0.5084 -1.5601
 3305TIP3   OH231549   0.122   2.312   1.012  0.4778  0.3158  0.0428
 3305TIP3    H131550   0.141   2.261   1.091  0.7616 -1.6783 -1.2469
 3305TIP3    H231551   0.183   2.279   0.947 -1.7450 -0.3082 -1.8699
 3306TIP3   OH231552   3.340   3.116   1.218  0.1491  0.6821  0.1761
 3306TIP3    H131553   3.253   3.142   1.188 -0.7294 -1.4020  0.6665
 3306TIP3    H231554   3.401   3.156   1.156 -1.0804  2.8518  0.2909
 3307TIP3   OH231555   3.281   1.252   1.845  0.5138 -0.8804 -0.4486
 3307TIP3    H131556   3.372   1.250   1.816  0.5526 -1.5460 -0.3089
 3307TIP3    H231557   3.250   1.339   1.822  1.3900 -0.4034  0.1445
 3308TIP3   OH231558   2.419   6.329   7.901  0.1100 -0.1426 -0.4738
 3308TIP3    H131559   2.434   6.236   7.884 -1.0056 -0.6855  1.2545
 3308TIP3    H231560   2.429   6.370   7.815 -1.9293 -2.2027 -1.8166
 3309TIP3   OH231561   5.413   1.672   8.306  0.0649 -0.0578 -0.5992
 3309TIP3    H131562   5.442   1.686   8.216  1.5363 -2.5409 -0.6212
 3309TIP3    H231563   5.386   1.758   8.336 -0.5062  0.8552 -3.3984
 3310TIP3   OH231564   3.597   3.332   1.518  0.8655  0.2490 -0.3005
 3310TIP3    H131565   3.572   3.422   1.540  0.0200 -0.1630  0.4928
 3310TIP3    H231566   3.584   3.283   1.600  0.8148 -0.6963 -0.8592
 3311TIP3   OH231567   6.003   2.961   1.102  0.1081 -0.1919  0.0385
 3311TIP3    H131568   5.988   3.055   1.114  2.9369  0.2627  0.9269
 3311TIP3    H231569   6.080   2.956   1.045 -0.4642 -2.0145 -0.6376
 3312TIP3   OH231570   4.769   2.255   1.364  0.4088 -0.2541 -0.3984
 3312TIP3    H131571   4.848   2.203   1.353  1.4915  0.7909  1.7471
 3312TIP3    H231572   4.800   2.346   1.365 -0.7868  0.1756  0.5252
 3313TIP3   OH231573   2.682   1.867   8.571 -0.2471 -0.2988 -0.4687
 3313TIP3    H131574   2.609   1.891   8.514  0.3049  1.8769 -0.3545
 3313TIP3    H231575   2.707   1.949   8.615  3.1780 -0.5460 -1.5995
 3314TIP3   OH231576   4.423   5.768   0.695 -0.0077 -0.2474 -0.4406
 3314TIP3    H131577   4.411   5.683   0.652  1.0090 -0.8695  0.4573
 3314TIP3    H231578   4.359   5.767   0.766 -0.4404  0.0232 -0.8186
 3315TIP3   OH231579   5.182   1.669   2.156  0.8425 -0.2852 -0.2304
 3315TIP3    H131580   5.257   1.615   2.134  0.5241 -0.8339  0.0165
 3315TIP3    H231581   5.141   1.689   2.072  0.8544 -0.5911 -0.3097
 3316TIP3   OH231582   2.916   6.563   0.590  0.0488  0.2661 -0.3177
 3316TIP3    H131583   2.857   6.563   0.514  0.4396  2.3322 -0.6739
 3316TIP3    H231584   2.994   6.517   0.559 -0.9421 -1.6351 -0.1464
 3317TIP3   OH231585   0.063   4.536   1.886  0.1284  0.0579  0.0222
 3317TIP3    H131586  -0.014   4.558   1.939  0.2087  0.3515  0.0145
 3317TIP3    H231587   0.057   4.594   1.810  0.7175  0.5462  0.3420
 3318TIP3   OH231588   3.684   1.583   1.429  0.0451  0.7563  0.2553
 3318TIP3    H131589   3.717   1.640   1.359  1.0428 -0.2811 -0.1623
 3318TIP3    H231590   3.762   1.540   1.464 -0.7553 -1.3086 -0.3315
 3319TIP3   OH231591   0.149   5.283   0.247 -0.1528 -0.0036 -0.2691
 3319TIP3    H131592   0.157   5.371   0.211  0.3500  0.1682  0.2598
 3319TIP3    H231593   0.057   5.261   0.234 -0.1786  0.4092 -0.8369
 3320TIP3   OH231594   5.924   3.870   5.875  0.0465  0.2671  0.8683
 3320TIP3    H131595   5.877   3.837   5.952 -1.2810  2.5786  1.1348
 3320TIP3    H231596   5.971   3.946   5.907 -0.1879  1.0186 -0.5213
 3321TIP3   OH231597   0.694   3.267   8.415  0.5370  0.1449 -0.3727
 3321TIP3    H131598   0.752   3.302   8.483  1.2713 -1.5901 -0.0437
 3321TIP3    H231599   0.750   3.258   8.338 -0.0959  1.3658 -0.9918
 3322TIP3   OH231600   5.501   0.117   7.156  0.1624 -0.2547 -0.1155
 3322TIP3    H131601   5.506   0.068   7.074 -0.3440 -4.0380  1.9229
 3322TIP3    H231602   5.408   0.126   7.174  0.2690 -0.2770  0.4792
 3323TIP3   OH231603   3.199   3.428   1.679  0.0306 -0.5756 -0.6389
 3323TIP3    H131604   3.223   3.367   1.609  0.9441 -1.6003  0.5251
 3323TIP3    H231605   3.282   3.467   1.706 -0.3045 -0.2673 -0.0455
 3324TIP3   OH231606   2.841   0.226   8.215 -0.2136 -0.5644  0.3408
 3324TIP3    H131607   2.770   0.165   8.236 -0.3164 -0.3941  0.4886
 3324TIP3    H231608   2.893   0.232   8.295  1.5277 -2.7324 -0.5066
 3325TIP3   OH231609   0.866   4.395   1.345  0.1870 -0.1233  0.1054
 3325TIP3    H131610   0.819   4.427   1.268  0.3133 -3.0296 -1.3153
 3325TIP3    H231611   0.956   4.428   1.334 -0.0994  0.5467 -0.2785
 3326TIP3   OH231612   4.526   5.054   2.126 -0.1738 -0.7982  0.2972
 3326TIP3    H131613   4.492   5.088   2.209 -2.8029  0.4489 -1.1477
 3326TIP3    H231614   4.454   5.001   2.091  0.6327 -0.8162 -1.4456
 3327TIP3   OH231615   2.071   3.443   1.053  0.2212 -0.3101  0.0769
 3327TIP3    H131616   2.056   3.486   1.138  1.8671 -1.1248  0.8237
 3327TIP3    H231617   1.984   3.413   1.026 -0.6403  1.6462  0.5142
 3328TIP3   OH231618   5.295   2.364   1.552 -0.3472  0.0256 -0.4429
 3328TIP3    H131619   5.340   2.304   1.493 -0.5064  0.0041 -0.5439
 3328TIP3    H231620   5.329   2.451   1.528 -0.7091  0.0616 -0.8442
 3329TIP3   OH231621   5.342   0.583   0.705 -0.3521  0.1721 -0.3757
 3329TIP3    H131622   5.432   0.572   0.736 -0.5067  0.8023  0.3364
 3329TIP3    H231623   5.302   0.497   0.716 -0.0365  0.0674 -0.0230
 3330TIP3   OH231624   0.181   6.071   1.344  0.1053  0.2086 -0.3297
 3330TIP3    H131625   0.087   6.091   1.350 -0.4062 -1.6685 -1.1899
 3330TIP3    H231626   0.213   6.080   1.433 -1.2230 -0.5462  0.2531
 3331TIP3   OH231627   3.116   6.740   8.483 -0.3454 -0.0979  0.5078
 3331TIP3    H131628   3.056   6.731   8.558  1.0257  3.7276  2.3619
 3331TIP3    H231629   3.196   6.696   8.510  0.4171  1.9361  1.7944
 3332TIP3   OH231630   0.346   5.083   6.811 -0.2778 -0.2723 -0.4437
 3332TIP3    H131631   0.373   5.144   6.742 -2.9683  0.1818 -1.1722
 3332TIP3    H231632   0.428   5.061   6.856  1.0860  2.1813 -1.5243
 3333TIP3   OH231633   1.474   0.402   8.428  0.1108 -0.2622  0.2261
 3333TIP3    H131634   1.523   0.462   8.485 -0.2181 -1.5977  1.9975
 3333TIP3    H231635   1.384   0.408   8.460 -0.2678 -0.3141 -0.8153
 3334TIP3   OH231636   4.185   3.422   1.818 -0.0448 -0.4427 -0.1787
 3334TIP3    H131637   4.090   3.410   1.815  0.0203 -0.6815 -1.6635
 3334TIP3    H231638   4.214   3.417   1.727  1.2693  0.7133  0.1305
 3335TIP3   OH231639   6.578   1.014   1.036 -0.7091  0.5745  0.8689
 3335TIP3    H131640   6.530   1.023   0.954 -0.1427  0.7891  0.5534
 3335TIP3    H231641   6.587   1.104   1.069 -0.2470  0.5763  0.7543
 3336TIP3   OH231642   1.141   2.028   0.166  0.1109  0.8051 -0.6070
 3336TIP3    H131643   1.181   2.016   0.252 -0.2954  1.8674 -0.2526
 3336TIP3    H231644   1.205   2.080   0.117 -0.2676  1.4486 -0.4446
 3337TIP3   OH231645   1.582   3.589   0.986 -0.3702 -0.7655  0.2016
 3337TIP3    H131646   1.496   3.625   0.968 -0.3586 -0.1152  1.3603
 3337TIP3    H231647   1.580   3.564   1.079  0.6108 -0.9422  0.1946
 3338TIP3   OH231648   0.160   4.942   0.986 -0.6558  0.6825 -0.3299
 3338TIP3    H131649   0.238   4.995   1.000 -0.2487 -0.2651  1.2924
 3338TIP3    H231650   0.175   4.899   0.902  0.1508  1.2254 -0.4730
 3339TIP3   OH231651   0.928   5.270   0.377  0.6247  0.1503  0.0305
 3339TIP3    H131652   0.906   5.359   0.405 -1.5266  0.0668 -1.1630
 3339TIP3    H231653   0.947   5.279   0.284 -2.7374 -0.9619 -0.9103
 3340TIP3   OH231654   2.325   0.710   0.677  0.8935  0.3978 -0.0435
 3340TIP3    H131655   2.344   0.777   0.612  2.6662 -1.2402 -1.3426
 3340TIP3    H231656   2.409   0.692   0.719  0.3227 -0.4969  0.7785
 3341TIP3   OH231657   6.570   4.376   6.981 -1.4329 -0.3346  0.3666
 3341TIP3    H131658   6.624   4.373   6.902 -0.9267  0.7695  0.6605
 3341TIP3    H231659   6.521   4.457   6.974 -0.6461  0.2829  1.6458
 3342TIP3   OH231660   5.875   4.271   6.619  0.1894 -0.3560 -0.0232
 3342TIP3    H131661   5.816   4.215   6.671  0.5480 -0.6603  0.0603
 3342TIP3    H231662   5.867   4.357   6.659 -1.1426 -0.0884 -0.7718
 3343TIP3   OH231663   6.192   2.396   6.435 -0.3407  0.4814 -0.3639
 3343TIP3    H131664   6.190   2.488   6.459  0.4225  0.5571 -0.5483
 3343TIP3    H231665   6.123   2.386   6.370  0.3135  1.1783 -1.1858
 3344TIP3   OH231666   2.478   4.695   0.348  0.5567 -0.2554 -0.0220
 3344TIP3    H131667   2.451   4.606   0.326  0.6111 -0.2633 -0.0574
 3344TIP3    H231668   2.397   4.740   0.372  0.7141 -0.7513  1.5257
 3345TIP3   OH231669   6.139   0.730   8.028  0.4467  0.5628 -0.3515
 3345TIP3    H131670   6.093   0.803   7.986 -1.1771  0.3224  0.9038
 3345TIP3    H231671   6.100   0.651   7.989  1.8037  0.3083 -1.2953
 3346TIP3   OH231672   1.326   3.957   7.656  0.3836  0.4336 -0.6352
 3346TIP3    H131673   1.235   3.983   7.642  0.2061 -0.7375 -1.8063
 3346TIP3    H231674   1.338   3.962   7.751 -1.3036 -0.6806 -0.3279
 3347TIP3   OH231675   6.549   0.456   2.259 -0.0687 -0.1997  0.1931
 3347TIP3    H131676   6.638   0.491   2.263  0.2740 -1.0368  0.0855
 3347TIP3    H231677   6.552   0.391   2.188 -0.4988 -0.9482  0.8461
 3348TIP3   OH231678   4.172   5.291   0.790 -0.1042  0.0451  0.2059
 3348TIP3    H131679   4.166   5.259   0.880 -0.5304 -1.4899 -0.3295
 3348TIP3    H231680   4.088   5.333   0.774 -1.4230 -2.5829 -0.4566
 3349TIP3   OH231681   5.931   0.213   7.072 -0.5059  1.0885  0.0541
 3349TIP3    H131682   5.929   0.162   6.991  0.2300  3.3339 -1.4696
 3349TIP3    H231683   5.855   0.183   7.121 -0.0180 -1.5732 -0.6244
 3350TIP3   OH231684   2.630   3.756   7.994 -0.3441 -0.1154  0.1798
 3350TIP3    H131685   2.685   3.682   7.966 -0.1919 -0.3009  0.9523
 3350TIP3    H231686   2.668   3.831   7.949  0.5253 -0.2514  0.6658
 3351TIP3   OH231687   0.658   4.974   7.429  0.4126 -0.0696  0.2264
 3351TIP3    H131688   0.746   4.977   7.464  0.3941 -0.4827  0.3174
 3351TIP3    H231689   0.635   4.881   7.429  1.0246 -0.3181 -2.3586
 3352TIP3   OH231690   0.675   5.235   8.355 -0.5895  0.1636 -0.6118
 3352TIP3    H131691   0.686   5.324   8.320 -1.4392 -0.3129 -2.1910
 3352TIP3    H231692   0.600   5.242   8.414 -0.4766  0.5475 -0.5075
 3353TIP3   OH231693   1.428   5.675   2.597  0.6336  0.5085  0.2461
 3353TIP3    H131694   1.339   5.656   2.567  1.5938 -2.8249 -0.8674
 3353TIP3    H231695   1.417   5.703   2.688 -1.5159 -0.7784  0.4429
 3354TIP3   OH231696   3.506   2.371   2.031  0.0014  0.1402 -0.4014
 3354TIP3    H131697   3.507   2.446   2.089 -0.1470 -0.8341  0.8947
 3354TIP3    H231698   3.494   2.408   1.943 -2.0965  1.5113  0.3932
 3355TIP3   OH231699   0.054   0.351   2.637 -0.8018 -0.1550  0.2202
 3355TIP3    H131700   0.084   0.435   2.602 -0.1219 -1.4434 -2.6029
 3355TIP3    H231701   0.131   0.311   2.676 -0.2688 -0.7641 -1.3509
 3356TIP3   OH231702   2.969   0.965   0.316 -0.0110  0.3174  0.5811
 3356TIP3    H131703   2.889   0.970   0.264  0.9865  0.2815 -0.9940
 3356TIP3    H231704   2.968   0.876   0.352 -1.8459  1.0426  2.6038
 3357TIP3   OH231705   4.831   3.194   6.368 -0.6778 -0.4175  0.6119
 3357TIP3    H131706   4.917   3.170   6.403 -0.2489 -1.7355 -1.1916
 3357TIP3    H231707   4.843   3.282   6.332  0.3448 -1.0854 -0.8009
 3358TIP3   OH231708   6.356   2.792   1.156  0.4110  0.1195 -0.1790
 3358TIP3    H131709   6.298   2.774   1.082  0.3113  0.7399 -0.2521
 3358TIP3    H231710   6.308   2.759   1.233 -0.0306  0.6172 -0.2398
 3359TIP3   OH231711   2.618   5.403   6.378  0.2786  0.6002 -0.3570
 3359TIP3    H131712   2.559   5.466   6.419 -0.1415 -0.2181  0.3115
 3359TIP3    H231713   2.586   5.318   6.406  1.4589  0.1179 -0.4185
 3360TIP3   OH231714   5.404   1.488   6.995 -0.5888 -0.3075 -0.0452
 3360TIP3    H131715   5.330   1.517   6.942 -0.8955 -0.5667  0.2347
 3360TIP3    H231716   5.437   1.567   7.036 -1.4260 -0.3419  0.7264
 3361TIP3   OH231717   4.620   4.024   2.153  0.2463 -0.3468 -0.3775
 3361TIP3    H131718   4.694   4.072   2.115 -0.7545  0.8597 -0.8976
 3361TIP3    H231719   4.659   3.945   2.190  1.7951  0.2815 -0.5797
 3362TIP3   OH231720   3.414   4.332   1.075 -0.0205 -1.0756  0.2807
 3362TIP3    H131721   3.476   4.369   1.138  1.6581 -0.5022 -1.6184
 3362TIP3    H231722   3.418   4.237   1.091  2.0218 -1.1417 -0.3180
 3363TIP3   OH231723   5.736   2.345   6.786  0.5001 -0.6739  0.5873
 3363TIP3    H131724   5.810   2.393   6.824  0.4490 -0.1867  0.0955
 3363TIP3    H231725   5.765   2.254   6.783  2.5655 -0.1108 -2.8073
 3364TIP3   OH231726   4.879   4.874   7.236  0.3949  0.2592  0.0632
 3364TIP3    H131727   4.796   4.907   7.202 -0.9149 -0.3321  2.4124
 3364TIP3    H231728   4.925   4.840   7.160 -0.5372  2.5304 -1.6363
 3365TIP3   OH231729   1.627   2.115   0.493  0.1203  0.1480 -0.1946
 3365TIP3    H131730   1.658   2.065   0.417 -3.0894 -0.6357 -1.1512
 3365TIP3    H231731   1.619   2.050   0.563 -1.2137 -0.1194 -0.5664
 3366TIP3   OH231732   3.636   0.530   7.494 -0.2651 -0.0614  0.3070
 3366TIP3    H131733   3.654   0.565   7.582  0.1410 -1.1226  0.6614
 3366TIP3    H231734   3.551   0.487   7.501 -0.3742  0.1193  0.0996
 3367TIP3   OH231735   6.052   3.974   7.670 -0.1490 -0.3923  0.2190
 3367TIP3    H131736   6.061   3.891   7.624 -0.5393 -0.0104 -0.5682
 3367TIP3    H231737   5.958   3.994   7.666 -0.2270 -0.4559  1.3842
 3368TIP3   OH231738   5.567   2.208   0.696  0.1453  0.4583  0.0904
 3368TIP3    H131739   5.619   2.256   0.761  2.3070 -0.6101 -0.7626
 3368TIP3    H231740   5.500   2.163   0.748  0.1304  1.7432  1.2564
 3369TIP3   OH231741   3.772   6.162   0.859  0.6423  0.4361 -0.1098
 3369TIP3    H131742   3.850   6.158   0.914  1.1184  3.7514 -0.3304
 3369TIP3    H231743   3.705   6.116   0.910  2.3089 -1.1542  0.7746
 3370TIP3   OH231744   1.236   2.858   0.755 -0.0353 -0.5537  0.0270
 3370TIP3    H131745   1.197   2.932   0.800  0.1063 -0.2369 -0.3650
 3370TIP3    H231746   1.326   2.853   0.788  0.5376  0.5845 -1.2683
 3371TIP3   OH231747   6.814   5.850   1.257  0.1876  0.1871 -0.0411
 3371TIP3    H131748   6.742   5.800   1.219 -0.6334  1.0881  0.2949
 3371TIP3    H231749   6.889   5.790   1.254 -0.7941 -1.1030  0.4596
 3372TIP3   OH231750   2.356   4.685   8.279  0.2154 -0.2756 -0.2120
 3372TIP3    H131751   2.416   4.730   8.220 -0.5014  1.9088  0.6414
 3372TIP3    H231752   2.281   4.743   8.287 -1.9138 -2.7091 -0.9039
 3373TIP3   OH231753   6.380   0.842   7.578  0.4594 -0.3895 -0.1029
 3373TIP3    H131754   6.303   0.892   7.550  0.8146 -0.6607 -1.6642
 3373TIP3    H231755   6.355   0.804   7.662 -0.7853  0.2346 -0.1718
 3374TIP3   OH231756   3.054   3.750   8.065 -0.2680  0.4808 -0.3354
 3374TIP3    H131757   3.084   3.672   8.019  1.1547  1.5660 -1.3531
 3374TIP3    H231758   3.132   3.804   8.074 -0.8067  0.9373  2.1455
 3375TIP3   OH231759   6.617   2.075   0.206 -0.1497 -0.2906 -0.2661
 3375TIP3    H131760   6.552   2.145   0.209 -0.6849 -0.8064  0.6313
 3375TIP3    H231761   6.577   2.007   0.152 -0.2473 -0.5036  0.0743
 3376TIP3   OH231762   2.234   1.295   0.980  0.1085  0.1211  0.0912
 3376TIP3    H131763   2.257   1.221   1.036  0.7064 -0.2048 -0.5755
 3376TIP3    H231764   2.318   1.329   0.949 -0.2262 -0.0418 -1.0291
 3377TIP3   OH231765   4.351   3.129   1.670 -0.0873 -0.3362 -0.7434
 3377TIP3    H131766   4.261   3.146   1.641 -0.6846 -0.3801  0.9718
 3377TIP3    H231767   4.405   3.143   1.592 -1.3273  1.9479 -1.2784
 3378TIP3   OH231768   5.227   4.252   0.695 -0.3568 -0.1784  0.6745
 3378TIP3    H131769   5.241   4.346   0.704 -1.3023 -0.0684  1.1500
 3378TIP3    H231770   5.219   4.220   0.785  1.9928 -1.0789  0.6341
 3379TIP3   OH231771   1.906   1.856   8.529  0.0539 -0.1570  0.2889
 3379TIP3    H131772   1.814   1.830   8.537 -0.1510 -0.5196 -2.3661
 3379TIP3    H231773   1.955   1.774   8.524  0.4467  0.0336  0.8711
 3380TIP3   OH231774   4.005   0.679   0.749  0.3305 -0.1474  0.4096
 3380TIP3    H131775   3.924   0.628   0.751 -0.3304  0.8734  1.0848
 3380TIP3    H231776   4.001   0.727   0.667 -0.3715  0.8181  0.9812
 3381TIP3   OH231777   4.348   1.953   1.765 -0.2362  0.0501  0.3469
 3381TIP3    H131778   4.359   1.863   1.797 -0.3098  0.6093  2.0378
 3381TIP3    H231779   4.324   2.003   1.842 -1.1939  1.3664 -0.7636
 3382TIP3   OH231780   6.150   1.040   2.664  0.3850  0.1623  0.1090
 3382TIP3    H131781   6.152   0.958   2.714 -0.0205  0.1925  0.1761
 3382TIP3    H231782   6.137   1.108   2.730  1.5672  0.3665  0.1489
 3383TIP3   OH231783   0.726   1.329   2.150  0.1353 -0.5876 -0.0808
 3383TIP3    H131784   0.795   1.389   2.178  0.0642 -0.1975 -0.7197
 3383TIP3    H231785   0.646   1.363   2.191  0.0018  0.0785 -0.8649
 3384TIP3   OH231786   0.417   5.115   1.566  0.4087  0.2249 -0.7265
 3384TIP3    H131787   0.508   5.112   1.596  0.7734 -1.4483 -1.8375
 3384TIP3    H231788   0.376   5.040   1.609  0.2529 -0.5780 -2.2177
 3385TIP3   OH231789   0.421   4.853   2.361  0.1877 -0.2076  0.3338
 3385TIP3    H131790   0.480   4.927   2.345 -0.2385  0.2807  0.9452
 3385TIP3    H231791   0.338   4.880   2.323  0.3587 -0.9281 -0.5976
 3386TIP3   OH231792   0.890   6.609   1.741 -0.1928  0.2373  0.2970
 3386TIP3    H131793   0.949   6.611   1.816 -0.5798  1.5020  0.5960
 3386TIP3    H231794   0.947   6.615   1.664  0.0811  2.5597  0.6016
 3387TIP3   OH231795   2.258   0.599   0.371 -0.2294 -0.3485  0.2976
 3387TIP3    H131796   2.236   0.539   0.443  0.7366 -0.5077  0.4649
 3387TIP3    H231797   2.284   0.541   0.300 -0.0418 -0.1537  0.2083
 3388TIP3   OH231798   0.138   1.610   8.514  0.3822  0.3122 -0.2309
 3388TIP3    H131799   0.089   1.527   8.514  2.5591 -1.1113 -2.1891
 3388TIP3    H231800   0.174   1.616   8.603 -1.2116  0.0880  0.4625
 3389TIP3   OH231801   2.539   3.360   1.066 -0.0911  0.1044 -0.0921
 3389TIP3    H131802   2.499   3.281   1.028 -0.8845  0.1085  0.7083
 3389TIP3    H231803   2.626   3.364   1.026  0.2399 -1.5813  0.3948
 3390TIP3   OH231804   3.293   0.133   7.137  0.1818  0.1514 -0.4288
 3390TIP3    H131805   3.324   0.061   7.191 -0.3472  0.1588 -0.1092
 3390TIP3    H231806   3.237   0.091   7.071  1.6027  0.0203 -1.6091
 3391TIP3   OH231807   3.650   3.767   0.781 -0.2865  0.2770  0.0778
 3391TIP3    H131808   3.731   3.721   0.805 -1.2484 -1.0098  1.0407
 3391TIP3    H231809   3.604   3.780   0.864 -1.1851  0.7655 -0.4767
 3392TIP3   OH231810   1.134   2.866   6.907  0.1316  0.0826 -0.2211
 3392TIP3    H131811   1.124   2.782   6.953 -0.1798  0.1896 -0.0975
 3392TIP3    H231812   1.184   2.920   6.968 -0.7818  0.4211  0.2432
 3393TIP3   OH231813   5.205   3.560   7.885  0.0365 -0.4199 -0.0482
 3393TIP3    H131814   5.257   3.581   7.962  1.9543  1.7105 -1.7689
 3393TIP3    H231815   5.141   3.630   7.879  0.0014 -0.4824 -0.4536
 3394TIP3   OH231816   1.926   6.672   7.552  0.7084 -0.2267  0.1130
 3394TIP3    H131817   1.977   6.613   7.497  0.8595  0.1407 -0.1434
 3394TIP3    H231818   1.838   6.634   7.552  0.6448 -0.0953 -0.5886
 3395TIP3   OH231819   1.425   5.043   8.023  0.4275 -0.1262  0.3303
 3395TIP3    H131820   1.511   5.071   7.992 -0.5653  0.9416 -1.6071
 3395TIP3    H231821   1.428   4.948   8.020  0.7885 -0.0833 -2.0006
 3396TIP3   OH231822   3.553   6.582   1.849 -0.5102 -0.5375  0.4132
 3396TIP3    H131823   3.540   6.674   1.872  0.9777 -0.1330 -0.2552
 3396TIP3    H231824   3.536   6.534   1.930  0.2214  0.4612  1.1810
 3397TIP3   OH231825   0.406   3.979   2.728 -0.2998  0.0265 -0.2006
 3397TIP3    H131826   0.338   3.912   2.726 -0.4271  0.1406  0.1891
 3397TIP3    H231827   0.486   3.932   2.754 -0.3202 -0.0312 -0.2425
 3398TIP3   OH231828   3.542   6.041   7.953  0.1135  0.1118 -0.4630
 3398TIP3    H131829   3.597   5.963   7.954 -0.4549 -0.2937 -0.0298
 3398TIP3    H231830   3.458   6.011   7.919  0.3713  0.8875 -1.8417
 3399TIP3   OH231831   1.589   2.489   7.367 -0.5127 -0.3692 -0.0387
 3399TIP3    H131832   1.620   2.413   7.417  1.9114  0.8644  0.5245
 3399TIP3    H231833   1.599   2.563   7.427  0.3103  0.8443 -1.5747
 3400TIP3   OH231834   2.767   5.310   6.599 -0.5810 -0.0192 -0.9451
 3400TIP3    H131835   2.750   5.373   6.529 -0.5848  0.6212 -0.3836
 3400TIP3    H231836   2.689   5.313   6.654 -1.0198 -1.2895 -1.4637
 3401TIP3   OH231837   0.991   5.881   8.411 -0.0715  0.0585  0.2703
 3401TIP3    H131838   0.963   5.963   8.371 -1.3467 -0.3667  0.2355
 3401TIP3    H231839   1.077   5.900   8.449 -0.5971  1.5644  0.7602
 3402TIP3   OH231840   3.719   2.196   8.332 -0.5210  0.0522  0.0892
 3402TIP3    H131841   3.664   2.249   8.389 -1.2358  1.2484 -1.6322
 3402TIP3    H231842   3.668   2.116   8.319 -0.7981  0.1889  0.3157
 3403TIP3   OH231843   6.868   6.410   6.973  0.2914 -0.5547 -0.8029
 3403TIP3    H131844   6.816   6.403   6.893  0.7656 -0.0091 -1.1661
 3403TIP3    H231845   6.826   6.480   7.023 -0.3727 -1.3037 -0.2789
 3404TIP3   OH231846   6.339   1.137   7.284  0.1129  0.0297  0.1496
 3404TIP3    H131847   6.284   1.059   7.290  1.1569 -0.7422 -0.1092
 3404TIP3    H231848   6.295   1.193   7.220 -1.2236  0.1579  1.1350
 3405TIP3   OH231849   1.707   0.947   2.368 -0.8910 -0.2306 -0.7072
 3405TIP3    H131850   1.662   0.882   2.315 -1.1579 -0.7600  0.1374
 3405TIP3    H231851   1.723   0.902   2.452 -0.2304  0.4798 -0.4406
 3406TIP3   OH231852   2.714   6.714   7.189 -0.1071 -0.2595 -0.5203
 3406TIP3    H131853   2.802   6.678   7.177 -1.2727 -2.7668 -2.6925
 3406TIP3    H231854   2.671   6.699   7.105 -2.5126  1.2342  0.3615
 3407TIP3   OH231855   3.908   1.027   7.720  0.3018  0.3082  0.2626
 3407TIP3    H131856   3.925   0.991   7.807  1.1093  0.3568  0.1254
 3407TIP3    H231857   3.885   0.951   7.667 -0.4557  0.3077  0.5687
 3408TIP3   OH231858   0.893   1.943   0.267  0.2111 -0.2294 -0.0121
 3408TIP3    H131859   0.984   1.963   0.241  0.4269 -0.9151  0.2008
 3408TIP3    H231860   0.853   2.029   0.280  0.2209  0.1555 -2.1454
 3409TIP3   OH231861   2.644   1.098   1.619 -0.3072 -0.1779  0.1840
 3409TIP3    H131862   2.665   1.189   1.600  1.6021 -0.3694  1.0710
 3409TIP3    H231863   2.599   1.066   1.540 -0.4882  1.3522 -0.3621
 3410TIP3   OH231864   1.019   2.433   1.354  0.2608 -0.1555 -0.4567
 3410TIP3    H131865   0.942   2.466   1.308  0.2702  0.8123  0.1886
 3410TIP3    H231866   1.055   2.510   1.398 -0.5557 -1.2668  2.3239
 3411TIP3   OH231867   5.758   4.565   5.541  0.1964  0.3726 -0.5033
 3411TIP3    H131868   5.796   4.621   5.609 -0.3999  1.3031 -0.9084
 3411TIP3    H231869   5.776   4.476   5.570 -1.8854  0.6413  2.0165
 3412TIP3   OH231870   6.774   6.409   8.238 -0.4579  0.2594 -0.1913
 3412TIP3    H131871   6.746   6.320   8.259 -1.9878  1.1122  1.7018
 3412TIP3    H231872   6.706   6.443   8.180 -0.9169  0.8052  0.6484
 3413TIP3   OH231873   4.019   2.651   2.913  0.4065  0.0889 -0.1192
 3413TIP3    H131874   3.925   2.654   2.892  0.4882 -1.3862 -0.8020
 3413TIP3    H231875   4.031   2.568   2.959  0.9111  1.5741  2.6522
 3414TIP3   OH231876   6.643   1.391   6.287 -0.2377  0.5187  0.0766
 3414TIP3    H131877   6.628   1.328   6.358 -1.5098  1.2424  0.4761
 3414TIP3    H231878   6.737   1.407   6.290  0.2133 -1.6685 -0.3291
 3415TIP3   OH231879   0.952   2.179   1.453  0.3905  0.5994  0.0504
 3415TIP3    H131880   0.978   2.268   1.431  2.4292  0.4093  1.3963
 3415TIP3    H231881   1.017   2.150   1.517 -1.5357 -1.0595  1.3983
 3416TIP3   OH231882   4.887   1.213   2.112  0.1951  0.9686 -0.2615
 3416TIP3    H131883   4.943   1.188   2.186 -0.6339 -1.0871 -0.2557
 3416TIP3    H231884   4.828   1.279   2.148  2.0165  2.5312 -0.0458
 3417TIP3   OH231885   5.648   2.549   0.846 -0.5924 -0.6826  0.1198
 3417TIP3    H131886   5.731   2.568   0.889 -1.4921  1.4681  1.0881
 3417TIP3    H231887   5.602   2.492   0.908 -0.0825 -1.4117 -0.1605
 3418TIP3   OH231888   2.806   5.292   0.813 -0.1209  0.2825  0.4162
 3418TIP3    H131889   2.748   5.365   0.790 -2.2362 -1.4733 -0.1681
 3418TIP3    H231890   2.774   5.263   0.899  0.4325 -0.1839  0.4676
 3419TIP3   OH231891   3.420   6.788   1.014  0.2181  0.0752  0.7521
 3419TIP3    H131892   3.446   6.754   0.928 -3.0516 -2.6196  0.6340
 3419TIP3    H231893   3.476   6.741   1.076  0.5855 -0.1836  0.2338
 3420TIP3   OH231894   0.736   3.773   1.036  0.2233 -0.1752  0.6924
 3420TIP3    H131895   0.738   3.852   0.981  0.4449  0.1410  1.1458
 3420TIP3    H231896   0.656   3.727   1.010  0.8600 -0.5714 -0.6417
 3421TIP3   OH231897   4.880   3.687   7.796  0.6108  0.4081  0.3304
 3421TIP3    H131898   4.868   3.606   7.747 -0.6272  0.3234  0.7413
 3421TIP3    H231899   4.791   3.718   7.814  1.0519  1.7354  0.3898
 3422TIP3   OH231900   0.062   6.533   8.119 -0.6722  0.1524  0.3999
 3422TIP3    H131901  -0.006   6.477   8.155 -0.5190 -0.5943 -0.4268
 3422TIP3    H231902   0.133   6.531   8.183  0.6052 -3.0750 -0.8707
 3423TIP3   OH231903   2.137   5.845   8.062 -0.0398  0.5502  0.2321
 3423TIP3    H131904   2.098   5.766   8.024 -1.3268  1.5688 -0.6487
 3423TIP3    H231905   2.184   5.886   7.989  0.6352  0.6110  0.6864
 3424TIP3   OH231906   3.483   2.027   0.411 -0.3153 -0.4358  0.8917
 3424TIP3    H131907   3.466   2.003   0.502 -0.3607 -1.1239  0.7096
 3424TIP3    H231908   3.534   1.954   0.376 -0.2428 -0.1487  0.3797
 3425TIP3   OH231909   3.306   3.687   7.262 -0.0212 -0.2476  0.1016
 3425TIP3    H131910   3.322   3.674   7.168 -0.4866  0.8153 -0.1316
 3425TIP3    H231911   3.212   3.699   7.269  0.2218  1.9922  0.3776
 3426TIP3   OH231912   1.454   2.045   2.434  0.1014 -0.6842  0.0412
 3426TIP3    H131913   1.483   2.081   2.518  1.2102  0.4265 -0.7836
 3426TIP3    H231914   1.413   2.119   2.389 -0.8420 -1.3672 -0.2637
 3427TIP3   OH231915   4.821   2.592   1.977  0.6337 -0.3290 -0.0490
 3427TIP3    H131916   4.726   2.589   1.970  0.3425 -0.5791  2.8515
 3427TIP3    H231917   4.840   2.681   2.006  1.3476 -0.1906 -0.8912
 3428TIP3   OH231918   3.845   6.131   7.369  0.0794  0.2076  0.1532
 3428TIP3    H131919   3.766   6.077   7.371 -1.7351  2.7294  2.0606
 3428TIP3    H231920   3.890   6.103   7.289 -2.3544 -1.8186 -0.6477
 3429TIP3   OH231921   6.507   4.649   1.695  0.2829  0.3620  0.7878
 3429TIP3    H131922   6.524   4.722   1.754 -2.5362  1.6853  0.1473
 3429TIP3    H231923   6.582   4.647   1.636  0.5491  2.6359  0.9839
 3430TIP3   OH231924   2.955   6.561   8.315 -0.0097 -0.1472  0.1592
 3430TIP3    H131925   3.020   6.491   8.315  0.0857 -0.0572  0.5125
 3430TIP3    H231926   3.005   6.641   8.330 -0.2501 -0.1220  0.8366
 3431TIP3   OH231927   6.733   6.449   2.343  0.0725  0.0799  0.7980
 3431TIP3    H131928   6.657   6.480   2.393  0.2766  0.5096  0.8491
 3431TIP3    H231929   6.728   6.354   2.349 -0.4622  0.1020  0.8019
 3432TIP3   OH231930   2.124   1.608   0.007 -0.6272  0.1663 -0.4116
 3432TIP3    H131931   2.161   1.520  -0.001 -0.6580  0.3369 -4.0606
 3432TIP3    H231932   2.051   1.597   0.069  1.8497 -1.3430  2.5299
 3433TIP3   OH231933   2.346   4.844   2.272  0.2111  0.4356  0.0651
 3433TIP3    H131934   2.353   4.871   2.363  0.2666  0.8422 -0.0606
 3433TIP3    H231935   2.425   4.791   2.257  0.3667  0.6390  0.1582
 3434TIP3   OH231936   0.663   6.448   1.818 -0.4572 -0.4293 -0.3813
 3434TIP3    H131937   0.746   6.496   1.819  1.9735 -4.1667  0.5310
 3434TIP3    H231938   0.613   6.485   1.890  1.0324  0.9480  0.0152
 3435TIP3   OH231939   4.299   3.962   8.520  0.5283  0.3372  0.2785
 3435TIP3    H131940   4.377   4.006   8.552  0.6402  1.6224 -1.5943
 3435TIP3    H231941   4.267   4.018   8.448 -0.6118 -1.4921 -0.7284
 3436TIP3   OH231942   6.866   4.496   7.729  0.0036  0.1896 -0.3503
 3436TIP3    H131943   6.804   4.559   7.693 -1.3245  0.5671  2.3094
 3436TIP3    H231944   6.871   4.426   7.663 -1.5102  1.2197 -1.6340
 3437TIP3   OH231945   2.939   2.640   7.386 -0.0940  0.0384 -0.9869
 3437TIP3    H131946   2.914   2.652   7.295  0.1427  1.1576 -0.9275
 3437TIP3    H231947   3.035   2.643   7.385 -0.0384 -1.3245 -0.8648
 3438TIP3   OH231948   0.986   2.996   0.157  0.1922 -0.1029  0.7934
 3438TIP3    H131949   0.990   2.990   0.253  0.4312 -2.4983  0.7030
 3438TIP3    H231950   0.899   2.966   0.134  0.8287 -1.6247  0.2084
 3439TIP3   OH231951   0.943   4.961   7.636 -0.0518 -0.4108 -0.0629
 3439TIP3    H131952   1.028   4.944   7.676  0.0398 -1.0603 -0.5097
 3439TIP3    H231953   0.919   5.049   7.666  2.1059  1.0363 -2.2307
 3440TIP3   OH231954   0.692   4.073   0.956 -0.4552  0.6368  0.0343
 3440TIP3    H131955   0.600   4.062   0.933 -0.6604  0.6554  0.8400
 3440TIP3    H231956   0.692   4.124   1.037  0.2770  0.9612 -0.1561
 3441TIP3   OH231957   6.763   4.707   7.524  0.0767 -0.1842  0.4207
 3441TIP3    H131958   6.854   4.713   7.495 -0.1872  0.9083 -0.1954
 3441TIP3    H231959   6.754   4.778   7.587 -0.0124 -1.0857  1.4624
 3442TIP3   OH231960   6.247   4.470   0.120 -0.0514 -0.1828  0.0089
 3442TIP3    H131961   6.202   4.459   0.036  0.1133  1.2543 -0.2806
 3442TIP3    H231962   6.328   4.419   0.110  1.0100  1.6608 -1.5456
 3443TIP3   OH231963   3.411   6.249   2.191  0.3967  0.4764  0.2257
 3443TIP3    H131964   3.315   6.251   2.184  0.4585 -1.0125 -2.5804
 3443TIP3    H231965   3.430   6.173   2.246 -0.0771 -0.3908 -0.7586
 3444TIP3   OH231966   6.483   4.600   7.663  0.1975  0.1892 -0.1893
 3444TIP3    H131967   6.535   4.522   7.646 -0.0099 -0.6253  2.4972
 3444TIP3    H231968   6.392   4.569   7.665 -0.0531  0.8471 -0.8681
 3445TIP3   OH231969   0.460   0.763   0.753  0.4645 -0.2621  0.3281
 3445TIP3    H131970   0.408   0.761   0.673 -0.9536 -1.5172  1.2359
 3445TIP3    H231971   0.519   0.688   0.745  1.2982  0.4034 -0.1040
 3446TIP3   OH231972   3.088   4.428   8.054  0.5177 -0.0937 -0.3853
 3446TIP3    H131973   3.003   4.455   8.087  1.2759 -0.2262  1.8449
 3446TIP3    H231974   3.143   4.506   8.060  1.1297 -0.5637  0.3844
 3447TIP3   OH231975   4.429   1.909   8.048  0.2235 -0.3911  0.3181
 3447TIP3    H131976   4.443   1.844   7.980 -0.0183 -2.6369  2.2798
 3447TIP3    H231977   4.374   1.975   8.008  0.1513 -1.5883 -1.6624
 3448TIP3   OH231978   6.047   3.733   1.251 -0.4324 -0.1568 -0.2231
 3448TIP3    H131979   6.096   3.705   1.328  1.6043  2.9697 -0.2311
 3448TIP3    H231980   5.965   3.768   1.286  0.8966  2.1964  0.7775
 3449TIP3   OH231981   2.283   1.321   2.145 -0.2743  0.2589 -0.3037
 3449TIP3    H131982   2.377   1.317   2.161 -0.1232 -0.5672 -1.2713
 3449TIP3    H231983   2.247   1.369   2.219  0.8446  0.1081  0.3474
 3450TIP3   OH231984   6.106   0.748   7.688 -0.4919 -0.2947 -0.0501
 3450TIP3    H131985   6.094   0.796   7.606  1.6101  1.0310  0.3399
 3450TIP3    H231986   6.083   0.811   7.756  0.9797 -0.2185  0.4264
 3451TIP3   OH231987   2.305   3.677   8.368  0.1721 -0.0997 -0.5972
 3451TIP3    H131988   2.385   3.631   8.343  0.4751 -0.1708  0.4375
 3451TIP3    H231989   2.335   3.749   8.424 -0.3765  0.7773 -1.3989
 3452TIP3   OH231990   2.151   0.243   1.151 -0.7404  0.0101 -0.0555
 3452TIP3    H131991   2.063   0.267   1.178 -1.5925 -1.8452 -0.9933
 3452TIP3    H231992   2.151   0.250   1.056  0.2880  0.4681 -0.0374
 3453TIP3   OH231993   2.219   1.528   7.570 -0.1523  0.1872 -0.0254
 3453TIP3    H131994   2.196   1.607   7.619 -1.1961 -1.1723  1.7973
 3453TIP3    H231995   2.166   1.535   7.490  0.8267  1.9650 -0.5754
 3454TIP3   OH231996   6.866   5.107   7.458 -0.0145  0.7991  0.1639
 3454TIP3    H131997   6.956   5.123   7.428 -0.3278  0.2480 -1.1067
 3454TIP3    H231998   6.875   5.092   7.552  1.3352 -0.0299 -0.0698
 3455TIP3   OH231999   5.604   0.389   8.275 -0.3866  0.0594 -0.4622
 3455TIP3    H132000   5.635   0.300   8.294 -0.2681  0.0903 -0.5098
 3455TIP3    H232001   5.596   0.430   8.361  0.6522  0.3670 -0.5085
 3456TIP3   OH232002   1.016   4.335   2.635 -0.0836  0.1109 -0.1891
 3456TIP3    H132003   1.068   4.257   2.617 -0.2934 -0.0899  0.0746
 3456TIP3    H232004   0.952   4.307   2.701  0.9486  0.9559  1.2022
 3457TIP3   OH232005   6.024   5.801   7.631 -0.2479  0.1862 -0.5324
 3457TIP3    H132006   6.029   5.773   7.539  2.4594  0.1991 -0.4709
 3457TIP3    H232007   6.115   5.818   7.655 -1.0696  1.8450  1.6717
 3458TIP3   OH232008   6.015   5.195   6.506  0.7669  0.0473 -0.0072
 3458TIP3    H132009   6.108   5.203   6.483  1.1407 -1.5805  0.7648
 3458TIP3    H232010   5.981   5.129   6.446  0.8102 -1.3567  1.4281
 3459TIP3   OH232011   1.645   4.515   6.416  0.2886  0.5611  0.1496
 3459TIP3    H132012   1.591   4.586   6.382  0.0560  0.3845  0.1526
 3459TIP3    H232013   1.587   4.466   6.474  0.4658  0.4019  0.1954
 3460TIP3   OH232014   4.023   5.054   7.587 -0.6035  0.2684  0.2963
 3460TIP3    H132015   3.985   5.062   7.500  0.8421 -1.7821 -0.5901
 3460TIP3    H232016   3.952   5.021   7.642 -1.3352  0.9390 -0.2125
 3461TIP3   OH232017   0.159   4.487   0.649  0.2788 -0.4421 -0.5538
 3461TIP3    H132018   0.153   4.459   0.558  1.1828 -0.1392 -0.7233
 3461TIP3    H232019   0.250   4.517   0.659  0.1163 -0.2094  0.3694
 3462TIP3   OH232020   4.169   1.564   2.053 -0.1960 -0.3301  0.0976
 3462TIP3    H132021   4.081   1.537   2.080 -0.2832 -0.7868 -0.6217
 3462TIP3    H232022   4.186   1.643   2.104 -0.9865 -0.2932  0.3197
 3463TIP3   OH232023   6.842   5.758   8.222  0.0964  0.0259  0.2321
 3463TIP3    H132024   6.772   5.743   8.286 -0.2888  0.5945 -0.0535
 3463TIP3    H232025   6.883   5.672   8.212  0.4910  0.0238  1.6136
 3464TIP3   OH232026   5.651   0.618   0.277 -0.5866  0.4056  0.2283
 3464TIP3    H132027   5.680   0.571   0.355 -0.2057  0.7512  0.2933
 3464TIP3    H232028   5.730   0.658   0.242 -0.4627 -1.0229 -1.2153
 3465TIP3   OH232029   0.973   4.151   1.010 -0.3805  0.1990  1.2411
 3465TIP3    H132030   0.923   4.222   1.050  0.3911  2.3488 -1.3047
 3465TIP3    H232031   0.910   4.079   1.003 -1.9459  1.4521  1.6940
 3466TIP3   OH232032   0.306   3.164   8.309 -0.3853  0.4832 -0.1941
 3466TIP3    H132033   0.219   3.130   8.287 -0.1204  0.8731 -1.9895
 3466TIP3    H232034   0.331   3.216   8.233  1.3889  0.4670  0.3440
 3467TIP3   OH232035   4.380   4.594   8.485  0.0469  0.4125  0.6831
 3467TIP3    H132036   4.332   4.628   8.409 -0.4136 -0.4432  0.5773
 3467TIP3    H232037   4.463   4.641   8.484 -0.1539  0.7707 -0.0590
 3468TIP3   OH232038   0.090   0.620   8.327 -0.4645  0.2170 -0.0551
 3468TIP3    H132039   0.068   0.710   8.304 -2.0974  0.1476  1.0455
 3468TIP3    H232040   0.043   0.566   8.263  0.6833  0.1143 -0.8485
 3469TIP3   OH232041   5.597   4.840   0.487 -0.2357  0.0216 -0.1989
 3469TIP3    H132042   5.558   4.886   0.562 -0.6637  0.9273 -0.9585
 3469TIP3    H232043   5.676   4.890   0.467  1.8444 -2.2387  1.8051
 3470TIP3   OH232044   2.760   1.540   1.386  0.3138  0.4716 -0.7315
 3470TIP3    H132045   2.749   1.634   1.404  0.9991  0.2146  1.2681
 3470TIP3    H232046   2.750   1.533   1.291 -2.2071  2.2158 -0.7052
 3471TIP3   OH232047   6.868   3.357   2.464  0.5745 -0.0105  0.2413
 3471TIP3    H132048   6.937   3.335   2.526  0.2381  0.5250  0.8178
 3471TIP3    H232049   6.823   3.432   2.503  0.4198  0.4116 -0.6976
 3472TIP3   OH232050   4.584   1.338   2.679 -0.3328 -0.1930 -0.5157
 3472TIP3    H132051   4.492   1.353   2.662 -0.3343 -0.4774 -0.7907
 3472TIP3    H232052   4.590   1.243   2.695  0.0382 -0.3404 -1.4360
 3473TIP3   OH232053   0.090   0.237   2.174  0.0679 -0.0209  0.5077
 3473TIP3    H132054   0.141   0.222   2.254  1.0380 -0.8695 -0.2575
 3473TIP3    H232055   0.000   0.248   2.206  0.1564 -2.0329  1.6088
 3474TIP3   OH232056   5.888   1.211   2.860  0.5418  0.2781  0.0894
 3474TIP3    H132057   5.942   1.188   2.936  0.7312  1.2026  0.2535
 3474TIP3    H232058   5.872   1.305   2.870 -0.2769  0.2163 -0.4871
 3475TIP3   OH232059   2.429   3.332   7.806 -0.0311  0.6460  0.1733
 3475TIP3    H132060   2.399   3.357   7.893  0.8933 -0.7669  0.9357
 3475TIP3    H232061   2.524   3.339   7.810  0.0208  0.5408 -0.7121
 3476TIP3   OH232062   0.065   5.797   7.062 -0.2707 -0.2996  0.5884
 3476TIP3    H132063   0.130   5.827   6.998 -1.5258  0.1819 -0.5364
 3476TIP3    H232064   0.059   5.703   7.048  0.6097 -0.4455  1.1314
 3477TIP3   OH232065   4.899   0.895   8.377  0.0820 -0.2851 -0.0017
 3477TIP3    H132066   4.835   0.966   8.365  0.5592 -0.2071 -2.4904
 3477TIP3    H232067   4.881   0.862   8.465 -0.1121  2.9446  1.3066
 3478TIP3   OH232068   1.536   4.064   0.872  0.7181  0.8502 -0.2111
 3478TIP3    H132069   1.512   4.156   0.884  1.2370  1.1294 -1.2099
 3478TIP3    H232070   1.510   4.021   0.953  1.2800  2.0489  0.6298
 3479TIP3   OH232071   1.479   4.696   2.574 -0.2946  0.1891  0.8393
 3479TIP3    H132072   1.441   4.657   2.496  0.0473 -0.2749  0.8976
 3479TIP3    H232073   1.453   4.638   2.645 -1.7214  1.3297  1.2829
 3480TIP3   OH232074   1.486   6.489   0.992 -0.1890 -0.3519 -0.3872
 3480TIP3    H132075   1.413   6.433   1.017 -0.5082 -0.3692 -1.3532
 3480TIP3    H232076   1.558   6.460   1.049 -1.0748  0.0857  1.0207
 3481TIP3   OH232077   2.042   0.745   0.245  0.1377  0.6489  0.0094
 3481TIP3    H132078   2.106   0.795   0.196  1.1058  0.9863  1.5453
 3481TIP3    H232079   2.088   0.718   0.325 -1.3789  0.2017  0.7788
 3482TIP3   OH232080   3.475   6.453   1.622  0.1140 -0.0068  0.2546
 3482TIP3    H132081   3.545   6.389   1.632  1.5187  1.6191  1.2756
 3482TIP3    H232082   3.485   6.512   1.697 -1.0148  1.5199 -0.7399
 3483TIP3   OH232083   0.049   4.482   6.895  0.0329  0.3772  0.6226
 3483TIP3    H132084   0.074   4.482   6.803  0.2772 -0.1661  0.6842
 3483TIP3    H232085   0.126   4.516   6.941  0.8889 -1.7245  0.8560
 3484TIP3   OH232086   6.420   6.288   8.464  0.0434  0.5475 -0.2919
 3484TIP3    H132087   6.441   6.294   8.370 -0.4045 -0.3012 -0.4520
 3484TIP3    H232088   6.502   6.263   8.505 -0.2839 -1.4589 -0.7589
 3485TIP3   OH232089   3.473   0.340   2.307  0.2490  0.1998  0.3747
 3485TIP3    H132090   3.384   0.321   2.336  0.2611  0.3308  0.5005
 3485TIP3    H232091   3.526   0.334   2.387  0.1991  1.0982  0.4814
 3486TIP3   OH232092   3.189   0.969   2.210 -0.1029 -0.1857 -0.1828
 3486TIP3    H132093   3.197   0.882   2.171 -0.9899  0.0459 -0.9419
 3486TIP3    H232094   3.243   1.025   2.154 -0.8468  0.0283 -0.7108
 3487TIP3   OH232095   0.690   4.708   1.855 -0.0929  0.4541 -0.4386
 3487TIP3    H132096   0.703   4.714   1.760 -1.1686  3.3651 -0.5026
 3487TIP3    H232097   0.655   4.620   1.869  0.0242 -0.0230 -2.7518
 3488TIP3   OH232098   0.212   6.906   0.389  0.8241  0.3842  0.6439
 3488TIP3    H132099   0.152   6.955   0.446 -0.4637 -1.2779  0.8187
 3488TIP3    H232100   0.226   6.823   0.435  2.5532  0.3577  0.1414
 3489TIP3   OH232101   5.650   0.930   1.219 -0.0042 -0.0599 -0.0261
 3489TIP3    H132102   5.585   0.994   1.189 -0.3801  0.3778  1.6186
 3489TIP3    H232103   5.621   0.847   1.181  0.0085  0.5684 -1.4886
 3490TIP3   OH232104   4.913   1.875   0.430 -0.3021 -0.7543 -0.3423
 3490TIP3    H132105   4.974   1.804   0.447  0.8750  0.5169  1.0993
 3490TIP3    H232106   4.833   1.852   0.478  0.0474 -1.1326  0.0554
 3491TIP3   OH232107   0.615   6.396   2.947 -0.2836  0.4673  0.2504
 3491TIP3    H132108   0.579   6.440   2.870 -0.1912  0.4103  0.1739
 3491TIP3    H232109   0.541   6.386   3.006 -0.6372 -0.6540 -0.3632
 3492TIP3   OH232110   6.496   5.835   1.569  0.5172  0.0267  0.0571
 3492TIP3    H132111   6.585   5.807   1.552  0.6931 -0.8417  2.0542
 3492TIP3    H232112   6.495   5.928   1.550  2.2933  0.3792  1.4833
 3493TIP3   OH232113   4.965   3.736   1.753 -0.2424  0.0824 -0.7965
 3493TIP3    H132114   5.017   3.655   1.755 -0.1289  0.1705  0.5314
 3493TIP3    H232115   4.992   3.784   1.831 -1.6073  0.5870 -0.6094
 3494TIP3   OH232116   2.345   3.660   2.012 -0.4507 -0.5380  0.1283
 3494TIP3    H132117   2.425   3.617   1.982 -0.4021 -1.1959  1.1284
 3494TIP3    H232118   2.321   3.612   2.092 -0.7622  0.8857  0.9285
 3495TIP3   OH232119   0.052   0.103   0.834 -0.0796 -0.0770 -0.1818
 3495TIP3    H132120   0.120   0.125   0.898  1.7429  0.6302 -2.2054
 3495TIP3    H232121  -0.022   0.159   0.857  0.5691  0.2676  1.1753
 3496TIP3   OH232122   2.733   5.699   1.005 -0.1721 -0.5330  0.4094
 3496TIP3    H132123   2.654   5.671   0.959  1.2334 -2.3402 -1.0697
 3496TIP3    H232124   2.751   5.629   1.067 -0.3846  0.4710  1.6516
 3497TIP3   OH232125   0.038   3.174   8.028  0.0772  0.4233 -0.4924
 3497TIP3    H132126   0.022   3.089   8.068  0.0446  0.9521  0.6575
 3497TIP3    H232127   0.091   3.155   7.951 -0.5569 -0.6997 -0.6656
 3498TIP3   OH232128   5.674   6.790   1.298  0.3004 -0.1029  0.0400
 3498TIP3    H132129   5.751   6.761   1.249  0.4595 -1.0961  0.8614
 3498TIP3    H232130   5.600   6.751   1.251  0.4411 -0.9210  0.4881
 3499TIP3   OH232131   2.477   1.723   0.474  0.2465 -0.6227  0.2528
 3499TIP3    H132132   2.511   1.661   0.409 -1.2992 -1.9086  0.6090
 3499TIP3    H232133   2.383   1.727   0.457  0.1768  0.9639  0.8318
 3500TIP3   OH232134   3.978   2.065   7.719 -0.2768  0.2411 -0.1379
 3500TIP3    H132135   3.903   2.093   7.668  0.7878  1.2103 -1.2548
 3500TIP3    H232136   4.053   2.078   7.660  1.1057  2.1605  1.8861
 3501TIP3   OH232137   3.151   6.602   0.242  0.1563 -0.5023 -0.4811
 3501TIP3    H132138   3.130   6.525   0.296  1.5349 -0.9421 -0.5163
 3501TIP3    H232139   3.169   6.671   0.306 -1.9863  0.0881 -0.4578
 3502TIP3   OH232140   2.190   4.897   1.152  0.4892  0.1020 -0.4705
 3502TIP3    H132141   2.179   4.977   1.203 -0.1514  0.4835 -1.1883
 3502TIP3    H232142   2.114   4.895   1.094  1.3918 -0.1158 -1.6916
 3503TIP3   OH232143   1.382   6.478   1.949 -0.4555 -0.2683  0.0184
 3503TIP3    H132144   1.453   6.453   2.008  1.0701 -0.0800 -1.6348
 3503TIP3    H232145   1.307   6.426   1.977  0.0239  0.2728  2.4651
 3504TIP3   OH232146   5.346   4.500   6.260 -0.5325  0.3088 -0.1003
 3504TIP3    H132147   5.297   4.580   6.283  0.0847  0.7582 -0.3235
 3504TIP3    H232148   5.292   4.457   6.194  0.0795  1.6004 -1.5132
 3505TIP3   OH232149   3.955   5.101   7.324 -0.3518 -0.3472  0.7114
 3505TIP3    H132150   3.901   5.171   7.288 -0.8257 -0.5344  1.0546
 3505TIP3    H232151   3.915   5.020   7.293  0.9801 -0.4762 -0.8247
 3506TIP3   OH232152   3.955   6.435   2.181  0.5913  0.1205 -0.6659
 3506TIP3    H132153   3.934   6.354   2.227  0.4605  0.8613  0.6261
 3506TIP3    H232154   4.021   6.410   2.116 -0.2191 -1.1982 -0.9919
 3507TIP3   OH232155   3.175   5.810   0.391  0.1555  0.1639  0.1360
 3507TIP3    H132156   3.087   5.775   0.404 -0.0637  0.9004  0.6737
 3507TIP3    H232157   3.223   5.785   0.470 -0.2128  1.6938  0.8713
 3508TIP3   OH232158   6.830   1.266   1.168 -0.5915  0.3930  0.6162
 3508TIP3    H132159   6.740   1.264   1.135  0.0806 -1.6455 -1.4234
 3508TIP3    H232160   6.869   1.343   1.126 -0.3157 -1.0614 -2.0878
 3509TIP3   OH232161   2.035   6.755   1.423 -0.0397 -0.1054  0.7750
 3509TIP3    H132162   2.066   6.761   1.333  0.3376 -0.0352  0.9065
 3509TIP3    H232163   2.112   6.730   1.473 -0.2936 -0.3510  1.0504
 3510TIP3   OH232164   6.164   3.009   0.534 -0.0496 -0.3235  0.1456
 3510TIP3    H132165   6.099   2.939   0.525  0.5392 -1.0909  1.5788
 3510TIP3    H232166   6.122   3.073   0.591 -0.2600  0.1089 -0.4796
 3511TIP3   OH232167   0.958   3.669   8.226  0.1521  0.3643  0.6918
 3511TIP3    H132168   1.025   3.617   8.181 -1.1103 -1.3581  0.6900
 3511TIP3    H232169   0.964   3.756   8.185  0.2173 -0.6526 -1.6041
 3512TIP3   OH232170   1.099   4.417   2.063  0.0572 -0.0249  0.4704
 3512TIP3    H132171   1.190   4.411   2.032 -0.3044 -1.5717 -0.3693
 3512TIP3    H232172   1.093   4.350   2.131  0.2060  1.8072  2.3891
 3513TIP3   OH232173   4.272   1.676   8.310 -0.0794 -0.1501  0.2932
 3513TIP3    H132174   4.209   1.712   8.248  0.2610 -1.6690 -1.0033
 3513TIP3    H232175   4.349   1.655   8.257  2.4250  3.3964  2.0880
 3514TIP3   OH232176   4.721   4.326   7.921 -0.2861  0.0383 -0.2958
 3514TIP3    H132177   4.721   4.399   7.984 -0.4764  0.9011 -1.2765
 3514TIP3    H232178   4.750   4.365   7.839 -0.3129 -1.0201 -0.8248
 3515TIP3   OH232179   6.650   3.637   0.349 -0.0850 -0.4621 -0.5174
 3515TIP3    H132180   6.715   3.576   0.384 -0.9146 -0.2953  1.4602
 3515TIP3    H232181   6.662   3.634   0.254  3.7371  0.5810 -0.2185
 3516TIP3   OH232182   0.765   4.633   8.147 -0.1291 -0.5042 -0.0697
 3516TIP3    H132183   0.823   4.629   8.224  1.4164 -1.3381 -1.2270
 3516TIP3    H232184   0.751   4.542   8.122  0.0214 -0.2269 -1.2257
 3517TIP3   OH232185   2.688   4.871   0.387 -0.6698 -0.4631 -0.4962
 3517TIP3    H132186   2.689   4.914   0.301  0.8223 -2.5271 -1.6069
 3517TIP3    H232187   2.618   4.806   0.381 -0.2162 -0.9774 -0.3826
 3518TIP3   OH232188   3.841   6.817   8.189 -0.2216 -0.1989  0.2583
 3518TIP3    H132189   3.789   6.737   8.195  0.1239 -0.7334 -2.4253
 3518TIP3    H232190   3.776   6.886   8.175 -0.4088 -0.3448  0.4121
 3519TIP3   OH232191   1.456   6.639   1.399 -0.6529  0.0729 -0.0067
 3519TIP3    H132192   1.376   6.692   1.391 -1.9579 -1.8589 -0.3942
 3519TIP3    H232193   1.426   6.549   1.385  1.6617 -0.6810 -0.4063
 3520TIP3   OH232194   6.609   6.933   1.296  0.2769  0.6272  0.2816
 3520TIP3    H132195   6.537   6.934   1.358 -1.1424  1.5812 -1.2978
 3520TIP3    H232196   6.579   6.987   1.223  1.5168 -1.1157 -1.6275
 3521TIP3   OH232197   3.291   0.927   1.693  0.3077 -0.2028  0.2521
 3521TIP3    H132198   3.207   0.935   1.738 -1.0827 -0.8305 -2.0863
 3521TIP3    H232199   3.308   1.015   1.658  1.1054  0.1403  1.4257
 3522TIP3   OH232200   1.504   5.663   0.369 -0.0813 -0.7615 -0.8131
 3522TIP3    H132201   1.463   5.728   0.312 -0.8565 -0.5478 -0.0371
 3522TIP3    H232202   1.466   5.679   0.455  2.5256  0.2802  0.2579
 3523TIP3   OH232203   1.364   0.257   2.499  0.0428  0.1526 -0.2667
 3523TIP3    H132204   1.354   0.184   2.560 -1.5531 -0.8723 -1.6628
 3523TIP3    H232205   1.365   0.335   2.554  0.3745 -0.8287  1.1645
 3524TIP3   OH232206   3.339   1.799   7.741 -0.3185  0.4038  0.3350
 3524TIP3    H132207   3.361   1.803   7.648  0.2894 -1.7582  0.3298
 3524TIP3    H232208   3.245   1.781   7.743  0.0188 -1.7125  0.0108
 3525TIP3   OH232209   5.692   1.256   7.398 -0.0133 -0.3197  0.1888
 3525TIP3    H132210   5.678   1.328   7.336  0.5434 -0.1125  0.2961
 3525TIP3    H232211   5.625   1.268   7.465 -0.1529 -0.1141  0.0116
 3526TIP3   OH232212   6.631   2.361   6.998 -0.4248  0.1292 -0.6479
 3526TIP3    H132213   6.539   2.336   6.999 -0.7368  1.2168 -0.1700
 3526TIP3    H232214   6.631   2.451   6.964  0.0674  1.4159  2.4063
 3527TIP3   OH232215   4.693   0.160   2.185  0.3946  0.0110  0.8279
 3527TIP3    H132216   4.727   0.149   2.096  2.3894 -3.1698  1.7993
 3527TIP3    H232217   4.738   0.237   2.218  0.0703  0.8975 -0.7059
 3528TIP3   OH232218   0.932   2.724   7.170 -0.0393 -0.1844  0.0460
 3528TIP3    H132219   0.942   2.667   7.246 -2.2027 -1.4439 -0.5135
 3528TIP3    H232220   0.995   2.689   7.106  0.5097 -0.2496  0.6107
 3529TIP3   OH232221   5.205   5.967   2.301  0.3243 -0.8477  0.1984
 3529TIP3    H132222   5.262   6.036   2.267  1.3764 -1.3619  0.8692
 3529TIP3    H232223   5.263   5.892   2.314 -0.5320 -1.4284  0.7605
 3530TIP3   OH232224   3.385   2.972   1.756 -0.4656  0.4340  0.5714
 3530TIP3    H132225   3.353   2.888   1.723  0.2944  0.9335 -1.5843
 3530TIP3    H232226   3.306   3.025   1.767 -0.7748  0.1580 -0.2283
 3531TIP3   OH232227   0.281   3.399   8.559 -0.1728 -0.7772 -0.4491
 3531TIP3    H132228   0.310   3.490   8.558  1.7943 -1.3543 -2.5675
 3531TIP3    H232229   0.187   3.404   8.579 -0.3275  1.7730 -1.4581
 3532TIP3   OH232230   2.067   6.580   2.505 -0.2469  0.3451 -0.3661
 3532TIP3    H132231   2.001   6.548   2.443  0.2910 -1.4138 -0.0954
 3532TIP3    H232232   2.060   6.521   2.580  1.5368  0.2030 -0.2726
 3533TIP3   OH232233   5.008   1.123   1.277  0.2630  0.0757  0.1912
 3533TIP3    H132234   4.985   1.059   1.345  0.5959  1.1222  1.3311
 3533TIP3    H232235   5.031   1.202   1.326 -0.7248  1.2724 -1.2012
 3534TIP3   OH232236   3.259   2.152   7.517  0.2314 -0.0689 -0.0939
 3534TIP3    H132237   3.330   2.129   7.456  1.0191  1.3071  0.2730
 3534TIP3    H232238   3.255   2.248   7.515 -0.5040 -0.0518  1.1590
 3535TIP3   OH232239   2.988   6.166   1.133 -0.4389 -0.0719  0.0048
 3535TIP3    H132240   2.926   6.093   1.143 -2.0492  1.1301 -0.8553
 3535TIP3    H232241   3.008   6.191   1.223 -0.0337 -1.3985  0.3183
 3536TIP3   OH232242   3.206   6.672   1.457 -0.2746  0.1960 -0.2060
 3536TIP3    H132243   3.192   6.680   1.363 -0.9021  0.1538 -0.1202
 3536TIP3    H232244   3.175   6.755   1.493 -1.1359 -0.2452  0.0806
 3537TIP3   OH232245   1.778   5.635   1.011 -0.0665  0.1533 -0.0901
 3537TIP3    H132246   1.735   5.695   0.950 -0.5724  0.0202  0.1296
 3537TIP3    H232247   1.776   5.550   0.967  0.7918  0.3278 -0.4689
 3538TIP3   OH232248   3.526   2.060   1.851 -0.0860 -0.2301  0.1399
 3538TIP3    H132249   3.454   2.070   1.789 -0.2503 -0.9576  0.2140
 3538TIP3    H232250   3.604   2.088   1.802 -0.3588  0.2028 -0.0543
 3539TIP3   OH232251   0.932   6.158   8.258 -0.1760 -0.0038 -0.3539
 3539TIP3    H132252   0.923   6.207   8.176 -0.8401 -0.7599 -0.7418
 3539TIP3    H232253   1.013   6.192   8.297 -0.6201  1.4116 -0.5977
 3540TIP3   OH232254   0.243   1.564   0.848  0.2610 -0.5062  0.0702
 3540TIP3    H132255   0.319   1.530   0.801  0.1218  2.6964 -2.9150
 3540TIP3    H232256   0.278   1.637   0.900 -0.5709  0.5059 -0.7391
 3541TIP3   OH232257   5.820   5.229   0.707  0.0142 -0.0072  0.1570
 3541TIP3    H132258   5.847   5.161   0.768 -0.6555 -1.4407 -1.0631
 3541TIP3    H232259   5.742   5.192   0.665 -1.0173  1.9886  0.2245
 3542TIP3   OH232260   4.499   0.947   6.637  0.0323  0.4550  0.2727
 3542TIP3    H132261   4.532   0.960   6.726  1.2786  1.5878 -0.3054
 3542TIP3    H232262   4.572   0.905   6.591 -0.3541  0.4742 -0.3706
 3543TIP3   OH232263   0.255   4.058   7.334 -0.0576  0.4845 -0.6208
 3543TIP3    H132264   0.209   4.065   7.418 -1.8661  0.2789 -1.5449
 3543TIP3    H232265   0.197   4.101   7.271  0.7673 -0.2623 -1.9370
 3544TIP3   OH232266   1.593   0.072   2.560  0.0493 -0.0015 -0.0462
 3544TIP3    H132267   1.541   0.085   2.639 -0.9866 -0.5511 -0.6233
 3544TIP3    H232268   1.584  -0.021   2.540  0.0773  0.1858 -0.9644
 3545TIP3   OH232269   1.331   6.555   6.976  0.4298 -0.2825  0.0307
 3545TIP3    H132270   1.289   6.584   7.057 -2.1740 -0.6767 -1.0774
 3545TIP3    H232271   1.321   6.460   6.977  1.2484 -0.3740 -0.3079
 3546TIP3   OH232272   3.735   5.661   0.108  0.3087  0.3517 -0.0160
 3546TIP3    H132273   3.763   5.661   0.017  0.6909 -2.4144  0.0104
 3546TIP3    H232274   3.814   5.683   0.158  0.5437  0.1415 -0.2910
 3547TIP3   OH232275   1.093   6.003   1.003 -0.5461  0.3057 -0.2480
 3547TIP3    H132276   1.050   6.077   1.046  1.3233  0.4225  1.5993
 3547TIP3    H232277   1.024   5.937   0.994 -1.4852  1.0357  1.1735
 3548TIP3   OH232278   6.091   4.290   1.358 -0.0755  0.4900  0.0162
 3548TIP3    H132279   6.088   4.296   1.263  0.1754 -0.4690 -0.0615
 3548TIP3    H232280   6.174   4.330   1.382  0.3777 -0.2581 -0.2658
 3549TIP3   OH232281   6.513   3.681   7.180 -0.0591  0.0779 -0.5368
 3549TIP3    H132282   6.478   3.768   7.202  1.0603  1.0871 -2.4954
 3549TIP3    H232283   6.560   3.654   7.259  0.0411  1.5094 -0.0797
 3550TIP3   OH232284   6.191   4.786   8.453 -0.6596 -0.3623  0.5033
 3550TIP3    H132285   6.282   4.814   8.442 -1.8262  3.3268 -1.4356
 3550TIP3    H232286   6.161   4.768   8.364 -2.0535 -0.7279  1.0279
 3551TIP3   OH232287   0.549   6.882   7.781  0.3687  0.4781  0.0710
 3551TIP3    H132288   0.573   6.915   7.868  0.2687  0.8271 -0.0302
 3551TIP3    H232289   0.463   6.841   7.793  0.1813  0.8590  0.0664
 3552TIP3   OH232290   4.485   2.939   2.731 -0.1845 -0.6732 -1.0719
 3552TIP3    H132291   4.533   3.011   2.773 -2.0476  1.1239 -1.8429
 3552TIP3    H232292   4.487   2.869   2.796 -0.2044  0.8725  0.7080
 3553TIP3   OH232293   6.248   1.258   7.044 -0.5269  0.2140 -0.0205
 3553TIP3    H132294   6.235   1.178   6.995 -1.2185 -0.3013  0.9773
 3553TIP3    H232295   6.250   1.327   6.978  0.6176 -0.6682 -0.9343
 3554TIP3   OH232296   5.982   0.046   7.866 -0.3444 -0.0591  0.0010
 3554TIP3    H132297   5.993  -0.030   7.924  0.5823  1.5277  2.0637
 3554TIP3    H232298   5.893   0.038   7.832 -0.8281 -1.2435  1.4345
 3555TIP3   OH232299   4.569   4.822   7.544  0.5562 -0.0561 -0.3911
 3555TIP3    H132300   4.594   4.893   7.604 -2.4264  1.3444 -0.6181
 3555TIP3    H232301   4.504   4.771   7.593  1.3109 -1.5663 -0.9135
 3556TIP3   OH232302   4.827   4.197   0.577  0.0484 -0.7762  0.2471
 3556TIP3    H132303   4.823   4.112   0.620  0.4009  0.2974  2.5890
 3556TIP3    H232304   4.780   4.256   0.636 -0.6394  0.5767 -1.5562
 3557TIP3   OH232305   1.150   2.999   7.524  0.1212  0.6745 -0.4160
 3557TIP3    H132306   1.240   3.022   7.548  1.0133 -1.3850 -1.5234
 3557TIP3    H232307   1.152   2.992   7.428 -0.9915 -0.2595 -0.3857
 3558TIP3   OH232308   0.507   1.338   7.821  0.1265  0.6262  0.7476
 3558TIP3    H132309   0.493   1.351   7.915 -1.0369 -0.4680  0.7576
 3558TIP3    H232310   0.490   1.245   7.807  0.6043  0.7055 -0.5034
 3559TIP3   OH232311   4.103   4.077   1.088 -0.2830  0.0937  0.2478
 3559TIP3    H132312   4.195   4.065   1.064  0.2616 -0.1531  2.2540
 3559TIP3    H232313   4.054   4.059   1.008  1.3491 -1.0286 -0.5358
 3560TIP3   OH232314   5.998   2.639   8.172 -0.2342  0.5732  0.0766
 3560TIP3    H132315   6.028   2.694   8.100 -1.8257  3.1033  1.2126
 3560TIP3    H232316   6.025   2.685   8.251  0.1941 -1.4016  1.1434
 3561TIP3   OH232317   6.180   2.867   7.521  0.7707  0.0589  0.6813
 3561TIP3    H132318   6.229   2.949   7.522  1.2751 -0.1812 -0.9341
 3561TIP3    H232319   6.095   2.890   7.558  0.3158  1.7379 -1.2103
 3562TIP3   OH232320   3.258   4.906   0.465  0.2166  0.1495 -0.3892
 3562TIP3    H132321   3.202   4.828   0.463  0.6030 -0.1936  0.8964
 3562TIP3    H232322   3.273   4.921   0.559  0.0398  1.8503 -0.6141
 3563TIP3   OH232323   3.791   1.792   8.072  0.0954 -0.2926  0.2128
 3563TIP3    H132324   3.815   1.757   8.158  1.7096  0.5175  0.1338
 3563TIP3    H232325   3.874   1.821   8.034 -0.8237  1.0259 -0.8820
 3564TIP3   OH232326   3.024   1.093   0.027 -0.1232 -0.1467  0.2654
 3564TIP3    H132327   2.969   1.025  -0.012  0.6189 -0.5402 -0.0980
 3564TIP3    H232328   3.089   1.045   0.079  0.5791  0.2729 -0.2216
 3565TIP3   OH232329   2.788   1.900   2.652 -0.1338  0.3321 -0.0918
 3565TIP3    H132330   2.732   1.855   2.715 -0.8996  1.1938 -0.1357
 3565TIP3    H232331   2.877   1.877   2.678 -0.4943 -0.7772  0.1942
 3566TIP3   OH232332   0.885   6.710   0.939  0.1628 -0.5178  0.0113
 3566TIP3    H132333   0.977   6.717   0.914  0.3382  2.9774  1.0242
 3566TIP3    H232334   0.836   6.732   0.859  0.2460 -1.0941 -0.2003
 3567TIP3   OH232335   5.805   0.792   0.671  0.0289  0.2239  0.6502
 3567TIP3    H132336   5.743   0.864   0.676  2.7490  2.9500 -1.2340
 3567TIP3    H232337   5.868   0.808   0.741 -0.5545 -1.7493  1.7106
 3568TIP3   OH232338   4.672   3.302   7.041  0.0078  0.7614  0.4741
 3568TIP3    H132339   4.630   3.259   7.116 -0.6239  0.9973  0.2668
 3568TIP3    H232340   4.743   3.244   7.016 -0.1367  0.3976  0.8996
 3569TIP3   OH232341   3.759   5.337   2.601  0.3990 -0.4990 -0.7526
 3569TIP3    H132342   3.721   5.424   2.594 -2.5124 -1.7358 -1.9899
 3569TIP3    H232343   3.759   5.317   2.695  1.2699  0.8299 -0.4426
 3570TIP3   OH232344   0.168   2.117   0.283  0.2583 -0.5460  0.1440
 3570TIP3    H132345   0.245   2.093   0.334 -0.4814 -1.8363  0.7112
 3570TIP3    H232346   0.203   2.144   0.198  1.3479 -0.8759  0.4741
 3571TIP3   OH232347   4.775   0.082   2.714  0.5262  0.1323 -0.3028
 3571TIP3    H132348   4.762   0.026   2.791  2.3997 -1.9124 -1.3354
 3571TIP3    H232349   4.868   0.071   2.693  0.4900  2.1362 -1.7641
 3572TIP3   OH232350   1.750   2.283   6.569 -0.2079  0.2712 -0.5748
 3572TIP3    H132351   1.746   2.250   6.659 -0.4275 -0.0914 -0.7149
 3572TIP3    H232352   1.794   2.367   6.577  2.7217 -1.1648 -0.5234
 3573TIP3   OH232353   4.732   4.727   8.076 -0.8346  0.1325  0.1590
 3573TIP3    H132354   4.787   4.800   8.048 -0.6135  0.3362  1.1044
 3573TIP3    H232355   4.794   4.654   8.089 -0.9055  0.1020  0.3309
 3574TIP3   OH232356   4.949   5.146   8.211  0.5315 -0.4315  0.7679
 3574TIP3    H132357   4.995   5.181   8.288  0.3709 -1.3487  1.2947
 3574TIP3    H232358   4.973   5.053   8.209 -0.2767 -0.6374  0.3013
 3575TIP3   OH232359   0.698   1.424   1.740  0.1130 -0.7717  0.1946
 3575TIP3    H132360   0.613   1.465   1.756  1.1580  2.7997 -2.0454
 3575TIP3    H232361   0.753   1.454   1.812  0.8897  2.2264 -1.4662
 3576TIP3   OH232362   4.150   2.202   1.803  0.3329 -0.4286 -0.1551
 3576TIP3    H132363   4.196   2.206   1.887 -1.4685  1.8391  0.8327
 3576TIP3    H232364   4.071   2.150   1.821  0.0152 -0.0637 -0.4714
 3577TIP3   OH232365   3.404   0.824   7.883 -0.3197 -0.2275 -0.3200
 3577TIP3    H132366   3.490   0.828   7.924 -0.1618 -0.7531 -0.5904
 3577TIP3    H232367   3.410   0.885   7.809 -0.2012 -0.2108 -0.2967
 3578TIP3   OH232368   0.010   3.805   2.472 -0.5772 -0.3055  0.8339
 3578TIP3    H132369   0.012   3.794   2.377 -0.4422  1.9712  0.5053
 3578TIP3    H232370  -0.083   3.810   2.494 -0.5955  0.2340  0.6503
 3579TIP3   OH232371   3.169   2.929   2.758 -0.5497 -0.1702  0.2208
 3579TIP3    H132372   3.242   2.991   2.768  0.5353 -1.1621 -1.0591
 3579TIP3    H232373   3.122   2.959   2.681  0.3922 -1.2773 -0.8235
 3580TIP3   OH232374   2.429   2.957   7.625 -0.4705 -0.1900  0.0901
 3580TIP3    H132375   2.521   2.973   7.646 -0.7944 -0.4540  1.8562
 3580TIP3    H232376   2.428   2.938   7.531  1.3057 -0.4835  0.1145
 3581TIP3   OH232377   5.645   4.336   6.894  0.2102  0.1333 -0.6178
 3581TIP3    H132378   5.667   4.423   6.862  0.5865  0.4286  0.4140
 3581TIP3    H232379   5.635   4.283   6.814  0.7261  0.9336 -1.2262
 3582TIP3   OH232380   1.479   1.044   8.130 -0.4409 -0.1021  0.5265
 3582TIP3    H132381   1.503   0.972   8.188 -0.0141 -0.6264 -0.2801
 3582TIP3    H232382   1.504   1.014   8.043  2.0261  1.9549  0.4003
 3583TIP3   OH232383   2.207   1.930   2.096 -0.0471  0.4615  0.1691
 3583TIP3    H132384   2.137   1.994   2.086 -1.5287 -1.3233 -1.7165
 3583TIP3    H232385   2.164   1.851   2.129  0.9773 -0.7271 -1.1539
 3584TIP3   OH232386   5.637   2.991   8.103 -0.4011  0.0384  0.3981
 3584TIP3    H132387   5.546   2.962   8.101 -0.6206  0.7390  0.0698
 3584TIP3    H232388   5.683   2.930   8.045 -0.6669 -0.2603  0.4959
 3585TIP3   OH232389   3.049   5.596   7.280 -0.1491  0.8961 -0.5431
 3585TIP3    H132390   3.062   5.662   7.212  0.5622  0.7292 -0.5814
 3585TIP3    H232391   2.985   5.535   7.242 -2.4195  2.6225  0.2938
 3586TIP3   OH232392   4.934   3.391   7.940  0.2777 -0.5334 -0.0179
 3586TIP3    H132393   4.927   3.463   8.003 -0.7314 -0.8247  0.2180
 3586TIP3    H232394   5.026   3.393   7.912  0.8016 -0.4843  1.5704
 3587TIP3   OH232395   4.257   5.630   1.193  0.0490 -0.1698  0.2132
 3587TIP3    H132396   4.313   5.706   1.179 -2.3941  1.6845 -0.2429
 3587TIP3    H232397   4.261   5.613   1.287  0.5486  0.5704  0.3274
 3588TIP3   OH232398   3.644   5.370   1.526  0.9323  0.0030  0.3964
 3588TIP3    H132399   3.573   5.424   1.493 -0.1178  0.0222  2.5522
 3588TIP3    H232400   3.626   5.283   1.491  1.3953  0.5312 -1.2599
 3589TIP3   OH232401   5.740   6.379   7.198  0.7552 -0.0286 -0.1278
 3589TIP3    H132402   5.717   6.388   7.290  1.3867 -0.3793  0.0728
 3589TIP3    H232403   5.806   6.446   7.183 -1.0121  1.6373 -0.9483
 3590TIP3   OH232404   1.221   4.245   1.086 -0.3099 -0.2361  0.5191
 3590TIP3    H132405   1.137   4.210   1.054 -0.0247 -0.6480  0.2118
 3590TIP3    H232406   1.246   4.310   1.020  0.4280 -1.3022 -0.2775
 3591TIP3   OH232407   5.837   6.284   1.765  0.3985  0.0204 -0.2659
 3591TIP3    H132408   5.908   6.280   1.701  0.8341 -0.6399  0.2425
 3591TIP3    H232409   5.855   6.212   1.825 -0.0204  0.6103  0.5876
 3592TIP3   OH232410   4.399   6.357   1.692 -0.0761  0.1665  0.4352
 3592TIP3    H132411   4.411   6.284   1.632  1.0141  0.2827  0.4925
 3592TIP3    H232412   4.415   6.320   1.779 -0.0579  0.3521  0.5123
 3593TIP3   OH232413   6.214   1.915   8.222 -0.7112 -0.0873  0.7890
 3593TIP3    H132414   6.139   1.954   8.176 -0.9687  1.1124  2.1482
 3593TIP3    H232415   6.242   1.843   8.165 -1.6769  0.6466 -0.6969
 3594TIP3   OH232416   2.676   2.963   1.717  0.0856  0.2175 -0.0902
 3594TIP3    H132417   2.753   3.000   1.759 -0.0375 -0.1017  0.4287
 3594TIP3    H232418   2.603   3.017   1.746 -0.1517 -0.6328  0.9896
 3595TIP3   OH232419   0.832   1.861   1.116  0.5555 -0.2530  0.5328
 3595TIP3    H132420   0.921   1.887   1.138  0.2283  0.9491  0.5192
 3595TIP3    H232421   0.777   1.923   1.163 -0.2653 -0.6571  0.1252
 3596TIP3   OH232422   5.422   0.473   1.233  0.7588 -0.5483  0.3835
 3596TIP3    H132423   5.363   0.398   1.227  2.1819 -1.6724 -0.0900
 3596TIP3    H232424   5.438   0.484   1.326  1.1234 -1.3199  0.4175
 3597TIP3   OH232425   6.547   4.512   0.913 -0.0739 -0.2010 -0.1861
 3597TIP3    H132426   6.641   4.511   0.932  0.0270  0.9993 -0.5751
 3597TIP3    H232427   6.538   4.568   0.836 -1.1186 -0.2688 -0.1299
 3598TIP3   OH232428   4.316   6.834   7.870  0.1669  0.5344  0.3496
 3598TIP3    H132429   4.227   6.813   7.896 -0.5032  0.3106 -1.8582
 3598TIP3    H232430   4.337   6.769   7.803  1.6975  1.0639  0.2770
 3599TIP3   OH232431   2.050   0.706   2.596  0.5072 -0.0387  0.3479
 3599TIP3    H132432   2.043   0.752   2.680 -0.4872 -0.0135  0.2537
 3599TIP3    H232433   2.103   0.629   2.615 -0.8491 -0.7658  1.3131
 3600TIP3   OH232434   6.900   6.013   8.191 -0.3027 -0.1387  0.4848
 3600TIP3    H132435   6.819   6.063   8.201 -1.0302 -0.8317 -1.4675
 3600TIP3    H232436   6.874   5.921   8.204  0.0698 -0.3980 -0.4816
 3601TIP3   OH232437   5.368   6.750   1.425 -0.6756 -0.1258 -0.2351
 3601TIP3    H132438   5.291   6.726   1.375 -0.5029 -0.2580 -0.4407
 3601TIP3    H232439   5.429   6.676   1.413 -0.0866  0.4634 -0.9859
 3602TIP3   OH232440   2.897   1.205   0.442  0.6939  0.3867  0.2274
 3602TIP3    H132441   2.975   1.196   0.497  0.6256 -0.9915  0.1270
 3602TIP3    H232442   2.907   1.137   0.375 -0.4502  0.3735  0.0497
 3603TIP3   OH232443   1.531   1.079   8.479 -0.0232 -0.2224  0.4885
 3603TIP3    H132444   1.466   1.107   8.543  0.9321  1.4274  0.7903
 3603TIP3    H232445   1.574   1.004   8.520 -0.2617  0.0377  1.2322
 3604TIP3   OH232446   5.402   0.218   0.998  0.7910 -0.2522  0.2156
 3604TIP3    H132447   5.439   0.152   1.057  0.7410 -0.3173  0.1743
 3604TIP3    H232448   5.468   0.287   0.994  0.7737 -0.2245  0.3868
 3605TIP3   OH232449   1.383   2.074   0.308 -0.3057 -0.4015 -0.3445
 3605TIP3    H132450   1.333   2.020   0.370  0.2666 -0.0633  0.4354
 3605TIP3    H232451   1.450   2.116   0.362 -1.3556  1.9125 -0.7045
 3606TIP3   OH232452   6.586   6.560   2.567 -0.6027 -0.3308  0.6321
 3606TIP3    H132453   6.519   6.598   2.511 -1.4257 -1.7604  0.6081
 3606TIP3    H232454   6.656   6.625   2.568 -0.8439  0.0347 -1.5157
 3607TIP3   OH232455   0.453   4.175   6.720 -0.1518  0.1938  0.1061
 3607TIP3    H132456   0.460   4.270   6.732  1.2586  0.4560 -2.1344
 3607TIP3    H232457   0.397   4.165   6.643  1.2279 -0.6905 -0.8134
 3608TIP3   OH232458   0.935   6.584   0.253  0.1326  0.0214 -0.0343
 3608TIP3    H132459   0.908   6.550   0.339 -0.7186 -0.2423 -0.4020
 3608TIP3    H232460   0.917   6.678   0.258 -0.8656 -0.1528 -0.2780
 3609TIP3   OH232461   3.315   4.840   8.457 -0.0746 -0.0039 -0.3437
 3609TIP3    H132462   3.327   4.748   8.481  1.3501 -0.3613 -2.2076
 3609TIP3    H232463   3.246   4.871   8.516  1.7151 -1.3114  2.6593
 3610TIP3   OH232464   0.866   6.724   7.847 -0.4566  0.0583 -0.1522
 3610TIP3    H132465   0.819   6.650   7.808 -0.5372 -0.0935  0.2310
 3610TIP3    H232466   0.901   6.772   7.772  1.5410 -1.6234 -0.3827
 3611TIP3   OH232467   2.552   3.772   1.056  0.1553  0.4518  0.0196
 3611TIP3    H132468   2.516   3.853   1.093 -1.1607  0.3406 -0.9430
 3611TIP3    H232469   2.493   3.703   1.088  0.1032  0.1340 -0.7408
 3612TIP3   OH232470   5.243   6.704   0.427 -0.0419 -0.4650  0.0551
 3612TIP3    H132471   5.158   6.673   0.396 -0.5215  0.3987  0.4925
 3612TIP3    H232472   5.263   6.646   0.501 -0.5529 -0.2674  0.3565
 3613TIP3   OH232473   3.557   0.672   0.535  0.3040 -0.5274 -0.0759
 3613TIP3    H132474   3.546   0.722   0.616  2.4529  0.7174 -0.4692
 3613TIP3    H232475   3.573   0.738   0.468  0.5900 -1.6336 -1.1355
 3614TIP3   OH232476   6.804   3.177   6.755  0.1881  0.1094 -0.5304
 3614TIP3    H132477   6.854   3.133   6.687  0.0650 -0.3527 -0.3238
 3614TIP3    H232478   6.820   3.271   6.740  2.5907 -0.0346  0.6081
 3615TIP3   OH232479   6.724   0.101   0.483  0.1670 -0.0739  0.6404
 3615TIP3    H132480   6.801   0.100   0.541  1.6760  1.5059 -1.2150
 3615TIP3    H232481   6.732   0.021   0.431  1.4012  0.7678 -0.5195
 3616TIP3   OH232482   6.925   0.690   0.955 -0.6749  0.3749 -0.1597
 3616TIP3    H132483   6.882   0.760   0.906  0.9687  0.9811 -0.8282
 3616TIP3    H232484   7.019   0.709   0.946 -0.2552 -0.6398  1.5669
 3617TIP3   OH232485   3.017   0.716   0.897 -0.5813 -0.1078 -0.6335
 3617TIP3    H132486   3.094   0.764   0.868 -2.1894  2.9339 -0.2063
 3617TIP3    H232487   2.991   0.757   0.979 -2.2127 -1.5921 -0.3324
 3618TIP3   OH232488   1.996   3.020   0.517  0.1103 -0.0269  0.2304
 3618TIP3    H132489   1.908   3.057   0.525 -0.2918 -0.2765 -2.2531
 3618TIP3    H232490   2.017   2.988   0.605 -1.6480  1.3581  1.2319
 3619TIP3   OH232491   2.521   3.344   2.089 -0.0294  0.0319 -0.6593
 3619TIP3    H132492   2.498   3.413   2.151 -0.7460  0.7796 -1.7277
 3619TIP3    H232493   2.604   3.310   2.121 -0.2399  0.5948  0.5408
 3620TIP3   OH232494   5.607   4.107   6.337  0.1002 -0.0049 -0.2366
 3620TIP3    H132495   5.698   4.106   6.365 -0.0059  0.9049  0.1540
 3620TIP3    H232496   5.559   4.071   6.412  0.0876 -0.0959 -0.2870
 3621TIP3   OH232497   3.270   6.487   1.184  0.0450  0.2399 -0.9783
 3621TIP3    H132498   3.251   6.577   1.158  0.2649  0.6939  0.3240
 3621TIP3    H232499   3.195   6.462   1.238  0.1772 -0.2042 -1.0007
 3622TIP3   OH232500   1.919   5.013   1.364 -0.5250  0.2081  0.3204
 3622TIP3    H132501   1.854   5.084   1.367  0.5746  1.2371  1.9522
 3622TIP3    H232502   2.003   5.058   1.355  0.0775 -1.0023 -0.2663
 3623TIP3   OH232503   0.244   6.670   0.536  0.1913 -0.0338  0.4585
 3623TIP3    H132504   0.294   6.589   0.524 -3.2525 -2.5226  1.4066
 3623TIP3    H232505   0.249   6.689   0.629  1.0223  0.9432  0.2349
 3624TIP3   OH232506   4.990   3.263   0.922  0.0297 -0.0288 -0.0106
 3624TIP3    H132507   5.063   3.304   0.969 -1.1623 -1.6159  3.6421
 3624TIP3    H232508   4.916   3.323   0.936  0.1356  0.6876 -2.1505
 3625TIP3   OH232509   6.768   5.411   0.676  0.0144  0.0171 -0.1945
 3625TIP3    H132510   6.839   5.409   0.740  0.0919 -1.4243 -0.3071
 3625TIP3    H232511   6.702   5.469   0.715 -0.2362 -1.3631  1.5194
 3626TIP3   OH232512   5.823   0.984   1.655  0.0018  0.0209 -0.8773
 3626TIP3    H132513   5.883   1.018   1.588 -0.2966  1.6466 -0.3609
 3626TIP3    H232514   5.878   0.933   1.714  0.7023  0.6603 -0.9736
 3627TIP3   OH232515   0.287   1.815   8.341  0.8431 -0.3430  0.7406
 3627TIP3    H132516   0.226   1.757   8.388 -0.1480 -1.2959 -1.5851
 3627TIP3    H232517   0.359   1.757   8.317  0.1092 -0.5356 -1.1132
 3628TIP3   OH232518   2.537   5.007   0.931  0.3483 -0.5212  0.2720
 3628TIP3    H132519   2.492   4.928   0.961  0.7754 -1.0453 -0.4260
 3628TIP3    H232520   2.547   4.994   0.837 -2.6234  1.8833 -0.5495
 3629TIP3   OH232521   0.818   1.592   1.068 -0.2312 -0.3141  0.0148
 3629TIP3    H132522   0.833   1.681   1.099  0.4644 -0.3183 -0.2871
 3629TIP3    H232523   0.879   1.582   0.995 -0.3889 -0.9988 -0.0285
 3630TIP3   OH232524   6.374   5.258   1.397 -0.3564  0.4125  0.5825
 3630TIP3    H132525   6.466   5.282   1.392  0.0795 -1.2888 -0.1058
 3630TIP3    H232526   6.354   5.260   1.491  0.3462  0.8694  0.7264
 3631TIP3   OH232527   4.253   2.887   7.717 -0.3242  0.3722 -0.5957
 3631TIP3    H132528   4.329   2.944   7.729  0.4781 -0.9222  0.7326
 3631TIP3    H232529   4.279   2.825   7.650  0.2525 -0.7621  0.6342
 3632TIP3   OH232530   3.747   0.649   1.825  0.2707  0.3301  0.2135
 3632TIP3    H132531   3.825   0.599   1.848 -0.1774 -0.2619  0.4771
 3632TIP3    H232532   3.780   0.724   1.776  0.9260 -0.4312 -0.5437
 3633TIP3   OH232533   1.792   0.082   8.052 -0.9041 -0.0377 -0.0827
 3633TIP3    H132534   1.784   0.004   8.108 -1.2070  0.6693  0.8889
 3633TIP3    H232535   1.822   0.151   8.111  0.5887  0.3066 -1.1818
 3634TIP3   OH232536   1.053   5.041   2.802 -0.1918  0.5346  0.0464
 3634TIP3    H132537   1.133   4.991   2.784 -1.3675 -2.1732  1.7397
 3634TIP3    H232538   1.024   5.072   2.716  1.6890  0.0127 -0.8232
 3635TIP3   OH232539   0.550   6.813   0.039 -0.2266  0.4608 -0.5637
 3635TIP3    H132540   0.567   6.738   0.095 -2.9623  1.2754  1.6144
 3635TIP3    H232541   0.605   6.799  -0.038  2.1285 -1.8259  1.3431
 3636TIP3   OH232542   5.201   6.526   1.899  0.0332  0.3005 -0.3095
 3636TIP3    H132543   5.175   6.436   1.918 -0.4972  0.7293  1.1436
 3636TIP3    H232544   5.126   6.563   1.852  0.6068 -0.2316 -1.7202
 3637TIP3   OH232545   0.563   2.931   7.335 -0.0881  0.2666 -0.4061
 3637TIP3    H132546   0.576   2.863   7.269 -1.1958 -0.4513  0.0949
 3637TIP3    H232547   0.601   2.895   7.415 -0.7292  0.2092 -0.1249
 3638TIP3   OH232548   0.664   4.482   7.691 -0.0851  0.0204  0.4853
 3638TIP3    H132549   0.740   4.426   7.673 -0.6559 -0.5633 -0.1865
 3638TIP3    H232550   0.680   4.516   7.779  1.4537  0.7248 -0.0177
 3639TIP3   OH232551   3.457   1.310   7.827  0.6988  0.6343  0.3140
 3639TIP3    H132552   3.548   1.285   7.810 -0.1615 -1.2012 -2.3309
 3639TIP3    H232553   3.461   1.402   7.850  3.1386  0.9112 -0.9079
 3640TIP3   OH232554   5.394   0.934   7.358 -0.2864  0.6824 -0.5265
 3640TIP3    H132555   5.352   0.948   7.273 -0.3054  0.9168 -0.4787
 3640TIP3    H232556   5.353   0.998   7.416 -0.3959  0.4086 -0.2988
 3641TIP3   OH232557   5.451   0.777   1.845  0.0486 -0.4873 -0.2945
 3641TIP3    H132558   5.396   0.717   1.895 -0.6164  1.0775  0.9590
 3641TIP3    H232559   5.390   0.835   1.801  0.6091  1.2502  1.0818
 3642TIP3   OH232560   6.181   2.126   7.969  0.1163 -0.7626 -0.6776
 3642TIP3    H132561   6.097   2.081   7.963  0.9261 -2.5126  0.2030
 3642TIP3    H232562   6.209   2.135   7.878 -0.4489 -1.3363 -0.9212
 3643TIP3   OH232563   5.837   0.032   7.578 -0.1581 -0.5037 -0.6295
 3643TIP3    H132564   5.927   0.062   7.562 -0.2063 -0.2291 -0.3786
 3643TIP3    H232565   5.782   0.109   7.562 -0.0849  0.4009  2.6821
 3644TIP3   OH232566   3.088   3.495   7.960  0.4229  0.1560  0.3202
 3644TIP3    H132567   3.050   3.458   7.880  0.7923 -0.1832  0.3009
 3644TIP3    H232568   3.175   3.456   7.966  0.4740  0.3337  0.7829
 3645TIP3   OH232569   2.369   4.535   6.351 -0.0461  0.2585 -0.2250
 3645TIP3    H132570   2.298   4.477   6.326  2.9482 -2.8765 -2.4816
 3645TIP3    H232571   2.353   4.616   6.303 -2.2129 -0.1853 -0.3333
 3646TIP3   OH232572   3.822   2.207   2.392 -0.0906 -0.0637 -0.0401
 3646TIP3    H132573   3.751   2.165   2.344 -1.0935  0.1476  1.2084
 3646TIP3    H232574   3.896   2.207   2.331 -0.8434 -1.2455 -0.9846
 3647TIP3   OH232575   6.227   1.700   0.343  0.3052 -0.1243 -0.1411
 3647TIP3    H132576   6.289   1.664   0.280  0.0491  0.0734 -0.5120
 3647TIP3    H232577   6.281   1.751   0.403  0.5117  0.0328 -0.4511
 3648TIP3   OH232578   2.484   4.685   7.928  0.8016 -0.1064 -0.2578
 3648TIP3    H132579   2.392   4.709   7.912  0.4536 -0.9228  0.4370
 3648TIP3    H232580   2.519   4.668   7.840  0.3734  0.4792 -0.5560
 3649TIP3   OH232581   3.651   5.969   7.244 -0.6978 -0.3329  0.1105
 3649TIP3    H132582   3.700   5.911   7.186  3.1304  0.9261  1.7379
 3649TIP3    H232583   3.659   6.056   7.204 -0.1322  0.1436  1.1916
 3650TIP3   OH232584   1.949   3.277   8.432  0.4184 -0.0652  0.0651
 3650TIP3    H132585   1.880   3.311   8.490  1.2704  0.2269  0.9294
 3650TIP3    H232586   1.956   3.343   8.363 -0.6539 -0.4515 -0.4415
 3651TIP3   OH232587   2.341   3.761   7.697 -0.1871 -0.5535  0.0005
 3651TIP3    H132588   2.304   3.841   7.662  0.4966 -0.9253 -1.6782
 3651TIP3    H232589   2.419   3.745   7.643  2.4848  0.1839  3.3010
 3652TIP3   OH232590   6.100   1.948   0.317  0.3935 -0.0199 -0.7193
 3652TIP3    H132591   6.121   1.982   0.404 -0.5687 -0.5597 -0.2502
 3652TIP3    H232592   6.153   1.868   0.309  0.2274 -0.1540 -0.4856
 3653TIP3   OH232593   1.718   3.007   1.866  0.6666 -0.4566  0.3223
 3653TIP3    H132594   1.678   3.077   1.815 -0.4371 -1.6676 -0.5410
 3653TIP3    H232595   1.644   2.959   1.904  1.3334 -1.8544 -0.0809
 3654TIP3   OH232596   4.947   6.777   8.286  0.0761 -0.0199 -0.0541
 3654TIP3    H132597   4.907   6.827   8.215 -0.3665 -0.5702 -0.2072
 3654TIP3    H232598   4.921   6.686   8.269  1.1722 -0.3611  0.0020
 3655TIP3   OH232599   0.499   4.595   1.138 -0.2614  0.2940 -0.4293
 3655TIP3    H132600   0.437   4.572   1.207 -0.3988  0.2445 -0.5682
 3655TIP3    H232601   0.500   4.519   1.079 -1.2590  0.9039 -1.2737
 3656TIP3   OH232602   1.801   6.924   2.328  0.1857 -0.0564 -0.5151
 3656TIP3    H132603   1.833   6.981   2.257  0.1257  0.4035 -0.1824
 3656TIP3    H232604   1.869   6.858   2.338  1.1152  0.9599  0.2385
 3657TIP3   OH232605   1.790   2.519   0.874 -0.5165 -0.4306 -0.0759
 3657TIP3    H132606   1.753   2.542   0.789  0.0808  1.9475  0.2260
 3657TIP3    H232607   1.844   2.442   0.858 -1.0805 -0.5202 -1.6658
 3658TIP3   OH232608   2.336   2.732   0.068 -0.2570  0.2817 -0.6986
 3658TIP3    H132609   2.259   2.786   0.088  1.0968  1.7527  0.9131
 3658TIP3    H232610   2.368   2.766  -0.016 -0.7418  0.3905 -0.8440
 3659TIP3   OH232611   5.082   3.516   0.121  0.4781  0.5296  0.1852
 3659TIP3    H132612   5.038   3.539   0.203 -0.4968  0.7915 -0.4024
 3659TIP3    H232613   5.128   3.596   0.096  0.5851  0.5214  0.3532
 3660TIP3   OH232614   0.652   1.251   7.476  0.7118 -0.4669  0.1798
 3660TIP3    H132615   0.704   1.307   7.533 -0.0542 -0.2359  0.6636
 3660TIP3    H232616   0.585   1.213   7.533 -0.1697 -0.1073 -0.5770
 3661TIP3   OH232617   4.390   3.220   0.736 -0.2581 -0.3136  0.1789
 3661TIP3    H132618   4.340   3.173   0.669  0.3984 -0.6387 -0.0930
 3661TIP3    H232619   4.403   3.157   0.806 -0.3388 -0.1873  0.3097
 3662TIP3   OH232620   1.249   1.716   8.394  0.2459  0.1667  0.3830
 3662TIP3    H132621   1.185   1.692   8.327 -0.5095  3.0264 -0.0355
 3662TIP3    H232622   1.320   1.758   8.346  0.0420  1.5736  1.2333
 3663TIP3   OH232623   6.120   3.991   7.943 -0.5823 -0.2353  0.1151
 3663TIP3    H132624   6.056   4.061   7.955 -0.6273 -0.4579  1.2723
 3663TIP3    H232625   6.125   3.979   7.848 -1.5066  0.4679 -0.0361
 3664TIP3   OH232626   0.766   0.311   8.175 -0.2622 -0.2243 -0.0765
 3664TIP3    H132627   0.769   0.281   8.084 -1.9991  0.7097 -0.4885
 3664TIP3    H232628   0.720   0.241   8.222  2.0143 -1.4422  0.4537
 3665TIP3   OH232629   5.551   4.664   5.857  0.3166  0.3453 -0.2018
 3665TIP3    H132630   5.561   4.668   5.762 -1.5224  0.7426 -0.4170
 3665TIP3    H232631   5.469   4.711   5.875  1.3365  1.5235  1.7247
 3666TIP3   OH232632   5.454   3.327   1.837 -0.3734  0.9752 -0.4429
 3666TIP3    H132633   5.388   3.316   1.905 -0.7102  0.8792 -0.7827
 3666TIP3    H232634   5.523   3.380   1.878 -0.0022 -0.1025  0.3536
 3667TIP3   OH232635   4.602   1.531   1.868 -0.5114 -0.1186 -0.2709
 3667TIP3    H132636   4.642   1.582   1.938 -2.3015  1.0282 -0.0169
 3667TIP3    H232637   4.668   1.466   1.845  1.1711  1.2061  0.5989
 3668TIP3   OH232638   2.325   6.347   0.185 -0.2178  0.6102  0.2869
 3668TIP3    H132639   2.381   6.288   0.236 -1.0542  0.5886  1.2025
 3668TIP3    H232640   2.303   6.296   0.106  1.6656  0.9084 -0.5030
 3669TIP3   OH232641   3.977   5.509   7.848  0.4047 -0.0782 -0.1285
 3669TIP3    H132642   3.973   5.516   7.944  1.1804  0.5027 -0.1269
 3669TIP3    H232643   4.061   5.467   7.830 -1.3024 -3.6648 -0.4465
 3670TIP3   OH232644   0.894   4.155   7.760 -0.1787  0.1071 -0.0995
 3670TIP3    H132645   0.955   4.178   7.830 -0.9985  0.5833  0.4701
 3670TIP3    H232646   0.896   4.230   7.700 -2.5086  1.6137  1.5245
 3671TIP3   OH232647   5.618   4.845   6.960  0.5155 -0.0018  0.1860
 3671TIP3    H132648   5.670   4.866   7.037  1.8172  0.0672 -0.6789
 3671TIP3    H232649   5.622   4.924   6.906 -0.1624 -0.1357 -0.0703
 3672TIP3   OH232650   4.907   4.934   0.018  0.0081 -0.4341  0.5862
 3672TIP3    H132651   4.856   4.852   0.017  2.2148 -1.8889 -0.6348
 3672TIP3    H232652   4.990   4.911  -0.024  0.9055  2.3478  0.6534
 3673TIP3   OH232653   1.481   6.530   2.466 -0.0654  0.8536 -0.5942
 3673TIP3    H132654   1.477   6.604   2.526  1.6241  0.0637  0.5630
 3673TIP3    H232655   1.451   6.456   2.517 -0.0173  0.4301 -1.1731
 3674TIP3   OH232656   2.670   5.891   0.399 -0.2237 -0.2622  0.0690
 3674TIP3    H132657   2.667   5.922   0.490 -0.4958 -1.1392  0.3678
 3674TIP3    H232658   2.646   5.799   0.405 -0.0956 -0.3597 -0.8835
 3675TIP3   OH232659   1.687   3.377   7.648  0.2730 -0.3644  0.9153
 3675TIP3    H132660   1.679   3.282   7.639 -0.7111 -0.2585  0.5762
 3675TIP3    H232661   1.762   3.389   7.706  1.1234 -1.3121  0.0491
 3676TIP3   OH232662   1.898   6.366   2.087 -0.3517  0.4347 -0.1112
 3676TIP3    H132663   1.906   6.279   2.125 -2.1743 -1.2258 -3.1654
 3676TIP3    H232664   1.988   6.393   2.070  0.2217 -1.4008 -0.1958
 3677TIP3   OH232665   0.507   5.337   6.396 -0.3182 -0.3874  0.4285
 3677TIP3    H132666   0.441   5.391   6.439  0.3889  0.9453 -0.0990
 3677TIP3    H232667   0.500   5.360   6.303 -0.0402 -1.2545  0.1813
 3678TIP3   OH232668   4.896   3.889   2.213 -0.0856 -0.0621  0.4756
 3678TIP3    H132669   4.866   3.978   2.195  1.8074  0.4568 -0.3534
 3678TIP3    H232670   4.951   3.897   2.291 -0.2986 -0.6088  0.6912
 3679TIP3   OH232671   2.941   1.959   2.072 -0.3839  0.4861 -0.1313
 3679TIP3    H132672   3.021   1.952   2.019 -0.1689  0.9088  0.1335
 3679TIP3    H232673   2.917   2.051   2.068 -0.1997  0.5847  0.7436
 3680TIP3   OH232674   2.518   4.709   1.459 -0.6279  0.4545  0.2901
 3680TIP3    H132675   2.563   4.704   1.543 -0.3907 -3.1550  0.0716
 3680TIP3    H232676   2.588   4.717   1.394 -0.6497  0.5449  0.2775
 3681TIP3   OH232677   2.011   6.650   0.660  0.0207 -0.5580  0.4739
 3681TIP3    H132678   1.953   6.596   0.607  1.1803 -1.2478 -0.1499
 3681TIP3    H232679   2.092   6.656   0.608  0.2745  0.9700  0.9693
 3682TIP3   OH232680   2.939   0.579   1.960  0.2264  0.3003  0.3720
 3682TIP3    H132681   2.979   0.604   2.044  0.5300  0.8762  0.0630
 3682TIP3    H232682   2.862   0.636   1.952  0.7726  0.9871 -0.2097
 3683TIP3   OH232683   6.660   5.290   7.915 -0.3699  0.0856 -0.0974
 3683TIP3    H132684   6.687   5.253   7.999 -1.6639 -0.5018  0.0884
 3683TIP3    H232685   6.712   5.369   7.906 -1.3868  1.0972  2.0712
 3684TIP3   OH232686   0.456   5.921   0.178 -0.2117  0.8595  0.3228
 3684TIP3    H132687   0.369   5.948   0.207 -0.7562  1.3990 -1.6700
 3684TIP3    H232688   0.459   5.943   0.085  0.3706 -3.2973 -0.8644
 3685TIP3   OH232689   1.211   0.369   1.827  0.6874  0.0219  0.0611
 3685TIP3    H132690   1.177   0.335   1.745  2.4081  0.6994 -0.9953
 3685TIP3    H232691   1.301   0.337   1.831 -0.0222 -1.9699  2.8836
 3686TIP3   OH232692   1.300   5.508   1.112  0.4668  0.3035  0.3057
 3686TIP3    H132693   1.288   5.496   1.206  0.9105  1.3022  0.5017
 3686TIP3    H232694   1.223   5.558   1.084 -0.0469 -0.6371 -0.0174
 3687TIP3   OH232695   5.408   3.981   0.081 -0.2566  0.5583  0.2485
 3687TIP3    H132696   5.331   4.016   0.126 -0.7552 -0.8896  0.5908
 3687TIP3    H232697   5.481   4.004   0.138 -0.5236  1.2994  0.2990
 3688TIP3   OH232698   2.920   1.211   8.371 -0.3459  0.1133 -0.1465
 3688TIP3    H132699   2.893   1.141   8.312 -0.3017 -0.4046  0.4389
 3688TIP3    H232700   2.977   1.168   8.434 -0.0157  0.7541 -0.0032
 3689TIP3   OH232701   2.431   3.733   7.433 -0.3192 -0.0191 -0.2476
 3689TIP3    H132702   2.469   3.694   7.354 -2.8259  0.7542 -1.9990
 3689TIP3    H232703   2.476   3.817   7.443  1.6526 -1.1236  0.6144
 3690TIP3   OH232704   0.371   0.405   2.123 -0.1410  0.2471 -0.6099
 3690TIP3    H132705   0.408   0.421   2.210  0.5482 -1.3334 -0.5893
 3690TIP3    H232706   0.351   0.493   2.090  1.5920  1.0229  0.2667
 3691TIP3   OH232707   6.118   4.381   8.469 -0.3743  0.0077 -0.2789
 3691TIP3    H132708   6.104   4.401   8.376  1.9739 -0.0356 -0.7028
 3691TIP3    H232709   6.034   4.402   8.511 -1.0415  1.4235 -2.1768
 3692TIP3   OH232710   3.863   6.451   2.519  0.1767 -1.3009  0.2327
 3692TIP3    H132711   3.824   6.398   2.589 -0.8562  0.7334  1.2790
 3692TIP3    H232712   3.860   6.541   2.552 -0.4283 -0.2340 -2.4682
 3693TIP3   OH232713   3.960   3.028   7.004  0.0203  0.5938 -0.3793
 3693TIP3    H132714   4.000   3.114   6.995 -0.7602  0.9145 -0.9142
 3693TIP3    H232715   4.030   2.966   6.983  0.0993  1.1631 -1.9104
 3694TIP3   OH232716   4.105   4.066   7.105  0.0095  0.4755  0.6116
 3694TIP3    H132717   4.049   3.990   7.124  0.5057  0.3486  1.6786
 3694TIP3    H232718   4.093   4.082   7.012 -1.3309  0.0758  0.6941
 3695TIP3   OH232719   3.561   0.106   0.353 -0.2201 -0.4976 -0.3754
 3695TIP3    H132720   3.554   0.189   0.306 -0.4133 -0.8828 -1.0400
 3695TIP3    H232721   3.556   0.130   0.446 -0.6979  0.1869 -0.5721
 3696TIP3   OH232722   0.078   5.605   0.523  0.7929 -0.5124  0.8036
 3696TIP3    H132723   0.132   5.596   0.444  1.1086  1.6823  0.7299
 3696TIP3    H232724   0.116   5.542   0.585 -0.5836 -3.6489 -1.2977
 3697TIP3   OH232725   0.244   4.333   0.424 -0.2736  0.1244 -0.3426
 3697TIP3    H132726   0.276   4.264   0.366 -0.0205  0.0711 -0.1383
 3697TIP3    H232727   0.285   4.413   0.391  0.9783 -0.0936  0.5923
 3698TIP3   OH232728   2.700   0.583   8.103 -0.1476 -0.3653  0.3470
 3698TIP3    H132729   2.645   0.636   8.046  2.0650  1.3113 -0.3835
 3698TIP3    H232730   2.673   0.493   8.086 -0.9808  0.2270 -1.8079
 3699TIP3   OH232731   3.062   4.841   7.765 -0.0411  0.1532 -0.2484
 3699TIP3    H132732   3.149   4.862   7.800  0.8629  0.4719 -2.5433
 3699TIP3    H232733   3.079   4.794   7.684 -2.0564 -0.7593 -0.2093
 3700TIP3   OH232734   0.286   4.088   0.260 -0.2870  0.4155  0.1455
 3700TIP3    H132735   0.238   4.050   0.186  0.5898 -0.3428 -0.0610
 3700TIP3    H232736   0.260   4.035   0.335 -1.6373  1.5613  0.5266
 3701TIP3   OH232737   6.545   4.353   0.099 -0.1089 -0.4712  0.4893
 3701TIP3    H132738   6.478   4.333   0.034 -0.1450  1.5903 -0.1623
 3701TIP3    H232739   6.616   4.291   0.080 -0.1479  0.0373 -1.4710
 3702TIP3   OH232740   5.025   3.280   7.571 -0.5527  0.6206  0.2849
 3702TIP3    H132741   5.069   3.289   7.486  0.2140 -1.3992  0.3909
 3702TIP3    H232742   5.094   3.296   7.635 -1.2440  2.6410  0.5912
 3703TIP3   OH232743   6.687   2.863   8.003  0.6487 -0.3647  0.1587
 3703TIP3    H132744   6.667   2.940   7.949 -0.6382  1.3945  2.9549
 3703TIP3    H232745   6.642   2.791   7.957 -0.6026  1.0736 -1.0105
 3704TIP3   OH232746   0.143   4.393   7.400 -0.2649 -0.3678  0.1400
 3704TIP3    H132747   0.157   4.382   7.306 -2.2694  0.1776 -0.2648
 3704TIP3    H232748   0.052   4.369   7.414 -0.2736  0.4750  1.7977
 3705TIP3   OH232749   4.622   0.090   1.603  0.6188 -0.1411 -0.1948
 3705TIP3    H132750   4.644   0.017   1.662 -0.9691  0.7404  1.5729
 3705TIP3    H232751   4.706   0.128   1.580  1.4383 -2.0376 -0.5423
 3706TIP3   OH232752   1.953   1.182   7.827 -0.5498  0.7116  0.0551
 3706TIP3    H132753   2.028   1.241   7.816 -1.8089  2.1373 -1.4344
 3706TIP3    H232754   1.907   1.186   7.743 -0.2268 -3.1929 -0.4814
 3707TIP3   OH232755   4.615   4.692   1.615 -0.5483 -0.1644  0.3955
 3707TIP3    H132756   4.684   4.692   1.549 -1.1454 -0.0687 -0.2346
 3707TIP3    H232757   4.587   4.783   1.621 -0.5691 -0.1895  0.7123
 3708TIP3   OH232758   6.388   0.632   1.953  0.8271  0.4134  0.2764
 3708TIP3    H132759   6.393   0.629   1.858  0.1166 -0.0347  0.2501
 3708TIP3    H232760   6.469   0.591   1.983  1.3157  1.0598 -0.1232
 3709TIP3   OH232761   3.913   2.814   0.321 -0.6409  0.1582  0.4829
 3709TIP3    H132762   3.988   2.874   0.322 -0.3917 -0.1250 -0.5450
 3709TIP3    H232763   3.920   2.767   0.238 -1.8451 -0.0222  0.4605
 3710TIP3   OH232764   5.086   2.830   8.080 -0.3063  0.2692 -0.5041
 3710TIP3    H132765   5.055   2.763   8.019 -0.7330 -0.2284  0.2397
 3710TIP3    H232766   5.018   2.898   8.078 -0.2631  0.3067 -0.6717
 3711TIP3   OH232767   4.336   6.441   2.192 -0.4907  0.5359 -0.1966
 3711TIP3    H132768   4.272   6.455   2.261  0.7874 -0.7659  1.3182
 3711TIP3    H232769   4.420   6.442   2.236  0.5917  1.9525 -2.1036
 3712TIP3   OH232770   5.903   3.412   7.450  0.4333 -0.6139 -0.0055
 3712TIP3    H132771   5.828   3.454   7.408  0.3373 -0.1514  0.6206
 3712TIP3    H232772   5.884   3.416   7.544  1.7858  0.6109  0.2603
 3713TIP3   OH232773   1.732   4.460   2.520  0.4187 -0.9248 -0.3266
 3713TIP3    H132774   1.700   4.512   2.446 -0.4301 -0.9718  0.0033
 3713TIP3    H232775   1.819   4.496   2.537 -0.0940  0.3108 -0.1862
 3714TIP3   OH232776   0.543   2.369   1.344  0.4480  0.5316  0.2502
 3714TIP3    H132777   0.596   2.399   1.418  0.3301  0.8287  0.2166
 3714TIP3    H232778   0.533   2.447   1.289 -0.2835  0.5660  0.4162
 3715TIP3   OH232779   2.760   1.971   2.389 -0.0183 -0.0056  0.2903
 3715TIP3    H132780   2.824   1.920   2.340  0.6902  0.7590  0.4072
 3715TIP3    H232781   2.785   1.959   2.481 -0.9593 -0.9204  0.4433
 3716TIP3   OH232782   2.067   3.665   0.240  0.3656 -0.6444 -0.1449
 3716TIP3    H132783   2.044   3.758   0.231 -0.2667 -0.9295 -1.9264
 3716TIP3    H232784   1.985   3.621   0.260  0.3477 -0.9903 -0.9198
 3717TIP3   OH232785   5.063   6.605   8.522  0.2218  0.6812  0.2997
 3717TIP3    H132786   4.987   6.625   8.467 -0.3701 -1.8761  0.0528
 3717TIP3    H232787   5.028   6.550   8.592  1.8975 -1.1466 -0.2093
 3718TIP3   OH232788   4.300   0.978   1.936  0.2073  0.4554 -0.4879
 3718TIP3    H132789   4.317   1.000   2.027 -0.1184 -3.5574  0.7045
 3718TIP3    H232790   4.222   0.923   1.938  2.2162 -2.8705 -2.5699
 3719TIP3   OH232791   0.925   3.746   1.822  0.2275 -0.3622  0.4349
 3719TIP3    H132792   0.951   3.814   1.759 -0.8838  0.2740  0.6395
 3719TIP3    H232793   0.830   3.739   1.813  0.2073 -1.2056  1.1139
 3720TIP3   OH232794   6.200   0.115   0.265 -0.5165  0.1724 -0.0136
 3720TIP3    H132795   6.181   0.066   0.185 -0.1282  1.1060 -0.6967
 3720TIP3    H232796   6.128   0.179   0.271 -0.6165  0.0192  0.4609
 3721TIP3   OH232797   6.905   2.333   8.550 -0.2722  0.3483  0.2551
 3721TIP3    H132798   6.916   2.302   8.640 -0.9616 -0.8499 -0.0394
 3721TIP3    H232799   6.918   2.427   8.554  1.1110  0.1361  1.3603
 3722TIP3   OH232800   4.336   5.410   1.947 -0.6120  0.1939 -0.8149
 3722TIP3    H132801   4.309   5.460   2.024 -1.7491 -0.3303 -0.8560
 3722TIP3    H232802   4.291   5.326   1.955  2.0121 -1.2746 -0.2378
 3723TIP3   OH232803   0.171   6.236   8.286  0.5618  0.2940 -0.0438
 3723TIP3    H132804   0.206   6.166   8.230  1.1940  1.5757 -1.3229
 3723TIP3    H232805   0.108   6.193   8.342  0.0984 -1.1233 -1.5762
 3724TIP3   OH232806   5.677   6.512   0.898  0.2990 -0.1335  0.6669
 3724TIP3    H132807   5.744   6.469   0.845  0.0016 -0.8018  0.8110
 3724TIP3    H232808   5.647   6.444   0.958 -1.3478 -0.2316 -0.1910
 3725TIP3   OH232809   4.698   2.822   1.377 -0.0766 -0.6869  0.3557
 3725TIP3    H132810   4.787   2.788   1.376 -0.6984 -2.4920  1.5071
 3725TIP3    H232811   4.672   2.824   1.285  0.5221 -1.9575  0.1455
 3726TIP3   OH232812   4.655   2.837   2.078  0.3727  0.1683 -0.2441
 3726TIP3    H132813   4.652   2.921   2.124 -1.0022  1.3861 -2.3975
 3726TIP3    H232814   4.658   2.772   2.148 -1.6214  1.8965  1.6151
 3727TIP3   OH232815   6.245   4.185   2.061 -0.2107 -0.1100 -0.2387
 3727TIP3    H132816   6.171   4.165   2.004 -0.3527 -0.4389  0.0534
 3727TIP3    H232817   6.211   4.175   2.150  0.1776 -0.2652 -0.1002
 3728TIP3   OH232818   5.610   6.687   8.277 -0.4990 -0.3554  0.4987
 3728TIP3    H132819   5.563   6.603   8.272  0.2859 -0.7922  0.3947
 3728TIP3    H232820   5.672   6.685   8.204 -1.8135  1.1739 -0.7213
 3729TIP3   OH232821   5.571   0.889   0.340 -0.2019  0.2871  0.1118
 3729TIP3    H132822   5.554   0.904   0.247 -0.1131  1.0994  0.2187
 3729TIP3    H232823   5.582   0.794   0.347  0.3920  0.2724 -0.8074
 3730TIP3   OH232824   5.194   4.638   0.150  0.3889 -0.3887 -0.5905
 3730TIP3    H132825   5.135   4.692   0.201 -0.8937 -2.7271  0.5826
 3730TIP3    H232826   5.277   4.640   0.199  0.1919  0.0662 -0.2678
 3731TIP3   OH232827   1.215   1.929   0.459  0.6457  0.1467  0.1560
 3731TIP3    H132828   1.126   1.918   0.493  0.0596  0.6102 -1.1746
 3731TIP3    H232829   1.267   1.864   0.507 -0.0912  0.8862  2.0430
 3732TIP3   OH232830   2.961   6.589   7.145  0.0957 -0.1954 -0.3211
 3732TIP3    H132831   3.042   6.625   7.110  0.1870 -1.0420 -1.0059
 3732TIP3    H232832   2.944   6.511   7.092 -1.3104  0.1201 -0.3882
 3733TIP3   OH232833   1.323   4.931   6.992 -0.1328 -0.6680  0.5154
 3733TIP3    H132834   1.282   5.010   7.027 -0.8392 -0.9014  0.2257
 3733TIP3    H232835   1.279   4.859   7.036 -1.5444 -0.9948 -1.3285
 3734TIP3   OH232836   6.664   3.437   7.923  0.2459  0.5565 -0.0231
 3734TIP3    H132837   6.600   3.414   7.990  0.2329  0.6336 -0.0102
 3734TIP3    H232838   6.748   3.408   7.959  0.4424  1.9265  0.6642
 3735TIP3   OH232839   3.893   6.629   8.523 -0.4168 -0.3613  0.2307
 3735TIP3    H132840   3.946   6.708   8.511  0.7264 -0.8294  1.8833
 3735TIP3    H232841   3.956   6.558   8.529 -1.3929 -1.3220 -0.3818
 3736TIP3   OH232842   5.393   6.857   0.799  1.0852  0.5293  0.1911
 3736TIP3    H132843   5.306   6.896   0.801  0.2604 -1.1932 -0.0862
 3736TIP3    H232844   5.378   6.767   0.769  2.5372 -0.8530  3.2296
 3737TIP3   OH232845   0.877   6.398   3.023  0.6032  0.2165  0.0161
 3737TIP3    H132846   0.902   6.315   2.983 -0.6394  0.1094 -0.5970
 3737TIP3    H232847   0.784   6.407   3.001  0.5746  1.4672  0.6101
 3738TIP3   OH232848   1.698   2.006   2.802 -0.6047 -0.2317 -0.1237
 3738TIP3    H132849   1.644   1.927   2.798  0.6495 -1.0555 -1.9099
 3738TIP3    H232850   1.752   2.002   2.723  0.9993  1.3290  0.8361
 3739TIP3   OH232851   6.052   4.658   7.526 -0.1591  0.0548 -0.3062
 3739TIP3    H132852   6.090   4.574   7.550  0.8233  0.2635 -1.0993
 3739TIP3    H232853   5.981   4.636   7.466  0.1947 -0.2027 -0.6315
 3740TIP3   OH232854   2.139   4.782   7.455  0.3418 -0.0582  0.0742
 3740TIP3    H132855   2.048   4.772   7.427  0.2458 -1.9134  0.8944
 3740TIP3    H232856   2.177   4.695   7.442  1.5627  0.2904  1.2042
 3741TIP3   OH232857   5.707   3.249   0.647  0.4282  0.1129  0.1127
 3741TIP3    H132858   5.683   3.252   0.740 -0.2627 -0.8759 -0.0226
 3741TIP3    H232859   5.670   3.167   0.615  0.8449  0.3398 -0.9932
 3742TIP3   OH232860   2.183   4.244   8.333  0.2952 -0.2634 -0.1427
 3742TIP3    H132861   2.190   4.172   8.396 -0.9968  0.0371  0.3811
 3742TIP3    H232862   2.212   4.321   8.382 -0.7314 -0.0258  0.1259
 3743TIP3   OH232863   0.718   6.537   0.072 -0.0166 -0.3341  0.1709
 3743TIP3    H132864   0.756   6.464   0.024  2.1109 -1.1062  2.7834
 3743TIP3    H232865   0.790   6.573   0.123 -1.4291  2.4370  0.3992
 3744TIP3   OH232866   0.539   1.036   2.638  0.4834 -0.4843 -0.8679
 3744TIP3    H132867   0.575   0.971   2.698 -0.5816  1.0348  1.5803
 3744TIP3    H232868   0.612   1.094   2.618  0.4353  0.1338  0.6307
 3745TIP3   OH232869   5.053   6.391   0.422  0.6777  0.0632  0.2461
 3745TIP3    H132870   5.125   6.438   0.465  0.4332  0.0708  0.6468
 3745TIP3    H232871   5.097   6.322   0.372  0.9213 -0.2850  0.9423
 3746TIP3   OH232872   0.974   5.895   0.146  0.0348 -0.4735  0.0846
 3746TIP3    H132873   0.997   5.861   0.232  1.0087  0.9810  0.4217
 3746TIP3    H232874   0.890   5.940   0.159  0.1238 -0.3567  0.2487
 3747TIP3   OH232875   0.505   3.881   0.062  0.4188 -0.4518 -0.2202
 3747TIP3    H132876   0.417   3.845   0.073 -0.2176  1.0735 -0.0181
 3747TIP3    H232877   0.563   3.805   0.062 -0.5944 -1.3586  2.5445
 3748TIP3   OH232878   5.115   3.768   6.826  0.0190  0.4330 -0.2282
 3748TIP3    H132879   5.207   3.793   6.811  0.7242 -2.7805 -2.3569
 3748TIP3    H232880   5.071   3.789   6.744 -0.2755 -1.1975 -0.5263
 3749TIP3   OH232881   5.203   1.729   7.554  0.9897  0.2107  0.1893
 3749TIP3    H132882   5.272   1.793   7.535 -0.1739  1.1360 -1.0996
 3749TIP3    H232883   5.121   1.777   7.544  0.0843 -1.3497 -0.3172
 3750TIP3   OH232884   0.943   3.815   2.881 -0.7010  0.2007  0.4974
 3750TIP3    H132885   0.982   3.839   2.797  0.7670 -0.7130  0.8687
 3750TIP3    H232886   0.954   3.892   2.936  0.9068 -0.1060  0.6650
 3751TIP3   OH232887   0.515   1.665   8.326  0.0605 -0.4956  0.0712
 3751TIP3    H132888   0.592   1.696   8.374 -0.5646 -0.0352  0.7837
 3751TIP3    H232889   0.532   1.572   8.312 -0.0363 -0.7959  1.7757
 3752TIP3   OH232890   6.637   5.420   1.367  0.0131 -0.2329  0.4429
 3752TIP3    H132891   6.716   5.372   1.342 -0.0453 -0.0423 -0.1091
 3752TIP3    H232892   6.598   5.447   1.284  0.0997  0.8765  0.7478
 3753TIP3   OH232893   1.403   2.194   7.269  0.1016  0.0496  0.0501
 3753TIP3    H132894   1.389   2.207   7.363 -0.4842  1.1646 -0.1645
 3753TIP3    H232895   1.331   2.138   7.241 -0.6219  0.9774  0.0063
 3754TIP3   OH232896   3.892   2.105   7.147 -0.1223 -0.0636 -0.4296
 3754TIP3    H132897   3.920   2.054   7.071  0.5252 -0.3214 -0.0354
 3754TIP3    H232898   3.819   2.056   7.184 -0.4836  0.1019 -0.9264
 3755TIP3   OH232899   5.735   6.225   0.505  0.2253 -0.1517 -0.2105
 3755TIP3    H132900   5.744   6.301   0.447 -0.1649 -0.4016 -0.6132
 3755TIP3    H232901   5.659   6.245   0.559  0.2670 -0.1520 -0.1516
 3756TIP3   OH232902   2.483   5.602   0.998 -0.4265  0.0286 -0.1500
 3756TIP3    H132903   2.446   5.542   1.063  1.7276 -2.2076 -0.8612
 3756TIP3    H232904   2.419   5.674   0.994 -0.4643  0.6363  4.7630
 3757TIP3   OH232905   3.843   6.623   0.595  0.0262  0.0987  0.6440
 3757TIP3    H132906   3.760   6.662   0.623  0.6650  0.5801  1.9064
 3757TIP3    H232907   3.834   6.529   0.615 -0.8460 -0.1565 -0.8040
 3758TIP3   OH232908   4.263   4.916   7.571 -0.3852 -0.4921 -0.0773
 3758TIP3    H132909   4.244   4.923   7.477  0.3447  0.1412 -0.1905
 3758TIP3    H232910   4.178   4.925   7.614 -0.8458 -1.6327 -0.7083
 3759TIP3   OH232911   5.920   2.417   8.501 -0.6725  0.1676 -0.4057
 3759TIP3    H132912   5.884   2.488   8.449  2.2092  3.5876  1.8328
 3759TIP3    H232913   5.873   2.422   8.584  1.8614  1.9053  1.0161
 3760TIP3   OH232914   1.126   1.618   2.840  0.0285 -0.6765  0.5151
 3760TIP3    H132915   1.156   1.648   2.925 -1.6682  1.3334  0.4786
 3760TIP3    H232916   1.090   1.530   2.856 -0.1643 -0.3649  1.8561
 3761TIP3   OH232917   2.841   4.725   0.553 -0.2123  0.0314  0.2282
 3761TIP3    H132918   2.929   4.698   0.525 -0.1614  0.0795  0.3437
 3761TIP3    H232919   2.807   4.775   0.479  0.4173  1.2646  0.7490
 3762TIP3   OH232920   6.045   5.821   6.718 -0.2543 -0.1563 -0.0792
 3762TIP3    H132921   5.986   5.860   6.653  0.1507  0.4257 -0.1102
 3762TIP3    H232922   6.042   5.727   6.701 -0.2928 -0.0257 -0.8248
 3763TIP3   OH232923   4.856   0.877   7.889 -0.1027  0.3025  0.3241
 3763TIP3    H132924   4.909   0.811   7.845  0.3279  0.6819  0.2589
 3763TIP3    H232925   4.798   0.911   7.821 -1.8529 -1.5013  0.8406
 3764TIP3   OH232926   3.213   0.697   1.127  0.3642  0.3793 -0.3882
 3764TIP3    H132927   3.139   0.747   1.162  0.9566  1.1566 -0.2275
 3764TIP3    H232928   3.275   0.692   1.199  0.8344  0.4736 -0.7802
 3765TIP3   OH232929   0.063   1.128   1.346  0.6288 -0.0252  0.2846
 3765TIP3    H132930   0.110   1.185   1.406 -1.0374  0.7402  0.8928
 3765TIP3    H232931   0.025   1.187   1.281 -0.0470 -0.5592  0.1834
 3766TIP3   OH232932   6.185   1.465   1.203 -0.1534  0.4340 -0.3871
 3766TIP3    H132933   6.123   1.524   1.246 -2.0699 -0.4882 -1.7436
 3766TIP3    H232934   6.179   1.486   1.110 -0.8550 -1.7740 -0.9112
 3767TIP3   OH232935   6.757   6.787   0.395  0.0040  0.1773 -0.2161
 3767TIP3    H132936   6.810   6.786   0.474  0.4485  1.4828 -0.4823
 3767TIP3    H232937   6.808   6.734   0.332 -0.5027 -1.1249  0.4312
 3768TIP3   OH232938   3.462   4.926   0.273  0.4064 -0.1523  0.9806
 3768TIP3    H132939   3.376   4.937   0.312  0.0294 -1.2645  0.5005
 3768TIP3    H232940   3.485   5.014   0.240 -0.8915 -0.0008  0.4086
 3769TIP3   OH232941   1.215   2.574   2.016 -0.0162  0.0114  0.2638
 3769TIP3    H132942   1.131   2.566   1.972  1.5701 -1.3385 -2.7935
 3769TIP3    H232943   1.235   2.485   2.047 -0.2900  0.5970  2.2980
 3770TIP3   OH232944   3.542   0.596   2.453  0.4507  0.7063  0.1822
 3770TIP3    H132945   3.555   0.502   2.461  0.1508  0.7287  1.0183
 3770TIP3    H232946   3.549   0.629   2.543 -0.6140  1.3218  0.0538
 3771TIP3   OH232947   1.205   3.689   2.081  0.6646  0.1832  0.3069
 3771TIP3    H132948   1.280   3.737   2.117  1.3448 -0.7904  0.2292
 3771TIP3    H232949   1.130   3.746   2.096  1.4943  1.4188 -0.0934
 3772TIP3   OH232950   4.451   0.761   0.418  0.5414  0.5808 -0.1663
 3772TIP3    H132951   4.508   0.687   0.436 -0.8876 -0.6603 -0.6011
 3772TIP3    H232952   4.421   0.790   0.504  0.6433  0.2883 -0.0326
 3773TIP3   OH232953   4.515   0.064   1.338 -0.5743  0.2440  0.2566
 3773TIP3    H132954   4.537   0.062   1.431 -0.4429  2.1721  0.3020
 3773TIP3    H232955   4.589   0.021   1.295  0.0168  0.5472  0.9492
 3774TIP3   OH232956   0.108   2.304   8.270  0.1951 -0.3011 -0.0800
 3774TIP3    H132957   0.201   2.286   8.282 -0.1106 -1.6159  0.4564
 3774TIP3    H232958   0.074   2.317   8.358 -0.0667  0.5964 -0.2985
 3775TIP3   OH232959   3.632   0.030   8.132  0.3384 -0.6303  0.6256
 3775TIP3    H132960   3.576   0.056   8.205 -0.3993 -1.7858  0.4973
 3775TIP3    H232961   3.578   0.046   8.054  1.2889  1.0487  0.2533
 3776TIP3   OH232962   5.427   6.556   0.771 -0.4126 -0.1948 -0.0189
 3776TIP3    H132963   5.389   6.542   0.857 -0.9650 -3.6539 -0.6628
 3776TIP3    H232964   5.522   6.549   0.785 -0.2352  2.4012  0.6628
 3777TIP3   OH232965   0.511   3.680   2.557  0.3827 -0.5407  0.3629
 3777TIP3    H132966   0.420   3.697   2.580  0.4242  1.8993 -0.9980
 3777TIP3    H232967   0.510   3.664   2.462  1.5750  2.1328 -0.2055
 3778TIP3   OH232968   0.378   0.043   8.416  0.8570 -0.1006  0.1502
 3778TIP3    H132969   0.296   0.079   8.449  0.6866  0.2660 -0.6521
 3778TIP3    H232970   0.433   0.032   8.494  0.4773  0.7836  0.5539
 3779TIP3   OH232971   0.845   3.041   1.009  0.4212 -0.3047  0.5566
 3779TIP3    H132972   0.840   3.070   1.100  1.6313 -1.4705  1.0302
 3779TIP3    H232973   0.757   3.008   0.990  0.3758 -0.8531  1.6048
 3780TIP3   OH232974   4.899   5.915   6.599  0.2223 -0.1020  0.1740
 3780TIP3    H132975   4.867   6.001   6.625  2.2207  0.8200 -0.1848
 3780TIP3    H232976   4.962   5.933   6.529  0.4783 -1.8834 -0.1058
 3781TIP3   OH232977   1.162   1.170   0.544  0.2100  0.3528  0.0448
 3781TIP3    H132978   1.140   1.263   0.554  0.8925  0.6053 -0.7305
 3781TIP3    H232979   1.244   1.159   0.591 -1.2826 -0.5275  2.6646
 3782TIP3   OH232980   2.429   3.163   2.297  0.0080 -0.1165 -0.1417
 3782TIP3    H132981   2.347   3.129   2.261  0.0676 -1.9723  1.3725
 3782TIP3    H232982   2.495   3.136   2.234 -0.3628  0.3706 -0.7647
 3783TIP3   OH232983   1.140   5.669   1.779  0.2645 -0.2212  0.3769
 3783TIP3    H132984   1.200   5.598   1.755  0.1446  0.2955 -1.6062
 3783TIP3    H232985   1.061   5.651   1.729  0.1964  1.2219 -0.0763
 3784TIP3   OH232986   4.634   0.524   8.574 -0.4682 -0.2338  0.2857
 3784TIP3    H132987   4.686   0.466   8.629  2.0086  1.5438 -0.0041
 3784TIP3    H232988   4.598   0.588   8.635  1.0280  0.8452  0.0915
 3785TIP3   OH232989   3.938   2.176   8.506 -0.3138 -0.3137 -0.1907
 3785TIP3    H132990   3.935   2.092   8.550  2.0318 -0.6038 -0.4804
 3785TIP3    H232991   3.873   2.169   8.436 -1.3315 -1.2255  0.8002
 3786TIP3   OH232992   2.563   5.688   0.590 -0.5238 -0.2147 -0.4977
 3786TIP3    H132993   2.568   5.594   0.609  0.0894 -0.1610 -0.3763
 3786TIP3    H232994   2.494   5.721   0.648 -0.3090 -0.4782 -0.0915
 3787TIP3   OH232995   6.266   5.533   0.502 -0.0595 -0.3075 -0.2386
 3787TIP3    H132996   6.293   5.512   0.592  1.1213  0.3267 -0.4243
 3787TIP3    H232997   6.183   5.487   0.491 -0.0691 -0.6587  1.0713
 3788TIP3   OH232998   2.537   3.116   8.055 -0.1935  0.1701 -0.6017
 3788TIP3    H132999   2.491   3.198   8.036 -1.0407 -0.3619 -0.9054
 3788TIP3    H233000   2.616   3.143   8.103  0.3631  1.3001 -2.0612
 3789TIP3   OH233001   5.931   2.032   2.785  0.4911 -0.2847 -0.2320
 3789TIP3    H133002   5.967   2.069   2.866  1.4794 -2.1949  0.2774
 3789TIP3    H233003   5.994   1.964   2.760 -1.2559 -1.7200 -0.9868
 3790TIP3   OH233004   1.299   2.529   1.173  0.4462 -0.1986  0.1466
 3790TIP3    H133005   1.283   2.447   1.220  0.8796 -0.6408 -0.4655
 3790TIP3    H233006   1.335   2.588   1.239  1.4707 -0.9502  0.2866
 3791TIP3   OH233007   4.857   4.647   8.420 -0.1240  0.3514  0.0120
 3791TIP3    H133008   4.867   4.671   8.328 -0.4625  0.2077 -0.0673
 3791TIP3    H233009   4.765   4.665   8.440 -0.0629  0.3437  0.3110
 3792TIP3   OH233010   3.554   6.619   7.360 -0.2611  0.2871 -0.2578
 3792TIP3    H133011   3.465   6.612   7.327 -0.0144 -0.7420 -0.7506
 3792TIP3    H233012   3.552   6.578   7.446  0.0705 -1.2198 -0.9509
 3793TIP3   OH233013   1.962   1.457   1.070  0.3501  0.2173  0.2898
 3793TIP3    H133014   1.900   1.521   1.104  0.8870 -0.3357  2.4774
 3793TIP3    H233015   2.039   1.509   1.047 -0.6284  0.8176 -1.8094
 3794TIP3   OH233016   2.941   3.282   8.443  0.0359  0.3210 -0.0071
 3794TIP3    H133017   2.974   3.193   8.450 -1.0519 -0.0269  0.9702
 3794TIP3    H233018   2.846   3.273   8.441 -0.0669  1.3903 -1.1209
 3795TIP3   OH233019   2.406   1.564   8.126  0.0347 -0.1986  0.3967
 3795TIP3    H133020   2.439   1.653   8.142 -2.0267  0.6187  0.4639
 3795TIP3    H233021   2.340   1.551   8.194 -1.7402 -0.6326 -1.3232
 3796TIP3   OH233022   4.910   1.336   2.489  0.0130  0.1206 -0.0784
 3796TIP3    H133023   4.834   1.383   2.455  0.0432  0.1525 -0.1019
 3796TIP3    H233024   4.874   1.278   2.556 -0.1179 -0.3122 -0.5134
 3797TIP3   OH233025   0.022   3.418   0.794  0.0676  0.5677  0.2763
 3797TIP3    H133026  -0.055   3.387   0.842 -0.7452  1.1962 -0.5999
 3797TIP3    H233027   0.042   3.347   0.733 -1.8414  1.6589 -1.7845
 3798TIP3   OH233028   2.830   2.886   2.275  0.3208  0.1750 -0.4700
 3798TIP3    H133029   2.809   2.937   2.353  1.8618  1.0046 -0.5610
 3798TIP3    H233030   2.769   2.918   2.209  1.1248  1.8052 -0.4715
 3799TIP3   OH233031   6.022   2.181   3.015  0.0072  0.2549 -0.0846
 3799TIP3    H133032   6.108   2.160   3.051 -0.8108  1.2345  2.6793
 3799TIP3    H233033   5.961   2.127   3.065 -1.0695 -0.2609 -1.8448
 3800TIP3   OH233034   1.465   1.166   2.260  0.0156  0.0442 -0.1705
 3800TIP3    H133035   1.547   1.152   2.213  0.3811  0.5468  0.3032
 3800TIP3    H233036   1.411   1.216   2.199 -0.0549 -0.5451 -0.5975
 3801TIP3   OH233037   0.070   4.061   2.611  0.3261 -0.0436 -0.2321
 3801TIP3    H133038   0.067   3.998   2.682 -1.2039 -0.6387 -0.7830
 3801TIP3    H233039   0.032   4.015   2.536  1.0096  0.8869 -1.1791
 3802TIP3   OH233040   4.350   1.644   1.837 -0.1765  0.1961  0.7577
 3802TIP3    H133041   4.440   1.611   1.838 -0.6002 -1.0918 -0.3558
 3802TIP3    H233042   4.300   1.581   1.889 -1.1981 -1.7585 -2.2957
 3803TIP3   OH233043   5.666   3.097   0.263 -0.1320 -0.7015 -0.4677
 3803TIP3    H133044   5.648   3.178   0.215 -1.9648 -1.1919 -0.6808
 3803TIP3    H233045   5.656   3.121   0.355 -1.3629 -0.8056 -0.5561
 3804TIP3   OH233046   3.726   1.426   8.210  0.1601 -0.4042 -0.6083
 3804TIP3    H133047   3.712   1.496   8.145 -2.3275  0.5569  0.8251
 3804TIP3    H233048   3.789   1.463   8.271  0.6124 -0.3434 -1.1000
 3805TIP3   OH233049   0.490   5.653   8.536  0.1641  0.0295 -0.0858
 3805TIP3    H133050   0.577   5.693   8.543  0.0795  0.2783 -0.4152
 3805TIP3    H233051   0.438   5.696   8.603  0.3019 -0.1370  0.1288
 3806TIP3   OH233052   6.684   1.712   0.735  0.3450 -0.4687 -0.0716
 3806TIP3    H133053   6.665   1.687   0.645 -2.0549  0.3478  0.1572
 3806TIP3    H233054   6.684   1.630   0.784 -1.8507 -0.6204 -0.2652
 3807TIP3   OH233055   1.105   5.132   1.620  0.1984  0.3524 -0.5927
 3807TIP3    H133056   1.056   5.203   1.579  1.2018  0.6164 -1.3729
 3807TIP3    H233057   1.168   5.105   1.553  0.8446 -0.2451  0.2378
 3808TIP3   OH233058   3.039   0.851   1.864 -0.0711  0.7586 -0.2152
 3808TIP3    H133059   3.085   0.802   1.932  0.8248 -0.2252 -1.4893
 3808TIP3    H233060   3.036   0.941   1.897 -0.4987  0.1511  1.5380
 3809TIP3   OH233061   1.493   6.348   7.734  0.4437 -0.5692  0.5146
 3809TIP3    H133062   1.587   6.350   7.714  0.2934 -0.6260 -0.2471
 3809TIP3    H233063   1.463   6.436   7.713 -0.0557 -1.1232 -1.3367
 3810TIP3   OH233064   5.735   5.948   8.352 -0.0824  0.8396  0.3457
 3810TIP3    H133065   5.698   5.946   8.440  2.7180 -3.2752  1.7626
 3810TIP3    H233066   5.671   5.902   8.298 -0.5270  0.7641  0.9255
 3811TIP3   OH233067   4.580   1.069   8.198  0.5492  0.3187 -0.2968
 3811TIP3    H133068   4.538   1.002   8.251  0.2919  1.5162  1.0728
 3811TIP3    H233069   4.550   1.051   8.109  0.3806 -1.2770  0.0548
 3812TIP3   OH233070   0.929   1.312   0.819 -0.8111 -0.0515  0.4152
 3812TIP3    H133071   0.873   1.236   0.834  0.0027 -0.5349  1.0644
 3812TIP3    H233072   0.934   1.319   0.723 -2.1492  0.1386  0.3500
 3813TIP3   OH233073   1.775   4.077   0.751 -0.6104 -0.0809  0.5770
 3813TIP3    H133074   1.790   4.155   0.804 -1.7858  0.3843  0.2609
 3813TIP3    H233075   1.683   4.056   0.765 -0.2615 -1.5673  0.8407
 3814TIP3   OH233076   5.946   5.432   6.697 -0.1810 -0.8427 -0.1716
 3814TIP3    H133077   5.968   5.358   6.640  0.2727 -1.5684  0.9109
 3814TIP3    H233078   5.909   5.498   6.638  2.6603 -0.5073 -1.7106
 3815TIP3   OH233079   2.915   1.947   1.678 -0.1215  0.4781  0.0579
 3815TIP3    H133080   2.995   1.945   1.731 -0.1602 -0.8969  0.1147
 3815TIP3    H233081   2.878   2.034   1.693  1.9605  1.5986 -0.8951
 3816TIP3   OH233082   2.945   6.192   1.593  0.3521  0.1389 -0.3184
 3816TIP3    H133083   2.956   6.225   1.682  1.6069 -0.4821 -0.2237
 3816TIP3    H233084   2.859   6.150   1.593  1.6587 -2.9062  1.6397
 3817TIP3   OH233085   0.237   3.042   1.194  0.8296 -0.6390  0.9718
 3817TIP3    H133086   0.291   2.964   1.181 -0.1185 -1.1795  0.1891
 3817TIP3    H233087   0.169   3.036   1.128 -0.4237 -0.1716  2.1652
 3818TIP3   OH233088   5.247   5.161   7.834  0.0404  0.8328 -0.3555
 3818TIP3    H133089   5.207   5.085   7.791 -1.3897  0.8575  0.8454
 3818TIP3    H233090   5.341   5.146   7.826 -0.2052 -0.8288 -0.5589
 3819TIP3   OH233091   0.720   0.169   1.208  0.3951 -0.1450  0.1816
 3819TIP3    H133092   0.677   0.228   1.270  0.4103  1.8508 -1.6024
 3819TIP3    H233093   0.651   0.110   1.179  0.1068 -0.3012  1.1411
 3820TIP3   OH233094   3.628   4.996   7.428 -0.0627  0.0597  0.6275
 3820TIP3    H133095   3.656   4.951   7.348 -1.8787  1.0346 -0.6250
 3820TIP3    H233096   3.708   5.033   7.464  0.9373 -1.2070 -0.1919
 3821TIP3   OH233097   6.811   5.019   2.283  0.4523 -0.7654  0.0057
 3821TIP3    H133098   6.877   5.023   2.352 -1.5541 -0.2670  2.0229
 3821TIP3    H233099   6.734   4.980   2.326 -0.4916 -1.6344 -2.3185
 3822TIP3   OH233100   2.057   2.845   7.604 -0.7352  0.0867 -0.0070
 3822TIP3    H133101   1.988   2.900   7.567 -0.5053  0.8704  0.7013
 3822TIP3    H233102   2.092   2.797   7.529 -2.2483 -0.5576 -0.3285
 3823TIP3   OH233103   4.081   5.900   1.423  0.9894  0.1928  0.2464
 3823TIP3    H133104   4.172   5.879   1.443  0.5741 -0.1384  1.9404
 3823TIP3    H233105   4.048   5.823   1.375  1.3994 -0.0094  0.2892
 3824TIP3   OH233106   5.757   4.032   7.154 -0.4514  0.0315  0.2657
 3824TIP3    H133107   5.664   4.045   7.175 -0.3385  1.5166 -0.0454
 3824TIP3    H233108   5.761   4.041   7.058  0.0848  0.4768  0.3270
 3825TIP3   OH233109   2.325   2.779   0.429 -0.3236  0.3052  0.4102
 3825TIP3    H133110   2.264   2.706   0.420  0.5831 -0.6243  1.4652
 3825TIP3    H233111   2.395   2.759   0.366 -1.3940  1.7480 -1.3406
 3826TIP3   OH233112   0.680   4.777   0.060  0.3727  0.8177  0.4396
 3826TIP3    H133113   0.712   4.760  -0.029  0.8087  0.3009  0.6929
 3826TIP3    H233114   0.589   4.751   0.058  0.9064 -1.1913  0.7014
 3827TIP3   OH233115   5.912   1.720   8.578 -0.0924 -0.3196 -0.4571
 3827TIP3    H133116   5.880   1.631   8.568  0.1999 -0.5680  0.7461
 3827TIP3    H233117   5.997   1.720   8.532  0.3883 -0.9496  0.4063
 3828TIP3   OH233118   5.491   1.782   2.242 -0.1928 -0.6595 -0.7548
 3828TIP3    H133119   5.518   1.801   2.152  1.0507  2.6258  0.1424
 3828TIP3    H233120   5.400   1.811   2.246 -0.0245 -0.1098 -0.8018
 3829TIP3   OH233121   4.992   1.034   8.078 -0.6276  0.1289  0.5817
 3829TIP3    H133122   4.925   1.000   8.019  0.8542  0.2926 -1.2756
 3829TIP3    H233123   5.035   0.957   8.114 -1.0027  0.0299  0.8160
 3830TIP3   OH233124   6.050   5.769   7.374  0.6071 -1.0192 -0.9706
 3830TIP3    H133125   6.071   5.814   7.292 -0.1991  2.8050  0.7544
 3830TIP3    H233126   6.134   5.733   7.404  1.7790  1.1943 -1.4210
 3831TIP3   OH233127   5.244   2.398   6.695 -0.3375  0.2886 -0.3765
 3831TIP3    H133128   5.329   2.441   6.683 -1.0433  1.6856 -0.5958
 3831TIP3    H233129   5.191   2.429   6.622 -0.5763 -1.8318 -1.1493
 3832TIP3   OH233130   1.130   5.058   7.923  0.2390  0.0239  0.1778
 3832TIP3    H133131   1.180   5.034   7.844  0.4389 -1.7593  0.8069
 3832TIP3    H233132   1.158   4.995   7.989 -1.1632  0.4528  1.2165
 3833TIP3   OH233133   3.441   1.031   2.074  0.6135 -0.2510  0.0889
 3833TIP3    H133134   3.389   1.070   2.004 -1.1264 -0.2654  1.3127
 3833TIP3    H233135   3.516   0.991   2.029 -1.0566 -1.3195 -1.9044
 3834TIP3   OH233136   2.764   4.044   1.397  0.8323 -0.4055  0.0252
 3834TIP3    H133137   2.722   4.108   1.455  1.3387  0.9703 -1.0662
 3834TIP3    H233138   2.811   4.097   1.334 -0.2883 -1.8335 -2.1210
 3835TIP3   OH233139   2.139   4.567   7.745 -0.1746 -0.3156  0.2595
 3835TIP3    H133140   2.051   4.546   7.713  0.6172 -0.4845 -1.9590
 3835TIP3    H233141   2.188   4.485   7.736  1.2868  0.7385 -2.5717
 3836TIP3   OH233142   0.486   6.214   1.924 -0.5092 -0.1782  0.2174
 3836TIP3    H133143   0.529   6.260   1.996  0.1119 -0.1457 -0.1685
 3836TIP3    H233144   0.541   6.230   1.848 -0.7955 -0.7703 -0.1300
 3837TIP3   OH233145   5.258   4.760   8.114  0.3586  0.8780  0.2886
 3837TIP3    H133146   5.333   4.766   8.055  0.5867  0.9951  0.5832
 3837TIP3    H233147   5.288   4.702   8.184  0.3244  1.2653  0.6271
 3838TIP3   OH233148   4.013   0.904   0.916  0.0908  0.5859  0.1008
 3838TIP3    H133149   4.062   0.893   0.997  0.6889  0.7465 -0.2299
 3838TIP3    H233150   4.025   0.821   0.869  1.4011  1.1999 -0.6925
 3839TIP3   OH233151   0.426   3.679   6.841 -0.1915 -0.5352 -0.4729
 3839TIP3    H133152   0.387   3.766   6.837 -0.6513 -0.6852  0.5339
 3839TIP3    H233153   0.519   3.695   6.860 -0.0730 -0.2389 -1.2626
 3840TIP3   OH233154   6.929   1.309   0.252 -0.0825 -0.6230 -0.3111
 3840TIP3    H133155   6.980   1.381   0.215 -2.0481  0.5911 -0.8647
 3840TIP3    H233156   6.889   1.346   0.331 -0.2500 -1.4638  0.0108
 3841TIP3   OH233157   0.281   2.252   0.065  0.2107 -0.0621 -0.2122
 3841TIP3    H133158   0.247   2.184   0.006 -1.1177 -0.1964  0.6479
 3841TIP3    H233159   0.304   2.325   0.008  1.9012 -1.2998 -1.1868
 3842TIP3   OH233160   0.761   1.405   7.708  0.6786  0.6469  0.2151
 3842TIP3    H133161   0.673   1.389   7.743 -0.4671  0.2055 -2.5296
 3842TIP3    H233162   0.814   1.332   7.739 -0.6799 -0.5994 -0.2992
 3843TIP3   OH233163   5.198   5.237   0.329  0.2983  0.3415  0.8809
 3843TIP3    H133164   5.216   5.144   0.340  0.2129  0.3436  1.0420
 3843TIP3    H233165   5.153   5.263   0.410 -1.1342  0.1627  0.1812
 3844TIP3   OH233166   1.601   2.088   8.489  0.0931  0.0875 -0.6902
 3844TIP3    H133167   1.509   2.115   8.495  0.8355  2.8045 -0.3082
 3844TIP3    H233168   1.643   2.157   8.439  2.0804 -0.7444 -0.2544
 3845TIP3   OH233169   2.047   1.074   1.800 -0.5809 -0.2326 -0.1949
 3845TIP3    H133170   2.124   1.126   1.822 -2.1584  1.8686  0.6786
 3845TIP3    H233171   2.081   1.004   1.744  1.6782  1.6568 -1.3603
 3846TIP3   OH233172   2.766   0.648   6.723 -0.6747 -0.1679 -0.1373
 3846TIP3    H133173   2.747   0.664   6.816  0.9048 -1.4092  0.4486
 3846TIP3    H233174   2.834   0.581   6.724  0.4643  0.8621 -2.1666
 3847TIP3   OH233175   3.701   3.773   2.541 -0.0419  0.1688  0.3730
 3847TIP3    H133176   3.697   3.684   2.506 -0.3111  0.8642 -1.5043
 3847TIP3    H233177   3.617   3.812   2.517 -0.3697  0.6215  2.1361
 3848TIP3   OH233178   5.543   2.582   0.050  0.3177 -0.0721  0.1999
 3848TIP3    H133179   5.447   2.581   0.053  0.1652 -0.4183 -2.3883
 3848TIP3    H233180   5.565   2.674   0.067 -0.8160  0.9477 -2.9430
 3849TIP3   OH233181   6.441   0.674   8.120  0.5118  0.5956 -0.1383
 3849TIP3    H133182   6.419   0.581   8.113  0.8018  0.5658 -0.7174
 3849TIP3    H233183   6.509   0.688   8.053 -0.2442  1.4470 -0.7518
 3850TIP3   OH233184   5.546   1.300   0.974  0.2558  0.0879 -0.1754
 3850TIP3    H133185   5.484   1.228   0.961  2.2073 -1.4163 -1.9306
 3850TIP3    H233186   5.631   1.257   0.978  1.2873  2.1314  1.4656
 3851TIP3   OH233187   0.129   0.008   1.624 -0.2490  0.3886  0.5604
 3851TIP3    H133188   0.150   0.058   1.703  0.6408  0.1906  0.4676
 3851TIP3    H233189   0.044   0.041   1.596 -0.4220  0.6891  1.4183
 3852TIP3   OH233190   5.278   4.013   1.772  0.0537  0.3041  0.1696
 3852TIP3    H133191   5.183   4.024   1.772 -0.4482 -2.0400 -3.5588
 3852TIP3    H233192   5.292   3.923   1.800  0.9661  0.0809 -0.9141
 3853TIP3   OH233193   3.082   1.348   8.062  0.3078  0.1244 -0.3512
 3853TIP3    H133194   3.080   1.410   7.988 -0.3150 -0.2245 -0.6347
 3853TIP3    H233195   2.990   1.328   8.079  0.4359  0.3154  0.6298
 3854TIP3   OH233196   0.303   2.564   0.643 -0.3955 -0.2966 -0.0834
 3854TIP3    H133197   0.246   2.612   0.703 -0.9856  0.3909 -1.1564
 3854TIP3    H233198   0.353   2.633   0.598  1.5614 -0.8877  1.0634
 3855TIP3   OH233199   3.535   0.348   6.887 -0.1162 -0.0125  0.2064
 3855TIP3    H133200   3.620   0.379   6.917 -0.5192  1.7267 -0.3575
 3855TIP3    H233201   3.555   0.282   6.821  0.7687 -0.6928  1.1239
 3856TIP3   OH233202   3.345   2.112   0.051 -0.4609  0.1635 -0.2387
 3856TIP3    H133203   3.432   2.072   0.051  0.2859  1.6839 -0.1810
 3856TIP3    H233204   3.361   2.203   0.078 -1.7130  1.1819 -2.5822
 3857TIP3   OH233205   4.354   6.036   7.933  0.3761 -0.4534 -0.3230
 3857TIP3    H133206   4.366   6.079   8.018  1.5834  0.2368 -0.8124
 3857TIP3    H233207   4.271   5.990   7.941  1.2845 -1.9216  1.8793
 3858TIP3   OH233208   6.255   5.157   7.924  0.0335  0.0849 -0.4971
 3858TIP3    H133209   6.276   5.246   7.952  0.1329 -0.5320  1.5220
 3858TIP3    H233210   6.319   5.138   7.856  0.4236  1.3119 -0.5046
 3859TIP3   OH233211   6.045   2.542   7.631 -0.0728 -0.3158  0.1806
 3859TIP3    H133212   6.070   2.556   7.722 -1.0280 -1.1418  0.5865
 3859TIP3    H233213   5.995   2.460   7.632 -0.9650  0.1829 -0.9117
 3860TIP3   OH233214   2.122   0.912   1.593  0.8661 -0.1568 -0.1337
 3860TIP3    H133215   2.136   0.820   1.613 -0.6071 -0.3987 -0.1123
 3860TIP3    H233216   2.149   0.922   1.502  2.0065 -0.3521  0.1564
 3861TIP3   OH233217   1.093   4.200   1.830  0.0761  0.0093 -0.2485
 3861TIP3    H133218   1.115   4.119   1.876  1.4359 -0.4204 -1.5871
 3861TIP3    H233219   1.029   4.174   1.764 -0.6820  0.3383  0.3409
 3862TIP3   OH233220   4.313   3.254   2.374  0.4741  0.1118 -0.3382
 3862TIP3    H133221   4.372   3.308   2.427  0.0452  0.4189 -0.1647
 3862TIP3    H233222   4.321   3.166   2.411  0.6833  0.1900 -0.1976
 3863TIP3   OH233223   0.751   0.911   8.530 -0.1243  0.4097  0.1312
 3863TIP3    H133224   0.695   0.881   8.602  0.7048  0.1852  0.6969
 3863TIP3    H233225   0.726   0.856   8.456  0.6255 -1.0005  0.8739
 3864TIP3   OH233226   6.701   1.463   0.839  0.1323 -0.5111  0.2435
 3864TIP3    H133227   6.618   1.432   0.873 -0.8898  0.8465 -0.9032
 3864TIP3    H233228   6.708   1.422   0.752  0.4306 -0.2598  0.1443
 3865TIP3   OH233229   6.039   6.787   0.263  0.4647  0.0576  0.5520
 3865TIP3    H133230   6.070   6.806   0.352  0.5517  2.1001  0.1158
 3865TIP3    H233231   6.063   6.863   0.212 -1.8860  0.0790 -0.6708
 3866TIP3   OH233232   2.567   0.125   0.700 -0.1773 -0.1471  0.8682
 3866TIP3    H133233   2.614   0.137   0.783 -1.7560 -0.5375  1.8624
 3866TIP3    H233234   2.516   0.205   0.689  1.5241  0.8072 -0.8307
 3867TIP3   OH233235   1.887   4.056   1.171  0.9038  0.5619 -0.3819
 3867TIP3    H133236   1.866   4.129   1.114  1.3392  0.8980 -0.1153
 3867TIP3    H233237   1.978   4.034   1.151  1.0142  0.5868  0.0771
 3868TIP3   OH233238   1.899   4.658   0.337 -0.2988 -0.1052  0.2459
 3868TIP3    H133239   1.828   4.686   0.279 -2.3829 -0.9752  2.2620
 3868TIP3    H233240   1.948   4.738   0.356 -2.7858  1.2207  1.4738
 3869TIP3   OH233241   1.322   1.261   1.317 -0.1276  0.1277 -0.1769
 3869TIP3    H133242   1.388   1.239   1.251 -0.1497  1.2917 -0.6166
 3869TIP3    H233243   1.352   1.218   1.396  2.5422  2.5270  0.2958
 3870TIP3   OH233244   1.871   6.086   1.558  0.2797 -0.1509  0.1712
 3870TIP3    H133245   1.887   6.111   1.649 -0.0773 -0.7125  0.3967
 3870TIP3    H233246   1.958   6.082   1.519  0.4520 -0.0900  0.5385
 3871TIP3   OH233247   0.284   6.352   8.017 -0.0043 -0.5359 -0.0527
 3871TIP3    H133248   0.257   6.420   7.955 -2.2374 -0.7104  0.6449
 3871TIP3    H233249   0.299   6.399   8.099  1.7131 -0.4870 -0.3462
 3872TIP3   OH233250   6.774   0.989   1.398 -0.5981  0.4757 -0.2527
 3872TIP3    H133251   6.836   1.044   1.349 -0.1831 -0.4900 -0.8428
 3872TIP3    H233252   6.819   0.968   1.479 -0.5159  0.5229 -0.2859
 3873TIP3   OH233253   1.727   0.899   0.319 -0.3166 -0.1503  0.2051
 3873TIP3    H133254   1.812   0.938   0.300 -0.3648  0.1135  0.5207
 3873TIP3    H233255   1.699   0.941   0.401 -0.8696 -0.0377 -0.0380
 3874TIP3   OH233256   0.571   4.385   0.996 -0.2325  0.4012  0.4666
 3874TIP3    H133257   0.621   4.341   1.065  1.7038 -0.4095 -1.3586
 3874TIP3    H233258   0.549   4.315   0.934 -0.1919  1.3995 -0.7138
 3875TIP3   OH233259   6.600   5.469   6.898  0.5458 -0.1047  0.3373
 3875TIP3    H133260   6.513   5.495   6.870  0.6895 -1.0556 -1.0861
 3875TIP3    H233261   6.588   5.385   6.941  0.7100 -0.0162  0.5621
 3876TIP3   OH233262   2.890   5.015   7.632 -0.1878  0.1852  0.1210
 3876TIP3    H133263   2.952   4.970   7.690  1.2918  1.9195 -0.0264
 3876TIP3    H233264   2.831   5.062   7.692  0.8423  1.3302  0.2765
 3877TIP3   OH233265   6.635   3.196   1.328  0.2844  0.7589  0.7476
 3877TIP3    H133266   6.721   3.158   1.342  0.9794  1.6641 -0.7975
 3877TIP3    H233267   6.591   3.187   1.413  1.3010 -1.1327  1.1252
 3878TIP3   OH233268   0.596   5.230   1.092 -0.1908 -0.0613 -0.2546
 3878TIP3    H133269   0.676   5.265   1.052 -0.4763  0.6297 -0.2269
 3878TIP3    H233270   0.527   5.251   1.029 -0.0762 -2.4938 -1.2917
 3879TIP3   OH233271   2.076   6.493   1.642 -0.2216 -0.5456  0.3779
 3879TIP3    H133272   2.129   6.425   1.684 -0.6927  0.3947  2.6596
 3879TIP3    H233273   2.094   6.572   1.693 -1.0453  0.6426 -1.0872
 3880TIP3   OH233274   6.930   1.529   1.449  0.7656 -0.4010  0.2061
 3880TIP3    H133275   6.852   1.560   1.403  0.8553 -0.0627  0.2809
 3880TIP3    H233276   6.946   1.594   1.517  1.7549  0.1289 -0.5092
 3881TIP3   OH233277   5.988   4.479   8.112 -0.5155 -0.3000 -0.5433
 3881TIP3    H133278   6.022   4.392   8.129 -0.5452 -0.2400 -0.1545
 3881TIP3    H233279   5.906   4.465   8.064 -0.5706 -0.4921 -0.3937
 3882TIP3   OH233280   4.794   5.253   0.334 -0.4278  0.0792  0.2547
 3882TIP3    H133281   4.781   5.344   0.307  1.3444  0.0316 -0.9069
 3882TIP3    H233282   4.829   5.260   0.423 -1.2386  0.4826  0.5478
 3883TIP3   OH233283   1.330   1.504   1.443 -0.2014 -0.0052 -0.2448
 3883TIP3    H133284   1.420   1.518   1.412 -0.3655  0.2689 -0.5979
 3883TIP3    H233285   1.305   1.419   1.408  0.5820 -0.9566  1.4005
 3884TIP3   OH233286   2.557   3.320   6.862 -0.5576  0.4354  0.1824
 3884TIP3    H133287   2.589   3.384   6.799 -1.5211  0.1919 -0.5793
 3884TIP3    H233288   2.497   3.368   6.919 -2.1762  0.0239 -1.0979
 3885TIP3   OH233289   6.107   4.082   7.311 -0.2922  0.9653 -0.5103
 3885TIP3    H133290   6.048   4.034   7.253  0.3417 -1.3412  0.6485
 3885TIP3    H233291   6.152   4.143   7.253 -2.1911  1.2456 -1.7980
 3886TIP3   OH233292   6.450   6.621   1.063  0.0703  0.4460  0.0516
 3886TIP3    H133293   6.429   6.709   1.031  0.9039  0.5988 -0.0867
 3886TIP3    H233294   6.537   6.629   1.102 -0.5484  0.0601  1.5672
 3887TIP3   OH233295   6.229   4.917   8.075  0.1028 -0.3122 -0.3488
 3887TIP3    H133296   6.273   4.838   8.042 -1.1801 -0.9113 -0.7145
 3887TIP3    H233297   6.224   4.975   8.000 -1.0086 -0.8516 -0.7206
 3888TIP3   OH233298   5.896   6.168   8.357 -0.2073 -0.0225  0.8121
 3888TIP3    H133299   5.840   6.214   8.419 -0.8789  0.6040 -0.2348
 3888TIP3    H233300   5.850   6.086   8.339  0.0336 -0.2462  1.1969
 3889TIP3   OH233301   0.439   5.987   0.533 -0.2311  0.4449  0.6089
 3889TIP3    H133302   0.471   6.073   0.561  0.4712  0.7608 -1.0720
 3889TIP3    H233303   0.409   6.000   0.443 -1.3652 -0.7795  0.7739
 3890TIP3   OH233304   3.565   0.514   8.486 -0.0470 -0.1089 -0.6171
 3890TIP3    H133305   3.524   0.528   8.401  1.0696  0.2825 -1.1106
 3890TIP3    H233306   3.588   0.421   8.487 -0.2663 -0.1634 -0.6487
 3891TIP3   OH233307   3.699   3.709   7.876  1.0652 -0.3546  0.1847
 3891TIP3    H133308   3.696   3.613   7.872  0.3973 -0.3235 -0.2753
 3891TIP3    H233309   3.745   3.735   7.796  0.8142 -0.2828  0.0599
 3892TIP3   OH233310   4.407   1.312   0.786 -0.5827  0.2397 -0.3578
 3892TIP3    H133311   4.406   1.407   0.800 -0.9414  0.2129 -0.1767
 3892TIP3    H233312   4.337   1.296   0.724 -1.3784 -0.0409  0.5847
 3893TIP3   OH233313   6.131   0.459   1.251 -0.4165  0.0215  0.0243
 3893TIP3    H133314   6.058   0.520   1.257 -0.9937 -0.7145  0.8939
 3893TIP3    H233315   6.095   0.382   1.207  0.8194  0.9890 -2.9010
 3894TIP3   OH233316   2.547   5.158   8.543 -0.0611  0.1782  0.4022
 3894TIP3    H133317   2.504   5.178   8.460 -0.7061 -1.1662  0.3921
 3894TIP3    H233318   2.627   5.211   8.542  0.2846 -0.3255 -1.3766
 3895TIP3   OH233319   6.278   3.672   7.622 -0.3998  0.1404 -0.2942
 3895TIP3    H133320   6.253   3.601   7.563 -3.0521  0.6149  0.1308
 3895TIP3    H233321   6.262   3.751   7.572 -0.8617  0.4901  0.3800
 3896TIP3   OH233322   6.309   3.303   7.746 -0.2227  0.1779  0.4019
 3896TIP3    H133323   6.332   3.254   7.826 -0.7761  0.0788  0.5035
 3896TIP3    H233324   6.236   3.359   7.772 -1.2790 -0.8072 -0.3562
 3897TIP3   OH233325   3.864   2.646   2.454 -0.0542  0.8098 -0.1778
 3897TIP3    H133326   3.823   2.709   2.513  1.7204  1.1198  0.7981
 3897TIP3    H233327   3.886   2.572   2.510  1.3417  0.9608 -0.4865
 3898TIP3   OH233328   4.776   1.952   8.001 -0.3755 -0.0964 -0.1973
 3898TIP3    H133329   4.814   1.866   7.981 -1.7262 -0.6782 -0.3688
 3898TIP3    H233330   4.696   1.956   7.948 -0.7146  0.9566  0.3700
 3899TIP3   OH233331   0.262   3.747   2.585 -0.5942  0.1344 -0.4665
 3899TIP3    H133332   0.284   3.794   2.505  0.7034 -0.1445 -0.2937
 3899TIP3    H233333   0.166   3.739   2.583 -0.6336  0.7378 -1.6290
 3900TIP3   OH233334   5.958   0.291   8.067  0.0968 -0.1165 -0.2568
 3900TIP3    H133335   6.005   0.284   8.150 -0.3374 -0.9029 -0.0659
 3900TIP3    H233336   5.935   0.201   8.045 -0.1778  0.1313 -1.0093
 3901TIP3   OH233337   4.643   5.484   7.413  0.5220  0.0120 -0.3637
 3901TIP3    H133338   4.592   5.532   7.478  1.8090  1.5224 -0.4238
 3901TIP3    H233339   4.732   5.480   7.451  0.7821 -1.0335 -1.0391
 3902TIP3   OH233340   3.923   2.384   0.410  0.2558  0.3591  0.2818
 3902TIP3    H133341   3.922   2.475   0.441  4.4295  0.8308 -0.4354
 3902TIP3    H233342   3.887   2.389   0.322 -1.8856  0.7704  1.1001
 3903TIP3   OH233343   2.060   0.118   2.369 -0.0725  0.8127  0.2290
 3903TIP3    H133344   2.100   0.031   2.366 -2.3647 -0.3124 -1.0163
 3903TIP3    H233345   2.091   0.156   2.451  0.9327 -1.2337  0.8675
 3904TIP3   OH233346   5.287   4.625   1.916  0.0313  0.5820 -1.2973
 3904TIP3    H133347   5.265   4.679   1.991  0.0897  0.3006 -1.0749
 3904TIP3    H233348   5.330   4.548   1.954  0.7586  0.7887 -1.6642
 3905TIP3   OH233349   0.132   6.382   7.345  0.4782 -0.9749 -0.2963
 3905TIP3    H133350   0.200   6.444   7.321  0.5014  0.0876  2.1593
 3905TIP3    H233351   0.177   6.298   7.354  0.8930 -0.8828 -1.4587
 3906TIP3   OH233352   6.409   4.031   8.053  0.2123 -0.3866 -0.2452
 3906TIP3    H133353   6.317   4.015   8.032  0.1176 -0.5712  0.3045
 3906TIP3    H233354   6.433   3.961   8.113  0.1344  0.7942  1.2091
 3907TIP3   OH233355   1.701   4.214   6.492 -0.9229  1.0120 -0.0993
 3907TIP3    H133356   1.636   4.279   6.519  0.3778  1.6723  1.7339
 3907TIP3    H233357   1.780   4.266   6.476 -0.3156  0.0483 -0.2859
 3908TIP3   OH233358   6.415   3.832   6.718 -0.1268  0.7295 -0.6736
 3908TIP3    H133359   6.382   3.855   6.805  0.3597 -1.3601  0.1218
 3908TIP3    H233360   6.348   3.864   6.658 -3.2917 -2.4517  0.8108
 3909TIP3   OH233361   5.178   1.007   1.078  0.2795 -0.4852  0.2442
 3909TIP3    H133362   5.145   0.917   1.084 -0.0504 -0.5166 -1.5539
 3909TIP3    H233363   5.125   1.056   1.142  0.2537 -1.4909  1.0241
 3910TIP3   OH233364   0.462   2.714   7.935 -0.1197  0.4346 -0.1813
 3910TIP3    H133365   0.426   2.678   7.854 -1.3586 -2.0799  1.3787
 3910TIP3    H233366   0.394   2.698   8.000  2.0539 -0.4608  2.0006
 3911TIP3   OH233367   4.742   0.849   0.020 -0.4064  0.7079 -0.2949
 3911TIP3    H133368   4.816   0.845   0.081 -1.3084  2.0967  0.9515
 3911TIP3    H233369   4.687   0.775   0.044 -0.9501  1.4629  0.8916
 3912TIP3   OH233370   4.067   2.654   8.345  0.0060  0.6677 -0.1482
 3912TIP3    H133371   4.141   2.620   8.296 -0.9774 -0.5764 -0.8251
 3912TIP3    H233372   4.013   2.698   8.279 -0.4160  0.5917  0.1435
 3913TIP3   OH233373   3.555   1.642   0.891 -0.0928  0.3247  0.3140
 3913TIP3    H133374   3.642   1.615   0.862  0.1953  1.5505 -0.0350
 3913TIP3    H233375   3.507   1.662   0.811 -0.1772  1.1363  0.5481
 3914TIP3   OH233376   3.130   1.825   0.850 -0.3654 -0.1914 -0.0625
 3914TIP3    H133377   3.059   1.772   0.886 -0.8400 -0.7680 -1.7666
 3914TIP3    H233378   3.153   1.782   0.768  1.0087  0.7965 -0.2284
 3915TIP3   OH233379   4.002   4.859   1.561 -0.0302 -0.0323  0.0331
 3915TIP3    H133380   3.960   4.902   1.487  3.2040 -0.7534 -2.4248
 3915TIP3    H233381   3.962   4.772   1.565  1.1081 -0.7211 -2.2666
 3916TIP3   OH233382   1.966   1.422   8.214  0.7158 -0.1682  0.3297
 3916TIP3    H133383   2.018   1.351   8.177 -0.5782  0.3714 -2.8302
 3916TIP3    H233384   1.884   1.381   8.241  0.6648 -0.1503  0.2010
 3917TIP3   OH233385   2.925   6.541   7.599  0.0823  0.2600  0.1415
 3917TIP3    H133386   2.878   6.517   7.679  0.8459  1.6981  1.0510
 3917TIP3    H233387   2.956   6.630   7.615  1.1456  0.1845 -1.3469
 3918TIP3   OH233388   0.202   2.499   1.334  0.1160  0.4311 -0.4640
 3918TIP3    H133389   0.120   2.530   1.373  0.7849  2.0735 -0.2626
 3918TIP3    H233390   0.233   2.432   1.394 -0.7015  0.3125 -0.1561
 3919TIP3   OH233391   3.617   4.145   1.347  0.4713  0.3920  0.5253
 3919TIP3    H133392   3.689   4.200   1.379  2.1654 -0.8895 -0.8236
 3919TIP3    H233393   3.553   4.144   1.419  2.8726 -0.2913  2.8448
 3920TIP3   OH233394   3.353   2.744   7.775 -0.2538 -0.1892 -0.6585
 3920TIP3    H133395   3.290   2.691   7.823  0.6357 -0.8193 -0.1525
 3920TIP3    H233396   3.331   2.834   7.798 -2.0365 -0.2554 -1.8377
 3921TIP3   OH233397   1.121   3.898   0.799 -0.0709 -0.1431 -0.7335
 3921TIP3    H133398   1.041   3.881   0.750 -0.6974 -0.5873  0.4139
 3921TIP3    H233399   1.112   3.847   0.880  1.1075  0.2578 -0.3187
 3922TIP3   OH233400   3.725   1.744   0.068 -0.3599 -0.4230  0.2839
 3922TIP3    H133401   3.688   1.657   0.071 -2.2969  0.3438 -0.0817
 3922TIP3    H233402   3.690   1.788   0.146 -1.6716  0.8420 -0.9691
 3923TIP3   OH233403   3.049   1.677   1.593  0.2297 -0.4468  0.1351
 3923TIP3    H133404   3.079   1.767   1.582  4.0761 -1.2213  2.5108
 3923TIP3    H233405   2.993   1.679   1.671 -2.2242  0.2241 -1.5297
 3924TIP3   OH233406   0.275   0.211   7.874 -0.4145  0.5818  0.2752
 3924TIP3    H133407   0.291   0.200   7.968 -2.5739  0.8420  0.7188
 3924TIP3    H233408   0.358   0.246   7.839  0.4487  0.4077  2.0446
 3925TIP3   OH233409   2.838   5.167   7.131 -0.4124  0.1012 -0.1248
 3925TIP3    H133410   2.888   5.096   7.171 -1.7833 -0.6280  0.3702
 3925TIP3    H233411   2.790   5.125   7.060  1.2127  1.1893 -1.9471
 3926TIP3   OH233412   5.979   6.368   8.145 -0.5928  0.3054  0.5313
 3926TIP3    H133413   5.934   6.297   8.191  0.5005  0.5472  2.0736
 3926TIP3    H233414   5.994   6.434   8.213 -0.2993  1.3710 -0.5543
 3927TIP3   OH233415   6.883   6.197   7.995  0.0561 -0.2575  0.5167
 3927TIP3    H133416   6.915   6.141   8.065  1.1235 -2.4269 -1.5639
 3927TIP3    H233417   6.939   6.275   7.997 -0.1196 -0.1413  2.1674
 3928TIP3   OH233418   4.552   2.721   1.637 -0.6492  0.9359 -0.4282
 3928TIP3    H133419   4.539   2.800   1.585 -0.4262  1.5388  0.4201
 3928TIP3    H233420   4.619   2.745   1.701 -0.5423  0.0428 -0.1958
 3929TIP3   OH233421   4.175   3.606   7.291 -0.3960  0.4486  0.5272
 3929TIP3    H133422   4.112   3.652   7.347 -1.2671 -0.7186  0.5727
 3929TIP3    H233423   4.181   3.519   7.331 -1.7314 -0.7356 -1.6467
 3930TIP3   OH233424   3.641   4.557   8.373 -0.0543 -0.5071  0.5404
 3930TIP3    H133425   3.651   4.473   8.328 -0.2488 -1.2733  1.8738
 3930TIP3    H233426   3.680   4.542   8.459  0.9516  1.1276  0.4209
 3931TIP3   OH233427   0.867   5.407   7.955  0.0305  0.3843  0.1049
 3931TIP3    H133428   0.776   5.414   7.983  0.0624  0.2202  0.2474
 3931TIP3    H233429   0.895   5.320   7.983 -0.5001 -0.5633 -2.0848
 3932TIP3   OH233430   3.897   4.299   1.061  0.0420  0.0144  0.7080
 3932TIP3    H133431   3.960   4.253   1.117  0.3891 -1.2637 -0.6768
 3932TIP3    H233432   3.854   4.230   1.011 -1.6195  0.9705  0.7341
 3933TIP3   OH233433   5.822   5.398   1.526  0.1268  0.1817  0.4268
 3933TIP3    H133434   5.854   5.485   1.505 -0.7165  0.4027  0.0200
 3933TIP3    H233435   5.732   5.397   1.494  0.0195 -0.7261  0.7261
 3934TIP3   OH233436   5.252   1.568   7.332 -0.6369 -0.1347  0.1650
 3934TIP3    H133437   5.319   1.529   7.387 -1.3823 -0.2787  0.9829
 3934TIP3    H233438   5.209   1.634   7.387 -1.7828 -0.6870 -0.0310
 3935TIP3   OH233439   6.086   1.609   2.054  0.1616 -0.5509 -0.1114
 3935TIP3    H133440   6.150   1.549   2.094 -0.2495 -0.6863  0.3479
 3935TIP3    H233441   6.139   1.683   2.024  0.3454  0.1013  1.7218
 3936TIP3   OH233442   6.455   3.629   6.449 -0.0646 -0.2939 -0.0284
 3936TIP3    H133443   6.481   3.626   6.356  0.4922  1.9361 -0.0052
 3936TIP3    H233444   6.537   3.645   6.496 -0.4268 -0.8387  0.8143
 3937TIP3   OH233445   2.505   0.582   1.169  0.2197  0.2778 -0.4662
 3937TIP3    H133446   2.501   0.532   1.250  0.7194  0.4013 -0.3609
 3937TIP3    H233447   2.534   0.519   1.103  0.2654  0.2860 -0.4541
 3938TIP3   OH233448   6.112   6.558   0.571 -0.2857 -0.6404  0.0602
 3938TIP3    H133449   6.188   6.586   0.521  0.4118 -1.2259  0.7730
 3938TIP3    H233450   6.087   6.475   0.533 -1.5138  0.2395 -1.1524
 3939TIP3   OH233451   2.011   2.752   1.610 -0.2906 -0.3708 -0.3730
 3939TIP3    H133452   2.090   2.796   1.578 -0.4226 -1.0991 -1.8030
 3939TIP3    H233453   1.939   2.797   1.566 -0.4893 -1.2808 -1.0188
 3940TIP3   OH233454   4.383   5.465   8.567  0.0833  0.2169 -0.7848
 3940TIP3    H133455   4.394   5.371   8.582 -0.4119 -0.3191 -3.2332
 3940TIP3    H233456   4.459   5.505   8.609  1.0088 -1.4102 -0.7987
 3941TIP3   OH233457   5.393   2.315   0.374  0.3156 -0.7012  0.0725
 3941TIP3    H133458   5.324   2.274   0.322  1.1028 -1.8647 -0.0763
 3941TIP3    H233459   5.346   2.362   0.443 -0.6424 -0.9801 -0.3754
 3942TIP3   OH233460   0.448   1.141   2.360 -0.2953 -0.2424  0.1456
 3942TIP3    H133461   0.469   1.233   2.375  0.2655 -0.5394  1.2729
 3942TIP3    H233462   0.353   1.141   2.345 -0.0835  0.6897 -1.5393
 3943TIP3   OH233463   0.296   6.705   0.808 -0.2076  0.6213  0.2947
 3943TIP3    H133464   0.311   6.790   0.849  0.0957  0.5988  0.2366
 3943TIP3    H233465   0.258   6.652   0.878 -0.1571  0.7302  0.4077
 3944TIP3   OH233466   5.671   5.147   7.238 -0.2165 -0.4728 -0.2270
 3944TIP3    H133467   5.709   5.183   7.158  0.6980 -0.4247  0.2154
 3944TIP3    H233468   5.721   5.067   7.254 -1.3027 -1.2120 -0.4384
 3945TIP3   OH233469   0.088   1.366   2.287 -0.7781 -0.1333 -0.3908
 3945TIP3    H133470   0.133   1.290   2.325 -1.0283 -0.1501 -0.1283
 3945TIP3    H233471   0.137   1.385   2.207  0.3253  0.4731  0.4017
 3946TIP3   OH233472   3.598   3.862   8.084 -0.6117  0.6066  0.5830
 3946TIP3    H133473   3.693   3.876   8.091 -0.6360  0.1894  2.2418
 3946TIP3    H233474   3.586   3.821   7.998  0.1361  4.7480 -1.7617
 3947TIP3   OH233475   1.124   5.204   0.837 -0.2241 -0.6708  0.8396
 3947TIP3    H133476   1.168   5.175   0.757 -1.8594 -1.5399  0.1949
 3947TIP3    H233477   1.164   5.152   0.906 -0.1006 -1.3108  0.3010
 3948TIP3   OH233478   1.638   5.627   1.368 -0.4191 -0.2350  0.0123
 3948TIP3    H133479   1.712   5.586   1.325  1.6728  1.3411  1.8862
 3948TIP3    H233480   1.580   5.554   1.391  0.8104 -1.5801 -0.9898
 3949TIP3   OH233481   1.156   6.370   2.025  0.6588 -0.0812  0.5708
 3949TIP3    H133482   1.103   6.390   2.103  0.0898 -1.0953  0.4526
 3949TIP3    H233483   1.120   6.288   1.991  0.5621  0.5955 -1.0664
 3950TIP3   OH233484   6.514   2.393   7.700 -0.0327  0.7066  0.2538
 3950TIP3    H133485   6.573   2.396   7.775  0.9239  0.9230 -0.4990
 3950TIP3    H233486   6.554   2.450   7.635 -2.0557  2.4365  0.3973
 3951TIP3   OH233487   5.098   4.905   7.420  0.3359 -0.2591 -0.3618
 3951TIP3    H133488   5.160   4.943   7.357  1.6686 -2.5349 -0.5281
 3951TIP3    H233489   5.023   4.879   7.367  0.5775 -0.3287 -0.6726
 3952TIP3   OH233490   1.646   0.797   2.619  0.0165  0.3099  0.5736
 3952TIP3    H133491   1.700   0.732   2.664  0.2807  0.3310  0.2909
 3952TIP3    H233492   1.561   0.791   2.662  0.2543  0.3037  1.0498
 3953TIP3   OH233493   3.724   3.798   1.913  0.2172 -0.2805  0.0067
 3953TIP3    H133494   3.795   3.808   1.976 -1.7803 -0.4624  2.4090
 3953TIP3    H233495   3.742   3.864   1.846  1.3606  1.3506  1.8230
 3954TIP3   OH233496   1.312   1.573   6.842  0.0607  0.3016 -0.4666
 3954TIP3    H133497   1.243   1.545   6.903  1.6389 -0.3652  1.0792
 3954TIP3    H233498   1.303   1.668   6.839 -0.2258  0.3271  0.6088
 3955TIP3   OH233499   6.023   0.464   0.527  0.0252 -0.0533 -0.3238
 3955TIP3    H133500   6.078   0.503   0.595 -0.2341  1.3089 -0.8601
 3955TIP3    H233501   5.940   0.447   0.571  0.7367 -1.8413  0.4115
 3956TIP3   OH233502   2.646   3.110   1.168  0.0583 -0.0576  0.2560
 3956TIP3    H133503   2.665   3.028   1.212  0.2266 -1.1675 -1.7428
 3956TIP3    H233504   2.569   3.145   1.213 -0.0872 -1.3809  1.0729
 3957TIP3   OH233505   6.619   3.493   7.014  0.6937  0.3776  0.4803
 3957TIP3    H133506   6.572   3.555   7.069 -1.0441  0.0901 -0.6081
 3957TIP3    H233507   6.569   3.412   7.020  2.5933 -0.8130  1.4113
 3958TIP3   OH233508   3.473   2.701   6.886 -0.2864  0.5488 -0.4682
 3958TIP3    H133509   3.381   2.723   6.899 -0.0236  1.3546  0.1358
 3958TIP3    H233510   3.472   2.621   6.833 -1.3323  0.2353  0.0114
 3959TIP3   OH233511   0.172   3.852   0.924 -0.1858 -0.1197  0.3770
 3959TIP3    H133512   0.186   3.826   0.833 -2.5232 -0.7537  0.1362
 3959TIP3    H233513   0.207   3.780   0.976 -2.0414 -1.4865 -0.1695
 3960TIP3   OH233514   4.616   1.880   7.745  0.7299 -0.0537 -0.0254
 3960TIP3    H133515   4.574   1.883   7.659  4.4166  0.8200 -1.9782
 3960TIP3    H233516   4.639   1.788   7.758  1.4852  0.0408 -0.6805
 3961TIP3   OH233517   3.521   3.970   1.975 -0.3719 -0.2210  0.2287
 3961TIP3    H133518   3.585   3.916   1.929 -0.1189  0.3275 -0.0741
 3961TIP3    H233519   3.441   3.960   1.924 -0.2776 -0.1683  0.0673
 3962TIP3   OH233520   0.134   3.422   7.807 -0.1893  0.4426 -0.6078
 3962TIP3    H133521   0.063   3.442   7.745 -0.0593 -0.6214 -1.1379
 3962TIP3    H233522   0.146   3.502   7.857 -0.9499  1.0272 -1.3290
 3963TIP3   OH233523   3.408   3.355   8.305  0.5543  0.0048  0.3915
 3963TIP3    H133524   3.431   3.315   8.389  0.1458 -0.3051  0.3590
 3963TIP3    H233525   3.359   3.288   8.259 -0.7411  0.7654  0.6106
 3964TIP3   OH233526   5.184   3.916   6.583 -0.3505  0.1883  0.4132
 3964TIP3    H133527   5.143   4.001   6.602  0.4557  0.6973 -0.0516
 3964TIP3    H233528   5.115   3.865   6.541 -0.6509  0.8591  0.0794
 3965TIP3   OH233529   1.801   1.839   1.549 -0.1286  0.2896 -0.2583
 3965TIP3    H133530   1.870   1.877   1.493  0.4769  0.1485  0.3813
 3965TIP3    H233531   1.846   1.772   1.599 -1.2374 -1.4865 -1.5396
 3966TIP3   OH233532   1.304   5.239   6.984 -0.5421  0.6130 -0.1548
 3966TIP3    H133533   1.341   5.264   6.900  1.5594  2.2036  1.1270
 3966TIP3    H233534   1.214   5.273   6.983 -0.5671  0.5388 -1.7385
 3967TIP3   OH233535   3.949   0.828   7.249 -0.5676  0.2547  0.2483
 3967TIP3    H133536   3.939   0.786   7.163  0.9998 -1.9985  1.0560
 3967TIP3    H233537   3.938   0.921   7.231 -1.3286 -0.2180 -2.2094
 3968TIP3   OH233538   6.507   6.302   2.603  0.5229 -0.7623  0.0498
 3968TIP3    H133539   6.509   6.397   2.600 -0.0477 -0.7572 -1.5536
 3968TIP3    H233540   6.516   6.275   2.511  0.3206 -2.2450  0.4291
 3969TIP3   OH233541   0.858   1.608   7.290 -0.1070 -0.0976  0.2979
 3969TIP3    H133542   0.836   1.666   7.363  0.1460  0.6875 -0.2379
 3969TIP3    H233543   0.948   1.581   7.307 -0.4865 -0.9683  0.9581
 3970TIP3   OH233544   2.299   3.544   1.709  0.9080  0.2111  0.8889
 3970TIP3    H133545   2.297   3.626   1.757 -0.7725  1.6757 -1.4478
 3970TIP3    H233546   2.341   3.566   1.626  0.7352 -1.3612  0.3525
 3971TIP3   OH233547   4.186   0.908   7.812  0.0103  0.0596 -0.1697
 3971TIP3    H133548   4.178   0.817   7.785 -0.5520  0.2423 -0.6542
 3971TIP3    H233549   4.125   0.917   7.885 -2.5598  0.8400 -2.2628
 3972TIP3   OH233550   4.053   1.874   8.438 -0.4373  0.7447  0.3051
 3972TIP3    H133551   4.128   1.844   8.387 -0.5183 -0.9329  1.1188
 3972TIP3    H233552   4.092   1.912   8.517 -0.4287  0.1303  0.5981
 3973TIP3   OH233553   0.776   4.405   7.158 -0.1325  0.9176  0.0566
 3973TIP3    H133554   0.767   4.457   7.078 -1.7691  3.2452  1.6175
 3973TIP3    H233555   0.690   4.363   7.168 -0.2122  1.2845  0.9778
 3974TIP3   OH233556   0.111   1.518   8.243 -0.2334 -0.4940 -0.0502
 3974TIP3    H133557   0.026   1.492   8.208 -0.2476  0.5213 -0.8087
 3974TIP3    H233558   0.111   1.486   8.333 -0.7699 -1.9164 -0.5264
 3975TIP3   OH233559   1.849   1.081   2.186  0.0499  0.0856  0.6476
 3975TIP3    H133560   1.801   1.025   2.247  0.9231 -1.0285  0.3367
 3975TIP3    H233561   1.940   1.079   2.217  0.2510  0.6429  0.1263
 3976TIP3   OH233562   0.936   1.389   0.354 -0.3467 -0.2026  0.4489
 3976TIP3    H133563   0.917   1.482   0.349  1.6550  0.2399  0.3300
 3976TIP3    H233564   0.997   1.381   0.427  0.4051 -1.2599 -0.2706
 3977TIP3   OH233565   2.709   1.013   7.667  0.5502 -0.1372 -0.4786
 3977TIP3    H133566   2.659   0.944   7.623  2.5674 -1.7586 -0.4021
 3977TIP3    H233567   2.730   1.075   7.598 -0.1869 -0.2642 -0.8282
 3978TIP3   OH233568   1.197   6.211   7.361  0.4321  0.5695 -0.4787
 3978TIP3    H133569   1.187   6.131   7.310  1.1845  1.1014 -1.5095
 3978TIP3    H233570   1.265   6.190   7.425 -0.1052  0.0747 -0.0634
 3979TIP3   OH233571   5.695   2.330   1.287  0.1527 -0.6573  0.1668
 3979TIP3    H133572   5.790   2.331   1.300  0.1051  0.7031  0.5104
 3979TIP3    H233573   5.659   2.365   1.368 -0.5268  0.7689 -0.7275
 3980TIP3   OH233574   4.452   1.336   2.098  0.0530 -0.3340 -0.0038
 3980TIP3    H133575   4.409   1.413   2.061 -0.3450 -0.0037  1.1029
 3980TIP3    H233576   4.490   1.291   2.023 -1.9204 -0.4542 -0.9997
 3981TIP3   OH233577   1.010   4.324   7.950  0.7619  0.1451  0.2535
 3981TIP3    H133578   1.072   4.362   8.013 -0.1741 -1.2845  2.1729
 3981TIP3    H233579   0.924   4.345   7.986  0.1286  0.6223 -1.4445
 3982TIP3   OH233580   6.597   1.006   7.310 -0.5356  0.4020  1.1065
 3982TIP3    H133581   6.625   1.072   7.374 -2.1215  2.9108 -0.6316
 3982TIP3    H233582   6.504   1.023   7.296 -0.7212 -1.4403 -0.3509
 3983TIP3   OH233583   4.966   6.706   0.357  0.0343  0.1030  0.0588
 3983TIP3    H133584   4.934   6.649   0.287 -1.0364 -0.8624  1.2852
 3983TIP3    H233585   4.945   6.795   0.327  0.4294 -0.2133 -1.2350
 3984TIP3   OH233586   1.686   1.264   8.027 -0.1316  0.3351  0.8782
 3984TIP3    H133587   1.768   1.235   7.987 -0.5833  2.5273 -1.9241
 3984TIP3    H233588   1.620   1.205   7.990 -0.4498  1.9215 -1.2971
 3985TIP3   OH233589   2.152   1.097   2.847  0.0151  0.2669 -0.5774
 3985TIP3    H133590   2.072   1.111   2.898  0.6796  1.1259  0.2561
 3985TIP3    H233591   2.192   1.019   2.887 -0.3712 -0.1450 -0.9750
 3986TIP3   OH233592   0.917   4.872   0.160 -0.6998 -0.1162 -0.2645
 3986TIP3    H133593   0.897   4.963   0.184 -0.5659 -0.6263  2.0764
 3986TIP3    H233594   0.832   4.829   0.154 -0.7208 -0.0989 -0.1113
 3987TIP3   OH233595   0.795   5.108   0.210 -0.5751  0.3777 -0.0365
 3987TIP3    H133596   0.814   5.173   0.277 -0.0020  0.5813 -0.3926
 3987TIP3    H233597   0.712   5.136   0.171 -0.7504  0.4298  0.3640
 3988TIP3   OH233598   6.853   0.967   2.572 -0.2478 -0.5457 -0.0226
 3988TIP3    H133599   6.865   1.062   2.576 -0.2577 -0.5845  2.1169
 3988TIP3    H233600   6.939   0.933   2.548  0.0753 -0.0547  0.4142
 3989TIP3   OH233601   3.228   4.984   1.877  0.2692 -0.5487  0.1907
 3989TIP3    H133602   3.266   5.033   1.950 -0.4065  0.2436  0.0126
 3989TIP3    H233603   3.141   4.958   1.907 -0.4773  0.7689 -0.7279
 3990TIP3   OH233604   5.085   3.906   1.008  0.0135  0.0692  0.1602
 3990TIP3    H133605   5.154   3.969   1.031  1.1384 -0.0285 -2.5469
 3990TIP3    H233606   5.127   3.847   0.945 -2.1476 -0.9459 -0.4078
 3991TIP3   OH233607   3.016   0.322   1.927  0.2896 -0.2809 -0.1441
 3991TIP3    H133608   2.980   0.406   1.955 -1.9442 -1.5164  0.9736
 3991TIP3    H233609   3.028   0.331   1.833 -0.9510  0.9337 -0.2146
 3992TIP3   OH233610   3.320   6.457   1.966 -0.2867  0.0143  0.0838
 3992TIP3    H133611   3.333   6.441   2.059  2.1728 -0.3368 -0.2441
 3992TIP3    H233612   3.263   6.387   1.937 -2.1550  0.8542  1.5174
 3993TIP3   OH233613   1.737   5.995   6.899  0.3352 -0.0793  0.8131
 3993TIP3    H133614   1.747   6.086   6.928  3.6109 -0.5064  1.4716
 3993TIP3    H233615   1.789   5.945   6.962 -0.0918 -2.2232 -0.4592
 3994TIP3   OH233616   4.592   1.521   7.512 -0.3237 -0.3151 -0.3063
 3994TIP3    H133617   4.609   1.429   7.491 -1.4442 -1.3744  2.8761
 3994TIP3    H233618   4.519   1.546   7.454  0.0411 -1.3761 -1.2584
 3995TIP3   OH233619   2.661   4.356   7.194  0.2545 -0.1542 -0.6524
 3995TIP3    H133620   2.706   4.375   7.112 -0.9961  1.9859 -0.9397
 3995TIP3    H233621   2.568   4.361   7.171 -0.1136  0.5419  0.8755
 3996TIP3   OH233622   3.171   4.434   0.225 -0.3455  0.4219  0.2040
 3996TIP3    H133623   3.258   4.400   0.205 -0.3064  0.0335  0.9929
 3996TIP3    H233624   3.159   4.506   0.163  0.8649  1.0112  0.6148
 3997TIP3   OH233625   5.640   5.472   0.460  0.0936  0.4099  0.0675
 3997TIP3    H133626   5.558   5.500   0.418  0.2838  0.8625 -0.0075
 3997TIP3    H233627   5.669   5.549   0.509 -0.5526 -0.3689  1.7271
 3998TIP3   OH233628   6.044   2.377   0.319 -0.0003  0.1902 -0.2579
 3998TIP3    H133629   6.081   2.346   0.402  0.0523  1.1747  0.0927
 3998TIP3    H233630   6.120   2.385   0.261  0.3854  2.2270  0.4681
 3999TIP3   OH233631   2.338   4.776   0.943  0.6811 -0.2133 -0.1214
 3999TIP3    H133632   2.291   4.799   1.024 -0.4239  0.0130 -0.8003
 3999TIP3    H233633   2.286   4.816   0.874  2.8761  1.5690 -0.8250
 4000TIP3   OH233634   0.588   2.597   2.068  0.2908  0.2724  0.4203
 4000TIP3    H133635   0.663   2.572   2.122 -1.3193 -1.6642  1.9289
 4000TIP3    H233636   0.524   2.630   2.131 -1.0895 -0.6397 -0.4609
 4001TIP3   OH233637   3.493   2.476   1.105  0.5036  0.2737  0.3019
 4001TIP3    H133638   3.526   2.557   1.065 -0.1007 -0.0806 -0.9892
 4001TIP3    H233639   3.544   2.407   1.063 -0.9670 -0.1940 -0.7913
 4002TIP3   OH233640   5.120   5.509   8.488 -0.2261 -0.1198  0.5454
 4002TIP3    H133641   5.113   5.524   8.582  1.7094  1.9911  0.4433
 4002TIP3    H233642   5.087   5.589   8.448  0.6558 -0.2413 -0.4823
 4003TIP3   OH233643   0.222   6.501   0.980 -1.3813  0.2577 -0.0020
 4003TIP3    H133644   0.311   6.502   1.017 -1.2656  1.1395 -0.2754
 4003TIP3    H233645   0.213   6.414   0.941 -0.8712 -0.0671  0.5818
 4004TIP3   OH233646   4.773   5.136   8.000  0.2376  0.1828 -0.1057
 4004TIP3    H133647   4.781   5.231   7.999 -1.6909  0.3769 -1.4013
 4004TIP3    H233648   4.830   5.108   8.071 -0.6175  2.4636  1.5990
 4005TIP3   OH233649   0.149   3.723   7.648 -0.0947 -0.5497 -0.5369
 4005TIP3    H133650   0.174   3.678   7.567  1.3255 -0.9705  0.1002
 4005TIP3    H233651   0.221   3.784   7.664  0.4424 -1.5654  1.1994
 4006TIP3   OH233652   5.527   0.455   8.024 -0.1106  0.1356  0.1671
 4006TIP3    H133653   5.537   0.425   8.115 -1.9062 -0.5567  0.1664
 4006TIP3    H233654   5.511   0.375   7.974  0.2956  0.5730 -0.6798
 4007TIP3   OH233655   4.747   4.130   6.759  0.2790 -0.1969 -0.0240
 4007TIP3    H133656   4.782   4.168   6.678  1.8951  0.5329  0.9654
 4007TIP3    H233657   4.747   4.036   6.743 -0.5783 -0.0125 -1.2890
 4008TIP3   OH233658   5.166   2.030   2.895  0.5966 -0.5163  0.0216
 4008TIP3    H133659   5.253   2.068   2.908  1.0352 -1.6879  0.6544
 4008TIP3    H233660   5.178   1.936   2.908 -0.8038 -0.6800  0.3273
 4009TIP3   OH233661   6.825   2.013   7.912 -0.0097 -0.0205 -0.3379
 4009TIP3    H133662   6.788   1.981   7.829 -1.6845  0.5669  0.1365
 4009TIP3    H233663   6.919   2.012   7.898  0.0007 -3.4701 -0.9463
 4010TIP3   OH233664   3.309   5.449   1.782 -0.2837 -0.0947  0.5141
 4010TIP3    H133665   3.348   5.534   1.799 -1.0580  0.6831 -1.3544
 4010TIP3    H233666   3.243   5.465   1.714 -1.6620 -1.8872  1.3240
 4011TIP3   OH233667   0.611   1.994   0.678  0.3424 -0.3009 -0.1526
 4011TIP3    H133668   0.607   2.058   0.749  1.9021  0.8599 -1.0280
 4011TIP3    H233669   0.587   1.911   0.719  0.2196  0.4944  1.4902
 4012TIP3   OH233670   0.884   4.257   6.657 -0.1066 -0.2964  0.6341
 4012TIP3    H133671   0.942   4.269   6.582 -0.4562 -0.5428  0.3207
 4012TIP3    H233672   0.880   4.344   6.698  0.2697 -0.2151  0.5062
 4013TIP3   OH233673   4.708   2.766   7.646 -0.3559 -0.7922  0.0013
 4013TIP3    H133674   4.714   2.671   7.646  2.4756 -0.7554  2.4654
 4013TIP3    H233675   4.635   2.785   7.706  0.4106 -1.4487  1.1796
 4014TIP3   OH233676   4.754   1.156   8.392 -0.7963 -0.1360  0.4008
 4014TIP3    H133677   4.676   1.122   8.348  0.6622 -1.9892 -0.9075
 4014TIP3    H233678   4.811   1.184   8.321  0.3164 -0.1184  1.2785
 4015TIP3   OH233679   4.763   4.537   0.495 -0.0571  0.3576 -0.2037
 4015TIP3    H133680   4.770   4.596   0.570  1.6434 -0.7235  0.5259
 4015TIP3    H233681   4.697   4.473   0.521 -0.8552  1.0742 -0.4194
 4016TIP3   OH233682   6.819   4.302   7.533  0.5271  0.2356 -0.0274
 4016TIP3    H133683   6.805   4.326   7.441 -0.1020 -0.2406 -0.0620
 4016TIP3    H233684   6.737   4.325   7.577  0.2291 -1.0127  0.1029
 4017TIP3   OH233685   4.593   1.002   6.884  0.6339  0.0938 -0.5246
 4017TIP3    H133686   4.666   0.946   6.914  0.7927  0.8788  0.6137
 4017TIP3    H233687   4.597   1.078   6.942 -1.2418  0.0436 -0.2880
 4018TIP3   OH233688   5.510   2.544   2.318 -0.3624  0.1088  0.5733
 4018TIP3    H133689   5.552   2.533   2.233  0.5830 -1.4306  1.1835
 4018TIP3    H233690   5.450   2.618   2.307 -0.2331 -0.0388 -1.4017
 4019TIP3   OH233691   1.655   3.308   8.003  0.4089  0.4153  0.1658
 4019TIP3    H133692   1.611   3.312   8.088  1.8113  1.8854  0.8816
 4019TIP3    H233693   1.601   3.363   7.946 -0.2053 -0.0841  0.2522
 4020TIP3   OH233694   1.727   1.643   0.752  0.2361 -0.0432  0.2593
 4020TIP3    H133695   1.639   1.678   0.767  1.5575  2.6940  2.8041
 4020TIP3    H233696   1.713   1.552   0.727 -3.5018  1.4742 -4.7552
 4021TIP3   OH233697   5.482   4.108   7.249 -0.5674 -0.2834  0.0014
 4021TIP3    H133698   5.413   4.045   7.266 -0.6607  0.0876  1.0702
 4021TIP3    H233699   5.437   4.182   7.208 -0.9004  0.1459  1.1078
 4022TIP3   OH233700   0.139   4.858   8.230 -0.1947  0.4056  0.3137
 4022TIP3    H133701   0.207   4.920   8.257  0.4931 -0.0055 -0.4201
 4022TIP3    H233702   0.093   4.836   8.311 -0.1956  1.5572  0.6461
 4023TIP3   OH233703   0.009   3.522   0.188  0.4571  0.2675 -0.2998
 4023TIP3    H133704  -0.039   3.492   0.265  1.6468 -0.7242  0.0902
 4023TIP3    H233705   0.093   3.554   0.223  1.7965 -1.9308 -1.3015
 4024TIP3   OH233706   4.910   6.242   7.797 -0.5080  0.2989 -0.5085
 4024TIP3    H133707   4.820   6.210   7.795 -0.2836 -0.4778  0.8322
 4024TIP3    H233708   4.963   6.164   7.781 -0.0582  0.6942 -0.9735
 4025TIP3   OH233709   4.220   4.233   1.800 -0.0953 -0.0814  0.6605
 4025TIP3    H133710   4.274   4.206   1.874 -0.7658  1.7026  1.8630
 4025TIP3    H233711   4.279   4.283   1.744 -0.5602  2.4308  2.3010
 4026TIP3   OH233712   6.767   3.599   2.580  0.6370  0.2554  0.2808
 4026TIP3    H133713   6.741   3.563   2.665 -0.7407  1.4594  0.4114
 4026TIP3    H233714   6.704   3.669   2.563  0.3174 -0.5362 -2.1653
 4027TIP3   OH233715   3.814   5.636   2.015 -0.5350 -0.2203  0.1356
 4027TIP3    H133716   3.853   5.634   2.103  0.1208  2.6936  0.0077
 4027TIP3    H233717   3.883   5.605   1.957  0.6281  1.9088  0.2662
 4028TIP3   OH233718   5.226   4.643   1.445  0.4993  1.1645 -0.1763
 4028TIP3    H133719   5.151   4.631   1.386  1.1918  0.1512 -0.8846
 4028TIP3    H233720   5.189   4.682   1.524 -0.3201  3.6590 -1.6738
 4029TIP3   OH233721   4.849   4.614   2.467  0.0769 -0.4960 -0.0630
 4029TIP3    H133722   4.792   4.537   2.465 -0.8126  0.1140  0.5872
 4029TIP3    H233723   4.794   4.685   2.434 -0.0136  0.3608  1.7683
 4030TIP3   OH233724   6.893   1.213   7.392 -0.1380  0.1999 -0.4613
 4030TIP3    H133725   6.967   1.229   7.450 -2.9890  4.4230  2.5412
 4030TIP3    H233726   6.924   1.241   7.306  2.0750  0.7495  0.4500
 4031TIP3   OH233727   2.847   4.450   6.952  0.3274  0.1071  0.0098
 4031TIP3    H133728   2.942   4.449   6.958  0.3860  0.7993 -0.6908
 4031TIP3    H233729   2.828   4.501   6.873 -0.6769  1.4622  1.0766
 4032TIP3   OH233730   4.759   3.864   1.594 -0.5131 -0.1196  0.1081
 4032TIP3    H133731   4.754   3.918   1.673  0.6458  1.3923 -0.7994
 4032TIP3    H233732   4.832   3.804   1.610 -0.0851  0.3869  0.0801
 4033TIP3   OH233733   1.197   4.692   7.856 -0.4056  0.0789 -0.2041
 4033TIP3    H133734   1.152   4.649   7.783  0.4481  2.3245 -2.1798
 4033TIP3    H233735   1.126   4.719   7.915 -1.1387 -1.5661 -0.2698
 4034TIP3   OH233736   0.657   0.984   0.354 -0.4090  0.2471 -0.3082
 4034TIP3    H133737   0.701   1.054   0.305 -1.2736  0.0968 -1.3387
 4034TIP3    H233738   0.720   0.911   0.353 -0.0571  0.5488 -0.4216
 4035TIP3   OH233739   5.689   0.800   8.515  0.1510  0.4753 -0.1000
 4035TIP3    H133740   5.757   0.781   8.579  0.5793  3.3841  0.4607
 4035TIP3    H233741   5.737   0.823   8.435 -0.1558  1.4465 -0.0272
 4036TIP3   OH233742   1.961   2.792   8.480 -0.0242  0.1061 -0.3434
 4036TIP3    H133743   1.871   2.769   8.505  0.2479  1.0331  1.6833
 4036TIP3    H233744   1.981   2.870   8.531  1.9038  0.0085 -0.8712
 4037TIP3   OH233745   6.540   6.532   0.578 -0.9563  0.1932 -0.1807
 4037TIP3    H133746   6.599   6.603   0.600 -0.8624 -0.5350  2.1574
 4037TIP3    H233747   6.484   6.568   0.509  0.2694  1.8760 -0.3622
 4038TIP3   OH233748   4.258   4.305   0.231  0.1461  0.1952  0.4813
 4038TIP3    H133749   4.320   4.238   0.262  0.9144  0.4943 -0.3949
 4038TIP3    H233750   4.173   4.260   0.231  0.3114 -0.1712  1.8447
 4039TIP3   OH233751   0.236   3.633   1.104  0.0077  0.1679  0.3765
 4039TIP3    H133752   0.255   3.540   1.115  0.4667  0.4096  1.7749
 4039TIP3    H233753   0.222   3.665   1.193 -0.5927  1.3500 -0.1291
 4040TIP3   OH233754   2.269   6.740   2.924  0.4827  0.3831  0.1773
 4040TIP3    H133755   2.244   6.829   2.900  1.1239  0.1624 -1.4035
 4040TIP3    H233756   2.285   6.695   2.841 -1.1853 -1.6418  0.8589
 4041TIP3   OH233757   2.320   6.448   6.901  0.4009  0.3062  0.9819
 4041TIP3    H133758   2.364   6.364   6.912  0.6458  0.4758  1.3061
 4041TIP3    H233759   2.228   6.429   6.922  0.2000 -0.1705 -0.2422
 4042TIP3   OH233760   3.988   0.264   1.760 -0.5619  0.5062 -0.0763
 4042TIP3    H133761   3.923   0.278   1.691  0.4467 -0.2245 -1.2401
 4042TIP3    H233762   4.020   0.174   1.745 -1.2757 -0.2038  2.2209
 4043TIP3   OH233763   4.236   1.895   1.517  0.5083  0.0438  0.0358
 4043TIP3    H133764   4.285   1.934   1.589  0.2858 -0.4075  0.4410
 4043TIP3    H233765   4.232   1.963   1.450  1.4316  0.1800  0.1142
 4044TIP3   OH233766   1.284   3.867   0.346  0.0142 -0.0860 -0.2870
 4044TIP3    H133767   1.253   3.777   0.352  2.5498 -1.0197 -0.2940
 4044TIP3    H233768   1.287   3.898   0.437  2.7553 -1.3873  0.1540
 4045TIP3   OH233769   5.943   0.850   0.907  0.7605 -0.0935  0.6156
 4045TIP3    H133770   5.936   0.876   0.998  0.1642  0.3210  0.4577
 4045TIP3    H233771   5.946   0.754   0.909 -1.0358 -0.1815  0.9853
 4046TIP3   OH233772   6.205   6.517   6.517 -0.1815  0.1234 -0.3352
 4046TIP3    H133773   6.258   6.470   6.453 -0.3840  0.3141 -0.6455
 4046TIP3    H233774   6.255   6.512   6.598  0.2185  0.1278 -0.5786
 4047TIP3   OH233775   5.067   4.656   7.208 -0.0410 -0.5928 -0.1495
 4047TIP3    H133776   5.073   4.651   7.304  0.8921 -0.1635 -0.1776
 4047TIP3    H233777   5.118   4.734   7.185 -2.3081  0.7716 -0.8133
 4048TIP3   OH233778   2.465   6.934   0.959  0.4437 -0.1171  0.2840
 4048TIP3    H133779   2.548   6.976   0.936  0.1197 -1.0557 -3.1969
 4048TIP3    H233780   2.401   7.004   0.957  0.7754  0.1973  0.5255
 4049TIP3   OH233781   5.497   1.328   1.874  0.1336  0.0427 -0.0473
 4049TIP3    H133782   5.432   1.271   1.917 -0.9957  1.3804  0.0923
 4049TIP3    H233783   5.575   1.273   1.867 -0.7205 -1.3360  0.6038
 4050TIP3   OH233784   6.058   3.189   7.426 -0.3675  0.2634  0.0117
 4050TIP3    H133785   6.012   3.107   7.438 -1.9150  1.2618  1.3738
 4050TIP3    H233786   5.989   3.254   7.415  0.7665  1.5629  0.2639
 4051TIP3   OH233787   5.817   5.653   7.243  0.4639 -0.3472 -0.3892
 4051TIP3    H133788   5.874   5.704   7.300 -0.0193  0.7693 -0.8889
 4051TIP3    H233789   5.845   5.562   7.256  0.3030 -0.1419  1.6943
 4052TIP3   OH233790   2.650   0.562   0.067 -0.2665  0.0605 -0.4477
 4052TIP3    H133791   2.731   0.561   0.016 -0.3594 -0.0919 -0.5930
 4052TIP3    H233792   2.661   0.634   0.129  0.8916 -1.2968  1.0142
 4053TIP3   OH233793   0.075   3.108   1.799  0.0438 -0.5986 -0.1079
 4053TIP3    H133794   0.042   3.032   1.751  0.6163 -1.1202  0.2989
 4053TIP3    H233795   0.007   3.128   1.863 -0.2972 -0.4982 -0.4946
 4054TIP3   OH233796   3.890   2.378   0.128 -0.3598  0.0550  0.3972
 4054TIP3    H133797   3.917   2.304   0.073  1.3015  0.6025  0.4087
 4054TIP3    H233798   3.899   2.455   0.071  0.7517  0.5597  1.2182
 4055TIP3   OH233799   5.671   4.529   7.138 -0.1029  0.0356 -0.2081
 4055TIP3    H133800   5.693   4.617   7.171 -0.3790 -0.3083  0.9534
 4055TIP3    H233801   5.615   4.545   7.062  2.8505  0.9184 -2.3675
 4056TIP3   OH233802   6.196   2.012   0.582  0.3412  0.2195 -0.2071
 4056TIP3    H133803   6.247   1.963   0.646  0.0114  1.5637  1.1594
 4056TIP3    H233804   6.242   2.096   0.574 -0.4251  0.6087 -0.6320
 4057TIP3   OH233805   3.166   5.962   7.198  0.1801 -0.0133  0.5792
 4057TIP3    H133806   3.136   6.024   7.132 -1.4778 -0.0249  1.2750
 4057TIP3    H233807   3.133   5.877   7.168 -1.2896  0.0923  1.7727
 4058TIP3   OH233808   2.157   2.562   2.147  0.3212  0.1378  0.2555
 4058TIP3    H133809   2.145   2.477   2.103 -0.3783 -0.0059  0.7019
 4058TIP3    H233810   2.072   2.580   2.187  0.8409  0.4178  1.2789
 4059TIP3   OH233811   2.925   3.492   0.038  0.2376 -0.1541  0.9281
 4059TIP3    H133812   2.928   3.402   0.003  1.9857  0.2232 -0.0120
 4059TIP3    H233813   2.838   3.523   0.014  0.2801 -0.9697 -0.4647
 4060TIP3   OH233814   1.438   0.880   2.902  0.6779  0.4123 -0.0984
 4060TIP3    H133815   1.491   0.839   2.971  0.5815  1.0043  0.3304
 4060TIP3    H233816   1.388   0.947   2.947  1.2016  1.3478 -0.8701
 4061TIP3   OH233817   5.302   0.011   0.272  0.1465 -0.1151  0.1000
 4061TIP3    H133818   5.245  -0.002   0.196  0.0898  1.6593 -0.1867
 4061TIP3    H233819   5.278  -0.060   0.332 -1.6634  0.0074 -0.4302
 4062TIP3   OH233820   6.467   0.444   0.417  0.2027  0.0563 -0.2033
 4062TIP3    H133821   6.439   0.373   0.359 -0.1265  1.1244 -1.4060
 4062TIP3    H233822   6.441   0.524   0.371  5.0143  1.2289 -1.5288
 4063TIP3   OH233823   4.680   4.016   0.749  0.0062 -0.6057 -0.2529
 4063TIP3    H133824   4.597   4.061   0.758  1.1417  1.4417  0.6645
 4063TIP3    H233825   4.678   3.948   0.816  0.0803  1.1709  1.6603
 4064TIP3   OH233826   3.303   2.664   0.825 -0.9256 -0.2043  0.9163
 4064TIP3    H133827   3.295   2.573   0.798 -0.6981  0.4998 -1.8349
 4064TIP3    H233828   3.213   2.696   0.830 -0.9633 -0.2751  0.6909
 4065TIP3   OH233829   5.765   0.351   1.829 -0.2670 -0.0381 -0.7194
 4065TIP3    H133830   5.733   0.390   1.747  0.3140 -0.6204 -1.2378
 4065TIP3    H233831   5.861   0.361   1.824 -0.2871  0.8908  0.3977
 4066TIP3   OH233832   0.013   2.981   8.261 -0.1169  0.2247 -0.1519
 4066TIP3    H133833  -0.036   2.940   8.332 -0.4025 -0.9712 -1.0071
 4066TIP3    H233834   0.033   2.909   8.201  2.4670  0.7006  0.0143
 4067TIP3   OH233835   0.971   4.963   1.348 -0.0494 -0.0757  0.0351
 4067TIP3    H133836   0.997   4.936   1.260 -0.1642  0.0566 -0.0409
 4067TIP3    H233837   0.989   5.057   1.350  2.6071 -0.5290  1.0932
 4068TIP3   OH233838   3.467   4.449   0.407 -0.0337 -0.1449 -0.3227
 4068TIP3    H133839   3.503   4.536   0.387  1.9710 -1.3136 -2.3277
 4068TIP3    H233840   3.438   4.415   0.322 -0.5038 -1.5607  0.3706
 4069TIP3   OH233841   6.680   3.337   0.611  0.3271  0.4531 -0.4276
 4069TIP3    H133842   6.631   3.387   0.676 -0.2831 -0.2964 -0.2841
 4069TIP3    H233843   6.614   3.310   0.547  0.3695 -1.2455  0.1913
 4070TIP3   OH233844   4.656   2.400   7.891 -0.5598  0.1734 -0.3840
 4070TIP3    H133845   4.582   2.361   7.845  0.1333 -2.5859  0.6606
 4070TIP3    H233846   4.731   2.384   7.833  0.1253 -2.3367  1.0137
 4071TIP3   OH233847   3.721   4.616   7.631  0.4160  0.2397  0.3360
 4071TIP3    H133848   3.750   4.692   7.681  2.8482  0.0245 -0.6337
 4071TIP3    H233849   3.773   4.618   7.551 -1.1372 -1.1654 -0.7987
 4072TIP3   OH233850   1.710   5.238   7.251  0.1067  0.8427  0.3061
 4072TIP3    H133851   1.756   5.198   7.178  1.3616 -0.0540  1.5418
 4072TIP3    H233852   1.617   5.231   7.228  0.1418 -3.4742  0.6895
 4073TIP3   OH233853   2.295   3.200   1.031 -0.0005 -0.4205  0.3853
 4073TIP3    H133854   2.242   3.140   0.978  1.1202 -0.8756 -0.2439
 4073TIP3    H233855   2.251   3.284   1.022 -0.7740 -0.8409  0.0975
 4074TIP3   OH233856   5.171   4.257   6.917 -0.0706 -0.3721 -0.4412
 4074TIP3    H133857   5.243   4.301   6.963 -0.5485 -0.8316  0.7693
 4074TIP3    H233858   5.102   4.324   6.911  0.1928 -0.1361 -1.0331
 4075TIP3   OH233859   5.429   2.403   7.874  0.1702 -0.2228 -0.2249
 4075TIP3    H133860   5.377   2.339   7.922 -1.5958  1.5091  0.2409
 4075TIP3    H233861   5.513   2.406   7.920 -0.5239 -0.5715  1.0875
 4076TIP3   OH233862   1.866   2.028   7.544 -0.7836 -0.4017  0.3071
 4076TIP3    H133863   1.934   2.048   7.607  0.3874 -0.1947 -0.9671
 4076TIP3    H233864   1.790   2.002   7.597 -0.4906  1.6552  1.8387
 4077TIP3   OH233865   5.475   3.560   2.026  0.6230 -0.7882  0.0132
 4077TIP3    H133866   5.551   3.619   2.021  1.5540 -1.9360  0.0846
 4077TIP3    H233867   5.427   3.589   2.103 -0.0901  1.1616 -1.0816
 4078TIP3   OH233868   4.976   4.935   6.929  0.6176  0.0607  0.5497
 4078TIP3    H133869   5.030   5.014   6.937 -1.2497  1.6389 -1.3099
 4078TIP3    H233870   4.889   4.962   6.959 -0.3745 -0.8497 -1.3342
 4079TIP3   OH233871   6.746   4.235   8.269 -0.0738  0.1305  0.5270
 4079TIP3    H133872   6.829   4.216   8.313 -0.5091 -0.4843  1.1242
 4079TIP3    H233873   6.746   4.329   8.256  0.7773  0.1143  0.3995
 4080TIP3   OH233874   5.790   0.381   0.154  0.0336  0.7868  0.1099
 4080TIP3    H133875   5.710   0.353   0.110  0.3491  0.0058  0.0056
 4080TIP3    H233876   5.803   0.471   0.126  0.7739  0.0290 -2.2730
 4081TIP3   OH233877   0.738   1.713   8.465  0.2482  0.3686  0.3233
 4081TIP3    H133878   0.816   1.662   8.486  0.8439  0.9169 -0.5153
 4081TIP3    H233879   0.721   1.765   8.544  1.5134  1.2177  0.0714
 4082TIP3   OH233880   5.114   5.235   1.757 -1.0059  0.7232 -0.0448
 4082TIP3    H133881   5.119   5.329   1.776 -0.6242  0.4231  1.4600
 4082TIP3    H233882   5.206   5.208   1.748 -1.1142  0.4760 -0.4203
 4083TIP3   OH233883   1.246   5.186   0.182  0.1707  0.4838  0.2288
 4083TIP3    H133884   1.156   5.210   0.158 -0.4511 -0.4758  1.4692
 4083TIP3    H233885   1.269   5.247   0.253 -0.3944 -0.7123  1.4943
 4084TIP3   OH233886   5.955   3.424   0.000 -0.1433 -0.0588 -0.2925
 4084TIP3    H133887   6.018   3.440   0.070  0.1139  0.9274 -0.7456
 4084TIP3    H233888   5.924   3.511  -0.025 -1.8040 -0.5247  0.0244
 4085TIP3   OH233889   3.217   2.678   7.191 -0.0366 -0.1528  0.1973
 4085TIP3    H133890   3.153   2.729   7.141 -1.3174 -2.3859 -0.5920
 4085TIP3    H233891   3.249   2.612   7.128  0.9840 -0.7922  1.3497
 4086TIP3   OH233892   0.881   4.754   0.633 -0.3716  0.0840 -0.4380
 4086TIP3    H133893   0.854   4.753   0.541  0.0065 -0.1140 -0.5484
 4086TIP3    H233894   0.855   4.841   0.664 -3.2039 -0.8270  0.0830
 4087TIP3   OH233895   6.314   4.803   0.464  0.0495 -0.0545 -0.3705
 4087TIP3    H133896   6.400   4.814   0.422 -0.3856 -1.3494 -1.6589
 4087TIP3    H233897   6.263   4.752   0.401 -1.0793 -0.8977  1.1797
 4088TIP3   OH233898   5.328   1.104   7.561 -0.1325  0.0391 -0.4831
 4088TIP3    H133899   5.410   1.082   7.604  0.2580  1.6150 -0.3519
 4088TIP3    H233900   5.334   1.198   7.544 -2.1832  0.3444  0.1594
 4089TIP3   OH233901   6.888   0.346   6.826  0.4918 -0.2018 -0.0548
 4089TIP3    H133902   6.897   0.441   6.833 -1.8367  0.1298 -0.4575
 4089TIP3    H233903   6.968   0.311   6.864  0.6916  1.8873  1.6489
 4090TIP3   OH233904   5.961   6.462   1.951  0.0067 -0.1367 -0.2848
 4090TIP3    H133905   6.042   6.479   1.997  2.6074 -2.9159 -3.3022
 4090TIP3    H233906   5.962   6.367   1.936 -4.1039 -0.3901 -0.1163
 4091TIP3   OH233907   0.797   2.539   2.251  0.2473 -0.1867  0.1280
 4091TIP3    H133908   0.765   2.539   2.342 -0.0599  1.1795  0.0429
 4091TIP3    H233909   0.887   2.569   2.258  0.2426 -0.1417 -0.0122
 4092TIP3   OH233910   3.678   3.554   8.280  0.1194  0.3045 -0.4560
 4092TIP3    H133911   3.737   3.510   8.218 -2.6102 -0.2794 -2.8770
 4092TIP3    H233912   3.672   3.644   8.248 -0.2421  0.3775 -0.1879
 4093TIP3   OH233913   6.402   1.006   0.797 -0.1005  0.1600 -0.0021
 4093TIP3    H133914   6.439   0.937   0.742  2.3238  0.7690  0.7280
 4093TIP3    H233915   6.421   1.087   0.751  1.6279  0.6539  1.4639
 4094TIP3   OH233916   2.436   6.453   7.658  0.0943  0.1292 -0.2068
 4094TIP3    H133917   2.516   6.476   7.611 -0.0505 -1.8453 -1.5451
 4094TIP3    H233918   2.366   6.468   7.595 -0.5035  0.6578  0.5495
 4095TIP3   OH233919   6.085   6.302   0.531  0.2738  0.2036 -0.7909
 4095TIP3    H133920   6.083   6.236   0.600  0.5886  2.2598  1.2679
 4095TIP3    H233921   6.170   6.290   0.489  1.6429  1.1247  1.5267
 4096TIP3   OH233922   2.888   3.077   0.319 -0.3734  0.5032  0.2875
 4096TIP3    H133923   2.860   3.004   0.375  2.2714  0.4035  1.6461
 4096TIP3    H233924   2.831   3.072   0.243 -1.7130 -1.6353  1.3365
 4097TIP3   OH233925   6.933   4.301   0.329  0.0525 -0.1330  0.0547
 4097TIP3    H133926   7.017   4.311   0.375  0.3117 -1.0053 -0.2078
 4097TIP3    H233927   6.958   4.285   0.238 -0.3342 -1.4646  0.1524
 4098TIP3   OH233928   4.890   1.745   7.890  0.0242  0.9591  0.3549
 4098TIP3    H133929   4.964   1.686   7.907 -0.1866  1.2362  2.5200
 4098TIP3    H233930   4.826   1.691   7.844  0.8566  0.2218  0.0268
 4099TIP3   OH233931   3.393   0.878   0.004  0.1663 -0.4941  0.7322
 4099TIP3    H133932   3.435   0.796   0.032 -0.2486 -1.1860 -0.6004
 4099TIP3    H233933   3.460   0.924  -0.045 -0.0787 -0.7913  0.1054
 4100TIP3   OH233934   1.932   3.725   0.947  0.2112  0.5635  0.2528
 4100TIP3    H133935   1.862   3.663   0.928 -0.8511  1.5497  0.7700
 4100TIP3    H233936   1.967   3.697   1.032  2.4811 -1.6626 -1.2936
 4101TIP3   OH233937   4.297   1.195   1.194 -0.1721 -0.1846  0.3695
 4101TIP3    H133938   4.387   1.214   1.170  0.1243 -1.0250  0.7741
 4101TIP3    H233939   4.295   1.206   1.289 -0.7748  0.9034  0.2453
 4102TIP3   OH233940   4.952   2.004   7.726  0.0114  0.2070  0.0686
 4102TIP3    H133941   5.045   1.982   7.727 -0.3761 -1.5814  1.6871
 4102TIP3    H233942   4.908   1.923   7.748 -1.8811  1.3307  0.5948
 4103TIP3   OH233943   3.026   1.978   7.582 -0.0292 -0.7913 -0.5829
 4103TIP3    H133944   3.098   2.035   7.557  0.7966 -0.5592  2.0748
 4103TIP3    H233945   2.968   1.979   7.506  1.2181  1.5047 -1.6130
 4104TIP3   OH233946   2.340   4.308   7.763 -0.2350 -0.2086  0.3488
 4104TIP3    H133947   2.331   4.221   7.802 -1.5794  0.9228  2.8033
 4104TIP3    H233948   2.406   4.351   7.816  0.0309  0.4698 -0.5072
 4105TIP3   OH233949   1.041   5.691   7.588 -0.2357 -0.5433  0.3199
 4105TIP3    H133950   1.132   5.665   7.574  0.7472  2.9393 -0.7048
 4105TIP3    H233951   1.026   5.675   7.681  1.7705 -0.3238  0.7261
 4106TIP3   OH233952   5.360   3.128   7.376 -0.3995 -0.4950 -0.3956
 4106TIP3    H133953   5.421   3.111   7.303 -0.0470  0.5772 -0.3635
 4106TIP3    H233954   5.355   3.044   7.422  1.0417 -0.6230 -0.4098
 4107TIP3   OH233955   2.013   2.090   1.987  0.0541 -0.0402  0.3484
 4107TIP3    H133956   1.929   2.044   1.989 -1.6717  2.8871  0.3669
 4107TIP3    H233957   2.024   2.115   1.895  0.2234  0.7613  0.5830
 4108TIP3   OH233958   3.500   5.089   6.618 -0.6466  0.5037  0.2529
 4108TIP3    H133959   3.426   5.149   6.605  0.3311  1.6167 -0.3850
 4108TIP3    H233960   3.481   5.046   6.702 -1.1332  2.1064  1.0058
 4109TIP3   OH233961   6.333   3.820   1.054  0.1232  0.2854  0.4237
 4109TIP3    H133962   6.305   3.737   1.094  0.4223  0.3005  0.6698
 4109TIP3    H233963   6.383   3.864   1.122 -1.6205  1.5467  0.9510
 4110TIP3   OH233964   4.137   6.149   8.138  0.6424 -0.4304 -0.3195
 4110TIP3    H133965   4.105   6.072   8.091  1.5856  0.0641 -1.8490
 4110TIP3    H233966   4.076   6.219   8.113  0.8073 -0.2945 -0.3456
 4111TIP3   OH233967   1.210   1.289   1.030 -0.3456  0.2812 -0.9046
 4111TIP3    H133968   1.142   1.257   1.089 -0.5294  1.0566 -0.6826
 4111TIP3    H233969   1.181   1.377   1.005 -0.6409 -0.2883 -2.7367
 4112TIP3   OH233970   4.830   2.935   8.249 -0.2519  0.3997 -0.0650
 4112TIP3    H133971   4.910   2.979   8.278  0.3128 -1.0107  0.5529
 4112TIP3    H233972   4.835   2.848   8.287 -1.7171  0.0312 -0.6697
 4113TIP3   OH233973   0.908   0.768   1.271 -0.0442 -0.0404  0.1511
 4113TIP3    H133974   0.963   0.714   1.328  0.3690  0.3363  0.1188
 4113TIP3    H233975   0.925   0.858   1.299 -2.5638  0.0004  1.8618
 4114TIP3   OH233976   3.761   5.685   1.526  0.2209 -0.3807 -0.3970
 4114TIP3    H133977   3.857   5.686   1.533  0.1261  0.6591  1.4742
 4114TIP3    H233978   3.738   5.774   1.499 -0.3020  0.2140  1.8087
 4115TIP3   OH233979   2.317   1.178   1.644  0.0400  0.0114  0.8596
 4115TIP3    H133980   2.335   1.202   1.735 -0.0234 -1.9490  1.4332
 4115TIP3    H233981   2.367   1.098   1.630  1.6444  1.2949 -1.4983
 4116TIP3   OH233982   4.833   3.863   7.227 -0.3719  0.5299 -0.1727
 4116TIP3    H133983   4.916   3.887   7.186 -0.6370  1.2146 -0.3220
 4116TIP3    H233984   4.775   3.844   7.154 -0.4838  0.5177 -0.0805
 4117TIP3   OH233985   0.906   1.082   2.029  0.2661  0.0398  0.2551
 4117TIP3    H133986   0.891   1.108   1.938  0.3763 -1.7392 -0.3039
 4117TIP3    H233987   0.966   1.009   2.024 -2.2207 -2.2858  1.4861
 4118TIP3   OH233988   6.846   4.187   7.983 -0.3054  0.0887  0.2186
 4118TIP3    H133989   6.802   4.173   8.067  0.4145 -0.2637  0.5448
 4118TIP3    H233990   6.939   4.196   8.006  0.2183 -2.2517 -0.7131
 4119TIP3   OH233991   3.176   2.551   7.961  0.1170  0.5524  0.4810
 4119TIP3    H133992   3.175   2.455   7.960  0.1252  0.5239  1.5623
 4119TIP3    H233993   3.194   2.573   8.053 -0.5368  1.5896  0.3741
 4120TIP3   OH233994   0.956   0.350   1.134 -0.1192  0.5855  0.4092
 4120TIP3    H133995   0.915   0.398   1.062  0.9006 -0.3383 -0.8356
 4120TIP3    H233996   0.904   0.270   1.143  0.6420 -0.0013 -0.3270
 4121TIP3   OH233997   1.877   0.328   0.007  0.6782  0.0024 -0.1332
 4121TIP3    H133998   1.797   0.379   0.016  1.3871  1.2689 -0.7218
 4121TIP3    H233999   1.902   0.306   0.097 -0.5876 -0.8677  0.0340
 4122TIP3   OH234000   6.852   3.895   7.375 -0.7829  0.3304  0.0778
 4122TIP3    H134001   6.799   3.921   7.450  0.2187  2.3363  0.1766
 4122TIP3    H234002   6.891   3.977   7.344 -1.3793 -0.3462 -2.8169
 4123TIP3   OH234003   0.623   2.996   2.218 -0.5350 -0.5096  0.4780
 4123TIP3    H134004   0.644   2.917   2.169 -2.4724 -2.7609  2.9130
 4123TIP3    H234005   0.666   2.983   2.303 -0.0936  1.5551  0.6071
 4124TIP3   OH234006   1.512   2.166   2.702  0.0365 -0.3067  0.1449
 4124TIP3    H134007   1.429   2.137   2.739 -0.1573  0.6942  0.5242
 4124TIP3    H234008   1.576   2.150   2.772 -0.3133  1.4921  0.9390
 4125TIP3   OH234009   5.897   6.389   0.755  0.1887  0.1650  0.3747
 4125TIP3    H134010   5.880   6.296   0.738  2.8611 -0.8910  2.6516
 4125TIP3    H234011   5.951   6.418   0.681  3.2561 -1.5381  1.7415
 4126TIP3   OH234012   0.974   6.364   7.154  0.3913 -0.0881 -0.0383
 4126TIP3    H134013   0.962   6.270   7.144  0.2441  0.1263 -2.6330
 4126TIP3    H234014   0.891   6.403   7.126  1.1240  0.8506 -1.0162
 4127TIP3   OH234015   6.795   3.761   2.026  0.0592 -0.7918  0.5307
 4127TIP3    H134016   6.743   3.797   1.954  1.2881 -0.0661 -0.0306
 4127TIP3    H234017   6.758   3.674   2.041 -1.4130 -0.2389  0.2792
 4128TIP3   OH234018   2.094   0.626   1.945  0.0741 -0.6497 -0.1061
 4128TIP3    H134019   2.106   0.721   1.958 -1.9457 -0.1703 -1.2625
 4128TIP3    H234020   2.183   0.591   1.939  0.9179  1.5747 -2.1570
 4129TIP3   OH234021   4.664   0.722   1.925  0.3042  0.0808 -0.2229
 4129TIP3    H134022   4.581   0.679   1.948 -0.7623  2.1079 -0.0401
 4129TIP3    H234023   4.641   0.781   1.854  1.2290  1.8148  0.8511
 4130TIP3   OH234024   2.121   0.058   0.667  0.3361  0.2931  0.2280
 4130TIP3    H134025   2.154   0.019   0.586  0.7432 -0.3114  0.6734
 4130TIP3    H234026   2.042   0.009   0.687  0.0921  0.6156  0.0624
 4131TIP3   OH234027   2.637   5.242   1.065  0.9055  0.5882  0.2313
 4131TIP3    H134028   2.579   5.173   1.033 -1.8435  2.8439 -0.1186
 4131TIP3    H234029   2.613   5.252   1.157  0.8382  1.4093  0.1328
 4132TIP3   OH234030   5.446   2.104   1.807 -0.3920  0.3672  0.2141
 4132TIP3    H134031   5.412   2.182   1.852  0.8816  2.8387 -2.7845
 4132TIP3    H234032   5.378   2.082   1.743 -1.3804 -2.0010  1.9246
 4133TIP3   OH234033   1.698   0.470   3.113 -0.1561  0.4139  0.1035
 4133TIP3    H134034   1.786   0.444   3.139 -0.6722 -1.1470  0.3379
 4133TIP3    H234035   1.668   0.400   3.055 -0.9676  1.3126 -0.6073
 4134TIP3   OH234036   1.680   2.701   8.261  0.0022 -0.6658  0.7750
 4134TIP3    H134037   1.724   2.778   8.224 -1.0758 -0.9742 -1.3612
 4134TIP3    H234038   1.666   2.722   8.353  0.9650  1.1126  0.5492
 4135TIP3   OH234039   6.223   6.267   2.033 -0.1163 -0.0129 -0.2879
 4135TIP3    H134040   6.139   6.274   2.078  0.9319  3.0202  1.4977
 4135TIP3    H234041   6.242   6.357   2.004  2.6502 -0.5203 -0.2941
 4136TIP3   OH234042   3.070   5.229   1.962 -0.1293  0.3310 -0.2914
 4136TIP3    H134043   3.036   5.139   1.960  0.8386 -0.0847  0.5814
 4136TIP3    H234044   3.166   5.218   1.959  0.0835  1.2073  1.6433
 4137TIP3   OH234045   6.855   4.659   2.540 -0.0705  0.4295 -0.0558
 4137TIP3    H134046   6.780   4.610   2.573 -0.4470  1.4056  0.5782
 4137TIP3    H234047   6.860   4.636   2.447 -0.7949 -0.1013  0.0337
 4138TIP3   OH234048   5.786   6.906   2.264  0.2149  0.4720 -0.0474
 4138TIP3    H134049   5.744   6.920   2.350 -0.8559  0.9723 -0.6274
 4138TIP3    H234050   5.780   6.811   2.250  1.0911  0.2808  0.7569
 4139TIP3   OH234051   6.428   5.207   6.929 -0.0100 -0.2465  0.0828
 4139TIP3    H134052   6.363   5.209   6.859  0.1794 -0.0167 -0.0875
 4139TIP3    H234053   6.513   5.211   6.884  0.1086  3.0617  0.3990
 4140TIP3   OH234054   5.863   2.399   2.949 -0.2866 -0.0649 -0.1544
 4140TIP3    H134055   5.904   2.329   2.998 -0.8940  0.2882  0.9081
 4140TIP3    H234056   5.909   2.402   2.865  1.6226  0.1169  0.8582
 4141TIP3   OH234057   1.585   4.915   7.088  0.0048 -0.1034 -0.4768
 4141TIP3    H134058   1.496   4.939   7.062 -0.0603 -0.0155 -0.1725
 4141TIP3    H234059   1.575   4.826   7.123  0.0787 -0.1868 -0.6620
 4142TIP3   OH234060   0.737   2.321   8.330  0.2291  0.2144  0.1745
 4142TIP3    H134061   0.678   2.376   8.383  1.4121  2.4480 -0.7104
 4142TIP3    H234062   0.775   2.259   8.393 -0.8216  0.6598  1.2947
 4143TIP3   OH234063   0.900   2.301   2.081  0.1355 -0.3522  0.2992
 4143TIP3    H134064   0.969   2.329   2.141  0.1565  0.8586 -0.2561
 4143TIP3    H234065   0.820   2.339   2.117  0.1518  0.3945 -0.4412
 4144TIP3   OH234066   5.335   3.590   6.230  0.1336  0.4231  0.7274
 4144TIP3    H134067   5.271   3.648   6.270 -1.4077 -1.3190  0.9434
 4144TIP3    H234068   5.419   3.635   6.239 -0.8835  2.2354  1.5194
 4145TIP3   OH234069   1.072   2.644   2.292  0.5412 -0.1815 -1.0432
 4145TIP3    H134070   1.105   2.673   2.377  1.0310 -0.9631 -0.9607
 4145TIP3    H234071   1.109   2.557   2.280  0.7018  0.0265 -2.1854
 4146TIP3   OH234072   1.755   2.878   2.139 -0.6812 -0.5610 -0.4372
 4146TIP3    H134073   1.731   2.917   2.224 -0.3929  1.0364 -1.0419
 4146TIP3    H234074   1.672   2.848   2.102 -0.7388 -1.8202  0.6397
 4147TIP3   OH234075   0.387   5.006   8.285  0.1223  0.1451  0.5103
 4147TIP3    H134076   0.440   4.929   8.265  0.7605 -0.1392  2.9914
 4147TIP3    H234077   0.426   5.077   8.234  0.9348 -0.7103 -0.0717
 4148TIP3   OH234078   5.882   1.422   1.019  0.3522  0.6265 -0.2744
 4148TIP3    H134079   5.974   1.441   0.999  0.0358  2.9914  0.2258
 4148TIP3    H234080   5.833   1.471   0.952 -0.5777 -1.0958 -0.9161
 4149TIP3   OH234081   1.127   2.631   7.814 -0.4837 -0.5011 -0.5337
 4149TIP3    H134082   1.199   2.641   7.751  1.4597  0.4158  1.6851
 4149TIP3    H234083   1.073   2.709   7.801  2.4560  2.2001  1.8349
 4150TIP3   OH234084   0.675   1.510   0.078  0.2164  1.0024 -0.6807
 4150TIP3    H134085   0.760   1.511   0.033  0.0461  0.0695 -1.0464
 4150TIP3    H234086   0.613   1.541   0.012  0.2544  1.6206 -0.4331
 4151TIP3   OH234087   6.707   6.597   7.132  0.1857 -0.1431  0.2216
 4151TIP3    H134088   6.709   6.677   7.080 -2.2107 -0.1027  0.0745
 4151TIP3    H234089   6.717   6.627   7.222  0.9497  0.1300  0.0561
 4152TIP3   OH234090   4.377   1.676   7.901 -0.3172 -0.3829 -0.3071
 4152TIP3    H134091   4.335   1.610   7.847 -0.0165 -2.5894  1.9798
 4152TIP3    H234092   4.357   1.650   7.991 -0.9366  3.1755  0.7348
 4153TIP3   OH234093   5.703   1.938   8.155  0.0053 -0.6166  0.4865
 4153TIP3    H134094   5.776   2.000   8.159 -0.2203 -0.3163  0.0377
 4153TIP3    H234095   5.632   1.981   8.202 -0.2501 -0.3856 -0.0900
 4154TIP3   OH234096   1.884   5.320   0.374  0.0021  0.1675 -0.0582
 4154TIP3    H134097   1.812   5.375   0.346 -0.8380 -0.5324  0.6740
 4154TIP3    H234098   1.877   5.241   0.319  1.3693  0.8674 -1.3084
 4155TIP3   OH234099   5.350   2.685   0.559  0.7533  0.4812 -0.3665
 4155TIP3    H134100   5.287   2.633   0.509  1.7042  0.5856 -1.7079
 4155TIP3    H234101   5.412   2.621   0.594 -0.2928  0.3214  1.3636
 4156TIP3   OH234102   0.589   4.160   7.421  0.9758  0.3681  0.9380
 4156TIP3    H134103   0.573   4.195   7.509 -0.1259  1.0388  0.5008
 4156TIP3    H234104   0.536   4.216   7.364  0.7163 -0.8131 -0.0179
 4157TIP3   OH234105   6.145   2.725   6.686 -0.0168  0.2753 -0.3912
 4157TIP3    H134106   6.056   2.751   6.663 -0.5687 -0.0861  1.2453
 4157TIP3    H234107   6.198   2.803   6.667 -0.6116  0.4185 -1.6060
 4158TIP3   OH234108   6.879   1.529   7.137  0.1084  0.1853  0.7201
 4158TIP3    H134109   6.892   1.563   7.049 -1.0693 -0.3925  0.2977
 4158TIP3    H234110   6.918   1.442   7.136 -0.8135 -0.2442  0.4277
 4159TIP3   OH234111   1.262   2.302   1.322  0.0107  0.1141 -0.2162
 4159TIP3    H134112   1.167   2.314   1.319 -0.4691 -3.1256 -1.0068
 4159TIP3    H234113   1.278   2.248   1.399  1.2586  0.7366 -0.0061
 4160TIP3   OH234114   0.994   6.819   2.217 -0.3868  0.1244  0.0990
 4160TIP3    H134115   0.940   6.892   2.188  1.6979  1.8562  0.3322
 4160TIP3    H234116   1.055   6.857   2.280  1.2764 -1.6516 -0.3214
 4161TIP3   OH234117   0.397   5.742   0.625 -0.3651  0.7082 -0.2216
 4161TIP3    H134118   0.407   5.813   0.562 -2.4601 -0.1311 -1.6325
 4161TIP3    H234119   0.339   5.778   0.692  1.8604  1.5993  1.3418
 4162TIP3   OH234120   5.391   5.439   7.586 -0.2887 -0.3390  0.2524
 4162TIP3    H134121   5.375   5.347   7.566 -1.9837 -0.1689  0.6629
 4162TIP3    H234122   5.466   5.463   7.531  0.1437 -1.9326  0.1045
 4163TIP3   OH234123   6.641   5.969   8.510 -0.4196  0.6812  0.0400
 4163TIP3    H134124   6.662   6.049   8.558 -0.8795  0.8055  0.0366
 4163TIP3    H234125   6.671   5.898   8.567 -0.5781  0.8394  0.3201
 4164TIP3   OH234126   6.698   5.608   2.407  0.1130  0.3113 -0.1588
 4164TIP3    H134127   6.653   5.691   2.423  0.1258  0.2358  0.2792
 4164TIP3    H234128   6.643   5.542   2.449 -0.0049  0.0683 -0.6832
 4165TIP3   OH234129   0.377   2.842   2.211  0.5374 -0.5045 -0.0117
 4165TIP3    H134130   0.332   2.904   2.153  1.5158  0.2121 -0.0418
 4165TIP3    H234131   0.457   2.888   2.237  0.3530 -0.9990  1.5358
 4166TIP3   OH234132   0.989   1.131   1.014 -0.4093 -0.2798 -0.0359
 4166TIP3    H134133   1.021   1.193   0.949 -0.5380  0.4678  0.5981
 4166TIP3    H234134   0.951   1.060   0.963 -0.1704  0.1118 -0.7756
 4167TIP3   OH234135   6.909   1.695   2.173 -0.2273  0.4915  0.2383
 4167TIP3    H134136   6.844   1.686   2.243 -1.4811  2.2045 -0.6162
 4167TIP3    H234137   6.944   1.784   2.184  1.5778 -0.2066  0.3239
 4168TIP3   OH234138   4.734   6.206   0.843  0.1906 -0.7558  0.8978
 4168TIP3    H134139   4.724   6.264   0.769  0.0182 -1.6425  0.2072
 4168TIP3    H234140   4.648   6.168   0.856  0.1661 -0.4447  1.6971
 4169TIP3   OH234141   4.493   1.443   1.140  0.5139 -0.2711  0.1883
 4169TIP3    H134142   4.490   1.440   1.235  1.3918  2.7484  0.4128
 4169TIP3    H234143   4.416   1.494   1.115  1.2201  0.4728 -0.5435
 4170TIP3   OH234144   2.267   5.583   0.337 -0.9792 -0.2487 -0.3288
 4170TIP3    H134145   2.272   5.646   0.265  0.5992  0.1528  0.0875
 4170TIP3    H234146   2.194   5.614   0.391 -1.6067 -0.0502 -1.2706
 4171TIP3   OH234147   3.718   5.678   7.324  0.2658 -0.8335 -0.5924
 4171TIP3    H134148   3.813   5.672   7.335  0.1515  0.5685  1.7426
 4171TIP3    H234149   3.682   5.611   7.382 -0.1857 -0.5898 -0.5820
 4172TIP3   OH234150   1.518   4.491   7.580  0.2097 -0.3049 -0.2715
 4172TIP3    H134151   1.476   4.528   7.657  1.4224 -0.3827  0.4549
 4172TIP3    H234152   1.495   4.551   7.509 -1.4780 -0.5939 -0.0110
 4173TIP3   OH234153   2.472   5.677   8.141  0.4925  0.3627  0.2040
 4173TIP3    H134154   2.391   5.642   8.103  0.5334 -1.0508  1.3303
 4173TIP3    H234155   2.443   5.723   8.220  0.6179  1.5064 -0.3950
 4174TIP3   OH234156   5.568   6.141   0.308 -0.5887  0.0588  0.1569
 4174TIP3    H134157   5.640   6.177   0.360  0.5660 -0.8337 -0.7491
 4174TIP3    H234158   5.599   6.054   0.282 -1.5554  0.0776 -1.1441
 4175TIP3   OH234159   4.484   5.988   2.014  0.3447  0.3280 -0.6332
 4175TIP3    H134160   4.562   5.991   1.958  0.8490 -0.0239  0.0456
 4175TIP3    H234161   4.497   5.912   2.070 -0.7187 -0.0197 -0.8359
 4176TIP3   OH234162   5.387   5.797   2.392  0.3447 -1.2727 -0.0901
 4176TIP3    H134163   5.435   5.716   2.410 -0.1535 -1.4352  0.5487
 4176TIP3    H234164   5.451   5.867   2.411  0.2343 -1.4785  1.1245
 4177TIP3   OH234165   2.923   4.890   0.216  0.0388 -0.0332  0.1272
 4177TIP3    H134166   2.897   4.945   0.289  0.3489  0.7237 -0.3269
 4177TIP3    H234167   2.988   4.941   0.169  0.3510 -0.8011 -0.2859
 4178TIP3   OH234168   1.381   0.794   0.447 -0.1358  0.1136 -0.1144
 4178TIP3    H134169   1.356   0.817   0.357  0.0899  0.3217 -0.1246
 4178TIP3    H234170   1.442   0.863   0.473  1.7683 -1.2783 -0.6860
 4179TIP3   OH234171   1.106   5.795   2.032 -0.7704 -0.3179 -0.2255
 4179TIP3    H134172   1.140   5.726   2.088  1.1100  0.2463 -0.5980
 4179TIP3    H234173   1.121   5.763   1.943  1.1448  0.9601 -0.4248
 4180TIP3   OH234174   3.446   0.578   2.148  0.5871  0.7316  0.2606
 4180TIP3    H134175   3.420   0.490   2.122 -4.0397  1.6893  0.8384
 4180TIP3    H234176   3.466   0.570   2.242 -1.3083  0.4812  0.6734
 4181TIP3   OH234177   1.412   4.220   7.934  0.0207  0.1776  0.1123
 4181TIP3    H134178   1.505   4.222   7.957  0.0397 -1.5500  0.2952
 4181TIP3    H234179   1.411   4.234   7.839  0.5226 -0.3837  0.0166
 4182TIP3   OH234180   2.589   1.203   7.835 -0.8735  0.2555 -0.0985
 4182TIP3    H134181   2.612   1.136   7.770 -1.4193 -1.3876  1.3290
 4182TIP3    H234182   2.655   1.271   7.824 -1.5870  0.6060 -3.1145
 4183TIP3   OH234183   2.532   1.797   2.429  0.0054 -0.0228 -0.0789
 4183TIP3    H134184   2.574   1.711   2.428  1.6988  0.7569 -0.8278
 4183TIP3    H234185   2.604   1.858   2.411 -1.3147  1.4820 -0.4072
 4184TIP3   OH234186   6.470   5.108   2.116 -0.1416  0.1134  0.0572
 4184TIP3    H134187   6.455   5.014   2.109  0.5715 -0.0396  0.5161
 4184TIP3    H234188   6.385   5.144   2.143 -1.4632  0.0618 -3.4039
 4185TIP3   OH234189   6.567   3.436   7.680  0.1642 -0.1124 -0.0614
 4185TIP3    H134190   6.483   3.390   7.684  0.5838 -0.8142  1.3350
 4185TIP3    H234191   6.590   3.451   7.772  0.8335  1.4663 -0.4500
 4186TIP3   OH234192   6.677   4.150   1.244 -0.1424  0.2126 -0.1187
 4186TIP3    H134193   6.706   4.091   1.313 -0.3848 -0.5841 -0.6865
 4186TIP3    H234194   6.646   4.093   1.174 -1.1518  1.0171 -0.3580
 4187TIP3   OH234195   0.157   0.171   1.409 -0.2319  0.5384 -1.1529
 4187TIP3    H134196   0.179   0.109   1.479  1.7429  1.9554 -0.4205
 4187TIP3    H234197   0.153   0.117   1.330 -1.2739 -0.9038 -0.1676
 4188TIP3   OH234198   0.061   2.588   2.506 -0.1095  0.3859 -0.0344
 4188TIP3    H134199  -0.015   2.607   2.450 -1.0191 -1.6769  0.4156
 4188TIP3    H234200   0.025   2.538   2.579  1.4654  0.7939  1.0755
 4189TIP3   OH234201   0.646   0.121   8.347 -0.0429 -0.2670  0.3418
 4189TIP3    H134202   0.626   0.029   8.334  3.6407 -1.0118 -1.5621
 4189TIP3    H234203   0.665   0.129   8.440 -2.5672 -0.8351  0.9562
 4190TIP3   OH234204   1.001   5.277   0.105 -0.0930  0.1499 -0.2177
 4190TIP3    H134205   0.988   5.201   0.048  0.1375 -0.3487  0.3850
 4190TIP3    H234206   0.941   5.343   0.070 -0.1532 -0.2388 -0.8702
 4191TIP3   OH234207   0.286   1.151   2.134  0.4094  0.0298  0.7393
 4191TIP3    H134208   0.351   1.219   2.114 -0.4407  1.5865  2.9434
 4191TIP3    H234209   0.203   1.189   2.107  0.0206 -0.4893  1.1952
 4192TIP3   OH234210   3.283   2.136   2.069 -0.4995 -0.3662 -0.1916
 4192TIP3    H134211   3.232   2.205   2.027  1.0298  3.0741  3.0699
 4192TIP3    H234212   3.241   2.125   2.154  0.4243 -2.2183  0.0625
 4193TIP3   OH234213   2.416   6.062   8.195  0.0978 -0.1927  0.4494
 4193TIP3    H134214   2.343   6.076   8.135 -0.1049  0.8106  0.9105
 4193TIP3    H234215   2.474   6.001   8.149  0.3997  1.2289 -1.1702
 4194TIP3   OH234216   2.923   2.645   2.267 -0.1202 -0.1353  0.1627
 4194TIP3    H134217   2.875   2.619   2.188 -1.5341 -0.3242  1.0493
 4194TIP3    H234218   2.901   2.737   2.278  1.0402  0.2163 -0.3050
 4195TIP3   OH234219   1.154   2.357   7.291 -0.2654 -0.0574 -0.3019
 4195TIP3    H134220   1.169   2.271   7.328 -0.2392  0.3179  0.5719
 4195TIP3    H234221   1.168   2.345   7.197 -1.9129 -1.3896 -0.4343
 4196TIP3   OH234222   2.857   4.794   1.475 -0.5009  0.2400  0.8957
 4196TIP3    H134223   2.915   4.738   1.525 -1.2609 -1.6925 -0.2677
 4196TIP3    H234224   2.864   4.762   1.385 -3.5809 -0.3768  0.7505
 4197TIP3   OH234225   6.000   2.998   2.383  0.1464  0.7648 -0.2593
 4197TIP3    H134226   6.074   2.990   2.443 -1.3185 -0.4581  1.4733
 4197TIP3    H234227   5.983   2.909   2.352  0.4564  1.2797 -2.0315
 4198TIP3   OH234228   5.963   2.693   2.322  0.5634  0.0211  0.0567
 4198TIP3    H134229   5.938   2.617   2.374 -0.4223 -0.8270 -1.5569
 4198TIP3    H234230   5.880   2.737   2.302  0.6104 -0.7919 -2.3525
 4199TIP3   OH234231   3.889   1.629   0.537  0.1839 -0.2313 -1.0383
 4199TIP3    H134232   3.840   1.701   0.496  0.6119 -0.5561 -2.1703
 4199TIP3    H234233   3.847   1.550   0.503  1.7319 -0.5267 -2.3957
 4200TIP3   OH234234   4.952   3.393   2.294 -0.3779 -0.5677 -0.2139
 4200TIP3    H134235   4.942   3.444   2.213 -1.8719 -0.8947 -0.2483
 4200TIP3    H234236   5.001   3.315   2.267  2.0286  0.8059 -0.1461
 4201TIP3   OH234237   6.701   5.357   1.026  0.2711  0.5924  0.1128
 4201TIP3    H134238   6.778   5.309   0.995 -0.1814 -0.3047  0.3438
 4201TIP3    H234239   6.643   5.290   1.062 -0.8082  1.2023 -0.4299
 4202TIP3   OH234240   6.656   5.652   1.153 -0.3204 -0.0659  0.0392
 4202TIP3    H134241   6.576   5.601   1.165 -0.4436 -0.4628 -2.0751
 4202TIP3    H234242   6.701   5.610   1.079  0.5560  1.7010 -0.4979
 4203TIP3   OH234243   1.244   0.694   1.349  0.2892  0.1487  0.3417
 4203TIP3    H134244   1.228   0.601   1.336  1.9759 -0.1551  0.2243
 4203TIP3    H234245   1.216   0.734   1.266  1.5205 -0.5261 -0.4249
 4204TIP3   OH234246   1.611   3.120   1.356 -0.6551  0.1819  0.4059
 4204TIP3    H134247   1.547   3.048   1.358 -1.7387  1.1076  0.4456
 4204TIP3    H234248   1.580   3.178   1.287 -1.3361  1.9127  2.0540
 4205TIP3   OH234249   2.258   6.564   1.065  0.6100  0.2902  0.0200
 4205TIP3    H134250   2.188   6.616   1.026  1.2984  0.1843 -1.4700
 4205TIP3    H234251   2.327   6.628   1.085  0.3597  0.3075  0.8533
 4206TIP3   OH234252   2.180   0.644   1.609  0.4961  0.1902 -0.5272
 4206TIP3    H134253   2.139   0.574   1.559  0.5568  0.2856 -0.7120
 4206TIP3    H234254   2.217   0.601   1.686 -0.0445  0.1195 -0.3046
 4207TIP3   OH234255   2.601   2.511   3.116  0.5137  0.3237 -0.3562
 4207TIP3    H134256   2.575   2.533   3.026  0.1006  1.5435  0.0349
 4207TIP3    H234257   2.560   2.427   3.133  1.7203 -0.5935 -1.7694
 4208TIP3   OH234258   2.612   3.544   7.624 -0.6828  0.6193  0.0157
 4208TIP3    H134259   2.537   3.485   7.632 -0.4187  0.4685  1.7210
 4208TIP3    H234260   2.577   3.630   7.648 -0.3717  0.5842  0.6163
 4209TIP3   OH234261   1.956   3.889   0.673  0.1644  0.0406 -0.3997
 4209TIP3    H134262   1.968   3.835   0.751 -1.2819 -0.0867 -0.2363
 4209TIP3    H234263   1.891   3.955   0.699 -1.0877 -0.5972 -1.7622
 4210TIP3   OH234264   3.773   6.136   2.099  0.1635 -0.8531  0.5081
 4210TIP3    H134265   3.786   6.173   2.186  0.7050 -1.6339  0.7739
 4210TIP3    H234266   3.858   6.101   2.074  0.9312  2.1399 -1.7312
 4211TIP3   OH234267   1.197   0.170   1.616 -0.8734 -0.8449  0.3143
 4211TIP3    H134268   1.236   0.141   1.698 -2.1648  0.6123  1.5025
 4211TIP3    H234269   1.198   0.092   1.560  1.2442 -1.5253  1.2063
 4212TIP3   OH234270   0.923   6.172   2.248  0.1568 -0.3378 -0.5270
 4212TIP3    H134271   0.909   6.266   2.239 -1.0649 -0.4507 -0.0397
 4212TIP3    H234272   0.918   6.138   2.159  1.2419  0.1243 -0.7770
 4213TIP3   OH234273   5.226   2.208   0.141 -0.3476  0.8846 -0.3521
 4213TIP3    H134274   5.168   2.151   0.091  0.4854 -0.2224 -0.1063
 4213TIP3    H234275   5.205   2.296   0.111 -1.5124  0.4397 -0.9142
 4214TIP3   OH234276   2.203   0.056   0.198  0.1052  0.6875 -0.0872
 4214TIP3    H134277   2.254  -0.022   0.174 -0.9718 -0.9010  2.3359
 4214TIP3    H234278   2.241   0.086   0.280 -2.1378  0.0182  1.2952
 4215TIP3   OH234279   3.579   3.188   1.785  0.2165  0.6599  0.8233
 4215TIP3    H134280   3.535   3.234   1.856 -1.5118  0.0647  0.1904
 4215TIP3    H234281   3.521   3.115   1.764  0.9560  0.5024 -0.8296
 4216TIP3   OH234282   6.762   0.200   7.217 -0.2708  0.0308  0.2348
 4216TIP3    H134283   6.725   0.283   7.247  1.3258  1.2700 -1.0009
 4216TIP3    H234284   6.720   0.185   7.132 -0.8691 -0.6795  0.6428
 4217TIP3   OH234285   4.265   5.732   0.019  0.2469 -0.6332  0.1983
 4217TIP3    H134286   4.240   5.678  -0.057 -1.5264  0.0484  0.2447
 4217TIP3    H234287   4.313   5.806  -0.019 -1.4815  0.2278 -0.4275
 4218TIP3   OH234288   3.579   1.431   7.230  0.2547  0.3157 -0.3290
 4218TIP3    H134289   3.504   1.421   7.171  0.3581  0.2456 -0.4496
 4218TIP3    H234290   3.629   1.350   7.218 -0.3418 -0.2406  0.7282
 4219TIP3   OH234291   2.609   2.881   2.947 -0.0639 -0.2256 -0.4809
 4219TIP3    H134292   2.514   2.890   2.949 -0.0247  0.1773  1.4088
 4219TIP3    H234293   2.639   2.960   2.902 -0.5509  1.0189  1.2452
 4220TIP3   OH234294   2.020   3.972   2.716 -0.4126  0.0833 -0.0051
 4220TIP3    H134295   2.021   3.907   2.786  0.4755 -0.1101 -0.1793
 4220TIP3    H234296   1.931   4.008   2.717 -1.2334 -1.8133 -0.5397
 4221TIP3   OH234297   0.371   0.159   0.801  0.0874 -0.5644  0.6782
 4221TIP3    H134298   0.379   0.227   0.734  2.7694 -1.5280 -0.1416
 4221TIP3    H234299   0.290   0.179   0.847 -0.1772  2.0467 -0.7477
 4222TIP3   OH234300   1.431   4.945   1.263  0.1346  0.4120 -0.3564
 4222TIP3    H134301   1.510   4.931   1.211  0.2913 -0.6943  0.1623
 4222TIP3    H234302   1.425   4.869   1.321 -1.4998  0.2964 -0.6139
 4223TIP3   OH234303   0.220   2.268   1.505 -0.1554 -0.8337 -0.0193
 4223TIP3    H134304   0.166   2.189   1.505  0.5598 -1.3235 -0.7895
 4223TIP3    H234305   0.299   2.244   1.553 -0.1091 -0.4617  0.0966
 4224TIP3   OH234306   5.421   4.144   1.338  0.2137 -0.1154  0.3387
 4224TIP3    H134307   5.358   4.189   1.394  0.3765  0.7623 -0.1680
 4224TIP3    H234308   5.480   4.101   1.400 -1.5685 -2.0095  0.8354
 4225TIP3   OH234309   4.942   3.571   8.174  0.0254  0.4693  0.6224
 4225TIP3    H134310   5.035   3.593   8.173  0.4382 -1.1727 -0.4566
 4225TIP3    H234311   4.898   3.656   8.172  1.5282  1.2866 -1.1420
 4226TIP3   OH234312   3.406   3.348   0.317 -0.3130  0.3099  0.3689
 4226TIP3    H134313   3.445   3.289   0.253 -0.4109 -0.5425  1.0939
 4226TIP3    H234314   3.324   3.376   0.276 -0.8303 -0.9702  0.5144
 4227TIP3   OH234315   5.521   3.615   0.598  0.1822  0.1308 -0.2454
 4227TIP3    H134316   5.592   3.577   0.547  0.4074  1.4482 -0.9689
 4227TIP3    H234317   5.479   3.540   0.641  1.4124 -0.7643 -0.5408
 4228TIP3   OH234318   0.993   4.193   0.498 -0.4354  0.8239 -0.0739
 4228TIP3    H134319   0.969   4.111   0.455  1.7670  0.0099  0.1155
 4228TIP3    H234320   1.042   4.242   0.432 -0.8218  1.5180  0.1450
 4229TIP3   OH234321   0.360   5.316   0.943  0.0558 -0.5347  0.2788
 4229TIP3    H134322   0.308   5.264   1.004 -0.8004  0.1122  0.1167
 4229TIP3    H234323   0.338   5.280   0.857 -1.6741  0.9936  0.0234
 4230TIP3   OH234324   0.545   2.590   1.796  0.3917 -0.6421 -0.0313
 4230TIP3    H134325   0.451   2.612   1.792  0.8945  1.6067 -0.8409
 4230TIP3    H234326   0.564   2.583   1.890  0.0628  2.2976  0.3445
 4231TIP3   OH234327   2.268   4.218   0.763  0.3177 -0.0353  0.0121
 4231TIP3    H134328   2.231   4.131   0.778 -1.3448  0.9180  1.9398
 4231TIP3    H234329   2.346   4.220   0.818  0.5824 -0.4213 -0.3408
 4232TIP3   OH234330   0.010   0.508   0.327 -0.2530 -0.8239 -0.7400
 4232TIP3    H134331  -0.036   0.426   0.346 -3.8865  1.2604  0.3425
 4232TIP3    H234332  -0.026   0.537   0.243 -2.3888  1.6397  0.8777
 4233TIP3   OH234333   0.229   4.133   2.121  0.5118 -0.1693  0.1856
 4233TIP3    H134334   0.262   4.183   2.196  1.2046 -0.3800  0.0229
 4233TIP3    H234335   0.233   4.194   2.048 -1.8286  0.6307  0.6225
 4234TIP3   OH234336   3.515   1.453   3.088 -0.0618 -0.5476  0.6073
 4234TIP3    H134337   3.484   1.537   3.122  0.5903  0.0554 -0.2208
 4234TIP3    H234338   3.488   1.389   3.152 -0.9765  0.2492  1.0363
 4235TIP3   OH234339   1.305   1.263   2.056 -0.2137 -0.2613  0.0678
 4235TIP3    H134340   1.328   1.207   1.982  1.4014  0.1233  0.2394
 4235TIP3    H234341   1.327   1.352   2.027  0.6018 -0.1246  1.0510
 4236TIP3   OH234342   5.694   0.926   2.440 -0.0763 -0.2035  0.5071
 4236TIP3    H134343   5.656   0.889   2.519 -0.8184 -1.4795 -0.4100
 4236TIP3    H234344   5.764   0.984   2.471  1.6794 -2.9185  2.0339
 4237TIP3   OH234345   3.287   4.628   7.672 -0.4133  0.3083 -0.0581
 4237TIP3    H134346   3.348   4.698   7.695 -0.4048  0.5472 -0.7692
 4237TIP3    H234347   3.250   4.655   7.587  0.0587 -0.8494 -0.6635
 4238TIP3   OH234348   1.848   2.288   7.698  0.8140 -0.9826 -0.0952
 4238TIP3    H134349   1.885   2.356   7.642  2.1019 -1.1577  0.5147
 4238TIP3    H234350   1.923   2.250   7.743 -0.2302 -0.0664  2.6675
 4239TIP3   OH234351   3.991   5.383   6.550  0.8110 -0.0136 -0.2262
 4239TIP3    H134352   4.022   5.382   6.641 -0.5385  0.9821  0.2693
 4239TIP3    H234353   3.924   5.315   6.547  0.4356  0.3571 -0.3110
 4240TIP3   OH234354   3.128   4.825   7.484 -0.0656 -0.3455  0.0730
 4240TIP3    H134355   3.047   4.859   7.446  0.6544 -0.2252 -1.4516
 4240TIP3    H234356   3.191   4.896   7.474  1.2489 -1.6846 -2.4420
 4241TIP3   OH234357   4.149   5.502   8.097 -0.1932 -0.0907 -0.3507
 4241TIP3    H134358   4.221   5.471   8.150 -0.3686 -1.3695 -0.8378
 4241TIP3    H234359   4.083   5.531   8.160  0.3042  0.0928  0.0946
 4242TIP3   OH234360   0.712   0.818   7.283 -0.4563  0.0105  0.3093
 4242TIP3    H134361   0.775   0.887   7.265 -1.7622  1.0264 -0.4794
 4242TIP3    H234362   0.760   0.757   7.339  0.7992  1.4271  0.8541
 4243TIP3   OH234363   4.706   6.187   7.372 -0.2311  0.1840 -0.4244
 4243TIP3    H134364   4.648   6.180   7.297 -2.7031 -0.6907  1.4244
 4243TIP3    H234365   4.698   6.102   7.417 -0.0922  1.1997  1.6462
 4244TIP3   OH234366   4.893   0.501   8.436  0.0461  0.2342 -0.6448
 4244TIP3    H134367   4.821   0.499   8.499 -1.0780  1.0498 -1.8716
 4244TIP3    H234368   4.855   0.536   8.356  1.4416 -0.7559 -1.8022
 4245TIP3   OH234369   3.790   2.878   8.208 -0.3433 -0.1585 -0.2544
 4245TIP3    H134370   3.815   2.953   8.261 -1.7180 -0.4225  0.8318
 4245TIP3    H234371   3.871   2.852   8.163  0.2014  1.7943 -0.4826
 4246TIP3   OH234372   1.899   4.525   7.348  0.2453  0.4765  0.0081
 4246TIP3    H134373   1.837   4.463   7.311  1.0454  0.0642 -0.6686
 4246TIP3    H234374   1.913   4.493   7.438  0.6845 -0.3601 -0.3470
 4247TIP3   OH234375   1.472   5.450   7.789 -0.4815 -0.5701 -0.0113
 4247TIP3    H134376   1.406   5.488   7.730 -0.8159  0.9062  1.2310
 4247TIP3    H234377   1.421   5.415   7.862  0.0440 -0.5006  0.3904
 4248TIP3   OH234378   4.071   1.059   0.678  0.2742  0.3975  0.3649
 4248TIP3    H134379   4.100   0.970   0.657 -1.1141  0.4124 -1.8463
 4248TIP3    H234380   3.994   1.047   0.734  0.7179  0.2680  0.9678
 4249TIP3   OH234381   2.479   1.380   7.609 -0.0729 -0.2572  0.1405
 4249TIP3    H134382   2.500   1.425   7.692 -0.6505 -1.8272  1.1812
 4249TIP3    H234383   2.390   1.408   7.588  0.5551  1.2087 -0.7200
 4250TIP3   OH234384   0.756   1.642   2.043 -0.2994  0.1672 -0.0006
 4250TIP3    H134385   0.821   1.658   1.974 -0.1493  1.0770  0.3326
 4250TIP3    H234386   0.808   1.619   2.120 -0.3842  0.4931  0.1584
 4251TIP3   OH234387   4.744   2.463   7.592 -0.3833  0.2849 -0.0688
 4251TIP3    H134388   4.779   2.382   7.630 -0.8562  0.0902 -0.0361
 4251TIP3    H234389   4.808   2.487   7.524  0.4217  0.5954  0.7766
 4252TIP3   OH234390   2.064   5.934   7.417  0.5214 -0.3447  0.2466
 4252TIP3    H134391   2.060   6.029   7.417 -1.5769 -0.3796 -0.1793
 4252TIP3    H234392   2.129   5.912   7.349  1.7075  0.7473  0.9796
 4253TIP3   OH234393   4.160   4.473   8.279 -0.0166 -0.1436  0.2445
 4253TIP3    H134394   4.114   4.504   8.357  1.0248  1.2919  0.3362
 4253TIP3    H234395   4.125   4.526   8.207 -0.6080 -1.1069 -0.1886
 4254TIP3   OH234396   2.519   5.290   2.370  0.5066  0.2261 -0.0381
 4254TIP3    H134397   2.598   5.267   2.419  0.4698 -0.9511 -0.4934
 4254TIP3    H234398   2.499   5.379   2.397  1.1278  0.0038  1.2394
 4255TIP3   OH234399   3.813   4.937   1.920 -0.3945 -0.2785 -0.5572
 4255TIP3    H134400   3.756   4.942   1.997  0.5494  0.6942  0.1102
 4255TIP3    H234401   3.897   4.972   1.950  0.1569 -0.4041 -1.8866
 4256TIP3   OH234402   1.791   0.565   2.747 -0.4659  0.9126 -0.3375
 4256TIP3    H134403   1.843   0.491   2.713 -0.3812  1.1019 -0.6309
 4256TIP3    H234404   1.855   0.619   2.793 -0.4023  1.1316 -0.6752
 4257TIP3   OH234405   3.227   4.683   1.876 -0.1848 -0.2371  0.2444
 4257TIP3    H134406   3.199   4.756   1.930 -0.5427  0.9907 -1.4913
 4257TIP3    H234407   3.318   4.703   1.853 -1.3250  1.8507 -3.3503
 4258TIP3   OH234408   4.540   0.984   1.173 -0.5752 -0.4607  0.0635
 4258TIP3    H134409   4.628   1.001   1.209 -0.4428 -0.7691 -0.1096
 4258TIP3    H234410   4.494   0.939   1.243 -0.5293 -0.4772  0.0835
 4259TIP3   OH234411   5.362   2.142   8.353  0.6070 -0.1280  0.1083
 4259TIP3    H134412   5.417   2.106   8.422  1.5797 -0.7530 -0.9558
 4259TIP3    H234413   5.405   2.116   8.271 -1.0140 -0.2298 -0.7676
 4260TIP3   OH234414   5.401   5.331   0.705  0.1858 -0.2978 -0.2783
 4260TIP3    H134415   5.422   5.325   0.798  0.3491  1.5243 -0.1589
 4260TIP3    H234416   5.419   5.244   0.671 -1.9068 -1.6389  1.7596
 4261TIP3   OH234417   4.976   0.212   7.834  0.2860 -0.2174  0.4209
 4261TIP3    H134418   5.053   0.267   7.850  0.2211  0.5992 -1.7545
 4261TIP3    H234419   5.011   0.123   7.823  1.2104  0.3594 -2.0626
 4262TIP3   OH234420   3.513   1.750   1.147 -0.5289  0.0499 -0.3244
 4262TIP3    H134421   3.454   1.680   1.175  1.9291 -1.5549  1.2656
 4262TIP3    H234422   3.537   1.727   1.058  1.3249 -2.0483  0.6293
 4263TIP3   OH234423   1.262   3.429   2.125 -0.0846 -0.5668  0.3731
 4263TIP3    H134424   1.230   3.513   2.091 -0.5226 -0.6702  0.5213
 4263TIP3    H234425   1.349   3.449   2.160 -1.0874  0.3707  2.5384
 4264TIP3   OH234426   5.341   3.986   8.175  0.0133  0.2898  0.2366
 4264TIP3    H134427   5.291   3.965   8.095  0.0722  1.2194 -0.0673
 4264TIP3    H234428   5.381   4.071   8.155  3.9045 -1.5313 -0.5599
 4265TIP3   OH234429   3.517   2.033   8.242 -0.6129  0.0709  0.8012
 4265TIP3    H134430   3.527   1.978   8.164  0.9188  0.1156  0.9313
 4265TIP3    H234431   3.442   2.089   8.223 -0.5151 -0.2041 -0.4761
 4266TIP3   OH234432   1.565   1.208   1.704  0.3007 -0.0514  0.3193
 4266TIP3    H134433   1.600   1.146   1.767  1.6690 -0.0648 -0.4154
 4266TIP3    H234434   1.544   1.154   1.627  1.2692  0.3283 -0.2330
 4267TIP3   OH234435   0.755   1.231   0.222 -0.3134 -0.4113 -0.0750
 4267TIP3    H134436   0.834   1.267   0.262 -0.3418 -0.2704 -0.1428
 4267TIP3    H234437   0.765   1.251   0.129  0.8992 -2.8438 -0.5385
 4268TIP3   OH234438   2.656   4.277   1.125 -0.2741  0.3455 -0.8255
 4268TIP3    H134439   2.734   4.274   1.180 -0.0055 -0.9567 -1.2461
 4268TIP3    H234440   2.654   4.367   1.092  0.8004  0.5219 -0.4589
 4269TIP3   OH234441   0.450   1.561   7.985  0.3771 -0.2446 -0.0617
 4269TIP3    H134442   0.361   1.578   7.957  0.5793  0.3052 -0.3881
 4269TIP3    H234443   0.474   1.637   8.039  0.3029 -0.8649  0.8592
 4270TIP3   OH234444   3.219   0.715   2.065 -0.0011 -0.2896  0.4511
 4270TIP3    H134445   3.289   0.675   2.117 -0.6858  0.5240  2.0700
 4270TIP3    H234446   3.225   0.672   1.980  1.8505 -0.9060  0.8510
 4271TIP3   OH234447   5.125   3.303   8.439  0.0877 -0.6571 -0.3554
 4271TIP3    H134448   5.136   3.278   8.347  1.9013 -1.6896  0.1060
 4271TIP3    H234449   5.210   3.336   8.465 -0.6392  0.4102  0.7527
 4272TIP3   OH234450   4.336   0.404   7.625 -1.0458 -0.3090  0.0215
 4272TIP3    H134451   4.326   0.313   7.655 -0.3194  0.1813  1.9125
 4272TIP3    H234452   4.425   0.427   7.650 -1.3389  1.0302 -0.1235
 4273TIP3   OH234453   5.363   3.689   1.070  0.3967  0.0974 -0.9398
 4273TIP3    H134454   5.289   3.635   1.097 -0.1567  1.6348  0.7749
 4273TIP3    H234455   5.329   3.745   1.001  0.3842 -0.2387 -1.2076
 4274TIP3   OH234456   6.022   4.638   7.864  0.3147 -0.5792  0.2459
 4274TIP3    H134457   6.096   4.640   7.803 -1.0778  0.0956 -1.4767
 4274TIP3    H234458   6.057   4.593   7.941  2.7964  0.5272 -0.1305
 4275TIP3   OH234459   6.827   2.823   7.091  0.3182 -0.0086 -0.0929
 4275TIP3    H134460   6.777   2.863   7.020  1.1297  0.5966 -0.3333
 4275TIP3    H234461   6.888   2.765   7.048  1.0296  0.5963  0.0786
 4276TIP3   OH234462   5.364   6.022   7.323 -0.3594 -0.3092 -0.4875
 4276TIP3    H134463   5.402   6.110   7.319  1.3207 -1.0187 -0.8305
 4276TIP3    H234464   5.399   5.984   7.404 -1.4308 -0.5340 -0.1071
 4277TIP3   OH234465   5.716   4.139   0.803  0.1299 -0.2878  0.0756
 4277TIP3    H134466   5.808   4.117   0.821  0.8045  2.6762  0.8019
 4277TIP3    H234467   5.719   4.184   0.718 -0.6840 -0.2570  0.0564
 4278TIP3   OH234468   1.540   3.068   7.201  0.3272  0.5564 -0.0211
 4278TIP3    H134469   1.473   3.123   7.242  1.0270 -0.2998  2.4415
 4278TIP3    H234470   1.602   3.130   7.163 -1.3375  1.3663 -1.5933
 4279TIP3   OH234471   0.033   1.977   8.186  0.1341  0.4445 -0.2182
 4279TIP3    H134472   0.060   2.014   8.269 -1.0461  1.0115 -0.0667
 4279TIP3    H234473   0.060   2.041   8.121 -2.2736  1.8623  0.0762
 4280TIP3   OH234474   3.068   2.817   7.685  0.1686 -0.4292  0.6695
 4280TIP3    H134475   3.021   2.748   7.732 -0.5745 -1.1379 -1.0095
 4280TIP3    H234476   3.130   2.771   7.630  0.6868  0.3407  0.5953
 4281TIP3   OH234477   6.638   5.823   0.251 -0.7337  0.6640  0.0880
 4281TIP3    H134478   6.709   5.761   0.267 -0.4592  0.7761 -0.6256
 4281TIP3    H234479   6.558   5.770   0.257 -0.4949  0.1986 -0.6529
 4282TIP3   OH234480   5.388   2.995   8.354 -0.5738 -0.1141 -0.4503
 4282TIP3    H134481   5.378   2.974   8.447 -0.2077  0.0618 -0.3725
 4282TIP3    H234482   5.397   2.910   8.312 -1.2410 -0.2265 -0.3898
 4283TIP3   OH234483   1.708   4.178   2.019 -0.3876  0.0654  0.2132
 4283TIP3    H134484   1.722   4.264   2.058  1.0116  0.1222 -0.3713
 4283TIP3    H234485   1.654   4.132   2.083 -0.3273  1.0392  0.9958
 4284TIP3   OH234486   3.932   3.087   2.918 -0.1363  0.2273  0.5439
 4284TIP3    H134487   3.954   3.082   3.011  1.2746 -3.5914  0.1443
 4284TIP3    H234488   3.846   3.045   2.911  0.6704 -1.3621 -0.0878
 4285TIP3   OH234489   5.018   1.888   0.763 -0.0718 -0.7128 -0.3147
 4285TIP3    H134490   4.933   1.850   0.783 -0.7516  0.2816 -1.1422
 4285TIP3    H234491   5.081   1.821   0.785 -1.1790 -2.1044 -1.2069
 4286TIP3   OH234492   0.230   0.437   1.471  0.4186  0.0576  0.0670
 4286TIP3    H134493   0.191   0.356   1.440 -0.2681  0.0524  0.8802
 4286TIP3    H234494   0.302   0.409   1.528 -0.9039 -0.0604  1.7513
 4287TIP3   OH234495   4.354   5.780   7.656 -0.3682 -1.0016  0.0971
 4287TIP3    H134496   4.328   5.715   7.590 -0.2140 -2.0927  1.0641
 4287TIP3    H234497   4.343   5.734   7.739 -1.3394  0.6176  0.8964
 4288TIP3   OH234498   3.784   4.313   1.468  0.3782  0.4865  0.3654
 4288TIP3    H134499   3.844   4.243   1.493  0.0884 -0.2897 -1.0212
 4288TIP3    H234500   3.763   4.356   1.551  0.8655 -0.8153  1.2097
 4289TIP3   OH234501   6.510   1.483   1.338 -0.0140 -0.3222 -0.0246
 4289TIP3    H134502   6.423   1.521   1.347  0.2486 -0.1995  3.4149
 4289TIP3    H234503   6.570   1.553   1.362  1.1323 -0.3804 -2.3904
 4290TIP3   OH234504   4.478   3.031   7.776 -0.2454  0.7572 -0.1683
 4290TIP3    H134505   4.482   3.117   7.819  1.5655  1.2070 -1.0903
 4290TIP3    H234506   4.550   2.982   7.816 -1.5355 -0.5394  0.6641
 4291TIP3   OH234507   5.657   4.764   1.474  0.2736  0.1511  0.2175
 4291TIP3    H134508   5.704   4.697   1.523 -0.0838 -0.4256 -0.2236
 4291TIP3    H234509   5.576   4.777   1.523 -0.2604 -0.7074 -0.4279
 4292TIP3   OH234510   4.270   2.522   7.240  0.1048 -0.2529  0.8023
 4292TIP3    H134511   4.353   2.483   7.267  0.2519  0.4431  1.3997
 4292TIP3    H234512   4.293   2.610   7.209 -0.4904  0.2616  1.7553
 4293TIP3   OH234513   2.606   6.226   7.564  0.0977 -0.3595  0.3151
 4293TIP3    H134514   2.521   6.229   7.521  0.1257  1.4758  0.3150
 4293TIP3    H234515   2.668   6.254   7.497  0.3824  0.6448  0.9763
 4294TIP3   OH234516   4.608   2.340   0.778  0.2219 -0.3063  0.0318
 4294TIP3    H134517   4.537   2.316   0.718  0.4975  2.3203 -1.5085
 4294TIP3    H234518   4.565   2.349   0.863 -0.3544 -3.2372  0.1628
 4295TIP3   OH234519   5.068   4.716   2.353  0.3723  0.6097 -0.2113
 4295TIP3    H134520   4.998   4.666   2.395  0.6768  0.1554 -0.2333
 4295TIP3    H234521   5.089   4.785   2.416  0.7924 -0.0415  0.3786
 4296TIP3   OH234522   3.367   1.885   7.462 -0.4020 -0.1182 -0.6108
 4296TIP3    H134523   3.393   1.944   7.392  1.2306 -1.1634 -0.9407
 4296TIP3    H234524   3.289   1.841   7.429  1.6243 -2.2932 -2.8614
 4297TIP3   OH234525   0.592   2.781   1.212  0.3690 -0.5979 -0.2644
 4297TIP3    H134526   0.653   2.760   1.283  0.9608  2.0566  0.1252
 4297TIP3    H234527   0.507   2.791   1.255  1.1069  3.2282  0.6289
 4298TIP3   OH234528   1.323   0.869   2.650  0.1377 -0.1998 -0.4995
 4298TIP3    H134529   1.353   0.894   2.738 -1.8533  0.4052  0.0723
 4298TIP3    H234530   1.327   0.950   2.599 -0.4567 -0.1261 -0.4312
 4299TIP3   OH234531   1.086   1.970   1.154  0.2299 -0.1946  0.4236
 4299TIP3    H134532   1.085   1.910   1.229 -1.1488 -0.5243  0.1632
 4299TIP3    H234533   1.078   2.057   1.193  2.2723 -0.1218  0.8076
 4300TIP3   OH234534   3.140   6.341   7.790 -0.1121  0.1617 -0.0865
 4300TIP3    H134535   3.170   6.428   7.817  1.8444 -0.5898  0.2998
 4300TIP3    H234536   3.061   6.358   7.739 -0.7254  2.0456  1.3641
 4301TIP3   OH234537   3.520   6.380   6.616  0.1893  0.2204  0.1240
 4301TIP3    H134538   3.570   6.458   6.593 -0.2322  1.4104  2.8018
 4301TIP3    H234539   3.586   6.310   6.622  0.5383  0.2275 -2.4979
 4302TIP3   OH234540   3.201   1.165   2.442  0.5019 -0.3850  0.6709
 4302TIP3    H134541   3.164   1.118   2.367 -0.0633 -0.8440  1.2279
 4302TIP3    H234542   3.210   1.256   2.411 -1.2651 -0.2164  0.5699
 4303TIP3   OH234543   6.401   0.643   1.081 -0.0951 -0.1282 -0.3092
 4303TIP3    H134544   6.369   0.555   1.061  0.2309 -0.5396  0.9116
 4303TIP3    H234545   6.342   0.702   1.034 -1.0381 -0.9622 -0.1853
 4304TIP3   OH234546   1.822   3.996   7.244 -0.4278 -0.1622 -0.2691
 4304TIP3    H134547   1.912   4.000   7.275  0.2108  1.9472 -2.1371
 4304TIP3    H234548   1.804   4.084   7.209 -2.5168 -1.0959 -1.7840
 4305TIP3   OH234549   3.239   6.112   7.646 -0.1834  0.4316 -0.0368
 4305TIP3    H134550   3.247   6.178   7.714  2.4424  0.8492 -0.6721
 4305TIP3    H234551   3.317   6.123   7.592 -1.2181 -1.1661 -1.9863
 4306TIP3   OH234552   3.411   1.506   1.944  0.2370 -0.2235 -0.8190
 4306TIP3    H134553   3.322   1.541   1.945  0.8231  1.5902  2.4015
 4306TIP3    H234554   3.462   1.572   1.897  0.4238  0.6850  0.5787
 4307TIP3   OH234555   6.264   2.355   8.139 -0.4531  0.0948  0.4351
 4307TIP3    H134556   6.262   2.285   8.073 -0.4584  0.5572 -0.0694
 4307TIP3    H234557   6.182   2.346   8.186 -1.4660  1.0776 -1.0505
 4308TIP3   OH234558   1.466   2.863   7.454 -0.3115  0.1670 -0.3458
 4308TIP3    H134559   1.432   2.800   7.391  0.2569 -0.8392  0.3181
 4308TIP3    H234560   1.483   2.942   7.403 -1.5959 -0.0045 -1.0859
 4309TIP3   OH234561   1.502   1.504   0.547  0.5362 -0.0805 -0.2147
 4309TIP3    H134562   1.456   1.532   0.626 -1.1833 -0.5964 -0.9832
 4309TIP3    H234563   1.585   1.469   0.579  0.3687  0.7798  1.2420
 4310TIP3   OH234564   1.197   0.158   0.732  0.1248 -0.5585 -0.2096
 4310TIP3    H134565   1.261   0.228   0.723  0.5022 -0.8089  0.4403
 4310TIP3    H234566   1.175   0.134   0.642 -1.4386  1.6574 -0.5137
 4311TIP3   OH234567   0.266   4.368   1.940  0.1931 -0.8619  0.2442
 4311TIP3    H134568   0.270   4.322   1.856 -1.7730  1.6873 -1.3842
 4311TIP3    H234569   0.197   4.433   1.929  1.6761  1.4024  2.9188
 4312TIP3   OH234570   5.843   0.818   8.261  0.2160  0.4228 -0.5458
 4312TIP3    H134571   5.837   0.735   8.214  1.1678  0.2161 -0.3190
 4312TIP3    H234572   5.803   0.882   8.202 -2.0713 -0.4296 -0.0489
 4313TIP3   OH234573   6.003   4.222   6.956 -0.4709  0.1721  0.4387
 4313TIP3    H134574   6.051   4.146   6.923  1.3169  0.8743  1.3314
 4313TIP3    H234575   6.012   4.288   6.887  0.7218  0.6327  1.0146
 4314TIP3   OH234576   1.573   2.262   7.818  0.5727 -0.4862 -0.4691
 4314TIP3    H134577   1.568   2.174   7.856  1.7064 -0.5947 -0.5476
 4314TIP3    H234578   1.662   2.269   7.785  0.7147  0.9623  0.1554
 4315TIP3   OH234579   5.249   3.157   0.760  0.3078 -0.3876  0.1678
 4315TIP3    H134580   5.180   3.130   0.700 -1.7869  0.1647  2.1811
 4315TIP3    H234581   5.289   3.075   0.789 -1.0806 -0.9118  0.6887
 4316TIP3   OH234582   3.660   4.023   7.498  0.3186  0.4529 -0.1203
 4316TIP3    H134583   3.578   4.062   7.467  0.3567  0.1261 -0.6370
 4316TIP3    H234584   3.701   4.093   7.549 -1.1733  0.0028  1.8041
 4317TIP3   OH234585   6.250   2.045   1.356  0.5509  0.5329  0.3804
 4317TIP3    H134586   6.276   2.048   1.264 -3.2249  1.4070 -0.8175
 4317TIP3    H234587   6.253   1.952   1.380 -0.4052  0.0413 -1.3023
 4318TIP3   OH234588   1.370   1.816   0.711 -0.3543 -0.4370  0.2225
 4318TIP3    H134589   1.356   1.723   0.728  2.1202 -0.8030  0.5652
 4318TIP3    H234590   1.311   1.861   0.771 -1.7490 -1.7435 -0.1015
 4319TIP3   OH234591   5.969   4.995   8.130 -0.0011 -0.1102 -0.3428
 4319TIP3    H134592   6.063   4.979   8.132 -0.0095 -0.1596 -0.3368
 4319TIP3    H234593   5.953   5.037   8.046  0.0816  0.2486 -0.1800
 4320TIP3   OH234594   5.473   5.492   7.866 -0.1730  0.6337  0.5151
 4320TIP3    H134595   5.441   5.433   7.934  2.2111 -1.3562  0.0243
 4320TIP3    H234596   5.449   5.449   7.783  0.5090  0.9756  0.1339
 4321TIP3   OH234597   6.555   1.426   2.223  0.0250 -0.1547 -0.4224
 4321TIP3    H134598   6.556   1.433   2.128 -1.1658  0.6194 -0.4028
 4321TIP3    H234599   6.641   1.389   2.246  0.8476  0.8979 -1.6860
 4322TIP3   OH234600   2.830   6.276   0.146 -0.1334  0.1358 -0.0847
 4322TIP3    H134601   2.923   6.266   0.124 -0.2217 -0.6268 -0.1378
 4322TIP3    H234602   2.814   6.207   0.211 -1.0278 -0.7320 -1.1924
 4323TIP3   OH234603   4.540   6.288   0.302  0.6381  0.2650  0.7156
 4323TIP3    H134604   4.519   6.214   0.245  0.1552  1.3554 -0.5504
 4323TIP3    H234605   4.588   6.248   0.375 -0.7812 -1.4732  0.7609
 4324TIP3   OH234606   3.137   4.282   2.357 -0.4380  0.2470 -0.2367
 4324TIP3    H134607   3.086   4.211   2.395  1.8382 -1.4363 -0.1442
 4324TIP3    H234608   3.165   4.249   2.271  1.3669  0.6534  0.1607
 4325TIP3   OH234609   2.074   2.318   1.155 -0.2280 -0.3372 -0.4686
 4325TIP3    H134610   2.058   2.412   1.151  3.4784  0.5689  1.2405
 4325TIP3    H234611   2.002   2.282   1.206 -0.8080  1.8849  0.3474
 4326TIP3   OH234612   4.867   3.586   7.505  0.1106  0.3149 -0.6248
 4326TIP3    H134613   4.846   3.548   7.420 -0.0259  1.4505 -1.1167
 4326TIP3    H234614   4.963   3.584   7.510  0.0979 -0.2012 -0.5870
 4327TIP3   OH234615   3.766   5.422   2.345  0.0032 -0.0571  0.1899
 4327TIP3    H134616   3.683   5.469   2.354  0.1709 -0.0303  2.0957
 4327TIP3    H234617   3.771   5.366   2.423 -0.0132 -3.0665 -1.8100
 4328TIP3   OH234618   3.662   5.762   7.578 -0.5414 -0.0082 -0.4635
 4328TIP3    H134619   3.756   5.777   7.571 -0.2505  0.1180  2.3535
 4328TIP3    H234620   3.650   5.671   7.550  0.5867 -0.3198  0.0039
 4329TIP3   OH234621   2.811   6.312   1.889  0.7975  0.4504  0.2435
 4329TIP3    H134622   2.833   6.279   1.976  0.0580 -0.3945  0.1316
 4329TIP3    H234623   2.866   6.389   1.877  0.9090  0.5764  1.4604
 4330TIP3   OH234624   1.425   2.947   1.524 -0.2482  0.2751 -0.3704
 4330TIP3    H134625   1.357   2.989   1.473 -0.8376 -0.4351 -0.1998
 4330TIP3    H234626   1.426   2.994   1.607  0.0802  0.8469 -0.6987
 4331TIP3   OH234627   2.335   2.302   1.109 -0.3133  0.1869  0.9592
 4331TIP3    H134628   2.240   2.292   1.109 -0.1998 -1.2052  1.9617
 4331TIP3    H234629   2.350   2.387   1.151 -1.1126  0.6032  0.4317
 4332TIP3   OH234630   5.391   2.864   8.089 -0.7317 -0.2876  0.4103
 4332TIP3    H134631   5.408   2.841   7.998 -0.5574  0.5260  0.2251
 4332TIP3    H234632   5.296   2.856   8.099 -0.6205 -1.7389  0.5615
 4333TIP3   OH234633   4.712   2.137   6.714 -0.2536 -0.4215  0.0614
 4333TIP3    H134634   4.775   2.204   6.738 -0.7983  0.9379 -1.9976
 4333TIP3    H234635   4.765   2.059   6.695  0.7731  0.5103 -1.0374
 4334TIP3   OH234636   0.489   5.420   2.181 -0.3029 -0.3392  0.5522
 4334TIP3    H134637   0.522   5.500   2.141 -2.0079  0.6111  0.9641
 4334TIP3    H234638   0.519   5.424   2.271 -0.7484  0.0598  0.6853
 4335TIP3   OH234639   6.310   2.921   2.311  0.4456 -0.0176 -0.5254
 4335TIP3    H134640   6.358   2.907   2.393  0.8806  1.4364 -0.4959
 4335TIP3    H234641   6.253   2.996   2.330 -0.9622 -0.9583 -0.9325
 4336TIP3   OH234642   2.228   1.529   0.340 -0.0569 -0.2395  0.3803
 4336TIP3    H134643   2.203   1.448   0.295 -1.1255 -0.4441  1.2971
 4336TIP3    H234644   2.145   1.577   0.351  0.4380  0.5761  0.6200
 4337TIP3   OH234645   2.476   5.035   1.228  0.1795  0.1290 -0.4445
 4337TIP3    H134646   2.433   4.980   1.293  0.6438 -0.7636 -0.8695
 4337TIP3    H234647   2.570   5.020   1.242  0.3247  1.1009 -0.3305
 4338TIP3   OH234648   5.575   1.033   1.878  0.6020  0.5492  0.3741
 4338TIP3    H134649   5.524   0.953   1.879  0.5351  0.5874  0.0619
 4338TIP3    H234650   5.558   1.072   1.792 -0.9268  1.8995  1.2429
 4339TIP3   OH234651   0.760   0.503   7.954  0.5346  0.2019  0.0342
 4339TIP3    H134652   0.788   0.506   8.045  2.0115  0.3179 -0.3922
 4339TIP3    H234653   0.793   0.585   7.916 -0.2685  0.2679 -0.5496
 4340TIP3   OH234654   0.592   3.797   0.514 -0.1677  0.5898 -0.2711
 4340TIP3    H134655   0.586   3.728   0.448 -0.1761 -1.9703  2.2209
 4340TIP3    H234656   0.578   3.878   0.465  1.0649 -1.0025 -3.5812
 4341TIP3   OH234657   0.014   4.774   7.086 -0.3010 -0.2410  0.4261
 4341TIP3    H134658  -0.051   4.731   7.030 -2.1610  2.5173  0.2504
 4341TIP3    H234659   0.079   4.810   7.025  0.3869 -1.3749  0.4638
 4342TIP3   OH234660   0.949   4.758   1.556  0.7267 -0.0016  0.5745
 4342TIP3    H134661   0.964   4.843   1.516  0.2504 -0.0023  0.3778
 4342TIP3    H234662   0.861   4.765   1.594  1.4014  0.2081  2.1820
 4343TIP3   OH234663   2.754   0.761   1.841  0.1889  0.3230 -0.6126
 4343TIP3    H134664   2.702   0.841   1.834  0.6758  0.5587 -1.8893
 4343TIP3    H234665   2.845   0.791   1.842  0.4448 -0.2464 -2.6601
 4344TIP3   OH234666   0.992   5.623   0.001  0.1604 -0.3233 -0.4297
 4344TIP3    H134667   0.909   5.581   0.022  0.0534  0.0271 -0.1446
 4344TIP3    H234668   0.982   5.713   0.031  0.6562 -0.2860 -0.3578
 4345TIP3   OH234669   0.048   5.780   1.542  0.1748  0.3428 -0.5593
 4345TIP3    H134670   0.002   5.754   1.462 -0.1961  1.1806 -0.6250
 4345TIP3    H234671   0.132   5.735   1.536  0.4786  1.0213 -1.8391
 4346TIP3   OH234672   4.752   2.947   6.337 -0.0234 -0.0799 -0.1898
 4346TIP3    H134673   4.789   2.934   6.250  0.8067 -0.8903  0.2661
 4346TIP3    H234674   4.784   3.033   6.364 -0.3704  0.2212 -0.7206
 4347TIP3   OH234675   2.482   0.378   0.776  0.4957 -0.3471 -0.4474
 4347TIP3    H134676   2.512   0.466   0.754  0.4947 -0.0869  0.5657
 4347TIP3    H234677   2.527   0.356   0.858  0.6482 -1.3694 -0.7840
 4348TIP3   OH234678   4.789   2.242   8.408  0.6068  0.3381  0.5325
 4348TIP3    H134679   4.840   2.200   8.339  1.0035  0.9242  0.4568
 4348TIP3    H234680   4.780   2.333   8.378  0.1179  0.4038  0.8833
 4349TIP3   OH234681   5.951   2.884   7.261 -0.1654  0.2493 -0.6139
 4349TIP3    H134682   5.931   2.793   7.282 -1.3140 -0.3932 -4.0126
 4349TIP3    H234683   6.044   2.893   7.281 -0.0781 -1.5676  0.0078
 4350TIP3   OH234684   1.101   0.775   0.109  0.2966  0.4177 -0.1251
 4350TIP3    H134685   1.180   0.816   0.145 -0.3124 -0.5740  2.5569
 4350TIP3    H234686   1.119   0.682   0.113 -0.8178  0.2001  0.0535
 4351TIP3   OH234687   3.833   3.428   2.010  0.1426 -0.5602 -0.3069
 4351TIP3    H134688   3.778   3.443   2.087  0.9629  1.5074 -0.0412
 4351TIP3    H234689   3.786   3.472   1.938  0.2000 -1.0280 -0.6340
 4352TIP3   OH234690   2.156   6.382   8.222  0.5798 -0.3800  0.2776
 4352TIP3    H134691   2.237   6.434   8.229  0.7982 -0.8493  1.3819
 4352TIP3    H234692   2.136   6.383   8.128  1.3694  0.4954  0.0982
 4353TIP3   OH234693   2.894   6.888   7.934  0.1167 -0.2515  0.0798
 4353TIP3    H134694   2.919   6.922   7.848  0.3684  1.1691  0.6778
 4353TIP3    H234695   2.977   6.859   7.974 -0.1793 -2.3342 -0.6969
 4354TIP3   OH234696   4.610   5.374   2.547 -0.0789  0.0269 -0.3421
 4354TIP3    H134697   4.634   5.314   2.477  1.0720 -0.0374  0.0797
 4354TIP3    H234698   4.653   5.339   2.625 -1.2043  0.1894  0.3637
 4355TIP3   OH234699   5.173   4.603   0.485 -0.0002  0.0809 -0.5312
 4355TIP3    H134700   5.164   4.659   0.562 -0.4707 -2.9227  1.7809
 4355TIP3    H234701   5.097   4.624   0.431 -0.7375  0.9244  0.7780
 4356TIP3   OH234702   5.635   0.818   6.825  0.4851 -0.4452 -0.5682
 4356TIP3    H134703   5.666   0.908   6.822 -0.1569 -0.2352 -1.0642
 4356TIP3    H234704   5.707   0.769   6.866 -0.6882  0.9495  3.7411
 4357TIP3   OH234705   4.265   5.672   7.908  0.1665 -0.0847 -0.6471
 4357TIP3    H134706   4.230   5.607   7.969  1.1233  0.1057  0.1192
 4357TIP3    H234707   4.232   5.756   7.941  1.1367  0.0756 -0.0370
 4358TIP3   OH234708   0.324   6.478   8.237 -0.5591  0.3910 -0.5606
 4358TIP3    H134709   0.410   6.464   8.277 -1.0701  2.0098  1.2539
 4358TIP3    H234710   0.272   6.403   8.265  0.3170 -0.8367 -2.0412
 4359TIP3   OH234711   5.684   3.757   2.039 -0.3605 -1.1501  0.3488
 4359TIP3    H134712   5.765   3.712   2.015 -0.6071 -0.4880 -1.9769
 4359TIP3    H234713   5.705   3.804   2.119  0.9425 -2.5421  0.8669
 4360TIP3   OH234714   6.057   2.340   1.860 -0.8782 -0.1657  0.7119
 4360TIP3    H134715   6.102   2.416   1.824 -0.3975 -0.2376  1.1405
 4360TIP3    H234716   6.127   2.289   1.903 -1.0000 -1.3793 -0.4559
 4361TIP3   OH234717   3.423   4.011   1.560 -0.1703 -0.3145 -0.0045
 4361TIP3    H134718   3.361   3.941   1.542 -0.5845  0.0947 -0.1686
 4361TIP3    H234719   3.381   4.091   1.528  0.8082 -0.1508 -0.9610
 4362TIP3   OH234720   6.534   2.036   7.709 -0.3039  0.1921 -0.1831
 4362TIP3    H134721   6.627   2.025   7.690  0.4069  0.8948  2.4241
 4362TIP3    H234722   6.502   2.099   7.644  0.9299 -0.3467 -1.3372
 4363TIP3   OH234723   1.101   2.693   1.441 -0.3473 -0.0584 -0.3100
 4363TIP3    H134724   1.067   2.674   1.528  0.9967  1.4764  0.5869
 4363TIP3    H234725   1.089   2.787   1.430  2.0497  0.2713 -0.6138
 4364TIP3   OH234726   1.965   5.640   1.518 -0.3533 -0.7458  0.4438
 4364TIP3    H134727   2.043   5.630   1.464 -0.2365 -1.3476  0.7122
 4364TIP3    H234728   1.996   5.686   1.596 -0.0654 -1.8089  0.9686
 4365TIP3   OH234729   0.605   3.986   0.297 -0.8709  0.5233  0.0333
 4365TIP3    H134730   0.536   3.973   0.232  0.1772 -0.7895 -0.8908
 4365TIP3    H234731   0.686   3.974   0.247 -0.0107 -2.2896  1.8542
 4366TIP3   OH234732   0.089   4.604   7.912  0.2924 -0.6259 -0.4469
 4366TIP3    H134733   0.069   4.570   7.999  0.3731 -2.1840 -0.9954
 4366TIP3    H234734   0.028   4.558   7.854  0.6620 -0.0868 -1.2827
 4367TIP3   OH234735   3.893   5.202   0.491 -0.4403 -0.4615 -0.0439
 4367TIP3    H134736   3.924   5.127   0.542  0.2267  1.1534  2.1091
 4367TIP3    H234737   3.929   5.189   0.403  0.2852 -2.2612  0.4812
 4368TIP3   OH234738   5.126   5.403   8.183  0.0173 -0.1152  0.4330
 4368TIP3    H134739   5.037   5.379   8.160  0.4381 -1.6634  0.3087
 4368TIP3    H234740   5.146   5.352   8.262  1.2825 -1.0091 -0.4101
 4369TIP3   OH234741   4.435   4.842   0.610  0.1607  0.3137 -0.2014
 4369TIP3    H134742   4.361   4.785   0.629 -0.4941 -0.0014 -3.1738
 4369TIP3    H234743   4.402   4.930   0.628  0.3562 -0.0157  2.0240
 4370TIP3   OH234744   5.194   0.656   1.367 -0.1732 -0.1059  0.2841
 4370TIP3    H134745   5.270   0.707   1.340 -0.5688  0.6112  0.5152
 4370TIP3    H234746   5.217   0.625   1.455 -0.0454 -0.1038  0.2519
 4371TIP3   OH234747   4.243   0.528   0.030 -0.0462  0.3616 -0.0783
 4371TIP3    H134748   4.283   0.451   0.069 -0.3918 -0.8204 -1.9194
 4371TIP3    H234749   4.180   0.558   0.096 -0.7078 -1.6067  0.2539
 4372TIP3   OH234750   0.735   2.113   1.257  0.1294 -0.0710 -0.3158
 4372TIP3    H134751   0.668   2.167   1.298 -0.6986 -0.5913 -0.9489
 4372TIP3    H234752   0.815   2.131   1.308 -0.6007  0.1567  0.7848
 4373TIP3   OH234753   4.900   6.312   0.644  0.1440 -0.2391  0.1654
 4373TIP3    H134754   4.934   6.356   0.567 -0.7223  1.3786  0.6599
 4373TIP3    H234755   4.965   6.327   0.712 -0.1782  0.3541  0.3491
 4374TIP3   OH234756   3.409   4.873   7.563 -0.3440 -0.5929  0.0144
 4374TIP3    H134757   3.370   4.859   7.477  0.8014 -0.0706 -0.6174
 4374TIP3    H234758   3.497   4.906   7.544  0.4086 -1.6996  1.3772
 4375TIP3   OH234759   6.490   0.457   2.724 -0.5368  0.6953 -0.5399
 4375TIP3    H134760   6.462   0.370   2.752 -0.1748 -0.1519 -2.5818
 4375TIP3    H234761   6.582   0.446   2.700 -1.1848  0.8280 -3.5167
 4376TIP3   OH234762   6.894   2.217   1.900  0.5739 -0.2352 -0.1952
 4376TIP3    H134763   6.946   2.144   1.933  0.3269 -0.8625 -1.1723
 4376TIP3    H234764   6.956   2.289   1.891  1.1070 -0.7431 -0.5872
 4377TIP3   OH234765   3.369   3.223   7.344 -0.5997 -0.7012  0.1277
 4377TIP3    H134766   3.299   3.191   7.402 -0.6217  0.2068  0.6074
 4377TIP3    H234767   3.435   3.154   7.347 -0.2971 -0.3913  1.7772
 4378TIP3   OH234768   1.398   6.155   7.552  0.3704 -0.3256  0.0018
 4378TIP3    H134769   1.369   6.078   7.601 -0.7741  1.0957  1.7007
 4378TIP3    H234770   1.434   6.214   7.618 -1.1797  1.6541 -0.8030
 4379TIP3   OH234771   2.797   6.401   1.271 -0.4149 -0.3774 -0.0622
 4379TIP3    H134772   2.784   6.333   1.338 -2.3832  0.8997  0.9677
 4379TIP3    H234773   2.708   6.434   1.254  0.5511  3.0605  0.7535
 4380TIP3   OH234774   2.565   4.178   0.679  0.5993 -0.6746  0.0562
 4380TIP3    H134775   2.516   4.176   0.762 -0.0906  0.4231 -0.3061
 4380TIP3    H234776   2.547   4.092   0.640  0.5445 -1.0248  0.8223
 4381TIP3   OH234777   4.054   6.500   8.063  0.2506 -0.5302  1.1438
 4381TIP3    H134778   4.029   6.527   7.974  1.4844 -1.7112  0.3941
 4381TIP3    H234779   3.976   6.456   8.097  0.6639 -2.7331 -0.5274
 4382TIP3   OH234780   4.708   2.339   0.081  0.1214 -0.1924  0.1197
 4382TIP3    H134781   4.675   2.425   0.053 -2.1720 -1.0783 -0.0832
 4382TIP3    H234782   4.741   2.300   0.000 -1.8550 -0.7425 -0.4865
 4383TIP3   OH234783   5.524   2.178   6.627 -0.1592  0.2487  0.5609
 4383TIP3    H134784   5.518   2.135   6.712 -1.0044  0.6533  0.7130
 4383TIP3    H234785   5.516   2.271   6.646 -3.6234  0.2250 -0.1908
 4384TIP3   OH234786   4.184   2.215   0.987  0.3023 -0.4146  0.4445
 4384TIP3    H134787   4.136   2.159   0.926 -0.0372  0.6259 -0.2680
 4384TIP3    H234788   4.140   2.300   0.982  1.6144  0.2959  0.4994
 4385TIP3   OH234789   1.660   1.391   7.658  0.2587 -0.0815  0.8839
 4385TIP3    H134790   1.628   1.473   7.621 -0.1930 -0.7896 -0.3799
 4385TIP3    H234791   1.755   1.400   7.657  0.3952 -0.7426 -2.2832
 4386TIP3   OH234792   0.147   1.841   2.621  0.0948  0.6484 -0.4226
 4386TIP3    H134793   0.191   1.805   2.699  1.5891 -0.0478 -1.5406
 4386TIP3    H234794   0.110   1.764   2.577  0.9507  0.7791 -1.4051
 4387TIP3   OH234795   2.523   5.137   7.675  0.7928 -0.1934 -0.4495
 4387TIP3    H134796   2.484   5.053   7.698  0.2625  0.1620  0.0143
 4387TIP3    H234797   2.543   5.131   7.582  0.7968 -0.8460 -0.4068
 4388TIP3   OH234798   0.010   0.044   7.892  0.1378  0.0739  0.3110
 4388TIP3    H134799   0.044   0.021   7.806  1.1938  1.1342  0.4121
 4388TIP3    H234800   0.083   0.089   7.935 -1.2451  2.0285  0.7380
 4389TIP3   OH234801   5.373   3.175   8.017 -0.3143  0.0500  0.0651
 4389TIP3    H134802   5.433   3.249   8.006 -1.2361  0.5274 -2.1469
 4389TIP3    H234803   5.426   3.098   7.996  0.2165  0.2022  0.7961
 4390TIP3   OH234804   4.327   3.813   1.419  0.0342  0.4741  0.1976
 4390TIP3    H134805   4.273   3.744   1.379 -0.2826  0.5088  0.5553
 4390TIP3    H234806   4.283   3.894   1.394 -0.2298  0.4912  0.6959
 4391TIP3   OH234807   2.134   5.805   8.354 -0.0397 -0.1293 -0.1116
 4391TIP3    H134808   2.160   5.713   8.352  2.1777  0.4385 -0.2115
 4391TIP3    H234809   2.122   5.828   8.262  1.7981  0.2502 -0.2943
 4392TIP3   OH234810   6.927   5.412   7.669  0.1726 -0.1568  0.3620
 4392TIP3    H134811   6.941   5.324   7.704  0.0343 -0.1717  0.3810
 4392TIP3    H234812   6.969   5.411   7.583 -1.6751 -0.9189 -0.5915
 4393TIP3   OH234813   4.855   6.374   1.195 -0.3819 -0.2882  0.4493
 4393TIP3    H134814   4.937   6.325   1.198  0.0681  0.4338  0.2233
 4393TIP3    H234815   4.864   6.430   1.118 -1.3997 -0.7391 -0.0121
 4394TIP3   OH234816   0.535   0.065   0.985  0.0441  0.8227  0.4434
 4394TIP3    H134817   0.459   0.096   0.935 -0.3248  0.1316  0.5578
 4394TIP3    H234818   0.604   0.128   0.967 -1.2789  2.9934  2.3847
 4395TIP3   OH234819   4.702   2.684   2.297 -0.4422  0.3019 -0.3628
 4395TIP3    H134820   4.732   2.602   2.337 -2.5693 -0.3500  0.0098
 4395TIP3    H234821   4.774   2.746   2.313  0.2852 -0.8852  1.3378
 4396TIP3   OH234822   1.614   6.833   0.042 -0.9454 -0.1734  0.2348
 4396TIP3    H134823   1.607   6.928   0.035 -0.6423 -0.1327  0.4508
 4396TIP3    H234824   1.542   6.808   0.099 -0.6353  0.0023  0.7122
 4397TIP3   OH234825   4.467   1.038   0.896 -0.5311 -0.4957 -0.6629
 4397TIP3    H134826   4.476   1.132   0.880 -1.4045 -0.7070 -2.6798
 4397TIP3    H234827   4.482   1.028   0.990  0.4434  1.5333 -0.5582
 4398TIP3   OH234828   3.084   6.351   1.341 -0.0581  0.0288 -0.0992
 4398TIP3    H134829   3.018   6.420   1.333  2.2800  2.4342  0.0884
 4398TIP3    H234830   3.076   6.320   1.431  0.0608  1.3941  0.3972
 4399TIP3   OH234831   1.934   5.211   7.422  0.6429 -0.0375  0.2296
 4399TIP3    H134832   1.899   5.124   7.441  2.8459 -0.8648  0.8033
 4399TIP3    H234833   1.860   5.259   7.385 -2.2403 -0.3296  4.8138
 4400TIP3   OH234834   6.002   5.390   0.534  0.9003 -0.3852 -0.0240
 4400TIP3    H134835   5.940   5.448   0.579  0.1716  0.4383 -2.0111
 4400TIP3    H234836   5.979   5.302   0.566 -0.2510  0.0675  0.4404
 4401TIP3   OH234837   0.271   4.037   2.396 -0.2052 -0.0076  0.4171
 4401TIP3    H134838   0.178   4.056   2.407 -0.5792 -0.8581 -0.9809
 4401TIP3    H234839   0.314   4.085   2.467 -1.4969  2.0675 -0.1043
 4402TIP3   OH234840   4.362   4.969   1.737  0.3279  0.5324  0.1548
 4402TIP3    H134841   4.301   5.032   1.699 -0.6404  0.3256  1.3265
 4402TIP3    H234842   4.342   4.968   1.830  0.4904 -1.3081  0.2168
 4403TIP3   OH234843   1.848   5.094   6.590 -0.0296  0.3450 -0.4459
 4403TIP3    H134844   1.761   5.101   6.630  0.0567  1.8415 -0.4409
 4403TIP3    H234845   1.838   5.139   6.505  0.7062  0.4377 -0.4835
 4404TIP3   OH234846   5.871   2.337   7.658 -0.2028 -0.4443 -0.5110
 4404TIP3    H134847   5.808   2.279   7.615 -1.2595 -0.0725  0.4621
 4404TIP3    H234848   5.913   2.281   7.724 -1.1458 -0.1779  0.3545
 4405TIP3   OH234849   5.663   0.445   0.509  0.1562  0.2092  0.4339
 4405TIP3    H134850   5.579   0.415   0.474  0.0842 -0.4200  1.1213
 4405TIP3    H234851   5.711   0.364   0.527 -0.5543  0.3911  3.6262
 4406TIP3   OH234852   0.411   6.848   1.898  0.6766  0.1724 -0.3504
 4406TIP3    H134853   0.407   6.942   1.915  0.4861  0.2073 -0.5980
 4406TIP3    H234854   0.406   6.808   1.985  0.8066  0.3899 -0.2415
 4407TIP3   OH234855   1.408   1.293   7.770  0.1891 -0.0014  0.0655
 4407TIP3    H134856   1.373   1.261   7.687  1.6614 -1.5577 -0.0048
 4407TIP3    H234857   1.491   1.335   7.746 -0.5759  1.8238  0.4673
 4408TIP3   OH234858   3.644   0.677   7.722  0.8117  0.1616  0.0872
 4408TIP3    H134859   3.654   0.592   7.764  2.0845  0.4248  0.3575
 4408TIP3    H234860   3.639   0.739   7.795  0.4884  0.3796 -0.1159
 4409TIP3   OH234861   5.613   3.249   6.441 -0.2387 -0.2155 -0.5194
 4409TIP3    H134862   5.663   3.297   6.508 -0.3975 -1.2476  0.3771
 4409TIP3    H234863   5.667   3.172   6.423  0.1702  0.4308 -2.1738
 4410TIP3   OH234864   3.354   2.774   8.386  0.0870 -0.2347  0.1544
 4410TIP3    H134865   3.419   2.720   8.340  0.9996  1.7815 -1.0291
 4410TIP3    H234866   3.370   2.863   8.355 -2.3388  0.5417  0.9287
 4411TIP3   OH234867   1.220   0.480   8.506 -0.0582 -0.9392 -0.0690
 4411TIP3    H134868   1.190   0.496   8.595  2.5001  4.0830  0.2315
 4411TIP3    H234869   1.203   0.562   8.460  1.1786 -2.4177 -3.5215
 4412TIP3   OH234870   2.886   5.111   0.569 -0.1226 -0.1309 -0.3248
 4412TIP3    H134871   2.802   5.065   0.576 -0.1724 -0.2378 -1.4160
 4412TIP3    H234872   2.890   5.167   0.647 -1.0696 -0.3445 -0.1150
 4413TIP3   OH234873   1.133   6.404   1.656  0.0599  0.1201 -0.2774
 4413TIP3    H134874   1.186   6.334   1.616 -0.7608 -0.2923 -0.6686
 4413TIP3    H234875   1.197   6.468   1.685  0.7388  0.1515 -1.7154
 4414TIP3   OH234876   4.575   1.750   1.633  0.2292 -0.5883 -0.1492
 4414TIP3    H134877   4.496   1.717   1.676  0.8088 -2.2122 -0.2547
 4414TIP3    H234878   4.564   1.727   1.541  0.8893 -1.0125 -0.1339
 4415TIP3   OH234879   5.345   1.734   0.440 -0.3965 -0.0883 -0.3297
 4415TIP3    H134880   5.326   1.828   0.435  0.0614 -0.0236 -1.0650
 4415TIP3    H234881   5.416   1.727   0.504 -1.4274 -0.1082  0.8494
 4416TIP3   OH234882   1.693   5.167   8.000  0.0308 -0.4171 -0.2752
 4416TIP3    H134883   1.699   5.193   7.908 -0.9117 -2.0792 -0.8575
 4416TIP3    H234884   1.784   5.160   8.029  0.3307  0.5693 -0.9380
 4417TIP3   OH234885   1.193   4.136   2.214 -0.6273  0.0959 -0.5981
 4417TIP3    H134886   1.267   4.189   2.246 -0.5519  0.7044 -1.7418
 4417TIP3    H234887   1.222   4.105   2.128 -0.8334 -1.4987 -0.1223
 4418TIP3   OH234888   5.123   5.696   0.147 -0.2621  0.3169 -0.5338
 4418TIP3    H134889   5.098   5.778   0.189  0.2585  0.3762 -0.3337
 4418TIP3    H234890   5.189   5.658   0.205 -3.6407 -2.4940  1.8437
 4419TIP3   OH234891   4.467   0.943   7.891  0.0237  0.4673 -0.4138
 4419TIP3    H134892   4.386   0.898   7.868  0.7505 -0.9339 -0.3422
 4419TIP3    H234893   4.529   0.917   7.823  0.2064  2.2334 -0.9709
 4420TIP3   OH234894   1.565   2.531   8.549  0.3626  0.1879  0.2321
 4420TIP3    H134895   1.624   2.456   8.557  0.3266  0.2873  1.5756
 4420TIP3    H234896   1.493   2.511   8.608  0.4423  1.3546  0.7414
 4421TIP3   OH234897   6.570   0.601   0.030 -0.1794 -0.0093 -0.2614
 4421TIP3    H134898   6.523   0.684   0.039 -0.1577 -0.0304  0.0396
 4421TIP3    H234899   6.597   0.599  -0.062  0.1013  0.4697 -0.1945
 4422TIP3   OH234900   4.681   3.457   2.326  0.4512  0.1028 -0.2892
 4422TIP3    H134901   4.761   3.490   2.367  0.7061 -1.1475  0.2844
 4422TIP3    H234902   4.618   3.453   2.398  0.6216 -1.2172 -0.1839
 4423TIP3   OH234903   5.300   4.467   7.298 -0.3382 -0.4130 -0.4181
 4423TIP3    H134904   5.391   4.440   7.285 -0.1495 -0.5154  0.9539
 4423TIP3    H234905   5.304   4.563   7.298 -0.0329 -0.4108  0.7502
 4424TIP3   OH234906   1.385   6.637   0.674 -0.2296 -0.1924  0.4106
 4424TIP3    H134907   1.389   6.558   0.622  0.5005 -0.5108  0.9284
 4424TIP3    H234908   1.460   6.689   0.646  0.3681 -0.5175  1.3572
 4425TIP3   OH234909   6.855   3.573   7.669 -0.4348  0.4256  0.1906
 4425TIP3    H134910   6.878   3.665   7.687 -0.2129  0.4527 -0.2154
 4425TIP3    H234911   6.761   3.568   7.686 -0.3777  0.6385  0.5750
 4426TIP3   OH234912   1.551   6.162   1.139  0.1747  0.1795 -0.0158
 4426TIP3    H134913   1.555   6.067   1.152 -0.1957  0.3586  1.5472
 4426TIP3    H234914   1.615   6.197   1.200  0.9711  0.9078 -1.2357
 4427TIP3   OH234915   6.080   0.321   8.572  0.2895  0.1170 -0.1116
 4427TIP3    H134916   6.115   0.398   8.617 -1.4788  0.1795  1.3099
 4427TIP3    H234917   5.985   0.327   8.586 -0.0113 -1.6331 -1.1152
 4428TIP3   OH234918   4.216   3.683   0.867  0.4729  0.3327  0.0153
 4428TIP3    H134919   4.238   3.593   0.890 -0.0717  0.1746 -0.0736
 4428TIP3    H234920   4.238   3.689   0.774 -2.0840 -0.5647 -0.7281
 4429TIP3   OH234921   3.190   4.689   1.406 -0.3768 -0.0935 -0.0422
 4429TIP3    H134922   3.235   4.726   1.330 -0.6301  0.3732  0.0302
 4429TIP3    H234923   3.167   4.600   1.379 -0.4005  0.0426 -0.4858
 4430TIP3   OH234924   1.635   0.726   2.209 -0.1126 -0.0242  0.0129
 4430TIP3    H134925   1.581   0.647   2.212 -1.7679  1.0870  0.7767
 4430TIP3    H234926   1.605   0.772   2.131  0.6985 -0.0308 -0.3115
 4431TIP3   OH234927   0.927   1.687   1.817  0.2310 -0.3070 -0.2491
 4431TIP3    H134928   0.905   1.691   1.724 -2.0100  1.5505  0.2431
 4431TIP3    H234929   0.936   1.778   1.843  0.0170 -0.7462  1.4984
 4432TIP3   OH234930   2.783   6.041   1.367  0.8108  0.5691 -1.0503
 4432TIP3    H134931   2.758   5.950   1.352  1.7373 -0.1098  1.1871
 4432TIP3    H234932   2.875   6.038   1.390  0.7082  1.9917 -0.2973
 4433TIP3   OH234933   2.016   1.462   6.629 -0.2129  0.0062  0.1491
 4433TIP3    H134934   1.921   1.467   6.630 -0.2128  0.1158  1.7852
 4433TIP3    H234935   2.044   1.542   6.584 -0.8810 -0.1917 -0.6429
 4434TIP3   OH234936   2.066   6.760   0.921  0.2803 -0.1359  0.1704
 4434TIP3    H134937   2.013   6.829   0.960 -0.3184  0.2544 -1.3117
 4434TIP3    H234938   2.019   6.733   0.843  2.4074  0.4862 -1.4155
 4435TIP3   OH234939   0.064   4.164   7.163  0.1816 -0.0392  0.1104
 4435TIP3    H134940  -0.027   4.191   7.171  0.0435 -0.4470 -0.0552
 4435TIP3    H234941   0.086   4.181   7.071 -0.2226 -1.4432 -0.2622
 4436TIP3   OH234942   2.813   1.291   0.782  0.2136 -0.0285 -0.1922
 4436TIP3    H134943   2.754   1.309   0.708  0.5049  2.8121  0.1356
 4436TIP3    H234944   2.898   1.326   0.754  1.5754 -3.1071 -0.2386
 4437TIP3   OH234945   6.905   6.410   0.853 -0.6855 -0.1358 -0.5065
 4437TIP3    H134946   6.922   6.322   0.886 -1.2008 -0.0221  0.0908
 4437TIP3    H234947   6.950   6.468   0.915  0.2552  0.0048 -1.2983
 4438TIP3   OH234948   6.195   3.006   1.747  0.1453 -0.3500  0.7695
 4438TIP3    H134949   6.247   2.988   1.670 -0.8212 -0.4718  0.1328
 4438TIP3    H234950   6.112   3.040   1.713  0.1217  0.6636  1.7795
 4439TIP3   OH234951   6.103   4.078   0.470 -0.2931 -0.1006  0.0438
 4439TIP3    H134952   6.066   4.140   0.533 -1.2989 -1.8644  1.2914
 4439TIP3    H234953   6.090   4.119   0.385 -3.1062  0.4149  0.6142
 4440TIP3   OH234954   5.923   5.138   6.239  0.9601  0.0302 -0.2293
 4440TIP3    H134955   5.929   5.059   6.186  0.4949 -0.5743  0.6050
 4440TIP3    H234956   5.993   5.194   6.206  2.6219 -1.5323  0.5055
 4441TIP3   OH234957   5.701   6.332   2.005  0.8345  0.0236  0.7396
 4441TIP3    H134958   5.686   6.414   2.051  0.1212  0.9305 -1.0119
 4441TIP3    H234959   5.776   6.349   1.949 -0.4494  0.1455 -1.0236
 4442TIP3   OH234960   4.095   5.922   0.633  0.1677 -0.4729  0.4028
 4442TIP3    H134961   4.148   6.000   0.614 -0.2789 -0.4157 -0.6884
 4442TIP3    H234962   4.146   5.874   0.697 -0.0133  1.2236  1.9129
 4443TIP3   OH234963   3.804   5.340   7.689  0.0413 -0.5868 -0.4689
 4443TIP3    H134964   3.861   5.398   7.739  1.4911  0.1940 -2.9106
 4443TIP3    H234965   3.748   5.398   7.638 -1.7946 -1.3667  0.5331
 4444TIP3   OH234966   3.003   4.956   2.010 -0.0807  0.4777  0.0928
 4444TIP3    H134967   2.921   4.921   1.976  0.6058  0.0734 -1.2138
 4444TIP3    H234968   3.007   4.925   2.100 -1.0739  0.0099 -0.0154
 4445TIP3   OH234969   4.010   6.581   6.892 -0.1914 -0.0899  0.6687
 4445TIP3    H134970   4.002   6.649   6.959  0.3254  0.5106  0.1269
 4445TIP3    H234971   4.082   6.526   6.924  0.7085  0.7460  0.1625
 4446TIP3   OH234972   4.958   2.387   0.228 -0.6502  0.1892 -0.0595
 4446TIP3    H134973   4.870   2.358   0.209 -1.9077  1.3668  3.1789
 4446TIP3    H234974   5.006   2.308   0.252 -2.0799 -0.0968  2.1017
 4447TIP3   OH234975   4.281   4.485   7.479  0.3263  0.4479 -0.1661
 4447TIP3    H134976   4.271   4.525   7.392 -0.7813  0.7533  0.0861
 4447TIP3    H234977   4.315   4.397   7.461 -2.5601 -0.5842 -1.1628
 4448TIP3   OH234978   5.494   6.933   6.918 -0.3847 -0.4705 -0.2006
 4448TIP3    H134979   5.569   6.897   6.870 -1.2193 -1.4480 -0.8210
 4448TIP3    H234980   5.445   6.982   6.852 -0.5026 -0.1609  0.1167
 4449TIP3   OH234981   4.438   3.098   0.175  0.6032  0.3578  0.1901
 4449TIP3    H134982   4.386   3.151   0.115 -0.5603 -0.0650  0.7881
 4449TIP3    H234983   4.425   3.139   0.261 -0.7566 -1.1597  0.7582
 4450TIP3   OH234984   3.028   2.408   1.489  0.0632 -0.1354  0.4574
 4450TIP3    H134985   2.950   2.427   1.542 -1.2169  1.0878 -1.7044
 4450TIP3    H234986   3.025   2.313   1.475  0.0105 -0.3630  1.9078
 4451TIP3   OH234987   1.452   2.737   8.071  0.3905  0.1048 -0.1883
 4451TIP3    H134988   1.451   2.657   8.018 -0.9352  0.5912 -0.9402
 4451TIP3    H234989   1.544   2.754   8.087  0.8596 -0.0457 -2.3857
 4452TIP3   OH234990   1.046   0.312   8.243  0.0136 -0.1794 -0.8317
 4452TIP3    H134991   0.951   0.301   8.248  0.0422  0.0897  1.1812
 4452TIP3    H234992   1.060   0.407   8.244  0.3107 -0.2218 -0.5648
 4453TIP3   OH234993   1.838   5.041   0.408 -1.0916  0.3019 -0.2113
 4453TIP3    H134994   1.911   5.002   0.359 -0.3386  2.4748 -0.9194
 4453TIP3    H234995   1.810   4.972   0.468  0.8913 -0.9267 -0.6173
 4454TIP3   OH234996   2.870   4.915   8.474  0.2255  0.4727  0.2155
 4454TIP3    H134997   2.860   4.968   8.554 -0.9838  0.5437  0.0424
 4454TIP3    H234998   2.785   4.873   8.464  1.1318 -1.4887  0.3165
 4455TIP3   OH234999   0.770   3.679   1.530  0.3866 -0.2386 -0.3144
 4455TIP3    H135000   0.794   3.645   1.444  0.3114  0.1008 -0.4712
 4455TIP3    H235001   0.744   3.769   1.514 -3.7765 -1.2676 -0.6753
 4456TIP3   OH235002   1.849   2.725   7.368  0.0241  0.2764 -0.0203
 4456TIP3    H135003   1.864   2.814   7.400 -0.0136  0.9910 -1.8509
 4456TIP3    H235004   1.811   2.679   7.442 -0.3357  1.9006  0.8616
 4457TIP3   OH235005   1.253   4.883   2.673  0.6745 -0.4899  0.7213
 4457TIP3    H135006   1.303   4.813   2.633  0.3745 -0.3002  0.0016
 4457TIP3    H235007   1.253   4.954   2.608  0.1816 -0.1793  1.0493
 4458TIP3   OH235008   0.669   2.761   8.240  0.4900  0.0717 -0.2547
 4458TIP3    H135009   0.706   2.673   8.239  0.3878  0.0296 -0.5700
 4458TIP3    H235010   0.688   2.795   8.153  0.6389  0.4071 -0.0905
 4459TIP3   OH235011   6.823   0.530   2.206  0.4341 -0.4111  0.4628
 4459TIP3    H135012   6.917   0.512   2.205  0.1039 -2.6920  2.5227
 4459TIP3    H235013   6.802   0.549   2.298 -1.0717  0.5340 -0.0258
 4460TIP3   OH235014   4.398   5.842   1.122  0.4990  0.3484  0.2489
 4460TIP3    H135015   4.422   5.933   1.143  0.9579  0.8444 -2.1779
 4460TIP3    H235016   4.454   5.819   1.049 -0.9423 -1.2499 -0.4044
 4461TIP3   OH235017   1.075   0.855   1.687  0.1607 -0.4925 -0.3176
 4461TIP3    H135018   0.990   0.879   1.723 -0.5091 -0.4442 -1.8296
 4461TIP3    H235019   1.136   0.863   1.760 -1.2356 -1.1989  0.9770
 4462TIP3   OH235020   1.484   4.502   1.411  0.5995  0.6488 -0.0651
 4462TIP3    H135021   1.504   4.542   1.326  0.1329  0.4901 -0.2525
 4462TIP3    H235022   1.474   4.577   1.470 -0.3243  0.8197 -0.4276
 4463TIP3   OH235023   0.518   3.618   1.255 -0.1459  0.3659  0.1969
 4463TIP3    H135024   0.464   3.572   1.319 -1.0148  0.7467 -0.2514
 4463TIP3    H235025   0.479   3.596   1.170  0.3384  0.7343 -0.1259
 4464TIP3   OH235026   6.915   5.112   0.742  0.0908 -0.5616  0.0141
 4464TIP3    H135027   6.948   5.022   0.744 -1.7647 -1.3148 -0.7100
 4464TIP3    H235028   6.940   5.145   0.656  0.9003 -0.3311  0.3363
 4465TIP3   OH235029   6.516   4.502   7.339  0.0430 -0.1021 -0.6483
 4465TIP3    H135030   6.581   4.455   7.287  2.2984  0.1499  1.7073
 4465TIP3    H235031   6.464   4.433   7.380  1.1380 -0.4966  0.1413
 4466TIP3   OH235032   5.899   1.375   2.042  0.2483  0.1137 -0.2017
 4466TIP3    H135033   5.982   1.420   2.055  0.6614 -0.4290 -0.8600
 4466TIP3    H235034   5.895   1.360   1.947 -0.4680 -0.1131 -0.1417
 4467TIP3   OH235035   2.066   4.898   0.324  0.6501  0.2201  0.2111
 4467TIP3    H135036   2.157   4.892   0.353  0.5604 -0.3401  0.3810
 4467TIP3    H235037   2.069   4.879   0.230  0.6017 -0.7179  0.3888
 4468TIP3   OH235038   2.217   5.187   7.358  0.2869  0.1876 -0.4009
 4468TIP3    H135039   2.131   5.226   7.373  0.8475  1.1768  0.3848
 4468TIP3    H235040   2.201   5.093   7.362 -0.6411  0.3551  0.4856
 4469TIP3   OH235041   2.735   6.149   0.885  0.0826 -0.2651  0.2054
 4469TIP3    H135042   2.777   6.234   0.895  0.5511 -0.4839  0.1412
 4469TIP3    H235043   2.793   6.088   0.932 -0.9165 -0.3512  1.3599
 4470TIP3   OH235044   0.674   4.872   0.362 -0.1548 -0.1647 -0.0708
 4470TIP3    H135045   0.739   4.940   0.345 -1.6219  1.2831 -0.1441
 4470TIP3    H235046   0.655   4.835   0.276 -0.4702  0.4071 -0.2504
 4471TIP3   OH235047   0.391   1.269   8.182 -0.0706 -0.2319 -0.4270
 4471TIP3    H135048   0.296   1.259   8.185 -0.1952  0.8393 -0.5285
 4471TIP3    H235049   0.411   1.330   8.254  0.5172 -0.2837 -0.5409
 4472TIP3   OH235050   3.997   2.759   8.087 -0.2262 -0.3215 -0.2395
 4472TIP3    H135051   4.066   2.764   8.021 -0.4152 -0.1590 -0.4246
 4472TIP3    H235052   3.932   2.700   8.050  0.8147 -2.2710  0.8556
 4473TIP3   OH235053   6.384   2.237   0.202  0.1059 -0.9712 -0.3724
 4473TIP3    H135054   6.301   2.262   0.161  0.1945  1.5105  0.7295
 4473TIP3    H235055   6.370   2.254   0.295  1.9288 -0.1848 -0.2108
 4474TIP3   OH235056   5.031   1.124   1.607  0.6542  0.1654  0.0274
 4474TIP3    H135057   5.058   1.194   1.548  0.6018  0.3062  0.1697
 4474TIP3    H235058   5.083   1.048   1.580 -0.9707 -0.4120 -1.6721
 4475TIP3   OH235059   6.358   3.377   1.535  0.1308  0.5156  0.2390
 4475TIP3    H135060   6.409   3.297   1.549  2.6100  1.9186 -0.3030
 4475TIP3    H235061   6.299   3.354   1.462 -0.0650 -1.1501  0.8638
 4476TIP3   OH235062   2.529   4.594   2.068 -0.1843  0.2393 -0.2926
 4476TIP3    H135063   2.625   4.590   2.072 -0.0999  0.9266 -1.1378
 4476TIP3    H235064   2.499   4.518   2.117  0.7854  0.3280  0.4724
 4477TIP3   OH235065   5.477   2.186   2.547  0.4700 -0.1737  0.0702
 4477TIP3    H135066   5.443   2.109   2.501  1.2885 -0.4086 -0.1796
 4477TIP3    H235067   5.557   2.154   2.590  0.0156  0.1832  1.2015
 4478TIP3   OH235068   6.713   0.329   0.345  0.1493 -0.0288  0.0671
 4478TIP3    H135069   6.645   0.393   0.363 -0.1764 -0.4722  0.4503
 4478TIP3    H235070   6.694   0.256   0.404 -1.1395 -1.6804 -2.2210
 4479TIP3   OH235071   6.261   6.551   0.826  0.4994  0.2100 -0.1874
 4479TIP3    H135072   6.253   6.552   0.730  2.8558  0.5343 -0.4468
 4479TIP3    H235073   6.352   6.525   0.842 -0.2046 -1.1719  2.0254
 4480TIP3   OH235074   1.446   4.598   8.352  0.3639 -0.1333 -0.7174
 4480TIP3    H135075   1.488   4.573   8.269  3.4324  1.7415  0.0978
 4480TIP3    H235076   1.499   4.555   8.419 -0.9394 -0.1162  0.3625
 4481TIP3   OH235077   6.805   4.382   7.267 -0.1578  0.8438 -0.5663
 4481TIP3    H135078   6.743   4.348   7.202 -1.6677  2.0853  0.1746
 4481TIP3    H235079   6.824   4.471   7.239  0.2083  0.9516 -0.0068
 4482TIP3   OH235080   2.303   2.452   2.377 -0.1750 -0.4146  0.3398
 4482TIP3    H135081   2.384   2.420   2.338 -0.4491  0.4582 -0.9978
 4482TIP3    H235082   2.253   2.488   2.304 -1.5474 -0.4470  1.2236
 4483TIP3   OH235083   6.392   6.139   7.264  0.8495 -0.3968 -0.5132
 4483TIP3    H135084   6.318   6.164   7.318 -0.3443 -2.0447 -1.3169
 4483TIP3    H235085   6.433   6.223   7.240 -0.2889  0.5034  0.5409
 4484TIP3   OH235086   6.520   2.334   1.778  0.1434  0.1205 -0.1337
 4484TIP3    H135087   6.587   2.267   1.767 -1.1071 -0.9121 -1.6943
 4484TIP3    H235088   6.550   2.407   1.724 -1.3662 -1.4561 -3.3083
 4485TIP3   OH235089   5.667   2.201   7.504 -0.2554 -0.1544  0.0639
 4485TIP3    H135090   5.700   2.116   7.534 -0.8202 -0.4599 -0.1739
 4485TIP3    H235091   5.590   2.180   7.452 -0.3764  0.5049 -0.0300
 4486TIP3   OH235092   6.174   3.706   8.040 -0.3565 -0.1427 -0.1083
 4486TIP3    H135093   6.135   3.791   8.021  0.5419  0.6286  1.3558
 4486TIP3    H235094   6.230   3.721   8.116  0.1147 -1.9655 -0.0428
 4487TIP3   OH235095   0.498   2.619   0.279 -0.7140 -0.0844  0.3182
 4487TIP3    H135096   0.493   2.524   0.288 -1.0880  0.0500  1.6757
 4487TIP3    H235097   0.439   2.640   0.206 -4.0663 -0.5208  2.7282
 4488TIP3   OH235098   3.879   5.417   8.131 -0.1100  0.3783 -0.1817
 4488TIP3    H135099   3.798   5.380   8.098  0.8067  0.1563 -2.3686
 4488TIP3    H235100   3.855   5.458   8.214 -2.2354 -0.4585 -0.3253
 4489TIP3   OH235101   5.795   2.410   0.202 -0.4276 -0.2773  0.4738
 4489TIP3    H135102   5.763   2.333   0.250  0.1280 -0.5214  0.4640
 4489TIP3    H235103   5.884   2.423   0.235 -0.0905 -0.3587 -0.3863
 4490TIP3   OH235104   1.335   2.574   7.357 -0.0908 -0.4446  0.9533
 4490TIP3    H135105   1.261   2.523   7.327  0.8395 -1.0673 -0.3429
 4490TIP3    H235106   1.411   2.518   7.344  0.8181  0.8023  0.6426
 4491TIP3   OH235107   2.262   2.336   0.557 -0.3601 -0.8182 -0.2057
 4491TIP3    H135108   2.313   2.409   0.594 -2.9221  0.8613  0.3186
 4491TIP3    H235109   2.195   2.318   0.624 -0.2874 -3.1543 -0.6899
 4492TIP3   OH235110   2.010   6.073   2.122 -0.3054  0.4275  0.2200
 4492TIP3    H135111   1.992   6.067   2.216  1.9170  0.7873  0.7131
 4492TIP3    H235112   2.008   5.983   2.091 -1.3583  0.3318  0.5196
 4493TIP3   OH235113   3.240   5.211   8.536 -0.2159  0.4067 -0.1569
 4493TIP3    H135114   3.295   5.202   8.458  2.2668  2.1899  1.2581
 4493TIP3    H235115   3.198   5.297   8.526  1.0851  1.2126  0.9648
 4494TIP3   OH235116   0.703   6.178   7.979  0.3030  0.3711  0.5892
 4494TIP3    H135117   0.676   6.175   7.887 -1.6931 -1.2549  1.1489
 4494TIP3    H235118   0.787   6.223   7.978  1.2475 -1.1936 -2.2686
 4495TIP3   OH235119   0.483   4.465   6.894 -0.6024 -0.0110  0.3472
 4495TIP3    H135120   0.423   4.479   6.967  0.2809 -1.2573  1.3558
 4495TIP3    H235121   0.555   4.526   6.910  0.2896 -1.2757  1.3608
 4496TIP3   OH235122   5.068   5.260   8.424 -0.1242  0.6653  0.6066
 4496TIP3    H135123   5.051   5.353   8.438  0.0242  0.6751  0.7271
 4496TIP3    H235124   5.139   5.239   8.485  0.2875  0.6206  0.1100
 4497TIP3   OH235125   5.977   1.390   2.356  0.1771 -0.1573  0.0270
 4497TIP3    H135126   5.944   1.397   2.445  1.8790 -1.0607  0.7748
 4497TIP3    H235127   5.960   1.476   2.317 -1.6822 -0.1417  0.8041
 4498TIP3   OH235128   5.790   0.538   7.439 -0.3519 -0.0082  0.9973
 4498TIP3    H135129   5.724   0.582   7.385 -1.5410 -0.9968  1.5902
 4498TIP3    H235130   5.869   0.592   7.430 -0.7600  0.3031 -1.0186
 4499TIP3   OH235131   4.135   4.857   7.888 -0.2447 -0.6875 -0.0228
 4499TIP3    H135132   4.164   4.767   7.882  0.5512 -0.5041  0.9226
 4499TIP3    H235133   4.150   4.882   7.980  0.3439  0.6614 -0.4540
 4500TIP3   OH235134   1.347   3.672   7.954  0.0664 -0.6742 -0.0196
 4500TIP3    H135135   1.386   3.749   7.995  0.6515 -1.0095  0.0699
 4500TIP3    H235136   1.293   3.707   7.883  2.6163 -0.2973 -1.9001
 4501TIP3   OH235137   1.243   4.336   0.365 -0.1990 -0.0808 -0.1085
 4501TIP3    H135138   1.267   4.327   0.272  1.3014  0.2809  0.2065
 4501TIP3    H235139   1.198   4.420   0.371 -0.7802 -0.3559 -0.5972
 4502TIP3   OH235140   0.134   1.882   2.291 -0.3035  0.1583 -0.0590
 4502TIP3    H135141   0.173   1.967   2.268  0.6725  0.3416  2.0844
 4502TIP3    H235142   0.207   1.831   2.326 -1.2896 -0.8412  0.5926
 4503TIP3   OH235143   2.143   6.093   1.523  0.1286 -0.2368  0.0233
 4503TIP3    H135144   2.178   6.042   1.597  0.7416  1.5786  1.0646
 4503TIP3    H235145   2.208   6.082   1.454 -0.6363 -2.2631 -0.4330
 4504TIP3   OH235146   6.109   3.535   0.220  0.6733  0.0247 -0.0596
 4504TIP3    H135147   6.133   3.617   0.264  0.4088 -0.0185  0.1639
 4504TIP3    H235148   6.093   3.473   0.290 -0.5732  0.1870 -0.1892
 4505TIP3   OH235149   0.716   5.834   1.520 -0.2980 -0.2173  0.0443
 4505TIP3    H135150   0.642   5.862   1.468 -1.9119 -1.4724  1.5413
 4505TIP3    H235151   0.702   5.740   1.534  0.8190 -0.2102  1.5338
 4506TIP3   OH235152   5.507   1.571   7.952  0.2798 -0.7393 -0.2000
 4506TIP3    H135153   5.428   1.566   7.899 -0.0938 -1.8201  0.4289
 4506TIP3    H235154   5.515   1.485   7.992  0.2384  0.1756  1.9497
 4507TIP3   OH235155   5.539   6.482   7.979 -0.4588 -0.2625  0.3458
 4507TIP3    H135156   5.486   6.406   7.953 -0.7641  0.2422 -0.5644
 4507TIP3    H235157   5.523   6.492   8.073 -0.6362 -1.1508  0.4197
 4508TIP3   OH235158   0.331   3.433   6.776 -0.1193  0.1272  0.2002
 4508TIP3    H135159   0.409   3.384   6.749 -0.3602 -0.8435  1.1830
 4508TIP3    H235160   0.363   3.520   6.799  0.8795 -0.5971  1.7095
 4509TIP3   OH235161   5.903   3.960   1.479  0.1298  0.2784 -0.0414
 4509TIP3    H135162   5.875   4.037   1.429 -0.1296  1.5450  1.9510
 4509TIP3    H235163   5.856   3.887   1.440 -1.6157  1.5236 -0.3584
 4510TIP3   OH235164   0.310   5.075   8.541  0.6060 -0.4362  0.1905
 4510TIP3    H135165   0.328   5.169   8.530  0.7570 -0.5646 -0.8223
 4510TIP3    H235166   0.344   5.036   8.461  2.3178 -1.6203  1.4360
 4511TIP3   OH235167   3.904   1.489   8.499 -0.6633  0.0547  0.4164
 4511TIP3    H135168   3.819   1.494   8.543 -1.2957 -2.1067 -0.4076
 4511TIP3    H235169   3.958   1.435   8.556 -0.4044  0.0264  0.1477
 4512TIP3   OH235170   0.121   0.010   2.054  0.5482 -0.0668 -0.0302
 4512TIP3    H135171   0.107   0.100   2.081 -0.3763 -0.6262  1.5061
 4512TIP3    H235172   0.170   0.016   1.972 -1.0553  1.8653 -0.9160
 4513TIP3   OH235173   0.326   0.283   2.733 -0.2841  0.5654  0.2538
 4513TIP3    H135174   0.331   0.188   2.742  2.2480  0.3047 -2.4895
 4513TIP3    H235175   0.392   0.316   2.794  1.1055  0.2652 -1.0132
 4514TIP3   OH235176   1.645   4.558   8.163 -0.2295  0.5373 -0.4331
 4514TIP3    H135177   1.659   4.533   8.072 -0.0561  0.5993 -0.4235
 4514TIP3    H235178   1.711   4.508   8.212 -0.4501  0.3527 -0.3187
 4515TIP3   OH235179   2.407   2.003   8.114  0.5017  0.1268  0.6098
 4515TIP3    H135180   2.316   1.985   8.139  0.6803 -1.1263  0.4420
 4515TIP3    H235181   2.430   2.081   8.163 -1.1708  1.4499 -0.6010
 4516TIP3   OH235182   3.708   4.261   7.967 -0.5748  0.4632 -0.6990
 4516TIP3    H135183   3.685   4.349   7.938 -2.6293  0.0674 -0.4220
 4516TIP3    H235184   3.755   4.223   7.892 -0.7180  1.3907 -1.2769
 4517TIP3   OH235185   2.469   6.903   7.843 -0.6530  0.3454 -0.4109
 4517TIP3    H135186   2.423   6.823   7.819  0.4476 -0.6798  0.7392
 4517TIP3    H235187   2.433   6.926   7.929 -0.1985  0.4866 -0.2567
 4518TIP3   OH235188   1.591   1.301   3.169 -0.3772 -0.2591 -0.1382
 4518TIP3    H135189   1.544   1.304   3.086 -0.7611  2.5782  0.0760
 4518TIP3    H235190   1.651   1.227   3.161 -0.0651  0.2182 -3.1310
 4519TIP3   OH235191   0.633   0.803   8.276  0.2085 -0.2626  0.2500
 4519TIP3    H135192   0.602   0.712   8.269  0.9470 -0.4080 -1.6460
 4519TIP3    H235193   0.655   0.827   8.187  0.4725  1.6528  0.8009
 4520TIP3   OH235194   6.448   2.765   8.193  0.3270  0.3188  0.0454
 4520TIP3    H135195   6.467   2.730   8.279  1.0720  1.3323  0.3184
 4520TIP3    H235196   6.492   2.851   8.192  0.8442  0.0697 -1.5409
 4521TIP3   OH235197   1.299   3.788   7.212  0.8590  0.0647 -0.1838
 4521TIP3    H135198   1.285   3.805   7.119  0.7860  0.5384 -0.0874
 4521TIP3    H235199   1.348   3.864   7.244  0.4922  0.1252  0.2602
 4522TIP3   OH235200   6.128   4.833   7.107  0.5852 -0.5601  0.4906
 4522TIP3    H135201   6.042   4.834   7.148 -0.0268 -3.5732 -0.4401
 4522TIP3    H235202   6.181   4.892   7.159 -1.9823  1.2655  1.1773
 4523TIP3   OH235203   2.476   0.356   7.103 -0.5986  0.1824  0.2439
 4523TIP3    H135204   2.460   0.446   7.129 -1.8375  0.0114  0.1451
 4523TIP3    H235205   2.547   0.361   7.039 -1.0416  1.1529 -0.1875
 4524TIP3   OH235206   5.856   4.589   8.428  0.1162  0.2071  0.2406
 4524TIP3    H135207   5.892   4.617   8.344  1.7317 -0.5216  0.6429
 4524TIP3    H235208   5.771   4.550   8.407  0.0420  0.9421 -0.9044
 4525TIP3   OH235209   0.719   4.175   8.233 -0.2792 -0.6351  0.0959
 4525TIP3    H135210   0.630   4.142   8.241 -0.0824 -1.1930  0.0144
 4525TIP3    H235211   0.752   4.178   8.322 -0.4805 -0.1428  0.1545
 4526TIP3   OH235212   4.646   6.436   0.666  0.8639  0.3380 -0.1005
 4526TIP3    H135213   4.736   6.440   0.700 -0.0267  1.4947  2.3936
 4526TIP3    H235214   4.634   6.520   0.621  0.3326  1.2564  1.6724
 4527TIP3   OH235215   3.943   3.771   6.893  0.0418  0.0862 -0.2425
 4527TIP3    H135216   3.913   3.736   6.809  0.9667 -0.0049 -0.5529
 4527TIP3    H235217   4.012   3.833   6.869 -0.1742  0.5937  0.4207
 4528TIP3   OH235218   2.602   0.596   0.704  0.5677 -0.6242 -0.5563
 4528TIP3    H135219   2.697   0.594   0.691  0.4934 -0.0267 -1.2528
 4528TIP3    H235220   2.588   0.668   0.766  0.5727 -0.6895 -0.4803
 4529TIP3   OH235221   6.471   0.157   1.115  0.1683 -0.2847 -0.2009
 4529TIP3    H135222   6.382   0.191   1.114  0.1888 -0.2132 -1.4745
 4529TIP3    H235223   6.505   0.177   1.028  0.9850 -1.4675 -0.1750
 4530TIP3   OH235224   1.649   2.467   8.145  0.0878 -0.5441 -0.3026
 4530TIP3    H135225   1.678   2.453   8.055  2.7957 -2.5345  0.7395
 4530TIP3    H235226   1.691   2.549   8.171  0.9704 -0.9925 -0.2743
 4531TIP3   OH235227   0.445   4.037   1.040  0.4024 -0.4647 -0.5409
 4531TIP3    H135228   0.422   4.069   1.127  0.0734  0.7009 -1.0369
 4531TIP3    H235229   0.462   3.943   1.052 -0.6839 -0.5402  0.5711
 4532TIP3   OH235230   1.066   5.670   1.066 -0.1362 -0.0774  0.0862
 4532TIP3    H135231   1.033   5.635   1.149  1.1531  0.1180  0.7068
 4532TIP3    H235232   0.991   5.719   1.030 -0.6068  0.1781  1.3372
 4533TIP3   OH235233   2.049   1.567   7.117 -0.0242  0.2030  0.1818
 4533TIP3    H135234   2.065   1.504   7.187  0.9482 -0.6926 -0.8034
 4533TIP3    H235235   2.083   1.650   7.151  1.2049 -0.3954  0.4691
 4534TIP3   OH235236   3.502   1.808   7.002  0.2365 -0.0229 -0.5548
 4534TIP3    H135237   3.486   1.898   7.031  0.5932 -1.2270  4.1467
 4534TIP3    H235238   3.414   1.769   6.995  0.1363 -0.4602  2.1728
 4535TIP3   OH235239   0.282   0.683   8.078  0.3356  0.2612 -0.1326
 4535TIP3    H135240   0.299   0.768   8.117  2.3576 -1.6078  3.6372
 4535TIP3    H235241   0.218   0.642   8.137  1.9038 -1.9756  0.1345
 4536TIP3   OH235242   3.360   6.115   0.048  0.6532 -0.4169 -0.0829
 4536TIP3    H135243   3.309   6.079   0.121  1.5404 -0.4760  0.5182
 4536TIP3    H235244   3.406   6.040   0.011 -0.1922 -0.4877 -1.0704
 4537TIP3   OH235245   5.185   0.384   8.150 -0.4145 -0.2352 -0.0779
 4537TIP3    H135246   5.163   0.291   8.150 -1.9945  0.1016  0.9786
 4537TIP3    H235247   5.188   0.407   8.243  1.4311  0.4725 -0.2712
 4538TIP3   OH235248   5.423   2.627   8.333  1.0749  0.1157  0.3564
 4538TIP3    H135249   5.478   2.616   8.410  2.0871 -0.4723 -0.4197
 4538TIP3    H235250   5.485   2.635   8.260  0.1456 -0.4837 -0.5332
 4539TIP3   OH235251   5.905   4.168   7.946 -0.0549  0.0323  0.6654
 4539TIP3    H135252   5.847   4.139   7.876  1.4200 -1.5529  0.0059
 4539TIP3    H235253   5.851   4.226   8.000 -2.9804 -3.0402  1.3876
 4540TIP3   OH235254   5.024   0.749   8.194 -0.0314 -0.0036  0.0390
 4540TIP3    H135255   4.985   0.803   8.263  0.1183 -0.4101  0.4460
 4540TIP3    H235256   4.959   0.681   8.176 -0.1507  0.2115 -0.3573
 4541TIP3   OH235257   1.464   5.831   7.157  0.2128 -0.6152  0.1868
 4541TIP3    H135258   1.397   5.883   7.113  0.7159  1.0453  1.2587
 4541TIP3    H235259   1.540   5.835   7.099  1.5126  3.1585  1.8116
 4542TIP3   OH235260   3.269   4.155   0.782  0.4325  0.6272  0.0439
 4542TIP3    H135261   3.306   4.176   0.696  2.2518  1.1007  0.9050
 4542TIP3    H235262   3.324   4.202   0.844 -2.8505  3.1248  1.3848
 4543TIP3   OH235263   1.857   2.790   0.418 -0.2848  0.7457 -0.6371
 4543TIP3    H135264   1.861   2.833   0.332 -0.5117  0.3142 -0.8692
 4543TIP3    H235265   1.935   2.822   0.464 -1.0139  2.2564 -0.3880
 4544TIP3   OH235266   1.288   0.248   7.854  0.3731  0.5517 -0.0881
 4544TIP3    H135267   1.238   0.329   7.862  0.3292  0.3562  2.2718
 4544TIP3    H235268   1.360   0.259   7.915 -0.1406 -1.5123  0.9710
 4545TIP3   OH235269   5.867   5.400   0.300 -0.2920  0.2636 -0.7952
 4545TIP3    H135270   5.775   5.409   0.321 -0.5210 -2.2294 -0.4368
 4545TIP3    H235271   5.911   5.397   0.385 -0.0628  0.0012 -0.9201
 4546TIP3   OH235272   0.296   1.770   1.104  0.9053 -0.5344 -0.1890
 4546TIP3    H135273   0.316   1.800   1.193 -0.2595  1.8006 -0.6408
 4546TIP3    H235274   0.204   1.746   1.107  1.4544 -2.8968 -0.2193
 4547TIP3   OH235275   5.633   4.698   1.160  0.4469  0.4206  0.4836
 4547TIP3    H135276   5.613   4.614   1.119 -1.2892  0.9440  0.2077
 4547TIP3    H235277   5.628   4.681   1.254 -3.8136  0.9390  0.5525
 4548TIP3   OH235278   1.839   0.000   1.322  0.0666  0.0239 -0.2062
 4548TIP3    H135279   1.899  -0.037   1.258 -0.4976 -1.4136  0.0737
 4548TIP3    H235280   1.836  -0.064   1.393  0.2962  1.3522  1.0408
 4549TIP3   OH235281   2.456   5.439   7.804  0.4019 -0.1715 -0.1735
 4549TIP3    H135282   2.393   5.439   7.875  0.2945 -0.9158 -0.2530
 4549TIP3    H235283   2.472   5.346   7.787 -0.1144 -0.0281 -1.5893
 4550TIP3   OH235284   5.945   6.730   8.263 -0.6957  0.9640 -0.1477
 4550TIP3    H135285   6.004   6.697   8.196 -0.2075  1.5563 -0.0173
 4550TIP3    H235286   5.940   6.659   8.327  1.6666  1.7121  0.9803
 4551TIP3   OH235287   3.085   2.377   0.406 -0.4960 -0.2502 -0.1970
 4551TIP3    H135288   3.083   2.285   0.434  1.5060 -0.2524  0.0668
 4551TIP3    H235289   2.995   2.395   0.378 -0.9413 -2.2869 -0.2579
 4552TIP3   OH235290   5.350   5.352   6.434  0.2141  0.1714  0.0219
 4552TIP3    H135291   5.420   5.411   6.463 -0.9822  0.4945  2.4572
 4552TIP3    H235292   5.277   5.411   6.414  0.4614 -0.1893 -2.1915
 4553TIP3   OH235293   5.499   4.132   8.449 -0.4817 -0.5730 -0.1935
 4553TIP3    H135294   5.482   4.076   8.524 -2.2365  0.8700  0.5541
 4553TIP3    H235295   5.502   4.221   8.485 -0.3958  0.0637 -1.6967
 4554TIP3   OH235296   4.166   5.183   1.059 -0.0262 -0.1390 -0.2994
 4554TIP3    H135297   4.074   5.186   1.084  0.1928  0.0626  0.5353
 4554TIP3    H235298   4.211   5.151   1.138  0.2410 -3.8771 -1.7686
 4555TIP3   OH235299   6.444   4.760   1.171 -0.3271  0.6214  0.8955
 4555TIP3    H135300   6.464   4.852   1.185  0.1701  0.6091  0.3227
 4555TIP3    H235301   6.471   4.743   1.080 -0.9633  0.0633  0.7963
 4556TIP3   OH235302   5.868   3.077   8.170  0.0458 -0.2050 -0.2117
 4556TIP3    H135303   5.866   3.124   8.253 -0.8012  2.8861 -1.8644
 4556TIP3    H235304   5.780   3.042   8.161  0.2460 -0.8790  0.3143
 4557TIP3   OH235305   1.950   6.139   1.828  0.6583 -0.5825 -0.6821
 4557TIP3    H135306   1.931   6.233   1.834  1.8869 -0.1097 -2.8870
 4557TIP3    H235307   1.991   6.117   1.911 -0.7157  0.5269  0.3450
 4558TIP3   OH235308   6.901   5.003   8.018 -0.4942 -0.1282 -0.0053
 4558TIP3    H135309   6.959   4.988   8.092  0.4713 -2.3313 -1.1387
 4558TIP3    H235310   6.936   4.949   7.948 -3.3967 -0.8887 -1.0151
 4559TIP3   OH235311   4.316   1.845   0.161  0.2411 -0.6579 -0.5570
 4559TIP3    H135312   4.292   1.926   0.115  0.1275 -0.4389 -0.1128
 4559TIP3    H235313   4.343   1.786   0.091  0.8718 -0.0502 -0.8523
 4560TIP3   OH235314   6.230   6.591   1.239 -0.2424  0.1764  0.2441
 4560TIP3    H135315   6.292   6.663   1.252  0.0211  0.0966 -0.5251
 4560TIP3    H235316   6.269   6.538   1.170  0.5250 -1.8043  2.0926
 4561TIP3   OH235317   1.224   5.502   0.092  0.1369  0.1832  0.1396
 4561TIP3    H135318   1.242   5.453   0.012  0.1621 -0.2222  0.3887
 4561TIP3    H235319   1.148   5.556   0.071 -0.9127 -1.1600  0.3495
 4562TIP3   OH235320   1.740   3.561   6.801 -0.2251 -0.4172  0.4431
 4562TIP3    H135321   1.789   3.505   6.740  1.1488  0.3961  0.7679
 4562TIP3    H235322   1.701   3.500   6.863  1.1902 -1.0380  0.7463
 4563TIP3   OH235323   2.667   4.322   1.922 -0.5328 -0.4781  0.3675
 4563TIP3    H135324   2.721   4.286   1.993 -1.0454 -0.2946  0.8524
 4563TIP3    H235325   2.582   4.279   1.931 -1.0640  0.6291  0.7746
 4564TIP3   OH235326   6.660   2.168   8.448  0.0850  0.7913 -0.3808
 4564TIP3    H135327   6.752   2.169   8.476 -0.5158  0.5514  1.7611
 4564TIP3    H235328   6.638   2.076   8.441 -0.2324  0.8301  0.0432
 4565TIP3   OH235329   6.164   4.495   6.923 -0.4767  0.0914 -0.2239
 4565TIP3    H135330   6.203   4.570   6.877 -0.5997 -0.0757 -0.6116
 4565TIP3    H235331   6.093   4.533   6.975 -0.7654  0.2042 -0.6904
 4566TIP3   OH235332   6.605   5.399   6.043  0.2157  0.0655  0.0878
 4566TIP3    H135333   6.697   5.401   6.069  0.3919  0.0569 -0.5036
 4566TIP3    H235334   6.577   5.310   6.061  0.4573 -0.0634 -0.1619
 4567TIP3   OH235335   0.498   2.737   6.512 -0.4281 -0.7224 -0.2196
 4567TIP3    H135336   0.414   2.714   6.554 -0.7842 -0.7302 -0.9264
 4567TIP3    H235337   0.474   2.800   6.444 -0.1591 -2.3166 -1.8548
 4568TIP3   OH235338   3.745   2.057   7.983 -0.5708 -0.1096  0.0946
 4568TIP3    H135339   3.837   2.072   8.005 -0.5438  0.4163 -0.3575
 4568TIP3    H235340   3.729   1.965   8.007  0.3363 -0.4894 -0.6804
 4569TIP3   OH235341   3.272   6.624   8.190 -0.0800 -0.3815 -0.1736
 4569TIP3    H135342   3.288   6.541   8.145 -0.1571 -0.7308  0.4386
 4569TIP3    H235343   3.356   6.646   8.231  0.0260  0.0031 -0.5792
 4570TIP3   OH235344   5.223   3.365   6.460  0.5247  0.1942  0.2244
 4570TIP3    H135345   5.270   3.351   6.378  0.1886 -1.9161  0.3362
 4570TIP3    H235346   5.176   3.448   6.447  1.8359  0.7868 -1.0248
 4571TIP3   OH235347   1.284   5.123   1.419  0.2297  0.4973 -0.6809
 4571TIP3    H135348   1.337   5.054   1.378  1.7352 -0.0835  2.0362
 4571TIP3    H235349   1.301   5.200   1.365  2.6553 -0.0547 -0.8276
 4572TIP3   OH235350   4.786   1.079   2.645  0.0073  0.3734  1.1062
 4572TIP3    H135351   4.691   1.078   2.631  0.1339 -0.6873  0.0822
 4572TIP3    H235352   4.804   0.996   2.690  0.9378 -2.1350 -3.2694
 4573TIP3   OH235353   6.728   3.122   7.009  0.1989  0.3543  0.8705
 4573TIP3    H135354   6.775   3.149   6.931  0.8634  1.1162  1.5158
 4573TIP3    H235355   6.638   3.151   6.995  0.7897  2.6122  1.3554
 4574TIP3   OH235356   5.501   5.108   7.816 -0.1755 -0.1059  0.3844
 4574TIP3    H135357   5.515   5.013   7.825  2.1368  0.1733  0.4965
 4574TIP3    H235358   5.587   5.146   7.835 -0.1987  1.8295 -2.7313
 4575TIP3   OH235359   1.304   5.615   7.629 -0.2197 -0.0884  0.1997
 4575TIP3    H135360   1.273   5.556   7.560 -1.1092  1.0622 -0.4164
 4575TIP3    H235361   1.381   5.657   7.591 -0.5648  0.3627 -0.0123
 4576TIP3   OH235362   3.639   1.737   7.223 -0.7444  0.2128  0.6639
 4576TIP3    H135363   3.614   1.757   7.133  0.9378 -0.6645 -0.0274
 4576TIP3    H235364   3.632   1.642   7.229 -1.1921  0.2868  1.6011
 4577TIP3   OH235365   0.114   0.422   1.964 -0.0920 -0.0431  0.0413
 4577TIP3    H135366   0.022   0.394   1.965 -0.0752 -0.0839  0.5370
 4577TIP3    H235367   0.149   0.390   2.047  0.7765 -1.3940 -0.8173
 4578TIP3   OH235368   5.497   5.580   0.116 -0.5719  0.0968 -0.2865
 4578TIP3    H135369   5.460   5.577   0.204 -3.9812  1.2562 -1.4996
 4578TIP3    H235370   5.465   5.663   0.080  0.9643 -0.1974 -2.5546
 4579TIP3   OH235371   5.647   4.263   1.564 -0.1596  0.0860 -0.0966
 4579TIP3    H135372   5.599   4.181   1.576 -2.4586  1.3700  0.0648
 4579TIP3    H235373   5.688   4.253   1.478  0.4866 -1.6153  0.3665
 4580TIP3   OH235374   4.808   3.203   2.469  0.6267  0.0779 -0.6603
 4580TIP3    H135375   4.903   3.208   2.459  0.9060 -1.0184  0.9838
 4580TIP3    H235376   4.773   3.253   2.396  2.4806  4.0016  0.8783
 4581TIP3   OH235377   1.787   2.589   1.242 -0.1475 -0.0359 -0.1277
 4581TIP3    H135378   1.851   2.659   1.256  1.4314 -1.2380 -1.0041
 4581TIP3    H235379   1.717   2.631   1.192 -0.4348  1.4790  1.4455
 4582TIP3   OH235380   0.527   5.298   0.542  0.4884 -0.5764  0.4739
 4582TIP3    H135381   0.488   5.276   0.457  1.3452  1.1127 -0.4195
 4582TIP3    H235382   0.492   5.233   0.603  0.1997 -2.1173 -1.2528
 4583TIP3   OH235383   0.371   1.345   1.819  0.0264  0.3582 -0.3753
 4583TIP3    H135384   0.305   1.356   1.750  0.6841  0.9634 -0.9168
 4583TIP3    H235385   0.422   1.425   1.817 -0.1369  0.5371  1.0514
 4584TIP3   OH235386   2.353   5.698   2.865  0.0796  0.1686 -0.0695
 4584TIP3    H135387   2.386   5.703   2.955 -0.0474  0.2156 -0.0244
 4584TIP3    H235388   2.315   5.785   2.849 -0.4190 -0.0274  0.0364
 4585TIP3   OH235389   6.043   2.708   7.019 -0.0972  0.3591  0.1619
 4585TIP3    H135390   6.084   2.785   6.980  0.6273  1.2483  2.5183
 4585TIP3    H235391   6.106   2.677   7.083 -0.6525 -1.8665 -0.2839
 4586TIP3   OH235392   1.767   1.917   0.297  0.0801 -0.6211  0.2815
 4586TIP3    H135393   1.775   1.900   0.391  2.0239 -0.3607  0.2037
 4586TIP3    H235394   1.832   1.985   0.279 -0.2469 -0.6742 -1.2565
 4587TIP3   OH235395   6.352   5.248   1.671 -0.3434  0.2146  0.5165
 4587TIP3    H135396   6.340   5.328   1.723  0.1737 -0.3876  1.6088
 4587TIP3    H235397   6.278   5.192   1.697  0.3146 -0.3730  1.1922
 4588TIP3   OH235398   5.440   2.129   7.371 -0.8145 -0.3176  0.2381
 4588TIP3    H135399   5.383   2.202   7.347 -0.9636 -0.0962  1.2150
 4588TIP3    H235400   5.467   2.091   7.288 -1.5127  0.2518 -0.2585
 4589TIP3   OH235401   1.023   1.950   8.516  0.3209 -0.5425  0.0414
 4589TIP3    H135402   1.064   1.954   8.602  1.2108  0.2617 -0.4034
 4589TIP3    H235403   1.039   1.861   8.486  3.0670  0.1267 -0.7282
 4590TIP3   OH235404   0.768   4.965   8.217 -0.0378  0.0088 -0.0081
 4590TIP3    H135405   0.813   5.016   8.150 -1.2929  1.0671 -0.0763
 4590TIP3    H235406   0.725   5.029   8.272  0.4294 -0.8822  1.4603
 4591TIP3   OH235407   0.467   5.243   2.415  0.5250 -0.5214  0.3641
 4591TIP3    H135408   0.517   5.324   2.416  1.5690 -1.1362  0.5815
 4591TIP3    H235409   0.502   5.195   2.339  0.0802 -0.8558  0.3678
 4592TIP3   OH235410   1.944   5.220   2.269 -0.1082 -0.1178 -0.6474
 4592TIP3    H135411   1.915   5.265   2.190  1.3867  3.0173  0.4339
 4592TIP3    H235412   1.874   5.233   2.333  0.7941  1.8603  0.0161
 4593TIP3   OH235413   0.179   5.302   7.130  0.4467 -0.0264  0.4402
 4593TIP3    H135414   0.265   5.343   7.117  0.6852 -0.6243  0.0860
 4593TIP3    H235415   0.116   5.369   7.102  0.6967  1.0730  2.3204
 4594TIP3   OH235416   1.580   3.003   6.880  0.2544  0.4736 -0.0742
 4594TIP3    H135417   1.590   2.967   6.968  0.6087 -1.6211 -0.9123
 4594TIP3    H235418   1.669   3.008   6.845 -0.0485 -1.0265 -1.1452
 4595TIP3   OH235419   5.070   2.289   6.991 -0.0895  0.0110  0.3194
 4595TIP3    H135420   5.046   2.339   6.912 -0.7679  2.1198  1.7819
 4595TIP3    H235421   5.081   2.200   6.959  2.1103  1.1487 -2.6556
 4596TIP3   OH235422   3.962   5.708   1.257 -0.3646 -0.4188  0.2620
 4596TIP3    H135423   4.045   5.694   1.212  0.8324  3.2887  0.9464
 4596TIP3    H235424   3.918   5.776   1.206 -3.8857 -3.3392 -0.9954
 4597TIP3   OH235425   1.573   5.108   6.673 -0.3728  0.1764 -0.1189
 4597TIP3    H135426   1.514   5.037   6.697 -1.1664  0.6204 -0.7267
 4597TIP3    H235427   1.551   5.129   6.582  1.1500 -0.0696 -0.5813
 4598TIP3   OH235428   4.886   2.176   7.498  0.3363 -0.0064  0.3063
 4598TIP3    H135429   4.972   2.217   7.513  0.5017 -0.0526 -0.5010
 4598TIP3    H235430   4.852   2.161   7.586  2.0733 -1.9743  0.7359
 4599TIP3   OH235431   0.159   6.227   0.918 -0.7224  0.1980  0.9174
 4599TIP3    H135432   0.210   6.185   0.849 -0.5223  0.8393  0.6663
 4599TIP3    H235433   0.074   6.183   0.915 -1.5251  1.7324 -1.2899
 4600TIP3   OH235434   4.342   4.131   2.151  0.4259  0.0498  0.3565
 4600TIP3    H135435   4.436   4.110   2.147  0.8925  2.1907 -2.2445
 4600TIP3    H235436   4.305   4.087   2.075 -0.7965 -0.9337  1.4694
 4601TIP3   OH235437   0.522   4.473   2.335  0.2880  0.1960  0.1447
 4601TIP3    H135438   0.476   4.499   2.255 -1.8710 -1.0614  0.9041
 4601TIP3    H235439   0.454   4.471   2.402  1.5537 -1.2474  1.4663
 4602TIP3   OH235440   1.376   3.726   0.897 -0.2364  0.0743  0.2302
 4602TIP3    H135441   1.281   3.729   0.891 -0.2549  1.9918  0.9421
 4602TIP3    H235442   1.402   3.812   0.930  1.6889 -0.6630  0.8490
 4603TIP3   OH235443   3.240   2.038   8.225 -0.7202  0.2108  0.1896
 4603TIP3    H135444   3.282   1.954   8.209 -1.6277 -0.0895 -0.7196
 4603TIP3    H235445   3.228   2.041   8.320 -2.4418 -1.6104  0.1112
 4604TIP3   OH235446   2.483   0.952   3.281 -0.6817 -0.1771 -0.0185
 4604TIP3    H135447   2.449   0.882   3.337  0.8778 -0.0279  1.1722
 4604TIP3    H235448   2.477   1.031   3.335  1.1575 -0.0856  0.0925
 4605TIP3   OH235449   2.073   6.621   0.259  0.0221  0.0044  0.5243
 4605TIP3    H135450   1.983   6.634   0.228 -0.1668 -1.6560  0.3228
 4605TIP3    H235451   2.117   6.576   0.187  0.7795  0.0047  0.9790
 4606TIP3   OH235452   2.410   4.074   7.886  0.3225 -0.2631 -0.6103
 4606TIP3    H135453   2.340   4.024   7.928  0.6165  0.1074  0.3425
 4606TIP3    H235454   2.445   4.129   7.956 -1.2265  2.6817 -1.9678
 4607TIP3   OH235455   2.530   3.893   0.622 -0.0145  0.2372 -0.2931
 4607TIP3    H135456   2.587   3.840   0.678 -0.1326  0.7692  0.3341
 4607TIP3    H235457   2.481   3.828   0.571 -0.3971 -0.2860  0.6983
 4608TIP3   OH235458   3.066   0.993   7.121 -0.1763 -0.5285 -0.0791
 4608TIP3    H135459   3.129   0.967   7.054 -0.2671 -1.4246  0.1685
 4608TIP3    H235460   2.986   1.014   7.072  0.5357  1.5036 -0.4813
 4609TIP3   OH235461   0.199   1.693   8.059  0.1169 -0.2587  0.2831
 4609TIP3    H135462   0.178   1.614   8.109 -2.0740 -0.0535 -0.2399
 4609TIP3    H235463   0.193   1.764   8.123  1.9997 -0.4365  0.7319
 4610TIP3   OH235464   0.001   2.428   2.153  0.5880  0.2602  0.0963
 4610TIP3    H135465  -0.041   2.467   2.077 -0.0315 -0.9146 -0.1866
 4610TIP3    H235466  -0.035   2.477   2.228  0.7831  1.0499 -0.3178
 4611TIP3   OH235467   1.475   4.657   2.215  0.5198 -0.1175 -0.2263
 4611TIP3    H135468   1.556   4.659   2.265 -0.2918 -0.1717  1.1648
 4611TIP3    H235469   1.495   4.702   2.133  1.9326 -0.1291  0.0992
 4612TIP3   OH235470   4.883   4.966   7.788 -0.0323 -0.4388 -0.0489
 4612TIP3    H135471   4.855   5.043   7.837 -0.1959 -0.8597  0.5303
 4612TIP3    H235472   4.849   4.980   7.700  1.0925  0.7798 -0.3156
 4613TIP3   OH235473   2.077   1.754   7.635  1.0494 -0.1596  0.1466
 4613TIP3    H135474   2.093   1.810   7.559  2.0903  0.9560  1.1355
 4613TIP3    H235475   2.027   1.809   7.696 -2.5192 -1.9994 -0.8556
 4614TIP3   OH235476   2.119   0.898   2.052 -0.0119  0.7685  0.5920
 4614TIP3    H135477   2.123   0.990   2.077 -1.4413  1.1417 -0.3932
 4614TIP3    H235478   2.193   0.857   2.097 -1.0962  1.7838  3.5362
 4615TIP3   OH235479   5.065   0.454   7.576 -0.0427  0.7429 -0.2235
 4615TIP3    H135480   5.128   0.510   7.529  0.0759  0.0350 -0.9266
 4615TIP3    H235481   5.104   0.367   7.573 -0.9752  0.3244 -0.5098
 4616TIP3   OH235482   4.343   4.127   6.421 -0.3841 -0.0398  0.0820
 4616TIP3    H135483   4.272   4.115   6.484  0.9465 -0.8897  1.4923
 4616TIP3    H235484   4.366   4.038   6.395  0.9779  0.1330  0.6293
 4617TIP3   OH235485   2.155   5.630   2.651  0.5656  0.5897 -0.7736
 4617TIP3    H135486   2.206   5.686   2.710  1.0179  0.0952 -0.6904
 4617TIP3    H235487   2.127   5.557   2.706  0.1531  0.6256 -0.9344
 4618TIP3   OH235488   3.802   3.337   0.568 -0.2786 -0.4554 -0.1751
 4618TIP3    H135489   3.825   3.371   0.655  1.1261  0.0771 -0.7280
 4618TIP3    H235490   3.721   3.383   0.545  0.8397  1.5789 -0.3164
 4619TIP3   OH235491   6.372   0.804   8.571 -0.1708 -0.4154  0.5670
 4619TIP3    H135492   6.364   0.898   8.557  0.3584 -0.2911  1.0418
 4619TIP3    H235493   6.343   0.764   8.489  1.5922  0.2260 -0.4151
 4620TIP3   OH235494   2.292   5.655   7.128 -0.1582  0.2519  0.0235
 4620TIP3    H135495   2.261   5.616   7.046 -0.4216 -1.1005  0.7390
 4620TIP3    H235496   2.212   5.669   7.179  0.0313  0.8176  0.1699
 4621TIP3   OH235497   1.656   6.538   8.381  0.7462 -0.0188  0.3799
 4621TIP3    H135498   1.638   6.513   8.290  1.4486 -1.5122  0.6242
 4621TIP3    H235499   1.751   6.538   8.387  0.7598  1.5641  0.7547
 4622TIP3   OH235500   2.941   3.214   1.459  0.2175  0.2504  0.0993
 4622TIP3    H135501   2.901   3.228   1.545 -0.2668 -3.4988  0.6820
 4622TIP3    H235502   3.035   3.212   1.477  0.1128 -0.6647  0.6454
 4623TIP3   OH235503   4.630   2.108   8.196 -0.1392  0.6854  0.0209
 4623TIP3    H135504   4.589   2.080   8.114 -1.2590  1.8497  0.1459
 4623TIP3    H235505   4.656   2.027   8.239  0.6277  0.0446 -1.5449
 4624TIP3   OH235506   2.740   1.843   1.470 -0.1074  0.0243 -1.0515
 4624TIP3    H135507   2.806   1.851   1.538 -0.1587 -0.6364 -0.9207
 4624TIP3    H235508   2.658   1.825   1.516 -0.5780  1.6955 -1.1473
 4625TIP3   OH235509   2.739   2.098   0.156  0.2882  0.8373  0.2162
 4625TIP3    H135510   2.792   2.047   0.217 -0.6065 -0.0832  0.2609
 4625TIP3    H235511   2.654   2.106   0.200 -0.7943 -0.9633 -1.4096
 4626TIP3   OH235512   3.800   1.556   0.782 -0.0605 -0.0245 -0.5891
 4626TIP3    H135513   3.857   1.586   0.711 -0.3702  1.3727 -0.2821
 4626TIP3    H235514   3.767   1.471   0.752  1.2386 -0.3068 -1.2918
 4627TIP3   OH235515   2.561   0.976   1.856  0.2474 -0.4177  0.0689
 4627TIP3    H135516   2.497   0.951   1.789 -1.3794  1.2405  0.9178
 4627TIP3    H235517   2.605   1.053   1.819  0.1244 -0.1726  0.4269
 4628TIP3   OH235518   3.268   4.484   0.900  0.0601 -0.0621 -0.2991
 4628TIP3    H135519   3.222   4.556   0.942 -2.0792 -1.8500  0.6721
 4628TIP3    H235520   3.318   4.443   0.970  1.2585  0.4334 -0.8418
 4629TIP3   OH235521   6.608   4.083   0.952  0.3123 -0.8342 -0.3420
 4629TIP3    H135522   6.554   4.064   0.876  2.6404 -0.5379 -2.2052
 4629TIP3    H235523   6.697   4.062   0.923  1.4127  0.3001  1.9769
 4630TIP3   OH235524   3.461   6.314   7.282  0.5117 -0.1868 -0.0679
 4630TIP3    H135525   3.432   6.400   7.253 -2.8580 -0.7404  1.2122
 4630TIP3    H235526   3.477   6.265   7.201  0.0119  0.9077 -0.8512
 4631TIP3   OH235527   2.183   1.899   1.135 -0.1189 -0.3529 -0.2992
 4631TIP3    H135528   2.182   1.961   1.062  0.5345  1.8071  1.4133
 4631TIP3    H235529   2.093   1.900   1.168 -0.1544 -0.4617 -0.3933
 4632TIP3   OH235530   4.846   0.205   1.491 -0.3257  0.2076 -0.4957
 4632TIP3    H135531   4.935   0.242   1.492 -1.0625  2.0746 -0.2758
 4632TIP3    H235532   4.793   0.272   1.447 -1.5771 -1.0063 -0.8766
 4633TIP3   OH235533   4.076   3.745   1.608  0.0791 -0.1246 -0.3928
 4633TIP3    H135534   4.114   3.658   1.615  1.6189  0.5157 -0.2394
 4633TIP3    H235535   4.050   3.752   1.516 -1.0988 -1.1271 -0.1557
 4634TIP3   OH235536   2.472   3.563   0.546  0.1841  0.2107  0.2863
 4634TIP3    H135537   2.383   3.547   0.578  0.4267 -1.3942  0.2279
 4634TIP3    H235538   2.527   3.557   0.624  0.4430 -0.7141  0.0407
 4635TIP3   OH235539   2.229   3.814   0.434 -0.3772  0.1533 -0.1759
 4635TIP3    H135540   2.210   3.905   0.414 -3.9144 -0.1568  1.0932
 4635TIP3    H235541   2.197   3.765   0.357  0.8942 -0.1125 -0.5642
 4636TIP3   OH235542   1.790   2.479   7.906 -0.5357  0.5162 -0.2423
 4636TIP3    H135543   1.818   2.423   7.833 -1.4296  0.4807 -0.5682
 4636TIP3    H235544   1.845   2.557   7.897  0.4359 -0.1122 -0.0295
 4637TIP3   OH235545   5.674   0.131   1.456 -0.0593 -0.3224  0.2378
 4637TIP3    H135546   5.646   0.040   1.448 -1.7392  0.3169 -1.9477
 4637TIP3    H235547   5.708   0.154   1.370  1.6164  0.7757  1.1234
 4638TIP3   OH235548   3.928   3.598   8.050 -0.1076  0.4888  0.3896
 4638TIP3    H135549   3.872   3.655   7.998  1.8352  2.6246  0.5137
 4638TIP3    H235550   3.879   3.515   8.055 -1.8726  1.2733 -1.9458
 4639TIP3   OH235551   0.454   4.546   0.308 -0.3746 -0.3682 -1.1072
 4639TIP3    H135552   0.517   4.480   0.281 -0.4637 -0.2115 -1.7154
 4639TIP3    H235553   0.485   4.575   0.394 -0.1123 -0.9098 -1.0149
 4640TIP3   OH235554   6.803   0.651   6.854 -0.1060 -0.6312 -0.4059
 4640TIP3    H135555   6.813   0.722   6.791 -1.4802 -0.3863 -0.3871
 4640TIP3    H235556   6.878   0.659   6.913  0.4627 -0.0280 -1.1998
 4641TIP3   OH235557   6.000   2.203   7.320 -0.0319  0.0626  0.3176
 4641TIP3    H135558   5.932   2.261   7.285 -1.2571 -0.9146  1.0046
 4641TIP3    H235559   6.052   2.259   7.377  0.4560  1.0893 -1.0609
 4642TIP3   OH235560   6.871   6.400   7.707  0.5007  0.1461  0.0050
 4642TIP3    H135561   6.794   6.429   7.755  0.8598  1.5532 -0.2046
 4642TIP3    H235562   6.847   6.411   7.615  0.1467 -1.6415 -0.1438
 4643TIP3   OH235563   2.160   1.285   0.178 -0.7894  0.0270 -0.1871
 4643TIP3    H135564   2.177   1.318   0.090  0.0939 -1.7872 -0.7435
 4643TIP3    H235565   2.114   1.203   0.165  1.9495 -1.8284  0.8575
 4644TIP3   OH235566   4.223   1.651   2.575  0.4924  0.6629 -0.0313
 4644TIP3    H135567   4.249   1.582   2.636  0.7314 -0.0294 -0.8958
 4644TIP3    H235568   4.128   1.644   2.569  0.4287  0.9882  0.5522
 4645TIP3   OH235569   1.420   5.433   2.394  0.2346 -0.0917 -0.0391
 4645TIP3    H135570   1.333   5.401   2.372  0.8373 -1.0562 -1.0899
 4645TIP3    H235571   1.407   5.481   2.476 -1.6126  1.3423 -1.0827
 4646TIP3   OH235572   3.384   4.778   1.219 -0.2212 -0.2249  0.5459
 4646TIP3    H135573   3.351   4.858   1.258 -0.2036  0.1287 -0.1557
 4646TIP3    H235574   3.454   4.750   1.279 -2.2944 -1.4783  2.5369
 4647TIP3   OH235575   6.620   1.309   0.153  0.1246  0.1157  0.3419
 4647TIP3    H135576   6.624   1.359   0.071  1.4860  0.4444  0.5766
 4647TIP3    H235577   6.706   1.267   0.159 -0.4584 -1.0385  0.9180
 4648TIP3   OH235578   4.516   1.999   7.023 -0.0873 -0.0137 -0.4350
 4648TIP3    H135579   4.505   2.001   6.928  0.4344 -2.0876 -0.5894
 4648TIP3    H235580   4.441   2.047   7.058  0.6025  2.2962 -1.8910
 4649TIP3   OH235581   4.613   4.795   8.487 -0.0161  0.3956  0.4175
 4649TIP3    H135582   4.549   4.836   8.545  0.1280  0.1565  0.7476
 4649TIP3    H235583   4.635   4.863   8.423 -2.1613 -0.1399 -0.9840
 4650TIP3   OH235584   5.639   0.807   2.680 -0.2213 -0.5184  0.4031
 4650TIP3    H135585   5.714   0.747   2.680  0.1466 -0.2562 -2.9691
 4650TIP3    H235586   5.563   0.749   2.689  0.2315 -1.2857 -0.4417
 4651TIP3   OH235587   2.699   5.082   0.173 -0.0044 -0.0303 -0.0924
 4651TIP3    H135588   2.758   5.155   0.151 -0.8207  0.5113 -0.5585
 4651TIP3    H235589   2.632   5.085   0.105  0.0369 -1.3380 -0.2059
 4652TIP3   OH235590   3.937   1.494   1.544  0.5097  0.1428  0.6499
 4652TIP3    H135591   4.021   1.452   1.562  0.3008 -0.3956  0.3972
 4652TIP3    H235592   3.958   1.563   1.481  0.9147  0.6808  1.3580
 4653TIP3   OH235593   6.167   1.982   6.480  0.0384 -0.6746  0.0104
 4653TIP3    H135594   6.255   1.950   6.460  0.5004 -0.0881  1.0196
 4653TIP3    H235595   6.108   1.915   6.445  0.7964 -0.1859 -2.3843
 4654TIP3   OH235596   4.627   6.798   0.784  0.7717  0.0612  0.1702
 4654TIP3    H135597   4.601   6.840   0.702  0.5659 -1.4493 -0.5703
 4654TIP3    H235598   4.699   6.741   0.759 -0.2151 -1.4910  0.7284
 4655TIP3   OH235599   2.062   5.500   2.106 -0.2585 -0.1569  0.1419
 4655TIP3    H135600   2.154   5.520   2.089 -0.3734  0.2223 -0.0503
 4655TIP3    H235601   2.018   5.585   2.102 -0.6710 -0.3786 -0.0957
 4656TIP3   OH235602   6.451   4.428   6.685 -0.3073 -0.0211 -0.0282
 4656TIP3    H135603   6.517   4.469   6.629  1.0393 -0.9866  0.7936
 4656TIP3    H235604   6.458   4.475   6.768 -1.3744  0.5391 -0.2477
 4657TIP3   OH235605   6.505   1.410   1.873  0.0146  0.4278 -0.2908
 4657TIP3    H135606   6.451   1.335   1.848 -0.7558  1.0230 -0.4419
 4657TIP3    H235607   6.444   1.484   1.877  0.5889  0.8583  0.8080
 4658TIP3   OH235608   0.174   4.691   2.279  0.2337  0.4757  0.0371
 4658TIP3    H135609   0.089   4.702   2.236 -0.3551 -0.8391  0.8100
 4658TIP3    H235610   0.170   4.750   2.355 -0.1952  0.0622  0.3444
 4659TIP3   OH235611   4.261   4.661   6.933 -0.1914 -0.1903  0.3191
 4659TIP3    H135612   4.317   4.583   6.928 -1.4744 -1.1224 -0.1764
 4659TIP3    H235613   4.173   4.626   6.945 -1.0179  1.1029 -1.5131
 4660TIP3   OH235614   3.821   1.976   0.254 -0.3302 -0.0335  0.2125
 4660TIP3    H135615   3.891   1.925   0.212  0.0722 -0.0227  0.8535
 4660TIP3    H235616   3.797   1.925   0.331 -0.3442  0.4516  0.5319
 4661TIP3   OH235617   3.697   4.296   8.553  0.3855  0.2365  0.4998
 4661TIP3    H135618   3.615   4.271   8.511  0.6501 -0.8313  0.5937
 4661TIP3    H235619   3.763   4.241   8.512  0.8282  0.0186  1.4720
 4662TIP3   OH235620   5.014   0.833   1.770 -0.0305  0.1861  0.4401
 4662TIP3    H135621   5.006   0.744   1.736 -0.9392 -0.4975  2.2580
 4662TIP3    H235622   4.950   0.884   1.720  1.0583  0.0282 -1.1605
 4663TIP3   OH235623   2.488   5.593   6.554  0.7660  0.0435  0.1082
 4663TIP3    H135624   2.448   5.626   6.634  2.3104  0.3428  0.7841
 4663TIP3    H235625   2.575   5.631   6.553  0.6514  0.3433 -1.9238
 4664TIP3   OH235626   2.334   4.555   6.647 -0.0058  0.2600 -0.0509
 4664TIP3    H135627   2.338   4.553   6.551 -1.2498 -1.6514 -0.1202
 4664TIP3    H235628   2.259   4.611   6.667 -0.0436  0.2685 -0.2131
 4665TIP3   OH235629   4.528   2.219   1.945  0.6434 -0.1283 -0.1717
 4665TIP3    H135630   4.616   2.183   1.934  2.2343  3.2260  0.0814
 4665TIP3    H235631   4.512   2.267   1.864 -1.1923 -1.0092 -0.3698
 4666TIP3   OH235632   4.779   3.401   1.841 -0.3156 -0.0353  0.2832
 4666TIP3    H135633   4.731   3.454   1.778  1.7442  1.7808  0.1147
 4666TIP3    H235634   4.748   3.429   1.926  0.3534  1.0820  0.1747
 4667TIP3   OH235635   1.588   5.938   0.634  0.3161 -0.0100 -0.5793
 4667TIP3    H135636   1.516   5.874   0.638  0.9368 -0.6818  1.6152
 4667TIP3    H235637   1.564   6.005   0.698  0.8549  0.6258 -1.0353
 4668TIP3   OH235638   3.984   6.458   0.412  0.3969  0.0012  0.7100
 4668TIP3    H135639   4.076   6.466   0.437  0.8382  2.1604 -1.2162
 4668TIP3    H235640   3.943   6.538   0.445 -0.7589 -0.7989  1.2927
 4669TIP3   OH235641   6.112   2.241   8.384  0.1494 -0.4472 -0.1682
 4669TIP3    H135642   6.046   2.302   8.418  0.3620  0.3140 -1.0572
 4669TIP3    H235643   6.195   2.290   8.391  0.2575 -0.4355 -1.3228
 4670TIP3   OH235644   4.001   3.188   0.952 -0.3162 -0.2352  0.1870
 4670TIP3    H135645   4.023   3.263   0.897  1.9523 -1.5698 -0.8757
 4670TIP3    H235646   4.074   3.127   0.941 -2.4267 -3.0102  0.3129
 4671TIP3   OH235647   2.744   5.351   8.540 -0.2212 -0.0090  0.3154
 4671TIP3    H135648   2.723   5.428   8.487 -1.0945  0.0059  0.6780
 4671TIP3    H235649   2.808   5.382   8.604  1.1674 -0.1164 -0.9530
 4672TIP3   OH235650   0.221   3.936   0.481  0.5437 -0.1407  0.0870
 4672TIP3    H135651   0.163   3.972   0.548 -1.4099  1.2524 -2.2117
 4672TIP3    H235652   0.193   3.845   0.472  0.0816 -0.0376  0.4076
 4673TIP3   OH235653   1.616   6.932   0.599  0.0606 -0.3070 -0.1336
 4673TIP3    H135654   1.526   6.926   0.566  0.2332 -1.3005 -0.4681
 4673TIP3    H235655   1.661   6.860   0.557  0.5331 -1.0463  1.5581
 4674TIP3   OH235656   6.066   3.045   6.537  0.1995 -0.0790 -0.5057
 4674TIP3    H135657   6.013   2.965   6.540 -1.5530  1.0045 -0.6012
 4674TIP3    H235658   6.155   3.016   6.555 -0.4080 -2.0172 -0.3610
 4675TIP3   OH235659   4.479   0.283   0.393 -0.0228 -0.0596  0.4656
 4675TIP3    H135660   4.419   0.217   0.428  0.6222 -0.4489  0.8492
 4675TIP3    H235661   4.442   0.306   0.307 -0.4036 -0.7123  0.4500
 4676TIP3   OH235662   6.690   5.386   0.427 -0.0667  0.7504  0.0468
 4676TIP3    H135663   6.650   5.470   0.406 -0.7457  0.7414  1.2156
 4676TIP3    H235664   6.700   5.387   0.522 -1.0007 -0.8566  0.2074
 4677TIP3   OH235665   1.307   6.042   6.331 -0.2372 -0.1338  0.0100
 4677TIP3    H135666   1.245   6.015   6.398 -0.4831 -1.5803 -0.7530
 4677TIP3    H235667   1.322   5.963   6.279  0.1012  0.8809 -1.5094
 4678TIP3   OH235668   6.532   6.707   6.713  0.5721 -0.2308  0.0579
 4678TIP3    H135669   6.512   6.732   6.623 -0.1006  0.8446  0.4813
 4678TIP3    H235670   6.464   6.644   6.737  1.2608 -1.1948 -0.4512
 4679TIP3   OH235671   4.704   0.092   7.481  0.2403 -0.1534  0.1982
 4679TIP3    H135672   4.684   0.118   7.571  0.5126  2.9732 -0.5318
 4679TIP3    H235673   4.651   0.150   7.427  1.8110 -0.3658 -1.6622
 4680TIP3   OH235674   0.103   0.045   7.055 -0.2090 -0.0677 -0.1510
 4680TIP3    H135675   0.190   0.010   7.033 -0.0758  0.4388 -0.4232
 4680TIP3    H235676   0.111   0.139   7.045 -1.2133 -0.1057 -1.6495
 4681TIP3   OH235677   2.713   1.788   0.604 -0.0025  0.2869 -0.5573
 4681TIP3    H135678   2.630   1.773   0.559  0.5355 -2.2012 -0.8782
 4681TIP3    H235679   2.694   1.768   0.696  0.3676 -0.9619 -0.7385
 4682TIP3   OH235680   0.730   4.108   7.017 -0.7057 -0.4383  0.0498
 4682TIP3    H135681   0.724   4.027   6.966 -2.6671  0.5514 -1.4216
 4682TIP3    H235682   0.651   4.109   7.071  0.5643 -0.6873  2.0022
 4683TIP3   OH235683   0.481   3.704   1.692 -0.0287  0.4629  0.0363
 4683TIP3    H135684   0.478   3.614   1.658 -1.8408 -0.9007  3.3264
 4683TIP3    H235685   0.568   3.711   1.732 -0.0849 -0.0221  0.2520
 4684TIP3   OH235686   4.399   3.289   6.539  0.1094  0.0544  0.2263
 4684TIP3    H135687   4.350   3.259   6.616  0.5996 -0.9746  0.1641
 4684TIP3    H235688   4.448   3.212   6.512  0.8514  0.7435 -0.4155
 4685TIP3   OH235689   6.379   5.278   7.202 -0.0507 -0.4556 -0.3450
 4685TIP3    H135690   6.329   5.359   7.199 -1.1538 -1.1254 -1.9439
 4685TIP3    H235691   6.411   5.267   7.112  1.1447 -1.1519  0.1438
 4686TIP3   OH235692   3.127   3.213   0.287 -0.1769 -0.2623 -0.7221
 4686TIP3    H135693   3.084   3.294   0.315  0.2155  0.0676 -1.0587
 4686TIP3    H235694   3.055   3.151   0.274 -0.4696 -0.0118 -0.3209
 4687TIP3   OH235695   1.247   3.278   6.635  0.8072 -0.2867 -0.1339
 4687TIP3    H135696   1.206   3.191   6.637  0.7829 -0.2989 -0.8830
 4687TIP3    H235697   1.329   3.267   6.682  0.2810 -0.4390  0.7597
 4688TIP3   OH235698   1.240   6.526   7.405 -0.2447  0.0979  0.1373
 4688TIP3    H135699   1.278   6.562   7.324 -1.0667  0.9098  0.0986
 4688TIP3    H235700   1.309   6.538   7.470  0.2125 -0.0404 -0.3052
 4689TIP3   OH235701   3.200   2.804   0.044  0.4934  0.1764 -0.8231
 4689TIP3    H135702   3.181   2.712   0.063 -0.9383  0.5448 -0.2971
 4689TIP3    H235703   3.253   2.802  -0.035 -1.7053 -1.0344 -2.3850
 4690TIP3   OH235704   4.627   0.652   1.599  0.4018 -0.0778 -0.0966
 4690TIP3    H135705   4.615   0.746   1.609 -1.0991 -0.4613  2.4496
 4690TIP3    H235706   4.549   0.623   1.551 -0.5013 -0.3275  1.4655
 4691TIP3   OH235707   1.102   4.764   7.441 -0.2999 -0.2462 -0.5265
 4691TIP3    H135708   1.019   4.805   7.413 -0.1107  0.3778 -0.2012
 4691TIP3    H235709   1.163   4.838   7.450 -0.1092 -0.5246  0.6361
 4692TIP3   OH235710   2.796   4.749   7.554  0.1197  0.0544  0.0861
 4692TIP3    H135711   2.834   4.833   7.581  0.4929 -0.2836  0.6281
 4692TIP3    H235712   2.869   4.687   7.562  0.0392 -0.2016 -0.9731
 4693TIP3   OH235713   6.424   4.167   0.764 -0.6233  0.1094 -0.7978
 4693TIP3    H135714   6.352   4.222   0.796 -0.7061  0.7372 -1.9907
 4693TIP3    H235715   6.405   4.156   0.671  2.2736  2.6986 -1.8925
 4694TIP3   OH235716   4.552   5.761   1.336  0.3032  0.3742  0.0937
 4694TIP3    H135717   4.559   5.665   1.333 -0.6614  0.2797  0.4775
 4694TIP3    H235718   4.519   5.784   1.249 -1.1997  0.1813  0.5965
 4695TIP3   OH235719   2.347   0.127   0.446  0.0154  1.2315  0.1462
 4695TIP3    H135720   2.403   0.164   0.378 -0.6021  0.6230 -0.7205
 4695TIP3    H235721   2.392   0.046   0.473 -0.0316  1.1681  0.0360
 4696TIP3   OH235722   2.608   0.346   1.655 -0.0133 -0.2300  0.0225
 4696TIP3    H135723   2.614   0.290   1.732  2.1159  1.2161  1.0020
 4696TIP3    H235724   2.600   0.435   1.690  1.4725  0.5002 -1.3811
 4697TIP3   OH235725   1.189   1.342   8.335 -0.0952  0.2166  0.1913
 4697TIP3    H135726   1.155   1.355   8.424 -1.1560  0.2902 -0.2147
 4697TIP3    H235727   1.280   1.371   8.340  0.2870 -1.0617  1.5935
 4698TIP3   OH235728   5.910   2.112   1.405  0.1337  0.0114  0.3221
 4698TIP3    H135729   5.980   2.055   1.438  1.3270  0.6400 -0.9777
 4698TIP3    H235730   5.930   2.198   1.442  0.6950  0.4221 -0.8761
 4699TIP3   OH235731   5.885   4.859   7.672 -0.3109 -0.1620  0.8865
 4699TIP3    H135732   5.851   4.772   7.691 -1.4214 -0.2667 -1.3021
 4699TIP3    H235733   5.970   4.844   7.630 -2.1462 -0.5928 -3.1964
 4700TIP3   OH235734   5.816   1.464   0.002 -0.3636  0.1245 -0.1544
 4700TIP3    H135735   5.772   1.473   0.087  0.3213 -0.6997  0.3083
 4700TIP3    H235736   5.748   1.429  -0.056 -0.3923 -1.0047  0.5127
 4701TIP3   OH235737   0.050   6.344   0.141 -0.2699 -0.4495  0.0504
 4701TIP3    H135738   0.083   6.430   0.168  2.9745 -1.5192 -0.0999
 4701TIP3    H235739  -0.005   6.363   0.065 -0.5801  1.5726  0.7193
 4702TIP3   OH235740   2.876   3.455   1.320 -0.1199  0.6672 -0.1588
 4702TIP3    H135741   2.924   3.377   1.348 -1.3824 -0.7311 -1.7107
 4702TIP3    H235742   2.860   3.441   1.227  0.9737  3.5350 -0.8886
 4703TIP3   OH235743   4.434   0.394   7.134 -0.2118 -0.3697 -0.5936
 4703TIP3    H135744   4.453   0.416   7.043 -0.7608  2.1236 -0.1814
 4703TIP3    H235745   4.341   0.416   7.145 -0.1650 -0.6919  0.5709
 4704TIP3   OH235746   5.287   0.266   7.812  0.2644  0.0031  0.1271
 4704TIP3    H135747   5.328   0.256   7.726  1.0725  0.0663  0.4983
 4704TIP3    H235748   5.318   0.191   7.863 -0.8350 -0.4676  0.1359
 4705TIP3   OH235749   0.837   3.156   0.443 -0.5585 -0.3844 -0.6004
 4705TIP3    H135750   0.928   3.129   0.433 -0.6784 -0.9212 -0.2873
 4705TIP3    H235751   0.796   3.135   0.359 -0.1279  0.9836 -1.1805
 4706TIP3   OH235752   6.509   5.283   7.437  0.0777  0.0754 -0.7121
 4706TIP3    H135753   6.498   5.270   7.343  3.0812 -1.0022 -1.0082
 4706TIP3    H235754   6.591   5.330   7.446  0.4522 -0.8454  1.3963
 4707TIP3   OH235755   1.675   5.343   2.373  0.7052 -0.4421  0.2900
 4707TIP3    H135756   1.586   5.376   2.390  0.9785 -0.0240  0.9867
 4707TIP3    H235757   1.662   5.255   2.339  0.0314 -0.6750  1.0964
 4708TIP3   OH235758   3.441   0.303   1.109  0.0287  0.0061 -0.0509
 4708TIP3    H135759   3.433   0.358   1.031  0.5504  0.6589  0.3457
 4708TIP3    H235760   3.387   0.347   1.175  0.9814  0.4311  0.4684
 4709TIP3   OH235761   0.735   6.146   7.686 -0.2303  0.2114  0.7286
 4709TIP3    H135762   0.738   6.194   7.604 -1.6526 -0.8729 -0.0181
 4709TIP3    H235763   0.823   6.112   7.698 -0.4474 -1.3403 -1.4767
 4710TIP3   OH235764   1.374   0.693   1.783  0.1524  0.8268  0.1628
 4710TIP3    H135765   1.405   0.604   1.801 -1.2696  0.1829 -0.4259
 4710TIP3    H235766   1.418   0.718   1.702 -0.7784 -0.0520 -0.6326
 4711TIP3   OH235767   3.402   6.175   1.841 -0.0366 -0.1443  0.5590
 4711TIP3    H135768   3.424   6.100   1.897 -0.2549  0.2434  1.1595
 4711TIP3    H235769   3.461   6.245   1.870  1.1835 -0.4733 -0.9433
 4712TIP3   OH235770   2.904   4.644   6.728  0.1884 -0.1211 -0.3277
 4712TIP3    H135771   2.968   4.580   6.701  0.6090  0.2151 -0.1398
 4712TIP3    H235772   2.947   4.694   6.798 -0.7275 -0.7122  0.6896
 4713TIP3   OH235773   4.139   3.021   0.354  0.6472 -0.5727 -0.0907
 4713TIP3    H135774   4.164   2.979   0.272  0.0376 -0.5829 -0.2750
 4713TIP3    H235775   4.155   3.114   0.338  0.2899 -0.5456 -0.3179
 4714TIP3   OH235776   6.703   2.485   0.618 -0.0903 -0.6364  0.1849
 4714TIP3    H135777   6.762   2.416   0.587 -2.0674 -2.1538 -0.4354
 4714TIP3    H235778   6.639   2.496   0.548 -1.5770 -0.3425  1.5044
 4715TIP3   OH235779   5.002   3.897   0.125  0.1297 -0.7016 -0.3314
 4715TIP3    H135780   5.048   3.966   0.173  3.9788 -2.0354 -1.7726
 4715TIP3    H235781   5.046   3.816   0.150 -0.5128 -1.9314 -2.8660
 4716TIP3   OH235782   1.374   4.231   8.488  0.0726 -0.1813 -0.7969
 4716TIP3    H135783   1.396   4.237   8.395  0.8905  1.2918 -0.5365
 4716TIP3    H235784   1.454   4.199   8.529 -0.1334 -0.3721 -0.5465
 4717TIP3   OH235785   3.371   1.470   8.503  0.1567 -0.1097  1.0263
 4717TIP3    H135786   3.432   1.530   8.459 -1.3881 -1.2964 -3.1424
 4717TIP3    H235787   3.292   1.522   8.516 -0.3980 -0.5656 -0.4388
 4718TIP3   OH235788   2.034   0.705   8.478  0.0641 -0.2215  0.5861
 4718TIP3    H135789   2.058   0.797   8.483 -0.2068 -0.0715 -0.5574
 4718TIP3    H235790   2.107   0.659   8.520 -0.3532  0.5657  2.2247
 4719TIP3   OH235791   4.707   0.850   2.821 -0.3515 -0.1016  0.1497
 4719TIP3    H135792   4.796   0.836   2.789  0.6845 -0.9645  3.0500
 4719TIP3    H235793   4.664   0.765   2.809 -0.1404 -0.2599  0.4825
 4720TIP3   OH235794   3.895   4.268   6.911  0.9339  0.1052 -0.0987
 4720TIP3    H135795   3.941   4.185   6.897  2.8388  0.7584  1.8585
 4720TIP3    H235796   3.803   4.242   6.922  1.1980 -1.5311 -1.3029
 4721TIP3   OH235797   2.924   0.373   2.651  0.3566  0.1000 -0.7747
 4721TIP3    H135798   2.836   0.405   2.627 -0.2729 -0.9971  0.0013
 4721TIP3    H235799   2.977   0.453   2.656 -1.2449  1.1323  1.4332
 4722TIP3   OH235800   6.749   4.930   2.036 -0.3973  0.3559  0.4532
 4722TIP3    H135801   6.779   4.983   2.110 -0.0624 -0.2964  0.8029
 4722TIP3    H235802   6.718   4.849   2.076 -0.2632  0.0148 -0.1183
 4723TIP3   OH235803   5.462   4.048   0.712 -0.8811 -0.3771 -0.0524
 4723TIP3    H135804   5.533   4.096   0.755  0.4317  0.1191 -2.5747
 4723TIP3    H235805   5.396   4.115   0.694 -0.4482 -0.1178 -0.7327
 4724TIP3   OH235806   2.859   4.255   0.888 -0.5897  0.5569  0.2931
 4724TIP3    H135807   2.769   4.266   0.918 -1.1355  0.0827 -1.1089
 4724TIP3    H235808   2.854   4.260   0.793  0.9096  0.7734  0.1886
 4725TIP3   OH235809   5.925   5.618   1.376  0.4886 -0.1010  0.3126
 4725TIP3    H135810   5.939   5.542   1.320  0.6636 -0.1828  0.4684
 4725TIP3    H235811   5.973   5.689   1.332 -0.4953  0.1672 -0.3696
 4726TIP3   OH235812   3.950   5.597   2.251 -0.2519 -0.2442  0.2541
 4726TIP3    H135813   3.956   5.678   2.302  0.4595 -0.9823  1.3770
 4726TIP3    H235814   3.888   5.542   2.298 -2.6157  0.4887 -1.7756
 4727TIP3   OH235815   3.319   6.892   7.614  0.7661 -0.0631  0.7861
 4727TIP3    H135816   3.232   6.881   7.652  0.7535 -0.4078  0.6600
 4727TIP3    H235817   3.369   6.936   7.683  0.2518  0.9845  0.5199
 4728TIP3   OH235818   1.870   3.511   1.614  0.1789 -0.1738 -0.7084
 4728TIP3    H135819   1.864   3.606   1.618 -1.2555 -0.2620 -0.2625
 4728TIP3    H235820   1.836   3.488   1.528 -1.5995 -0.3969  0.0207
 4729TIP3   OH235821   2.408   3.549   6.621  0.3121 -0.3266  0.2997
 4729TIP3    H135822   2.418   3.456   6.600 -0.9581 -0.5426  0.5555
 4729TIP3    H235823   2.484   3.591   6.581  2.0207 -1.7173  1.8892
 4730TIP3   OH235824   1.535   1.551   2.935 -0.7892  0.5326 -0.2316
 4730TIP3    H135825   1.504   1.473   2.979 -0.4760  0.5262 -0.0191
 4730TIP3    H235826   1.571   1.520   2.852 -2.5733  0.6914 -1.0929
 4731TIP3   OH235827   3.411   3.273   1.994 -0.2482 -0.2704 -0.3776
 4731TIP3    H135828   3.315   3.268   1.987 -0.0974 -3.5501 -1.9568
 4731TIP3    H235829   3.429   3.259   2.087 -1.2616  1.3048  0.0984
 4732TIP3   OH235830   6.495   5.639   7.765  0.2991  0.2071 -0.1154
 4732TIP3    H135831   6.548   5.609   7.691  2.2058  1.5173  0.6246
 4732TIP3    H235832   6.525   5.585   7.839  1.5679  1.7483  0.5664
 4733TIP3   OH235833   4.613   5.851   0.250 -0.3120  0.1241 -0.0248
 4733TIP3    H135834   4.667   5.927   0.228 -0.0130 -0.0067  0.2448
 4733TIP3    H235835   4.542   5.886   0.303 -1.0905  0.4572 -1.2528
 4734TIP3   OH235836   0.736   3.552   7.802 -0.2276 -0.6698  0.2269
 4734TIP3    H135837   0.767   3.642   7.795  1.6913 -1.3879 -1.7294
 4734TIP3    H235838   0.755   3.527   7.893  0.6880  0.4285  0.3602
 4735TIP3   OH235839   3.612   1.947   7.636  0.6441  0.4275 -0.6232
 4735TIP3    H135840   3.575   1.954   7.548  0.8566  0.6218 -0.6965
 4735TIP3    H235841   3.641   1.855   7.642 -1.7210 -0.3240  0.1799
 4736TIP3   OH235842   0.768   0.850   2.523  0.8505  0.0690  0.2572
 4736TIP3    H135843   0.781   0.935   2.565 -0.8329  0.8567 -0.7085
 4736TIP3    H235844   0.820   0.855   2.442  0.8465  0.1366  0.2587
 4737TIP3   OH235845   1.790   6.430   0.584 -0.2946 -0.3277  0.1930
 4737TIP3    H135846   1.822   6.363   0.645  1.3366  0.9010  0.7529
 4737TIP3    H235847   1.837   6.413   0.503 -1.0436 -0.7923 -0.1521
 4738TIP3   OH235848   5.010   3.019   1.651  0.5742 -0.3002 -0.3826
 4738TIP3    H135849   5.077   3.014   1.582  0.6826  1.6954 -0.4755
 4738TIP3    H235850   4.974   2.931   1.656  2.2784 -1.0954 -1.2735
 4739TIP3   OH235851   0.780   3.219   2.167  0.5212 -0.3094 -0.9597
 4739TIP3    H135852   0.750   3.306   2.141  2.1974 -0.4878 -3.7947
 4739TIP3    H235853   0.700   3.174   2.195 -0.4225  1.9861  0.3056
 4740TIP3   OH235854   6.491   1.951   0.666  0.0579  0.0834 -0.1392
 4740TIP3    H135855   6.542   1.870   0.669  0.8482  0.3565 -3.2422
 4740TIP3    H235856   6.543   2.015   0.714  2.4311  0.1822 -2.6564
 4741TIP3   OH235857   3.265   0.890   0.937  0.5238  0.2768 -0.4236
 4741TIP3    H135858   3.225   0.967   0.977 -0.2412  0.8516 -2.2119
 4741TIP3    H235859   3.252   0.820   1.002  0.6899  1.4827  0.9696
 4742TIP3   OH235860   6.407   3.160   1.848  0.0858  0.0361 -0.3327
 4742TIP3    H135861   6.376   3.249   1.866  0.3917  0.2241 -0.7209
 4742TIP3    H235862   6.326   3.109   1.838 -0.1185  0.5617 -1.5183
 4743TIP3   OH235863   2.281   4.707   7.074  0.2625  0.1194  0.3895
 4743TIP3    H135864   2.198   4.660   7.081 -0.1784  0.9571  0.9321
 4743TIP3    H235865   2.347   4.638   7.063 -0.6316 -0.4912 -1.4087
 4744TIP3   OH235866   3.407   1.390   6.962 -0.1386 -0.4662  0.1994
 4744TIP3    H135867   3.489   1.409   6.917 -0.4941  0.5175 -0.0459
 4744TIP3    H235868   3.355   1.340   6.899 -0.6614  0.9627 -0.5357
 4745TIP3   OH235869   4.824   0.981   1.059 -0.1796 -0.1632  0.0055
 4745TIP3    H135870   4.868   1.031   1.128  1.3849 -0.2662 -0.8717
 4745TIP3    H235871   4.763   1.043   1.020 -0.6756  0.0581  1.0927
 4746TIP3   OH235872   4.597   4.424   6.672 -0.0902 -0.1040  0.7801
 4746TIP3    H135873   4.674   4.369   6.673  0.4997  0.7041  1.3332
 4746TIP3    H235874   4.523   4.363   6.670  0.5510 -0.8847  0.6566
 4747TIP3   OH235875   5.772   6.753   7.401  0.0558  0.1145 -0.4209
 4747TIP3    H135876   5.797   6.803   7.478 -0.9189  0.2124 -0.1574
 4747TIP3    H235877   5.753   6.665   7.435 -0.0698  0.0736 -0.5948
 4748TIP3   OH235878   4.592   5.301   7.215  0.3383 -0.6604  0.2002
 4748TIP3    H135879   4.623   5.377   7.265  1.7449 -0.3573 -1.0759
 4748TIP3    H235880   4.517   5.334   7.165  0.1766 -0.4473  0.5761
 4749TIP3   OH235881   6.804   2.680   0.784  0.0011  0.5692 -0.0198
 4749TIP3    H135882   6.782   2.616   0.716  1.7372  0.3540 -0.4447
 4749TIP3    H235883   6.757   2.759   0.759 -0.1449  0.2034 -0.9455
 4750TIP3   OH235884   6.173   5.860   8.116 -0.1182  0.0174  0.0643
 4750TIP3    H135885   6.156   5.928   8.181  0.1827  1.2519 -1.0948
 4750TIP3    H235886   6.250   5.892   8.068  0.6462 -1.6453  0.1387
 4751TIP3   OH235887   1.876   2.407   2.022  0.0623  0.7358  0.5852
 4751TIP3    H135888   1.917   2.339   2.076 -0.1474  0.5215  0.4784
 4751TIP3    H235889   1.863   2.481   2.081 -1.9980 -0.1730  1.3935
 4752TIP3   OH235890   4.664   6.416   8.261 -0.5704  0.0252 -0.1233
 4752TIP3    H135891   4.606   6.381   8.194  0.6387 -1.9417 -0.2377
 4752TIP3    H235892   4.752   6.387   8.234  0.3970  2.2206  0.4498
 4753TIP3   OH235893   0.480   1.833   7.696 -0.3648  0.3308  0.3009
 4753TIP3    H135894   0.543   1.804   7.762  0.0707  1.0824  0.2271
 4753TIP3    H235895   0.530   1.893   7.641 -0.7659 -0.1773 -0.6248
 4754TIP3   OH235896   0.088   5.680   1.256  0.3152  0.1913  0.1773
 4754TIP3    H135897   0.174   5.722   1.258  0.6932 -0.5628  0.3662
 4754TIP3    H235898   0.087   5.631   1.174 -0.0660  0.4503  0.0241
 4755TIP3   OH235899   3.187   3.191   7.575  0.1398 -0.2256 -0.0905
 4755TIP3    H135900   3.179   3.286   7.584 -1.7059 -0.3367 -0.1221
 4755TIP3    H235901   3.269   3.169   7.620 -0.4621  1.1454  1.8349
 4756TIP3   OH235902   2.729   4.972   1.318 -0.2045 -0.1829 -0.0888
 4756TIP3    H135903   2.758   5.053   1.360 -1.0369  0.3586 -0.5452
 4756TIP3    H235904   2.768   4.903   1.372  1.6083  0.4931 -0.4447
 4757TIP3   OH235905   3.453   2.278   8.407  0.2879  0.8312 -0.6463
 4757TIP3    H135906   3.434   2.186   8.421  1.8941  0.6152  0.3911
 4757TIP3    H235907   3.399   2.303   8.332  0.1695 -1.0599 -1.2380
 4758TIP3   OH235908   1.298   6.324   0.670 -0.4127  0.5180  0.0811
 4758TIP3    H135909   1.389   6.304   0.692  0.3231  0.9953 -2.3025
 4758TIP3    H235910   1.278   6.402   0.722  0.7275  0.7534  0.2058
 4759TIP3   OH235911   3.574   5.431   1.093  0.7222 -0.3097 -0.4670
 4759TIP3    H135912   3.540   5.497   1.033 -0.3499  1.4477  1.8915
 4759TIP3    H235913   3.659   5.466   1.121 -0.2109  0.6238  1.4233
 4760TIP3   OH235914   5.453   4.267   7.496  0.4576  0.4159  0.2216
 4760TIP3    H135915   5.461   4.189   7.441  0.8922 -1.1853  2.4268
 4760TIP3    H235916   5.540   4.308   7.491  0.2908  0.6827 -0.7817
 4761TIP3   OH235917   5.674   2.078   7.802  0.0311  0.3078 -0.5868
 4761TIP3    H135918   5.583   2.066   7.775 -0.7063  0.4562  1.6222
 4761TIP3    H235919   5.674   2.161   7.849  1.3335  0.3364 -0.6167
 4762TIP3   OH235920   0.934   5.923   7.514 -0.0315  0.4239  0.3629
 4762TIP3    H135921   0.841   5.910   7.533 -0.3863  1.0190 -0.8576
 4762TIP3    H235922   0.974   5.837   7.527 -0.9331 -0.0714 -0.0582
 4763TIP3   OH235923   2.780   2.377   2.306  0.2868 -0.0691 -0.1993
 4763TIP3    H135924   2.869   2.413   2.301 -0.2781  1.2943 -0.8705
 4763TIP3    H235925   2.790   2.286   2.278  1.8238 -0.6452  1.9733
 4764TIP3   OH235926   3.449   2.114   1.019 -0.5813 -0.0087 -0.1104
 4764TIP3    H135927   3.356   2.098   1.003 -0.6888  0.3510  0.1455
 4764TIP3    H235928   3.481   2.152   0.938 -0.2339 -1.8403 -0.8799
 4765TIP3   OH235929   0.150   1.146   1.634  0.5716  0.2952 -0.0352
 4765TIP3    H135930   0.095   1.220   1.660 -1.4555 -1.5490  1.3507
 4765TIP3    H235931   0.215   1.138   1.703 -0.6465 -0.5370  1.0672
 4766TIP3   OH235932   2.839   4.090   7.222 -0.1235  0.1576 -0.1420
 4766TIP3    H135933   2.775   4.141   7.272  0.2843  0.8705 -0.3235
 4766TIP3    H235934   2.791   4.060   7.145 -0.6029 -0.4767  0.3892
 4767TIP3   OH235935   2.909   4.179   2.537  0.8421  0.1097 -0.0268
 4767TIP3    H135936   2.902   4.202   2.629 -0.3533  0.8836 -0.2942
 4767TIP3    H235937   2.819   4.161   2.509  1.3268 -1.4290 -0.7250
 4768TIP3   OH235938   3.607   0.623   2.717 -0.2634 -0.0916 -0.2224
 4768TIP3    H135939   3.631   0.689   2.782 -0.7600  0.2878 -0.4170
 4768TIP3    H235940   3.661   0.547   2.739 -1.7945 -0.6640  1.8514
 4769TIP3   OH235941   4.452   3.453   0.464 -0.1078  0.2576 -0.1970
 4769TIP3    H135942   4.478   3.471   0.373 -1.5187  0.7735 -0.5254
 4769TIP3    H235943   4.481   3.362   0.479 -0.1207  0.0591 -1.2640
 4770TIP3   OH235944   2.586   4.273   0.130 -0.4263 -0.7144 -0.2462
 4770TIP3    H135945   2.516   4.337   0.117 -0.7638 -1.0895 -0.3130
 4770TIP3    H235946   2.648   4.316   0.188  0.1285  0.2628 -1.5039
 4771TIP3   OH235947   3.637   2.644   1.624 -0.2671 -0.1655  0.2222
 4771TIP3    H135948   3.569   2.603   1.677  1.0302 -1.1328  1.1948
 4771TIP3    H235949   3.673   2.572   1.572 -1.0069  0.6273 -1.4654
 4772TIP3   OH235950   6.631   4.881   1.784 -0.3598  0.2555  0.2372
 4772TIP3    H135951   6.685   4.944   1.738  0.0141 -0.5608 -0.4715
 4772TIP3    H235952   6.660   4.886   1.875  0.9082 -0.1531 -0.1257
 4773TIP3   OH235953   5.728   5.266   1.818  0.3547 -0.2978 -0.8689
 4773TIP3    H135954   5.710   5.189   1.872  1.8080 -1.0632 -1.4201
 4773TIP3    H235955   5.822   5.261   1.800  0.7304  2.1972 -0.0247
 4774TIP3   OH235956   5.527   6.514   7.504 -0.1152 -0.1710 -0.0242
 4774TIP3    H135957   5.503   6.565   7.582 -0.0585 -1.2669  0.7265
 4774TIP3    H235958   5.607   6.468   7.529  1.9243  2.0567 -1.8812
 4775TIP3   OH235959   0.846   5.829   1.003 -0.3117 -0.4870 -0.4079
 4775TIP3    H135960   0.817   5.795   0.918 -0.9290  0.2503 -0.5076
 4775TIP3    H235961   0.766   5.835   1.054 -0.0029 -0.5019  0.0778
 4776TIP3   OH235962   6.101   3.429   0.463 -0.4755 -0.5574 -0.1115
 4776TIP3    H135963   6.176   3.469   0.506 -1.9616 -0.2277  2.3677
 4776TIP3    H235964   6.060   3.376   0.531 -2.4542 -0.7654 -1.3863
 4777TIP3   OH235965   3.397   4.472   7.016 -0.0713  0.0717  0.1714
 4777TIP3    H135966   3.404   4.558   6.976  0.1214 -0.6233 -1.3398
 4777TIP3    H235967   3.304   4.461   7.035 -0.1062  0.5611  0.2887
 4778TIP3   OH235968   6.352   4.236   8.502  0.2282  1.0218 -0.0430
 4778TIP3    H135969   6.365   4.218   8.409 -0.1429 -1.3857  0.3167
 4778TIP3    H235970   6.259   4.262   8.509  0.2607  1.2182 -0.3277
 4779TIP3   OH235971   2.338   0.588   2.387 -0.2908 -0.1874  0.8342
 4779TIP3    H135972   2.357   0.498   2.412 -1.3128  0.1019  2.8448
 4779TIP3    H235973   2.260   0.581   2.331 -0.8551 -0.5196  1.6378
 4780TIP3   OH235974   1.215   2.241   1.590  0.0662  0.3756  0.3939
 4780TIP3    H135975   1.217   2.203   1.677  1.3697 -0.6904 -0.0766
 4780TIP3    H235976   1.262   2.324   1.598 -0.0654  0.4139  0.7577
 4781TIP3   OH235977   5.691   6.454   0.402 -0.5924 -0.3017  0.1427
 4781TIP3    H135978   5.623   6.518   0.425 -0.2287  0.0739  0.1747
 4781TIP3    H235979   5.713   6.474   0.311 -0.8950 -0.7615 -0.0349
 4782TIP3   OH235980   2.027   3.090   7.956 -0.5782  0.1090 -0.0348
 4782TIP3    H135981   2.057   3.172   7.995 -0.5350  0.8397 -1.5530
 4782TIP3    H235982   2.095   3.067   7.893 -0.8082 -0.8705  0.0567
 4783TIP3   OH235983   4.280   2.753   8.529  0.0226  0.1179 -0.9532
 4783TIP3    H135984   4.328   2.715   8.455 -0.5206 -1.6124 -0.4587
 4783TIP3    H235985   4.196   2.708   8.528 -0.4136  0.8810  0.0734
 4784TIP3   OH235986   0.686   4.017   6.707  0.1670  0.6389 -0.2179
 4784TIP3    H135987   0.736   4.098   6.701 -0.1782  1.0601  1.8532
 4784TIP3    H235988   0.595   4.045   6.707  0.0513  0.2964  0.8615
 4785TIP3   OH235989   5.461   4.511   1.381 -0.4375 -0.2433  0.0181
 4785TIP3    H135990   5.472   4.489   1.474  2.4441 -0.0272 -0.1887
 4785TIP3    H235991   5.373   4.548   1.375 -0.1269  1.2485  2.9851
 4786TIP3   OH235992   3.651   5.685   1.813  0.3504 -0.1749  0.0667
 4786TIP3    H135993   3.725   5.673   1.753  0.1110  1.8310 -0.6947
 4786TIP3    H235994   3.690   5.685   1.900  1.2825  0.9860 -0.3336
 4787TIP3   OH235995   1.760   0.682   8.037  0.5583 -0.0750 -0.5393
 4787TIP3    H135996   1.833   0.654   8.092  2.0351  3.2173 -0.6056
 4787TIP3    H235997   1.755   0.615   7.968  1.1640 -2.2176  1.3932
 4788TIP3   OH235998   1.539   4.800   8.102 -0.2906 -0.2575  0.5073
 4788TIP3    H135999   1.577   4.858   8.167 -1.3033  0.0431  0.8593
 4788TIP3    H236000   1.548   4.712   8.140  1.3702 -0.3801 -0.0921
 4789TIP3   OH236001   1.085   0.896   2.033  0.2759  0.3442 -0.5231
 4789TIP3    H136002   1.178   0.876   2.046 -0.3357 -1.2764  2.1979
 4789TIP3    H236003   1.045   0.812   2.013 -0.8960  0.6281  0.5437
 4790TIP3   OH236004   0.373   3.275   0.870  0.1398 -0.5172  0.7551
 4790TIP3    H136005   0.378   3.343   0.937  1.5058  0.6655 -0.4710
 4790TIP3    H236006   0.456   3.227   0.877  0.5338 -0.0506 -0.3686
 4791TIP3   OH236007   0.741   4.354   8.033  0.4532 -0.3011 -0.5718
 4791TIP3    H136008   0.725   4.301   8.111 -1.7568 -1.7701 -1.9060
 4791TIP3    H236009   0.660   4.347   7.983  1.8301  0.4738 -3.0646
 4792TIP3   OH236010   3.307   2.145   1.715  0.0921 -0.5370  0.2577
 4792TIP3    H136011   3.273   2.185   1.796  0.6837  0.0035  0.2480
 4792TIP3    H236012   3.308   2.217   1.652  0.3631 -0.7747 -0.0099
 4793TIP3   OH236013   1.023   6.623   2.891 -0.1583  0.2268 -0.1075
 4793TIP3    H136014   1.038   6.716   2.872 -0.0227  0.3302  0.4718
 4793TIP3    H236015   1.004   6.621   2.985 -0.1209 -0.3361 -0.1088
 4794TIP3   OH236016   5.704   0.554   6.720 -0.0887 -0.1237  0.0487
 4794TIP3    H136017   5.753   0.570   6.801  1.1918  1.0003 -0.9025
 4794TIP3    H236018   5.616   0.586   6.738  0.0114 -0.4689  1.1992
 4795TIP3   OH236019   6.465   4.937   7.492  0.0775  0.4284  0.0377
 4795TIP3    H136020   6.394   4.971   7.546  1.5431  2.5866  0.7153
 4795TIP3    H236021   6.540   4.991   7.514  2.0887 -2.0434 -0.3388
 4796TIP3   OH236022   2.127   6.671   7.770 -0.0424 -0.4223  0.2169
 4796TIP3    H136023   2.195   6.719   7.722  0.8689 -2.0053 -0.1445
 4796TIP3    H236024   2.049   6.677   7.713  0.3328 -0.1967 -0.2812
 4797TIP3   OH236025   5.588   6.378   6.540  0.1065  0.4496 -0.2464
 4797TIP3    H136026   5.665   6.429   6.566 -0.4982  0.1969  2.2950
 4797TIP3    H236027   5.584   6.306   6.604 -1.4606 -0.3321 -1.1668
 4798TIP3   OH236028   2.107   1.675   0.960 -0.2489  0.3707 -0.5679
 4798TIP3    H136029   2.022   1.715   0.939 -0.1887  1.2088  0.6537
 4798TIP3    H236030   2.147   1.736   1.022  0.8574 -0.4742 -0.4226
 4799TIP3   OH236031   1.841   6.905   1.680  0.0674 -0.2303 -0.3288
 4799TIP3    H136032   1.760   6.868   1.644 -0.0817 -0.5299  0.2901
 4799TIP3    H236033   1.849   6.864   1.766 -0.7510  2.0481  0.9215
 4800TIP3   OH236034   6.373   3.717   0.812  0.2632  1.3296  0.1902
 4800TIP3    H136035   6.433   3.766   0.755  1.1903  1.8231  1.5512
 4800TIP3    H236036   6.374   3.764   0.895 -1.1356  0.6733  0.6126
 4801TIP3   OH236037   0.011   2.328   2.644 -0.7780 -0.6700 -0.3481
 4801TIP3    H136038  -0.023   2.384   2.714 -0.7624 -0.9355 -0.1292
 4801TIP3    H236039  -0.005   2.239   2.674 -1.1016 -0.7885 -0.8418
 4802TIP3   OH236040   2.163   6.459   2.128  0.3532  0.1789  0.1507
 4802TIP3    H136041   2.229   6.512   2.172 -0.4324  0.2528  1.3052
 4802TIP3    H236042   2.205   6.373   2.117  0.7481  0.3078  0.6037
 4803TIP3   OH236043   0.304   0.721   0.539 -0.8851  0.1347  0.2991
 4803TIP3    H136044   0.287   0.698   0.448  0.9833  0.8325 -0.2708
 4803TIP3    H236045   0.233   0.781   0.562 -0.6447  0.9936 -1.1190
 4804TIP3   OH236046   1.988   6.910   8.300  0.0896 -0.1139  0.3844
 4804TIP3    H136047   1.951   6.822   8.299 -1.3432  0.3955  2.3977
 4804TIP3    H236048   2.046   6.912   8.376  0.2225  0.6440  0.2813
 4805TIP3   OH236049   3.399   6.421   0.911  0.1747 -0.2698 -0.4317
 4805TIP3    H136050   3.486   6.437   0.948 -0.1764 -1.4735  0.9977
 4805TIP3    H236051   3.339   6.431   0.985 -0.6266 -2.1064 -0.7967
 4806TIP3   OH236052   5.208   5.626   8.061  0.8382 -0.0877 -0.0694
 4806TIP3    H136053   5.169   5.545   8.028  0.2606 -0.1840  0.8092
 4806TIP3    H236054   5.250   5.601   8.143  1.1745  0.3895 -0.0929
 4807TIP3   OH236055   5.400   5.948   1.165 -0.3511  0.6754  0.0960
 4807TIP3    H136056   5.428   5.914   1.080 -0.3561  1.3619 -0.1825
 4807TIP3    H236057   5.464   6.016   1.187 -0.1858  0.3195  0.7803
 4808TIP3   OH236058   3.176   0.068   8.296  0.6277 -0.3178 -0.3995
 4808TIP3    H136059   3.233   0.101   8.365  0.3307  1.1337 -0.7954
 4808TIP3    H236060   3.153  -0.021   8.322  1.1909 -0.0851  0.9289
 4809TIP3   OH236061   3.119   4.382   7.016  0.1223  0.5369  0.1704
 4809TIP3    H136062   3.111   4.287   7.006  3.1770 -0.0594  1.9745
 4809TIP3    H236063   3.070   4.403   7.095  0.2486  0.2892  0.3142
 4810TIP3   OH236064   1.421   5.236   7.218  0.3872  0.0481  0.0293
 4810TIP3    H136065   1.380   5.309   7.264  1.1529 -0.0934  0.9464
 4810TIP3    H236066   1.378   5.235   7.132  2.0383  3.0876 -0.9648
 4811TIP3   OH236067   0.631   2.472   6.754  0.2348  0.4980  0.1291
 4811TIP3    H136068   0.634   2.519   6.671  0.3699 -0.3964 -0.3937
 4811TIP3    H236069   0.538   2.460   6.771  0.2024  0.8637  0.2119
 4812TIP3   OH236070   3.920   4.293   1.800 -0.2923  0.1322  0.2406
 4812TIP3    H136071   3.889   4.249   1.721 -2.0196 -0.9086  1.4379
 4812TIP3    H236072   4.015   4.301   1.788 -0.3291 -1.3118 -1.2749
 4813TIP3   OH236073   4.187   2.289   7.125 -0.5764  0.4005 -0.0480
 4813TIP3    H136074   4.204   2.289   7.031  0.4735 -2.1078  0.0409
 4813TIP3    H236075   4.226   2.370   7.157  2.9254 -0.6101 -1.2599
 4814TIP3   OH236076   1.478   1.939   8.054  0.3279  0.0970  0.1656
 4814TIP3    H136077   1.564   1.976   8.033  0.7024  0.7729  2.5716
 4814TIP3    H236078   1.425   2.016   8.076 -0.2008 -0.4784  0.9312
 4815TIP3   OH236079   1.217   6.217   7.894 -0.5558  0.0564  0.1555
 4815TIP3    H136080   1.271   6.249   7.967 -1.6993 -0.2465  1.1690
 4815TIP3    H236081   1.237   6.124   7.890 -3.0620 -0.7070  2.4767
 4816TIP3   OH236082   4.255   2.692   1.964  0.2646 -0.3322  0.6794
 4816TIP3    H136083   4.280   2.639   1.888  0.3140  1.6645 -0.7505
 4816TIP3    H236084   4.315   2.767   1.962 -1.0650  0.7983  1.4950
 4817TIP3   OH236085   3.630   2.822   8.477  0.1689  0.9152  0.1479
 4817TIP3    H136086   3.697   2.848   8.414  0.2484 -1.2470 -0.7253
 4817TIP3    H236087   3.598   2.738   8.446  0.2714 -0.3138  3.0013
 4818TIP3   OH236088   0.565   6.347   1.579  0.4055 -0.7520  0.3977
 4818TIP3    H136089   0.603   6.392   1.654 -0.2796 -0.6259  0.6787
 4818TIP3    H236090   0.525   6.416   1.527  1.2799 -0.7862 -0.3332
 4819TIP3   OH236091   3.393   1.443   1.510  0.2158  0.3104  0.2259
 4819TIP3    H136092   3.422   1.530   1.485 -0.7294  0.6873  0.4322
 4819TIP3    H236093   3.398   1.442   1.606  0.5694  0.0067  0.2103
 4820TIP3   OH236094   2.292   2.044   0.709  0.9233 -0.0950 -0.7001
 4820TIP3    H136095   2.229   1.986   0.666 -0.1721  1.6737 -1.5909
 4820TIP3    H236096   2.367   2.046   0.649  0.1299  0.9644 -1.6948
 4821TIP3   OH236097   6.359   6.924   0.565 -0.4118  0.4893  0.3580
 4821TIP3    H136098   6.306   6.998   0.537  0.8542  1.1415 -0.4226
 4821TIP3    H236099   6.416   6.905   0.490 -0.8909 -1.4635  0.4331
 4822TIP3   OH236100   0.916   5.519   1.958 -0.0674 -0.0563 -0.3413
 4822TIP3    H136101   0.962   5.503   1.875 -1.0270 -0.2690 -0.8552
 4822TIP3    H236102   0.880   5.607   1.948 -1.0739 -0.4807 -0.6054
 4823TIP3   OH236103   1.644   2.069   7.243  0.5749 -0.6219 -0.3765
 4823TIP3    H136104   1.556   2.106   7.234  1.3519  1.4797  0.0164
 4823TIP3    H236105   1.672   2.053   7.153  0.7301  1.1745 -0.6850
 4824TIP3   OH236106   1.781   6.633   2.170 -0.0007 -0.0755  0.6408
 4824TIP3    H136107   1.824   6.548   2.155 -0.8736 -0.7975  1.9886
 4824TIP3    H236108   1.781   6.643   2.265 -0.8534  0.9461  0.5442
 4825TIP3   OH236109   6.824   4.461   0.887  0.6025  0.2527 -0.5391
 4825TIP3    H136110   6.858   4.398   0.951  2.1555  1.4682 -0.0896
 4825TIP3    H236111   6.801   4.408   0.810  0.4742 -1.0078  0.3460
 4826TIP3   OH236112   4.761   3.055   0.920  0.3839 -0.4437 -0.3173
 4826TIP3    H136113   4.769   3.139   0.874  2.2665 -0.8685 -0.8736
 4826TIP3    H236114   4.850   3.035   0.948 -0.6316 -0.2893  3.5383
 4827TIP3   OH236115   0.627   0.861   2.834 -0.2354  0.1921 -0.5605
 4827TIP3    H136116   0.696   0.902   2.887  0.5760 -0.4577 -1.0954
 4827TIP3    H236117   0.592   0.791   2.889 -0.9551  0.9569 -0.0226
 4828TIP3   OH236118   3.035   2.102   8.027  0.0567 -0.0087 -0.4560
 4828TIP3    H136119   3.100   2.040   8.061 -0.4821 -0.7949 -0.8244
 4828TIP3    H236120   3.087   2.167   7.980  0.5752 -0.8099 -1.0257
 4829TIP3   OH236121   3.216   6.095   1.653 -0.0682  0.2513  0.7583
 4829TIP3    H136122   3.298   6.117   1.697  0.2502 -1.0828  0.8690
 4829TIP3    H236123   3.165   6.176   1.656 -0.0355  0.2881  3.5218
 4830TIP3   OH236124   1.505   4.097   2.534 -0.2261 -0.3037 -0.2161
 4830TIP3    H136125   1.461   4.155   2.471  1.4651 -1.0476 -2.2186
 4830TIP3    H236126   1.503   4.011   2.493 -0.7610 -1.2572  1.7046
 4831TIP3   OH236127   0.485   3.644   0.944  0.0585 -0.0092  0.1213
 4831TIP3    H136128   0.393   3.670   0.953 -0.2559 -1.4313  1.7162
 4831TIP3    H236129   0.495   3.621   0.852 -1.1937  0.1881 -0.0804
 4832TIP3   OH236130   3.763   5.752   8.426  0.0362  0.2032 -0.3505
 4832TIP3    H136131   3.836   5.783   8.372 -0.7836  1.5288 -0.7395
 4832TIP3    H236132   3.692   5.736   8.365  0.1887 -1.8464 -0.0675
 4833TIP3   OH236133   2.025   4.198   1.557  0.3711 -0.6347  0.2118
 4833TIP3    H136134   2.002   4.267   1.619  1.9517  0.8249 -0.7444
 4833TIP3    H236135   1.989   4.228   1.473  2.7094  0.0416 -0.6054
 4834TIP3   OH236136   3.533   0.142   0.617  0.5387 -0.0814  0.6845
 4834TIP3    H136137   3.480   0.140   0.697 -2.9724  0.2723 -1.4286
 4834TIP3    H236138   3.514   0.227   0.577  1.0916 -0.7658 -1.1676
 4835TIP3   OH236139   1.176   0.223   2.280  0.6269 -0.4194  0.0574
 4835TIP3    H136140   1.263   0.251   2.252  0.2095  0.9113  0.0537
 4835TIP3    H236141   1.192   0.173   2.360  1.3418  0.3680  0.4165
 4836TIP3   OH236142   3.024   3.022   8.575  0.0061 -0.1673  0.4185
 4836TIP3    H136143   3.075   2.946   8.603 -0.2400 -0.9512 -1.1463
 4836TIP3    H236144   2.964   3.039   8.647 -0.0860 -1.6132  0.7156
 4837TIP3   OH236145   4.532   0.798   7.656 -0.3412  0.4212  0.2170
 4837TIP3    H136146   4.599   0.772   7.593 -0.2256  0.1958  0.4356
 4837TIP3    H236147   4.457   0.742   7.636 -0.3636  0.4666  0.1719
 4838TIP3   OH236148   3.412   1.055   7.730 -0.7572  0.0912 -0.4321
 4838TIP3    H136149   3.452   1.137   7.759  0.6157 -0.8193  0.3099
 4838TIP3    H236150   3.451   1.038   7.644 -0.7028 -0.0332 -0.3822
 4839TIP3   OH236151   5.753   5.752   1.549 -0.2863 -0.1712  0.4693
 4839TIP3    H136152   5.674   5.769   1.498  0.0067  1.2961  0.4466
 4839TIP3    H236153   5.811   5.704   1.489 -0.5213  0.2309 -0.0874
 4840TIP3   OH236154   4.129   5.205   7.987 -0.6248 -0.2113 -0.4583
 4840TIP3    H136155   4.103   5.292   8.017 -0.7823  0.0406 -1.2940
 4840TIP3    H236156   4.087   5.196   7.901  1.2628 -0.1512 -1.4526
 4841TIP3   OH236157   2.588   0.928   7.969  0.2137 -0.4320  0.4491
 4841TIP3    H136158   2.537   0.865   7.919 -0.1100 -0.1198  0.3805
 4841TIP3    H236159   2.656   0.958   7.909  0.0786 -0.3651  0.3292
 4842TIP3   OH236160   5.264   4.621   6.822 -0.6029 -0.1989 -0.0286
 4842TIP3    H136161   5.199   4.561   6.858  2.0410 -3.1858  0.1323
 4842TIP3    H236162   5.271   4.597   6.730 -0.3706  0.7516 -0.2763
 4843TIP3   OH236163   1.494   0.501   1.350 -0.1522 -0.5072  0.2882
 4843TIP3    H136164   1.457   0.570   1.405 -1.5430 -1.0262  0.0577
 4843TIP3    H236165   1.577   0.479   1.391  0.4774  1.4944  0.1919
 4844TIP3   OH236166   5.697   6.241   8.134 -0.4141 -0.2046  0.1555
 4844TIP3    H136167   5.631   6.185   8.093  0.0230 -1.3356  0.9761
 4844TIP3    H236168   5.717   6.199   8.217  0.9657  0.3941  0.1554
 4845TIP3   OH236169   0.382   4.982   7.188 -0.0922  0.1829  0.5182
 4845TIP3    H136170   0.445   4.992   7.260  0.2928 -0.9320  0.3651
 4845TIP3    H236171   0.437   4.971   7.110 -0.5073  1.4284  0.0347
 4846TIP3   OH236172   0.004   4.214   8.481 -0.5608  0.3756 -0.5197
 4846TIP3    H136173   0.072   4.212   8.549  0.7894 -1.5136 -1.8252
 4846TIP3    H236174   0.007   4.304   8.447  0.9143  0.4921 -0.1553
 4847TIP3   OH236175   3.940   6.610   7.552 -0.7435  0.1204 -0.1144
 4847TIP3    H136176   3.937   6.539   7.488  1.6527  0.5149 -0.7759
 4847TIP3    H236177   3.910   6.687   7.504 -2.3862 -0.2297  0.3150
 4848TIP3   OH236178   3.285   2.302   2.369 -0.1937  0.0900  0.4683
 4848TIP3    H136179   3.271   2.207   2.377  1.1961 -0.0536  1.5798
 4848TIP3    H236180   3.205   2.341   2.405 -0.1647 -0.6716  1.3965
 4849TIP3   OH236181   5.237   3.894   2.224  0.4311 -0.6502 -0.6152
 4849TIP3    H136182   5.171   3.948   2.268  0.3124 -0.7394 -0.6830
 4849TIP3    H236183   5.286   3.956   2.170  2.7655  0.1018  2.1120
 4850TIP3   OH236184   5.901   4.553   1.053 -0.4426  0.0674 -0.0323
 4850TIP3    H136185   5.811   4.580   1.075 -0.7049 -0.1870 -0.7683
 4850TIP3    H236186   5.912   4.470   1.098 -0.9182 -0.3644 -0.6840
 4851TIP3   OH236187   5.383   5.349   1.052 -0.5991 -0.0863  0.0776
 4851TIP3    H136188   5.405   5.264   1.012 -0.9203 -0.4771  0.7183
 4851TIP3    H236189   5.452   5.408   1.022  1.4546 -1.2931  2.1551
 4852TIP3   OH236190   1.018   3.429   1.306  0.0778  0.1979  0.5040
 4852TIP3    H136191   1.047   3.492   1.372  1.2171 -0.4780  0.6845
 4852TIP3    H236192   0.925   3.449   1.292 -0.3027  0.1229  2.6073
 4853TIP3   OH236193   1.150   4.068   8.549  0.6360  0.1054 -0.6401
 4853TIP3    H136194   1.226   4.125   8.532  0.8769 -0.7367 -2.5846
 4853TIP3    H236195   1.154   4.001   8.481 -1.2468 -0.6188 -0.1003
 4854TIP3   OH236196   4.994   1.593   0.542 -0.0780 -0.0552 -0.0282
 4854TIP3    H136197   4.900   1.574   0.546 -0.2878  0.4528 -1.8331
 4854TIP3    H236198   5.030   1.549   0.619 -1.7846 -0.2833  0.6845
 4855TIP3   OH236199   0.882   6.303   1.660 -0.5889 -0.0908 -0.2263
 4855TIP3    H136200   0.969   6.343   1.656 -0.7726  0.2564 -1.1595
 4855TIP3    H236201   0.835   6.356   1.724 -0.2619  0.0365 -0.0886
 4856TIP3   OH236202   3.079   6.270   0.081 -0.6518  0.2299 -0.1775
 4856TIP3    H136203   3.155   6.220   0.109 -1.2249 -0.9209 -0.6057
 4856TIP3    H236204   3.110   6.322   0.006  0.1105  1.0319  0.6754
 4857TIP3   OH236205   5.100   6.698   0.733  0.0196 -0.2418  0.0718
 4857TIP3    H136206   5.107   6.774   0.791 -0.3407  0.0269 -0.2348
 4857TIP3    H236207   5.177   6.645   0.754  0.4458  0.3653  0.0647
 4858TIP3   OH236208   0.139   0.887   0.726 -0.7928  0.5884 -0.1500
 4858TIP3    H136209   0.171   0.849   0.808 -1.3938 -0.8177 -0.5377
 4858TIP3    H236210   0.044   0.872   0.728 -0.6691 -0.6857 -1.6690
 4859TIP3   OH236211   0.489   6.528   0.480 -0.6185 -0.5307 -0.2591
 4859TIP3    H136212   0.528   6.533   0.567 -0.1797 -1.2533 -0.4089
 4859TIP3    H236213   0.540   6.461   0.434 -0.7220 -0.0209 -1.1353
 4860TIP3   OH236214   4.335   1.641   1.510 -0.2727 -0.2845  0.7934
 4860TIP3    H136215   4.311   1.724   1.469  1.1112 -1.2450 -2.1840
 4860TIP3    H236216   4.256   1.615   1.558 -1.3748  1.8130  0.2374
 4861TIP3   OH236217   5.418   0.346   0.404 -0.2047 -0.6740  0.0448
 4861TIP3    H136218   5.400   0.389   0.321 -1.1689 -1.7437 -0.3360
 4861TIP3    H236219   5.338   0.296   0.423  0.0621 -0.6002  1.5216
 4862TIP3   OH236220   4.706   5.273   1.229 -0.3041  0.5122  0.1379
 4862TIP3    H136221   4.774   5.312   1.174  1.0008 -0.5312  0.9483
 4862TIP3    H236222   4.692   5.187   1.192 -1.7051  0.9667 -0.4282
 4863TIP3   OH236223   0.965   2.539   7.370  0.2626 -0.3497  0.0283
 4863TIP3    H136224   0.940   2.489   7.448 -1.3417  0.0650 -0.1822
 4863TIP3    H236225   1.035   2.487   7.330  1.8214 -0.0852  2.2130
 4864TIP3   OH236226   4.488   3.601   7.317  0.2587 -0.0843 -0.6734
 4864TIP3    H136227   4.498   3.691   7.285 -0.2359  0.6965  1.1976
 4864TIP3    H236228   4.433   3.558   7.252 -1.6236  1.7280 -0.4109
 4865TIP3   OH236229   5.522   0.946   0.626 -0.2074  0.3926  0.5467
 4865TIP3    H136230   5.550   0.920   0.539  1.8228  1.2661  0.8964
 4865TIP3    H236231   5.455   1.014   0.610 -0.0801  0.3234 -0.3228
 4866TIP3   OH236232   4.834   6.778   1.439  0.0256 -0.1823 -0.0010
 4866TIP3    H136233   4.814   6.824   1.521 -1.1111  0.1424 -0.4364
 4866TIP3    H236234   4.917   6.734   1.455  1.1058  1.9164  0.5013
 4867TIP3   OH236235   4.534   4.545   2.264 -0.3685  0.0026 -0.4003
 4867TIP3    H136236   4.614   4.500   2.292  0.3556  1.5667  0.1450
 4867TIP3    H236237   4.564   4.607   2.198 -1.4203 -0.6166 -1.4752
 4868TIP3   OH236238   1.849   1.298   1.265 -0.3252  0.2793 -0.0464
 4868TIP3    H136239   1.872   1.383   1.228  2.8113  0.5144  2.1105
 4868TIP3    H236240   1.863   1.236   1.193  0.6492  1.2491 -0.7191
 4869TIP3   OH236241   4.431   1.577   7.301  0.3828 -0.7985  0.5905
 4869TIP3    H136242   4.494   1.648   7.312  2.2486 -2.7033  4.9661
 4869TIP3    H236243   4.455   1.535   7.219  0.5490  2.2078 -1.0454
 4870TIP3   OH236244   0.205   3.496   7.426 -0.5063  0.0742 -0.0151
 4870TIP3    H136245   0.171   3.546   7.352 -0.0802 -0.9509 -0.9360
 4870TIP3    H236246   0.134   3.436   7.449 -0.8929  0.8391  0.8743
 4871TIP3   OH236247   6.163   5.321   6.849  0.4589  0.2053  0.0900
 4871TIP3    H136248   6.095   5.384   6.826  0.2960 -0.1109 -0.3142
 4871TIP3    H236249   6.232   5.373   6.888  1.2208  0.9383 -2.1084
 4872TIP3   OH236250   5.634   4.355   2.226 -0.2926 -0.0166  0.0100
 4872TIP3    H136251   5.572   4.345   2.299 -0.9217  0.8297 -0.3994
 4872TIP3    H236252   5.584   4.398   2.157  0.9151  1.2460 -0.1200
 4873TIP3   OH236253   4.019   2.439   2.629  0.0718 -0.0433  0.2607
 4873TIP3    H136254   4.035   2.513   2.688  1.3949  0.6209 -0.8754
 4873TIP3    H236255   4.090   2.378   2.650  0.2325 -0.0357 -0.2571
 4874TIP3   OH236256   0.524   1.084   7.655 -0.5163 -0.0984 -0.6324
 4874TIP3    H136257   0.609   1.084   7.698  0.0062  0.3715 -1.6372
 4874TIP3    H236258   0.503   0.992   7.641  0.1701 -0.1954 -1.0305
 4875TIP3   OH236259   4.836   2.315   7.273 -0.6248  0.3425  0.4800
 4875TIP3    H136260   4.916   2.362   7.252 -1.4150  2.7004  2.2523
 4875TIP3    H236261   4.857   2.265   7.353 -0.7746  0.5514  0.6510
 4876TIP3   OH236262   5.708   0.197   7.988 -0.5536 -0.1237  0.3064
 4876TIP3    H136263   5.764   0.126   8.018 -1.0004 -0.4172  0.4578
 4876TIP3    H236264   5.769   0.265   7.959  0.0371 -2.0643 -3.6989
 4877TIP3   OH236265   2.309   5.626   2.120 -0.6572  0.0055 -0.2305
 4877TIP3    H136266   2.386   5.640   2.175 -0.5987  2.2982 -0.8070
 4877TIP3    H236267   2.239   5.674   2.165 -2.0604 -2.7342  0.7451
 4878TIP3   OH236268   4.339   6.845   0.670 -0.5819  0.5133  0.1721
 4878TIP3    H136269   4.396   6.779   0.709  1.9488  1.5993 -1.4561
 4878TIP3    H236270   4.252   6.804   0.669  0.2261 -1.4219  2.2631
 4879TIP3   OH236271   1.067   4.810   1.106 -0.0663  0.1170  0.1881
 4879TIP3    H136272   1.032   4.754   1.175  0.1145  0.1942  0.3436
 4879TIP3    H236273   1.011   4.793   1.030 -1.0262  0.9391  0.6909
 4880TIP3   OH236274   6.183   6.400   7.671  0.4711  0.5429 -0.3345
 4880TIP3    H136275   6.140   6.482   7.649  0.5570  0.7257  0.1609
 4880TIP3    H236276   6.248   6.424   7.738 -1.5005 -0.3480  2.0375
 4881TIP3   OH236277   4.225   4.152   8.322 -0.2572  0.2854  0.0057
 4881TIP3    H136278   4.204   4.084   8.258 -0.8549 -0.4813  0.9856
 4881TIP3    H236279   4.210   4.234   8.276  0.0654 -0.2399 -1.0706
 4882TIP3   OH236280   0.290   0.884   2.214 -0.3142  0.5301 -0.3624
 4882TIP3    H136281   0.297   0.976   2.185 -1.4909  0.7954  0.1284
 4882TIP3    H236282   0.211   0.882   2.268 -1.4210 -1.1621 -1.9086
 4883TIP3   OH236283   4.404   4.637   1.391 -0.3823 -0.7279 -0.0382
 4883TIP3    H136284   4.368   4.713   1.436 -0.1060 -0.3315 -0.4865
 4883TIP3    H236285   4.482   4.613   1.441  0.6263  0.4579 -0.9808
 4884TIP3   OH236286   5.174   5.645   1.546  0.0009 -0.7212 -0.2721
 4884TIP3    H136287   5.155   5.575   1.482  2.2833 -1.2444 -0.4814
 4884TIP3    H236288   5.166   5.602   1.631 -0.4890 -0.7294 -0.3229
 4885TIP3   OH236289   3.978   5.941   2.037  0.2238 -0.2856 -0.7604
 4885TIP3    H136290   3.995   5.997   2.113  2.4939  0.2918 -1.6077
 4885TIP3    H236291   4.037   5.867   2.049  0.8402 -0.0307 -2.0799
 4886TIP3   OH236292   0.406   5.392   8.198 -0.2873 -0.6708 -0.6061
 4886TIP3    H136293   0.370   5.476   8.171 -1.8756 -1.0519  0.1803
 4886TIP3    H236294   0.497   5.410   8.219 -0.6134  0.8556 -0.4202
 4887TIP3   OH236295   6.620   5.631   8.295  0.1425 -0.0114 -0.1880
 4887TIP3    H136296   6.536   5.676   8.292 -0.1135 -0.4878 -0.4800
 4887TIP3    H236297   6.619   5.583   8.378  0.5147  0.6958  0.2335
 4888TIP3   OH236298   1.797   3.970   7.866  0.2318 -0.7620 -0.1440
 4888TIP3    H136299   1.723   3.974   7.805  0.0768  0.2093  0.0780
 4888TIP3    H236300   1.834   3.883   7.855 -1.6668 -1.7188  0.5708
 4889TIP3   OH236301   3.522   6.508   2.317 -0.5290  0.2475 -0.0847
 4889TIP3    H136302   3.594   6.539   2.373  0.3160 -0.6207 -0.6526
 4889TIP3    H236303   3.556   6.516   2.228 -0.1084 -2.5346 -0.2653
 4890TIP3   OH236304   3.437   2.791   2.148  0.7002  0.3984  0.0856
 4890TIP3    H136305   3.494   2.718   2.123  0.2700 -0.4965  1.5693
 4890TIP3    H236306   3.354   2.774   2.103  1.1323  0.9216 -0.9320
 4891TIP3   OH236307   1.648   1.391   8.512 -0.6127  0.1733 -0.1283
 4891TIP3    H136308   1.670   1.343   8.432 -0.9754 -1.4017  0.6754
 4891TIP3    H236309   1.685   1.337   8.582 -0.2834  1.5382  0.7809
 4892TIP3   OH236310   2.138   2.936   0.083 -0.2572  0.0660  0.8640
 4892TIP3    H136311   2.215   2.990   0.099 -0.2058  1.0956 -2.1658
 4892TIP3    H236312   2.069   2.977   0.136  0.8940  0.0031  2.4877
 4893TIP3   OH236313   2.188   3.187   2.762  0.1341 -1.1053 -0.0837
 4893TIP3    H136314   2.102   3.158   2.794  0.4882 -0.4490  1.5633
 4893TIP3    H236315   2.251   3.148   2.821  0.9186 -0.7293 -0.6420
 4894TIP3   OH236316   0.803   6.090   1.939 -0.0375  0.7350 -0.5091
 4894TIP3    H136317   0.749   6.158   1.981  0.2523  1.1970 -0.8739
 4894TIP3    H236318   0.761   6.077   1.854  0.6927  1.4474 -0.9963
 4895TIP3   OH236319   1.496   1.334   0.928 -0.0490 -0.1976 -0.0419
 4895TIP3    H136320   1.536   1.251   0.952  0.0573  0.1442  1.0409
 4895TIP3    H236321   1.410   1.333   0.970  0.0626  0.3461  0.2117
 4896TIP3   OH236322   5.081   1.037   7.450 -0.8032 -0.0785  0.1104
 4896TIP3    H136323   5.080   1.132   7.440 -1.2619 -0.1467 -0.5087
 4896TIP3    H236324   5.166   1.018   7.492  0.7841  0.3229 -2.6815
 4897TIP3   OH236325   4.432   6.900   7.241  0.0108  0.1603  0.7663
 4897TIP3    H136326   4.408   6.826   7.185 -0.8838  1.1633 -0.2359
 4897TIP3    H236327   4.482   6.958   7.182 -0.5864  1.0426  1.1100
 4898TIP3   OH236328   2.378   3.634   7.953  0.2744 -0.3560  0.0156
 4898TIP3    H136329   2.346   3.683   7.878  1.2171  2.0023  1.0425
 4898TIP3    H236330   2.468   3.664   7.965  0.1031 -0.5180  2.1481
 4899TIP3   OH236331   2.414   4.764   1.882  0.0278 -0.0126  0.3798
 4899TIP3    H136332   2.458   4.694   1.930 -0.8719 -0.9109 -0.0713
 4899TIP3    H236333   2.345   4.720   1.833  0.8267  0.8894 -1.6615
 4900TIP3   OH236334   4.466   2.266   2.202  0.0050 -0.1673 -0.1105
 4900TIP3    H136335   4.524   2.313   2.262 -0.5413 -1.5074  1.5354
 4900TIP3    H236336   4.523   2.243   2.128  1.2237 -0.2020  0.7980
 4901TIP3   OH236337   6.715   6.132   2.698  0.4361  0.8761  0.4174
 4901TIP3    H136338   6.702   6.047   2.741  2.7955  1.0341  1.6161
 4901TIP3    H236339   6.627   6.160   2.674 -0.5720 -1.1814  1.4088
 4902TIP3   OH236340   5.997   2.511   1.214 -0.4464  0.3776  0.6142
 4902TIP3    H136341   6.089   2.486   1.208 -0.4280  0.6227 -0.2935
 4902TIP3    H236342   5.960   2.486   1.130 -1.2581  0.1227  1.0375
 4903TIP3   OH236343   5.340   6.161   2.143 -0.7373 -0.4377 -0.1970
 4903TIP3    H136344   5.319   6.195   2.056 -0.5871  1.2073  0.3749
 4903TIP3    H236345   5.424   6.117   2.133  0.3515  1.6058 -0.4807
 4904TIP3   OH236346   5.401   3.310   6.698 -0.9714  0.2901 -0.2790
 4904TIP3    H136347   5.389   3.216   6.698  2.9283 -0.3764 -0.2904
 4904TIP3    H236348   5.402   3.335   6.605  0.7445 -0.1942 -0.4210
 4905TIP3   OH236349   0.923   5.563   1.653 -0.0084 -0.3344  0.0329
 4905TIP3    H136350   0.833   5.581   1.682 -0.0813  0.9970 -0.8861
 4905TIP3    H236351   0.938   5.628   1.584  1.8817 -0.1252  0.6015
 4906TIP3   OH236352   2.150   3.539   2.233  0.2164  0.4934  0.1696
 4906TIP3    H136353   2.155   3.446   2.252 -0.0401  0.7284  1.4641
 4906TIP3    H236354   2.211   3.580   2.294  1.8206  1.0333 -1.6968
 4907TIP3   OH236355   5.221   5.852   2.653  0.6556 -0.2301  0.3555
 4907TIP3    H136356   5.238   5.803   2.572  0.1457 -0.7543  0.5604
 4907TIP3    H236357   5.191   5.786   2.715  0.0453  0.3225  0.6639
 4908TIP3   OH236358   1.476   3.089   0.650  0.1558 -0.3319  0.2230
 4908TIP3    H136359   1.472   3.102   0.745  0.1628  0.4981  0.1125
 4908TIP3    H236360   1.446   3.172   0.613 -0.6659 -0.9384 -0.5008
 4909TIP3   OH236361   0.487   1.595   1.833 -0.5675  0.4436  0.1345
 4909TIP3    H136362   0.480   1.618   1.926 -0.2361 -0.5556  0.4167
 4909TIP3    H236363   0.543   1.663   1.795  1.0220 -0.2826  1.1001
 4910TIP3   OH236364   5.418   1.884   7.504  0.2735 -0.4761  0.0325
 4910TIP3    H136365   5.472   1.813   7.469  0.4006 -0.2534 -0.2281
 4910TIP3    H236366   5.442   1.960   7.451  0.8105 -0.0209  0.9027
 4911TIP3   OH236367   1.432   4.164   1.754  0.2996  0.1345 -0.2474
 4911TIP3    H136368   1.517   4.187   1.793  0.1687 -1.2188  0.8869
 4911TIP3    H236369   1.374   4.236   1.779  1.1338  1.2265 -1.2768
 4912TIP3   OH236370   0.994   1.239   1.792 -0.4728 -0.8110 -0.0503
 4912TIP3    H136371   0.984   1.321   1.841 -1.0749 -0.6776 -0.3921
 4912TIP3    H236372   1.089   1.228   1.784 -0.3838 -0.0280 -0.2004
 4913TIP3   OH236373   0.803   6.214   1.038  0.4666 -0.1541 -0.0965
 4913TIP3    H136374   0.757   6.140   1.077 -0.6897 -0.2783 -1.5896
 4913TIP3    H236375   0.779   6.210   0.945  1.7311  1.1096 -0.5050
 4914TIP3   OH236376   0.570   6.077   1.440 -0.2112  0.2475 -0.5023
 4914TIP3    H136377   0.559   6.169   1.463  0.2847  0.2784 -0.3678
 4914TIP3    H236378   0.529   6.029   1.512 -0.9636  0.3658 -0.8496
 4915TIP3   OH236379   3.556   3.660   1.446 -0.8361 -0.3227  0.2401
 4915TIP3    H136380   3.527   3.612   1.368 -0.0953 -0.8150  0.2574
 4915TIP3    H236381   3.607   3.733   1.412  1.1179 -1.6034  0.2646
 4916TIP3   OH236382   2.132   1.226   8.105  0.0836 -0.0311 -0.5416
 4916TIP3    H136383   2.216   1.271   8.097  0.4622 -0.6871 -0.3582
 4916TIP3    H236384   2.139   1.151   8.046  0.1889 -0.9065  0.5624
 4917TIP3   OH236385   4.330   0.375   2.114 -0.4621  0.1679 -0.0236
 4917TIP3    H136386   4.376   0.390   2.032  0.4235  0.9332  0.6015
 4917TIP3    H236387   4.252   0.325   2.089  0.5400 -0.8814 -1.1296
 4918TIP3   OH236388   0.288   5.867   1.179  0.0773 -0.3458 -0.2216
 4918TIP3    H136389   0.238   5.914   1.245 -0.5287 -0.4621 -0.5859
 4918TIP3    H236390   0.286   5.923   1.102  1.0220 -0.0791 -0.0700
 4919TIP3   OH236391   2.780   1.851   8.291 -0.3394 -0.3654  0.2449
 4919TIP3    H136392   2.769   1.838   8.385 -0.4903 -0.5147  0.2059
 4919TIP3    H236393   2.835   1.929   8.284 -1.2847  0.3349  0.4351
 4920TIP3   OH236394   1.307   5.593   1.562  0.2977  0.0795  0.9568
 4920TIP3    H136395   1.398   5.572   1.579  0.7037 -0.4228 -1.4619
 4920TIP3    H236396   1.305   5.688   1.556  0.5158  0.1336  1.6397
 4921TIP3   OH236397   4.285   2.186   2.381 -0.2694 -0.1980 -0.4942
 4921TIP3    H136398   4.350   2.218   2.319 -0.0324 -0.1175 -0.2063
 4921TIP3    H236399   4.337   2.150   2.453 -0.5442 -0.0947 -0.2437
 4922TIP3   OH236400   2.239   5.962   2.789 -0.4859 -0.5134 -0.1996
 4922TIP3    H136401   2.151   5.994   2.808 -0.4440 -0.7365  0.3798
 4922TIP3    H236402   2.290   6.041   2.771 -0.2788 -0.1887  1.6477
 4923TIP3   OH236403   6.288   5.900   6.895  0.1929 -0.3761  0.1064
 4923TIP3    H136404   6.209   5.901   6.841  0.9851  1.5378 -1.1427
 4923TIP3    H236405   6.357   5.871   6.836  0.4980 -1.8335  1.1308
 4924TIP3   OH236406   6.177   0.430   2.313  0.0952  0.0745 -0.2904
 4924TIP3    H136407   6.258   0.457   2.356 -0.3575  0.7886  0.1396
 4924TIP3    H236408   6.122   0.397   2.384 -0.4158  0.6701 -0.3962
 4925TIP3   OH236409   3.814   3.321   1.347  0.4885 -0.5724 -0.8155
 4925TIP3    H136410   3.891   3.268   1.327 -1.5407 -4.0844 -0.2481
 4925TIP3    H236411   3.813   3.327   1.443 -0.8366 -2.2677 -0.6636
 4926TIP3   OH236412   4.642   2.339   2.363 -0.0297  0.3571  0.1970
 4926TIP3    H136413   4.597   2.369   2.442 -0.4847 -1.3088  0.6044
 4926TIP3    H236414   4.724   2.389   2.362  0.1518  0.1565  1.9397
 4927TIP3   OH236415   5.017   0.635   1.168  0.0102 -0.2184 -0.6587
 4927TIP3    H136416   5.066   0.646   1.249  0.8226  1.0216 -1.2891
 4927TIP3    H236417   5.039   0.547   1.138  0.5676 -0.2762 -0.1093
 4928TIP3   OH236418   6.003   3.179   0.673  0.1417  0.2320  0.4136
 4928TIP3    H136419   5.913   3.192   0.642  0.1970 -0.7345 -0.1862
 4928TIP3    H236420   5.998   3.194   0.767 -0.5462  0.6550  0.3186
 4929TIP3   OH236421   6.538   2.985   7.428  0.1737  0.3979 -0.5010
 4929TIP3    H136422   6.487   2.935   7.363  0.2968  1.7947 -1.7312
 4929TIP3    H236423   6.476   3.048   7.463  0.7614  1.4077 -1.2346
 4930TIP3   OH236424   0.640   1.725   1.591  0.0994  0.5185  0.0835
 4930TIP3    H136425   0.709   1.785   1.562 -1.2078  1.7704 -0.5472
 4930TIP3    H236426   0.602   1.691   1.510  0.7160 -1.0792  0.4355
 4931TIP3   OH236427   3.585   6.671   0.750 -0.8554  0.2478  0.3346
 4931TIP3    H136428   3.495   6.643   0.737 -0.1645 -1.9470 -0.0613
 4931TIP3    H236429   3.624   6.603   0.804  0.2817  1.7617  1.5034
 4932TIP3   OH236430   0.185   1.209   7.533  0.4038 -0.6945 -0.0349
 4932TIP3    H136431   0.194   1.116   7.554  0.4587 -1.3456 -2.5439
 4932TIP3    H236432   0.243   1.223   7.458 -2.4200  0.3471 -2.2564
 4933TIP3   OH236433   4.114   0.738   1.638  0.1611 -0.5676  0.8133
 4933TIP3    H136434   4.107   0.671   1.570  0.2764 -1.7803  1.9657
 4933TIP3    H236435   4.026   0.776   1.643  0.1975 -0.3375 -0.1234
 4934TIP3   OH236436   2.055   2.121   0.483 -0.1278  0.7166  0.2045
 4934TIP3    H136437   2.076   2.052   0.545 -1.3322  0.0976 -0.0542
 4934TIP3    H236438   2.040   2.199   0.537  0.1630  0.5191  0.5717
 4935TIP3   OH236439   0.222   2.153   2.228  0.0725 -0.4525 -0.2936
 4935TIP3    H136440   0.316   2.168   2.213  0.4356 -1.4639  0.7946
 4935TIP3    H236441   0.199   2.217   2.296  0.4280 -1.3849  0.7374
 4936TIP3   OH236442   4.322   4.954   8.378  0.0348  0.9067  0.6832
 4936TIP3    H136443   4.344   4.865   8.352 -1.1464  0.3301  1.5949
 4936TIP3    H236444   4.407   4.999   8.383  0.6482 -0.1895  0.3400
 4937TIP3   OH236445   4.239   0.510   8.329 -0.0288  0.5715  0.4230
 4937TIP3    H136446   4.234   0.534   8.421  0.5272  1.6108  0.2009
 4937TIP3    H236447   4.332   0.514   8.308 -0.0771 -0.3564 -0.0130
 4938TIP3   OH236448   6.707   0.742   8.003  0.2386  0.0347 -0.2022
 4938TIP3    H136449   6.714   0.754   7.908 -2.3318  1.6884 -0.2604
 4938TIP3    H236450   6.704   0.830   8.039  0.1278 -0.5578  1.3437
 4939TIP3   OH236451   2.893   4.336   1.683  0.8528 -0.4260  0.0184
 4939TIP3    H136452   2.851   4.405   1.735  0.5009 -0.6480  0.0280
 4939TIP3    H236453   2.833   4.262   1.687  1.3272 -0.8094  0.1764
 4940TIP3   OH236454   3.866   1.203   1.421 -0.3235  0.5384  0.3403
 4940TIP3    H136455   3.956   1.231   1.401  0.1915 -1.0565  0.2173
 4940TIP3    H236456   3.822   1.201   1.336 -0.3514  0.9099  0.3447
 4941TIP3   OH236457   3.389   3.552   8.110  0.0761  0.6723  0.5147
 4941TIP3    H136458   3.411   3.497   8.185  1.6555  1.1758  0.4541
 4941TIP3    H236459   3.466   3.607   8.096 -0.4122  1.0187 -1.1056
 4942TIP3   OH236460   1.217   0.104   8.125  0.5284 -0.1883 -0.0639
 4942TIP3    H136461   1.188   0.194   8.108  1.3322  0.0150 -0.4510
 4942TIP3    H236462   1.255   0.108   8.213  0.6914 -0.1136 -0.1372
 4943TIP3   OH236463   1.810   4.708   7.676  0.3358 -0.0153  0.3059
 4943TIP3    H136464   1.792   4.621   7.711  0.4154  0.1765  0.8222
 4943TIP3    H236465   1.768   4.768   7.737 -0.4398  0.2836 -0.4927
 4944TIP3   OH236466   1.460   2.936   1.191 -0.7869  0.0753 -0.6480
 4944TIP3    H136467   1.369   2.930   1.221 -0.2836 -1.4306  0.7533
 4944TIP3    H236468   1.478   2.850   1.152  0.1660  0.1828 -0.4647
 4945TIP3   OH236469   1.352   2.465   1.601  0.5159  0.0384 -0.1892
 4945TIP3    H136470   1.412   2.482   1.674  1.0364 -0.1619 -0.5638
 4945TIP3    H236471   1.377   2.527   1.534 -2.0725  2.5255  0.9225
 4946TIP3   OH236472   4.017   6.506   7.207 -0.1095 -0.1456  0.2587
 4946TIP3    H136473   4.091   6.499   7.147 -0.1911 -0.8116  0.2318
 4946TIP3    H236474   3.981   6.593   7.190  0.2897 -0.0582 -0.1635
 4947TIP3   OH236475   2.119   3.340   7.724  0.4786 -0.4926 -0.4978
 4947TIP3    H136476   2.047   3.334   7.786  2.1695  0.4661  1.6922
 4947TIP3    H236477   2.159   3.253   7.724  0.0260 -0.7008 -0.8220
 4948TIP3   OH236478   1.218   5.964   7.628 -0.3118 -0.0894 -0.4717
 4948TIP3    H136479   1.204   5.927   7.540  2.5295  0.0762 -1.0748
 4948TIP3    H236480   1.214   5.889   7.687 -3.2352 -0.0860 -0.5053
 4949TIP3   OH236481   5.569   0.688   1.109  0.3239 -0.2522 -0.1913
 4949TIP3    H136482   5.505   0.715   1.044 -1.0356 -1.1865  0.6915
 4949TIP3    H236483   5.548   0.596   1.127 -0.2110  0.2957  2.4619
 4950TIP3   OH236484   4.715   4.444   7.680 -0.1596  0.1218  0.2875
 4950TIP3    H136485   4.729   4.532   7.715  0.5881  0.3913 -0.6517
 4950TIP3    H236486   4.672   4.458   7.596  1.3242 -0.3198 -0.5746
 4951TIP3   OH236487   4.671   6.925   0.528 -0.3567  0.3249 -0.3291
 4951TIP3    H136488   4.692   6.890   0.442  0.0740  1.7275 -0.8289
 4951TIP3    H236489   4.719   7.008   0.533 -1.0391  0.6861  0.9250
 4952TIP3   OH236490   1.236   1.780   1.829  0.1345  0.0109  0.3235
 4952TIP3    H136491   1.147   1.791   1.863 -0.2814  0.1642 -0.7851
 4952TIP3    H236492   1.284   1.855   1.865  0.4848 -1.3451  2.9319
 4953TIP3   OH236493   6.790   6.132   2.077  0.2436 -0.0243  0.6436
 4953TIP3    H136494   6.743   6.197   2.024  1.8021 -0.2652 -1.1427
 4953TIP3    H236495   6.723   6.092   2.131 -1.3114  0.8035 -0.5946
 4954TIP3   OH236496   2.323   3.845   1.821 -0.1169  0.0163 -0.6646
 4954TIP3    H136497   2.239   3.888   1.834  0.7741  1.2828  1.4307
 4954TIP3    H236498   2.321   3.771   1.882 -0.3155 -0.9146 -1.7823
 4955TIP3   OH236499   1.308   4.992   7.424 -0.0707  0.4883 -0.5639
 4955TIP3    H136500   1.384   5.039   7.388  0.9467 -0.0633  0.7502
 4955TIP3    H236501   1.241   5.059   7.436 -0.1378  0.8354 -2.5804
 4956TIP3   OH236502   2.369   5.041   1.967 -0.0924  0.1805  0.2707
 4956TIP3    H136503   2.336   5.032   2.056  2.2720 -2.4250  1.0195
 4956TIP3    H236504   2.395   4.953   1.942  0.4207  1.0452 -2.5906
 4957TIP3   OH236505   1.657   2.404   0.446  0.1076  0.2672  0.0386
 4957TIP3    H136506   1.714   2.441   0.512  0.3010 -0.9174  0.5557
 4957TIP3    H236507   1.663   2.309   0.458 -1.1333  0.0754 -0.5864
 4958TIP3   OH236508   4.435   6.601   0.875  0.2583 -0.4839 -0.7441
 4958TIP3    H136509   4.476   6.590   0.961 -1.4633  1.2963  0.3956
 4958TIP3    H236510   4.499   6.651   0.824  0.9980 -0.9168 -0.2568
 4959TIP3   OH236511   1.878   3.398   0.609 -0.1352  0.2420 -0.4486
 4959TIP3    H136512   1.836   3.381   0.525 -1.1173 -0.6325  0.1868
 4959TIP3    H236513   1.829   3.471   0.646 -1.0802 -0.7010  0.2404
 4960TIP3   OH236514   0.557   2.833   7.596 -0.0301  0.2115  0.3036
 4960TIP3    H136515   0.574   2.905   7.656 -0.3413 -1.4671  2.5693
 4960TIP3    H236516   0.579   2.754   7.647  0.1396 -1.3221 -1.9739
 4961TIP3   OH236517   1.885   1.316   0.822  0.9299 -0.0144 -0.7477
 4961TIP3    H136518   1.953   1.379   0.803  0.3458  0.1003 -2.5699
 4961TIP3    H236519   1.922   1.262   0.893  2.3406  0.8814 -0.7648
 4962TIP3   OH236520   1.829   3.382   0.072  0.1552 -0.0183 -0.5188
 4962TIP3    H136521   1.829   3.463   0.123  1.1060  0.4212 -1.1976
 4962TIP3    H236522   1.879   3.320   0.126 -1.1749 -0.4119  0.3381
 4963TIP3   OH236523   0.381   2.825   8.345  0.2819  0.6756  0.1228
 4963TIP3    H136524   0.403   2.911   8.308 -0.3335  0.1131 -1.6857
 4963TIP3    H236525   0.370   2.769   8.268 -0.8732 -0.6444  1.2029
 4964TIP3   OH236526   2.551   1.365   2.232  0.3121 -0.1609 -0.1725
 4964TIP3    H136527   2.580   1.441   2.282 -0.3020 -0.6012  0.8893
 4964TIP3    H236528   2.591   1.290   2.276 -0.6424 -0.5950 -0.0086
 4965TIP3   OH236529   3.804   5.487   1.297  0.3428  0.4269 -0.0634
 4965TIP3    H136530   3.745   5.503   1.370 -0.9359 -1.9151 -0.4845
 4965TIP3    H236531   3.871   5.555   1.305 -1.9853  2.8025  0.8220
 4966TIP3   OH236532   5.252   6.251   7.623  0.4512 -0.6034  0.4556
 4966TIP3    H136533   5.300   6.330   7.595  0.1395 -1.1480 -1.7978
 4966TIP3    H236534   5.193   6.232   7.550 -0.7192 -1.9571  1.7050
 4967TIP3   OH236535   3.205   3.039   7.896 -0.6122 -0.2973  0.6892
 4967TIP3    H136536   3.133   3.006   7.950 -0.2293 -0.8522  0.8690
 4967TIP3    H236537   3.165   3.053   7.810 -1.2617  0.7449  1.1423
 4968TIP3   OH236538   5.370   6.032   8.407  0.2875 -0.2308  0.4665
 4968TIP3    H136539   5.299   5.975   8.438 -0.6762  0.8671  0.3389
 4968TIP3    H236540   5.371   6.021   8.312  0.4764 -0.4475  0.4919
 4969TIP3   OH236541   6.726   1.993   1.436 -0.2585  0.4476 -0.2728
 4969TIP3    H136542   6.696   1.906   1.412 -0.1627 -0.9016  3.7351
 4969TIP3    H236543   6.647   2.041   1.457 -0.1815  0.0524  1.0260
 4970TIP3   OH236544   1.865   6.916   0.739 -0.1347 -0.4366  0.5885
 4970TIP3    H136545   1.820   6.864   0.672 -0.2001 -0.1714  0.4280
 4970TIP3    H236546   1.796   6.963   0.785  0.0265  0.4836 -0.0907
 4971TIP3   OH236547   1.370   2.979   2.193  0.9648  0.0802  0.6635
 4971TIP3    H136548   1.310   3.040   2.149  1.0001  1.7262  2.7428
 4971TIP3    H236549   1.312   2.917   2.237  0.9216 -0.9974 -0.8198
 4972TIP3   OH236550   1.613   6.144   0.868 -0.1433  0.0862  0.5969
 4972TIP3    H136551   1.602   6.232   0.831  1.0227  0.1122  0.2805
 4972TIP3    H236552   1.614   6.159   0.963  1.7411  0.6623  0.5250
 4973TIP3   OH236553   5.756   1.816   7.220 -0.1048  0.0847 -0.4758
 4973TIP3    H136554   5.684   1.773   7.266 -0.9343  2.0956  0.2195
 4973TIP3    H236555   5.829   1.754   7.226 -0.8938 -0.7395  1.4528
 4974TIP3   OH236556   1.053   4.611   1.767  0.2719  0.5204  0.8362
 4974TIP3    H136557   1.066   4.687   1.823  1.6571  0.1758  1.0224
 4974TIP3    H236558   1.009   4.645   1.689  1.9526  1.7564  0.3801
 4975TIP3   OH236559   4.497   1.049   2.778 -0.8367 -0.8919 -0.4842
 4975TIP3    H136560   4.571   0.996   2.808 -0.4282 -1.0036 -1.6188
 4975TIP3    H236561   4.435   1.047   2.851  0.1024 -1.1223  0.3396
 4976TIP3   OH236562   2.705   5.640   7.537  0.1802  0.2235 -0.3444
 4976TIP3    H136563   2.782   5.583   7.547  1.4123  1.5502 -1.7659
 4976TIP3    H236564   2.668   5.617   7.452 -0.0468  0.6779 -0.3747
 4977TIP3   OH236565   1.731   1.385   0.615  0.7279  0.0785  0.0738
 4977TIP3    H136566   1.800   1.343   0.563  0.6057 -0.0325  0.0020
 4977TIP3    H236567   1.756   1.370   0.706  2.6699  2.9523  0.1435
 4978TIP3   OH236568   4.209   4.372   1.380 -0.1453  0.1115 -0.1541
 4978TIP3    H136569   4.200   4.280   1.353  1.5232  0.1335 -0.8958
 4978TIP3    H236570   4.245   4.416   1.303  0.5158  1.0837  0.6865
 4979TIP3   OH236571   3.157   4.288   7.537  0.0919  0.0133  0.0486
 4979TIP3    H136572   3.155   4.195   7.558  0.7884  0.2299  1.1721
 4979TIP3    H236573   3.170   4.332   7.621  2.9236  0.9449 -0.7438
 4980TIP3   OH236574   6.599   0.581   8.334 -0.1657  0.2319 -0.3089
 4980TIP3    H136575   6.635   0.524   8.266  0.6941  0.5356 -0.1260
 4980TIP3    H236576   6.529   0.630   8.291  0.7005  0.7839 -1.1118
 4981TIP3   OH236577   4.931   0.039   8.478 -0.1686  0.2607 -0.0048
 4981TIP3    H136578   4.900  -0.008   8.555  1.9913 -0.2804  0.5920
 4981TIP3    H236579   4.944  -0.029   8.412  4.2097 -0.4167  1.2566
 4982TIP3   OH236580   4.571   1.593   0.866  0.1214 -0.6284 -0.6199
 4982TIP3    H136581   4.563   1.579   0.960  1.1443 -0.4392 -0.4985
 4982TIP3    H236582   4.639   1.533   0.837 -1.7266 -2.3379 -1.6576
 4983TIP3   OH236583   3.493   1.914   2.154 -0.6373 -0.6959  0.3278
 4983TIP3    H136584   3.584   1.929   2.179 -0.3223 -1.3630 -0.3549
 4983TIP3    H236585   3.455   1.864   2.226 -0.6114  0.0096  0.8390
 4984TIP3   OH236586   1.377   3.156   0.914  0.3068 -0.0072  0.6085
 4984TIP3    H136587   1.297   3.130   0.960 -0.1292  0.2212 -0.0110
 4984TIP3    H236588   1.372   3.251   0.910  0.0398 -0.0568 -0.4338
 4985TIP3   OH236589   5.949   2.380   1.445  0.1771 -0.3756 -0.0443
 4985TIP3    H136590   5.954   2.434   1.366 -0.7933  0.5291  0.4879
 4985TIP3    H236591   5.888   2.427   1.502  1.4605 -0.5894  1.5751
 4986TIP3   OH236592   2.697   0.971   2.103 -0.4697 -0.4274  0.2602
 4986TIP3    H136593   2.663   1.027   2.174 -2.2670  0.7703 -1.4550
 4986TIP3    H236594   2.666   1.012   2.023  2.7692 -0.8475 -1.3962
 4987TIP3   OH236595   0.957   1.584   7.547 -0.2024  0.3391 -0.3116
 4987TIP3    H136596   0.865   1.562   7.533  0.4423 -1.9499 -1.4510
 4987TIP3    H236597   0.976   1.557   7.636 -0.5117  0.3882 -0.2311
 4988TIP3   OH236598   5.025   2.248   0.611 -0.8222 -0.0587  0.1995
 4988TIP3    H136599   4.984   2.332   0.633 -3.2506 -1.2828  0.7419
 4988TIP3    H236600   4.975   2.216   0.536  1.4062 -0.1633 -1.3415
 4989TIP3   OH236601   5.645   2.039   1.157 -0.1002 -0.2513  0.5137
 4989TIP3    H136602   5.683   2.099   1.221  0.3394 -0.6729  0.6486
 4989TIP3    H236603   5.603   1.971   1.210  1.1296 -1.1499  0.3622
 4990TIP3   OH236604   4.944   3.244   7.097  0.2276  0.0619  0.3728
 4990TIP3    H136605   4.985   3.179   7.039 -1.7123 -1.1882  0.3202
 4990TIP3    H236606   4.949   3.204   7.184 -0.2335  0.2151  0.4706
 4991TIP3   OH236607   3.487   2.623   8.174 -0.1296  0.0811  0.0067
 4991TIP3    H136608   3.416   2.581   8.126 -0.1087  0.7861 -0.6750
 4991TIP3    H236609   3.543   2.551   8.203  0.3390 -0.3348 -1.8199
 4992TIP3   OH236610   6.343   5.545   0.782 -0.4586  0.1605  0.5268
 4992TIP3    H136611   6.295   5.486   0.841 -0.9206 -1.0373 -0.9896
 4992TIP3    H236612   6.315   5.633   0.808 -2.0061 -0.4211  0.9559
 4993TIP3   OH236613   5.737   1.952   7.569 -0.2473  0.0894  0.1448
 4993TIP3    H136614   5.733   1.860   7.543  0.3863  0.2623 -0.6064
 4993TIP3    H236615   5.676   1.959   7.642 -1.6130 -0.5624 -0.8773
 4994TIP3   OH236616   2.852   3.812   1.837  0.0288  0.3949  0.4822
 4994TIP3    H136617   2.807   3.759   1.771  1.4720 -0.4971  0.1722
 4994TIP3    H236618   2.931   3.763   1.858 -0.0703  0.9820  2.4282
 4995TIP3   OH236619   3.620   2.021   0.019  0.2638  0.2621  0.3991
 4995TIP3    H136620   3.682   1.997   0.088 -1.3518 -0.6439  1.5896
 4995TIP3    H236621   3.657   1.982  -0.061  0.3772 -1.7690  1.3857
 4996TIP3   OH236622   1.627   4.172   7.427  0.1481  0.5025 -0.0723
 4996TIP3    H136623   1.641   4.266   7.415  1.2401  0.9224  3.3729
 4996TIP3    H236624   1.544   4.166   7.473 -1.1583 -0.5101 -2.3920
 4997TIP3   OH236625   1.200   2.928   1.305 -0.3100 -0.2403  0.0648
 4997TIP3    H136626   1.152   2.876   1.241 -1.6942  1.2273 -0.1519
 4997TIP3    H236627   1.141   3.001   1.326  0.9510  0.4312  1.4592
 4998TIP3   OH236628   1.833   6.729   7.814 -0.2850  0.0420 -0.0044
 4998TIP3    H136629   1.875   6.700   7.733  0.5650 -5.3768  1.9197
 4998TIP3    H236630   1.739   6.728   7.795 -0.0137  0.8816 -1.4305
 4999TIP3   OH236631   3.220   2.536   1.143 -0.2918 -0.3135  0.4793
 4999TIP3    H136632   3.200   2.447   1.113  0.7032 -0.2739 -0.3813
 4999TIP3    H236633   3.313   2.547   1.123 -0.0999  0.4808  1.7391
 5000TIP3   OH236634   6.002   6.214   7.761  0.1642  0.0100 -0.4097
 5000TIP3    H136635   5.943   6.266   7.816  0.9445 -0.8651  1.3194
 5000TIP3    H236636   6.063   6.277   7.724  0.3376  0.4795  0.6624
 5001TIP3   OH236637   6.571   3.417   6.677 -0.8415  0.1376  0.0063
 5001TIP3    H136638   6.634   3.488   6.670 -1.4054  0.5425 -1.2953
 5001TIP3    H236639   6.612   3.345   6.629 -1.4053  0.4401 -0.9459
 5002TIP3   OH236640   1.100   4.631   8.219  0.4953 -0.0312 -0.3204
 5002TIP3    H136641   1.144   4.585   8.148 -2.2682  0.1400 -2.3318
 5002TIP3    H236642   1.054   4.562   8.268  0.8577  0.0513  0.1462
 5003TIP3   OH236643   4.948   3.601   6.972  0.2673  0.0695 -0.4424
 5003TIP3    H136644   4.997   3.674   6.935  2.6957 -0.8987  0.6652
 5003TIP3    H236645   4.879   3.642   7.024  0.5523  1.5213 -1.1631
 5004TIP3   OH236646   2.913   4.146   8.280 -0.4206 -0.2491 -0.4477
 5004TIP3    H136647   2.977   4.169   8.212  0.2951 -1.2364 -0.1265
 5004TIP3    H236648   2.877   4.062   8.251 -0.9921 -0.0874 -0.2106
 5005TIP3   OH236649   4.526   5.490   1.237 -0.1560 -0.1666 -0.7524
 5005TIP3    H136650   4.582   5.413   1.239  0.5532  0.3401 -0.7729
 5005TIP3    H236651   4.441   5.459   1.266  0.3807 -0.7441  0.2375
 5006TIP3   OH236652   0.913   6.438   2.235 -0.3684  0.8046  0.2589
 5006TIP3    H136653   0.881   6.498   2.168 -0.3616  1.0171  0.4452
 5006TIP3    H236654   0.962   6.494   2.296  2.4205  0.2023 -1.2390
 5007TIP3   OH236655   1.668   1.586   1.896 -0.1707  0.0109 -0.3671
 5007TIP3    H136656   1.634   1.502   1.927  0.3510  0.6955  2.3988
 5007TIP3    H236657   1.751   1.596   1.943 -1.0922  2.8552  0.9038
 5008TIP3   OH236658   0.735   0.679   1.072 -0.1061  0.1821 -0.1894
 5008TIP3    H136659   0.740   0.614   1.002  0.9281 -0.2053  0.2183
 5008TIP3    H236660   0.826   0.699   1.092 -0.4058  1.1171  0.2924
 5009TIP3   OH236661   2.759   3.463   0.276 -0.3710  0.2107  0.2841
 5009TIP3    H136662   2.786   3.554   0.290  3.0231 -0.6244  0.1044
 5009TIP3    H236663   2.801   3.438   0.194 -0.6494 -1.7113  0.6918
 5010TIP3   OH236664   3.483   4.568   7.473  0.5554  0.1706  0.0162
 5010TIP3    H136665   3.550   4.600   7.534 -1.7786  1.1533  2.2395
 5010TIP3    H236666   3.474   4.637   7.408 -0.2862  1.4271  1.3980
 5011TIP3   OH236667   6.288   2.866   1.466  0.2903  0.1849  0.0165
 5011TIP3    H136668   6.382   2.869   1.449  0.3378 -1.8175 -0.3420
 5011TIP3    H236669   6.262   2.777   1.443 -1.2269 -0.1144  2.5447
 5012TIP3   OH236670   5.559   3.047   1.808 -0.0971 -0.2585 -0.2003
 5012TIP3    H136671   5.510   3.128   1.826 -1.9096 -1.6152  1.4443
 5012TIP3    H236672   5.529   3.020   1.722 -1.0756 -0.2218  0.1084
 5013TIP3   OH236673   1.248   1.709   2.625 -0.0423 -0.0983  0.5189
 5013TIP3    H136674   1.216   1.687   2.713  0.5420 -0.3827  0.6609
 5013TIP3    H236675   1.175   1.684   2.567  0.3590 -1.9072  0.7288
 5014TIP3   OH236676   2.307   1.147   1.907 -0.6184 -0.0384 -0.1756
 5014TIP3    H136677   2.320   1.235   1.942  0.2271 -0.2413  0.0540
 5014TIP3    H236678   2.391   1.104   1.921 -1.3120 -1.1868  0.5728
 5015TIP3   OH236679   5.763   2.898   1.917 -0.7301 -0.0802 -0.2988
 5015TIP3    H136680   5.687   2.949   1.890 -1.6399 -1.0632  0.3341
 5015TIP3    H236681   5.753   2.814   1.872 -0.6695 -0.6522  0.7355
 5016TIP3   OH236682   4.715   1.011   1.991 -0.2033 -0.0964  0.3274
 5016TIP3    H136683   4.769   0.932   2.001 -0.6472 -0.9950 -3.0457
 5016TIP3    H236684   4.773   1.083   2.013  0.9294 -1.2369  1.2587
 5017TIP3   OH236685   2.317   0.444   1.854 -0.8677 -0.8163 -0.7157
 5017TIP3    H136686   2.340   0.351   1.849  0.1615 -0.6222 -0.0586
 5017TIP3    H236687   2.402   0.490   1.851 -1.3759  0.1104 -1.2474
 5018TIP3   OH236688   1.118   6.666   1.916 -0.0200 -0.2153 -0.3823
 5018TIP3    H136689   1.134   6.695   2.006 -0.1699  1.5474 -0.8985
 5018TIP3    H236690   1.182   6.596   1.903  1.9765  1.3876  0.1906
 5019TIP3   OH236691   2.775   6.795   7.517 -0.0718 -0.1722  0.1371
 5019TIP3    H136692   2.709   6.726   7.516 -1.3528  0.9641 -2.4973
 5019TIP3    H236693   2.725   6.876   7.524  1.0793  0.6747 -1.0918
 5020TIP3   OH236694   2.901   5.724   0.018 -0.4741  0.0042 -0.3920
 5020TIP3    H136695   2.840   5.769  -0.040 -0.1376  0.1955 -0.6002
 5020TIP3    H236696   2.987   5.740  -0.020 -0.4040 -1.4697 -0.9318
 5021TIP3   OH236697   0.854   3.243   8.189 -0.0479 -0.0294  0.3136
 5021TIP3    H136698   0.876   3.154   8.217  0.5076 -0.3242 -1.0006
 5021TIP3    H236699   0.875   3.245   8.096  0.3125  1.6048  0.3998
 5022TIP3   OH236700   3.569   5.855   0.181 -0.7434 -0.5072  0.3439
 5022TIP3    H136701   3.490   5.827   0.134 -0.3576  0.3329 -0.8508
 5022TIP3    H236702   3.636   5.792   0.157 -0.7705 -0.5888  0.4810
 5023TIP3   OH236703   5.879   0.038   8.140  0.2918 -0.0634 -0.3126
 5023TIP3    H136704   5.958   0.040   8.195 -0.7049 -0.0926  1.1929
 5023TIP3    H236705   5.834  -0.042   8.165 -0.9185  0.6585 -0.0826
 5024TIP3   OH236706   5.333   2.898   0.723  0.0942 -0.5247  0.0303
 5024TIP3    H136707   5.323   2.816   0.674  0.9938  0.0048 -1.1081
 5024TIP3    H236708   5.426   2.901   0.745  0.5646  1.1595 -1.8495
 5025TIP3   OH236709   2.775   3.492   8.258 -0.8217  0.0376  0.1306
 5025TIP3    H136710   2.852   3.437   8.272 -1.1212  0.0071  1.9512
 5025TIP3    H236711   2.784   3.524   8.169  1.7980  0.8078  0.5986
 5026TIP3   OH236712   4.258   2.596   8.161 -0.7717  0.1535 -0.0219
 5026TIP3    H136713   4.223   2.615   8.074  0.6490  1.8237 -0.2849
 5026TIP3    H236714   4.329   2.535   8.145 -2.8122 -2.5331  0.4242
 5027TIP3   OH236715   1.812   3.885   6.942 -0.1808  0.2146  0.5094
 5027TIP3    H136716   1.731   3.867   6.990 -0.7471 -0.6553 -0.7057
 5027TIP3    H236717   1.823   3.980   6.947 -0.8147  0.2498  1.4060
 5028TIP3   OH236718   5.718   3.634   0.160 -0.4981  0.0722 -0.1455
 5028TIP3    H136719   5.777   3.674   0.224 -0.3299 -1.1781  0.5163
 5028TIP3    H236720   5.727   3.688   0.082  0.0534  1.0424  0.5665
 5029TIP3   OH236721   0.198   3.495   8.130  0.1697  1.0152 -0.1070
 5029TIP3    H136722   0.281   3.455   8.105 -1.2934 -0.7420 -2.6158
 5029TIP3    H236723   0.199   3.580   8.087  1.4404  1.9072  1.5692
 5030TIP3   OH236724   2.183   1.735   7.264 -0.3599 -0.0128  0.0125
 5030TIP3    H136725   2.104   1.746   7.317  0.4774  0.2308  1.2573
 5030TIP3    H236726   2.236   1.813   7.284  0.6681 -0.7095  0.0636
 5031TIP3   OH236727   3.606   5.119   8.267 -0.1534 -0.2466  0.5019
 5031TIP3    H136728   3.696   5.091   8.255 -0.2103  0.0668 -0.7588
 5031TIP3    H236729   3.605   5.211   8.240 -1.2695 -0.8260 -1.7100
 5032TIP3   OH236730   2.393   0.169   1.263 -0.7899 -0.7274 -0.0498
 5032TIP3    H136731   2.361   0.176   1.353  0.0200  0.6361  0.1560
 5032TIP3    H236732   2.332   0.222   1.212  0.8176  1.6264  0.2987
 5033TIP3   OH236733   5.370   5.519   8.371 -0.3351  0.3816 -0.1726
 5033TIP3    H136734   5.433   5.447   8.366 -0.4978  0.0897  1.5045
 5033TIP3    H236735   5.306   5.490   8.436 -1.3325  1.3464 -0.7034
 5034TIP3   OH236736   4.424   0.179   2.308  0.4384  0.6073  0.7415
 5034TIP3    H136737   4.359   0.214   2.248 -1.2319 -0.3107  1.9215
 5034TIP3    H236738   4.508   0.189   2.262 -0.6871  0.4408 -1.4670
 5035TIP3   OH236739   1.682   4.893   2.573 -0.2229  0.4828  0.0485
 5035TIP3    H136740   1.613   4.827   2.580 -0.7667  0.8856 -1.2097
 5035TIP3    H236741   1.757   4.846   2.538 -0.8810  0.6660 -1.7072
 5036TIP3   OH236742   1.196   5.613   2.248  0.6385 -0.4307  0.0371
 5036TIP3    H136743   1.207   5.561   2.168  0.1289  0.7585 -0.8389
 5036TIP3    H236744   1.103   5.607   2.268  0.9242 -1.5537  1.1587
 5037TIP3   OH236745   3.683   4.254   2.713  0.0447 -0.4528 -0.6413
 5037TIP3    H136746   3.770   4.279   2.745 -0.3977  0.3887 -0.0738
 5037TIP3    H236747   3.683   4.158   2.717  0.7872 -0.4464 -0.2204
 5038TIP3   OH236748   3.561   1.407   1.229  0.3012  0.7191 -0.1718
 5038TIP3    H136749   3.636   1.348   1.224  0.5547  1.1650 -2.1315
 5038TIP3    H236750   3.597   1.488   1.265  0.4862  0.5183  0.0962
 5039TIP3   OH236751   0.337   2.536   0.969 -0.3184  0.0555 -0.6049
 5039TIP3    H136752   0.272   2.477   1.007  1.3211 -0.5812  1.3830
 5039TIP3    H236753   0.324   2.528   0.874 -0.7661 -2.7989 -0.3884
 5040TIP3   OH236754   3.273   6.892   7.338 -0.5624  0.8260 -0.2959
 5040TIP3    H136755   3.194   6.841   7.357  0.5011 -0.8809 -0.2188
 5040TIP3    H236756   3.319   6.897   7.422  1.9809 -2.9113 -1.1762
 5041TIP3   OH236757   2.018   4.241   1.925 -0.1520  0.6522  0.0579
 5041TIP3    H136758   2.076   4.311   1.894  1.0896 -0.5701 -0.5389
 5041TIP3    H236759   1.931   4.280   1.927  0.6345  2.4656  0.6585
 5042TIP3   OH236760   6.301   4.409   0.524  0.3868 -0.0834 -0.1546
 5042TIP3    H136761   6.297   4.496   0.485  1.6460 -0.6288 -1.5836
 5042TIP3    H236762   6.364   4.362   0.470  0.4238 -1.5996  1.1631
 5043TIP3   OH236763   1.455   0.336   0.716 -0.4826 -0.1787  0.3037
 5043TIP3    H136764   1.470   0.420   0.673 -2.7952 -0.7067 -1.7582
 5043TIP3    H236765   1.527   0.280   0.687 -0.5200  0.2722 -0.6758
 5044TIP3   OH236766   3.375   1.813   1.927 -0.2580  0.2698 -0.0204
 5044TIP3    H136767   3.447   1.760   1.894 -0.9960  0.4291 -1.9771
 5044TIP3    H236768   3.413   1.861   2.001  1.3429 -0.4043 -0.3660
 5045TIP3   OH236769   3.211   5.945   7.890 -0.2873  0.0267 -0.4952
 5045TIP3    H136770   3.195   5.964   7.798  1.1951  0.9094 -0.6034
 5045TIP3    H236771   3.150   6.002   7.937 -1.0109 -0.3890 -0.9170
 5046TIP3   OH236772   4.623   6.604   1.727 -0.4558 -0.1917  0.2391
 5046TIP3    H136773   4.543   6.552   1.718 -0.1743 -0.1833 -4.0631
 5046TIP3    H236774   4.693   6.539   1.732 -0.5097 -0.1670  2.3219
 5047TIP3   OH236775   1.363   5.626   6.881  0.3039  0.3598  0.2086
 5047TIP3    H136776   1.284   5.599   6.832 -0.2576  1.9460  0.1923
 5047TIP3    H236777   1.357   5.577   6.963 -0.0551 -0.4434 -0.2745
 5048TIP3   OH236778   6.189   0.880   1.246 -0.0234 -0.7911 -0.1348
 5048TIP3    H136779   6.203   0.885   1.152  1.2577  0.9777  0.0941
 5048TIP3    H236780   6.240   0.953   1.282 -0.1028 -1.6956  1.9740
 5049TIP3   OH236781   5.601   1.790   0.113  0.2346 -0.0453  0.5562
 5049TIP3    H136782   5.626   1.710   0.159  1.0895  0.7760  1.5864
 5049TIP3    H236783   5.676   1.848   0.124 -0.5531  1.0712  0.2416
 5050TIP3   OH236784   4.328   3.836   0.464  0.4397 -0.2721  1.0406
 5050TIP3    H136785   4.340   3.756   0.515  3.6287 -1.4197 -1.2267
 5050TIP3    H236786   4.276   3.809   0.388  2.0938 -0.4333 -0.0791
 5051TIP3   OH236787   6.611   2.899   0.844  0.5215 -0.5164  0.1728
 5051TIP3    H136788   6.571   2.813   0.856  1.7500 -1.0259  0.7197
 5051TIP3    H236789   6.537   2.960   0.846 -0.2393 -1.4328  1.0546
 5052TIP3   OH236790   2.711   6.771   0.147 -0.0667  0.1037  0.1237
 5052TIP3    H136791   2.760   6.783   0.066  0.4977  0.0463  0.4470
 5052TIP3    H236792   2.676   6.682   0.142 -1.6046  0.7355 -0.8792
 5053TIP3   OH236793   6.236   0.585   0.664  0.1153  0.3299 -0.1723
 5053TIP3    H136794   6.276   0.634   0.592 -0.3629  1.1845  0.1387
 5053TIP3    H236795   6.192   0.651   0.717  0.7391 -0.2546  1.1030
 5054TIP3   OH236796   4.448   3.763   8.253 -0.2857 -0.1374 -0.5189
 5054TIP3    H136797   4.530   3.806   8.278 -1.4831  1.5653  0.6746
 5054TIP3    H236798   4.407   3.823   8.190 -1.6766  0.2166  0.6666
 5055TIP3   OH236799   4.773   3.821   0.935  0.4036 -0.2820  0.6248
 5055TIP3    H136800   4.860   3.860   0.927  0.0559  0.2329 -0.9278
 5055TIP3    H236801   4.787   3.728   0.918  0.2409  0.2479 -3.4258
 5056TIP3   OH236802   1.700   6.040   7.577  0.1637  0.2065 -0.4558
 5056TIP3    H136803   1.722   6.132   7.591 -2.1326  0.7661 -0.1807
 5056TIP3    H236804   1.638   6.019   7.647  0.6883 -1.5867 -0.4664
 5057TIP3   OH236805   4.078   3.225   2.614  0.1620  0.1486 -0.6439
 5057TIP3    H136806   3.997   3.274   2.602 -0.5110 -0.6086  0.6358
 5057TIP3    H236807   4.146   3.293   2.614 -0.7528  1.1378  1.1449
 5058TIP3   OH236808   3.026   0.859   2.460 -0.2089  0.1226 -0.4597
 5058TIP3    H136809   2.944   0.817   2.484 -0.5797 -0.8348 -3.0083
 5058TIP3    H236810   3.008   0.899   2.375  1.5509  1.2192 -0.3644
 5059TIP3   OH236811   3.462   2.544   0.161 -0.4088 -0.1303  0.5575
 5059TIP3    H136812   3.481   2.461   0.203 -2.2717 -2.0116 -1.9579
 5059TIP3    H236813   3.374   2.567   0.192 -1.8345 -1.5771 -2.0480
 5060TIP3   OH236814   2.700   3.998   7.872  0.0647  0.2811 -0.3818
 5060TIP3    H136815   2.735   4.069   7.925 -0.2529 -1.2830  2.0919
 5060TIP3    H236816   2.611   4.027   7.849  1.0399  2.0251 -2.2754
 5061TIP3   OH236817   6.345   5.479   2.003  0.4705  0.2146  0.0020
 5061TIP3    H136818   6.401   5.510   2.075  0.6701  0.2960 -0.1875
 5061TIP3    H236819   6.406   5.450   1.936  0.3138 -1.6478  0.6039
 5062TIP3   OH236820   2.132   2.246   0.056 -0.4152 -0.2001  0.4738
 5062TIP3    H136821   2.200   2.243   0.123 -0.2933 -1.6041  0.3176
 5062TIP3    H236822   2.094   2.334   0.064  0.7139  0.2367  1.2504
 5063TIP3   OH236823   4.241   0.586   0.352  0.1564 -0.3835 -0.8283
 5063TIP3    H136824   4.166   0.641   0.331  0.0264 -0.1301  0.2574
 5063TIP3    H236825   4.312   0.649   0.369 -0.0251 -0.5348  0.5462
 5064TIP3   OH236826   4.550   5.559   0.528  0.5779 -0.1788 -0.9190
 5064TIP3    H136827   4.511   5.496   0.589  0.6080 -0.3064 -1.0299
 5064TIP3    H236828   4.563   5.509   0.447  1.3848 -0.2659 -0.7490
 5065TIP3   OH236829   5.561   3.472   0.992  0.0821  0.7968 -0.5975
 5065TIP3    H136830   5.518   3.392   0.961  0.3075 -0.0484  1.1390
 5065TIP3    H236831   5.490   3.533   1.010 -0.1573  0.6350 -0.9932
 5066TIP3   OH236832   6.705   4.309   0.683  0.6384  0.3552 -0.4797
 5066TIP3    H136833   6.702   4.274   0.593 -0.7573  0.2875 -0.4199
 5066TIP3    H236834   6.616   4.299   0.716  1.1492  0.3151  0.9564
 5067TIP3   OH236835   2.662   5.353   0.392 -0.8708 -0.0652 -0.1901
 5067TIP3    H136836   2.626   5.277   0.347  0.2594 -3.3085  3.8017
 5067TIP3    H236837   2.587   5.395   0.433 -1.1484 -1.5721  0.9248
 5068TIP3   OH236838   5.445   5.684   1.441  0.0978  0.2768 -0.1384
 5068TIP3    H136839   5.450   5.750   1.509  1.8527  0.6883 -0.6097
 5068TIP3    H236840   5.375   5.625   1.469  0.8111  0.3863  2.0504
 5069TIP3   OH236841   5.632   1.139   6.374  0.3411  0.6837 -0.0065
 5069TIP3    H136842   5.679   1.219   6.397  0.5857  0.0423  1.9371
 5069TIP3    H236843   5.698   1.070   6.381 -0.5933 -0.0990  1.7424
 5070TIP3   OH236844   2.007   5.742   1.145  0.1582 -0.4792  0.2894
 5070TIP3    H136845   1.918   5.724   1.116  0.1677  0.0590 -0.1066
 5070TIP3    H236846   2.009   5.837   1.157  0.7491 -0.4527  0.0363
 5071TIP3   OH236847   3.604   0.948   0.394 -0.5619  0.2006  0.1007
 5071TIP3    H136848   3.620   1.043   0.390 -0.4718  0.2941  2.0441
 5071TIP3    H236849   3.511   0.941   0.416 -1.1552 -0.2384 -2.2799
 5072TIP3   OH236850   4.044   5.473   1.888 -0.1933  0.1751  0.3927
 5072TIP3    H136851   4.025   5.447   1.798  2.6640 -0.5402 -0.1201
 5072TIP3    H236852   4.049   5.390   1.936 -0.6189  0.4739  0.9657
 5073TIP3   OH236853   0.209   3.526   1.634 -0.6106  0.2600 -0.3620
 5073TIP3    H136854   0.158   3.571   1.702  0.5712  0.5557  0.3518
 5073TIP3    H236855   0.148   3.462   1.597 -0.9176 -0.9282  1.9736
 5074TIP3   OH236856   4.314   5.343   0.279 -0.5667  0.5226  0.0233
 5074TIP3    H136857   4.230   5.368   0.240 -0.7728  1.9073  1.2523
 5074TIP3    H236858   4.378   5.403   0.239 -0.1963 -0.3106 -0.6668
 5075TIP3   OH236859   1.707   1.609   2.370 -0.5020 -0.2563  0.0427
 5075TIP3    H136860   1.747   1.524   2.352 -2.2350 -1.5496  1.8608
 5075TIP3    H236861   1.745   1.637   2.453  0.5699  1.1400 -0.8739
 5076TIP3   OH236862   5.030   5.431   7.432 -0.2701 -0.0760 -0.0597
 5076TIP3    H136863   5.015   5.511   7.382  0.3431  0.4438  0.5758
 5076TIP3    H236864   5.072   5.371   7.370  1.0901  0.7871 -0.0057
 5077TIP3   OH236865   6.693   0.821   7.132  0.2676  0.0740  0.5909
 5077TIP3    H136866   6.662   0.869   7.209 -0.6693  1.2708 -0.4835
 5077TIP3    H236867   6.617   0.819   7.074  0.5398 -2.0143  0.2294
 5078TIP3   OH236868   4.004   6.141   1.547 -0.1512  0.5133  0.2368
 5078TIP3    H136869   4.009   6.064   1.491  0.1067  0.4813  0.3041
 5078TIP3    H236870   3.959   6.109   1.626  1.9035 -0.1402  1.2092
 5079TIP3   OH236871   5.070   2.908   0.037 -0.0541 -0.0546  0.0284
 5079TIP3    H136872   4.980   2.879   0.023 -0.5093  1.3057 -0.0298
 5079TIP3    H236873   5.106   2.919  -0.052  0.2112 -0.6938  0.0525
 5080TIP3   OH236874   3.163   6.751   1.187 -0.6437  0.3282 -0.1119
 5080TIP3    H136875   3.226   6.788   1.125 -0.1458  1.3237  0.9449
 5080TIP3    H236876   3.081   6.745   1.137  0.5393 -2.3592 -1.9610
 5081TIP3   OH236877   4.320   0.462   2.558  0.4877  0.1023  0.4091
 5081TIP3    H136878   4.364   0.545   2.543  0.9365 -0.1405  0.3471
 5081TIP3    H236879   4.259   0.479   2.629 -1.2397  1.1140 -1.2363
 5082TIP3   OH236880   1.127   2.634   8.485 -0.0805 -0.5985  0.7549
 5082TIP3    H136881   1.164   2.642   8.397  0.4479 -3.1201  0.6706
 5082TIP3    H236882   1.032   2.630   8.471  0.0493 -2.2735  0.1202
 5083TIP3   OH236883   5.819   6.917   2.565  0.2535  0.4345 -0.3161
 5083TIP3    H136884   5.892   6.956   2.614  0.4026  0.9064 -0.8984
 5083TIP3    H236885   5.745   6.920   2.625  0.3308  1.3754 -0.2436
 5084TIP3   OH236886   6.889   5.311   1.306  0.2985 -0.6072 -0.3772
 5084TIP3    H136887   6.931   5.228   1.287 -0.2036 -1.2085  1.0282
 5084TIP3    H236888   6.961   5.373   1.315  0.7846 -1.2420  0.1973
 5085TIP3   OH236889   5.788   4.519   7.747  0.0707  0.8118 -0.3728
 5085TIP3    H136890   5.867   4.554   7.788 -0.8868  0.9571  1.4995
 5085TIP3    H236891   5.770   4.578   7.674  0.1243  2.5109  0.9230
 5086TIP3   OH236892   5.979   0.091   1.479  0.2946  0.3064 -0.5061
 5086TIP3    H136893   5.895   0.083   1.524 -0.5190 -0.4869 -2.0770
 5086TIP3    H236894   6.019   0.004   1.488  1.2740  0.8606  0.7833
 5087TIP3   OH236895   4.522   3.222   8.207 -0.5697  0.0055  0.7107
 5087TIP3    H136896   4.612   3.245   8.232 -0.8330 -0.2375  1.9266
 5087TIP3    H236897   4.527   3.208   8.112  0.3646  1.4200  0.5135
 5088TIP3   OH236898   6.416   1.152   2.098 -0.0388  0.5378 -1.0909
 5088TIP3    H136899   6.505   1.164   2.066 -0.3722  0.6695 -2.0050
 5088TIP3    H236900   6.377   1.090   2.037 -0.4424  0.1231 -0.4313
 5089TIP3   OH236901   2.338   1.113   7.740  0.2029  0.4623  0.2221
 5089TIP3    H136902   2.404   1.177   7.766  2.1873 -1.6559  0.7551
 5089TIP3    H236903   2.289   1.096   7.820  0.1252  0.8195  0.2500
 5090TIP3   OH236904   1.048   1.952   0.687  0.2976 -0.5876  0.1692
 5090TIP3    H136905   1.108   2.027   0.689  0.2902 -0.6041  1.1140
 5090TIP3    H236906   0.974   1.983   0.633  0.2879  0.0920  0.5577
 5091TIP3   OH236907   5.425   2.818   2.272 -0.0460  0.2224 -0.5558
 5091TIP3    H136908   5.375   2.874   2.332  1.1978  2.3440 -1.3934
 5091TIP3    H236909   5.394   2.841   2.185 -1.2111 -2.2093 -0.8676
 5092TIP3   OH236910   2.686   0.015   8.327 -0.2424  0.2362  0.3365
 5092TIP3    H136911   2.765   0.001   8.379 -0.0497 -1.4957 -0.3421
 5092TIP3    H236912   2.628  -0.057   8.352 -0.6567  0.1200 -0.8785
 5093TIP3   OH236913   3.423   4.269   1.539  0.2932 -0.2855  0.1378
 5093TIP3    H136914   3.332   4.294   1.525  0.6025  0.8826  0.1595
 5093TIP3    H236915   3.470   4.351   1.548  1.5636 -0.8293 -1.0851
 5094TIP3   OH236916   4.354   2.831   6.541 -0.0429  0.0616  0.1813
 5094TIP3    H136917   4.342   2.809   6.633  1.9635  1.5128  0.8688
 5094TIP3    H236918   4.290   2.900   6.524  0.3688  0.6333  0.8764
 5095TIP3   OH236919   1.512   1.762   0.448  0.5511  0.3525 -0.5707
 5095TIP3    H136920   1.503   1.811   0.529  1.2015  1.2971 -1.0530
 5095TIP3    H236921   1.512   1.670   0.475  1.7074  0.6676  0.5889
 5096TIP3   OH236922   6.837   3.160   0.319 -0.2319 -0.4767  0.3593
 5096TIP3    H136923   6.781   3.101   0.370  0.0749 -1.5005 -0.4525
 5096TIP3    H236924   6.818   3.138   0.228  1.0307 -0.4167  0.0587
 5097TIP3   OH236925   6.421   6.904   1.525 -0.0587  0.1626  0.1080
 5097TIP3    H136926   6.420   6.933   1.616 -1.8467  0.2101  0.1000
 5097TIP3    H236927   6.383   6.816   1.528 -0.6256  0.3778 -0.6528
 5098TIP3   OH236928   0.719   4.634   6.983  0.1473 -0.0022  0.0614
 5098TIP3    H136929   0.630   4.667   6.999  0.4011  0.7240  0.0159
 5098TIP3    H236930   0.776   4.699   7.023  0.6582 -0.6931  0.4890
 5099TIP3   OH236931   1.347   0.024   0.068 -0.2578  0.2043  0.5756
 5099TIP3    H136932   1.312   0.100   0.114 -0.3741  0.2181  0.4654
 5099TIP3    H236933   1.318  -0.052   0.119  0.7213  0.2706  1.2709
 5100TIP3   OH236934   2.039   5.935   7.097  0.4930 -0.7943  0.0792
 5100TIP3    H136935   2.104   5.926   7.027  1.0303 -0.5341  0.5386
 5100TIP3    H236936   2.036   6.029   7.115  1.2835 -0.9776  1.2580
 5101TIP3   OH236937   1.838   5.496   7.399  0.1527  0.1783  0.0361
 5101TIP3    H136938   1.852   5.477   7.492 -0.3499 -0.9886 -0.0977
 5101TIP3    H236939   1.743   5.503   7.390  0.2613  1.8206 -0.1380
 5102TIP3   OH236940   4.037   5.671   1.584  0.2555 -0.4092 -0.6050
 5102TIP3    H136941   4.061   5.763   1.575 -1.8130  0.3749  1.0196
 5102TIP3    H236942   4.112   5.622   1.549  2.7171  1.8269  1.2233
 5103TIP3   OH236943   4.410   1.223   8.429 -0.3247 -0.1569 -0.1741
 5103TIP3    H136944   4.451   1.153   8.480 -0.8713  0.8359  1.7462
 5103TIP3    H236945   4.337   1.180   8.384  0.7064 -1.2421 -0.8662
 5104TIP3   OH236946   3.503   4.519   1.578 -0.5238 -0.8045  0.7955
 5104TIP3    H136947   3.471   4.561   1.658  1.8761 -0.5404  1.6763
 5104TIP3    H236948   3.571   4.577   1.545  0.0410 -1.9948 -0.2270
 5105TIP3   OH236949   0.678   2.867   6.698 -0.6603  0.2581 -0.3703
 5105TIP3    H136950   0.613   2.894   6.762 -1.2052  1.3837 -1.3658
 5105TIP3    H236951   0.632   2.804   6.642  0.0233 -1.2790  0.7364
 5106TIP3   OH236952   0.216   6.664   2.419 -0.3787  0.5270  0.5722
 5106TIP3    H136953   0.294   6.608   2.416 -0.7866 -0.0026 -1.0427
 5106TIP3    H236954   0.250   6.752   2.401 -0.1533  0.2778 -0.2856
 5107TIP3   OH236955   5.197   3.269   1.335 -0.0660  0.3490  0.4657
 5107TIP3    H136956   5.142   3.317   1.397  0.7457  0.7420  0.8943
 5107TIP3    H236957   5.179   3.309   1.250 -0.0927  0.7849  0.6751
 5108TIP3   OH236958   0.972   6.576   1.472 -0.5087 -0.1243 -0.5217
 5108TIP3    H136959   0.954   6.482   1.467 -0.6332 -0.1420  0.1730
 5108TIP3    H236960   1.059   6.586   1.434 -0.5476 -0.5003 -0.7159
 5109TIP3   OH236961   6.256   4.441   0.890  0.4556  0.1430 -0.2468
 5109TIP3    H136962   6.211   4.498   0.828 -0.2356 -0.2254 -0.0908
 5109TIP3    H236963   6.349   4.455   0.872  0.3060  1.4056 -0.1349
 5110TIP3   OH236964   2.729   5.180   7.842 -0.1509 -0.5132  0.1450
 5110TIP3    H136965   2.778   5.250   7.799  0.3300 -0.5708  0.5900
 5110TIP3    H236966   2.656   5.163   7.784  0.2563 -0.2959 -0.4406
 5111TIP3   OH236967   3.074   5.101   0.391  0.2078  0.7150  0.2488
 5111TIP3    H136968   3.148   5.055   0.430  1.1545  1.5176 -0.5800
 5111TIP3    H236969   3.005   5.095   0.458  0.9658 -0.1355  0.9803
 5112TIP3   OH236970   4.084   6.778   0.558  0.1172  0.3875  0.1549
 5112TIP3    H136971   4.113   6.795   0.468  1.7725  0.1599  0.6135
 5112TIP3    H236972   3.993   6.748   0.548  0.1957  0.5588 -1.4150
 5113TIP3   OH236973   4.238   1.941   2.691  0.2067 -0.7470 -0.0352
 5113TIP3    H136974   4.230   1.877   2.620 -1.3260 -1.2552  0.5422
 5113TIP3    H236975   4.324   1.980   2.679  0.4856 -1.7135 -1.4218
 5114TIP3   OH236976   1.268   6.488   7.940 -0.0458 -0.7365  0.2529
 5114TIP3    H136977   1.180   6.491   7.978  0.1324  0.7377  0.6414
 5114TIP3    H236978   1.261   6.431   7.864 -1.3358 -0.6397  0.2885
 5115TIP3   OH236979   1.133   4.271   0.789 -0.0346 -0.0542  0.1523
 5115TIP3    H136980   1.046   4.284   0.751  0.2463 -0.6706 -0.7463
 5115TIP3    H236981   1.121   4.203   0.854 -0.3365  0.3009  0.4718
 5116TIP3   OH236982   5.903   1.302   0.451  0.1184  0.3571  1.0854
 5116TIP3    H136983   5.958   1.318   0.374 -1.0404  0.0382  0.1714
 5116TIP3    H236984   5.935   1.365   0.516  1.3448  0.4013  0.4708
 5117TIP3   OH236985   4.037   1.654   1.341  0.0194  0.2332  0.5375
 5117TIP3    H136986   4.113   1.704   1.310 -0.3197  0.1304 -0.4842
 5117TIP3    H236987   3.975   1.656   1.268 -1.2523  0.8655  1.5835
 5118TIP3   OH236988   1.289   5.935   7.926 -0.3404 -0.1341  0.7765
 5118TIP3    H136989   1.374   5.892   7.936 -0.3806 -0.1844  0.9045
 5118TIP3    H236990   1.226   5.871   7.959 -0.4298 -0.1028  0.6680
 5119TIP3   OH236991   3.573   6.237   2.479  0.5770  0.7288 -0.7297
 5119TIP3    H136992   3.508   6.171   2.455 -1.0863  1.0008  2.4571
 5119TIP3    H236993   3.555   6.311   2.421 -1.2652  0.3769 -0.6569
 5120TIP3   OH236994   2.251   3.435   8.482 -0.2442  0.6290 -0.4268
 5120TIP3    H136995   2.159   3.416   8.461 -0.1500  1.1384 -1.3495
 5120TIP3    H236996   2.279   3.495   8.413  0.5490  1.1214  0.3198
 5121TIP3   OH236997   5.920   5.793   8.012  0.1155  0.3912  0.2371
 5121TIP3    H136998   5.881   5.722   8.062 -0.2394  0.5993  0.2650
 5121TIP3    H236999   6.005   5.809   8.053  0.2687 -0.1276  0.1221
 5122TIP3   OH237000   6.582   3.497   7.411 -0.1189 -0.4024 -0.8936
 5122TIP3    H137001   6.552   3.482   7.500 -2.6953 -1.9022 -1.9024
 5122TIP3    H237002   6.672   3.528   7.421 -0.2998 -0.5578  2.1886
 5123TIP3   OH237003   6.116   4.692   1.132  0.1028 -0.0687  0.0365
 5123TIP3    H137004   6.203   4.653   1.124  0.1811  0.1082  0.0248
 5123TIP3    H237005   6.056   4.619   1.114  0.2463 -0.2063  0.1086
 5124TIP3   OH237006   5.530   5.247   6.642 -0.0766 -0.0244  0.0388
 5124TIP3    H137007   5.477   5.212   6.571  0.6670  1.1078 -1.1248
 5124TIP3    H237008   5.497   5.336   6.656 -0.9207 -0.5704  1.8807
 5125TIP3   OH237009   2.089   3.597   7.696  0.2389 -0.0690  0.1993
 5125TIP3    H137010   2.127   3.509   7.700  0.8156  0.0114 -1.9935
 5125TIP3    H237011   2.158   3.654   7.729  0.2353 -0.3498  0.7005
 5126TIP3   OH237012   3.548   5.554   0.355 -0.5176 -0.0339 -0.0525
 5126TIP3    H137013   3.575   5.462   0.354 -1.4748 -0.3192 -0.6727
 5126TIP3    H237014   3.555   5.582   0.264  1.7994  1.1580  0.4062
 5127TIP3   OH237015   3.430   6.898   0.181  0.1615 -0.2766  0.1739
 5127TIP3    H137016   3.468   6.958   0.246  1.4176  0.3706 -1.1137
 5127TIP3    H237017   3.448   6.811   0.217  0.2666  0.0705  0.9973
 5128TIP3   OH237018   3.394   0.416   7.134  0.5501  0.0759  0.4286
 5128TIP3    H137019   3.307   0.452   7.115 -0.2739 -0.4999  2.6775
 5128TIP3    H237020   3.420   0.371   7.054 -0.5777  1.4353 -0.7672
 5129TIP3   OH237021   3.750   0.867   7.544  0.5170  0.5076 -0.2024
 5129TIP3    H137022   3.715   0.861   7.454  0.1768 -0.6531 -0.0153
 5129TIP3    H237023   3.709   0.793   7.590  1.9383  0.1154  0.4834
 5130TIP3   OH237024   0.586   1.916   6.906  0.5102  0.0839 -0.3890
 5130TIP3    H137025   0.636   1.926   6.825  2.9898  1.1648  1.1523
 5130TIP3    H237026   0.619   1.835   6.944 -1.9401 -1.3941 -1.2175
 5131TIP3   OH237027   4.978   0.080   7.396 -0.5539 -0.2292 -0.1821
 5131TIP3    H137028   4.890   0.073   7.433 -0.7024 -1.6359 -0.7366
 5131TIP3    H237029   4.982   0.009   7.331  0.8016  0.1631 -0.5493
 5132TIP3   OH237030   0.042   4.823   0.703 -0.1175 -0.3198 -0.1463
 5132TIP3    H137031   0.065   4.770   0.780 -1.3844 -0.0172  0.4660
 5132TIP3    H237032   0.055   4.763   0.629  0.9728 -0.6629  0.3011
 5133TIP3   OH237033   2.673   0.659   7.626 -0.0015 -0.1094 -0.5120
 5133TIP3    H137034   2.611   0.712   7.576  1.4880 -2.0965 -4.9962
 5133TIP3    H237035   2.649   0.569   7.604  0.7947 -1.2035  2.6025
 5134TIP3   OH237036   4.393   3.391   7.120 -0.3845  0.3718  0.1496
 5134TIP3    H137037   4.336   3.374   7.044 -1.1248  1.1724  0.5120
 5134TIP3    H237038   4.482   3.376   7.087 -0.7324  0.1400 -0.7143
 5135TIP3   OH237039   2.612   3.914   1.694 -0.2310  0.2160  0.5631
 5135TIP3    H137040   2.536   3.869   1.732 -0.6133  2.3208  2.6058
 5135TIP3    H237041   2.659   3.847   1.646 -1.1401 -2.1441  2.7564
 5136TIP3   OH237042   5.892   3.680   0.394 -0.2893  0.2488 -0.1238
 5136TIP3    H137043   5.907   3.733   0.472 -0.2369 -1.8023  1.3521
 5136TIP3    H237044   5.979   3.648   0.370 -0.5868 -1.1420  0.5427
 5137TIP3   OH237045   3.482   6.848   1.890 -0.4086 -0.0655 -0.0266
 5137TIP3    H137046   3.409   6.798   1.852  1.0655 -2.0115 -0.4266
 5137TIP3    H237047   3.464   6.847   1.984 -0.4537 -1.3353 -0.0250
 5138TIP3   OH237048   0.463   1.354   7.004 -0.9613 -0.3594 -0.1435
 5138TIP3    H137049   0.482   1.310   7.086  2.6220 -1.2943 -1.2920
 5138TIP3    H237050   0.402   1.295   6.959 -1.0349 -1.0606  0.8435
 5139TIP3   OH237051   1.276   1.258   1.755 -0.4711 -0.5942  0.0292
 5139TIP3    H137052   1.268   1.351   1.739  0.3784 -0.8762 -2.4277
 5139TIP3    H237053   1.368   1.238   1.736 -1.2193 -2.3308 -2.2591
 5140TIP3   OH237054   5.441   5.570   2.686  0.0225 -0.0048 -0.0135
 5140TIP3    H137055   5.464   5.565   2.593  0.1143 -1.7392  0.0771
 5140TIP3    H237056   5.518   5.537   2.731  0.5015  2.0544  0.8039
 5141TIP3   OH237057   0.402   0.799   7.684 -0.1344 -0.1831 -0.2644
 5141TIP3    H137058   0.335   0.867   7.686 -0.7963 -0.8120 -0.3066
 5141TIP3    H237059   0.414   0.780   7.591  0.5030  0.3116 -0.2819
 5142TIP3   OH237060   5.425   2.481   1.850  0.3297 -0.0053 -0.5547
 5142TIP3    H137061   5.375   2.476   1.769 -1.4141  1.3858  0.3894
 5142TIP3    H237062   5.390   2.411   1.905 -0.8027  1.0971  0.1836
 5143TIP3   OH237063   1.588   0.680   0.993 -0.4679  0.1048  0.1499
 5143TIP3    H137064   1.655   0.672   1.061 -0.7120 -0.8040  0.2974
 5143TIP3    H237065   1.549   0.593   0.988 -0.5501  0.1998 -1.0621
 5144TIP3   OH237066   6.627   3.666   0.064  0.0040 -0.1329  0.0519
 5144TIP3    H137067   6.683   3.744   0.058  0.2610 -0.3938 -1.2149
 5144TIP3    H237068   6.552   3.685   0.008 -0.6800 -0.2140  0.9132
 5145TIP3   OH237069   5.404   4.155   7.725  0.3849  0.4665  0.1327
 5145TIP3    H137070   5.310   4.166   7.738  0.3947  0.6127  0.0744
 5145TIP3    H237071   5.420   4.187   7.636  0.1986 -1.1663 -0.5341
 5146TIP3   OH237072   2.591   5.469   2.664 -0.0840  0.0127 -0.0135
 5146TIP3    H137073   2.595   5.471   2.759  1.3548 -0.2542 -0.0501
 5146TIP3    H237074   2.617   5.557   2.637  0.2648 -0.1381 -0.1730
 5147TIP3   OH237075   0.616   0.453   1.722  0.5669 -0.0320 -0.3104
 5147TIP3    H137076   0.619   0.402   1.803  1.2143  0.7598  0.1779
 5147TIP3    H237077   0.610   0.544   1.751  2.4145  0.3850 -1.0992
 5148TIP3   OH237078   2.763   2.424   8.042 -1.4076  0.4296  0.2217
 5148TIP3    H137079   2.698   2.478   7.995 -0.9729  2.2926  1.6433
 5148TIP3    H237080   2.804   2.485   8.103  0.7379 -1.0307  0.3266
 5149TIP3   OH237081   1.795   1.678   7.764 -0.5425 -0.5647 -0.7905
 5149TIP3    H137082   1.876   1.660   7.812 -0.3087  1.1933 -0.4858
 5149TIP3    H237083   1.729   1.623   7.808  0.1650 -0.8476 -0.0533
 5150TIP3   OH237084   5.092   5.098   1.046  0.0977  0.7089  0.5603
 5150TIP3    H137085   5.180   5.085   1.008  0.8629  2.0698  1.7859
 5150TIP3    H237086   5.036   5.038   0.996  1.5179  0.5830 -0.9805
 5151TIP3   OH237087   4.171   1.333   7.350  0.3890 -0.2159  0.2256
 5151TIP3    H137088   4.102   1.272   7.374 -0.9389  1.5190  1.0136
 5151TIP3    H237089   4.231   1.282   7.296 -1.9239 -1.6030 -1.1928
 5152TIP3   OH237090   3.611   0.768   2.027 -0.1640  0.4228 -0.0351
 5152TIP3    H137091   3.634   0.731   1.942  1.0307 -0.5347  0.6633
 5152TIP3    H237092   3.549   0.706   2.064  0.3425  0.1192  0.3250
 5153TIP3   OH237093   4.225   3.374   0.932  0.2177  0.5192  0.5152
 5153TIP3    H137094   4.287   3.344   0.999  0.0995  0.7053  0.7089
 5153TIP3    H237095   4.245   3.320   0.855 -1.6766 -1.9792  1.5997
 5154TIP3   OH237096   1.377   4.660   7.424 -0.7687 -0.1321 -0.5323
 5154TIP3    H137097   1.282   4.666   7.434 -0.8714  1.6033 -1.9560
 5154TIP3    H237098   1.413   4.726   7.484 -0.7018  1.4721 -2.2418
 5155TIP3   OH237099   2.583   5.976   1.087 -0.0131  0.0053  0.1357
 5155TIP3    H137100   2.610   5.889   1.059  0.7696  0.3332 -0.1480
 5155TIP3    H237101   2.660   6.013   1.129 -0.7606  0.0273  1.5673
 5156TIP3   OH237102   2.389   0.925   1.656 -0.0015  0.6479  0.7712
 5156TIP3    H137103   2.296   0.940   1.639  0.0560 -1.0235 -1.4699
 5156TIP3    H237104   2.417   0.865   1.587  2.1064 -1.1285  2.9617
 5157TIP3   OH237105   2.143   4.178   0.063  0.1062  0.5255 -0.1192
 5157TIP3    H137106   2.224   4.220   0.032  0.5641  0.6982  1.2597
 5157TIP3    H237107   2.081   4.250   0.075  0.5250  0.7005  1.1278
 5158TIP3   OH237108   4.729   2.836   1.825 -0.4438 -0.4356  0.4196
 5158TIP3    H137109   4.690   2.831   1.912 -1.0691 -0.9807  0.1109
 5158TIP3    H237110   4.748   2.929   1.813 -1.8637 -0.1090  0.4865
 5159TIP3   OH237111   6.206   1.228   2.851  0.2458 -0.1445 -0.1919
 5159TIP3    H137112   6.204   1.309   2.902 -0.2402 -0.8239  0.9005
 5159TIP3    H237113   6.271   1.173   2.895 -0.0123 -0.6573 -0.4446
 5160TIP3   OH237114   5.861   3.919   6.182  0.0831  0.1134  0.1469
 5160TIP3    H137115   5.920   3.896   6.254  1.7348 -2.1233 -1.7371
 5160TIP3    H237116   5.913   3.978   6.127  0.2114 -0.9498 -0.9284
 5161TIP3   OH237117   1.763   1.380   6.707 -0.5711  0.0406  0.1578
 5161TIP3    H137118   1.681   1.414   6.743  0.5515  1.0919  1.8998
 5161TIP3    H237119   1.774   1.295   6.750 -1.3605 -0.7127 -1.0797
 5162TIP3   OH237120   1.248   6.170   0.021  0.1567 -0.2639 -0.3029
 5162TIP3    H137121   1.232   6.079  -0.003 -0.6738 -0.3830  0.6499
 5162TIP3    H237122   1.227   6.175   0.114  1.8894  0.5045  0.1069
 5163TIP3   OH237123   1.222   1.011   1.456 -0.2885  0.5338 -0.2918
 5163TIP3    H137124   1.175   0.943   1.503 -0.0281  0.7076  0.2255
 5163TIP3    H237125   1.156   1.052   1.400 -0.5180  0.0829 -0.3519
 5164TIP3   OH237126   6.011   5.622   0.903 -0.1831 -0.3149  0.1622
 5164TIP3    H137127   5.975   5.699   0.857 -0.4694  0.1012  1.0662
 5164TIP3    H237128   5.967   5.547   0.862 -0.8518  0.0873  0.1278
 5165TIP3   OH237129   3.979   0.652   8.280  0.2110  0.1747 -0.4510
 5165TIP3    H137130   4.072   0.666   8.263  0.3289  4.2794  2.2426
 5165TIP3    H237131   3.936   0.728   8.240 -1.6831 -0.3990  0.3916
 5166TIP3   OH237132   1.273   4.110   1.309  0.1329  0.6253  0.3032
 5166TIP3    H137133   1.250   4.152   1.227 -1.1498 -1.4489 -0.4772
 5166TIP3    H237134   1.234   4.167   1.376 -0.4108  1.3630 -0.6063
 5167TIP3   OH237135   1.195   2.615   2.522  0.2017 -0.3853 -0.1895
 5167TIP3    H137136   1.253   2.539   2.516  0.6109 -0.0195 -1.0647
 5167TIP3    H237137   1.114   2.581   2.559  1.2754 -0.7461  2.0342
 5168TIP3   OH237138   3.501   6.308   7.879 -0.3153  0.1614 -0.0576
 5168TIP3    H137139   3.485   6.214   7.891  0.4382 -0.1410 -1.2047
 5168TIP3    H237140   3.490   6.323   7.786  0.0081  1.1309  0.0451
 5169TIP3   OH237141   0.268   3.752   7.303  0.7791 -0.1361  0.2472
 5169TIP3    H137142   0.265   3.847   7.294  1.4144 -0.1284  0.0284
 5169TIP3    H237143   0.343   3.736   7.360  1.3109 -0.5475 -0.5501
 5170TIP3   OH237144   0.527   4.228   7.696  0.7050  0.2701 -0.6665
 5170TIP3    H137145   0.432   4.239   7.687  0.8633  0.7452 -1.9272
 5170TIP3    H237146   0.560   4.316   7.715  0.9720  0.2391 -0.9868
 5171TIP3   OH237147   5.702   2.117   0.138 -0.0630 -0.5850 -0.2096
 5171TIP3    H137148   5.665   2.130   0.226 -2.2602 -0.1189 -1.1522
 5171TIP3    H237149   5.768   2.049   0.150  0.2744  0.0459  1.9428
 5172TIP3   OH237150   5.248   1.931   1.664  0.6113  0.4482  0.3599
 5172TIP3    H137151   5.283   1.932   1.575 -0.7316 -0.5665 -0.2218
 5172TIP3    H237152   5.307   1.873   1.712  0.9850  0.5042 -0.0272
 5173TIP3   OH237153   3.259   6.694   1.817 -0.1848 -0.0682 -0.0199
 5173TIP3    H137154   3.166   6.683   1.796 -0.9372  0.9723  2.3558
 5173TIP3    H237155   3.278   6.624   1.879  1.1905 -1.4178 -1.8721
 5174TIP3   OH237156   4.659   1.937   2.063  0.8607  0.7506  0.0969
 5174TIP3    H137157   4.724   1.979   2.006  0.7730  0.1935 -0.4228
 5174TIP3    H237158   4.664   1.844   2.042 -0.2862  0.7253 -0.1599
 5175TIP3   OH237159   3.239   2.042   2.360 -0.2265  0.0437  0.4233
 5175TIP3    H137160   3.286   1.977   2.307 -0.6777  0.5574 -0.6470
 5175TIP3    H237161   3.225   1.999   2.444  0.1285 -0.9643 -0.0191
 5176TIP3   OH237162   2.461   1.609   2.106 -1.0200 -0.0872  0.7464
 5176TIP3    H137163   2.484   1.531   2.157 -0.4655 -0.7633 -0.5035
 5176TIP3    H237164   2.531   1.671   2.124  0.1374 -0.9717 -0.5310
 5177TIP3   OH237165   5.152   5.634   2.050 -0.9971 -0.3575 -0.0050
 5177TIP3    H137166   5.087   5.626   2.120  0.4417 -0.4007  1.3982
 5177TIP3    H237167   5.201   5.552   2.053 -0.4796 -0.0846 -0.6206
 5178TIP3   OH237168   1.775   2.034   7.942  0.1663 -0.8004  0.4376
 5178TIP3    H137169   1.766   2.057   8.034  0.6477  1.0138  0.0809
 5178TIP3    H237170   1.860   1.990   7.936  0.8114  0.3708  0.6613
 5179TIP3   OH237171   5.027   4.778   1.253 -0.0169 -0.1393  0.9241
 5179TIP3    H137172   5.118   4.802   1.265 -0.2520  1.7042 -0.5058
 5179TIP3    H237173   5.002   4.816   1.169 -1.8846 -1.3114  0.8677
 5180TIP3   OH237174   1.659   3.086   1.020 -0.0195 -0.3824  0.1717
 5180TIP3    H137175   1.682   3.006   0.973  0.4569 -0.3862  0.4019
 5180TIP3    H237176   1.591   3.059   1.081  1.4982 -1.0851  1.6501
 5181TIP3   OH237177   6.426   1.772   2.509  0.7346 -0.0641  0.3802
 5181TIP3    H137178   6.380   1.854   2.490  0.9360  0.1116  0.6306
 5181TIP3    H237179   6.424   1.766   2.605  0.4271 -0.5240  0.3464
 5182TIP3   OH237180   6.402   3.955   6.970  0.6413 -0.3728  0.0248
 5182TIP3    H137181   6.375   3.967   7.061 -1.0996 -0.0695 -0.5051
 5182TIP3    H237182   6.498   3.959   6.973  0.5801  1.0182  1.6536
 5183TIP3   OH237183   0.502   5.204   7.510  0.1688  0.2615  0.4597
 5183TIP3    H137184   0.508   5.111   7.491  0.5439  0.3531  0.1279
 5183TIP3    H237185   0.413   5.216   7.545 -0.5916  0.1000 -1.3051
 5184TIP3   OH237186   2.544   6.862   6.939 -0.4824 -0.0283 -0.1956
 5184TIP3    H137187   2.468   6.818   6.901 -0.7829 -1.1140  1.5149
 5184TIP3    H237188   2.619   6.830   6.889 -1.1026  0.8401 -1.7224
 5185TIP3   OH237189   6.228   3.842   1.993 -0.7342 -0.3031 -0.3460
 5185TIP3    H137190   6.163   3.888   2.047  1.3213 -0.9846  2.9616
 5185TIP3    H237191   6.237   3.756   2.034  3.2308  0.2578  0.3592
 5186TIP3   OH237192   6.239   5.044   7.589 -0.2622 -0.1082 -0.0077
 5186TIP3    H137193   6.176   5.033   7.518 -0.7574 -0.1923  0.4345
 5186TIP3    H237194   6.246   5.138   7.602 -0.1056 -0.0902 -0.2250
 5187TIP3   OH237195   0.951   0.999   0.656 -0.0277  0.3981  0.5462
 5187TIP3    H137196   0.969   0.937   0.585 -1.2249  0.1845  0.4084
 5187TIP3    H237197   1.027   1.058   0.656 -0.6582  1.3430 -1.9350
 5188TIP3   OH237198   3.221   2.023   0.311  0.1711 -0.4068  1.0649
 5188TIP3    H137199   3.255   2.056   0.228 -1.9579 -0.8600 -0.0521
 5188TIP3    H237200   3.299   1.999   0.361  1.5510  0.9439 -0.3223
 5189TIP3   OH237201   6.513   4.355   1.142  0.1958 -0.1291 -0.1299
 5189TIP3    H137202   6.518   4.405   1.060  0.3594 -2.1070 -1.4021
 5189TIP3    H237203   6.578   4.286   1.131 -0.2271 -0.8082  1.4318
 5190TIP3   OH237204   0.227   4.321   0.054  0.3077  0.0860 -0.2161
 5190TIP3    H137205   0.319   4.293   0.056  0.2092 -0.2088  1.6280
 5190TIP3    H237206   0.230   4.410   0.021  1.1358 -0.3157 -1.2889
 5191TIP3   OH237207   2.884   5.387   8.109  0.5455 -0.4903 -0.2234
 5191TIP3    H137208   2.946   5.340   8.054  1.0027  1.6195 -1.6178
 5191TIP3    H237209   2.823   5.426   8.047 -0.2541  0.1419  0.9371
 5192TIP3   OH237210   4.094   4.993   8.536 -0.1731 -0.1589 -0.0981
 5192TIP3    H137211   4.167   4.984   8.474 -0.9601 -1.5817 -0.8740
 5192TIP3    H237212   4.123   4.946   8.614  0.9381  1.8775  0.7985
 5193TIP3   OH237213   6.194   3.508   7.409 -0.0178  0.2215 -0.1236
 5193TIP3    H137214   6.210   3.579   7.347  2.2536 -1.1265 -1.1841
 5193TIP3    H237215   6.099   3.511   7.424 -0.0619  3.1448 -0.4714
 5194TIP3   OH237216   6.323   2.788   1.845  0.3971 -0.0307  0.0041
 5194TIP3    H137217   6.271   2.859   1.808  0.5657 -0.1958 -0.5572
 5194TIP3    H237218   6.349   2.820   1.931  0.2479  0.4762 -0.1346
 5195TIP3   OH237219   2.040   6.430   0.446 -0.2831 -0.3211 -0.1358
 5195TIP3    H137220   2.101   6.448   0.518  1.2784 -0.9318 -1.2551
 5195TIP3    H237221   2.065   6.492   0.378 -0.7493 -0.7534 -0.7027
 5196TIP3   OH237222   0.114   1.962   7.472 -0.0406 -0.7363  0.3119
 5196TIP3    H137223   0.096   1.890   7.411  1.7837 -1.4707  0.5828
 5196TIP3    H237224   0.187   2.010   7.432  1.1934 -1.2314  1.8480
 5197TIP3   OH237225   2.214   2.973   7.143  0.5958 -0.4450  0.0827
 5197TIP3    H137226   2.195   2.967   7.049 -1.3390  0.1845  0.3928
 5197TIP3    H237227   2.146   3.031   7.177  2.1550  0.5346  1.6495
 5198TIP3   OH237228   3.605   5.116   1.044 -0.1994  0.1465  0.1509
 5198TIP3    H137229   3.567   5.039   1.001 -1.0047  0.3033  0.5538
 5198TIP3    H237230   3.531   5.177   1.054  0.8384  1.9535 -2.2073
 5199TIP3   OH237231   6.251   6.012   1.369 -0.3469  0.0949 -0.2507
 5199TIP3    H137232   6.221   6.085   1.314  0.8094  1.4837  0.8943
 5199TIP3    H237233   6.233   5.934   1.317  0.1905  1.3116 -2.3760
 5200TIP3   OH237234   6.717   4.195   0.434  0.4074 -0.1757  0.4204
 5200TIP3    H137235   6.760   4.113   0.460  1.2003  0.2617  0.5472
 5200TIP3    H237236   6.788   4.249   0.399 -0.0037  0.6478  0.8112
 5201TIP3   OH237237   3.080   6.161   7.023 -0.7315 -0.1501  0.3953
 5201TIP3    H137238   3.007   6.223   7.017 -2.1056 -1.6034  1.2087
 5201TIP3    H237239   3.124   6.166   6.938 -0.2822  2.4918  0.7084
 5202TIP3   OH237240   1.862   3.012   6.852  0.1467  0.1688 -0.9254
 5202TIP3    H137241   1.900   2.948   6.912 -2.2529  0.4018  1.0070
 5202TIP3    H237242   1.923   3.085   6.853  0.7198 -0.2927  0.3798
 5203TIP3   OH237243   5.405   5.092   7.246 -0.0035 -0.0310 -0.4259
 5203TIP3    H137244   5.499   5.087   7.229 -0.2797  1.8168 -3.2741
 5203TIP3    H237245   5.398   5.104   7.340  2.5713 -0.6475 -0.0796
 5204TIP3   OH237246   1.726   1.905   2.317 -0.1163 -0.4183  0.6154
 5204TIP3    H137247   1.646   1.958   2.323 -0.2099 -0.5141  0.2430
 5204TIP3    H237248   1.699   1.818   2.346 -0.7278 -1.0490 -1.6451
 5205TIP3   OH237249   3.362   5.398   7.625 -0.3878 -0.8395  0.7787
 5205TIP3    H137250   3.304   5.459   7.672  1.2663 -0.3181  2.2543
 5205TIP3    H237251   3.353   5.315   7.671 -0.5167 -0.9635  0.5348
 5206TIP3   OH237252   2.962   0.832   1.165  0.1336 -0.1355  0.1827
 5206TIP3    H137253   2.956   0.927   1.168 -0.5117 -0.1904  1.9674
 5206TIP3    H237254   2.875   0.801   1.190  0.4110 -1.1943 -0.0873
 5207TIP3   OH237255   3.634   4.504   7.902  0.1203 -0.0230  0.4218
 5207TIP3    H137256   3.643   4.555   7.982  0.4999  1.1695 -0.3501
 5207TIP3    H237257   3.678   4.557   7.835  1.1299 -1.6792 -0.2903
 5208TIP3   OH237258   3.895   3.029   1.488 -0.1591 -0.1688  0.2499
 5208TIP3    H137259   3.873   3.018   1.580 -2.1090 -3.4770 -0.4508
 5208TIP3    H237260   3.823   2.986   1.441  1.5533 -0.0216 -2.7526
 5209TIP3   OH237261   1.141   0.049   0.502 -0.1470 -0.2432 -0.0937
 5209TIP3    H137262   1.142   0.098   0.420 -0.4059  2.8542  1.6223
 5209TIP3    H237263   1.048   0.030   0.518 -0.2112  0.1653  0.0280
 5210TIP3   OH237264   3.385   4.913   1.649 -0.8126  0.3209 -0.0071
 5210TIP3    H137265   3.323   4.940   1.717 -1.3535 -0.2840 -0.2475
 5210TIP3    H237266   3.438   4.845   1.690 -0.8245  0.2867 -0.0490
 5211TIP3   OH237267   3.317   5.244   0.893  0.1510 -0.6181 -0.0035
 5211TIP3    H137268   3.341   5.267   0.983  1.2688 -1.5282 -0.0481
 5211TIP3    H237269   3.222   5.254   0.891  0.3558  2.4287  0.4060
 5212TIP3   OH237270   5.570   0.349   1.598  0.2047  0.4522  0.1857
 5212TIP3    H137271   5.534   0.306   1.675 -1.4559 -0.1829 -0.8854
 5212TIP3    H237272   5.597   0.278   1.541 -0.2682  0.8592 -0.5616
 5213TIP3   OH237273   5.649   0.867   7.478 -0.3316 -0.1622  0.8193
 5213TIP3    H137274   5.624   0.920   7.554 -0.9720  1.6541 -0.5744
 5213TIP3    H237275   5.586   0.893   7.410  1.4451 -0.2178 -0.9137
 5214TIP3   OH237276   3.679   3.091   1.251 -0.0416  0.0992 -0.3055
 5214TIP3    H137277   3.615   3.129   1.312  0.4530  1.1921 -0.4479
 5214TIP3    H237278   3.760   3.139   1.267  0.8833 -1.5304  0.1362
 5215TIP3   OH237279   5.975   1.064   0.613 -0.4515 -0.6743  0.2681
 5215TIP3    H137280   5.890   1.041   0.651 -0.2235  0.0109  1.2133
 5215TIP3    H237281   5.957   1.142   0.560 -0.5937 -1.1135 -0.3478
 5216TIP3   OH237282   1.876   3.801   7.669  1.0889  0.6743 -0.2510
 5216TIP3    H137283   1.842   3.813   7.580  1.0029  1.5180 -0.1126
 5216TIP3    H237284   1.939   3.730   7.661 -1.3930 -1.6832 -0.3425
 5217TIP3   OH237285   4.075   6.229   7.737  0.4939 -0.0710  0.4296
 5217TIP3    H137286   4.010   6.219   7.806 -0.5405 -3.6488 -0.8767
 5217TIP3    H237287   4.026   6.264   7.663  0.8317  0.4215  0.4322
 5218TIP3   OH237288   5.108   1.221   8.271 -0.2576  0.4445  0.1788
 5218TIP3    H137289   5.066   1.171   8.201 -0.7993  0.5515  0.4267
 5218TIP3    H237290   5.201   1.201   8.261 -0.1704  1.4507 -1.3698
 5219TIP3   OH237291   4.441   4.281   8.572  0.2358  0.5177  0.6053
 5219TIP3    H137292   4.515   4.338   8.591 -0.9910  1.9788  1.2124
 5219TIP3    H237293   4.378   4.300   8.642 -0.3418 -1.3864  0.6590
 5220TIP3   OH237294   2.926   2.980   7.512  0.4530 -0.2797 -0.3623
 5220TIP3    H137295   2.940   2.961   7.419 -1.5639 -1.6154 -0.4416
 5220TIP3    H237296   2.983   2.917   7.557  0.6167 -0.3676 -0.6820
 5221TIP3   OH237297   0.999   6.832   0.110 -0.1634  0.2789 -0.2195
 5221TIP3    H137298   0.923   6.867   0.158 -0.6213  1.5319 -1.7706
 5221TIP3    H237299   0.994   6.874   0.024  1.6896 -0.4614 -0.7277
 5222TIP3   OH237300   2.574   6.666   0.780 -0.1889  0.5774 -0.0043
 5222TIP3    H137301   2.580   6.585   0.830 -1.6782 -1.3245 -2.6290
 5222TIP3    H237302   2.489   6.703   0.804 -0.5436  0.0894 -0.4640
 5223TIP3   OH237303   4.706   1.719   8.200 -0.2606 -0.5945 -0.0402
 5223TIP3    H137304   4.743   1.649   8.147  0.5678 -0.7196  0.6738
 5223TIP3    H237305   4.621   1.737   8.161  0.0368 -1.1542 -0.9737
 5224TIP3   OH237306   5.467   4.438   1.669  0.8298 -0.2774  0.6852
 5224TIP3    H137307   5.524   4.373   1.629 -0.2520  0.1581 -1.7323
 5224TIP3    H237308   5.385   4.391   1.686  0.2775  0.2212 -0.4485
 5225TIP3   OH237309   5.558   6.733   1.056 -0.0578 -0.0854 -0.4911
 5225TIP3    H137310   5.518   6.657   1.013  0.8448 -1.5409  1.1279
 5225TIP3    H237311   5.625   6.762   0.994 -0.1336 -0.8896 -0.9722
 5226TIP3   OH237312   3.475   1.186   1.442 -0.1146  0.1212 -0.7029
 5226TIP3    H137313   3.432   1.190   1.356  1.3706 -0.2942 -1.4953
 5226TIP3    H237314   3.478   1.278   1.471  0.8071  0.4921 -1.8646
 5227TIP3   OH237315   4.876   5.402   7.691  0.0235 -0.5429 -0.0042
 5227TIP3    H137316   4.938   5.393   7.619  1.4597  0.8113  0.9967
 5227TIP3    H237317   4.795   5.363   7.658  0.3818  0.7502 -2.6472
 5228TIP3   OH237318   2.405   4.383   7.497 -0.7801 -0.1364  0.1827
 5228TIP3    H137319   2.393   4.368   7.591 -0.3850  2.0271  0.6357
 5228TIP3    H237320   2.500   4.393   7.487 -0.4711 -3.0754 -0.9850
 5229TIP3   OH237321   6.798   2.193   1.646 -0.1713  0.2650  0.3689
 5229TIP3    H137322   6.821   2.158   1.733  0.7580  1.3888  0.6063
 5229TIP3    H237323   6.820   2.123   1.585 -0.5408 -0.4231  1.0112
 5230TIP3   OH237324   2.885   4.471   1.423 -0.0773  0.1697  0.7468
 5230TIP3    H137325   2.899   4.536   1.354  1.3824 -0.2781  0.5819
 5230TIP3    H237326   2.935   4.505   1.497 -0.2574 -0.1935  1.0326
 5231TIP3   OH237327   2.727   1.744   2.863 -0.1903  0.0230  0.1550
 5231TIP3    H137328   2.650   1.690   2.878 -0.2547  0.1758  0.3790
 5231TIP3    H237329   2.801   1.688   2.885 -0.3086  0.5114  1.9275
 5232TIP3   OH237330   0.104   6.269   2.309  0.1318 -1.1757  0.1353
 5232TIP3    H137331   0.066   6.309   2.231  1.1150 -1.4367 -0.4952
 5232TIP3    H237332   0.029   6.249   2.365 -0.5133 -0.1185 -0.3208
 5233TIP3   OH237333   2.867   1.812   1.159  0.7682 -0.0482  0.0083
 5233TIP3    H137334   2.932   1.883   1.158  0.9803 -0.1482 -2.9802
 5233TIP3    H237335   2.783   1.857   1.172  1.1977  0.2951  1.8606
 5234TIP3   OH237336   4.154   1.268   2.796  0.5912  0.1495  0.1769
 5234TIP3    H137337   4.110   1.246   2.714 -0.0510 -0.3053  0.6302
 5234TIP3    H237338   4.119   1.354   2.819 -1.1648 -0.7985  1.2421
 5235TIP3   OH237339   6.513   1.758   8.159  1.0612 -0.0026 -0.2944
 5235TIP3    H137340   6.452   1.783   8.089 -0.0999 -2.3137 -0.2020
 5235TIP3    H237341   6.568   1.835   8.171 -0.7151  1.5729 -1.5953
 5236TIP3   OH237342   4.455   6.098   1.083  0.1512 -0.0165  0.0057
 5236TIP3    H137343   4.418   6.160   1.020 -1.0948  0.5844  1.2598
 5236TIP3    H237344   4.548   6.120   1.087  0.3003 -0.1921 -1.7122
 5237TIP3   OH237345   5.422   3.257   8.342 -0.8199 -0.3572  1.0065
 5237TIP3    H137346   5.389   3.167   8.339 -1.5863 -0.0628  0.4640
 5237TIP3    H237347   5.425   3.285   8.251 -1.6717  0.5453  1.2374
 5238TIP3   OH237348   4.226   5.552   2.161  0.5268 -0.3457 -0.1234
 5238TIP3    H137349   4.138   5.529   2.190  0.7975  0.9441  1.8658
 5238TIP3    H237350   4.219   5.643   2.131  0.9425 -0.6463 -1.2130
 5239TIP3   OH237351   4.506   3.027   1.441 -0.5278 -0.1674  0.5448
 5239TIP3    H137352   4.551   3.102   1.403 -0.4194  0.6681  2.2130
 5239TIP3    H237353   4.561   2.952   1.420  0.9206  0.6402  1.3593
 5240TIP3   OH237354   3.914   3.365   1.674  0.4521 -0.2312  0.1519
 5240TIP3    H137355   3.846   3.418   1.713  0.8647 -0.6875  1.5597
 5240TIP3    H237356   3.895   3.276   1.704  1.9970 -0.2769  1.1257
 5241TIP3   OH237357   4.391   1.670   8.545 -0.0792  0.3636  0.0851
 5241TIP3    H137358   4.477   1.631   8.526  0.4416  1.1329  0.7802
 5241TIP3    H237359   4.346   1.671   8.461  1.0306  0.9749 -0.5225
 5242TIP3   OH237360   2.750   3.154   8.221  0.1185  0.2890 -0.4900
 5242TIP3    H137361   2.723   3.212   8.292  0.5458  0.3954 -0.4142
 5242TIP3    H237362   2.795   3.081   8.265  0.0943  0.1913 -0.6267
 5243TIP3   OH237363   3.376   4.119   7.518 -0.6819  0.3233 -0.0299
 5243TIP3    H137364   3.317   4.155   7.451  1.2802  0.6018 -1.6811
 5243TIP3    H237365   3.404   4.196   7.568 -0.9676  0.3031  0.1686
 5244TIP3   OH237366   4.911   1.038   0.412 -0.2174  0.3543  0.2329
 5244TIP3    H137367   4.833   1.009   0.461 -0.4004  0.8846  0.2598
 5244TIP3    H237368   4.983   1.032   0.475 -0.5416  1.5471  0.7496
 5245TIP3   OH237369   5.476   5.638   0.946  0.4732  0.2503 -0.3936
 5245TIP3    H137370   5.494   5.731   0.941 -0.3280  0.4053 -0.5958
 5245TIP3    H237371   5.470   5.620   1.040 -1.3384  0.8245 -0.3606
 5246TIP3   OH237372   5.855   2.690   0.192  0.1012  0.4808 -0.4703
 5246TIP3    H137373   5.819   2.606   0.162 -1.0167 -0.4198  2.9202
 5246TIP3    H237374   5.813   2.756   0.137 -1.8901 -0.9840 -0.7984
 5247TIP3   OH237375   2.711   3.924   8.518  0.5318 -0.2775  0.1767
 5247TIP3    H137376   2.616   3.920   8.525  0.5323 -0.4600  0.0931
 5247TIP3    H237377   2.742   3.908   8.607  0.4978 -0.8379  0.0926
 5248TIP3   OH237378   2.861   4.091   1.806  0.0275 -0.5273 -0.1305
 5248TIP3    H137379   2.768   4.103   1.822  0.4045 -1.6498  3.9780
 5248TIP3    H237380   2.870   3.998   1.784  0.1376 -0.1365 -1.9357
 5249TIP3   OH237381   2.324   6.791   7.623 -0.1402  0.0894 -0.3229
 5249TIP3    H137382   2.313   6.862   7.561 -2.2491  0.2734  0.1727
 5249TIP3    H237383   2.349   6.715   7.570 -0.7564  0.5202 -1.2399
 5250TIP3   OH237384   2.815   5.958   7.972  0.2064  0.4522  0.2523
 5250TIP3    H137385   2.804   5.931   8.063 -0.4107  1.5358  0.5118
 5250TIP3    H237386   2.896   6.010   7.972 -0.5016  1.5946  0.4701
 5251TIP3   OH237387   0.673   5.854   7.484 -0.3302  0.0117  0.4525
 5251TIP3    H137388   0.583   5.850   7.516  0.1511 -0.8428  1.8128
 5251TIP3    H237389   0.666   5.891   7.396 -1.8546  1.3834  1.0901
 5252TIP3   OH237390   1.317   1.230   7.531 -0.1128 -0.3605 -0.1038
 5252TIP3    H137391   1.378   1.198   7.465 -0.1354  1.0006 -0.8160
 5252TIP3    H237392   1.271   1.303   7.489  1.7883  2.4010  2.2416
 5253TIP3   OH237393   6.306   0.961   1.903  0.4644 -0.3755  0.3151
 5253TIP3    H137394   6.282   0.900   1.833  1.7054 -1.1358  0.5153
 5253TIP3    H237395   6.256   0.931   1.979  0.3178 -0.5307  0.1585
 5254TIP3   OH237396   0.396   3.277   8.060 -0.6067  0.2186 -0.2221
 5254TIP3    H137397   0.456   3.297   7.987  0.1947 -1.1470  0.0264
 5254TIP3    H237398   0.340   3.208   8.025 -0.3297 -0.3203  0.3931
 5255TIP3   OH237399   3.099   3.533   6.748  0.0430  0.0666 -0.1268
 5255TIP3    H137400   3.164   3.600   6.769 -1.1568  1.1653  0.2499
 5255TIP3    H237401   3.028   3.581   6.704  0.2698 -1.3779 -2.2774
 5256TIP3   OH237402   5.700   0.264   1.221 -0.4350 -0.5937  0.2839
 5256TIP3    H137403   5.677   0.300   1.135 -0.1628 -2.4835 -0.6189
 5256TIP3    H237404   5.733   0.340   1.270  0.3446  0.3552 -1.6092
 5257TIP3   OH237405   4.199   1.014   0.214 -0.0798 -0.5223  0.0956
 5257TIP3    H137406   4.263   1.077   0.245 -0.8450  1.7938 -2.5832
 5257TIP3    H237407   4.124   1.025   0.273  0.7278 -0.8696  1.2272
 5258TIP3   OH237408   1.454   5.019   0.532  0.2791 -0.8688  0.1732
 5258TIP3    H137409   1.461   5.035   0.438 -0.2579 -0.2238  0.2372
 5258TIP3    H237410   1.517   5.079   0.571 -0.1743 -0.4614  0.2812
 5259TIP3   OH237411   4.911   6.686   7.599 -0.1656 -0.4181 -0.3296
 5259TIP3    H137412   4.838   6.748   7.603 -0.4030 -0.6720 -0.6825
 5259TIP3    H237413   4.871   6.601   7.617 -0.0321 -0.6159 -0.9489
 5260TIP3   OH237414   3.666   1.453   2.861 -0.2695 -0.6271 -0.2876
 5260TIP3    H137415   3.638   1.370   2.822 -1.2227  0.3123 -1.6929
 5260TIP3    H237416   3.613   1.462   2.940 -0.2243 -1.3030 -0.1752
 5261TIP3   OH237417   0.701   5.894   0.259 -0.6496 -0.7858  0.6682
 5261TIP3    H137418   0.724   5.985   0.280 -0.2935 -0.1939 -1.8977
 5261TIP3    H237419   0.605   5.894   0.258 -0.6759  0.1018 -1.1026
 5262TIP3   OH237420   6.618   2.538   8.441 -0.4373  0.3145  0.4351
 5262TIP3    H137421   6.570   2.599   8.498  0.1336  0.6025  0.6110
 5262TIP3    H237422   6.691   2.507   8.494 -0.5546 -0.2976  0.2422
 5263TIP3   OH237423   4.583   4.319   0.799 -0.2774 -0.2990 -0.0285
 5263TIP3    H137424   4.545   4.327   0.711 -2.8656 -0.9856  0.9044
 5263TIP3    H237425   4.544   4.238   0.834  2.3933 -1.2584  1.0105
 5264TIP3   OH237426   5.312   3.543   2.428  0.0215  0.0507 -0.0786
 5264TIP3    H137427   5.237   3.543   2.488 -0.4993  1.5169 -0.6974
 5264TIP3    H237428   5.350   3.456   2.438 -2.5195 -1.2222 -0.7138
 5265TIP3   OH237429   3.357   1.283   7.548 -0.1507  0.0008  0.0641
 5265TIP3    H137430   3.399   1.355   7.500 -0.6094 -0.1512 -0.5742
 5265TIP3    H237431   3.383   1.297   7.639  0.6528  0.3533 -0.2071
 5266TIP3   OH237432   5.828   4.206   1.348  0.0357 -0.4327  0.5217
 5266TIP3    H137433   5.915   4.245   1.357 -0.1569 -0.2042  1.5524
 5266TIP3    H237434   5.795   4.240   1.265  0.1486  1.0771  1.0680
 5267TIP3   OH237435   6.374   1.160   0.046  0.4051 -0.0682  0.3106
 5267TIP3    H137436   6.389   1.178  -0.047 -1.7309  0.0138 -0.0530
 5267TIP3    H237437   6.448   1.202   0.090  1.1676  0.3714 -1.2956
 5268TIP3   OH237438   2.281   1.843   0.065 -0.4714 -0.2387 -0.1391
 5268TIP3    H137439   2.329   1.856  -0.017  0.2699 -0.3197  0.2774
 5268TIP3    H237440   2.250   1.752   0.061  0.6444 -0.6498  0.2210
 5269TIP3   OH237441   2.119   2.619   1.269 -0.3900  0.2700 -0.0629
 5269TIP3    H137442   2.122   2.613   1.174 -0.8125  0.7617 -0.1070
 5269TIP3    H237443   2.078   2.703   1.287 -0.6515  0.0165  0.5550
 5270TIP3   OH237444   2.021   5.085   7.093  0.6416 -0.1850  0.1015
 5270TIP3    H137445   2.072   5.101   7.014  1.7900  0.0928  0.8600
 5270TIP3    H237446   2.071   5.129   7.163 -1.3542  1.3144  0.6947
 5271TIP3   OH237447   3.543   2.181   2.303 -0.5802 -0.0308  0.0071
 5271TIP3    H137448   3.523   2.137   2.385 -0.2675 -0.5178 -0.1725
 5271TIP3    H237449   3.548   2.273   2.325 -0.1136 -0.1953  0.6087
 5272TIP3   OH237450   1.645   1.900   7.714  0.6436 -0.2986  0.3791
 5272TIP3    H137451   1.639   1.921   7.807  2.1547  1.0310  0.2116
 5272TIP3    H237452   1.676   1.809   7.712 -1.1433 -0.9716  1.1275
 5273TIP3   OH237453   5.796   1.324   1.502  0.0823  0.4008  0.2034
 5273TIP3    H137454   5.764   1.344   1.414 -0.5871 -0.2589  0.2865
 5273TIP3    H237455   5.744   1.380   1.560  1.1392  1.4974  0.1311
 5274TIP3   OH237456   1.633   5.832   8.287  0.1138  0.5925 -0.1261
 5274TIP3    H137457   1.643   5.822   8.192 -1.2378 -0.8692 -0.1615
 5274TIP3    H237458   1.545   5.798   8.305  1.0621 -1.0081  1.8789
 5275TIP3   OH237459   3.976   1.076   0.381 -0.1250 -0.1116 -0.0730
 5275TIP3    H137460   3.939   1.162   0.362 -0.1198  0.1491  1.0739
 5275TIP3    H237461   3.977   1.070   0.476  0.4051 -1.1555 -0.1288
 5276TIP3   OH237462   1.531   0.837   1.971  0.2420  0.3831  0.2649
 5276TIP3    H137463   1.522   0.798   1.884  0.9676  0.1514  0.2854
 5276TIP3    H237464   1.442   0.838   2.007  0.3358 -2.5456  0.8269
 5277TIP3   OH237465   3.641   0.258   8.518 -0.0068 -0.2201 -0.6184
 5277TIP3    H137466   3.609   0.206   8.444  1.2584 -1.6676 -0.2079
 5277TIP3    H237467   3.733   0.233   8.526 -0.3335 -0.8169  2.0368
 5278TIP3   OH237468   4.419   0.321   1.603  0.1473  0.3170 -0.3082
 5278TIP3    H137469   4.440   0.230   1.583  1.7619  0.3312  1.1027
 5278TIP3    H237470   4.451   0.370   1.527 -0.3157 -0.2278 -0.8700
 5279TIP3   OH237471   1.283   0.029   2.656  0.6980 -0.7753  0.2216
 5279TIP3    H137472   1.219  -0.021   2.707  0.4294 -0.2360  0.4159
 5279TIP3    H237473   1.349   0.055   2.720  1.0103 -1.1509  0.0591
 5280TIP3   OH237474   0.857   3.130   7.520 -0.3827  0.4208 -0.2708
 5280TIP3    H137475   0.880   3.204   7.575  0.1393  0.1243 -0.0783
 5280TIP3    H237476   0.806   3.168   7.448  2.5957  1.5396 -2.0025
 5281TIP3   OH237477   5.522   1.307   8.000 -0.1600 -0.2338 -0.2263
 5281TIP3    H137478   5.615   1.288   7.993  0.3268  1.9230 -0.4776
 5281TIP3    H237479   5.484   1.275   7.919  0.9639  1.6121 -1.5658
 5282TIP3   OH237480   4.602   0.804   2.201 -0.1227 -0.1748 -0.1229
 5282TIP3    H137481   4.653   0.844   2.131 -1.1345  0.5337 -0.4709
 5282TIP3    H237482   4.668   0.768   2.261  0.8319  1.7460  0.0442
 5283TIP3   OH237483   6.836   6.685   7.956  0.1567 -0.2274 -0.3542
 5283TIP3    H137484   6.905   6.640   8.005 -0.8650 -0.6053  0.8095
 5283TIP3    H237485   6.882   6.733   7.888  1.7250  0.6935  1.2612
 5284TIP3   OH237486   2.124   0.275   8.034  0.0325 -0.0000 -0.3527
 5284TIP3    H137487   2.172   0.282   8.116 -0.4449  0.8906 -0.1441
 5284TIP3    H237488   2.150   0.190   7.999  0.1563 -0.4474  0.7734
 5285TIP3   OH237489   4.466   4.213   7.897 -0.2165 -0.4737 -0.0381
 5285TIP3    H137490   4.465   4.166   7.814  2.0266 -4.0972  1.7008
 5285TIP3    H237491   4.556   4.243   7.907 -1.3551  3.6436 -0.5840
 5286TIP3   OH237492   6.883   0.666   0.549  0.0406  0.2429 -0.3041
 5286TIP3    H137493   6.862   0.589   0.603 -0.2452 -0.5555 -1.5031
 5286TIP3    H237494   6.940   0.631   0.480 -0.2596  1.0610 -0.9845
 5287TIP3   OH237495   0.626   0.229   1.887  0.4858 -0.0543 -0.4467
 5287TIP3    H137496   0.585   0.241   1.973  0.4005  1.2255 -0.6463
 5287TIP3    H237497   0.718   0.210   1.908  0.7241  1.3844 -0.0696
 5288TIP3   OH237498   1.979   2.100   1.446 -0.1513  0.2485 -0.3179
 5288TIP3    H137499   1.908   2.164   1.442 -1.2798 -0.8757  0.6392
 5288TIP3    H237500   1.971   2.049   1.365  0.9322  1.4527 -1.2201
 5289TIP3   OH237501   3.722   6.266   1.534  0.0500  0.2556  0.2310
 5289TIP3    H137502   3.772   6.336   1.493  0.5952  0.3469  1.0438
 5289TIP3    H237503   3.742   6.272   1.627  0.7334 -1.4636  0.2407
 5290TIP3   OH237504   3.928   2.852   0.719 -0.0400 -0.1179  0.1891
 5290TIP3    H137505   3.910   2.923   0.657 -1.2042 -1.3002 -0.8732
 5290TIP3    H237506   3.969   2.896   0.793  1.5581  1.3407 -1.4528
 5291TIP3   OH237507   3.801   4.945   1.345 -0.2731  0.2949  0.0753
 5291TIP3    H137508   3.819   4.934   1.252 -0.8394  0.3516 -0.0397
 5291TIP3    H237509   3.735   5.014   1.349 -1.4621 -0.8260  0.4169
 5292TIP3   OH237510   4.210   0.731   6.977 -0.1663 -0.0876  0.1972
 5292TIP3    H137511   4.154   0.808   6.969  0.3795  0.2915 -0.0375
 5292TIP3    H237512   4.248   0.720   6.890  0.4218 -0.1063  0.4511
 5293TIP3   OH237513   3.279   3.966   1.829  0.2874 -0.6666  0.1373
 5293TIP3    H137514   3.248   3.930   1.746 -1.3635  0.3526  0.2741
 5293TIP3    H237515   3.239   4.053   1.834 -0.2033 -0.9663  2.3030
 5294TIP3   OH237516   4.009   4.375   7.452 -0.2338  0.4930  0.0601
 5294TIP3    H137517   4.097   4.413   7.457 -0.6919  1.5569  0.5356
 5294TIP3    H237518   3.952   4.451   7.438 -1.1356 -0.1005  0.4585
 5295TIP3   OH237519   1.384   6.748   1.064  0.1114  0.0857  0.4101
 5295TIP3    H137520   1.400   6.679   1.000 -3.1220  1.3284 -1.9781
 5295TIP3    H237521   1.462   6.803   1.059 -0.8480  1.4435 -4.4254
 5296TIP3   OH237522   2.406   6.546   0.347 -0.4560  0.3370  0.0900
 5296TIP3    H137523   2.362   6.484   0.289 -0.0904  0.3477 -0.2014
 5296TIP3    H237524   2.466   6.492   0.399 -2.0649  0.0337  1.7813
 5297TIP3   OH237525   5.587   5.381   1.352  0.4869  0.2144 -0.4999
 5297TIP3    H137526   5.506   5.370   1.401 -0.0413 -1.2306 -1.6067
 5297TIP3    H237527   5.562   5.430   1.274  1.0131  1.1848 -0.0680
 5298TIP3   OH237528   4.191   1.843   0.926  0.2762 -0.2416 -0.2226
 5298TIP3    H137529   4.262   1.786   0.896  0.8731  0.6735 -0.5840
 5298TIP3    H237530   4.126   1.840   0.856 -0.6526 -2.0427  0.6295
 5299TIP3   OH237531   5.633   2.496   0.498 -0.5090  0.4279  0.2909
 5299TIP3    H137532   5.619   2.409   0.462  0.8120  0.3657 -0.1172
 5299TIP3    H237533   5.605   2.489   0.589 -0.2931 -0.4605  0.2983
 5300TIP3   OH237534   1.412   5.370   8.420 -0.4138 -0.3423  0.0882
 5300TIP3    H137535   1.356   5.297   8.445  0.4726 -1.3293 -0.7117
 5300TIP3    H237536   1.471   5.334   8.353  1.8744  0.3601  1.5991
 5301TIP3   OH237537   6.177   5.257   1.168  0.2741  0.0911  0.2650
 5301TIP3    H137538   6.232   5.247   1.246 -1.5088 -2.8274  1.2967
 5301TIP3    H237539   6.143   5.170   1.151 -1.7542  1.2168 -2.0449
 5302TIP3   OH237540   0.165   4.297   0.855  0.3171  0.7444  0.4559
 5302TIP3    H137541   0.162   4.355   0.780 -0.3995  1.3289  0.9295
 5302TIP3    H237542   0.254   4.260   0.853 -0.8441 -2.4545 -3.0596
 5303TIP3   OH237543   6.316   6.634   1.567  0.4089 -0.1470  0.3048
 5303TIP3    H137544   6.326   6.640   1.662  1.9851 -1.2637  0.2434
 5303TIP3    H237545   6.373   6.561   1.541 -0.6368 -0.4147 -1.4060
 5304TIP3   OH237546   1.434   5.260   2.629 -0.3860 -0.3331 -0.1893
 5304TIP3    H137547   1.384   5.222   2.558  0.9759 -2.0994 -0.2727
 5304TIP3    H237548   1.440   5.191   2.695  2.4929 -0.5290 -0.5021
 5305TIP3   OH237549   2.347   0.787   1.141 -0.7727  0.5331 -0.1747
 5305TIP3    H137550   2.345   0.826   1.053 -0.2992  0.7514 -0.0946
 5305TIP3    H237551   2.400   0.708   1.131 -0.1606  0.9070  0.0433
 5306TIP3   OH237552   0.962   1.710   0.824  0.6289  0.1999 -0.0821
 5306TIP3    H137553   0.962   1.804   0.805 -2.1091  0.3147  0.0280
 5306TIP3    H237554   0.896   1.674   0.765 -0.0520 -1.2449  1.4578
 5307TIP3   OH237555   2.861   4.773   7.952  0.0915 -0.3797  0.4106
 5307TIP3    H137556   2.927   4.787   7.885 -1.0655 -0.1677 -0.7178
 5307TIP3    H237557   2.854   4.858   7.997  0.2828 -0.2875  0.2664
 5308TIP3   OH237558   4.881   5.937   8.116 -0.1985 -0.3916 -0.3005
 5308TIP3    H137559   4.858   5.844   8.119 -0.8749 -0.2229  0.0734
 5308TIP3    H237560   4.797   5.981   8.100  0.4076  0.0312 -2.6967
 5309TIP3   OH237561   5.786   4.990   0.356 -0.2991  0.2951 -0.6752
 5309TIP3    H137562   5.804   5.018   0.266 -1.0567 -0.5487 -1.1147
 5309TIP3    H237563   5.727   5.056   0.390  0.7255  1.1271 -0.4593
 5310TIP3   OH237564   1.532   3.742   7.504 -0.3946  0.6181 -0.8244
 5310TIP3    H137565   1.501   3.655   7.527  0.0552  0.5854 -0.3008
 5310TIP3    H237566   1.490   3.762   7.421  1.1972 -1.0053 -2.0966
 5311TIP3   OH237567   3.887   0.521   0.365 -0.1468  0.5111 -0.0498
 5311TIP3    H137568   3.829   0.461   0.412 -0.2997  1.1993  0.6557
 5311TIP3    H237569   3.970   0.474   0.359 -0.9327 -0.7486 -1.6445
 5312TIP3   OH237570   2.678   0.413   2.105  0.1086 -0.4730  0.1167
 5312TIP3    H137571   2.727   0.475   2.158 -1.2056  1.3220 -0.6750
 5312TIP3    H237572   2.587   0.426   2.129 -0.1987 -2.2055  0.0089
 5313TIP3   OH237573   5.531   0.615   7.624  0.2004 -0.3685  0.0774
 5313TIP3    H137574   5.590   0.679   7.584  0.9170  0.2281  1.9724
 5313TIP3    H237575   5.444   0.650   7.609  0.5194  0.4286  0.0131
 5314TIP3   OH237576   5.243   3.347   2.029  0.0602  0.3658 -0.2401
 5314TIP3    H137577   5.216   3.293   2.103 -1.3901  1.2426 -0.0957
 5314TIP3    H237578   5.244   3.436   2.063 -0.7328  0.7963 -1.2812
 5315TIP3   OH237579   1.490   5.800   7.529 -0.6262 -0.2590 -0.0525
 5315TIP3    H137580   1.531   5.886   7.540  0.5398 -0.7919 -0.0736
 5315TIP3    H237581   1.406   5.819   7.489 -0.5059  0.8991  0.2080
 5316TIP3   OH237582   6.523   3.311   0.393  0.4002  0.0670 -0.6762
 5316TIP3    H137583   6.551   3.343   0.307  1.8063  0.5323 -0.0682
 5316TIP3    H237584   6.454   3.247   0.373 -2.3802  3.1842 -1.9520
 5317TIP3   OH237585   3.961   4.630   0.199  0.0491 -0.1237  0.7059
 5317TIP3    H137586   4.027   4.605   0.134  0.3784  0.5687  0.7648
 5317TIP3    H237587   3.877   4.612   0.156  0.2544  0.9468 -0.1810
 5318TIP3   OH237588   1.981   3.937   0.177 -0.4427  0.0022 -0.3961
 5318TIP3    H137589   2.038   4.008   0.150 -1.4811  0.9374 -0.2011
 5318TIP3    H237590   1.914   3.979   0.231  0.0291 -1.4062  1.3765
 5319TIP3   OH237591   0.211   0.001   7.630 -0.3408 -0.1282  0.2678
 5319TIP3    H137592   0.228  -0.073   7.573 -1.1896  0.0710 -0.2555
 5319TIP3    H237593   0.231  -0.031   7.718  1.5972 -0.2514 -0.1625
 5320TIP3   OH237594   2.268   6.452   0.627  0.4216 -0.1579  0.0037
 5320TIP3    H137595   2.358   6.429   0.605  0.1329 -0.5848 -0.7372
 5320TIP3    H237596   2.276   6.532   0.679  0.9902  2.3273 -3.6212
 5321TIP3   OH237597   5.033   3.283   1.620  0.2166 -0.6019  0.2324
 5321TIP3    H137598   5.028   3.317   1.710  0.6412 -0.3403  0.1604
 5321TIP3    H237599   5.048   3.189   1.630 -0.0558 -0.6272  0.4330
 5322TIP3   OH237600   5.442   6.896   8.263 -0.0206 -0.0075  1.0495
 5322TIP3    H137601   5.366   6.862   8.217  0.4489 -0.0394  0.2700
 5322TIP3    H237602   5.506   6.824   8.261  0.3434  0.3111  0.9077
 5323TIP3   OH237603   4.215   5.013   0.449  0.5422 -0.4120  0.3266
 5323TIP3    H137604   4.159   4.999   0.525  0.0485 -1.1508 -0.1626
 5323TIP3    H237605   4.156   5.046   0.382  0.6113 -1.5272 -0.3023
 5324TIP3   OH237606   5.851   5.736   2.280  0.2405  0.2934 -0.3731
 5324TIP3    H137607   5.927   5.692   2.319 -0.0511  0.4103  0.3265
 5324TIP3    H237608   5.790   5.666   2.261  0.7711  0.1175 -1.5428
 5325TIP3   OH237609   4.889   3.491   1.142  0.2153 -0.2882 -0.1295
 5325TIP3    H137610   4.971   3.518   1.101 -0.5904  1.9905 -0.3634
 5325TIP3    H237611   4.912   3.473   1.233  0.7773  1.6314  0.1358
 5326TIP3   OH237612   2.369   0.817   2.098 -0.3037  0.1070  0.1442
 5326TIP3    H137613   2.419   0.742   2.127 -0.8875  0.6552  2.8165
 5326TIP3    H237614   2.435   0.881   2.070  0.1859 -1.4217 -2.5410
 5327TIP3   OH237615   6.324   2.598   6.878  0.5406 -0.2118 -0.1878
 5327TIP3    H137616   6.309   2.635   6.965 -0.1190 -0.8298 -0.0327
 5327TIP3    H237617   6.253   2.633   6.825  0.1517 -0.9201 -0.1402
 5328TIP3   OH237618   1.709   6.526   1.583 -0.1800  0.0401  0.1702
 5328TIP3    H137619   1.756   6.550   1.663  0.2648  1.8429 -0.5779
 5328TIP3    H237620   1.643   6.594   1.572 -0.5966 -0.4840 -0.7183
 5329TIP3   OH237621   0.166   0.860   0.312 -0.3146  0.2109 -0.0563
 5329TIP3    H137622   0.161   0.801   0.238 -0.0061  0.1828 -0.0566
 5329TIP3    H237623   0.090   0.917   0.303 -2.0406 -1.7486  1.2973
 5330TIP3   OH237624   5.403   2.796   2.716 -0.2878  0.5838 -0.2981
 5330TIP3    H137625   5.349   2.762   2.788  1.3967  0.1083  0.7867
 5330TIP3    H237626   5.396   2.892   2.724  0.5300  0.5561  1.0478
 5331TIP3   OH237627   6.075   6.244   6.520  0.0493  0.1176  0.3507
 5331TIP3    H137628   6.125   6.263   6.599 -0.7599  1.2800  0.6063
 5331TIP3    H237629   6.086   6.320   6.465  0.2667 -0.5155 -0.4977
 5332TIP3   OH237630   0.242   6.049   1.618 -0.2004 -0.6028 -0.3672
 5332TIP3    H137631   0.281   6.136   1.624 -0.6811 -0.2993 -1.3346
 5332TIP3    H237632   0.177   6.047   1.688 -3.0408  1.3743 -2.7012
 5333TIP3   OH237633   2.241   3.985   1.459 -0.2735  0.0400 -0.5129
 5333TIP3    H137634   2.295   4.060   1.436 -0.1689 -0.3707 -1.6643
 5333TIP3    H237635   2.242   3.983   1.555  0.3572  1.0320 -0.4849
 5334TIP3   OH237636   6.610   5.566   0.862 -0.1475 -0.0438 -0.2638
 5334TIP3    H137637   6.516   5.561   0.841 -0.6717  2.2638  1.1331
 5334TIP3    H237638   6.625   5.491   0.919 -1.1738 -0.3883 -0.4127
 5335TIP3   OH237639   0.329   3.349   1.151  0.7835  0.1573  0.0032
 5335TIP3    H137640   0.291   3.261   1.146 -2.2764  1.3569  0.1858
 5335TIP3    H237641   0.345   3.363   1.244 -2.0055  0.9597  0.4504
 5336TIP3   OH237642   4.279   6.453   0.661 -0.0705  0.6625  0.1633
 5336TIP3    H137643   4.341   6.512   0.705  1.9221 -2.1563  1.4048
 5336TIP3    H237644   4.224   6.419   0.732 -0.4182  0.1127 -0.3633
 5337TIP3   OH237645   5.451   6.555   6.352  0.6760 -0.0662  0.1136
 5337TIP3    H137646   5.466   6.476   6.404  0.9974 -0.3922 -0.4726
 5337TIP3    H237647   5.403   6.613   6.411 -0.9637 -1.2909  0.0346
 5338TIP3   OH237648   0.963   4.413   8.323 -0.1211  0.0739  0.1995
 5338TIP3    H137649   0.996   4.336   8.276  0.7202  0.5911 -0.0863
 5338TIP3    H237650   0.982   4.395   8.415  1.8620  0.7453 -0.0267
 5339TIP3   OH237651   4.502   5.698   1.897  0.1470  0.3097  0.7085
 5339TIP3    H137652   4.518   5.779   1.848 -1.2766 -0.5201 -1.2840
 5339TIP3    H237653   4.562   5.635   1.857 -2.0208 -0.7373 -1.0988
 5340TIP3   OH237654   1.467   6.140   8.331  0.3749  0.1096  0.0651
 5340TIP3    H137655   1.419   6.060   8.355  0.3485  0.2211  0.3939
 5340TIP3    H237656   1.403   6.192   8.284 -0.0260  0.5245  1.0352
 5341TIP3   OH237657   6.845   3.919   1.278  0.3866 -0.4320 -0.0649
 5341TIP3    H137658   6.899   3.959   1.210 -0.9954  0.3019 -0.7749
 5341TIP3    H237659   6.882   3.952   1.360  0.3603  0.9573 -0.5766
 5342TIP3   OH237660   5.067   1.353   1.406  0.4719 -0.0143  0.3129
 5342TIP3    H137661   5.146   1.406   1.416 -0.6909  1.8700  0.0169
 5342TIP3    H237662   4.999   1.401   1.452 -0.9362 -0.5631 -1.0751
 5343TIP3   OH237663   6.531   3.346   8.131  0.0139  0.2907 -0.2489
 5343TIP3    H137664   6.571   3.374   8.214 -1.5094  1.1649  0.2246
 5343TIP3    H237665   6.470   3.277   8.157 -0.4476  0.5458 -0.6545
 5344TIP3   OH237666   4.249   1.398   2.324  0.0664 -0.0247  0.0435
 5344TIP3    H137667   4.329   1.377   2.274  1.6247  0.8563  2.0266
 5344TIP3    H237668   4.207   1.468   2.275 -0.1278 -1.2522 -1.6241
 5345TIP3   OH237669   6.387   3.069   0.842 -0.5891 -0.0954 -0.6743
 5345TIP3    H137670   6.383   3.135   0.774  2.5780  0.4527 -0.4820
 5345TIP3    H237671   6.389   3.118   0.924 -2.1762 -0.6700 -0.2333
 5346TIP3   OH237672   4.152   4.485   0.055  0.1935  0.2160  0.0168
 5346TIP3    H137673   4.241   4.505   0.024  0.2580 -1.4120 -0.9589
 5346TIP3    H237674   4.165   4.441   0.139  0.2759  0.4755  0.1409
 5347TIP3   OH237675   6.556   4.197   6.042  0.7994 -0.2094 -0.0109
 5347TIP3    H137676   6.496   4.257   5.999  0.2238 -1.4554 -1.0323
 5347TIP3    H237677   6.499   4.140   6.094  1.3631  0.3344  1.2495
 5348TIP3   OH237678   1.859   5.861   0.281  0.5839  0.0320  0.3502
 5348TIP3    H137679   1.917   5.787   0.264 -2.8474 -2.8121  0.0216
 5348TIP3    H237680   1.878   5.886   0.372  2.5586 -0.4441  0.1186
 5349TIP3   OH237681   4.324   5.500   8.304  0.8643  0.9681 -0.3511
 5349TIP3    H137682   4.334   5.417   8.350 -1.9154 -0.0065 -1.2948
 5349TIP3    H237683   4.244   5.537   8.340 -0.1037  1.2905 -2.6999
 5350TIP3   OH237684   2.536   2.646   0.323 -0.2515  0.1504  0.8998
 5350TIP3    H137685   2.600   2.617   0.257 -0.6688  1.7992 -0.2910
 5350TIP3    H237686   2.545   2.582   0.394  2.9485  0.4881  0.9443
 5351TIP3   OH237687   2.607   4.554   1.028 -0.3418  0.1332  0.1233
 5351TIP3    H137688   2.540   4.568   1.095 -0.0739  0.4030  0.3394
 5351TIP3    H237689   2.655   4.637   1.024  2.7657 -1.2787  3.0420
 5352TIP3   OH237690   0.747   3.493   8.076  0.0109  0.2191  0.1823
 5352TIP3    H137691   0.763   3.551   8.150  2.7820 -0.3508  0.1303
 5352TIP3    H237692   0.777   3.407   8.106 -0.6263 -0.4382 -0.9761
 5353TIP3   OH237693   1.078   1.603   8.192 -0.4605 -0.5819  0.3909
 5353TIP3    H137694   1.056   1.511   8.209 -0.6128 -0.6357 -0.0667
 5353TIP3    H237695   0.993   1.648   8.190 -0.3225 -0.2341  1.6725
 5354TIP3   OH237696   4.935   2.874   7.785 -0.2708 -0.2240 -0.0409
 5354TIP3    H137697   4.893   2.818   7.720  0.9457 -2.2528  0.8125
 5354TIP3    H237698   5.003   2.921   7.737 -1.0425  0.2504 -0.6942
 5355TIP3   OH237699   6.423   2.838   2.094  0.2267  0.0322  0.5855
 5355TIP3    H137700   6.363   2.878   2.157 -0.1703  1.0790 -0.4199
 5355TIP3    H237701   6.491   2.798   2.148 -0.1458  0.8226  1.6848
 5356TIP3   OH237702   2.470   4.436   7.994 -0.1490 -0.1069 -0.5686
 5356TIP3    H137703   2.545   4.429   8.053 -0.9517 -0.0519  0.4908
 5356TIP3    H237704   2.457   4.530   7.983  1.1905 -0.0755 -2.4516
 5357TIP3   OH237705   0.559   2.846   0.020 -0.0444  0.3628  0.0082
 5357TIP3    H137706   0.652   2.825   0.019  0.0533  0.8075 -0.4203
 5357TIP3    H237707   0.529   2.826  -0.069 -0.8031 -1.7063  0.6612
 5358TIP3   OH237708   5.861   0.598   1.176  0.0778  0.0274 -0.1790
 5358TIP3    H137709   5.790   0.650   1.138 -0.5039 -1.1282 -0.7366
 5358TIP3    H237710   5.823   0.561   1.257 -0.1262 -0.9392 -0.6984
 5359TIP3   OH237711   4.987   6.903   2.028  0.5703 -0.1471  0.9591
 5359TIP3    H137712   5.019   6.955   2.102  2.8191 -0.8421  0.5393
 5359TIP3    H237713   4.942   6.967   1.972  2.3565  1.1946  0.9702
 5360TIP3   OH237714   3.516   6.792   8.481 -0.0909 -0.1297  0.0529
 5360TIP3    H137715   3.451   6.743   8.531  0.8146 -0.0819  1.3393
 5360TIP3    H237716   3.499   6.884   8.505  0.2905 -0.0990  0.2127
 5361TIP3   OH237717   4.566   5.887   8.288 -0.1024  0.0391  0.0198
 5361TIP3    H137718   4.659   5.892   8.311 -0.4071 -0.4522  1.4172
 5361TIP3    H237719   4.539   5.799   8.311 -0.4389 -0.5849 -2.4172
 5362TIP3   OH237720   1.742   5.588   1.813  0.1618 -0.1085 -0.2883
 5362TIP3    H137721   1.822   5.639   1.801  0.6846 -0.5959  1.0114
 5362TIP3    H237722   1.705   5.581   1.725  1.0097  0.9870 -0.7501
 5363TIP3   OH237723   2.740   3.152   0.910  0.4355 -0.5154  0.1387
 5363TIP3    H137724   2.731   3.153   1.005  1.2553  1.1295  0.2277
 5363TIP3    H237725   2.779   3.237   0.888 -1.0578 -0.2520 -1.7988
 5364TIP3   OH237726   3.013   6.740   7.395 -0.1473 -0.4823 -0.6261
 5364TIP3    H137727   2.941   6.772   7.449  1.3604  0.3518  0.9741
 5364TIP3    H237728   2.971   6.687   7.327 -2.2810  0.3449 -0.0082
 5365TIP3   OH237729   0.823   2.647   8.471  0.3431  0.2203  0.5514
 5365TIP3    H137730   0.733   2.612   8.470  0.4449 -0.7135 -4.4942
 5365TIP3    H237731   0.812   2.742   8.470 -0.7706  0.1239 -1.2469
 5366TIP3   OH237732   5.034   3.174   3.061 -0.7221 -0.5195  0.0982
 5366TIP3    H137733   4.942   3.190   3.079 -0.7238 -0.5465  0.1150
 5366TIP3    H237734   5.046   3.080   3.077 -0.4331 -0.3037  1.2357
 5367TIP3   OH237735   5.583   2.270   2.282 -0.6975  0.4103 -0.3917
 5367TIP3    H137736   5.563   2.177   2.268  1.0757  0.0760 -1.0415
 5367TIP3    H237737   5.555   2.314   2.202 -1.2370  0.3941 -0.2163
 5368TIP3   OH237738   0.638   6.539   7.459 -0.3407  0.2650  0.4786
 5368TIP3    H137739   0.600   6.555   7.372 -1.6029  0.4246  1.0447
 5368TIP3    H237740   0.563   6.520   7.515  0.4882 -0.1192  1.4834
 5369TIP3   OH237741   3.715   3.758   7.325 -0.1928  0.2604  0.2290
 5369TIP3    H137742   3.652   3.818   7.284 -0.4994  0.2466  0.6733
 5369TIP3    H237743   3.716   3.784   7.418 -0.0836 -0.2127  0.3621
 5370TIP3   OH237744   2.441   1.434   7.876  0.3909  0.3446 -0.0883
 5370TIP3    H137745   2.452   1.473   7.962 -1.9169  0.9223  0.0085
 5370TIP3    H237746   2.486   1.350   7.882 -0.8156 -0.2035  2.1176
 5371TIP3   OH237747   0.574   5.244   0.122 -0.6779 -0.2758  0.3718
 5371TIP3    H137748   0.522   5.282   0.052 -1.0884 -0.6418  0.4725
 5371TIP3    H237749   0.510   5.206   0.182 -0.3679  0.5073  1.2278
 5372TIP3   OH237750   6.681   6.467   7.891 -0.0788  0.2778 -0.4736
 5372TIP3    H137751   6.724   6.547   7.921  0.1760 -0.1601  0.3599
 5372TIP3    H237752   6.603   6.460   7.946 -1.0219  0.8422 -1.6874
 5373TIP3   OH237753   0.403   0.794   1.744  0.0648  0.5273  0.2140
 5373TIP3    H137754   0.486   0.749   1.759  0.2830  0.6963 -0.4529
 5373TIP3    H237755   0.336   0.728   1.761  0.3286  0.4358  0.9091
 5374TIP3   OH237756   4.249   1.541   1.066 -0.4258  0.1896  0.4190
 5374TIP3    H137757   4.176   1.537   1.005 -0.5250  2.1560  0.3661
 5374TIP3    H237758   4.231   1.618   1.120  1.3751  0.4542  0.6879
 5375TIP3   OH237759   0.792   1.336   7.229 -0.3245  0.2868  0.7179
 5375TIP3    H137760   0.801   1.429   7.251 -1.5466  0.3877  0.8617
 5375TIP3    H237761   0.736   1.300   7.297 -2.8635  0.2559 -1.2401
 5376TIP3   OH237762   6.577   3.509   0.813  0.0095 -0.4037 -0.0076
 5376TIP3    H137763   6.511   3.578   0.807 -1.9726 -1.6920  3.9930
 5376TIP3    H237764   6.658   3.556   0.833 -0.6340  0.9444 -0.3973
 5377TIP3   OH237765   5.449   4.304   7.065 -0.1143 -0.1551  0.1997
 5377TIP3    H137766   5.486   4.389   7.039 -0.5690 -0.1580 -0.4903
 5377TIP3    H237767   5.508   4.240   7.026 -0.4566 -0.1558 -0.3294
 5378TIP3   OH237768   5.026   4.351   1.354 -0.6711  0.3850  0.6815
 5378TIP3    H137769   5.056   4.396   1.275 -0.4919  1.2471  1.2356
 5378TIP3    H237770   5.019   4.420   1.420  1.3368 -0.6364  2.0548
 5379TIP3   OH237771   5.869   6.187   1.056 -0.0656  0.2052 -0.1730
 5379TIP3    H137772   5.857   6.096   1.081 -1.0374  0.3075 -0.2256
 5379TIP3    H237773   5.857   6.188   0.961  1.0311  0.2231 -0.3198
 5380TIP3   OH237774   2.188   0.839   2.412  0.0983 -0.0552  0.0942
 5380TIP3    H137775   2.239   0.761   2.389  0.0297  0.0860 -0.5712
 5380TIP3    H237776   2.130   0.810   2.483 -0.6401 -0.9014 -0.8183
 5381TIP3   OH237777   2.436   3.201   8.313  0.2150  0.1238 -0.0392
 5381TIP3    H137778   2.347   3.177   8.337  0.7429 -1.1313  0.7612
 5381TIP3    H237779   2.426   3.254   8.234 -1.3189  1.1468  0.7979
 5382TIP3   OH237780   4.717   1.582   7.742  0.3469  0.2426 -0.1668
 5382TIP3    H137781   4.655   1.532   7.794 -1.4479  1.4606 -1.0606
 5382TIP3    H237782   4.690   1.570   7.652  1.2285  1.0428 -0.5676
 5383TIP3   OH237783   5.273   3.973   6.976  0.2665 -0.0452 -0.0596
 5383TIP3    H137784   5.277   3.948   7.069 -3.4780 -1.4807 -0.1170
 5383TIP3    H237785   5.254   4.067   6.978  2.1677  0.3774  0.4901
 5384TIP3   OH237786   6.658   1.432   0.557 -0.5993  0.1878 -0.5844
 5384TIP3    H137787   6.595   1.503   0.545 -2.3776 -1.1616  0.3731
 5384TIP3    H237788   6.740   1.468   0.524 -1.2994  2.8634  0.3238
 5385TIP3   OH237789   6.777   3.677   6.486  0.0511 -0.9429  0.0777
 5385TIP3    H137790   6.834   3.754   6.480 -0.0028 -0.9455 -0.6058
 5385TIP3    H237791   6.775   3.643   6.397 -1.5168 -0.5694 -0.0596
 5386TIP3   OH237792   6.101   4.825   0.135  0.1723 -0.5313 -0.3385
 5386TIP3    H137793   6.145   4.803   0.053 -0.4828 -1.6274 -0.4225
 5386TIP3    H237794   6.008   4.824   0.114  0.0419  1.8198 -0.1822
 5387TIP3   OH237795   0.916   5.226   7.736 -0.1426 -0.4799 -0.3570
 5387TIP3    H137796   0.840   5.230   7.793 -0.1701  1.4304 -0.4561
 5387TIP3    H237797   0.894   5.283   7.662  1.1082 -0.4093 -0.6998
 5388TIP3   OH237798   2.269   6.277   1.775 -0.1545  0.2591  0.0158
 5388TIP3    H137799   2.346   6.242   1.730 -0.0974  0.6969 -0.2320
 5388TIP3    H237800   2.211   6.202   1.784  0.4386 -0.1507  0.5081
 5389TIP3   OH237801   3.327   0.901   7.477  0.2239  0.5207 -0.5854
 5389TIP3    H137802   3.258   0.953   7.518 -0.7170  0.5519 -2.1158
 5389TIP3    H237803   3.282   0.823   7.444  1.2651 -0.3461 -0.0462
 5390TIP3   OH237804   1.943   1.600   0.481 -0.6022 -0.0236 -0.3110
 5390TIP3    H137805   1.986   1.553   0.553 -0.9803  0.5447  0.2984
 5390TIP3    H237806   1.853   1.567   0.482 -0.6362  0.0647 -0.4511
 5391TIP3   OH237807   1.511   2.860   1.965 -0.1221  0.2043  0.0522
 5391TIP3    H137808   1.484   2.770   1.946 -1.1181  0.8613 -1.9817
 5391TIP3    H237809   1.479   2.876   2.054  0.0274 -1.4169  0.4356
 5392TIP3   OH237810   1.149   6.134   1.317 -0.2623 -0.4953  0.6001
 5392TIP3    H137811   1.061   6.168   1.297  0.2364  2.4390  2.7645
 5392TIP3    H237812   1.140   6.093   1.403  0.5017  0.1401  1.0020
 5393TIP3   OH237813   2.737   5.390   1.552 -0.2661 -0.1929 -0.0161
 5393TIP3    H137814   2.664   5.398   1.490 -0.1012  0.5933 -0.1196
 5393TIP3    H237815   2.764   5.298   1.546 -0.7275 -0.2960 -0.5681
 5394TIP3   OH237816   4.863   4.216   6.498 -0.5714  0.0433  0.5639
 5394TIP3    H137817   4.825   4.300   6.474 -1.6636 -0.1125  1.6278
 5394TIP3    H237818   4.956   4.234   6.510 -0.9938  1.4187  2.0907
 5395TIP3   OH237819   4.693   4.031   0.227  0.7167  0.3665 -0.5675
 5395TIP3    H137820   4.737   3.949   0.204  1.7913  1.1495 -1.4019
 5395TIP3    H237821   4.764   4.091   0.249 -0.0180  1.2513 -0.5558
 5396TIP3   OH237822   4.456   4.839   0.901  0.0210 -0.6391 -0.1701
 5396TIP3    H137823   4.443   4.745   0.913 -1.0492 -0.5097 -0.1688
 5396TIP3    H237824   4.423   4.856   0.813 -0.9656 -0.0766  0.2872
 5397TIP3   OH237825   0.341   1.546   1.524  0.4234  0.1346 -0.4050
 5397TIP3    H137826   0.432   1.540   1.494  0.9975  1.4358  0.9303
 5397TIP3    H237827   0.339   1.625   1.579 -1.9602  1.2651 -1.9052
 5398TIP3   OH237828   1.191   0.999   8.519  0.4269 -0.1631  0.7238
 5398TIP3    H137829   1.229   1.036   8.598  2.2472 -0.3543 -0.0045
 5398TIP3    H237830   1.161   0.912   8.544  1.6558 -0.5093  1.0744
 5399TIP3   OH237831   4.745   0.375   2.835  0.7771  0.5878  0.4791
 5399TIP3    H137832   4.697   0.308   2.786 -0.5336  0.8417  1.3584
 5399TIP3    H237833   4.688   0.452   2.831  1.6875  1.2800  0.5432
 5400TIP3   OH237834   3.525   6.157   0.982  0.0123 -0.1558 -0.0976
 5400TIP3    H137835   3.524   6.220   0.910  0.3880 -0.4435 -0.3582
 5400TIP3    H237836   3.432   6.146   1.004 -0.2914 -1.4171 -1.7571
 5401TIP3   OH237837   4.036   2.153   0.263 -0.0454 -0.2437 -0.3384
 5401TIP3    H137838   3.954   2.110   0.240  0.5364 -2.7797  1.8209
 5401TIP3    H237839   4.010   2.233   0.310 -1.2157 -0.0216 -1.3321
 5402TIP3   OH237840   4.513   5.800   2.211  0.2712 -0.6012 -0.8103
 5402TIP3    H137841   4.469   5.729   2.258  2.6535 -2.6126 -1.4277
 5402TIP3    H237842   4.574   5.836   2.274 -0.4277  0.4796 -0.7264
 5403TIP3   OH237843   6.291   6.694   7.822  0.0539 -0.2617 -0.0906
 5403TIP3    H137844   6.368   6.747   7.844 -1.9286  1.8960  2.2437
 5403TIP3    H237845   6.251   6.739   7.748 -0.8174  0.7209  0.9445
 5404TIP3   OH237846   2.647   3.550   0.008 -0.0107  0.6066  0.2212
 5404TIP3    H137847   2.644   3.586   0.096 -0.2997  0.8062  0.1291
 5404TIP3    H237848   2.593   3.608  -0.045  0.0198  0.3913 -0.0552
 5405TIP3   OH237849   5.399   3.774   8.406 -0.3682  0.0512 -0.5603
 5405TIP3    H137850   5.459   3.707   8.373 -0.7052 -0.4743 -0.1286
 5405TIP3    H237851   5.392   3.838   8.335 -0.3354 -0.5643 -1.1286
 5406TIP3   OH237852   1.188   4.364   0.091 -0.1464 -0.2120  0.1662
 5406TIP3    H137853   1.251   4.323   0.032  0.1490 -0.8632  0.9097
 5406TIP3    H237854   1.229   4.448   0.115  1.1225 -1.2129  1.7148
 5407TIP3   OH237855   2.817   6.649   1.488  0.4031 -0.5332 -0.0053
 5407TIP3    H137856   2.800   6.708   1.415  1.4417 -0.6197 -0.3300
 5407TIP3    H237857   2.901   6.678   1.523 -0.2123 -0.3069  1.3514
 5408TIP3   OH237858   5.780   5.994   1.717 -0.0212  0.6573 -0.0985
 5408TIP3    H137859   5.846   6.059   1.693 -1.9644  3.1526  0.9575
 5408TIP3    H237860   5.789   5.925   1.651  2.4585  1.7015 -0.9629
 5409TIP3   OH237861   5.905   3.805   7.431  0.4734  0.1568 -0.4343
 5409TIP3    H137862   5.863   3.845   7.355  0.8757  0.7130 -0.3732
 5409TIP3    H237863   5.999   3.807   7.410  0.4505 -1.7956 -0.9206
 5410TIP3   OH237864   0.288   1.039   1.850 -0.3523 -0.4628 -0.0309
 5410TIP3    H137865   0.339   0.963   1.822  1.3866  0.3276  0.7893
 5410TIP3    H237866   0.328   1.065   1.933  0.0007  2.1050 -0.9244
 5411TIP3   OH237867   5.483   5.756   8.342 -0.0532 -0.5929 -0.0409
 5411TIP3    H137868   5.453   5.807   8.418  1.2983 -0.4014  0.3874
 5411TIP3    H237869   5.426   5.679   8.341 -0.9270  0.0369  0.3917
 5412TIP3   OH237870   3.205   3.545   0.219  0.2687  0.3904 -0.4044
 5412TIP3    H137871   3.299   3.560   0.228  0.4044 -0.5879 -0.0798
 5412TIP3    H237872   3.176   3.524   0.307 -0.1824  0.2838 -0.5778
 5413TIP3   OH237873   5.178   0.082   8.560 -0.6439 -0.3165  0.7281
 5413TIP3    H137874   5.190  -0.011   8.583 -1.9768  0.1761  3.9873
 5413TIP3    H237875   5.088   0.087   8.527 -0.1841 -0.3248 -0.5674
 5414TIP3   OH237876   5.951   3.864   0.589  0.2137 -0.7089 -0.0704
 5414TIP3    H137877   6.022   3.855   0.654 -2.0144  1.4348  2.9852
 5414TIP3    H237878   5.969   3.947   0.546  0.6076 -1.1509 -0.7715
 5415TIP3   OH237879   0.778   5.685   0.774  0.5086 -0.7988  0.2575
 5415TIP3    H137880   0.795   5.660   0.683  1.3486  0.4986  0.0318
 5415TIP3    H237881   0.743   5.605   0.814  1.2878 -1.7691 -0.8852
 5416TIP3   OH237882   2.770   3.526   7.949  0.1289 -0.5907 -0.5849
 5416TIP3    H137883   2.829   3.538   7.874  0.0468  0.1596 -0.5391
 5416TIP3    H237884   2.723   3.445   7.930  0.6222 -0.7891 -0.9970
 5417TIP3   OH237885   0.082   4.070   8.235 -0.0461  0.9767 -0.0642
 5417TIP3    H137886   0.145   4.017   8.187 -0.9295  0.0808 -0.2552
 5417TIP3    H237887   0.123   4.084   8.320  0.2424  0.0770 -0.0443
 5418TIP3   OH237888   1.654   1.845   0.063  0.6115 -0.1247 -0.2060
 5418TIP3    H137889   1.649   1.926   0.012  0.2988 -0.0875 -0.1120
 5418TIP3    H237890   1.693   1.871   0.147 -2.7942  0.6211  1.2803
 5419TIP3   OH237891   5.068   4.403   7.416 -0.2770  0.6431  0.3648
 5419TIP3    H137892   5.027   4.475   7.463  0.1467  0.7488  0.5791
 5419TIP3    H237893   5.137   4.445   7.363  0.2528  0.3505  0.8157
 5420TIP3   OH237894   5.481   4.504   8.096 -0.0575  0.1920  0.2778
 5420TIP3    H137895   5.530   4.585   8.083 -0.2083 -0.0151 -1.8206
 5420TIP3    H237896   5.431   4.519   8.177  1.9389  1.1351  1.4119
 5421TIP3   OH237897   2.147   2.936   1.468 -0.6891  0.3132  0.3939
 5421TIP3    H137898   2.234   2.929   1.429  0.2252 -1.4711  2.5432
 5421TIP3    H237899   2.152   3.014   1.523  1.1759 -2.0391  3.9134
 5422TIP3   OH237900   3.763   0.750   1.403  0.5326 -0.1311 -0.4820
 5422TIP3    H137901   3.726   0.830   1.439  0.0068 -0.3686 -0.4792
 5422TIP3    H237902   3.837   0.779   1.350  0.8520  0.2808  0.1859
 5423TIP3   OH237903   6.232   3.804   2.835  0.3744 -0.0314  0.0025
 5423TIP3    H137904   6.245   3.724   2.886 -1.4170 -0.3446  0.0184
 5423TIP3    H237905   6.272   3.873   2.889  0.7633 -0.7164  0.6096
 5424TIP3   OH237906   1.752   6.335   7.671 -0.1364 -0.6258  0.3216
 5424TIP3    H137907   1.831   6.325   7.724 -0.5374 -0.4922  0.9539
 5424TIP3    H237908   1.765   6.417   7.623 -0.7032  0.4005  1.8569
 5425TIP3   OH237909   3.939   1.267   2.302 -0.2780  0.0780  0.2930
 5425TIP3    H137910   3.963   1.346   2.253  1.1066 -0.4600  0.0596
 5425TIP3    H237911   3.853   1.286   2.337 -0.0019  1.6665  0.1738
 5426TIP3   OH237912   0.819   3.237   6.858  0.5012  0.2184  0.3657
 5426TIP3    H137913   0.751   3.169   6.854  0.7049  0.0583 -0.8764
 5426TIP3    H237914   0.785   3.308   6.804  1.1415  0.3088  0.0798
 5427TIP3   OH237915   6.920   6.915   8.169 -0.2219  0.1317  0.0867
 5427TIP3    H137916   6.989   6.853   8.194 -0.6339  0.3754  1.9675
 5427TIP3    H237917   6.923   6.916   8.073  0.2828 -2.2306  0.0063
 5428TIP3   OH237918   0.588   5.045   2.246 -0.5023  0.2945 -0.5907
 5428TIP3    H137919   0.595   4.986   2.171 -2.4374  0.0063 -0.5943
 5428TIP3    H237920   0.677   5.049   2.281  0.1619 -0.6960 -2.0323
 5429TIP3   OH237921   0.266   5.512   7.893 -0.4126 -0.0412 -0.3377
 5429TIP3    H137922   0.222   5.549   7.817 -0.5812 -1.6513 -1.0512
 5429TIP3    H237923   0.346   5.565   7.903 -0.8975  0.8317 -0.9915
 5430TIP3   OH237924   6.067   6.344   1.624 -0.1634  0.0994 -0.4683
 5430TIP3    H137925   6.074   6.405   1.550 -1.2064 -0.4749 -1.0734
 5430TIP3    H237926   6.151   6.350   1.668  0.6497  0.1706 -1.9548
 5431TIP3   OH237927   6.035   3.318   6.611 -0.1389  0.4521  0.1690
 5431TIP3    H137928   6.096   3.390   6.598 -0.5346  0.5108 -1.5478
 5431TIP3    H237929   6.084   3.240   6.586  0.2639  0.0730  1.9486
 5432TIP3   OH237930   6.239   4.292   7.167  0.2746 -0.2530 -0.0900
 5432TIP3    H137931   6.239   4.281   7.072 -0.8141  0.8361 -0.2490
 5432TIP3    H237932   6.244   4.387   7.180 -0.6572 -0.3184  0.9013
 5433TIP3   OH237933   6.238   1.768   7.992  0.1142  0.1213 -0.0597
 5433TIP3    H137934   6.265   1.791   7.903 -0.1880  1.7813  0.2448
 5433TIP3    H237935   6.150   1.730   7.980  0.7181 -1.1971 -0.5952
 5434TIP3   OH237936   6.896   4.282   1.096  0.0423 -0.1838  0.5797
 5434TIP3    H137937   6.829   4.226   1.135 -0.6223 -0.0186 -0.2839
 5434TIP3    H237938   6.954   4.222   1.050 -0.0710 -0.2525  0.5260
 5435TIP3   OH237939   0.457   4.397   7.891 -0.1335 -0.9652 -0.2587
 5435TIP3    H137940   0.490   4.484   7.914  0.1258 -0.9545 -0.6542
 5435TIP3    H237941   0.364   4.400   7.913 -0.1559 -0.5398 -0.3949
 5436TIP3   OH237942   3.105   0.604   7.594  0.1806  0.2881  0.0807
 5436TIP3    H137943   3.021   0.628   7.632 -0.1514 -1.0591  0.2288
 5436TIP3    H237944   3.170   0.634   7.659 -0.1828  1.0239  0.1177
 5437TIP3   OH237945   4.192   1.629   7.656 -0.0751  0.6801 -0.5306
 5437TIP3    H137946   4.150   1.618   7.571 -1.0567  0.4966 -0.0331
 5437TIP3    H237947   4.209   1.539   7.686 -0.2045  0.7327 -0.2990
 5438TIP3   OH237948   2.375   5.992   1.711 -0.0270 -0.4061  0.0861
 5438TIP3    H137949   2.429   5.922   1.675 -0.3191 -0.9112  0.5992
 5438TIP3    H237950   2.438   6.055   1.746  0.2800 -1.7008  2.0389
 5439TIP3   OH237951   3.840   0.222   0.218 -0.5964 -0.7036 -0.3290
 5439TIP3    H137952   3.829   0.199   0.311  0.6937  0.5773  0.1818
 5439TIP3    H237953   3.752   0.247   0.189 -0.6165  1.4732  1.3241
 5440TIP3   OH237954   0.907   4.796   7.959 -0.0751 -0.6326 -0.4242
 5440TIP3    H137955   0.943   4.844   8.033 -0.3328  0.1879 -0.8096
 5440TIP3    H237956   0.855   4.726   7.998 -0.1950 -0.2162  0.1703
 5441TIP3   OH237957   5.370   3.415   0.142  0.3864  0.0288 -0.3239
 5441TIP3    H137958   5.402   3.416   0.051 -1.6455 -2.9903 -1.2403
 5441TIP3    H237959   5.284   3.456   0.137 -0.0150 -0.7535  0.0775
 5442TIP3   OH237960   1.210   2.755   8.241 -0.2025 -0.2117 -0.9013
 5442TIP3    H137961   1.275   2.725   8.177 -1.4813 -3.1263 -1.0222
 5442TIP3    H237962   1.126   2.739   8.198 -1.0448  0.7069  0.3548
 5443TIP3   OH237963   5.264   0.684   2.077 -0.0672 -0.6656  0.5781
 5443TIP3    H137964   5.319   0.694   2.154 -0.0791 -1.9060  0.7791
 5443TIP3    H237965   5.232   0.593   2.082 -1.2913 -0.2962 -0.0775
 5444TIP3   OH237966   2.468   1.130   0.715 -0.6697 -0.0659 -0.2724
 5444TIP3    H137967   2.458   1.202   0.776  0.8475 -0.6480  0.7224
 5444TIP3    H237968   2.533   1.161   0.651 -1.8569  0.3441 -1.3217
 5445TIP3   OH237969   6.284   0.163   1.345  0.6961  0.2513 -0.4943
 5445TIP3    H137970   6.207   0.161   1.289  0.6067 -1.9695 -0.3438
 5445TIP3    H237971   6.279   0.083   1.396  2.2299  0.8932  0.7453
 5446TIP3   OH237972   5.909   2.416   0.974 -0.0377  0.6368 -0.2815
 5446TIP3    H137973   5.960   2.420   0.893 -0.2131 -1.2833 -0.5336
 5446TIP3    H237974   5.859   2.334   0.968 -0.4129  0.6711  1.5516
 5447TIP3   OH237975   3.273   0.496   0.923 -0.0976 -0.1078  0.3868
 5447TIP3    H137976   3.237   0.566   0.978 -0.5825 -0.1333  0.1013
 5447TIP3    H237977   3.215   0.422   0.937 -0.7533  0.1481 -0.8374
 5448TIP3   OH237978   3.297   3.191   0.092  0.2228 -0.1357  0.5071
 5448TIP3    H137979   3.250   3.197   0.175 -0.4316 -0.0457  0.1341
 5448TIP3    H237980   3.253   3.254   0.035  1.1374  0.3391  0.3094
 5449TIP3   OH237981   1.627   0.674   3.354  0.4910  0.2695  0.3612
 5449TIP3    H137982   1.608   0.601   3.295 -0.8416  0.0894  0.9629
 5449TIP3    H237983   1.719   0.693   3.341  0.1816  0.3867 -1.9447
 5450TIP3   OH237984   3.482   4.519   1.293  0.2456  0.1126  0.0813
 5450TIP3    H137985   3.500   4.485   1.380 -0.1758  0.8667  0.4801
 5450TIP3    H237986   3.386   4.526   1.289  0.3337  2.2468  0.4483
 5451TIP3   OH237987   2.107   1.855   0.578 -0.3318  0.3902 -0.0901
 5451TIP3    H137988   2.117   1.839   0.484  0.3247  1.9983 -0.3383
 5451TIP3    H237989   2.013   1.852   0.594 -0.4906  0.7224 -0.9311
 5452TIP3   OH237990   5.690   5.636   8.215 -0.5739 -0.0510  0.4058
 5452TIP3    H137991   5.667   5.648   8.123 -0.9180  1.0880  0.6240
 5452TIP3    H237992   5.617   5.674   8.263 -0.0128  0.1206  1.1365
 5453TIP3   OH237993   1.323   3.645   6.851  0.2800  0.1775  0.7281
 5453TIP3    H137994   1.252   3.694   6.893  0.0751 -1.0521  1.8969
 5453TIP3    H237995   1.287   3.557   6.839  1.7064 -0.5840  1.7267
 5454TIP3   OH237996   6.910   6.824   0.657 -0.4692  0.6041 -0.1513
 5454TIP3    H137997   6.944   6.870   0.734 -0.5377 -1.2178  1.0180
 5454TIP3    H237998   6.832   6.779   0.688 -0.6764  0.0670 -1.3830
 5455TIP3   OH237999   5.674   5.849   0.387 -0.0695  0.5732 -0.6207
 5455TIP3    H138000   5.629   5.821   0.467  1.7939 -0.1136  0.2605
 5455TIP3    H238001   5.744   5.906   0.418  0.8774  0.0590 -1.7261
 5456TIP3   OH238002   6.846   5.635   0.254  0.7534 -0.2025  0.0329
 5456TIP3    H138003   6.865   5.559   0.308  1.1042 -1.4191 -1.7382
 5456TIP3    H238004   6.882   5.614   0.168  1.4110  2.2259 -0.3646
 5457TIP3   OH238005   0.642   4.136   2.654  0.3951  0.0053  0.1679
 5457TIP3    H138006   0.701   4.079   2.703 -0.2765 -1.6752 -0.8914
 5457TIP3    H238007   0.554   4.102   2.672  0.1106 -0.4903 -1.8993
 5458TIP3   OH238008   6.004   5.230   7.924  0.0363 -0.3885  0.0313
 5458TIP3    H138009   6.008   5.312   7.875 -0.4422  0.1318  0.8443
 5458TIP3    H238010   6.089   5.189   7.909 -0.4499 -0.7361 -2.0408
 5459TIP3   OH238011   5.104   4.521   1.753  0.4435  0.2543  0.2978
 5459TIP3    H138012   5.181   4.564   1.791 -0.8822  1.5293  1.6515
 5459TIP3    H238013   5.110   4.431   1.784 -0.2496  1.0876  3.1901
 5460TIP3   OH238014   5.647   3.193   1.519  0.0929 -0.4433  0.0942
 5460TIP3    H138015   5.554   3.212   1.526  0.1428  0.0059 -0.4053
 5460TIP3    H238016   5.676   3.186   1.610 -0.4996 -0.9838  0.2456
 5461TIP3   OH238017   5.754   6.219   8.578 -0.5018 -0.1125  0.2783
 5461TIP3    H138018   5.711   6.136   8.599 -1.3484  0.3301  0.3194
 5461TIP3    H238019   5.808   6.238   8.655 -0.5822 -0.4368  0.4168
 5462TIP3   OH238020   2.632   1.249   0.533  0.2269 -0.2382 -0.7262
 5462TIP3    H138021   2.577   1.252   0.455 -0.1759  1.6964 -0.4099
 5462TIP3    H238022   2.719   1.224   0.500 -0.2104 -0.6482 -1.5987
 5463TIP3   OH238023   4.842   5.484   1.861 -0.1885 -0.2614 -0.1105
 5463TIP3    H138024   4.750   5.473   1.837 -0.7650  2.2717  0.6045
 5463TIP3    H238025   4.847   5.458   1.953 -0.8183  1.8679  0.5978
 5464TIP3   OH238026   6.478   6.480   2.116  0.6144 -0.3120  0.8942
 5464TIP3    H138027   6.385   6.501   2.112  0.4614 -1.1492 -0.9897
 5464TIP3    H238028   6.521   6.565   2.126 -0.2555  0.3887 -0.8269
 5465TIP3   OH238029   1.703   5.814   1.567 -0.2754  0.4116 -0.4800
 5465TIP3    H138030   1.785   5.849   1.533 -0.9387  1.8511 -0.6263
 5465TIP3    H238031   1.683   5.740   1.509  1.8367 -1.1965  0.6632
 5466TIP3   OH238032   6.679   4.736   8.186 -0.1613 -0.1339 -0.5093
 5466TIP3    H138033   6.672   4.825   8.220 -2.8137 -0.4468 -0.0099
 5466TIP3    H238034   6.650   4.743   8.095  1.2331 -0.2544 -0.9833
 5467TIP3   OH238035   1.573   4.084   8.577 -0.0024 -0.3846 -0.1824
 5467TIP3    H138036   1.647   4.034   8.544 -0.6015 -0.7603 -0.9847
 5467TIP3    H238037   1.529   4.025   8.638 -0.7697 -0.9102 -1.2079
 5468TIP3   OH238038   3.843   1.248   1.690 -0.1614 -0.0975  0.1779
 5468TIP3    H138039   3.864   1.196   1.613  2.8063 -0.7135  1.2303
 5468TIP3    H238040   3.866   1.338   1.666 -0.0804 -0.1568  0.0358
 5469TIP3   OH238041   5.448   1.745   7.162 -0.2179  0.5687 -0.3373
 5469TIP3    H138042   5.365   1.735   7.210 -0.9035  0.5958 -1.4759
 5469TIP3    H238043   5.452   1.838   7.142  0.6433  0.7572  0.6482
 5470TIP3   OH238044   1.491   2.936   0.432  0.4114  0.6219  0.1252
 5470TIP3    H138045   1.471   3.005   0.495  1.3114  0.6546  0.3783
 5470TIP3    H238046   1.507   2.858   0.486  0.0485  0.3688 -0.1254
 5471TIP3   OH238047   6.085   6.842   1.217  0.1905  0.3137  0.1446
 5471TIP3    H138048   6.172   6.857   1.178  0.5121 -0.0733  0.7018
 5471TIP3    H238049   6.042   6.783   1.156 -0.2055  1.5770 -0.8490
 5472TIP3   OH238050   5.932   4.939   8.403  0.2916 -0.6526  0.1043
 5472TIP3    H138051   6.005   4.878   8.405  0.2775 -0.7819 -1.8252
 5472TIP3    H238052   5.923   4.963   8.311 -1.1326  0.5301  0.5159
 5473TIP3   OH238053   1.631   0.775   3.070 -0.4194  0.2645  0.1502
 5473TIP3    H138054   1.622   0.680   3.063 -0.6825  0.3226 -0.3284
 5473TIP3    H238055   1.719   0.793   3.037 -0.9317  0.3355 -1.2325
 5474TIP3   OH238056   5.093   4.840   1.656  0.0299 -0.3972  0.0272
 5474TIP3    H138057   5.058   4.911   1.602 -1.8483 -1.3515 -0.0740
 5474TIP3    H238058   5.091   4.875   1.746 -1.4242 -0.5060  0.0481
 5475TIP3   OH238059   3.917   0.487   7.182 -0.8259  0.3878 -0.4505
 5475TIP3    H138060   3.859   0.555   7.215 -1.6233  0.0492 -1.1197
 5475TIP3    H238061   3.891   0.476   7.091  0.6476  0.6021 -0.9366
 5476TIP3   OH238062   1.194   6.715   1.307  0.3496  0.2065  0.1121
 5476TIP3    H138063   1.180   6.788   1.366 -2.3008 -0.1053 -0.0395
 5476TIP3    H238064   1.217   6.755   1.223  1.3451  0.7395  0.6268
 5477TIP3   OH238065   1.146   0.224   8.525  0.8813  0.4620 -0.3570
 5477TIP3    H138066   1.051   0.222   8.530  0.7943 -1.7088 -1.5669
 5477TIP3    H238067   1.166   0.310   8.488 -0.6891  0.5349 -1.1231
 5478TIP3   OH238068   6.615   0.871   0.281 -0.3042  0.4533  0.2233
 5478TIP3    H138069   6.675   0.908   0.346 -0.8940  0.5693  0.7088
 5478TIP3    H238070   6.656   0.892   0.197  0.3960  0.4233  0.5482
 5479TIP3   OH238071   0.727   0.841   1.998  0.0291 -0.1243  0.0872
 5479TIP3    H138072   0.694   0.904   2.061  0.5848 -0.7222  1.0069
 5479TIP3    H238073   0.774   0.776   2.051  0.5410 -0.6272 -0.9406
 5480TIP3   OH238074   1.630   5.445   2.679  0.3076  0.0996  0.8269
 5480TIP3    H138075   1.575   5.368   2.671  0.2542  0.1258  0.9305
 5480TIP3    H238076   1.573   5.519   2.658  0.6576  0.0293 -0.4325
 5481TIP3   OH238077   2.663   5.635   1.898 -0.2561 -0.2966 -0.3230
 5481TIP3    H138078   2.687   5.706   1.958 -2.3763  0.2663 -0.0567
 5481TIP3    H238079   2.640   5.562   1.955 -1.4588 -0.0363 -0.4519
 5482TIP3   OH238080   4.365   0.115   1.914 -0.0319 -0.1553 -0.0904
 5482TIP3    H138081   4.332   0.109   1.824 -0.5098  0.1838  0.0574
 5482TIP3    H238082   4.410   0.199   1.918 -1.2786  0.5098  0.3871
 5483TIP3   OH238083   3.807   0.250   8.169  0.1363 -0.6601 -0.1728
 5483TIP3    H138084   3.781   0.170   8.124 -1.7082 -0.6484  0.7685
 5483TIP3    H238085   3.734   0.310   8.155  1.1526  0.5993 -0.2129
 5484TIP3   OH238086   0.477   1.763   7.183  0.1145 -0.4196 -0.4418
 5484TIP3    H138087   0.555   1.745   7.132 -0.8885 -0.3685 -2.0753
 5484TIP3    H238088   0.446   1.676   7.209  0.8164 -0.4273  0.4043
 5485TIP3   OH238089   5.682   0.560   0.752  0.5161 -0.2426  0.2459
 5485TIP3    H138090   5.703   0.652   0.738  3.6791 -0.7805  0.6656
 5485TIP3    H238091   5.687   0.521   0.664 -0.6928 -0.0647  0.0865
 5486TIP3   OH238092   3.620   0.975   8.485 -0.2048 -0.2948 -0.0438
 5486TIP3    H138093   3.572   1.055   8.466 -1.2259 -0.5676  1.2430
 5486TIP3    H238094   3.700   0.981   8.432 -0.8526  0.9684 -0.9162
 5487TIP3   OH238095   1.020   2.906   7.774  0.0976 -0.0796 -0.2030
 5487TIP3    H138096   1.106   2.940   7.799  0.6523 -1.6031  0.0874
 5487TIP3    H238097   1.025   2.895   7.679  0.1672 -0.0091 -0.2073
 5488TIP3   OH238098   6.682   5.564   6.354 -0.7138  0.2511  0.1137
 5488TIP3    H138099   6.624   5.598   6.286 -2.2037 -3.7148 -0.8667
 5488TIP3    H238100   6.645   5.596   6.436 -3.1158 -0.4298 -0.6287
 5489TIP3   OH238101   6.887   4.965   0.375  0.0082 -0.2720 -0.4860
 5489TIP3    H138102   6.882   4.979   0.280 -0.4040  1.1628 -0.2816
 5489TIP3    H238103   6.812   5.014   0.410  1.3455  1.0075  0.7407
 5490TIP3   OH238104   6.376   6.166   8.195  0.3025  0.3033 -0.0724
 5490TIP3    H138105   6.305   6.135   8.251  1.1424 -3.1159 -0.6950
 5490TIP3    H238106   6.332   6.200   8.117 -0.6761 -0.5664  0.0852
 5491TIP3   OH238107   6.705   5.560   7.607 -0.1282  0.4788 -0.1625
 5491TIP3    H138108   6.756   5.599   7.536  0.7835  3.1731  1.7855
 5491TIP3    H238109   6.758   5.487   7.638 -0.7255 -1.0106 -2.3642
 5492TIP3   OH238110   2.185   1.962   7.462  0.1546  0.5874  0.4819
 5492TIP3    H138111   2.235   1.954   7.544  0.1872 -3.0759  0.2826
 5492TIP3    H238112   2.251   1.983   7.396  0.3004  2.4760  1.1933
 5493TIP3   OH238113   4.703   5.489   8.520 -0.6742 -0.1776 -0.1817
 5493TIP3    H138114   4.740   5.550   8.584 -1.9109 -1.6872  2.1122
 5493TIP3    H238115   4.762   5.413   8.524 -0.8217 -0.3275 -0.7909
 5494TIP3   OH238116   0.515   2.349   0.198  0.0832  0.4372  0.0274
 5494TIP3    H138117   0.573   2.286   0.154 -0.1588  0.2575 -0.0371
 5494TIP3    H238118   0.428   2.311   0.189  0.0269  0.4032  0.6464
 5495TIP3   OH238119   1.299   3.074   7.006  0.2062 -0.5627 -0.0844
 5495TIP3    H138120   1.222   3.121   6.974 -0.7083 -1.6971  0.3779
 5495TIP3    H238121   1.372   3.132   6.986 -0.8276  0.8413  0.0315
 5496TIP3   OH238122   4.329   3.003   2.497  0.2806  0.2413  0.8074
 5496TIP3    H138123   4.313   3.000   2.592  0.7970  2.1176  1.0018
 5496TIP3    H238124   4.424   2.988   2.488  0.4786  1.4565  0.7284
 5497TIP3   OH238125   4.652   5.072   7.329 -0.4164  0.1027  0.6144
 5497TIP3    H138126   4.616   5.160   7.320  0.1328  0.5597  2.3878
 5497TIP3    H238127   4.669   5.043   7.240 -0.3451  1.9024  0.0115
 5498TIP3   OH238128   2.849   0.201   0.147  0.3936  0.6070  0.0030
 5498TIP3    H138129   2.764   0.239   0.124 -0.1536 -1.4789 -1.8039
 5498TIP3    H238130   2.830   0.141   0.219 -0.1371 -1.2522 -1.5809
 5499TIP3   OH238131   0.900   0.687   2.204  0.3907 -0.1667 -0.7006
 5499TIP3    H138132   0.826   0.673   2.263 -0.2984  2.0329 -0.9646
 5499TIP3    H238133   0.944   0.602   2.201 -2.2827 -1.6727 -0.7843
 5500TIP3   OH238134   2.588   1.799   8.100  0.7113  0.7841  0.7302
 5500TIP3    H138135   2.564   1.889   8.121  1.3211  0.7947  1.4322
 5500TIP3    H238136   2.661   1.779   8.160  1.2591  0.1759 -0.1141
 5501TIP3   OH238137   0.003   5.648   0.990  0.1777  0.3846 -0.6464
 5501TIP3    H138138   0.004   5.566   0.939 -1.2509  0.3251 -0.6112
 5501TIP3    H238139  -0.058   5.705   0.942  0.7015  1.2200 -0.3380
 5502TIP3   OH238140   2.728   0.683   6.980  0.0725 -0.0030 -0.0143
 5502TIP3    H138141   2.680   0.731   7.047 -0.0396  0.0373 -0.1234
 5502TIP3    H238142   2.817   0.676   7.015 -0.7134 -2.9616  1.7188
 5503TIP3   OH238143   0.964   5.146   1.859 -0.1265  0.1025 -0.2566
 5503TIP3    H138144   1.017   5.136   1.938 -1.3949 -1.3510  0.4637
 5503TIP3    H238145   1.022   5.122   1.787  0.8701  0.8743  0.2772
 5504TIP3   OH238146   6.115   2.361   0.751 -0.5641 -0.7019 -0.0932
 5504TIP3    H138147   6.041   2.330   0.698  0.1862 -0.3133 -1.4303
 5504TIP3    H238148   6.190   2.354   0.692  0.2018  0.3341  0.7317
 5505TIP3   OH238149   6.567   3.007   7.801 -0.0533  0.1266  0.0940
 5505TIP3    H138150   6.563   2.926   7.749 -1.0389 -0.7288  1.4228
 5505TIP3    H238151   6.595   3.074   7.739 -1.3106 -0.8102 -1.5888
 5506TIP3   OH238152   5.957   1.083   7.146 -0.0073 -0.4566 -0.0575
 5506TIP3    H138153   5.924   0.994   7.159  1.0409 -0.8703 -0.0942
 5506TIP3    H238154   5.968   1.091   7.051  1.4521 -0.9025  0.0423
 5507TIP3   OH238155   2.300   5.491   1.173  0.3933  0.9346  0.0593
 5507TIP3    H138156   2.246   5.553   1.221 -0.1025  0.3515  0.2645
 5507TIP3    H238157   2.239   5.441   1.119  0.7391  0.3784  0.1676
 5508TIP3   OH238158   0.495   1.251   1.205 -0.8267  0.1594  0.2499
 5508TIP3    H138159   0.573   1.288   1.247 -0.6928 -1.4339  1.4976
 5508TIP3    H238160   0.426   1.261   1.270 -1.5843  1.1204 -0.6643
 5509TIP3   OH238161   2.666   4.372   2.911 -0.1187  0.0324 -0.1551
 5509TIP3    H138162   2.612   4.450   2.904 -0.0348  0.1175  0.1395
 5509TIP3    H238163   2.620   4.306   2.859  0.1628  0.4644 -0.9790
 5510TIP3   OH238164   2.318   1.954   1.363 -0.4572  0.4591 -0.6609
 5510TIP3    H138165   2.331   1.860   1.378 -1.0559  0.3514 -0.7622
 5510TIP3    H238166   2.278   1.959   1.276 -1.0854  0.7491 -0.3650
 5511TIP3   OH238167   3.378   6.041   7.382  0.3129 -0.3443  0.4894
 5511TIP3    H138168   3.317   6.026   7.310  0.4691 -2.0501  0.6653
 5511TIP3    H238169   3.406   6.132   7.371  2.8342 -1.3437 -3.6473
 5512TIP3   OH238170   2.523   5.364   1.283 -0.3239  0.1849  0.3598
 5512TIP3    H138171   2.492   5.306   1.353 -1.1257  0.2513  0.0591
 5512TIP3    H238172   2.446   5.411   1.254 -0.1319 -0.2929 -1.0046
 5513TIP3   OH238173   6.587   0.947   8.375  0.2106 -0.2139  0.3829
 5513TIP3    H138174   6.543   1.032   8.368  0.5029  0.1049  2.0377
 5513TIP3    H238175   6.529   0.887   8.329  0.0012  0.8683 -0.8225
 5514TIP3   OH238176   6.832   5.798   2.043 -0.1210  0.1418  0.2061
 5514TIP3    H138177   6.813   5.715   1.999 -1.2667 -0.3381  1.5170
 5514TIP3    H238178   6.751   5.820   2.089  1.2948  0.0236  2.9669
 5515TIP3   OH238179   1.211   0.151   1.123  0.3638 -0.0947 -0.0637
 5515TIP3    H138180   1.125   0.188   1.102  1.2696  3.4947  1.7924
 5515TIP3    H238181   1.194   0.097   1.201 -0.8124 -3.1284 -2.2368
 5516TIP3   OH238182   4.399   1.128   0.388 -0.0161 -0.7568 -0.1273
 5516TIP3    H138183   4.428   1.044   0.424 -0.0398 -0.9283 -0.5046
 5516TIP3    H238184   4.359   1.173   0.463 -0.8669 -1.4763 -0.1358
 5517TIP3   OH238185   5.982   1.248   8.238 -0.1705 -0.1052 -0.4737
 5517TIP3    H138186   5.904   1.303   8.232 -1.1906 -1.5436 -0.8522
 5517TIP3    H238187   5.961   1.184   8.306  0.4047 -0.9207 -1.0504
 5518TIP3   OH238188   1.811   2.307   1.678  0.0359 -0.3375  0.2149
 5518TIP3    H138189   1.906   2.304   1.672  0.0645  0.0753  0.3961
 5518TIP3    H238190   1.787   2.392   1.638 -0.1214  0.3204  1.6591
 5519TIP3   OH238191   6.485   3.216   7.087  0.5235 -0.0463 -0.8378
 5519TIP3    H138192   6.435   3.238   7.166 -0.1050 -0.2827 -1.1604
 5519TIP3    H238193   6.453   3.129   7.062  2.0581 -0.7953 -0.3004
 5520TIP3   OH238194   6.084   6.084   0.687  0.0584  0.0324  0.3867
 5520TIP3    H138195   6.111   5.995   0.711  2.8233  0.7672  0.3416
 5520TIP3    H238196   6.108   6.137   0.763 -0.3755  0.9113 -0.0875
 5521TIP3   OH238197   6.667   2.148   0.756 -0.9256  0.7086  0.0522
 5521TIP3    H138198   6.716   2.194   0.689 -2.7862  1.3172 -0.9746
 5521TIP3    H238199   6.693   2.188   0.839  0.1554  1.0961 -0.4724
 5522TIP3   OH238200   1.113   2.247   0.689 -0.2633 -0.4234 -0.5934
 5522TIP3    H138201   1.042   2.273   0.747 -0.2459 -0.2417 -0.6537
 5522TIP3    H238202   1.084   2.271   0.601 -1.3001 -2.7818 -0.9861
 5523TIP3   OH238203   4.078   1.818   0.633  0.1434  0.1643 -0.3971
 5523TIP3    H138204   4.006   1.765   0.598  0.8909  0.1708 -2.0551
 5523TIP3    H238205   4.151   1.802   0.573  1.5106  0.2375  1.1790
 5524TIP3   OH238206   4.765   1.983   8.571 -0.3531 -0.5181 -0.4657
 5524TIP3    H138207   4.679   1.970   8.611 -0.2213  0.3989  0.1172
 5524TIP3    H238208   4.747   2.037   8.494 -0.5421 -1.9033 -1.4496
 5525TIP3   OH238209   1.710   2.366   0.160 -0.1298 -0.4445 -0.0894
 5525TIP3    H138210   1.780   2.302   0.169  0.1335 -0.2262 -0.5836
 5525TIP3    H238211   1.676   2.376   0.249  0.1087 -0.9468  0.0650
 5526TIP3   OH238212   6.154   6.481   7.279 -0.4026  0.8223 -0.4108
 5526TIP3    H138213   6.228   6.420   7.270  1.2926  2.6641  0.3356
 5526TIP3    H238214   6.085   6.428   7.320  1.0704 -0.5452  0.4379
 5527TIP3   OH238215   3.130   4.413   7.783 -0.6222  0.2979 -0.2866
 5527TIP3    H138216   3.123   4.387   7.875  2.9784 -1.7240 -0.4104
 5527TIP3    H238217   3.208   4.468   7.779  1.0857 -2.0719 -2.4820
 5528TIP3   OH238218   4.619   0.112   8.198  0.2284 -0.4601  0.7171
 5528TIP3    H138219   4.713   0.100   8.187  0.4710  1.0701  0.8379
 5528TIP3    H238220   4.597   0.182   8.136 -0.3909  0.7441  2.2151
 5529TIP3   OH238221   0.102   6.658   1.686 -0.4914 -0.1730  0.2231
 5529TIP3    H138222   0.097   6.754   1.693 -0.3380 -0.0380 -1.3453
 5529TIP3    H238223   0.126   6.630   1.775  0.9597  1.3511  0.3625
 5530TIP3   OH238224   5.245   5.887   2.019 -0.3203 -0.0149  0.1029
 5530TIP3    H138225   5.224   5.911   2.110 -1.0295 -0.8366  0.1689
 5530TIP3    H238226   5.208   5.799   2.008 -1.4164  0.5748 -1.3602
 5531TIP3   OH238227   2.139   6.441   7.932  0.9900 -0.0416  0.1598
 5531TIP3    H138228   2.140   6.525   7.887 -0.7863  1.2370  2.3190
 5531TIP3    H238229   2.224   6.402   7.912  1.9016  2.2790 -0.8319
 5532TIP3   OH238230   1.591   6.270   1.537  0.3168  0.5854 -0.6626
 5532TIP3    H138231   1.557   6.309   1.457  1.1035  0.8784 -0.8711
 5532TIP3    H238232   1.655   6.334   1.569  2.1250 -0.7667 -1.3520
 5533TIP3   OH238233   4.329   2.085   6.813  0.0240  0.6590 -0.1860
 5533TIP3    H138234   4.257   2.026   6.835  1.1414  0.3018  3.2103
 5533TIP3    H238235   4.297   2.172   6.839  0.3201  0.6839  0.1107
 5534TIP3   OH238236   1.576   3.345   7.291  0.2276  0.0252 -0.2614
 5534TIP3    H138237   1.652   3.320   7.238 -0.2382 -0.4066 -0.7343
 5534TIP3    H238238   1.570   3.440   7.282  0.2207 -0.0312 -0.8921
 5535TIP3   OH238239   2.498   2.794   8.203  0.1312 -0.0385  0.4588
 5535TIP3    H138240   2.500   2.711   8.250 -1.6101 -0.9269 -0.9113
 5535TIP3    H238241   2.523   2.771   8.113  1.1947  1.2214  0.3952
 5536TIP3   OH238242   4.311   6.594   1.804 -0.0063  0.0518  0.6903
 5536TIP3    H138243   4.333   6.505   1.776  0.2254  0.1655  0.5091
 5536TIP3    H238244   4.242   6.622   1.743  2.4529  1.3788 -1.7285
 5537TIP3   OH238245   2.356   2.914   1.728  0.6916  0.0464 -0.3748
 5537TIP3    H138246   2.363   2.823   1.757 -1.1308  0.1073  0.4341
 5537TIP3    H238247   2.386   2.913   1.637 -1.6729 -1.9069 -1.2420
 5538TIP3   OH238248   2.981   0.953   8.207 -0.1174  0.0690 -0.0031
 5538TIP3    H138249   3.040   0.950   8.283 -0.9515  0.3298  0.6649
 5538TIP3    H238250   3.039   0.943   8.132  0.6937 -0.4611  0.6783
 5539TIP3   OH238251   3.567   0.543   0.876  0.2530 -0.2161 -0.0610
 5539TIP3    H138252   3.586   0.549   0.969  0.0519 -0.6226  0.0064
 5539TIP3    H238253   3.471   0.548   0.871  0.3318  2.5069 -0.4415
 5540TIP3   OH238254   0.745   2.205   6.731 -0.3373  0.0864  0.1957
 5540TIP3    H138255   0.829   2.218   6.686 -0.4063 -0.0852  0.0135
 5540TIP3    H238256   0.717   2.293   6.755  0.5521  0.0472  1.4872
 5541TIP3   OH238257   6.221   5.307   7.510  0.0166 -0.1278  0.1971
 5541TIP3    H138258   6.243   5.377   7.571  0.1398  1.0528 -1.1615
 5541TIP3    H238259   6.296   5.304   7.450 -0.3236 -0.9406 -0.1986
 5542TIP3   OH238260   5.359   5.135   6.180 -0.2603 -0.4127  0.4217
 5542TIP3    H138261   5.283   5.162   6.232 -0.3383  1.0264 -0.3736
 5542TIP3    H238262   5.434   5.159   6.234 -0.3550 -0.6531  0.6634
 5543TIP3   OH238263   6.690   3.179   7.627 -0.0140 -0.2255 -0.2584
 5543TIP3    H138264   6.704   3.170   7.532  1.6174  0.6327 -0.1435
 5543TIP3    H238265   6.671   3.272   7.639  1.0571 -0.0733  0.3706
 5544TIP3   OH238266   2.892   0.920   6.855 -0.0288 -0.5698  0.5110
 5544TIP3    H138267   2.802   0.901   6.828 -1.0831  1.6395  2.1340
 5544TIP3    H238268   2.908   0.862   6.929  0.0036 -1.1912  0.0194
 5545TIP3   OH238269   5.942   4.816   0.755  0.0544 -0.2683 -0.6509
 5545TIP3    H138270   5.914   4.885   0.815  0.3819 -0.3561 -0.3941
 5545TIP3    H238271   5.921   4.849   0.668 -2.6461 -1.1282 -0.4055
 5546TIP3   OH238272   6.663   1.112   1.972 -0.1315 -0.0841 -0.0819
 5546TIP3    H138273   6.651   1.017   1.974 -1.4439  0.0702  0.6781
 5546TIP3    H238274   6.678   1.132   1.880  0.3602 -1.0490 -0.2235
 5547TIP3   OH238275   1.616   0.796   1.714 -0.2443  0.5689  0.2700
 5547TIP3    H138276   1.690   0.855   1.697  0.3330 -0.4087 -0.7884
 5547TIP3    H238277   1.566   0.797   1.632  1.0492 -2.1120 -0.6819
 5548TIP3   OH238278   6.553   4.781   0.360  0.1072 -0.3180  0.4276
 5548TIP3    H138279   6.621   4.719   0.332  1.0037  0.5170  0.7013
 5548TIP3    H238280   6.580   4.865   0.324 -0.6491  0.0833  0.7697
 5549TIP3   OH238281   2.488   3.871   1.405 -0.4453 -0.5514  0.4567
 5549TIP3    H138282   2.544   3.943   1.377  0.2439 -1.2195  0.0728
 5549TIP3    H238283   2.399   3.898   1.381 -0.0084 -0.5690 -1.2751
 5550TIP3   OH238284   3.915   3.610   6.671  0.3337  0.2712 -0.9949
 5550TIP3    H138285   3.910   3.564   6.587  0.7630 -0.4246 -0.6440
 5550TIP3    H238286   3.990   3.571   6.716 -1.9092 -1.8993  1.2058
 5551TIP3   OH238287   4.973   4.867   8.041 -0.4168 -0.2430 -0.0130
 5551TIP3    H138288   5.055   4.835   8.079 -1.0317 -0.2128  1.3855
 5551TIP3    H238289   5.000   4.909   7.959  0.7761 -1.5417 -0.3236
 5552TIP3   OH238290   3.882   4.604   1.565 -0.2197  0.1296 -0.1882
 5552TIP3    H138291   3.972   4.572   1.574  0.2594  1.3204 -0.5621
 5552TIP3    H238292   3.863   4.596   1.471 -0.6347 -0.4479 -0.0570
 5553TIP3   OH238293   0.497   0.312   2.940 -0.2740  0.9502  0.0785
 5553TIP3    H138294   0.554   0.378   2.979 -0.0171  1.3061 -0.8651
 5553TIP3    H238295   0.466   0.260   3.014 -0.2311  1.9261  0.8118
 5554TIP3   OH238296   6.778   4.058   6.121 -0.8340 -0.0951  0.3699
 5554TIP3    H138297   6.808   4.140   6.161  1.1920  0.6465 -2.3425
 5554TIP3    H238298   6.703   4.084   6.067 -0.1784  0.0381 -0.5072
 5555TIP3   OH238299   0.394   1.965   8.044  0.3443  0.5539 -0.1781
 5555TIP3    H138300   0.350   1.886   8.012  0.1369  0.3081  0.6890
 5555TIP3    H238301   0.487   1.946   8.034  0.2966  0.1711  0.1033
 5556TIP3   OH238302   2.418   5.743   1.385  0.1324 -0.1369  0.2607
 5556TIP3    H138303   2.425   5.833   1.353 -0.1837  0.6286  2.2147
 5556TIP3    H238304   2.509   5.716   1.400  0.4517 -1.2169 -2.9220
 5557TIP3   OH238305   5.180   0.417   2.053  0.6557 -0.1184 -0.0735
 5557TIP3    H138306   5.096   0.458   2.073  0.0832 -0.2332 -1.9839
 5557TIP3    H238307   5.208   0.377   2.135 -0.1111  1.7100  1.1420
 5558TIP3   OH238308   5.963   5.283   8.217 -0.3805 -0.1946  0.0609
 5558TIP3    H138309   6.036   5.234   8.256 -0.0766 -0.8415 -1.2569
 5558TIP3    H238310   5.955   5.247   8.128 -0.6568  1.6136 -0.6920
 5559TIP3   OH238311   0.905   2.761   1.837 -0.1799 -0.3596 -0.4607
 5559TIP3    H138312   0.909   2.767   1.932 -0.9546 -0.5168 -0.4057
 5559TIP3    H238313   0.828   2.814   1.813 -0.0002 -0.3318 -0.9972
 5560TIP3   OH238314   0.870   4.154   7.389  0.9511  0.0856  0.1242
 5560TIP3    H138315   0.895   4.132   7.300  0.0191 -1.0452  0.1244
 5560TIP3    H238316   0.775   4.154   7.388  0.7541 -3.9141  1.9722
 5561TIP3   OH238317   3.630   4.272   1.751  0.1673 -0.3061 -0.5135
 5561TIP3    H138318   3.540   4.262   1.721 -0.3407 -0.0365  0.8399
 5561TIP3    H238319   3.661   4.182   1.765 -0.7247 -0.3614  1.3049
 5562TIP3   OH238320   3.782   1.255   1.159  0.4737  0.5560  0.4049
 5562TIP3    H138321   3.871   1.269   1.190  1.0625 -1.2627 -0.2848
 5562TIP3    H238322   3.785   1.279   1.066  0.8020 -1.3012 -0.1076
 5563TIP3   OH238323   5.440   3.885   7.808 -0.2007 -0.0857 -0.4429
 5563TIP3    H138324   5.362   3.850   7.764 -0.6370  1.3064 -0.8245
 5563TIP3    H238325   5.435   3.979   7.794  1.1940  0.0975  0.1408
 5564TIP3   OH238326   2.885   5.989   0.236  0.2155 -0.4082  0.0582
 5564TIP3    H138327   2.863   5.924   0.170 -0.4466 -1.2768  1.1188
 5564TIP3    H238328   2.843   5.959   0.316  0.6079  0.8728  0.7855
 5565TIP3   OH238329   4.273   3.983   1.681  0.5570 -0.0315  0.3491
 5565TIP3    H138330   4.193   4.035   1.695  0.9144  0.4798  0.5368
 5565TIP3    H238331   4.242   3.903   1.639  0.1397  0.8865 -1.1595
 5566TIP3   OH238332   5.869   2.271   0.649  0.2144 -0.3881  0.0780
 5566TIP3    H138333   5.892   2.213   0.576 -0.8093  2.0586 -2.4161
 5566TIP3    H238334   5.775   2.284   0.640  0.1954  0.5534  1.3822
 5567TIP3   OH238335   6.300   2.025   7.349  0.0299  0.0047  0.4542
 5567TIP3    H138336   6.313   1.946   7.296 -2.0233  0.8480 -1.4747
 5567TIP3    H238337   6.209   2.021   7.377  0.0160  1.4502  0.7002
 5568TIP3   OH238338   6.408   1.408   0.308 -0.2856 -0.2483 -0.0045
 5568TIP3    H138339   6.492   1.367   0.287 -0.0146 -0.7894  1.9818
 5568TIP3    H238340   6.387   1.458   0.229  2.9328  1.6513  0.1365
 5569TIP3   OH238341   3.520   3.344   6.771 -0.0472  0.1329  0.3959
 5569TIP3    H138342   3.540   3.329   6.679 -3.5904  0.0342 -0.5047
 5569TIP3    H238343   3.488   3.434   6.774 -2.9669 -0.8093  0.7975
 5570TIP3   OH238344   5.398   3.671   0.323  0.6974  0.1267  0.0590
 5570TIP3    H138345   5.460   3.739   0.351  0.5597 -0.4797  1.9756
 5570TIP3    H238346   5.328   3.674   0.388 -1.1246  0.4876 -1.7963
 5571TIP3   OH238347   0.682   1.399   8.062 -0.6207 -0.1551 -0.4031
 5571TIP3    H138348   0.648   1.446   7.985  1.3846 -0.2677 -1.4129
 5571TIP3    H238349   0.774   1.423   8.066 -0.1429 -2.0187  0.5951
 5572TIP3   OH238350   3.548   3.767   0.115  0.0051  0.5402  0.3542
 5572TIP3    H138351   3.506   3.755   0.200  0.2779  0.9226  0.5493
 5572TIP3    H238352   3.504   3.706   0.057  0.7247 -0.6966  1.0808
 5573TIP3   OH238353   4.039   1.481   0.909  0.3048  0.0684  0.1147
 5573TIP3    H138354   3.981   1.542   0.863  1.4102 -0.1014 -1.6100
 5573TIP3    H238355   4.001   1.395   0.892  0.1745  0.0831  0.3373
 5574TIP3   OH238356   4.232   4.558   2.281  0.1087 -0.2672 -0.1327
 5574TIP3    H138357   4.192   4.481   2.240  2.2568 -0.9217 -1.1050
 5574TIP3    H238358   4.314   4.526   2.318  0.3711  1.2835  0.7164
 5575TIP3   OH238359   0.459   4.492   1.670 -0.2373 -0.0201 -0.3430
 5575TIP3    H138360   0.477   4.464   1.760  0.2827  0.3953 -0.3140
 5575TIP3    H238361   0.542   4.479   1.624 -0.5994 -0.5463 -0.8423
 5576TIP3   OH238362   2.836   0.153   7.511 -0.6037  0.3225  0.3244
 5576TIP3    H138363   2.854   0.240   7.477 -0.7469 -0.1169 -0.9190
 5576TIP3    H238364   2.740   0.147   7.513 -0.5939  0.0159 -0.0618
 5577TIP3   OH238365   6.234   2.671   0.328  0.0355  0.2529  0.3721
 5577TIP3    H138366   6.176   2.638   0.397  0.2422  0.0107  0.4326
 5577TIP3    H238367   6.287   2.738   0.371 -0.8599  1.1667  0.0799
 5578TIP3   OH238368   1.451   3.496   7.547 -0.0606 -0.0248  0.4730
 5578TIP3    H138369   1.391   3.462   7.613 -1.1718 -0.7418 -0.8344
 5578TIP3    H238370   1.528   3.440   7.552  1.0289  1.5392  2.8756
 5579TIP3   OH238371   4.544   2.077   0.126 -0.2744 -0.3856  0.8859
 5579TIP3    H138372   4.451   2.086   0.143 -0.0614  2.3095  1.0022
 5579TIP3    H238373   4.571   2.162   0.092  2.2224 -0.9593  1.2160
 5580TIP3   OH238374   2.334   3.993   8.294  0.4703  1.2244  0.2754
 5580TIP3    H138375   2.375   4.067   8.249  0.4798  1.4836  0.7044
 5580TIP3    H238376   2.403   3.926   8.298 -0.1894  0.2867 -2.1340
 5581TIP3   OH238377   3.618   6.355   2.040 -0.4817 -0.4403 -0.2905
 5581TIP3    H138378   3.689   6.304   2.078 -1.5135 -1.7938 -0.0793
 5581TIP3    H238379   3.538   6.314   2.075 -1.3721  1.0203 -0.5205
 5582TIP3   OH238380   1.555   3.358   1.158 -0.6560 -0.6615  0.0617
 5582TIP3    H138381   1.560   3.297   1.085  0.2176  1.6155 -1.9343
 5582TIP3    H238382   1.461   3.370   1.173 -0.8998 -0.1822 -1.6342
 5583TIP3   OH238383   6.196   5.287   0.168  0.5801 -0.2050 -0.4606
 5583TIP3    H138384   6.177   5.237   0.247 -0.4567  0.7715 -0.0545
 5583TIP3    H238385   6.251   5.230   0.115 -0.3932 -1.6821  0.0679
 5584TIP3   OH238386   6.638   0.511   7.034 -0.1222 -0.4301  0.2720
 5584TIP3    H138387   6.690   0.560   6.971  1.6102 -0.6834  1.4271
 5584TIP3    H238388   6.558   0.563   7.045  0.9654  1.3040  0.2931
 5585TIP3   OH238389   0.687   2.465   7.027  0.0713 -0.2278 -0.6433
 5585TIP3    H138390   0.672   2.476   6.933 -0.3283  1.9671 -0.3976
 5585TIP3    H238391   0.781   2.481   7.039  0.0731 -0.2352 -0.6485
 5586TIP3   OH238392   3.585   3.481   0.473 -0.3228  0.0780  0.6806
 5586TIP3    H138393   3.527   3.507   0.544 -2.6253  1.3900 -1.5009
 5586TIP3    H238394   3.531   3.424   0.418  0.6699  0.7418 -1.0732
 5587TIP3   OH238395   6.349   3.650   0.021  0.2700  0.0529  0.6455
 5587TIP3    H138396   6.301   3.579   0.064 -0.6816 -0.0764 -0.5766
 5587TIP3    H238397   6.290   3.725   0.025  0.5798  0.3094  0.4551
 5588TIP3   OH238398   4.060   2.147   2.599 -0.0667 -0.1237 -0.9871
 5588TIP3    H138399   4.110   2.135   2.518  0.5099  0.4923 -0.7276
 5588TIP3    H238400   4.090   2.077   2.657 -0.7245 -0.7719 -1.4161
 5589TIP3   OH238401   5.339   1.157   2.042 -0.3085 -0.0020  0.6790
 5589TIP3    H138402   5.292   1.089   1.993  0.8308 -0.6534  0.4607
 5589TIP3    H238403   5.358   1.117   2.127 -2.5861  1.2458  1.8624
 5590TIP3   OH238404   4.029   1.495   0.207  0.5682  0.1092 -0.0377
 5590TIP3    H138405   4.112   1.471   0.165  0.2330 -1.1067 -0.0530
 5590TIP3    H238406   4.055   1.522   0.295  0.9653 -0.6557  0.0962
 5591TIP3   OH238407   4.348   2.957   0.550  0.2301  0.3798  0.6767
 5591TIP3    H138408   4.284   2.945   0.480 -1.2531  0.8731  1.8851
 5591TIP3    H238409   4.332   2.884   0.610 -0.5004  1.4895  1.9042
 5592TIP3   OH238410   1.472   1.953   1.326  0.4285  0.2705  0.0802
 5592TIP3    H138411   1.478   2.034   1.275  0.4184  0.2991  0.1246
 5592TIP3    H238412   1.444   1.887   1.262 -1.2955  0.6537  0.3876
 5593TIP3   OH238413   5.017   0.391   2.881 -0.4533  0.1021  0.8315
 5593TIP3    H138414   4.922   0.389   2.863 -0.1949  2.1304 -1.2757
 5593TIP3    H238415   5.027   0.457   2.949 -0.4711  0.8152  0.1536
 5594TIP3   OH238416   2.727   1.254   7.533  0.1320  0.4339  0.4138
 5594TIP3    H138417   2.663   1.318   7.564 -0.8622  0.0425 -0.7453
 5594TIP3    H238418   2.792   1.306   7.486  0.4184  0.7868  1.1852
 5595TIP3   OH238419   5.404   2.604   1.468 -0.2101  0.9290 -0.3498
 5595TIP3    H138420   5.380   2.644   1.552 -0.1808  0.6417 -0.2029
 5595TIP3    H238421   5.460   2.669   1.425  0.4590  0.7307  0.2137
 5596TIP3   OH238422   1.077   6.089   2.005  0.2266 -0.6912  0.3671
 5596TIP3    H138423   0.986   6.090   1.975  0.2656 -0.4053  0.2551
 5596TIP3    H238424   1.114   6.009   1.968 -0.3179 -1.4524  1.4251
 5597TIP3   OH238425   6.134   3.391   1.358 -0.0097  0.2163  0.1344
 5597TIP3    H138426   6.096   3.316   1.404 -0.3861  0.0085 -0.4980
 5597TIP3    H238427   6.119   3.372   1.266 -1.3284  1.7087 -0.0016
 5598TIP3   OH238428   0.037   4.674   1.505  0.4874  0.2419 -0.1419
 5598TIP3    H138429   0.077   4.592   1.532 -1.7369 -0.8915 -0.0796
 5598TIP3    H238430   0.064   4.686   1.414 -0.0209 -1.1251 -0.4848
 5599TIP3   OH238431   1.319   6.303   8.174  0.4786  0.3802 -0.3875
 5599TIP3    H138432   1.285   6.392   8.189  0.6944  0.2286  1.1994
 5599TIP3    H238433   1.412   6.316   8.158  0.4768  0.4650 -0.3330
 5600TIP3   OH238434   5.210   6.040   6.853  0.4076 -0.1550  0.4652
 5600TIP3    H138435   5.299   6.022   6.820  0.2364 -0.0407 -0.0594
 5600TIP3    H238436   5.225   6.078   6.940  0.9660  1.8107 -0.4343
 5601TIP3   OH238437   4.748   1.287   1.377  0.8162  0.1600 -0.0758
 5601TIP3    H138438   4.792   1.276   1.293  0.1266 -0.2871 -0.3884
 5601TIP3    H238439   4.774   1.374   1.407  0.0358  0.8631 -1.3726
 5602TIP3   OH238440   2.922   1.710   0.441 -0.0556 -0.4940 -0.4006
 5602TIP3    H138441   2.957   1.638   0.493  1.5447  0.2105 -0.4320
 5602TIP3    H238442   2.846   1.741   0.491 -0.8260 -2.2174 -0.4406
 5603TIP3   OH238443   1.380   2.324   0.736  0.1595  0.1832  0.1365
 5603TIP3    H138444   1.289   2.354   0.737 -0.4265 -1.4625  0.6263
 5603TIP3    H238445   1.387   2.271   0.657  0.8198  0.6516 -0.1245
 5604TIP3   OH238446   2.576   6.224   1.771  0.4178  0.7490  0.3508
 5604TIP3    H138447   2.581   6.294   1.705  3.6576  0.8563  0.5612
 5604TIP3    H238448   2.645   6.245   1.833  1.3210 -2.4744  0.5963
 5605TIP3   OH238449   6.410   4.733   0.113 -0.6095 -0.0032 -1.2442
 5605TIP3    H138450   6.330   4.686   0.136  0.2642 -0.5643  0.8576
 5605TIP3    H238451   6.428   4.788   0.189  1.2151 -0.2015 -1.4985
 5606TIP3   OH238452   2.023   5.658   0.721  0.5535  0.0794 -0.1717
 5606TIP3    H138453   2.002   5.716   0.794  0.5808  1.9043 -1.5309
 5606TIP3    H238454   1.940   5.618   0.696  0.5533 -0.5829  0.8510
 5607TIP3   OH238455   2.331   2.215   1.477  0.4253  0.2924 -0.5383
 5607TIP3    H138456   2.238   2.231   1.495  0.3204 -2.6644  2.6852
 5607TIP3    H238457   2.331   2.137   1.422  0.9340 -0.5344  0.5896
 5608TIP3   OH238458   0.544   5.374   1.524 -0.1536  0.5204  0.2285
 5608TIP3    H138459   0.455   5.353   1.551 -1.1249  2.6761 -1.0322
 5608TIP3    H238460   0.577   5.294   1.484 -1.5135 -0.3155  0.7262
 5609TIP3   OH238461   4.499   4.549   8.090 -0.7574 -0.2893 -0.3887
 5609TIP3    H138462   4.483   4.476   8.150 -0.9051 -0.6231 -0.8337
 5609TIP3    H238463   4.581   4.588   8.122 -0.5740 -0.7663 -0.2660
 5610TIP3   OH238464   5.836   6.491   7.482  0.2203 -0.1769 -0.0978
 5610TIP3    H138465   5.922   6.521   7.513  0.2726 -1.3351  0.9530
 5610TIP3    H238466   5.790   6.464   7.562 -1.7762  1.9569 -0.4184
 5611TIP3   OH238467   1.870   6.205   0.732  0.3527  0.1106 -0.1697
 5611TIP3    H138468   1.943   6.211   0.794  1.3948 -1.4442 -1.1836
 5611TIP3    H238469   1.801   6.160   0.781  0.3491  0.8508  0.5323
 5612TIP3   OH238470   6.517   6.133   0.309 -0.0414 -0.1270  0.9779
 5612TIP3    H138471   6.586   6.200   0.317  0.1629 -0.0926 -0.7702
 5612TIP3    H238472   6.565   6.050   0.311 -0.0173 -0.1265  0.4622
 5613TIP3   OH238473   4.459   5.322   1.547 -0.3976 -0.2976 -0.6155
 5613TIP3    H138474   4.415   5.320   1.462  0.1952 -2.2254 -0.9410
 5613TIP3    H238475   4.391   5.299   1.610 -1.0209  1.8695 -0.4051
 5614TIP3   OH238476   5.672   4.004   0.268  0.0249 -0.1241  0.0300
 5614TIP3    H138477   5.607   3.958   0.321  0.1349  0.2752  0.5166
 5614TIP3    H238478   5.714   4.066   0.328 -1.0905  1.6270 -0.9216
 5615TIP3   OH238479   1.380   5.768   0.585  0.0701 -0.5952 -0.2583
 5615TIP3    H138480   1.323   5.728   0.650  2.8073  0.4322  3.0387
 5615TIP3    H238481   1.337   5.850   0.562 -0.2688 -0.2616  1.4600
 5616TIP3   OH238482   1.390   2.668   1.388 -0.3277 -0.5079  0.2387
 5616TIP3    H138483   1.456   2.736   1.404 -0.4878 -0.2352 -0.2226
 5616TIP3    H238484   1.307   2.708   1.415 -0.3890 -0.6115  0.2042
 5617TIP3   OH238485   0.435   0.122   2.097 -0.1428 -0.4986 -0.0350
 5617TIP3    H138486   0.422   0.214   2.121  1.9315 -0.4446  1.1021
 5617TIP3    H238487   0.480   0.084   2.173 -0.2029 -2.2630 -0.8377
 5618TIP3   OH238488   5.720   6.709   8.012  0.1470 -0.5101  0.1777
 5618TIP3    H138489   5.675   6.780   7.966  0.0185  0.3371  1.5483
 5618TIP3    H238490   5.660   6.635   8.006 -0.8203  0.1931  0.7547
 5619TIP3   OH238491   1.637   2.245   2.248 -0.0766  0.3141  0.6098
 5619TIP3    H138492   1.730   2.223   2.236 -0.2058 -0.4630  0.9838
 5619TIP3    H238493   1.633   2.279   2.337 -0.5678 -2.1467  1.6039
 5620TIP3   OH238494   0.728   1.440   1.269 -0.3994 -0.0911 -0.1188
 5620TIP3    H138495   0.791   1.465   1.200  0.1655 -0.1410  0.3671
 5620TIP3    H238496   0.669   1.515   1.275  0.8823  0.8942  0.8676
 5621TIP3   OH238497   2.297   1.088   1.177 -0.4658 -0.2492 -0.4232
 5621TIP3    H138498   2.244   1.128   1.246  0.3420  1.9758 -0.9925
 5621TIP3    H238499   2.285   0.994   1.188 -1.5166  0.0907  1.8079
 5622TIP3   OH238500   2.634   0.276   1.390  0.0059 -0.2161  0.3256
 5622TIP3    H138501   2.646   0.305   1.481 -0.1436 -0.7469  0.5226
 5622TIP3    H238502   2.539   0.273   1.379  0.0068 -0.9112  0.4133
 5623TIP3   OH238503   1.397   2.465   7.948 -0.6550 -0.0960  0.2403
 5623TIP3    H138504   1.448   2.385   7.960 -0.4287  0.1509  1.0622
 5623TIP3    H238505   1.306   2.437   7.956 -0.5452 -0.0488  2.3042
 5624TIP3   OH238506   6.672   0.821   1.201 -0.0500  0.5332  0.0278
 5624TIP3    H138507   6.645   0.879   1.130 -0.4048  0.7941  0.3714
 5624TIP3    H238508   6.666   0.874   1.280 -3.6769 -0.8275  0.8622
 5625TIP3   OH238509   1.359   0.480   2.621 -0.0510 -0.0402 -0.2351
 5625TIP3    H138510   1.429   0.544   2.607  1.0930 -0.7886  1.7546
 5625TIP3    H238511   1.279   0.531   2.615  0.6443  0.9340 -2.0572
 5626TIP3   OH238512   3.900   0.552   1.034  0.2323  0.0024  0.1485
 5626TIP3    H138513   3.979   0.518   0.991  0.9816  1.3007  0.4364
 5626TIP3    H238514   3.866   0.478   1.083  1.2694 -0.5898  0.0097
 5627TIP3   OH238515   0.307   0.322   2.456  0.4374 -0.1759 -0.7612
 5627TIP3    H138516   0.343   0.307   2.543 -1.9139 -1.5517  0.0478
 5627TIP3    H238517   0.377   0.370   2.410  2.0588 -0.0955  1.5771
 5628TIP3   OH238518   5.915   3.662   8.491 -0.1035 -0.4739  0.3262
 5628TIP3    H138519   5.921   3.635   8.399  0.9610  0.4934  0.0964
 5628TIP3    H238520   5.854   3.736   8.490  2.4240  1.7447 -0.1697
 5629TIP3   OH238521   1.573   4.580   1.891 -0.9637 -0.5660  0.3178
 5629TIP3    H138522   1.523   4.574   1.810 -0.3205 -0.8107 -0.0692
 5629TIP3    H238523   1.569   4.673   1.914  1.6487  0.2294 -1.8423
 5630TIP3   OH238524   1.830   0.144   7.567 -0.6026 -0.2747 -0.0045
 5630TIP3    H138525   1.786   0.135   7.651  2.6671 -1.7514  1.7297
 5630TIP3    H238526   1.835   0.239   7.553 -5.4428  0.1051 -1.2121
 5631TIP3   OH238527   4.752   1.485   8.047 -0.4092 -0.2722  0.4728
 5631TIP3    H138528   4.733   1.453   7.959 -2.7939  0.9159  0.4886
 5631TIP3    H238529   4.789   1.409   8.093 -2.1456 -1.8477 -0.6091
 5632TIP3   OH238530   3.221   3.517   7.568  0.4504 -0.0249 -0.2434
 5632TIP3    H138531   3.249   3.607   7.551 -3.5608  1.8770  1.9297
 5632TIP3    H238532   3.263   3.494   7.651 -0.2391  0.7683  0.3405
 5633TIP3   OH238533   1.365   2.153   7.612  0.1359 -0.7753  0.1326
 5633TIP3    H138534   1.410   2.211   7.674 -1.5284 -0.1786  0.8418
 5633TIP3    H238535   1.434   2.095   7.579  1.1543 -0.8497  2.2220
 5634TIP3   OH238536   3.701   1.144   8.171  0.6587  0.6125 -0.5551
 5634TIP3    H138537   3.723   1.237   8.175  0.7677  0.6240 -1.3025
 5634TIP3    H238538   3.610   1.142   8.142  1.0191  0.4672 -1.7173
 5635TIP3   OH238539   1.527   1.428   6.828 -0.2267 -0.0898  0.2931
 5635TIP3    H138540   1.468   1.503   6.812  0.0535  0.4092  1.5149
 5635TIP3    H238541   1.468   1.357   6.855 -0.2441  0.6103  2.2084
 5636TIP3   OH238542   5.295   4.140   2.091  0.1253 -0.3609  0.1342
 5636TIP3    H138543   5.204   4.153   2.066  0.1486  1.6593  0.9504
 5636TIP3    H238544   5.342   4.132   2.008 -0.7842 -1.6757 -0.2893
 5637TIP3   OH238545   5.617   4.385   0.922  0.2082  1.2334  0.4198
 5637TIP3    H138546   5.633   4.327   0.848  0.5518  0.9666  0.7021
 5637TIP3    H238547   5.641   4.333   0.999 -0.3565  1.4295  0.7364
 5638TIP3   OH238548   0.814   3.994   0.129  0.0988 -0.1882 -0.4009
 5638TIP3    H138549   0.792   3.912   0.085  1.6451 -0.3055 -1.0090
 5638TIP3    H238550   0.896   3.976   0.174 -0.4446  0.5293  0.9228
 5639TIP3   OH238551   3.071   0.463   0.208  0.4254  0.8029  0.4373
 5639TIP3    H138552   2.990   0.509   0.185 -0.3910 -1.0539 -0.7076
 5639TIP3    H238553   3.060   0.441   0.300 -0.8115 -0.1604  0.0965
 5640TIP3   OH238554   5.079   0.235   0.226 -0.0584  0.1121  0.1476
 5640TIP3    H138555   5.128   0.184   0.162 -1.3257 -0.5676 -0.3164
 5640TIP3    H238556   5.060   0.318   0.181  0.5028  0.3217  0.2793
 5641TIP3   OH238557   5.209   2.194   1.293 -0.0123 -0.3784 -1.0337
 5641TIP3    H138558   5.180   2.130   1.228 -0.0270 -0.6755 -0.7406
 5641TIP3    H238559   5.153   2.270   1.279 -1.8307 -1.3866  0.3333
 5642TIP3   OH238560   3.165   2.578   0.207 -0.0478 -0.4645 -0.2639
 5642TIP3    H138561   3.121   2.650   0.252 -0.7985 -0.0246 -1.6659
 5642TIP3    H238562   3.130   2.499   0.249  0.8988 -0.0706  1.3927
 5643TIP3   OH238563   0.954   2.740   8.115 -0.0272  0.6182  0.2570
 5643TIP3    H138564   0.883   2.768   8.056 -0.6834 -0.4394  0.5089
 5643TIP3    H238565   0.921   2.658   8.153  2.6636 -1.8189 -2.1376
 5644TIP3   OH238566   4.128   3.936   8.166 -0.6318 -0.3279  0.3253
 5644TIP3    H138567   4.039   3.966   8.144 -0.8284 -1.3036 -0.3113
 5644TIP3    H238568   4.114   3.868   8.233 -0.3813 -0.5576  0.1476
 5645TIP3   OH238569   1.142   4.900   0.445  0.1960  0.0632  0.5521
 5645TIP3    H138570   1.202   4.959   0.491  0.1696  1.0611 -0.6542
 5645TIP3    H238571   1.055   4.935   0.465  0.2383  1.4378 -1.4212
 5646TIP3   OH238572   3.241   3.450   1.120 -0.4291 -0.0812  0.4026
 5646TIP3    H138573   3.175   3.381   1.130 -1.3200  0.5904 -0.5673
 5646TIP3    H238574   3.193   3.523   1.081  0.7081  0.7535  0.5210
 5647TIP3   OH238575   2.953   2.998   8.309 -0.2118  0.0312  0.0017
 5647TIP3    H138576   3.032   3.016   8.258 -0.4632 -1.5450 -1.0177
 5647TIP3    H238577   2.980   3.007   8.400  1.5981 -2.0378 -0.2625
 5648TIP3   OH238578   5.566   3.360   7.987  0.0311 -0.4411 -0.2370
 5648TIP3    H138579   5.593   3.314   7.907  3.1613  0.4334  0.1711
 5648TIP3    H238580   5.649   3.387   8.028 -1.5069  0.2746  2.6520
 5649TIP3   OH238581   5.171   0.946   0.094  0.4104  0.3772 -0.0134
 5649TIP3    H138582   5.206   0.937   0.005  1.4747 -0.3858  0.4660
 5649TIP3    H238583   5.199   1.033   0.122  0.2953  0.5156 -0.3121
 5650TIP3   OH238584   1.515   5.703   0.878  0.2076  0.4272 -0.0362
 5650TIP3    H138585   1.514   5.618   0.922  1.6157  0.9387  1.0400
 5650TIP3    H238586   1.433   5.705   0.828  0.4051 -1.7733 -0.5420
 5651TIP3   OH238587   2.178   4.895   8.346  0.2489  0.3946  0.5694
 5651TIP3    H138588   2.195   4.989   8.337 -0.2552  0.4577  0.2214
 5651TIP3    H238589   2.084   4.886   8.330  0.4802 -0.2976 -0.5256
 5652TIP3   OH238590   5.097   3.544   1.887  0.3707  0.3082 -0.2965
 5652TIP3    H138591   5.023   3.537   1.947 -0.2433  3.3113 -0.5151
 5652TIP3    H238592   5.174   3.527   1.942 -0.3729 -1.8950  0.1500
 5653TIP3   OH238593   0.031   0.808   0.001 -0.2005 -0.7457 -1.0289
 5653TIP3    H138594   0.003   0.860  -0.074  1.2292 -2.0372 -2.5362
 5653TIP3    H238595   0.123   0.790  -0.015  0.1440 -1.1295  1.0387
 5654TIP3   OH238596   0.274   1.820   0.704 -0.1661  0.0138 -0.3056
 5654TIP3    H138597   0.232   1.734   0.714  1.7660 -0.9866 -0.2757
 5654TIP3    H238598   0.366   1.804   0.724  0.5897  1.7062 -2.0841
 5655TIP3   OH238599   6.107   3.434   7.874  0.3354  0.2160 -0.2593
 5655TIP3    H138600   6.092   3.525   7.900 -0.0409  0.5920 -1.6640
 5655TIP3    H238601   6.021   3.404   7.843  0.9040  0.0832 -1.7936
 5656TIP3   OH238602   3.039   3.926   1.137 -0.0383 -0.2167  0.0863
 5656TIP3    H138603   3.050   3.976   1.056  1.0804  1.5886  1.2637
 5656TIP3    H238604   2.945   3.909   1.142 -0.7656  3.2049  0.3328
 5657TIP3   OH238605   0.719   5.449   0.885  0.0288 -0.4604  0.1236
 5657TIP3    H138606   0.738   5.373   0.830 -0.7590 -1.2451  0.8858
 5657TIP3    H238607   0.782   5.442   0.957 -0.9035 -1.1872  0.9049
 5658TIP3   OH238608   2.683   2.003   7.094  0.0906  0.4007  0.1195
 5658TIP3    H138609   2.750   2.052   7.047  0.5927  1.2152  1.6208
 5658TIP3    H238610   2.645   2.066   7.155 -1.8831 -0.1125 -0.5138
 5659TIP3   OH238611   6.710   4.926   7.763 -0.1035  0.3257 -0.1512
 5659TIP3    H138612   6.643   4.876   7.810  0.9748 -0.7893  0.2874
 5659TIP3    H238613   6.793   4.886   7.792  0.8645  2.7736  0.6711
 5660TIP3   OH238614   4.974   1.408   6.744  0.5805  0.2717  0.4343
 5660TIP3    H138615   5.069   1.415   6.753  0.3231  2.1199  2.4190
 5660TIP3    H238616   4.950   1.333   6.798  0.8387  0.2252  0.4837
 5661TIP3   OH238617   4.224   2.730   2.780  0.3962 -0.5494 -0.4416
 5661TIP3    H138618   4.180   2.813   2.763  1.5923 -0.2444 -2.3665
 5661TIP3    H238619   4.171   2.688   2.848  0.7472  2.5621  2.0109
 5662TIP3   OH238620   2.337   4.347   8.575  0.0451 -0.4819  0.3645
 5662TIP3    H138621   2.390   4.322   8.499 -1.2914 -1.8851 -0.1787
 5662TIP3    H238622   2.298   4.431   8.551 -1.5663 -1.6051 -1.2262
 5663TIP3   OH238623   4.854   0.911   7.460 -0.0943 -0.2223  0.3135
 5663TIP3    H138624   4.820   0.984   7.409 -1.3261 -0.9157  0.1140
 5663TIP3    H238625   4.940   0.940   7.490 -1.4466  2.2414  2.1607
 5664TIP3   OH238626   1.434   3.542   1.466 -0.0101 -0.1300 -0.2391
 5664TIP3    H138627   1.474   3.629   1.471  0.7588 -0.4787 -0.0682
 5664TIP3    H238628   1.416   3.520   1.557 -0.7942  0.1040 -0.3294
 5665TIP3   OH238629   5.892   1.709   0.418  0.5009 -0.5516  0.5189
 5665TIP3    H138630   5.859   1.762   0.345  0.1425  1.3103  1.9791
 5665TIP3    H238631   5.938   1.771   0.475  1.2558 -2.0566  1.6242
 5666TIP3   OH238632   1.611   0.321   7.345 -0.2422  0.3176  0.0681
 5666TIP3    H138633   1.613   0.381   7.271 -1.7642 -0.7855 -0.9303
 5666TIP3    H238634   1.578   0.239   7.309  2.2560 -1.3207  1.2783
 5667TIP3   OH238635   4.789   1.039   7.213  0.5586  0.5507  0.0438
 5667TIP3    H138636   4.828   0.998   7.136 -2.3655 -2.4714 -0.0805
 5667TIP3    H238637   4.716   1.090   7.179  0.3066  0.6335  0.6863
 5668TIP3   OH238638   6.287   4.688   7.395 -0.1197  0.3546  0.0716
 5668TIP3    H138639   6.263   4.623   7.329  0.4118  0.6196 -0.3958
 5668TIP3    H238640   6.205   4.712   7.437 -0.4963  0.3171 -0.6263
 5669TIP3   OH238641   4.913   5.349   1.076  1.0048  0.2773  0.0072
 5669TIP3    H138642   4.950   5.263   1.053 -0.3909 -0.1611 -0.6712
 5669TIP3    H238643   4.987   5.397   1.112  2.0440 -0.8749 -0.5036
 5670TIP3   OH238644   5.979   1.889   0.648  0.2232  0.1664  0.1078
 5670TIP3    H138645   5.957   1.932   0.730  1.7476  0.8280  0.2036
 5670TIP3    H238646   6.065   1.925   0.624  0.7526 -1.5305 -0.7113
 5671TIP3   OH238647   6.511   0.508   7.820  0.3847  0.0006 -0.9259
 5671TIP3    H138648   6.441   0.572   7.805  0.3093 -0.1751 -1.3544
 5671TIP3    H238649   6.562   0.509   7.738  0.4556 -0.3928 -0.8896
 5672TIP3   OH238650   0.591   2.899   0.967 -0.5810 -0.7431 -0.4380
 5672TIP3    H138651   0.591   2.845   1.046  1.0587 -1.1624 -0.6995
 5672TIP3    H238652   0.500   2.894   0.936 -0.7661 -2.3361  0.2344
 5673TIP3   OH238653   4.366   4.273   6.653 -0.1391  0.2308 -0.1380
 5673TIP3    H138654   4.352   4.189   6.697  1.6447  0.3311  0.7256
 5673TIP3    H238655   4.341   4.256   6.562 -0.9997 -0.8689  0.2756
 5674TIP3   OH238656   3.841   6.249   7.891 -0.1867  0.3204 -0.0285
 5674TIP3    H138657   3.752   6.213   7.894 -0.7717  1.5702 -1.4209
 5674TIP3    H238658   3.861   6.271   7.983 -1.6919  0.9028  0.1882
 5675TIP3   OH238659   0.146   2.024   0.610 -0.0368 -0.0902  0.5851
 5675TIP3    H138660   0.183   1.942   0.642  0.1624 -0.2436 -0.0153
 5675TIP3    H238661   0.117   2.004   0.520 -0.6528  0.3013  0.6904
 5676TIP3   OH238662   6.127   0.706   2.012 -0.1417  0.0280  0.3151
 5676TIP3    H138663   6.215   0.669   2.008 -1.1028 -2.3970 -0.2310
 5676TIP3    H238664   6.138   0.788   2.060  2.5828  0.4466 -0.8060
 5677TIP3   OH238665   6.592   3.414   0.147  0.0318 -0.4645 -0.1138
 5677TIP3    H138666   6.535   3.379   0.078  0.0657  0.1657 -0.4766
 5677TIP3    H238667   6.591   3.509   0.132  0.2299 -0.3431  0.6136
 5678TIP3   OH238668   6.564   6.254   7.771 -0.0060 -0.4075  0.5444
 5678TIP3    H138669   6.634   6.312   7.801  0.1391 -0.3825  0.1596
 5678TIP3    H238670   6.572   6.254   7.676 -1.6324  0.9888  0.3499
 5679TIP3   OH238671   2.611   1.446   1.615  0.4911 -0.0655 -0.1538
 5679TIP3    H138672   2.625   1.515   1.680 -0.4480 -0.6260  0.6627
 5679TIP3    H238673   2.651   1.481   1.535  0.3351  1.2802  0.3273
 5680TIP3   OH238674   0.592   3.327   7.578 -0.4489 -0.4937  0.3978
 5680TIP3    H138675   0.539   3.373   7.643 -0.2720 -1.4720  1.2522
 5680TIP3    H238676   0.675   3.375   7.577 -0.7927  0.1151  0.1614
 5681TIP3   OH238677   2.278   2.192   0.315 -0.2042 -0.6396 -0.8339
 5681TIP3    H138678   2.238   2.200   0.401  0.9754 -2.1836 -0.0916
 5681TIP3    H238679   2.291   2.283   0.286  2.5984  0.1064  2.1901
 5682TIP3   OH238680   2.097   0.089   8.519 -0.1322 -0.4223 -0.3329
 5682TIP3    H138681   2.111   0.060   8.609 -0.6954  0.8382  0.1888
 5682TIP3    H238682   2.013   0.135   8.521 -1.8223 -3.0986 -2.2167
 5683TIP3   OH238683   3.348   5.564   0.545  0.1738 -0.1504  0.4546
 5683TIP3    H138684   3.416   5.574   0.478 -1.6084  0.5610 -1.3273
 5683TIP3    H238685   3.361   5.639   0.603 -1.1595  2.0482 -1.8781
 5684TIP3   OH238686   5.821   6.435   2.311 -0.8202  0.2502  0.0914
 5684TIP3    H138687   5.822   6.517   2.262  1.5811  0.2447  0.0270
 5684TIP3    H238688   5.755   6.449   2.379  1.2341  3.2254  1.6685
 5685TIP3   OH238689   2.370   3.986   1.139 -0.2264 -0.2524  0.4767
 5685TIP3    H138690   2.399   4.029   1.219 -3.1513 -0.1309  1.5864
 5685TIP3    H238691   2.277   4.005   1.134 -0.5478 -2.0028 -1.8823
 5686TIP3   OH238692   2.044   3.654   8.488 -0.1009 -0.3021 -0.2206
 5686TIP3    H138693   2.036   3.709   8.566 -0.8726  0.0248 -0.5187
 5686TIP3    H238694   2.126   3.682   8.447  0.6579 -0.9359  0.8073
 5687TIP3   OH238695   4.360   1.888   2.220 -0.0084  0.1774 -0.4542
 5687TIP3    H138696   4.275   1.885   2.264  0.4840 -0.4183  0.4911
 5687TIP3    H238697   4.420   1.926   2.284  0.3050  1.3126 -1.3826
 5688TIP3   OH238698   2.965   1.007   7.812 -0.1580  0.2134 -0.3106
 5688TIP3    H138699   2.957   0.911   7.812 -0.9942  0.2680 -1.3151
 5688TIP3    H238700   2.894   1.037   7.756  0.4532  1.4002 -0.4836
 5689TIP3   OH238701   5.588   1.508   1.541  0.2058 -0.1531  0.0283
 5689TIP3    H138702   5.583   1.548   1.628  2.0319 -0.3842  0.2781
 5689TIP3    H238703   5.589   1.582   1.480 -1.1290  0.0083  0.1720
 5690TIP3   OH238704   4.299   5.643   1.454  0.5691  0.2594 -0.0407
 5690TIP3    H138705   4.300   5.580   1.527 -1.0307 -0.6598 -0.7632
 5690TIP3    H238706   4.379   5.694   1.466  0.5327 -0.0908  2.1563
 5691TIP3   OH238707   2.397   2.227   7.847 -0.0269 -0.0022  0.4415
 5691TIP3    H138708   2.350   2.231   7.930 -2.2123  0.4461 -0.7349
 5691TIP3    H238709   2.425   2.135   7.840 -2.0015 -0.6743  0.5899
 5692TIP3   OH238710   5.961   2.832   0.537  0.1500 -0.5502 -0.2715
 5692TIP3    H138711   5.884   2.802   0.488 -0.7900 -0.0256  0.8288
 5692TIP3    H238712   5.931   2.836   0.628  0.5762  2.4235 -0.1704
 5693TIP3   OH238713   2.329   6.610   2.666 -0.1520 -0.3707  0.0095
 5693TIP3    H138714   2.343   6.683   2.605  0.8170 -1.7546 -1.5106
 5693TIP3    H238715   2.270   6.552   2.619 -0.0182 -1.1019  0.7323
 5694TIP3   OH238716   6.445   3.994   7.235  0.1312 -0.3852 -0.6250
 5694TIP3    H138717   6.478   3.985   7.324 -0.6078  0.2235 -0.2762
 5694TIP3    H238718   6.496   4.065   7.197  2.4874 -2.4788 -1.7112
 5695TIP3   OH238719   6.168   4.858   6.011 -0.2453 -0.1040 -0.4910
 5695TIP3    H138720   6.225   4.899   6.077  0.3661 -0.0497 -1.0435
 5695TIP3    H238721   6.080   4.861   6.050 -0.2308  1.7634 -0.5364
 5696TIP3   OH238722   4.013   1.793   0.185  0.1734  0.4641  0.2337
 5696TIP3    H138723   3.981   1.707   0.159 -0.3287  0.4235  0.9602
 5696TIP3    H238724   4.098   1.801   0.143  0.5255 -0.6594  0.7043
 5697TIP3   OH238725   3.288   1.619   1.225  0.0464  0.2678 -0.1773
 5697TIP3    H138726   3.217   1.605   1.164 -1.0174  0.2548  1.0196
 5697TIP3    H238727   3.288   1.542   1.281 -0.3828  1.1964  1.1559
 5698TIP3   OH238728   6.906   5.784   6.310  0.6317  0.5447  0.2140
 5698TIP3    H138729   6.980   5.757   6.365  0.9652  1.9636  0.4862
 5698TIP3    H238730   6.854   5.704   6.299  1.1001 -0.0021  1.7441
 5699TIP3   OH238731   3.402   3.191   6.959 -0.2771 -0.4543  0.0818
 5699TIP3    H138732   3.437   3.237   6.883  0.0900 -1.3914 -0.3370
 5699TIP3    H238733   3.386   3.259   7.023 -1.7525  0.5249 -1.2592
 5700TIP3   OH238734   6.214   1.611   2.434  0.0469 -0.2358  0.1906
 5700TIP3    H138735   6.251   1.554   2.367  0.2215  0.5995 -0.4388
 5700TIP3    H238736   6.269   1.689   2.432 -0.4211  0.1180  0.7721
 5701TIP3   OH238737   0.284   3.621   8.409 -0.0972  0.7070  0.4190
 5701TIP3    H138738   0.353   3.632   8.343  1.5655 -0.5913  1.8488
 5701TIP3    H238739   0.227   3.553   8.374 -0.6739  1.7420 -0.7429
 5702TIP3   OH238740   1.004   4.441   7.318 -0.1552  0.1443 -0.4886
 5702TIP3    H138741   1.064   4.439   7.244 -0.8010  0.8088 -1.0533
 5702TIP3    H238742   0.918   4.424   7.279 -0.5373  0.7818  0.0595
 5703TIP3   OH238743   1.549   1.771   2.804 -0.0010 -0.0849  0.3827
 5703TIP3    H138744   1.561   1.710   2.877 -1.7161  0.4913  1.2094
 5703TIP3    H238745   1.467   1.744   2.763 -0.5415  1.3343  0.4679
 5704TIP3   OH238746   6.473   3.307   0.977  0.3895  0.3947  0.2482
 5704TIP3    H138747   6.526   3.326   1.055  1.4152  0.1570 -0.3749
 5704TIP3    H238748   6.496   3.376   0.915  0.9543 -0.4452 -0.4957
 5705TIP3   OH238749   5.887   4.999   1.336  0.7318 -0.3332  0.0523
 5705TIP3    H138750   5.878   5.061   1.408 -0.0073 -1.2340  0.7635
 5705TIP3    H238751   5.824   4.929   1.356 -0.3485 -0.0564 -2.0529
 5706TIP3   OH238752   3.841   4.154   8.375 -0.3317  0.2710  0.1736
 5706TIP3    H138753   3.822   4.179   8.285 -1.5603  0.1717  0.3778
 5706TIP3    H238754   3.841   4.059   8.375 -0.0464  0.2712  0.2225
 5707TIP3   OH238755   1.829   0.678   7.377 -0.1558 -0.0002 -0.4645
 5707TIP3    H138756   1.760   0.745   7.381  0.7219  0.8920  0.4826
 5707TIP3    H238757   1.853   0.674   7.285 -0.9285  0.2435 -0.6878
 5708TIP3   OH238758   0.679   6.561   8.137 -0.0536  0.3773  0.1917
 5708TIP3    H138759   0.768   6.552   8.170 -0.6110 -0.9702  1.4478
 5708TIP3    H238760   0.624   6.555   8.214 -1.2307  2.8449 -0.3307
 5709TIP3   OH238761   5.455   4.733   1.648 -0.2232 -0.3419  0.1973
 5709TIP3    H138762   5.422   4.765   1.732  0.4901  1.1534 -0.0578
 5709TIP3    H238763   5.457   4.637   1.657 -1.8248 -0.3097  1.2277
 5710TIP3   OH238764   3.138   1.468   1.428  0.1957 -0.4998  0.2215
 5710TIP3    H138765   3.215   1.496   1.478 -0.3349  0.4412  0.5434
 5710TIP3    H238766   3.071   1.533   1.450 -0.1388 -0.2188 -1.5102
 5711TIP3   OH238767   1.276   6.334   1.035 -0.6881 -0.1389  0.1034
 5711TIP3    H138768   1.235   6.274   1.097 -0.8439 -0.0664  0.0734
 5711TIP3    H238769   1.222   6.327   0.956  1.4228 -2.8183 -1.3021
 5712TIP3   OH238770   3.335   1.620   0.318 -0.9660 -0.2978  0.0528
 5712TIP3    H138771   3.344   1.535   0.275 -0.3365  0.1341 -0.7074
 5712TIP3    H238772   3.426   1.649   0.332 -1.1198 -0.6960  2.2892
 5713TIP3   OH238773   6.723   3.663   1.316  0.3470 -0.0563  0.9746
 5713TIP3    H138774   6.654   3.678   1.381  1.9752  0.7376  2.5856
 5713TIP3    H238775   6.742   3.750   1.281 -1.2016 -0.5820 -1.3878
 5714TIP3   OH238776   2.705   4.812   1.015  0.8165 -0.3390  0.0145
 5714TIP3    H138777   2.732   4.838   0.927  0.8087 -0.7659 -0.1199
 5714TIP3    H238778   2.648   4.882   1.045  0.1092 -0.6017 -0.6771
 5715TIP3   OH238779   4.019   3.560   8.556  0.2668  0.0153  0.6021
 5715TIP3    H138780   4.055   3.548   8.644  0.3121  0.9012  0.7136
 5715TIP3    H238781   3.988   3.473   8.531 -1.2803  0.0620  2.1682
 5716TIP3   OH238782   1.590   0.618   7.590 -0.0634 -0.4775  0.5844
 5716TIP3    H138783   1.612   0.670   7.512  0.2904 -2.5077 -0.7530
 5716TIP3    H238784   1.513   0.662   7.627  0.5895  1.3390 -0.0914
 5717TIP3   OH238785   3.384   0.453   7.517  0.5377  0.4967 -0.5575
 5717TIP3    H138786   3.318   0.428   7.451  0.8557  0.4980 -0.8813
 5717TIP3    H238787   3.369   0.393   7.590 -0.2270  0.9021 -0.3699
 5718TIP3   OH238788   5.821   6.009   7.761  0.1529  0.0365 -0.6688
 5718TIP3    H138789   5.875   6.085   7.782 -1.2095  0.8527  0.0189
 5718TIP3    H238790   5.863   5.937   7.807 -0.2520  0.9617  1.2490
 5719TIP3   OH238791   0.267   2.654   0.121  0.5267 -0.1060  0.7062
 5719TIP3    H138792   0.246   2.659   0.214  0.1657 -0.2717  0.6360
 5719TIP3    H238793   0.246   2.741   0.087 -0.8334 -0.4860  0.4854
 5720TIP3   OH238794   0.491   4.101   0.544  0.4945 -0.7131 -0.2047
 5720TIP3    H138795   0.551   4.095   0.470  1.7051 -1.1278  0.7711
 5720TIP3    H238796   0.426   4.033   0.527  2.5471 -3.0552  0.5957
 5721TIP3   OH238797   4.132   6.369   0.882  0.0891 -0.2498 -0.5653
 5721TIP3    H138798   4.151   6.351   0.974  1.4772  0.4138 -0.6942
 5721TIP3    H238799   4.106   6.284   0.846  0.9268 -0.8092  0.1142
 5722TIP3   OH238800   2.801   4.491   7.805  0.2909  0.8403  0.5996
 5722TIP3    H138801   2.857   4.555   7.848 -0.9733  0.9465  2.1956
 5722TIP3    H238802   2.724   4.541   7.778 -0.0271  0.2941  0.4806
 5723TIP3   OH238803   0.796   0.023   1.645  0.0156 -0.5034  0.0173
 5723TIP3    H138804   0.812  -0.020   1.561  1.3650  1.1206 -0.6037
 5723TIP3    H238805   0.853  -0.023   1.707  1.0954  0.0432 -0.5451
 5724TIP3   OH238806   2.067   5.221   1.609  0.0811  0.0042  0.3574
 5724TIP3    H138807   2.145   5.217   1.663  0.5269 -1.5545 -0.3213
 5724TIP3    H238808   2.099   5.207   1.520 -0.9139 -0.2296  0.0255
 5725TIP3   OH238809   3.657   2.984   6.453 -0.6005 -0.4322 -0.1820
 5725TIP3    H138810   3.572   2.987   6.410 -0.4407  0.7527 -0.4443
 5725TIP3    H238811   3.638   2.977   6.546 -1.0186  0.8606 -0.1533
 5726TIP3   OH238812   0.836   2.777   0.505 -0.4373  0.3813  0.5574
 5726TIP3    H138813   0.835   2.743   0.594 -0.8246  0.4185  0.5714
 5726TIP3    H238814   0.750   2.818   0.494 -0.2406  0.7385  0.3046
 5727TIP3   OH238815   2.468   4.646   7.343  0.4428  0.3339  0.8650
 5727TIP3    H138816   2.381   4.608   7.330  0.4702  0.2627  0.8903
 5727TIP3    H238817   2.528   4.573   7.329  0.5348  0.5468  0.1376
 5728TIP3   OH238818   1.943   5.094   8.455 -0.1690 -0.3204 -0.6144
 5728TIP3    H138819   1.924   5.075   8.363  1.6560 -1.0419 -0.8914
 5728TIP3    H238820   2.039   5.096   8.459 -0.2175 -0.4114  1.3017
 5729TIP3   OH238821   4.646   2.097   0.993  0.5731 -0.0119 -0.0867
 5729TIP3    H138822   4.581   2.166   0.983  1.2752  0.6760  0.0132
 5729TIP3    H238823   4.618   2.028   0.932  1.6628  1.7169 -2.6940
 5730TIP3   OH238824   5.914   2.010   7.066  0.0396 -0.3184  0.1427
 5730TIP3    H138825   5.848   1.957   7.110  0.6902 -1.7598 -0.5112
 5730TIP3    H238826   5.938   2.077   7.129 -0.2550 -1.2993  1.3278
 5731TIP3   OH238827   5.162   2.331   8.341 -0.2987 -0.1473 -0.0941
 5731TIP3    H138828   5.245   2.289   8.364 -0.4342 -0.9765 -1.0495
 5731TIP3    H238829   5.141   2.386   8.416 -0.1169 -1.8069  1.2428
 5732TIP3   OH238830   4.864   4.941   2.328 -0.0641 -0.4185 -0.2096
 5732TIP3    H138831   4.916   4.954   2.407 -0.7718 -0.5373  0.2920
 5732TIP3    H238832   4.789   5.000   2.339 -1.1291 -1.7804  0.0976
 5733TIP3   OH238833   2.570   6.455   0.955  0.2320 -0.2350 -0.5345
 5733TIP3    H138834   2.574   6.463   1.050  0.2724 -0.3107 -0.5290
 5733TIP3    H238835   2.510   6.382   0.940  0.8928 -0.7928 -0.5375
 5734TIP3   OH238836   5.876   0.814   0.376  0.1118  0.4771  0.0973
 5734TIP3    H138837   5.820   0.889   0.359 -0.1435 -0.1035 -1.8033
 5734TIP3    H238838   5.879   0.808   0.472 -0.3183  2.5316  0.2902
 5735TIP3   OH238839   0.732   4.108   2.358 -0.6071 -0.2258 -0.1010
 5735TIP3    H138840   0.711   4.125   2.450  0.8159  2.3489 -0.1884
 5735TIP3    H238841   0.823   4.080   2.358 -1.4873 -3.6294 -0.5064
 5736TIP3   OH238842   1.099   3.047   0.416  0.1064  0.2957  0.2286
 5736TIP3    H138843   1.165   3.116   0.417  0.0345  0.3647  1.3230
 5736TIP3    H238844   1.138   2.976   0.467 -0.4810  0.1676  0.5055
 5737TIP3   OH238845   1.934   4.800   6.477  0.3378  0.2583 -0.1622
 5737TIP3    H138846   1.981   4.879   6.504  0.1451  0.1357  0.5479
 5737TIP3    H238847   1.842   4.826   6.474  0.0079 -0.4339  2.0879
 5738TIP3   OH238848   4.625   0.193   0.853 -0.2063  0.0089 -0.7820
 5738TIP3    H138849   4.592   0.141   0.780  2.3669  0.2001 -2.1827
 5738TIP3    H238850   4.547   0.235   0.889 -1.6235 -0.3469 -3.1966
 5739TIP3   OH238851   0.688   5.550   1.384  0.8075 -0.1727 -0.3173
 5739TIP3    H138852   0.609   5.551   1.330  0.8498  0.6806 -0.3762
 5739TIP3    H238853   0.672   5.480   1.448 -0.2941  0.4154  0.0982
 5740TIP3   OH238854   2.660   0.385   7.634  0.4242  0.4602  0.2946
 5740TIP3    H138855   2.632   0.300   7.599  0.3118 -0.4621  2.4911
 5740TIP3    H238856   2.747   0.398   7.597  0.4588 -0.6203 -0.0439
 5741TIP3   OH238857   0.012   2.728   6.753 -0.1495  0.1985 -0.2852
 5741TIP3    H138858   0.091   2.763   6.795 -0.7097  0.5221  0.5309
 5741TIP3    H238859  -0.008   2.792   6.684 -1.2888  1.6853  1.3315
 5742TIP3   OH238860   2.753   1.073   0.163  0.1695  0.0946 -0.0823
 5742TIP3    H138861   2.799   1.009   0.110  0.5295  0.4235 -0.1746
 5742TIP3    H238862   2.753   1.153   0.110  1.3561  0.7020  0.7689
 5743TIP3   OH238863   5.890   3.654   2.323  0.7272 -0.1182 -0.4954
 5743TIP3    H138864   5.886   3.641   2.228  1.1171  0.5725 -0.6077
 5743TIP3    H238865   5.942   3.580   2.355  0.4214 -0.4651 -0.7945
 5744TIP3   OH238866   6.302   0.366   1.045 -0.1707 -0.1024 -0.4398
 5744TIP3    H138867   6.219   0.372   0.997 -1.3812 -4.2554  0.7371
 5744TIP3    H238868   6.284   0.406   1.130 -0.1633  1.1725 -1.0219
 5745TIP3   OH238869   4.799   1.535   0.220 -0.2818 -0.4833 -0.3608
 5745TIP3    H138870   4.888   1.569   0.221 -0.1794 -0.6914 -1.3402
 5745TIP3    H238871   4.807   1.444   0.249 -0.2328 -0.3771 -0.0421
 5746TIP3   OH238872   0.722   6.263   6.746 -0.5881 -0.0897  0.4453
 5746TIP3    H138873   0.795   6.242   6.687 -0.9871  1.3349 -0.6128
 5746TIP3    H238874   0.677   6.336   6.704 -1.5519  0.2677  2.0014
 5747TIP3   OH238875   2.538   6.456   0.572  0.1232 -0.1792  0.2339
 5747TIP3    H138876   2.554   6.528   0.633  1.2350 -0.1306 -0.0833
 5747TIP3    H238877   2.625   6.435   0.538 -0.3868 -0.6825 -0.7899
 5748TIP3   OH238878   6.206   3.025   2.578  0.1712  0.1386  0.3051
 5748TIP3    H138879   6.281   2.970   2.601 -0.3942 -0.0858  1.6797
 5748TIP3    H238880   6.243   3.090   2.517  1.6232  0.3844  1.3830
 5749TIP3   OH238881   4.620   3.248   7.947  0.2803 -0.4400  0.2836
 5749TIP3    H138882   4.712   3.265   7.927 -0.0297 -0.4526 -1.2985
 5749TIP3    H238883   4.577   3.333   7.941  0.1148 -0.4966  0.6142
 5750TIP3   OH238884   4.502   3.386   7.494  0.2074  0.4230 -0.0136
 5750TIP3    H138885   4.489   3.469   7.447 -0.1540  0.9500  0.9812
 5750TIP3    H238886   4.552   3.411   7.572 -1.6118  0.0657  1.3322
 5751TIP3   OH238887   1.218   3.795   8.403  0.2762 -0.4965  0.4099
 5751TIP3    H138888   1.146   3.733   8.398  1.3401 -1.7323 -0.2105
 5751TIP3    H238889   1.269   3.767   8.479  1.0248 -0.7008 -0.1520
 5752TIP3   OH238890   1.163   6.597   8.361  0.4675 -0.0472  0.2027
 5752TIP3    H138891   1.142   6.541   8.436 -0.4491  0.5877  0.4337
 5752TIP3    H238892   1.242   6.644   8.389  0.7481 -0.5810  0.3386
 5753TIP3   OH238893   1.798   4.408   0.375  0.2972 -0.1165 -0.2131
 5753TIP3    H138894   1.822   4.494   0.342 -1.5840  0.4838 -0.1509
 5753TIP3    H238895   1.819   4.411   0.468  1.7411 -0.3233 -0.5197
 5754TIP3   OH238896   6.225   6.656   8.321 -0.2889 -0.6710  0.6569
 5754TIP3    H138897   6.307   6.609   8.337 -0.3681 -1.0227  0.0335
 5754TIP3    H238898   6.193   6.677   8.409  0.5566 -0.3644  0.9051
 5755TIP3   OH238899   3.065   6.450   0.939  0.5285 -0.0181  0.4699
 5755TIP3    H138900   3.011   6.373   0.919  0.7283 -0.0691  0.1189
 5755TIP3    H238901   3.022   6.490   1.014  0.3041 -0.3594  0.5283
 5756TIP3   OH238902   4.415   5.772   6.488  0.1140  0.1677  0.1053
 5756TIP3    H138903   4.378   5.697   6.534  0.5767  0.3189  0.7521
 5756TIP3    H238904   4.340   5.823   6.459 -0.1935  0.0528  0.6831
 5757TIP3   OH238905   5.376   0.750   2.335  0.1541 -0.1421  0.2840
 5757TIP3    H138906   5.375   0.845   2.346  1.1445 -0.0982  0.0252
 5757TIP3    H238907   5.400   0.716   2.421  1.3543 -0.0790 -0.0092
 5758TIP3   OH238908   4.607   6.821   8.382  0.4013 -0.0636  0.1122
 5758TIP3    H138909   4.614   6.911   8.350 -0.1016 -0.3136 -0.7389
 5758TIP3    H238910   4.571   6.772   8.308 -2.4743 -0.3694  1.5553
 5759TIP3   OH238911   6.532   1.739   1.534 -0.2048 -0.2588  0.7682
 5759TIP3    H138912   6.574   1.666   1.579  1.1725 -1.1097 -1.7076
 5759TIP3    H238913   6.530   1.809   1.598  2.0695 -1.2408  2.0187
 5760TIP3   OH238914   1.823   2.633   0.176  0.9110 -0.2783 -0.2133
 5760TIP3    H138915   1.777   2.549   0.164  0.1039  0.1365 -0.0943
 5760TIP3    H238916   1.761   2.687   0.225  2.0736 -0.1605  1.1979
 5761TIP3   OH238917   6.689   0.185   6.947  0.9565  0.0690  0.2681
 5761TIP3    H138918   6.765   0.217   6.898 -1.1020 -1.1947 -4.3149
 5761TIP3    H238919   6.633   0.262   6.957  1.1775  0.2413  0.1959
 5762TIP3   OH238920   4.241   3.622   1.220  0.7089  0.0305 -0.1005
 5762TIP3    H138921   4.273   3.644   1.132 -0.3078  1.0812 -0.2418
 5762TIP3    H238922   4.153   3.586   1.205  0.2808  0.7908  0.5144
 5763TIP3   OH238923   2.178   6.884   1.185  0.2360  0.1431 -0.2771
 5763TIP3    H138924   2.106   6.876   1.123  1.0313 -0.2861 -1.1765
 5763TIP3    H238925   2.212   6.972   1.172  1.8105 -0.6650 -2.0968
 5764TIP3   OH238926   5.242   0.712   7.552  0.0034  0.1699 -0.3710
 5764TIP3    H138927   5.284   0.780   7.500 -0.2837  0.5987 -0.0500
 5764TIP3    H238928   5.246   0.744   7.642  0.6555 -0.6492 -0.1023
 5765TIP3   OH238929   6.000   1.121   8.464 -0.3908  0.2325 -0.1925
 5765TIP3    H138930   6.003   1.211   8.495  0.5051 -0.5772  2.3172
 5765TIP3    H238931   5.993   1.068   8.544 -0.8086 -1.9323 -1.5737
 5766TIP3   OH238932   0.206   3.220   0.656  0.0437  0.2870 -0.4815
 5766TIP3    H138933   0.176   3.134   0.684 -0.8192  0.8103  0.2578
 5766TIP3    H238934   0.266   3.249   0.725  1.3453 -0.2399 -1.3557
 5767TIP3   OH238935   3.083   1.449   8.388 -0.2205 -0.3112 -0.0467
 5767TIP3    H138936   3.175   1.423   8.388 -0.1600 -0.1002 -0.1017
 5767TIP3    H238937   3.036   1.370   8.361 -0.0673 -0.4582  0.1181
 5768TIP3   OH238938   4.874   1.691   1.387 -0.4325  0.7842 -0.5251
 5768TIP3    H138939   4.884   1.635   1.464 -1.4840  0.5069 -0.5823
 5768TIP3    H238940   4.907   1.776   1.415 -0.8565  0.6993  0.2499
 5769TIP3   OH238941   6.612   2.240   6.463  0.1327  0.1539  0.5115
 5769TIP3    H138942   6.561   2.293   6.524  0.8955  0.1451  1.1604
 5769TIP3    H238943   6.556   2.234   6.385 -0.8846  0.1006  1.2210
 5770TIP3   OH238944   1.060   0.563   8.138 -0.2501 -0.3788  0.1117
 5770TIP3    H138945   1.018   0.641   8.102 -0.6112 -0.3908  0.5029
 5770TIP3    H238946   1.110   0.595   8.213  0.0715 -0.4369 -0.0754
 5771TIP3   OH238947   2.240   5.431   6.468 -0.3714  0.1910  0.6347
 5771TIP3    H138948   2.296   5.501   6.504 -0.0800  0.2896  0.0126
 5771TIP3    H238949   2.269   5.352   6.513  2.8619 -0.4597 -2.1621
 5772TIP3   OH238950   0.317   5.989   7.703  1.0514  0.1248 -0.1291
 5772TIP3    H138951   0.281   6.075   7.683 -0.7070 -1.1128 -2.9279
 5772TIP3    H238952   0.261   5.955   7.773  0.1025  0.2672 -0.8043
 5773TIP3   OH238953   5.912   4.909   6.794  0.3230  0.0073 -0.0060
 5773TIP3    H138954   5.836   4.965   6.776  0.4781  0.5169  0.8722
 5773TIP3    H238955   5.985   4.970   6.799  0.4362 -0.2252  1.3238
 5774TIP3   OH238956   1.249   4.486   2.374 -0.6436 -0.3316 -0.4386
 5774TIP3    H138957   1.279   4.440   2.452 -2.8776 -1.1430  0.0093
 5774TIP3    H238958   1.321   4.478   2.312  0.8875 -0.2963  1.2740
 5775TIP3   OH238959   4.127   4.075   7.514 -0.0252 -0.0871 -0.4408
 5775TIP3    H138960   4.067   4.147   7.531 -0.8350 -0.7771 -0.3096
 5775TIP3    H238961   4.190   4.079   7.585  0.7818  1.3352 -1.1963
 5776TIP3   OH238962   3.145   4.443   0.636  0.6360  0.1667  0.1436
 5776TIP3    H138963   3.211   4.380   0.606  1.1120  0.7372 -0.0217
 5776TIP3    H238964   3.176   4.470   0.722 -1.4436 -2.5170  1.9154
 5777TIP3   OH238965   3.641   3.100   0.318 -0.3654  0.3745 -0.0427
 5777TIP3    H138966   3.668   3.173   0.262 -1.5940  0.3580 -0.7076
 5777TIP3    H238967   3.596   3.040   0.258 -1.0206 -0.0246  0.8268
 5778TIP3   OH238968   3.100   4.055   7.700 -0.3740 -0.1097 -0.7359
 5778TIP3    H138969   3.058   3.982   7.746  0.0789  0.2412  0.2605
 5778TIP3    H238970   3.193   4.047   7.721 -0.3363  0.8351 -0.4816
 5779TIP3   OH238971   0.355   3.893   1.554  0.4360  0.9443 -0.3219
 5779TIP3    H138972   0.369   3.829   1.625 -0.3473  0.5324 -0.5273
 5779TIP3    H238973   0.372   3.978   1.595 -1.8519  0.8844  0.9263
 5780TIP3   OH238974   6.417   5.588   1.658 -0.4787 -0.5253 -0.3591
 5780TIP3    H138975   6.476   5.576   1.733  0.4815  0.3445 -0.9480
 5780TIP3    H238976   6.452   5.664   1.612 -1.0747 -1.0305 -1.6928
 5781TIP3   OH238977   0.801   5.381   6.484  0.4779 -0.1486  0.0323
 5781TIP3    H138978   0.716   5.363   6.441 -0.5791  0.2459  1.8693
 5781TIP3    H238979   0.847   5.297   6.481  0.0609 -0.3667 -1.0045
 5782TIP3   OH238980   3.913   3.227   7.714 -0.1567 -0.4508 -0.2828
 5782TIP3    H138981   3.945   3.137   7.709  0.6482 -0.1594 -0.3937
 5782TIP3    H238982   3.959   3.265   7.788  0.8473  0.3897 -1.3078
 5783TIP3   OH238983   3.955   4.454   0.519 -0.1923 -0.0139  0.3075
 5783TIP3    H138984   3.867   4.443   0.554 -1.0750  1.0584 -1.4209
 5783TIP3    H238985   3.946   4.524   0.454  1.4660 -1.3462 -1.4742
 5784TIP3   OH238986   4.032   2.835   1.761  0.2993  0.1035 -0.2693
 5784TIP3    H138987   4.097   2.861   1.695  1.1025 -0.1073  0.4305
 5784TIP3    H238988   4.078   2.775   1.819 -0.0800  1.0962  1.1101
 5785TIP3   OH238989   6.045   4.983   7.410 -0.0396  0.6453 -0.4791
 5785TIP3    H138990   6.101   4.981   7.333  0.2383 -1.4544 -0.2805
 5785TIP3    H238991   5.972   4.925   7.388 -0.1735  0.3530  0.6706
 5786TIP3   OH238992   2.746   6.466   8.052 -0.0912 -0.1390 -0.2252
 5786TIP3    H138993   2.796   6.475   7.972 -0.3799  1.5681 -0.2509
 5786TIP3    H238994   2.754   6.551   8.095  0.4557 -1.1486  1.8049
 5787TIP3   OH238995   0.121   2.676   0.839 -0.5952 -0.3009 -0.0765
 5787TIP3    H138996   0.029   2.687   0.813 -0.8796  0.5715  1.2124
 5787TIP3    H238997   0.118   2.663   0.934  0.6282  0.0139  0.0199
 5788TIP3   OH238998   1.124   4.688   0.746  0.9569 -0.2964 -0.5060
 5788TIP3    H138999   1.173   4.771   0.751  0.5673 -0.0509 -0.6880
 5788TIP3    H239000   1.033   4.715   0.736  0.5568 -0.7287  1.5239
 5789TIP3   OH239001   4.667   3.984   7.417  0.0045 -0.6453 -0.5156
 5789TIP3    H139002   4.721   4.060   7.439  0.3533 -1.5499  2.0362
 5789TIP3    H239003   4.724   3.930   7.362  1.2570 -0.9386  1.0124
 5790TIP3   OH239004   5.500   3.657   6.984  0.0524 -0.0143 -0.1098
 5790TIP3    H139005   5.477   3.564   6.992 -1.3108  0.1494 -1.6304
 5790TIP3    H239006   5.497   3.675   6.890  0.6939  1.4941  0.1243
 5791TIP3   OH239007   5.459   2.408   2.947  0.2881 -0.1126  0.2831
 5791TIP3    H139008   5.418   2.386   3.031 -0.2491 -0.8468 -0.1616
 5791TIP3    H239009   5.528   2.470   2.970 -1.0299  1.1445  1.0775
 5792TIP3   OH239010   6.212   6.843   7.612  0.1283 -0.3152  0.4287
 5792TIP3    H139011   6.182   6.933   7.597 -0.3525 -0.4372  0.6343
 5792TIP3    H239012   6.260   6.820   7.532  0.6605  0.2847  0.5636
 5793TIP3   OH239013   0.670   0.541   2.046 -0.1759 -0.2997  0.6166
 5793TIP3    H139014   0.667   0.536   2.142  0.4238  1.1724  0.7498
 5793TIP3    H239015   0.590   0.587   2.022 -0.2384 -0.5094  0.4212
 5794TIP3   OH239016   5.076   2.504   7.159  0.9911  0.3951  0.5306
 5794TIP3    H139017   5.039   2.575   7.107 -0.9126  0.0128  1.2563
 5794TIP3    H239018   5.055   2.425   7.109  0.2418  0.1273  1.2350
 5795TIP3   OH239019   6.230   6.548   2.011  0.1082  0.2592  0.2865
 5795TIP3    H139020   6.211   6.639   2.034 -0.1560  0.2554  0.0858
 5795TIP3    H239021   6.272   6.553   1.926 -0.8310  0.1253 -0.1992
 5796TIP3   OH239022   1.353   5.301   8.018 -0.5858  0.1237 -0.9922
 5796TIP3    H139023   1.269   5.334   7.986 -2.0429 -2.2480  0.1855
 5796TIP3    H239024   1.348   5.206   8.007  0.5612 -0.4127  2.1551
 5797TIP3   OH239025   6.328   5.641   8.234 -0.2878  0.2110  0.3796
 5797TIP3    H139026   6.285   5.659   8.150 -1.8412 -0.7836  0.9083
 5797TIP3    H239027   6.358   5.726   8.265 -0.9996  0.7984 -0.5024
 5798TIP3   OH239028   1.626   4.664   0.232  0.1564 -0.4416  0.2505
 5798TIP3    H139029   1.579   4.733   0.279  0.7946 -0.1363  0.4488
 5798TIP3    H239030   1.602   4.583   0.278  0.9708 -0.1224  1.2932
 5799TIP3   OH239031   5.827   4.817   7.971 -0.0976  0.5721 -0.4102
 5799TIP3    H139032   5.887   4.860   8.032  0.9891 -0.4123 -0.7405
 5799TIP3    H239033   5.884   4.782   7.902 -0.6949 -2.5953  0.5304
 5800TIP3   OH239034   2.565   0.288   7.369  0.6825  0.1958  0.9566
 5800TIP3    H139035   2.486   0.248   7.403  1.3927 -2.8810 -0.5931
 5800TIP3    H239036   2.537   0.330   7.287  0.5090 -0.4491  0.6717
 5801TIP3   OH239037   4.163   6.914   2.054 -0.8468 -0.0847  0.4351
 5801TIP3    H139038   4.222   6.977   2.012 -0.9944 -1.0040 -1.2207
 5801TIP3    H239039   4.206   6.829   2.041 -1.8847 -0.6095  0.3811
 5802TIP3   OH239040   5.001   2.471   6.509  0.0351  0.2653  0.1260
 5802TIP3    H139041   4.912   2.503   6.518 -1.1547 -1.8845 -2.4275
 5802TIP3    H239042   4.993   2.392   6.455  3.7082  1.5212 -2.7572
 5803TIP3   OH239043   1.137   0.522   0.185  0.0084 -0.1903  0.2150
 5803TIP3    H139044   1.194   0.459   0.227  0.5055  0.3417  0.3555
 5803TIP3    H239045   1.082   0.555   0.256 -0.6217 -0.8443  0.0449
 5804TIP3   OH239046   2.675   1.699   7.852 -0.4184  0.9151  0.8003
 5804TIP3    H139047   2.754   1.751   7.865 -0.1068  0.1517  2.1154
 5804TIP3    H239048   2.622   1.715   7.930 -1.4295  1.1749  0.0747
 5805TIP3   OH239049   2.764   5.211   8.276 -0.3074  0.2228 -0.1008
 5805TIP3    H139050   2.805   5.285   8.231  1.4585 -0.1421  0.8348
 5805TIP3    H239051   2.773   5.231   8.369 -1.0838 -0.5048  0.1450
 5806TIP3   OH239052   4.496   3.956   8.035 -0.9873  0.3695  0.1193
 5806TIP3    H139053   4.465   4.044   8.017 -0.7604  0.5666  0.6917
 5806TIP3    H239054   4.574   3.968   8.088 -0.2203 -0.1348 -0.8462
 5807TIP3   OH239055   4.608   5.006   1.634 -0.6480  0.4902 -0.5807
 5807TIP3    H139056   4.657   5.031   1.712 -1.2976  0.8999 -0.3005
 5807TIP3    H239057   4.517   5.003   1.662 -0.6199 -2.4349 -0.5313
 5808TIP3   OH239058   6.121   1.586   7.097 -0.3684 -0.1421  0.0992
 5808TIP3    H139059   6.115   1.505   7.148  1.6889 -0.8716 -0.7303
 5808TIP3    H239060   6.064   1.572   7.022 -1.1639 -0.2079  0.7020
 5809TIP3   OH239061   0.073   5.878   2.567  0.2444 -0.1443 -0.1290
 5809TIP3    H139062   0.132   5.920   2.504 -0.4448  0.0740 -0.6297
 5809TIP3    H239063   0.131   5.854   2.640  1.5120 -2.5411 -1.8040
 5810TIP3   OH239064   4.299   0.660   7.591 -0.5508 -0.5206  0.1565
 5810TIP3    H139065   4.310   0.567   7.573 -1.2069 -0.3637 -1.1013
 5810TIP3    H239066   4.205   0.672   7.602 -0.5417  0.1118 -0.3982
 5811TIP3   OH239067   0.303   3.686   2.296  0.2190 -0.0961  0.1260
 5811TIP3    H139068   0.384   3.635   2.301 -0.3455 -1.0272  0.0546
 5811TIP3    H239069   0.237   3.623   2.267 -0.6409  0.5272  0.6833
 5812TIP3   OH239070   3.315   4.863   7.876 -0.1645 -0.3954 -0.1441
 5812TIP3    H139071   3.337   4.879   7.784  0.6184  1.8221  0.3694
 5812TIP3    H239072   3.392   4.894   7.925 -0.4551 -1.7851  1.2719
 5813TIP3   OH239073   0.446   0.339   8.377 -0.3667 -0.2539 -0.0821
 5813TIP3    H139074   0.511   0.269   8.379  0.6447  0.6708  1.7367
 5813TIP3    H239075   0.496   0.419   8.396 -1.6872  0.8203 -0.8932
 5814TIP3   OH239076   2.435   4.007   7.627  0.0276  0.2908  0.1770
 5814TIP3    H139077   2.389   4.072   7.575  0.4111  0.8098  0.4823
 5814TIP3    H239078   2.430   4.040   7.717  0.3246 -0.0414  0.3185
 5815TIP3   OH239079   0.956   5.169   8.074 -0.3066 -0.0271 -0.0124
 5815TIP3    H139080   1.015   5.200   8.142 -0.1517 -0.2861 -0.0276
 5815TIP3    H239081   1.014   5.139   8.004 -0.3907 -1.9360  0.6745
 5816TIP3   OH239082   3.359   3.418   7.874 -0.3907  0.1564 -0.5436
 5816TIP3    H139083   3.407   3.462   7.944  0.4654 -1.2530 -0.2180
 5816TIP3    H239084   3.423   3.407   7.804 -0.0586 -2.1383  0.0640
 5817TIP3   OH239085   6.919   0.518   7.131 -0.2799 -0.1700  0.2760
 5817TIP3    H139086   6.825   0.503   7.127 -0.7539  2.4348 -0.3052
 5817TIP3    H239087   6.931   0.576   7.207  0.6793  0.4482 -0.3183
 5818TIP3   OH239088   4.649   0.692   6.797 -0.4638  0.5921 -0.1008
 5818TIP3    H139089   4.718   0.648   6.847 -0.0092  0.4679 -0.8176
 5818TIP3    H239090   4.689   0.710   6.711 -0.6950  2.2356  0.1044
 5819TIP3   OH239091   4.486   2.658   8.320  0.0642 -0.6786  0.5273
 5819TIP3    H139092   4.479   2.592   8.251  1.2515 -0.6714  0.3732
 5819TIP3    H239093   4.494   2.741   8.273  2.3154 -0.8031  0.5808
 5820TIP3   OH239094   4.355   5.721   2.496 -0.6193  0.4758 -0.4056
 5820TIP3    H139095   4.271   5.764   2.479 -1.6224 -1.6170 -1.1766
 5820TIP3    H239096   4.334   5.627   2.498  1.6249 -0.0893 -0.0652
 5821TIP3   OH239097   1.463   4.207   8.229  0.4501 -0.0627  0.1061
 5821TIP3    H139098   1.553   4.179   8.212 -0.0366 -0.5632 -1.9027
 5821TIP3    H239099   1.411   4.128   8.216 -0.6207  0.9454 -2.4623
 5822TIP3   OH239100   6.135   0.400   7.214 -0.6335  0.1776  0.0943
 5822TIP3    H139101   6.128   0.307   7.236  1.1311  0.2363  1.0492
 5822TIP3    H239102   6.133   0.403   7.119  0.0269 -0.9173  0.0324
 5823TIP3   OH239103   2.643   3.253   8.471  0.0867  0.1776  0.1858
 5823TIP3    H139104   2.583   3.242   8.397  0.6118  0.9107 -0.3609
 5823TIP3    H239105   2.618   3.337   8.509  1.8118  1.3315 -1.0707
 5824TIP3   OH239106   5.873   6.012   6.537  0.1045 -0.8186 -0.1504
 5824TIP3    H139107   5.807   6.036   6.473  0.6517 -0.8290 -0.7333
 5824TIP3    H239108   5.950   6.063   6.513  0.9330 -2.2905 -0.7278
 5825TIP3   OH239109   0.932   1.512   8.521  0.2255  0.6843  0.4721
 5825TIP3    H139110   1.021   1.535   8.547  0.5922 -0.7274  0.5144
 5825TIP3    H239111   0.934   1.418   8.505 -1.0044  0.7992 -0.5887
 5826TIP3   OH239112   5.473   2.913   1.250 -0.0818 -0.5850  0.3880
 5826TIP3    H139113   5.512   2.976   1.189 -0.3087  0.4552  1.2912
 5826TIP3    H239114   5.437   2.845   1.194  1.7548 -0.8665 -0.5481
 5827TIP3   OH239115   2.541   0.098   7.595  0.3951 -0.5861 -0.0730
 5827TIP3    H139116   2.501   0.059   7.517 -0.7456 -1.6139  1.0001
 5827TIP3    H239117   2.541   0.028   7.660 -0.6235  0.8501  1.5383
 5828TIP3   OH239118   0.887   5.442   6.770  0.0393  0.1700 -0.0566
 5828TIP3    H139119   0.845   5.523   6.797 -0.8128 -0.4968  0.6885
 5828TIP3    H239120   0.854   5.425   6.682 -0.2777  0.3020  0.0372
 5829TIP3   OH239121   3.008   4.908   8.207 -0.3497  0.1315  0.0516
 5829TIP3    H139122   2.941   4.940   8.145  0.0095 -0.7701 -0.8233
 5829TIP3    H239123   2.961   4.902   8.290 -1.6168 -1.2963 -0.7131
 5830TIP3   OH239124   6.051   2.095   2.067  0.2741  0.1164  0.0567
 5830TIP3    H139125   5.961   2.073   2.090  0.2460  0.0484 -0.1181
 5830TIP3    H239126   6.088   2.130   2.148  0.6639 -1.6268  0.6577
 5831TIP3   OH239127   5.216   1.378   7.935  0.5895 -0.4734  0.1761
 5831TIP3    H139128   5.284   1.319   7.968  0.7634  0.3370  1.3256
 5831TIP3    H239129   5.169   1.405   8.013 -0.1910  0.0458 -0.4677
 5832TIP3   OH239130   4.328   2.666   7.583 -0.3448 -0.8591 -0.0039
 5832TIP3    H139131   4.394   2.657   7.652 -0.0093 -0.4633 -0.2685
 5832TIP3    H239132   4.379   2.669   7.502 -0.5731  1.0749 -0.1067
 5833TIP3   OH239133   0.151   3.238   0.268  0.0666  0.1883 -0.7181
 5833TIP3    H139134   0.191   3.173   0.210 -0.8528 -1.3191  0.2637
 5833TIP3    H239135   0.061   3.208   0.279  0.0493  0.7544  0.9690
 5834TIP3   OH239136   4.774   6.570   8.461 -0.1346 -0.1691  0.1540
 5834TIP3    H139137   4.770   6.529   8.375 -1.0476  2.2545 -1.0638
 5834TIP3    H239138   4.718   6.648   8.453  2.5028  2.0775  1.8270
 5835TIP3   OH239139   6.658   0.594   1.982  0.0388  0.4371  0.0143
 5835TIP3    H139140   6.673   0.689   1.980  0.5567  0.3445 -0.7371
 5835TIP3    H239141   6.718   0.563   2.051  0.0402  0.6269  0.1002
 5836TIP3   OH239142   6.797   6.395   7.280 -0.4975 -0.1965 -0.5077
 5836TIP3    H139143   6.796   6.458   7.209  1.1812  0.0658 -0.3393
 5836TIP3    H239144   6.888   6.394   7.310 -1.1605 -0.2482  1.6794
 5837TIP3   OH239145   0.204   1.432   7.719 -0.1618 -0.1186 -0.1595
 5837TIP3    H139146   0.224   1.474   7.635 -0.7201 -1.0907 -0.8050
 5837TIP3    H239147   0.235   1.342   7.709 -0.7825 -0.4137  0.4475
 5838TIP3   OH239148   3.246   0.758   0.661 -0.3452 -0.1469 -0.0301
 5838TIP3    H139149   3.307   0.792   0.726 -0.0967  0.5988 -0.6414
 5838TIP3    H239150   3.168   0.812   0.671 -0.3567 -0.1202 -0.2593
 5839TIP3   OH239151   3.538   1.695   8.381  0.0365  0.6720  0.0560
 5839TIP3    H139152   3.631   1.719   8.374  0.1093  0.4542  0.2614
 5839TIP3    H239153   3.494   1.777   8.400  0.5362  0.3776  2.9791
 5840TIP3   OH239154   5.263   0.783   0.543 -0.3904  0.3462 -0.0815
 5840TIP3    H139155   5.274   0.745   0.456 -1.6903  0.3763 -0.2831
 5840TIP3    H239156   5.293   0.715   0.603 -0.7939 -0.2284 -0.5138
 5841TIP3   OH239157   6.772   5.063   7.212 -0.1773  0.0709 -0.2910
 5841TIP3    H139158   6.805   5.100   7.294  1.0869  0.4104 -0.9244
 5841TIP3    H239159   6.739   4.976   7.236  0.4525  0.0459  0.5193
 5842TIP3   OH239160   2.293   5.920   0.374 -0.0549 -0.6810  0.6614
 5842TIP3    H139161   2.339   5.906   0.291 -0.4763  1.0030  0.1202
 5842TIP3    H239162   2.208   5.879   0.361 -0.1946 -0.2453  0.1871
 5843TIP3   OH239163   1.846   5.252   0.103  0.1381 -0.1548  0.3086
 5843TIP3    H139164   1.810   5.333   0.066 -1.5450 -1.4443 -1.0402
 5843TIP3    H239165   1.880   5.205   0.028 -1.4884 -1.9252  0.6058
 5844TIP3   OH239166   4.515   2.375   7.511  0.2074  0.0705 -0.0146
 5844TIP3    H139167   4.597   2.418   7.535 -0.2559  1.5523 -0.9042
 5844TIP3    H239168   4.483   2.337   7.592  0.8233  1.1506  0.7659
 5845TIP3   OH239169   4.694   5.989   1.852 -0.4318  0.1822  0.4487
 5845TIP3    H139170   4.782   5.951   1.854 -0.1145  0.9099  0.3808
 5845TIP3    H239171   4.671   5.992   1.759 -0.2941  0.5222  0.4241
 5846TIP3   OH239172   3.547   1.666   1.781 -0.4568  1.0434  0.5202
 5846TIP3    H139173   3.514   1.699   1.698  0.7284 -2.0187 -1.3156
 5846TIP3    H239174   3.642   1.667   1.771 -0.3084  0.0194  1.5913
 5847TIP3   OH239175   5.440   4.220   8.031  0.1821  0.0741 -0.0071
 5847TIP3    H139176   5.440   4.224   7.936 -0.3426  1.0621  0.0169
 5847TIP3    H239177   5.442   4.312   8.059  0.7816 -0.2090  0.9381
 5848TIP3   OH239178   3.492   4.754   1.853 -0.4615  0.0558  0.0958
 5848TIP3    H139179   3.502   4.795   1.939 -0.6378  0.5551 -0.1171
 5848TIP3    H239180   3.563   4.690   1.848 -1.8080 -1.6577  1.5560
 5849TIP3   OH239181   6.814   2.454   1.607  0.6531 -0.3746 -0.0243
 5849TIP3    H139182   6.751   2.454   1.535  2.3308  0.7020 -1.5851
 5849TIP3    H239183   6.818   2.363   1.635 -0.1973 -0.7807 -1.1381
 5850TIP3   OH239184   0.445   0.745   7.196  0.0014  0.7420 -0.5334
 5850TIP3    H139185   0.538   0.763   7.186  0.0707  1.0194  0.4703
 5850TIP3    H239186   0.430   0.749   7.291 -0.6640 -1.0930 -0.5101
 5851TIP3   OH239187   0.167   1.012   8.426  0.1961  0.2920 -0.3466
 5851TIP3    H139188   0.125   1.052   8.502  1.2134  0.5538  0.0940
 5851TIP3    H239189   0.239   0.960   8.462  1.9069  1.9432 -1.2304
 5852TIP3   OH239190   2.296   0.226   7.435 -0.3692  0.0345  0.6156
 5852TIP3    H139191   2.204   0.223   7.411 -0.3772  2.6459 -0.0733
 5852TIP3    H239192   2.298   0.204   7.528 -1.7552  0.3867  0.7467
 5853TIP3   OH239193   3.111   5.196   1.266  0.1564 -0.5501  0.4722
 5853TIP3    H139194   3.082   5.277   1.224  0.2101 -1.7941 -2.1567
 5853TIP3    H239195   3.206   5.193   1.250 -0.0494 -1.7476 -0.7096
 5854TIP3   OH239196   3.971   0.750   0.494  0.8840 -0.7695 -0.3927
 5854TIP3    H139197   4.006   0.780   0.409  2.1947 -0.6308  0.1717
 5854TIP3    H239198   3.930   0.666   0.474 -1.2135  0.4639 -1.6567
 5855TIP3   OH239199   4.822   4.694   7.776 -0.1082  0.2814 -0.1407
 5855TIP3    H139200   4.742   4.730   7.813  0.7494  1.3542  0.7331
 5855TIP3    H239201   4.876   4.771   7.756  0.4860 -0.3934 -1.2535
 5856TIP3   OH239202   6.220   3.038   0.129 -0.3940 -0.5818 -0.0349
 5856TIP3    H139203   6.225   3.107   0.196 -0.2831  0.9945 -1.5899
 5856TIP3    H239204   6.130   3.006   0.136 -0.9476  0.8196 -0.2827
 5857TIP3   OH239205   0.012   3.304   1.612 -0.0904 -0.6092 -0.1366
 5857TIP3    H139206  -0.023   3.257   1.537 -0.7941  0.7602 -0.6935
 5857TIP3    H239207   0.041   3.235   1.672 -2.5243 -1.7891 -0.2218
 5858TIP3   OH239208   5.835   5.074   0.067  0.1241  0.2993 -0.8537
 5858TIP3    H139209   5.860   5.166   0.069 -1.1205  0.6458 -0.1476
 5858TIP3    H239210   5.871   5.041  -0.015  0.4394  1.4539 -1.1960
 5859TIP3   OH239211   0.472   6.048   0.963  0.0063  0.0820 -0.2347
 5859TIP3    H139212   0.533   6.008   1.024  1.7312  1.7208 -0.7903
 5859TIP3    H239213   0.426   6.114   1.015 -0.3547 -0.2466 -0.1311
 5860TIP3   OH239214   4.056   0.906   7.493  0.0977  0.9394 -0.5548
 5860TIP3    H139215   4.031   0.840   7.557 -0.6671  0.4863 -1.2896
 5860TIP3    H239216   4.030   0.868   7.409  1.6283  1.2425 -1.2041
 5861TIP3   OH239217   3.954   2.343   7.281 -0.2239  0.2260 -0.1794
 5861TIP3    H139218   4.042   2.337   7.243 -0.6705  0.5818 -1.3178
 5861TIP3    H239219   3.910   2.263   7.251 -0.4752  0.3408 -0.1143
 5862TIP3   OH239220   3.373   5.711   7.404  0.3744 -0.6793 -0.4529
 5862TIP3    H139221   3.296   5.742   7.452  0.5104  1.3281 -1.4447
 5862TIP3    H239222   3.344   5.630   7.361 -0.1572 -1.7680  1.7991
 5863TIP3   OH239223   3.910   5.056   0.982 -0.1411 -0.2438  0.1284
 5863TIP3    H139224   3.965   4.995   0.934  0.3288 -0.3067  0.7291
 5863TIP3    H239225   3.846   5.001   1.028 -2.0318 -0.0821 -2.1037
 5864TIP3   OH239226   5.462   4.172   5.978  0.7019 -0.1628  0.5720
 5864TIP3    H139227   5.422   4.231   6.042  1.6788  1.1301  0.0223
 5864TIP3    H239228   5.492   4.097   6.030 -1.2622 -0.6112  1.1713
 5865TIP3   OH239229   4.519   3.679   1.043  0.3770  0.2280  0.5554
 5865TIP3    H139230   4.563   3.595   1.061  0.6919  0.3602  0.4172
 5865TIP3    H239231   4.590   3.737   1.015  0.2753  0.7669  1.3875
 5866TIP3   OH239232   4.543   1.890   8.380 -0.0554 -0.7447  0.1590
 5866TIP3    H139233   4.467   1.834   8.395 -0.0690 -0.1554  2.7587
 5866TIP3    H239234   4.507   1.969   8.341 -0.6383 -0.8686  0.4335
 5867TIP3   OH239235   0.198   5.894   8.320  0.2566 -0.5395  0.2423
 5867TIP3    H139236   0.220   5.897   8.226 -0.2137  3.0119  0.1250
 5867TIP3    H239237   0.122   5.952   8.329 -0.0088 -1.1714  2.7750
 5868TIP3   OH239238   4.661   3.649   0.110 -0.0517 -0.3470  0.1320
 5868TIP3    H139239   4.715   3.662   0.033  1.0468  1.5214  1.1289
 5868TIP3    H239240   4.574   3.678   0.084  0.0295 -0.8607 -0.7282
 5869TIP3   OH239241   2.094   6.049   1.152  0.0801 -0.5714  0.0041
 5869TIP3    H139242   2.098   6.142   1.173 -1.6293 -0.4360 -0.1184
 5869TIP3    H239243   2.009   6.038   1.110  0.1040 -2.2598  0.3378
 5870TIP3   OH239244   2.929   3.843   7.842 -0.5832  0.0736  0.0875
 5870TIP3    H139245   2.865   3.911   7.863 -0.9422 -0.1412 -0.2666
 5870TIP3    H239246   2.957   3.809   7.927 -1.6690 -0.4805  0.2533
 5871TIP3   OH239247   0.875   4.832   7.282  0.1347  0.5148 -0.1684
 5871TIP3    H139248   0.824   4.839   7.201  1.3720 -0.4981 -1.0828
 5871TIP3    H239249   0.830   4.765   7.333  0.4258 -0.2735 -0.9095
 5872TIP3   OH239250   2.315   6.703   0.765  0.3897  0.4934 -0.3068
 5872TIP3    H139251   2.298   6.732   0.675  1.7342  1.5912 -0.2344
 5872TIP3    H239252   2.247   6.746   0.817 -0.5307 -0.3199 -0.7995
 5873TIP3   OH239253   2.575   6.086   8.505 -0.2334 -0.1943  0.0730
 5873TIP3    H139254   2.505   6.150   8.488  0.7255  1.2007  1.1637
 5873TIP3    H239255   2.655   6.138   8.508  0.4549 -1.2504  2.1489
 5874TIP3   OH239256   1.208   2.853   0.090  0.0754  0.5409 -0.5278
 5874TIP3    H139257   1.191   2.792   0.018 -1.3224  0.7566 -0.4031
 5874TIP3    H239258   1.130   2.909   0.093  0.9562  1.7895 -0.0928
 5875TIP3   OH239259   4.869   4.918   1.808  0.5905  0.1011  0.9733
 5875TIP3    H139260   4.808   4.974   1.856  0.5318  0.4758  0.4770
 5875TIP3    H239261   4.898   4.972   1.734  3.3125  0.8021  2.4128
 5876TIP3   OH239262   2.987   3.740   7.006 -0.4696  0.1968 -0.1780
 5876TIP3    H139263   3.005   3.702   6.920  0.9177 -0.2010  0.2712
 5876TIP3    H239264   2.990   3.835   6.992  0.7931  0.1392 -0.3751
 5877TIP3   OH239265   1.899   3.356   7.879  0.3178  0.5588  0.0802
 5877TIP3    H139266   1.884   3.437   7.927 -0.1930  0.5767 -0.1098
 5877TIP3    H239267   1.822   3.302   7.896 -0.2885  0.9038 -1.4159
 5878TIP3   OH239268   6.413   6.621   1.829  0.3343 -0.5393  0.3348
 5878TIP3    H139269   6.448   6.654   1.912  2.5053  1.0254 -1.0829
 5878TIP3    H239270   6.486   6.574   1.788 -0.3558 -0.4197 -1.1183
 5879TIP3   OH239271   3.472   2.499   1.774  0.6073 -0.1916  0.1359
 5879TIP3    H139272   3.427   2.457   1.701  1.1894  2.6826 -2.0598
 5879TIP3    H239273   3.405   2.554   1.815  0.6501 -0.6546  0.8444
 5880TIP3   OH239274   0.221   3.866   8.131 -0.5419 -0.5899 -0.1698
 5880TIP3    H139275   0.277   3.837   8.203 -0.4721 -0.8876 -0.3449
 5880TIP3    H239276   0.212   3.790   8.074 -0.0828 -0.1908 -0.8052
 5881TIP3   OH239277   5.371   3.732   6.700 -0.7175  0.2310  0.2000
 5881TIP3    H139278   5.455   3.724   6.655  0.3467 -0.5925  2.1842
 5881TIP3    H239279   5.336   3.816   6.671  1.8454  1.6570  0.9051
 5882TIP3   OH239280   1.368   1.059   3.721 -0.2066  0.3853 -0.0669
 5882TIP3    H139281   1.327   1.110   3.650  1.2634  1.9054  0.1180
 5882TIP3    H239282   1.305   0.989   3.739 -0.0910 -0.8767 -3.7312
 5883TIP3   OH239283   6.038   0.038   2.251 -0.5884 -0.1579  0.4797
 5883TIP3    H139284   6.063   0.086   2.330 -0.4844  1.3448 -0.4291
 5883TIP3    H239285   5.948   0.010   2.266 -0.9793  1.1672  0.6565
 5884TIP3   OH239286   5.240   0.856   7.778  0.0915  0.2524  0.2249
 5884TIP3    H139287   5.256   0.822   7.865  1.8527  1.0453  0.2369
 5884TIP3    H239288   5.205   0.944   7.792 -0.4218  0.0688  0.1297
 5885TIP3   OH239289   3.653   3.445   2.200 -0.4225 -0.2037  0.3875
 5885TIP3    H139290   3.654   3.446   2.296 -2.6807 -0.4755  0.4636
 5885TIP3    H239291   3.615   3.529   2.176  0.4749  0.0167 -0.3210
 5886TIP3   OH239292   3.095   1.488   1.938 -0.1221  0.0843 -0.4749
 5886TIP3    H139293   3.019   1.434   1.915 -2.0685  1.4095  2.2493
 5886TIP3    H239294   3.066   1.578   1.919  0.1430  0.7394  1.9595
 5887TIP3   OH239295   1.852   5.307   2.011  0.0424  0.3940 -0.2711
 5887TIP3    H139296   1.940   5.334   1.984  0.2147  0.2493  0.1472
 5887TIP3    H239297   1.811   5.387   2.042  0.5324  0.1987  0.9108
 5888TIP3   OH239298   0.912   5.339   2.202  0.3988  0.1245  0.1193
 5888TIP3    H139299   0.903   5.418   2.150  1.8928 -0.8503 -1.7529
 5888TIP3    H239300   0.823   5.305   2.210 -0.2128  1.7799  0.6872
 5889TIP3   OH239301   5.754   4.406   7.994  0.5048  0.7786  0.0294
 5889TIP3    H139302   5.693   4.462   8.042 -1.0852  0.1809 -1.2251
 5889TIP3    H239303   5.748   4.437   7.904  1.2058 -0.0452 -0.3063
 5890TIP3   OH239304   2.556   4.509   6.797  0.2068  0.0603 -0.2836
 5890TIP3    H139305   2.477   4.547   6.760  0.4561  0.3901 -0.4769
 5890TIP3    H239306   2.579   4.438   6.737 -0.2920 -0.4490  0.1101
 5891TIP3   OH239307   0.756   2.198   0.156 -0.3318  0.3652 -0.5602
 5891TIP3    H139308   0.805   2.281   0.155  0.7912 -0.1802  1.9996
 5891TIP3    H239309   0.765   2.164   0.067  2.2958  1.2662 -0.7201
 5892TIP3   OH239310   4.660   5.932   2.405 -0.0426 -0.6164 -0.5891
 5892TIP3    H139311   4.649   5.957   2.496 -1.0060  1.5584 -1.2390
 5892TIP3    H239312   4.712   6.003   2.366 -2.4944  0.2951 -2.4431
 5893TIP3   OH239313   3.103   4.900   7.162  0.0410  0.0369  0.0038
 5893TIP3    H139314   3.081   4.822   7.213  0.7363 -0.1414  0.0396
 5893TIP3    H239315   3.191   4.883   7.128  0.8805  1.4632  1.3295
 5894TIP3   OH239316   2.533   4.014   0.207 -0.2317  0.5092 -0.3715
 5894TIP3    H139317   2.575   4.089   0.164  1.3101  0.7517  1.4354
 5894TIP3    H239318   2.484   4.052   0.280 -1.2098 -0.0719 -0.7036
 5895TIP3   OH239319   2.357   0.192   1.792  0.4875  0.3137 -0.3766
 5895TIP3    H139320   2.271   0.149   1.786  0.3519  0.4303  0.4842
 5895TIP3    H239321   2.419   0.119   1.793  0.2687  0.1077  0.8778
 5896TIP3   OH239322   4.870   0.031   1.232 -0.9865  0.4831  0.0203
 5896TIP3    H139323   4.880  -0.007   1.319 -0.7917  0.8055  0.1405
 5896TIP3    H239324   4.776   0.031   1.216 -1.2780  2.7693  1.3069
 5897TIP3   OH239325   4.786   5.230   0.049 -0.4500 -0.4312  0.6567
 5897TIP3    H139326   4.839   5.160   0.012 -0.0902  0.1374  0.0738
 5897TIP3    H239327   4.784   5.212   0.143  1.8559  0.2143  0.8876
 5898TIP3   OH239328   5.748   2.555   2.471  0.0549 -0.4360  0.4111
 5898TIP3    H139329   5.669   2.565   2.418  0.1125  0.2742  0.4452
 5898TIP3    H239330   5.715   2.542   2.560 -0.0397  1.1485  0.6412
 5899TIP3   OH239331   5.598   1.278   0.349 -0.0123 -0.5651 -0.0371
 5899TIP3    H139332   5.565   1.307   0.434  0.4715  1.2934 -0.4367
 5899TIP3    H239333   5.559   1.339   0.286  1.0044 -0.8259 -0.9439
 5900TIP3   OH239334   2.989   3.408   7.715 -0.6916  1.0090 -0.7950
 5900TIP3    H139335   2.945   3.340   7.664  0.5801 -0.5994  0.1757
 5900TIP3    H239336   3.033   3.463   7.649  0.2246 -0.5308 -1.5132
 5901TIP3   OH239337   0.283   1.458   1.125  0.2531  0.1840  0.7537
 5901TIP3    H139338   0.351   1.473   1.059 -0.5602 -1.1494 -0.4386
 5901TIP3    H239339   0.203   1.444   1.075 -0.4541 -0.5845  2.0357
 5902TIP3   OH239340   2.711   5.029   1.755  0.1423 -0.2280 -0.2686
 5902TIP3    H139341   2.737   5.054   1.666 -0.4068 -0.7192 -0.5762
 5902TIP3    H239342   2.716   5.111   1.805  0.0615  0.1393 -0.8450
 5903TIP3   OH239343   5.220   3.208   7.774 -0.2465 -0.3708  0.1080
 5903TIP3    H139344   5.267   3.233   7.854  0.7998  0.6826 -0.7920
 5903TIP3    H239345   5.269   3.251   7.704 -3.0226  1.5058 -0.8362
 5904TIP3   OH239346   3.589   4.437   0.826  0.4077  0.1014 -0.2335
 5904TIP3    H139347   3.572   4.343   0.831 -2.0080  0.4234 -0.8741
 5904TIP3    H239348   3.564   4.471   0.912  0.0893  0.3069 -0.4054
 5905TIP3   OH239349   4.256   3.108   7.183  0.6196  0.5027 -0.2274
 5905TIP3    H139350   4.295   3.192   7.161  2.5420 -0.4427 -0.6634
 5905TIP3    H239351   4.235   3.068   7.099  0.5342  0.1926 -0.0621
 5906TIP3   OH239352   3.662   2.781   1.265 -0.0976  0.6660 -0.2153
 5906TIP3    H139353   3.573   2.748   1.279  0.4860 -0.5310  0.9657
 5906TIP3    H239354   3.651   2.876   1.258 -1.4133  0.6076  0.5524
 5907TIP3   OH239355   5.475   2.391   7.613  0.1371 -0.7742 -0.6120
 5907TIP3    H139356   5.547   2.332   7.592  1.1389  0.0935  0.2856
 5907TIP3    H239357   5.441   2.359   7.696  0.2865 -0.4567 -0.4274
 5908TIP3   OH239358   3.347   3.064   6.468 -0.0811  0.3897 -0.2209
 5908TIP3    H139359   3.268   3.016   6.444 -1.7860  3.2885 -0.8835
 5908TIP3    H239360   3.326   3.103   6.553  0.5544  1.4185 -0.5269
 5909TIP3   OH239361   2.243   5.786   0.961 -0.6498  0.3019 -0.0628
 5909TIP3    H139362   2.219   5.865   0.912  1.0767  1.4675  0.8765
 5909TIP3    H239363   2.173   5.778   1.027 -1.6529  0.1341 -1.1071
 5910TIP3   OH239364   2.397   3.571   1.132 -0.2029 -0.5769 -0.2943
 5910TIP3    H139365   2.339   3.556   1.207 -0.1284 -0.6483 -0.2506
 5910TIP3    H239366   2.457   3.496   1.133  0.7149  0.1462  0.4311
 5911TIP3   OH239367   0.254   1.557   0.501  0.0374  0.4597  0.5229
 5911TIP3    H139368   0.296   1.526   0.581 -1.2002  0.1125  1.0607
 5911TIP3    H239369   0.326   1.587   0.446  1.0625 -0.9169  1.0594
 5912TIP3   OH239370   1.556   5.122   7.471 -0.1422 -0.5779 -1.0084
 5912TIP3    H139371   1.638   5.085   7.438  0.5302 -0.1752  0.1596
 5912TIP3    H239372   1.545   5.203   7.421 -0.3578 -1.1324 -1.8697
 5913TIP3   OH239373   0.411   1.089   1.434 -0.8443 -0.0297 -0.2887
 5913TIP3    H139374   0.338   1.129   1.482 -0.4942 -0.0291  0.2436
 5913TIP3    H239375   0.487   1.141   1.458 -0.5779 -0.3466 -0.4503
 5914TIP3   OH239376   2.303   5.947   7.866  0.4363  0.2846 -0.0681
 5914TIP3    H139377   2.314   6.021   7.806 -0.3526  0.9732  0.6304
 5914TIP3    H239378   2.350   5.875   7.822 -0.5016  0.6377 -1.7471
 5915TIP3   OH239379   0.970   6.422   6.878  0.1722  0.3093  0.4572
 5915TIP3    H139380   0.890   6.464   6.908 -0.3094  0.5925 -1.1559
 5915TIP3    H239381   0.940   6.354   6.818  1.1516  1.5826 -1.5868
 5916TIP3   OH239382   5.169   1.463   1.136 -0.2628 -0.3528 -0.5674
 5916TIP3    H139383   5.085   1.507   1.124 -0.3970 -0.3684  0.2734
 5916TIP3    H239384   5.174   1.401   1.063 -1.1432 -0.6028 -0.4293
 5917TIP3   OH239385   1.870   2.208   2.895  0.1062 -0.4673  0.5923
 5917TIP3    H139386   1.809   2.280   2.907  0.3276 -0.5109  2.1127
 5917TIP3    H239387   1.818   2.138   2.854  0.4002  1.2600 -3.1657
 5918TIP3   OH239388   0.608   4.853   7.704  0.6766 -0.4562 -0.3049
 5918TIP3    H139389   0.620   4.766   7.666 -0.4024 -1.0176  0.5848
 5918TIP3    H239390   0.515   4.873   7.689  0.9367  0.6159 -0.6173
 5919TIP3   OH239391   4.921   4.249   7.119 -0.0288 -1.4286  0.3817
 5919TIP3    H139392   4.828   4.232   7.102  0.3980 -3.4615 -0.2601
 5919TIP3    H239393   4.967   4.178   7.073  1.9196  0.1235 -0.2260
 5920TIP3   OH239394   1.714   3.089   0.527  0.3876  0.0892  0.0926
 5920TIP3    H139395   1.663   3.101   0.607 -0.4979  0.9782 -0.5829
 5920TIP3    H239396   1.666   3.022   0.478  0.2294  0.4450 -0.2458
 5921TIP3   OH239397   5.633   3.729   7.224  0.5443  0.2865 -0.0118
 5921TIP3    H139398   5.597   3.817   7.215 -2.4504 -0.7902  0.3093
 5921TIP3    H239399   5.674   3.711   7.140 -0.8851  1.1359 -0.9237
 5922TIP3   OH239400   0.707   1.943   6.681 -0.0171  0.2815 -0.2093
 5922TIP3    H139401   0.715   2.031   6.717 -0.9497  1.0632 -1.7817
 5922TIP3    H239402   0.766   1.942   6.606  0.1335 -0.5180 -0.0943
 5923TIP3   OH239403   6.256   2.628   7.176  0.5542 -1.0643  0.2915
 5923TIP3    H139404   6.338   2.581   7.186  1.0109 -0.3149  0.1703
 5923TIP3    H239405   6.196   2.587   7.239  1.0162 -1.6087  0.3827
 5924TIP3   OH239406   0.274   2.831   1.027  0.1699  0.5105 -0.4957
 5924TIP3    H139407   0.247   2.778   0.953  2.8018 -0.9736 -0.4906
 5924TIP3    H239408   0.240   2.785   1.104  0.6600 -0.0517 -0.6089
 5925TIP3   OH239409   4.940   3.845   8.222  0.1574  0.0466 -0.4980
 5925TIP3    H139410   4.892   3.830   8.303  1.2869 -1.4629 -0.0444
 5925TIP3    H239411   5.005   3.911   8.245  0.8160 -0.7537  0.0093
 5926TIP3   OH239412   2.799   2.610   0.615 -0.1281 -0.3664 -0.2244
 5926TIP3    H139413   2.789   2.532   0.669  0.3746 -0.5671 -0.4081
 5926TIP3    H239414   2.745   2.677   0.657  1.3183 -0.1044  1.3262
 5927TIP3   OH239415   0.328   5.911   6.925 -0.2738  0.2005  0.2615
 5927TIP3    H139416   0.377   5.983   6.885  2.2274 -1.9887 -0.8588
 5927TIP3    H239417   0.392   5.866   6.981 -0.8302 -2.9228 -1.4089
 5928TIP3   OH239418   5.751   6.620   2.091 -0.1524 -0.1591  0.4479
 5928TIP3    H139419   5.746   6.620   1.995 -1.0167  1.8976  0.4459
 5928TIP3    H239420   5.845   6.625   2.110  0.1251 -1.8451 -0.2167
 5929TIP3   OH239421   0.687   2.124   8.167  0.2872  0.2814  0.2780
 5929TIP3    H139422   0.650   2.067   8.234  0.3324  0.0270  0.0837
 5929TIP3    H239423   0.722   2.198   8.216 -0.0024  0.2684  0.5065
 5930TIP3   OH239424   5.767   0.488   1.408  0.2616 -0.0765  0.0394
 5930TIP3    H139425   5.682   0.488   1.453  0.8409  1.9243  1.2523
 5930TIP3    H239426   5.826   0.534   1.467  2.7949 -3.1476  0.1925
 5931TIP3   OH239427   3.760   4.855   1.092 -0.3834 -0.2130 -0.1397
 5931TIP3    H139428   3.808   4.772   1.085  1.0744  0.4720  1.1821
 5931TIP3    H239429   3.673   4.835   1.057  0.7524 -1.5677 -2.3676
 5932TIP3   OH239430   0.307   6.769   2.146  0.4130  0.1346 -0.9338
 5932TIP3    H139431   0.236   6.809   2.097 -0.3594 -0.9526 -0.7434
 5932TIP3    H239432   0.301   6.808   2.233 -2.1443 -2.3058  0.1420
 5933TIP3   OH239433   0.246   0.406   0.728 -0.2245 -0.1242  0.6519
 5933TIP3    H139434   0.280   0.490   0.696 -1.2606  0.7932  1.8865
 5933TIP3    H239435   0.254   0.412   0.823 -1.5900 -0.8602  0.8301
 5934TIP3   OH239436   3.985   3.011   0.024 -0.0264  0.6148  0.5397
 5934TIP3    H139437   4.053   2.988  -0.039 -0.2877 -1.7961  1.0564
 5934TIP3    H239438   3.905   2.974  -0.012 -0.4732  0.5943  1.5061
 5935TIP3   OH239439   2.082   1.292   6.873 -0.2958 -0.7562 -0.7060
 5935TIP3    H139440   2.114   1.227   6.935  0.0590  0.5564  0.5519
 5935TIP3    H239441   2.077   1.246   6.789 -2.1598 -3.0020  0.5155
 5936TIP3   OH239442   2.857   0.282   0.525 -0.4219 -0.1251 -0.1917
 5936TIP3    H139443   2.849   0.294   0.619 -0.9464  2.6947 -0.4985
 5936TIP3    H239444   2.771   0.249   0.498 -0.5050 -0.2481  0.2157
 5937TIP3   OH239445   3.050   6.401   0.398 -0.0057  0.4111 -0.2033
 5937TIP3    H139446   3.132   6.396   0.447 -0.0566  2.1632  0.1004
 5937TIP3    H239447   3.019   6.310   0.394  0.5212  0.0812  2.0974
 5938TIP3   OH239448   1.250   1.381   2.568  0.2683 -0.1491  0.2432
 5938TIP3    H139449   1.167   1.396   2.521 -0.0729 -0.2697  0.8009
 5938TIP3    H239450   1.224   1.372   2.660  0.8962 -0.2640  0.4109
 5939TIP3   OH239451   1.532   0.542   2.894  0.1043  0.1044 -0.0877
 5939TIP3    H139452   1.517   0.449   2.885 -0.9685  0.3208 -0.6460
 5939TIP3    H239453   1.618   0.557   2.854  0.5652 -0.7169  0.5619
 5940TIP3   OH239454   5.182   2.537   2.172  0.0353  0.0191 -0.3654
 5940TIP3    H139455   5.222   2.612   2.129  4.7750 -0.3446  2.7001
 5940TIP3    H239456   5.150   2.570   2.256 -0.4343 -0.8597 -0.1793
 5941TIP3   OH239457   0.971   5.317   1.497 -0.1288 -0.4140  0.1905
 5941TIP3    H139458   0.968   5.400   1.545  1.0337 -0.7355  0.8614
 5941TIP3    H239459   0.885   5.278   1.509 -0.3996  0.2957  0.5983
 5942TIP3   OH239460   5.008   3.916   0.686  0.0987 -0.3085 -0.3268
 5942TIP3    H139461   4.958   3.972   0.746 -0.4771  0.4102 -1.4270
 5942TIP3    H239462   5.047   3.977   0.624  1.7954 -0.9287  0.0955
 5943TIP3   OH239463   6.597   6.143   1.137  0.1477  0.1048 -0.0590
 5943TIP3    H139464   6.597   6.126   1.043 -0.4955  0.7643 -0.1942
 5943TIP3    H239465   6.668   6.206   1.151  0.1620  0.1032 -0.1255
 5944TIP3   OH239466   2.430   5.516   0.078 -0.3175  0.8424  0.3733
 5944TIP3    H139467   2.391   5.505   0.165  0.6962  2.2392  1.0405
 5944TIP3    H239468   2.524   5.518   0.094  0.1312 -2.2222 -1.1815
 5945TIP3   OH239469   5.796   6.643   1.501  0.3142  0.1036  0.0814
 5945TIP3    H139470   5.785   6.731   1.465 -0.5411  0.9535  2.2544
 5945TIP3    H239471   5.886   6.618   1.477  0.4212  1.3664 -0.9284
 5946TIP3   OH239472   4.908   1.918   1.538 -0.4107  0.5968  0.2499
 5946TIP3    H139473   4.944   2.003   1.511  1.6617 -0.8263 -1.8132
 5946TIP3    H239474   4.954   1.898   1.620  0.7900  0.4620 -0.4442
 5947TIP3   OH239475   2.294   6.111   7.129 -0.1535  0.5428  0.5680
 5947TIP3    H139476   2.204   6.139   7.111 -1.3064 -2.5886  0.8272
 5947TIP3    H239477   2.338   6.118   7.045 -1.3766 -0.1625 -0.1703
 5948TIP3   OH239478   4.974   5.880   1.028  0.1292  0.6352 -0.1228
 5948TIP3    H139479   4.977   5.804   0.970  2.3467  1.5085 -1.2568
 5948TIP3    H239480   5.005   5.848   1.112 -3.2198 -0.6707  0.8046
 5949TIP3   OH239481   1.596   2.996   2.383 -0.2401  0.3222 -0.3291
 5949TIP3    H139482   1.556   2.956   2.460  0.1343 -0.1945 -0.4009
 5949TIP3    H239483   1.528   2.992   2.316 -0.2722 -0.0147 -0.2776
 5950TIP3   OH239484   1.544   6.070   7.804  0.1682 -0.4932 -0.9481
 5950TIP3    H139485   1.457   6.029   7.806  0.4740 -1.1578 -0.7719
 5950TIP3    H239486   1.531   6.156   7.843 -0.4300 -0.5569 -0.9980
 5951TIP3   OH239487   3.478   3.857   0.960  0.2128  0.8783 -0.4893
 5951TIP3    H139488   3.515   3.801   1.029  0.3073  1.6732  0.1216
 5951TIP3    H239489   3.435   3.928   1.008 -0.7901  0.7884 -1.2312
 5952TIP3   OH239490   6.005   1.660   7.943  0.5903  0.1177  0.0318
 5952TIP3    H139491   5.989   1.639   7.851  0.8694  0.1346 -0.0223
 5952TIP3    H239492   5.918   1.669   7.981  0.4737  0.3119 -0.2765
 5953TIP3   OH239493   3.466   0.066   1.504  0.4993 -0.1196  0.3100
 5953TIP3    H139494   3.505   0.091   1.420 -1.2096  0.0830 -0.4614
 5953TIP3    H239495   3.468  -0.030   1.504 -1.0991 -0.1803 -0.7876
 5954TIP3   OH239496   1.174   5.632   2.543  0.0536 -0.4196 -0.1772
 5954TIP3    H139497   1.086   5.630   2.580 -0.9431 -0.2167 -2.3788
 5954TIP3    H239498   1.162   5.607   2.452  2.0522  1.1600 -0.9470
 5955TIP3   OH239499   4.989   2.648   1.270  0.0170  0.1997 -0.0280
 5955TIP3    H139500   5.018   2.633   1.360 -0.0478 -0.8203 -0.1588
 5955TIP3    H239501   5.070   2.661   1.221  0.0913  0.1463  0.0779
 5956TIP3   OH239502   4.200   3.703   7.028  0.0340  0.0166  0.2403
 5956TIP3    H139503   4.172   3.661   7.110 -0.9482  1.0645  0.4638
 5956TIP3    H239504   4.132   3.767   7.010  1.6158  1.7349  0.0627
 5957TIP3   OH239505   2.535   5.883   2.104  0.2310 -0.2376 -0.6091
 5957TIP3    H139506   2.546   5.855   2.195  0.4715 -0.1257 -0.6032
 5957TIP3    H239507   2.551   5.978   2.105 -1.6449  0.1116 -0.4432
 5958TIP3   OH239508   2.509   2.578   1.596  0.0992 -0.0453 -0.4544
 5958TIP3    H139509   2.463   2.528   1.529 -0.0501  1.9430 -1.9440
 5958TIP3    H239510   2.443   2.595   1.663 -0.6034  0.3946 -1.2292
 5959TIP3   OH239511   2.463   3.337   0.761 -0.0336 -1.1352 -0.5325
 5959TIP3    H139512   2.425   3.250   0.776 -1.4149 -0.5305 -0.3727
 5959TIP3    H239513   2.417   3.394   0.823 -1.4651  0.2990 -2.7502
 5960TIP3   OH239514   2.257   1.649   1.922  0.3851  0.5350 -0.4334
 5960TIP3    H139515   2.260   1.736   1.882 -0.1024  0.6573 -0.2241
 5960TIP3    H239516   2.314   1.655   1.998 -1.5770  1.4881  1.0791
 5961TIP3   OH239517   1.719   2.520   2.408  0.3303 -0.3652 -0.0233
 5961TIP3    H139518   1.647   2.478   2.456 -0.4886  0.1942 -0.7458
 5961TIP3    H239519   1.744   2.594   2.464  2.1493 -2.0315  1.5334
 5962TIP3   OH239520   3.789   2.269   1.252  0.4028 -0.3368 -0.4197
 5962TIP3    H139521   3.774   2.175   1.238  0.8723 -0.4276 -0.3382
 5962TIP3    H239522   3.765   2.310   1.169 -0.8783 -0.3970 -0.1034
 5963TIP3   OH239523   3.820   6.350   7.034  0.3945 -0.2335 -0.1283
 5963TIP3    H139524   3.881   6.395   7.093  0.0768 -1.1155  0.9049
 5963TIP3    H239525   3.836   6.257   7.048 -0.4171 -0.4683 -0.6599
 5964TIP3   OH239526   3.951   1.220   0.886 -0.1140  0.2454  0.0606
 5964TIP3    H139527   3.994   1.153   0.939 -0.8199  0.8592  1.4569
 5964TIP3    H239528   3.881   1.173   0.840  0.3357 -0.2498 -0.1207
 5965TIP3   OH239529   4.916   6.201   8.514 -0.2475 -0.2077  0.2970
 5965TIP3    H139530   4.929   6.260   8.588  2.8787  0.5165 -0.6701
 5965TIP3    H239531   4.943   6.252   8.437 -3.3584 -0.9203 -1.4551
 5966TIP3   OH239532   6.891   1.908   6.632  0.7683 -0.5417  0.5186
 5966TIP3    H139533   6.861   1.864   6.712  1.4234 -0.6173  0.7269
 5966TIP3    H239534   6.812   1.948   6.596  0.5499 -0.0962  1.4619
 5967TIP3   OH239535   5.115   6.196   0.226  0.0697 -0.5217  0.2292
 5967TIP3    H139536   5.136   6.107   0.197  0.1488 -1.3429  2.5938
 5967TIP3    H239537   5.020   6.198   0.231  0.1192 -0.9603  1.5289
 5968TIP3   OH239538   4.843   3.806   8.475 -0.4978 -0.8518  0.8082
 5968TIP3    H139539   4.841   3.901   8.491  2.8225 -0.6264  0.4946
 5968TIP3    H239540   4.897   3.771   8.545  1.6422 -1.9086 -1.2364
 5969TIP3   OH239541   3.712   1.215   7.772  0.2003  0.0033 -0.7642
 5969TIP3    H139542   3.751   1.134   7.738 -0.7782 -1.1774  0.7942
 5969TIP3    H239543   3.787   1.269   7.796  0.8742 -0.7981 -0.9947
 5970TIP3   OH239544   5.280   2.333   1.000 -0.4445  0.5570 -0.0921
 5970TIP3    H139545   5.249   2.377   0.921 -1.0240 -2.9545 -2.0233
 5970TIP3    H239546   5.207   2.339   1.062 -0.2620  2.7001 -0.0207
 5971TIP3   OH239547   6.299   3.629   7.017 -0.6197 -0.5602  0.4037
 5971TIP3    H139548   6.380   3.643   7.067 -0.3427 -1.5450  0.2605
 5971TIP3    H239549   6.320   3.556   6.959 -0.8535  0.7290 -1.3711
 5972TIP3   OH239550   3.103   5.200   8.008 -0.4283 -0.5601 -0.5353
 5972TIP3    H139551   3.094   5.181   7.915  1.9233 -0.8434 -0.7716
 5972TIP3    H239552   3.158   5.129   8.041  0.0118  0.3422  0.7428
 5973TIP3   OH239553   3.707   6.751   1.118  0.4366 -0.3729  0.5861
 5973TIP3    H139554   3.736   6.823   1.062  0.9188 -0.8974  0.1435
 5973TIP3    H239555   3.745   6.770   1.204  3.0287 -1.5300 -0.1837
 5974TIP3   OH239556   2.226   1.121   2.592 -0.1543  0.4280  0.5737
 5974TIP3    H139557   2.194   1.107   2.682 -1.5015 -0.4297 -0.0064
 5974TIP3    H239558   2.178   1.198   2.561 -0.1740  0.3325  0.3683
 5975TIP3   OH239559   5.562   0.121   0.230 -0.4791  0.3363 -0.1737
 5975TIP3    H139560   5.480   0.108   0.277  0.3732  1.0809  1.6150
 5975TIP3    H239561   5.550   0.073   0.148 -1.9210 -1.3223  0.9213
 5976TIP3   OH239562   0.045   3.537   1.981 -0.8003 -0.3537  0.2589
 5976TIP3    H139563   0.060   3.510   2.071 -1.6865 -0.1823  0.4665
 5976TIP3    H239564  -0.013   3.613   1.988 -0.8161 -0.2946 -0.4446
 5977TIP3   OH239565   3.945   6.586   7.815 -0.3873  0.1077  0.1267
 5977TIP3    H139566   3.859   6.545   7.807  0.2324 -1.5827  1.4012
 5977TIP3    H239567   3.971   6.606   7.725 -1.3945 -0.9563 -0.4326
 5978TIP3   OH239568   5.718   1.433   1.241 -0.0891 -0.0053 -0.0913
 5978TIP3    H139569   5.774   1.406   1.168  0.0502  0.7334 -0.2627
 5978TIP3    H239570   5.732   1.527   1.248 -1.5635  0.2513 -0.3523
 5979TIP3   OH239571   4.238   5.545   0.520 -0.4697  0.6306 -0.1457
 5979TIP3    H139572   4.263   5.453   0.534  1.4157  1.2074  0.5341
 5979TIP3    H239573   4.292   5.574   0.447 -1.2872  1.1354 -0.5622
 5980TIP3   OH239574   1.345   6.636   2.228  0.3062 -0.1616  0.0810
 5980TIP3    H139575   1.385   6.623   2.314  0.4240 -0.7277 -0.0523
 5980TIP3    H239576   1.350   6.550   2.186  0.1704  0.0867 -0.4588
 5981TIP3   OH239577   6.478   1.484   7.183 -0.4260  0.0481  0.5051
 5981TIP3    H139578   6.396   1.451   7.218  0.2126 -2.7477 -0.3826
 5981TIP3    H239579   6.470   1.473   7.089  0.5941  0.6858  0.3292
 5982TIP3   OH239580   6.255   4.862   6.571 -0.0059 -0.0236  0.0393
 5982TIP3    H139581   6.333   4.916   6.576  0.9440 -1.2572 -0.8866
 5982TIP3    H239582   6.220   4.876   6.483  0.5750 -1.3019 -0.4189
 5983TIP3   OH239583   5.990   0.571   0.940 -0.8814 -0.6033 -0.0412
 5983TIP3    H139584   6.013   0.479   0.924  1.9481 -0.2528  1.4655
 5983TIP3    H239585   5.938   0.568   1.020 -0.6161 -0.8956  0.1261
 5984TIP3   OH239586   2.579   0.571   0.432 -0.0203 -0.0282  0.2416
 5984TIP3    H139587   2.488   0.579   0.404 -0.2550  1.6806  1.3421
 5984TIP3    H239588   2.577   0.588   0.526  1.4525  0.3282  0.2398
 5985TIP3   OH239589   0.169   3.677   7.936  0.3818  0.7529 -0.1387
 5985TIP3    H139590   0.104   3.747   7.941  0.5838  0.8688  1.5013
 5985TIP3    H239591   0.220   3.698   7.858 -3.2237 -0.9180 -3.2984
 5986TIP3   OH239592   2.514   2.180   1.699  0.1511  0.5867  0.1185
 5986TIP3    H139593   2.459   2.195   1.777  0.9839  0.3304  0.7723
 5986TIP3    H239594   2.452   2.159   1.630 -0.6052  0.6776  0.7509
 5987TIP3   OH239595   5.697   3.739   7.627  0.6528 -0.0551  0.2538
 5987TIP3    H139596   5.771   3.742   7.566  0.9109  0.6125  0.5814
 5987TIP3    H239597   5.641   3.812   7.601  0.6332  0.0741  0.6426
 5988TIP3   OH239598   0.601   5.185   6.700 -0.7436 -0.3659 -0.3796
 5988TIP3    H139599   0.613   5.128   6.624  1.6579  1.7117 -1.7043
 5988TIP3    H239600   0.667   5.155   6.762 -0.3883  0.0978 -0.5314
 5989TIP3   OH239601   1.944   3.073   1.150  0.3246  0.1778  0.7045
 5989TIP3    H139602   1.887   3.106   1.081 -0.9442 -2.4174  0.3720
 5989TIP3    H239603   1.940   3.139   1.219 -0.3194  1.6703 -0.7012
 5990TIP3   OH239604   5.590   6.314   1.667  0.4558 -0.4333  0.0682
 5990TIP3    H139605   5.529   6.280   1.732  0.9944 -1.4118  0.0842
 5990TIP3    H239606   5.673   6.322   1.713  0.2666  1.3414  0.1739
 5991TIP3   OH239607   6.147   1.761   7.550 -0.3243  0.0439 -0.0808
 5991TIP3    H139608   6.112   1.837   7.505  0.4911  0.7547  0.4544
 5991TIP3    H239609   6.203   1.797   7.619  1.3086 -1.0296 -0.7869
 5992TIP3   OH239610   2.889   4.610   0.216 -0.5113 -0.1538  0.8191
 5992TIP3    H139611   2.900   4.703   0.237 -2.1282 -0.0865  1.5588
 5992TIP3    H239612   2.976   4.581   0.190  0.8483  0.7332  3.8558
 5993TIP3   OH239613   4.607   2.733   6.421  0.3352  0.3975  0.0997
 5993TIP3    H139614   4.653   2.805   6.378  1.1797 -0.5433 -0.6150
 5993TIP3    H239615   4.514   2.754   6.410  0.5444  0.7104 -1.2854
 5994TIP3   OH239616   6.075   3.323   8.142  0.2073  0.1841  0.6180
 5994TIP3    H139617   6.023   3.243   8.135  1.7341 -0.8479  0.6265
 5994TIP3    H239618   6.113   3.335   8.055 -0.7225  1.4349  0.3588
 5995TIP3   OH239619   0.209   0.584   1.775  0.1250  0.3255 -0.0721
 5995TIP3    H139620   0.174   0.535   1.849 -1.6648 -0.8002 -1.5829
 5995TIP3    H239621   0.186   0.532   1.698  2.0748  1.3465 -1.4579
 5996TIP3   OH239622   3.397   4.577   8.511  0.3250  0.2609  0.3946
 5996TIP3    H139623   3.329   4.510   8.510 -0.5017  1.0670 -0.7574
 5996TIP3    H239624   3.461   4.547   8.447 -0.2320  0.7094 -0.4043
 5997TIP3   OH239625   4.895   0.072   8.103  0.4853 -0.2035  0.2513
 5997TIP3    H139626   4.983   0.107   8.115 -0.3342  2.6694 -1.1079
 5997TIP3    H239627   4.902   0.011   8.030  1.5483 -1.0646  1.0474
 5998TIP3   OH239628   3.260   5.260   6.682 -0.4439 -0.5046 -0.2554
 5998TIP3    H139629   3.207   5.182   6.697  0.4160 -1.3284 -1.3753
 5998TIP3    H239630   3.197   5.329   6.664 -1.2377 -0.8322  1.1321
 5999TIP3   OH239631   0.395   4.888   0.794 -0.6981  0.6681  0.2657
 5999TIP3    H139632   0.343   4.808   0.799  0.4112 -0.0238  1.2895
 5999TIP3    H239633   0.460   4.871   0.726 -1.0720  1.0720 -0.1920
 6000TIP3   OH239634   2.341   0.037   8.391  0.3021  0.3137  0.3784
 6000TIP3    H139635   2.270   0.055   8.452 -0.5740  0.6991 -0.7198
 6000TIP3    H239636   2.388  -0.037   8.429 -0.8508 -0.1199  0.9848
 6001TIP3   OH239637   6.127   6.675   8.057  0.0635  0.7456  0.1550
 6001TIP3    H139638   6.175   6.631   8.127  0.4221  0.3078 -0.3585
 6001TIP3    H239639   6.186   6.673   7.982 -1.0358 -0.5251 -0.7363
 6002TIP3   OH239640   4.198   3.729   0.251  0.1556  0.0425 -0.0969
 6002TIP3    H139641   4.134   3.786   0.208  0.7963  1.4262  0.7209
 6002TIP3    H239642   4.150   3.649   0.271 -1.1165  0.7645 -0.1846
 6003TIP3   OH239643   2.567   1.234   1.981 -0.1863 -0.3139 -0.4298
 6003TIP3    H139644   2.609   1.292   2.044 -3.1870 -0.1683  1.6643
 6003TIP3    H239645   2.517   1.292   1.924 -0.7384 -0.6756 -0.3203
 6004TIP3   OH239646   3.599   0.087   1.231 -0.2398  0.7859  0.0823
 6004TIP3    H139647   3.647   0.057   1.154  1.0681  3.3545 -0.2006
 6004TIP3    H239648   3.531   0.146   1.196  0.2216  1.7949  0.8402
 6005TIP3   OH239649   5.839   1.799   2.996 -0.1759 -0.0725 -0.1481
 6005TIP3    H139650   5.785   1.875   3.018 -2.0558 -1.0733 -1.0614
 6005TIP3    H239651   5.921   1.813   3.043 -1.2816  1.4446  1.4382
 6006TIP3   OH239652   3.385   2.809   1.277 -0.1992  0.1728 -0.1820
 6006TIP3    H139653   3.390   2.903   1.257 -0.1742 -0.3416 -2.9473
 6006TIP3    H239654   3.306   2.780   1.232 -1.2964 -0.8327  2.2622
 6007TIP3   OH239655   2.628   4.618   0.103 -0.2020 -0.1707  0.2562
 6007TIP3    H139656   2.567   4.664   0.161  0.4979 -0.3572  1.1685
 6007TIP3    H239657   2.712   4.623   0.148  0.6942  0.9191 -1.4398
 6008TIP3   OH239658   4.133   5.398   6.795 -0.2209  0.0162 -0.0154
 6008TIP3    H139659   4.126   5.468   6.860  0.7406  0.5315 -0.4449
 6008TIP3    H239660   4.150   5.320   6.847 -1.6324  0.0124  0.4943
 6009TIP3   OH239661   6.281   2.115   3.094  0.1869 -0.2476  0.2056
 6009TIP3    H139662   6.280   2.031   3.140  0.2127 -0.4436 -0.1472
 6009TIP3    H239663   6.331   2.098   3.014  1.4688  0.4731  0.8215
 6010TIP3   OH239664   1.535   3.022   8.322  0.2122  0.3779 -0.2277
 6010TIP3    H139665   1.512   2.968   8.398 -0.0755  2.2146  1.0828
 6010TIP3    H239666   1.563   2.960   8.255 -1.5278 -1.4658  0.6591
 6011TIP3   OH239667   0.940   5.498   2.697  0.6730  0.3731  0.1714
 6011TIP3    H139668   0.956   5.463   2.610  0.9775  0.5619  0.1499
 6011TIP3    H239669   0.958   5.425   2.757 -1.9449 -0.5281 -0.0382
 6012TIP3   OH239670   1.507   6.000   1.567 -0.5302 -0.6691  0.3020
 6012TIP3    H139671   1.586   5.954   1.538 -1.1357 -1.2118 -0.5580
 6012TIP3    H239672   1.539   6.079   1.611  0.4895 -0.7932 -0.1953
 6013TIP3   OH239673   5.585   1.684   7.400 -0.7829 -0.2070  0.6630
 6013TIP3    H139674   5.546   1.651   7.319 -1.8582  0.2668  0.9658
 6013TIP3    H239675   5.626   1.608   7.441  0.5752 -0.2807 -0.7496
 6014TIP3   OH239676   0.946   3.822   2.086 -0.0955  0.1794 -0.0282
 6014TIP3    H139677   0.855   3.799   2.105  0.0329 -0.6074 -0.3083
 6014TIP3    H239678   0.961   3.791   1.997  0.2186  1.0292 -0.2809
 6015TIP3   OH239679   5.551   6.895   2.021 -0.2157 -0.9827 -0.2782
 6015TIP3    H139680   5.645   6.895   2.042 -0.1622 -1.7415 -0.4846
 6015TIP3    H239681   5.509   6.932   2.099  0.2804 -0.3035 -0.3260
 6016TIP3   OH239682   6.368   3.297   0.688 -0.0547 -0.5013  0.3251
 6016TIP3    H139683   6.397   3.351   0.615  0.5049 -1.4545 -0.1881
 6016TIP3    H239684   6.332   3.359   0.752  0.2554  0.4261 -0.3801
 6017TIP3   OH239685   0.814   4.310   2.814  0.1931 -0.0201 -1.0765
 6017TIP3    H139686   0.819   4.402   2.840  0.1912  0.2247 -1.9159
 6017TIP3    H239687   0.721   4.290   2.817  0.3531 -0.7033  1.4273
 6018TIP3   OH239688   1.575   0.771   8.253 -0.0732  0.2696 -0.3334
 6018TIP3    H139689   1.638   0.746   8.185  0.5752 -0.0099  0.3613
 6018TIP3    H239690   1.626   0.774   8.334 -0.4040  2.5129 -0.1306
 6019TIP3   OH239691   2.807   5.904   8.224  0.3033  0.2384 -0.0895
 6019TIP3    H139692   2.888   5.897   8.273  0.0498 -1.6725  0.1457
 6019TIP3    H239693   2.741   5.927   8.289  0.5714  1.4207 -0.2179
 6020TIP3   OH239694   5.145   6.056   7.789  0.3737  0.0443 -0.0072
 6020TIP3    H139695   5.190   6.132   7.753 -1.3367  0.5298 -1.2472
 6020TIP3    H239696   5.148   5.990   7.720 -0.5863 -0.0029 -0.0146
 6021TIP3   OH239697   5.873   1.968   6.224 -0.3875  0.4941 -0.3610
 6021TIP3    H139698   5.791   1.920   6.212  0.4940 -0.6472 -2.4444
 6021TIP3    H239699   5.931   1.905   6.268  0.0706  0.4334 -1.0304
 6022TIP3   OH239700   1.704   3.854   1.203  0.3607 -0.0149 -0.3288
 6022TIP3    H139701   1.771   3.794   1.171  0.3671 -0.6985  0.9145
 6022TIP3    H239702   1.744   3.940   1.198  1.5572 -0.4750  0.9295
 6023TIP3   OH239703   5.436   6.089   8.122  0.3016  0.1956  0.3139
 6023TIP3    H139704   5.410   6.003   8.089  0.8507  0.0021  0.3787
 6023TIP3    H239705   5.396   6.151   8.061  1.4934 -0.1648 -0.8759
 6024TIP3   OH239706   2.500   0.183   0.237 -0.3229 -0.5813 -0.2821
 6024TIP3    H139707   2.509   0.168   0.143 -1.6782 -1.8380 -0.2420
 6024TIP3    H239708   2.471   0.274   0.244  0.4182 -0.2760 -1.0181
 6025TIP3   OH239709   6.104   5.595   6.970 -0.2630 -0.0729  0.5199
 6025TIP3    H139710   6.084   5.676   7.017 -1.3082  0.2786 -0.4818
 6025TIP3    H239711   6.127   5.532   7.038 -0.0358  0.8934  1.3553
 6026TIP3   OH239712   0.729   6.883   1.936 -0.1121 -0.7508  0.2763
 6026TIP3    H139713   0.650   6.935   1.923  0.5106 -0.2904 -2.1844
 6026TIP3    H239714   0.782   6.933   1.998 -1.4854 -0.8166  1.5494
 6027TIP3   OH239715   3.707   0.166   7.815 -0.2401  0.2345 -0.4227
 6027TIP3    H139716   3.794   0.133   7.794  0.2901  1.4600 -0.1846
 6027TIP3    H239717   3.651   0.088   7.813  0.5695 -0.3424 -2.1012
 6028TIP3   OH239718   4.620   3.413   1.072 -0.0219 -0.4727  0.2523
 6028TIP3    H139719   4.623   3.356   1.149 -0.4670  1.3715  1.7151
 6028TIP3    H239720   4.709   3.449   1.067 -0.2222  0.0576  0.4426
 6029TIP3   OH239721   3.183   0.547   2.407  0.2539 -0.4215 -0.4344
 6029TIP3    H139722   3.198   0.456   2.431  1.9011 -0.3943 -1.1691
 6029TIP3    H239723   3.169   0.592   2.490  2.0477 -0.9365  0.1948
 6030TIP3   OH239724   2.132   4.439   6.260 -0.1760  0.3764  0.3264
 6030TIP3    H139725   2.048   4.468   6.296 -0.2796 -1.2316  1.4893
 6030TIP3    H239726   2.133   4.344   6.276  0.4816 -0.1793 -2.5477
 6031TIP3   OH239727   5.858   1.739   2.159 -0.3744 -0.5169  0.9513
 6031TIP3    H139728   5.897   1.750   2.246 -1.1402 -0.0990  1.2503
 6031TIP3    H239729   5.920   1.683   2.112  0.5816  0.1118  1.4182
 6032TIP3   OH239730   0.569   2.401   8.114 -0.1206  0.8122 -0.0661
 6032TIP3    H139731   0.606   2.442   8.036 -1.1099  1.2573 -0.3188
 6032TIP3    H239732   0.645   2.366   8.161  0.6451  2.0333 -0.3538
 6033TIP3   OH239733   1.748   5.564   2.083  0.5950  0.1743 -0.0714
 6033TIP3    H139734   1.749   5.576   1.988 -1.5243 -2.0088 -0.4751
 6033TIP3    H239735   1.655   5.565   2.106  0.9463 -1.2639  1.6550
 6034TIP3   OH239736   0.571   2.541   1.108 -0.1588  1.2107  0.8550
 6034TIP3    H139737   0.589   2.629   1.141  0.4097  1.3220  0.2872
 6034TIP3    H239738   0.496   2.552   1.050 -0.7972  1.1159  1.6541
 6035TIP3   OH239739   3.421   3.267   0.791 -0.2240  0.4173 -0.0299
 6035TIP3    H139740   3.489   3.236   0.730  0.5991 -0.0589  1.0971
 6035TIP3    H239741   3.345   3.211   0.772 -0.1215  0.5540 -0.8949
 6036TIP3   OH239742   2.022   1.881   7.970  0.0640  0.1586  0.1623
 6036TIP3    H139743   2.035   1.788   7.956  0.6590  0.0541  1.2981
 6036TIP3    H239744   2.053   1.897   8.059 -0.9090  1.2634  0.3384
 6037TIP3   OH239745   5.594   3.063   1.004 -0.2878  0.3168  0.1359
 6037TIP3    H139746   5.525   3.129   1.007 -0.1855  0.5762 -2.0098
 6037TIP3    H239747   5.668   3.102   1.051 -1.1087  0.5765  1.2634
 6038TIP3   OH239748   5.995   2.080   2.350  0.4751 -0.4125  0.3801
 6038TIP3    H139749   5.949   2.034   2.420  0.7445 -0.4119  0.5582
 6038TIP3    H239750   5.940   2.156   2.331  2.0351  1.4940  2.9389
 6039TIP3   OH239751   0.412   6.500   0.095  0.3045  0.3750 -0.1355
 6039TIP3    H139752   0.494   6.503   0.144 -0.7016  0.2695  1.6022
 6039TIP3    H239753   0.404   6.409   0.066  1.4841  0.6936 -1.5751
 6040TIP3   OH239754   2.741   6.600   0.386  0.3628  0.0211  0.3307
 6040TIP3    H139755   2.703   6.570   0.304  3.7750  0.0562 -1.4252
 6040TIP3    H239756   2.719   6.693   0.390 -2.5457 -0.6044  1.2191
 6041TIP3   OH239757   4.632   5.648   2.513  0.3219 -0.0277 -0.2330
 6041TIP3    H139758   4.548   5.692   2.529  0.5065  0.1055  0.4288
 6041TIP3    H239759   4.616   5.557   2.536  1.1317  0.5035  2.9928
 6042TIP3   OH239760   4.424   1.293   7.529 -0.0328  0.3900 -0.6131
 6042TIP3    H139761   4.413   1.307   7.435 -1.1082  0.5966 -0.4661
 6042TIP3    H239762   4.350   1.236   7.553 -0.3172  1.1185  0.2801
 6043TIP3   OH239763   4.764   5.423   7.951  0.3530  0.3705  0.1368
 6043TIP3    H139764   4.685   5.476   7.965  0.8322  1.1078  0.1244
 6043TIP3    H239765   4.794   5.447   7.864  0.8564  0.4586  0.3302
 6044TIP3   OH239766   3.331   3.012   8.230 -1.0671  0.2829  0.3507
 6044TIP3    H139767   3.282   3.089   8.201  0.0024  0.9490  0.2301
 6044TIP3    H239768   3.404   3.006   8.168 -0.4351 -0.0718  1.1056
 6045TIP3   OH239769   0.045   2.764   7.523  0.8190  1.1382  0.5818
 6045TIP3    H139770  -0.007   2.841   7.549  1.2730  1.7704 -0.3387
 6045TIP3    H239771   0.131   2.800   7.503  0.6019  0.6294 -1.4171
 6046TIP3   OH239772   4.500   1.012   8.564  0.2232 -0.3654 -0.4700
 6046TIP3    H139773   4.427   0.951   8.570  0.8682 -1.3397 -2.0856
 6046TIP3    H239774   4.578   0.957   8.568  0.8187  0.2829 -2.2442
 6047TIP3   OH239775   3.098   0.615   2.654 -0.1893  0.5938  0.5461
 6047TIP3    H139776   3.104   0.651   2.743 -0.6249 -0.5762  1.0727
 6047TIP3    H239777   3.012   0.644   2.622 -0.3890  0.3256  0.8316
 6048TIP3   OH239778   1.347   4.200   7.072 -0.0776 -0.5523 -0.3753
 6048TIP3    H139779   1.428   4.251   7.079 -0.3297 -0.2731  0.7430
 6048TIP3    H239780   1.315   4.195   7.162 -1.1613 -0.8920 -0.7702
 6049TIP3   OH239781   6.787   1.387   8.202  0.0789 -0.0386  0.3046
 6049TIP3    H139782   6.788   1.292   8.201  0.8949 -0.0332  0.4720
 6049TIP3    H239783   6.704   1.410   8.158 -0.5296 -0.8210  1.0083
 6050TIP3   OH239784   4.021   1.089   1.949  0.0637  0.0554  0.4408
 6050TIP3    H139785   3.951   1.024   1.948 -0.6153  0.6569  2.9813
 6050TIP3    H239786   4.068   1.074   2.031  0.4412  2.1731  0.6788
 6051TIP3   OH239787   4.719   2.673   0.396  0.2475 -0.1843 -0.6954
 6051TIP3    H139788   4.676   2.588   0.396 -4.0459  1.6792  0.0839
 6051TIP3    H239789   4.693   2.714   0.314  3.8742 -0.1510 -2.0033
 6052TIP3   OH239790   6.850   6.196   0.361 -0.6003  0.3837  0.5687
 6052TIP3    H139791   6.810   6.270   0.405  0.3601  1.5335 -0.4061
 6052TIP3    H239792   6.909   6.235   0.296  0.0436 -1.2268  0.1129
 6053TIP3   OH239793   2.980   4.020   8.509  0.6214  0.0351  0.0642
 6053TIP3    H139794   2.951   3.930   8.500  1.9080 -0.5875  1.7048
 6053TIP3    H239795   2.937   4.066   8.437  1.1022 -2.1572 -1.7330
 6054TIP3   OH239796   5.336   2.608   6.420 -0.4892 -0.0807 -0.0402
 6054TIP3    H139797   5.256   2.661   6.426 -0.5017 -0.0769 -0.2303
 6054TIP3    H239798   5.307   2.527   6.379 -0.5605 -0.4247  0.6794
 6055TIP3   OH239799   3.319   2.954   0.985  0.2803  0.0936  0.3066
 6055TIP3    H139800   3.260   2.918   1.051  1.4905  0.2753  1.5271
 6055TIP3    H239801   3.273   3.032   0.953 -0.8903 -0.6894 -0.0250
 6056TIP3   OH239802   5.145   0.599   7.283 -0.1499  0.4466  0.6594
 6056TIP3    H139803   5.138   0.654   7.360 -0.5691 -1.7337  2.2650
 6056TIP3    H239804   5.114   0.654   7.211 -0.3583  2.3232  2.1054
 6057TIP3   OH239805   5.442   6.280   7.316 -0.0614  0.2193 -0.2140
 6057TIP3    H139806   5.351   6.305   7.334  0.1610 -0.4893  2.2291
 6057TIP3    H239807   5.494   6.346   7.361  0.6254  0.0140 -0.6975
 6058TIP3   OH239808   6.664   0.331   0.066 -0.4887 -0.4726 -0.2508
 6058TIP3    H139809   6.614   0.408   0.040 -0.1944 -0.9189 -2.2600
 6058TIP3    H239810   6.693   0.350   0.155 -0.0947  1.8838 -0.8357
 6059TIP3   OH239811   4.572   5.037   8.281 -0.0850 -0.3029  0.5058
 6059TIP3    H139812   4.644   5.094   8.307  0.9241 -0.7473 -1.1756
 6059TIP3    H239813   4.551   5.065   8.192 -1.2845 -0.9056  0.5796
 6060TIP3   OH239814   4.391   5.346   7.469  0.0483  0.1992 -0.5399
 6060TIP3    H139815   4.465   5.383   7.421 -0.5764 -0.2947 -1.9395
 6060TIP3    H239816   4.426   5.264   7.506  0.5789  0.6668  0.0256
 6061TIP3   OH239817   6.287   4.658   7.996  0.4542 -0.4356  0.5972
 6061TIP3    H139818   6.295   4.568   7.963  1.0791 -0.2574  0.2492
 6061TIP3    H239819   6.268   4.710   7.919  0.1941 -0.2522  0.7839
 6062TIP3   OH239820   0.143   1.489   7.414  0.5608  0.1251 -0.7761
 6062TIP3    H139821   0.117   1.577   7.388  0.7090  0.6156  0.6579
 6062TIP3    H239822   0.075   1.432   7.379 -1.6664  1.1987  1.5204
 6063TIP3   OH239823   4.418   3.111   6.894 -0.0989  0.1401 -0.2162
 6063TIP3    H139824   4.382   3.199   6.882 -0.9275 -0.0676  0.6451
 6063TIP3    H239825   4.344   3.058   6.922 -0.3127 -1.5771 -3.5815
 6064TIP3   OH239826   3.479   4.645   0.181  0.4702 -1.1358  0.5722
 6064TIP3    H139827   3.483   4.738   0.203 -0.9131 -1.1220  0.8068
 6064TIP3    H239828   3.434   4.642   0.097 -1.2465 -1.7044  1.4795
 6065TIP3   OH239829   0.431   1.439   0.691  0.2428 -0.3246 -0.6598
 6065TIP3    H139830   0.447   1.388   0.612  3.8474  0.0851 -0.4005
 6065TIP3    H239831   0.457   1.381   0.763 -1.8012 -0.2744  0.1783
 6066TIP3   OH239832   2.631   3.281   0.501  0.3713 -0.2356 -0.4998
 6066TIP3    H139833   2.627   3.367   0.460 -1.6745 -0.4156 -0.7683
 6066TIP3    H239834   2.584   3.292   0.584 -0.1372 -1.1427 -0.6595
 6067TIP3   OH239835   3.209   1.708   0.545 -0.1440  0.5294 -0.1593
 6067TIP3    H139836   3.247   1.670   0.466 -0.6041 -0.6753  0.1836
 6067TIP3    H239837   3.166   1.788   0.514  1.6662  1.3410 -0.7262
 6068TIP3   OH239838   0.898   3.802   0.679  0.3345  0.7703 -0.3152
 6068TIP3    H139839   0.950   3.722   0.667  1.4326  1.3191  0.5241
 6068TIP3    H239840   0.820   3.789   0.625  0.3816 -0.9608 -0.0135
 6069TIP3   OH239841   6.613   0.779   7.457 -0.1230 -0.3533 -0.2648
 6069TIP3    H139842   6.530   0.806   7.496  1.0476 -0.2199  2.2835
 6069TIP3    H239843   6.654   0.861   7.431  0.2693 -0.2137  0.7655
 6070TIP3   OH239844   5.563   2.926   6.957  0.1050  0.1219 -0.0229
 6070TIP3    H139845   5.604   2.921   7.043 -0.9568 -1.4123  0.4520
 6070TIP3    H239846   5.633   2.902   6.896  0.7594  0.8179  0.4394
 6071TIP3   OH239847   4.808   0.571   8.169  0.4671  0.5013  0.0861
 6071TIP3    H139848   4.832   0.524   8.089 -0.0722  0.2171  0.0904
 6071TIP3    H239849   4.744   0.637   8.140  0.7525  0.8278  0.1829
 6072TIP3   OH239850   2.219   4.511   0.994 -0.1502  0.0321 -0.0034
 6072TIP3    H139851   2.273   4.473   1.063  0.1991  0.0101 -0.2843
 6072TIP3    H239852   2.247   4.602   0.990  0.4608 -0.1826 -0.7178
 6073TIP3   OH239853   1.212   4.500   0.947 -0.0421 -0.7304  0.0650
 6073TIP3    H139854   1.228   4.586   0.907  0.5229 -0.4016  0.9721
 6073TIP3    H239855   1.176   4.447   0.876  1.3156 -0.2855 -0.9984
 6074TIP3   OH239856   6.522   1.725   2.264  0.4090 -0.3793 -0.9244
 6074TIP3    H139857   6.498   1.724   2.357  0.9957 -1.5909 -0.7643
 6074TIP3    H239858   6.575   1.646   2.252 -0.4648 -0.7817 -2.4952
 6075TIP3   OH239859   6.170   1.554   8.176  0.1911  1.0150  0.8104
 6075TIP3    H139860   6.179   1.620   8.107 -1.0680 -0.2103 -0.6030
 6075TIP3    H239861   6.076   1.537   8.181  0.4302 -0.2100  1.5908
 6076TIP3   OH239862   6.787   1.319   1.445  0.1562  0.3215 -0.1206
 6076TIP3    H139863   6.848   1.391   1.459  0.8081 -0.2530  0.0606
 6076TIP3    H239864   6.790   1.302   1.351  2.0257 -1.1793  0.1524
 6077TIP3   OH239865   0.104   0.799   7.076 -0.1642 -0.3761  0.7874
 6077TIP3    H139866   0.104   0.894   7.091  0.5019 -0.4263  1.1996
 6077TIP3    H239867   0.018   0.770   7.105  0.4736 -0.2168  3.0569
 6078TIP3   OH239868   0.054   3.866   2.221 -0.4791 -0.5867  0.3648
 6078TIP3    H139869  -0.013   3.833   2.161 -0.8272 -0.3799  0.6325
 6078TIP3    H239870   0.008   3.932   2.273 -0.8642 -2.4616  2.5585
 6079TIP3   OH239871   4.445   4.569   0.900 -0.3195  0.1232  0.1735
 6079TIP3    H139872   4.372   4.539   0.955 -0.0143 -0.4090  0.2935
 6079TIP3    H239873   4.487   4.489   0.870 -0.6342  0.3936 -1.0498
 6080TIP3   OH239874   2.468   1.940   0.261  0.6516 -0.0931 -0.1458
 6080TIP3    H139875   2.406   1.949   0.189  3.1220 -0.4264 -2.4558
 6080TIP3    H239876   2.456   2.019   0.313 -1.5920 -0.1039 -0.5304
 6081TIP3   OH239877   3.672   0.403   1.950  0.1201 -0.3354  0.3649
 6081TIP3    H139878   3.655   0.482   1.898 -0.0551 -0.3657  0.3758
 6081TIP3    H239879   3.585   0.368   1.969  0.2178 -1.5270 -1.1577
 6082TIP3   OH239880   1.653   3.299   8.468  0.1612  0.0210  0.1346
 6082TIP3    H139881   1.709   3.245   8.413  1.3918  0.9424  0.4237
 6082TIP3    H239882   1.709   3.323   8.542 -1.3825 -1.0369  1.7204
 6083TIP3   OH239883   0.092   6.166   7.709  0.3777  0.7276 -0.0369
 6083TIP3    H139884   0.036   6.243   7.714 -0.8913 -0.0724 -1.4052
 6083TIP3    H239885   0.032   6.091   7.717  1.7459 -0.2242  3.3887
 6084TIP3   OH239886   0.267   6.388   1.631 -0.0927 -0.4256  0.0342
 6084TIP3    H139887   0.343   6.403   1.574 -0.6383  1.2255 -0.3141
 6084TIP3    H239888   0.211   6.464   1.616 -0.6126 -0.3200  2.2139
 6085TIP3   OH239889   6.517   2.379   8.210 -0.1917 -0.4823  0.3930
 6085TIP3    H139890   6.425   2.386   8.186 -0.1388 -1.2458 -0.0642
 6085TIP3    H239891   6.535   2.458   8.262 -1.2670 -0.6627  1.0530
 6086TIP3   OH239892   0.739   4.681   1.296  0.4531 -0.1144  0.7180
 6086TIP3    H139893   0.740   4.776   1.291  0.2812 -0.1804 -0.7859
 6086TIP3    H239894   0.683   4.653   1.224  0.0595 -1.3450  1.4668
 6087TIP3   OH239895   2.164   5.136   6.867  0.4307 -0.4048 -0.1595
 6087TIP3    H139896   2.176   5.060   6.810  0.0176 -0.0020 -0.8013
 6087TIP3    H239897   2.138   5.206   6.808  3.0766  0.8923  0.0905
 6088TIP3   OH239898   6.084   0.918   8.270 -0.1018 -0.1437 -0.3876
 6088TIP3    H139899   6.011   0.859   8.250 -1.0443  0.8264  0.1082
 6088TIP3    H239900   6.051   0.974   8.340  1.3778 -0.1489  0.3583
 6089TIP3   OH239901   2.318   0.159   7.147 -0.3626  0.1633  0.1573
 6089TIP3    H139902   2.245   0.219   7.160 -1.2913 -0.5422 -1.6429
 6089TIP3    H239903   2.389   0.214   7.114 -0.3339  0.6996  1.0853
 6090TIP3   OH239904   5.731   1.335   6.568 -0.2994 -0.1196  0.9261
 6090TIP3    H139905   5.814   1.327   6.615  1.3424  0.5933 -1.6479
 6090TIP3    H239906   5.718   1.430   6.559 -0.7990 -0.2418  0.3069
 6091TIP3   OH239907   6.723   1.638   1.270  0.0956 -0.3104  0.2797
 6091TIP3    H139908   6.792   1.658   1.208 -1.4990 -1.4647 -1.9869
 6091TIP3    H239909   6.643   1.639   1.219 -1.4807 -0.0483  2.5958
 6092TIP3   OH239910   6.775   1.183   0.681  0.1002  0.0894  0.2123
 6092TIP3    H139911   6.860   1.224   0.698  0.6196 -0.1905 -1.4794
 6092TIP3    H239912   6.733   1.242   0.618 -0.6140 -0.2116  0.3977
 6093TIP3   OH239913   1.604   0.900   0.787  0.0635 -0.4715 -0.1558
 6093TIP3    H139914   1.565   0.816   0.811  0.7225 -0.6137  0.4214
 6093TIP3    H239915   1.598   0.954   0.866  0.6861 -0.3682 -0.1714
 6094TIP3   OH239916   1.861   4.314   1.366 -0.2720  0.4924 -0.4753
 6094TIP3    H139917   1.861   4.408   1.383  0.0465  0.3783  0.2052
 6094TIP3    H239918   1.822   4.304   1.279  1.2710  1.3850 -1.3094
 6095TIP3   OH239919   4.259   5.022   1.273 -0.7132  0.0409 -0.5740
 6095TIP3    H139920   4.299   4.967   1.205  0.6544  0.0272  0.2126
 6095TIP3    H239921   4.292   4.987   1.355 -2.3039  0.1020  0.1131
 6096TIP3   OH239922   4.226   0.051   1.581  0.3406  0.2507 -0.0387
 6096TIP3    H139923   4.150   0.044   1.639 -0.5690  1.8116 -0.9497
 6096TIP3    H239924   4.289  -0.011   1.616 -0.8787 -0.1866  1.5048
 6097TIP3   OH239925   2.566   1.152   8.123 -0.4210  0.3591 -0.0323
 6097TIP3    H139926   2.579   1.060   8.101  2.6836  0.6838  0.0854
 6097TIP3    H239927   2.555   1.195   8.038  4.4179  0.6094 -0.8046
 6098TIP3   OH239928   0.732   5.025   7.879  0.2502  0.1244 -0.5594
 6098TIP3    H139929   0.808   4.969   7.894 -1.4993 -1.7920  2.2994
 6098TIP3    H239930   0.684   4.981   7.808 -0.6472 -1.6939  1.0573
 6099TIP3   OH239931   2.261   0.258   1.528  0.3856  0.0808  0.2942
 6099TIP3    H139932   2.297   0.270   1.616 -2.5978  2.1217  1.3621
 6099TIP3    H239933   2.197   0.188   1.538  0.7452 -0.3846 -0.5385
 6100TIP3   OH239934   5.596   6.339   6.958  0.2007 -0.0550 -0.7707
 6100TIP3    H139935   5.651   6.345   7.036 -0.8299 -1.5748  0.1088
 6100TIP3    H239936   5.615   6.420   6.910  2.0712  0.1614  0.2280
 6101TIP3   OH239937   5.270   5.063   8.127  0.3250 -0.0318  0.1041
 6101TIP3    H139938   5.309   4.982   8.095 -0.7774 -0.8848  0.8793
 6101TIP3    H239939   5.223   5.098   8.052 -0.5226 -0.9466  0.1978
 6102TIP3   OH239940   1.992   0.222   0.233 -0.0209  0.6236 -0.2172
 6102TIP3    H139941   2.071   0.178   0.202 -0.5397 -1.0873  0.7920
 6102TIP3    H239942   1.991   0.208   0.327 -1.2189  1.1587 -0.1295
 6103TIP3   OH239943   6.208   4.677   0.709 -0.7952  0.0300 -0.5374
 6103TIP3    H139944   6.183   4.761   0.748 -1.2612  0.2478 -1.2756
 6103TIP3    H239945   6.213   4.695   0.615 -1.5648 -0.9363 -0.7741
 6104TIP3   OH239946   5.634   2.996   0.591 -0.0081  0.0734  0.4087
 6104TIP3    H139947   5.626   2.954   0.506  1.9865 -1.4964  0.9242
 6104TIP3    H239948   5.631   2.924   0.654  1.3007  0.8861  1.4577
 6105TIP3   OH239949   2.321   1.683   1.356 -0.4295 -0.1819 -0.0797
 6105TIP3    H139950   2.357   1.595   1.365 -0.2501 -0.1217 -0.2174
 6105TIP3    H239951   2.232   1.676   1.391  0.3846  0.1249  2.2158
 6106TIP3   OH239952   1.039   5.186   1.219 -0.0678 -0.2677 -0.1076
 6106TIP3    H139953   1.095   5.263   1.231 -1.5341  0.7574  0.4630
 6106TIP3    H239954   1.082   5.135   1.150  0.9836  1.0058 -0.4281
 6107TIP3   OH239955   3.057   6.010   1.395  0.1794  0.0978 -0.2146
 6107TIP3    H139956   3.060   6.038   1.487  0.8492 -0.1178 -0.1650
 6107TIP3    H239957   3.148   6.015   1.366  0.0470 -0.3718 -0.7084
 6108TIP3   OH239958   1.607   5.660   7.291  0.1120  0.3347  0.5845
 6108TIP3    H139959   1.672   5.718   7.331  1.9956 -0.4808 -1.1173
 6108TIP3    H239960   1.546   5.720   7.247  0.1886  1.0998  1.4802
 6109TIP3   OH239961   0.513   3.910   2.201  0.2063  0.1337  0.0653
 6109TIP3    H139962   0.543   4.000   2.183 -0.0503  0.1742 -0.1662
 6109TIP3    H239963   0.590   3.867   2.237  0.2591  0.5194  0.4247
 6110TIP3   OH239964   2.168   6.791   2.316 -0.2352 -0.8946 -0.1256
 6110TIP3    H139965   2.260   6.770   2.300 -0.4000 -1.2759 -0.5916
 6110TIP3    H239966   2.133   6.713   2.360  0.0218 -0.1621  1.4499
 6111TIP3   OH239967   2.861   2.301   0.659  0.0471 -0.1444  0.0480
 6111TIP3    H139968   2.824   2.314   0.572 -0.4294  1.7875  0.5048
 6111TIP3    H239969   2.929   2.235   0.647 -1.3599 -1.4283 -1.4010
 6112TIP3   OH239970   1.688   4.227   7.736  0.1522 -0.0202 -0.5696
 6112TIP3    H139971   1.602   4.253   7.703 -0.3045 -0.4591  0.2618
 6112TIP3    H239972   1.707   4.144   7.692 -1.6372 -1.9970  2.1310
 6113TIP3   OH239973   0.971   6.918   7.661 -0.1523 -0.1576  0.0889
 6113TIP3    H139974   1.034   6.858   7.620  1.2229  1.7723 -0.7511
 6113TIP3    H239975   1.014   6.946   7.742 -0.3509  0.4305 -0.0032
 6114TIP3   OH239976   3.708   0.426   7.840  0.4589  0.1031  0.3800
 6114TIP3    H139977   3.791   0.427   7.791  0.2710  0.6033  0.0606
 6114TIP3    H239978   3.679   0.335   7.836 -0.6838  0.4643 -2.4219
 6115TIP3   OH239979   0.349   5.531   7.416 -0.3915  0.1985  0.1410
 6115TIP3    H139980   0.410   5.499   7.350  2.2653  0.0694  2.4762
 6115TIP3    H239981   0.355   5.626   7.412 -1.9557  0.2903 -1.2053
 6116TIP3   OH239982   5.214   1.880   7.798  0.9667 -0.0859  0.2772
 6116TIP3    H139983   5.308   1.874   7.779  1.0093 -1.8796  0.9316
 6116TIP3    H239984   5.196   1.806   7.856 -0.8348  0.3060  0.2690
 6117TIP3   OH239985   0.603   1.043   2.159 -0.4939  0.3021 -0.0029
 6117TIP3    H139986   0.673   1.107   2.145 -0.0249 -0.2641 -0.2652
 6117TIP3    H239987   0.551   1.081   2.231  0.6473  0.2578  0.8775
 6118TIP3   OH239988   0.475   3.606   0.660 -0.0091  0.1684 -0.2218
 6118TIP3    H139989   0.547   3.547   0.637 -1.4722 -1.9258  0.3539
 6118TIP3    H239990   0.509   3.693   0.639  3.3183 -0.5334  1.5658
 6119TIP3   OH239991   0.899   5.020   0.477 -0.6941 -0.2931  0.2353
 6119TIP3    H139992   0.894   5.114   0.462 -1.2875 -0.4721 -0.7020
 6119TIP3    H239993   0.897   5.011   0.573  0.2935  0.6883  0.3651
 6120TIP3   OH239994   0.067   5.498   8.252  0.5772 -0.1154 -0.1863
 6120TIP3    H139995   0.133   5.528   8.315 -1.8744 -0.3938  2.7155
 6120TIP3    H239996   0.084   5.404   8.242  0.7229 -0.1626  0.4537
 6121TIP3   OH239997   6.384   2.828   0.489  0.0217  0.6633 -0.1191
 6121TIP3    H139998   6.414   2.797   0.575 -1.1053  1.5354  0.6216
 6121TIP3    H239999   6.315   2.891   0.509 -0.9216  0.1960 -1.6978
 6122TIP3   OH240000   0.684   4.688   1.574 -0.1068  0.0810 -0.7426
 6122TIP3    H140001   0.737   4.677   1.495 -0.4677 -0.0796 -0.9629
 6122TIP3    H240002   0.598   4.715   1.542 -0.8855 -1.9928 -0.5627
 6123TIP3   OH240003   0.566   1.561   0.974 -0.2127  0.3911 -0.3507
 6123TIP3    H140004   0.554   1.476   0.932  0.0453  0.5343 -0.7252
 6123TIP3    H240005   0.650   1.554   1.019 -1.0207 -0.1505  1.1226
 6124TIP3   OH240006   2.727   3.045   0.092 -0.2906  0.0912 -0.4642
 6124TIP3    H140007   2.718   2.968   0.035 -1.4309  1.7321 -2.6932
 6124TIP3    H240008   2.683   3.115   0.043  3.0803  2.8705  0.1044
 6125TIP3   OH240009   3.438   5.893   7.035 -0.1958  0.5687 -0.1737
 6125TIP3    H140010   3.347   5.867   7.049  0.3246 -0.7947  0.9565
 6125TIP3    H240011   3.488   5.812   7.045  1.2834  1.5396  0.7597
 6126TIP3   OH240012   6.219   0.859   1.661  0.4773 -0.0880  0.1355
 6126TIP3    H140013   6.235   0.765   1.649 -0.8246 -0.4311  0.9005
 6126TIP3    H240014   6.147   0.878   1.601  1.5618  0.7290 -0.9561
 6127TIP3   OH240015   1.539   2.889   2.638  0.0550  0.2948  0.3566
 6127TIP3    H140016   1.623   2.858   2.605 -0.4801  0.0509 -0.8272
 6127TIP3    H240017   1.561   2.948   2.710  1.2179 -0.0142  0.2637
 6128TIP3   OH240018   1.839   6.172   1.298  0.2553  0.7222 -0.1329
 6128TIP3    H140019   1.909   6.234   1.320  0.7262  0.4823 -0.8895
 6128TIP3    H240020   1.794   6.156   1.380  0.0459  2.1634  0.0656
 6129TIP3   OH240021   1.406   0.486   8.160 -0.1854  0.5999  0.5499
 6129TIP3    H140022   1.379   0.420   8.224  0.0559  0.3411  0.3865
 6129TIP3    H240023   1.445   0.556   8.213 -1.9226  1.3859  0.8800
 6130TIP3   OH240024   3.254   4.957   1.394 -1.0525  0.4701  0.3760
 6130TIP3    H140025   3.274   4.940   1.486 -0.5814  0.1301  0.2203
 6130TIP3    H240026   3.162   4.932   1.384 -0.4955 -1.7853  0.2490
 6131TIP3   OH240027   6.352   3.422   6.852 -0.4763 -0.4723  0.5566
 6131TIP3    H140028   6.324   3.331   6.838 -1.4591  0.0320 -0.9402
 6131TIP3    H240029   6.436   3.429   6.808 -0.7504 -0.4667  0.0300
 6132TIP3   OH240030   6.782   2.509   1.938 -0.5395  0.0410 -0.0917
 6132TIP3    H140031   6.778   2.417   1.913 -1.5554 -0.0612  0.4098
 6132TIP3    H240032   6.696   2.545   1.915  0.5254  1.4246 -2.2937
 6133TIP3   OH240033   6.209   5.518   1.052 -0.1982 -0.0882  0.5195
 6133TIP3    H140034   6.194   5.425   1.072  0.9798 -0.1367  1.2863
 6133TIP3    H240035   6.137   5.542   0.994 -0.0841 -1.7011 -0.3546
 6134TIP3   OH240036   0.139   6.220   7.054  0.0972 -0.1070 -0.6653
 6134TIP3    H140037   0.070   6.284   7.042  0.8892  0.5219 -2.1558
 6134TIP3    H240038   0.155   6.185   6.966 -1.0277 -3.1649  0.2131
 6135TIP3   OH240039   5.014   5.847   6.889  0.8158  0.2727 -0.2304
 6135TIP3    H140040   4.946   5.872   6.825  1.2299 -1.3942 -1.4014
 6135TIP3    H240041   5.082   5.913   6.878  0.1338  0.9816 -0.2887
 6136TIP3   OH240042   1.978   0.722   8.196  0.2145 -0.1885 -0.2990
 6136TIP3    H140043   2.007   0.699   8.284 -1.1605  0.9527  0.5148
 6136TIP3    H240044   2.018   0.657   8.139  0.7773 -1.2350  1.2230
 6137TIP3   OH240045   2.476   0.908   8.300  0.0937 -0.7459  0.7662
 6137TIP3    H140046   2.438   0.872   8.220 -1.8957 -1.4803  1.9522
 6137TIP3    H240047   2.570   0.890   8.293  0.0189 -0.5027 -1.5033
 6138TIP3   OH240048   5.352   1.604   7.748 -0.6566  0.0049 -0.2379
 6138TIP3    H140049   5.405   1.533   7.712  0.2339 -0.0724  1.1497
 6138TIP3    H240050   5.299   1.634   7.674  2.6884  1.4143 -2.3262
 6139TIP3   OH240051   1.917   3.249   1.764  0.0271 -0.3369  0.2373
 6139TIP3    H140052   1.892   3.335   1.732 -1.9407 -0.5977  0.9738
 6139TIP3    H240053   2.010   3.257   1.784  0.5903  0.7635 -2.3685
 6140TIP3   OH240054   1.116   3.604   1.498  0.3381  0.1298 -0.0762
 6140TIP3    H140055   1.175   3.628   1.570 -0.8505 -1.4592  1.4946
 6140TIP3    H240056   1.100   3.686   1.451  1.3600  1.1472  1.3005
 6141TIP3   OH240057   4.567   3.981   1.089  0.6194  0.0777  0.5206
 6141TIP3    H140058   4.538   3.947   1.173  0.3817 -0.4358  0.2355
 6141TIP3    H240059   4.662   3.976   1.092  0.8586  3.3224  2.1167
 6142TIP3   OH240060   3.831   2.902   3.120 -0.3483  0.0968  0.0178
 6142TIP3    H140061   3.766   2.859   3.064  1.1497 -2.1935 -0.0786
 6142TIP3    H240062   3.870   2.831   3.170 -0.1014  1.8165  2.4379
 6143TIP3   OH240063   1.692   3.099   7.588  0.3919  0.5009 -0.3795
 6143TIP3    H140064   1.732   3.048   7.659  1.9576  1.8902 -0.2104
 6143TIP3    H240065   1.603   3.115   7.617  0.6493  0.0330  0.7248
 6144TIP3   OH240066   5.739   5.929   7.245  0.3319 -0.1592 -0.3400
 6144TIP3    H140067   5.806   5.959   7.307  3.4213 -2.1455 -2.4285
 6144TIP3    H240068   5.749   5.834   7.243 -0.7903 -0.3037 -2.6216
 6145TIP3   OH240069   1.889   2.470   6.726 -0.1504 -0.2947  0.0865
 6145TIP3    H140070   1.865   2.559   6.751  2.6102  0.5309  0.1500
 6145TIP3    H240071   1.842   2.414   6.788 -2.2035  1.0683 -0.1811
 6146TIP3   OH240072   4.158   6.871   0.293  0.3036 -0.0042  0.2757
 6146TIP3    H140073   4.133   6.943   0.235 -0.2666  0.2800  0.8651
 6146TIP3    H240074   4.160   6.794   0.235  0.1407  0.3436 -0.2040
 6147TIP3   OH240075   6.363   5.593   6.818  0.2392 -0.2804  0.4089
 6147TIP3    H140076   6.294   5.613   6.880  1.1679 -1.3975  1.8802
 6147TIP3    H240077   6.375   5.674   6.768 -1.7328  0.0948  0.4528
 6148TIP3   OH240078   3.022   4.619   1.607  0.0871 -0.4945  0.4880
 6148TIP3    H140079   3.101   4.648   1.561 -0.7592 -0.2025 -0.8281
 6148TIP3    H240080   3.055   4.562   1.676  1.7255  2.1695  2.1216
 6149TIP3   OH240081   6.352   1.828   7.738 -0.2289 -0.0532  0.4069
 6149TIP3    H140082   6.423   1.764   7.733 -0.2835 -0.0510 -0.8320
 6149TIP3    H240083   6.397   1.913   7.745 -0.0288  0.0561 -1.5833
 6150TIP3   OH240084   6.243   3.999   0.230  0.5947 -0.2310 -0.3990
 6150TIP3    H140085   6.226   3.972   0.321 -1.1729 -0.6671 -0.8214
 6150TIP3    H240086   6.214   3.924   0.178  2.5452 -0.3941 -1.3055
 6151TIP3   OH240087   0.827   5.612   0.292 -0.2840  0.4146  0.2375
 6151TIP3    H140088   0.804   5.704   0.283  0.8405  0.7897  0.8784
 6151TIP3    H240089   0.824   5.596   0.387  0.0218 -0.0587  0.1727
 6152TIP3   OH240090   2.579   6.206   1.339 -0.4268  0.1039 -0.3371
 6152TIP3    H140091   2.649   6.146   1.364 -0.9504 -1.2825 -1.9607
 6152TIP3    H240092   2.504   6.149   1.321 -1.7187  1.4682  0.4814
 6153TIP3   OH240093   4.611   2.269   6.987 -0.1811  0.4011  0.0141
 6153TIP3    H140094   4.588   2.314   7.069 -1.1980 -0.2304  0.0972
 6153TIP3    H240095   4.588   2.178   7.003  1.2017 -0.0385 -0.3990
 6154TIP3   OH240096   4.797   0.272   1.084 -0.2777  0.1897  0.3027
 6154TIP3    H140097   4.837   0.235   1.006 -0.2978  1.9517 -0.5865
 6154TIP3    H240098   4.820   0.210   1.154  0.6487 -0.8644 -0.8848
 6155TIP3   OH240099   2.818   6.196   8.133  0.5129 -0.1296  0.4543
 6155TIP3    H140100   2.758   6.125   8.113  1.1149 -0.4962 -0.0805
 6155TIP3    H240101   2.768   6.276   8.114 -0.1259 -0.4017  0.9565
 6156TIP3   OH240102   1.122   3.026   0.967  0.5706 -0.4715 -0.3743
 6156TIP3    H140103   1.032   3.033   0.934  0.3973  0.1484  0.1941
 6156TIP3    H240104   1.124   2.944   1.016 -0.5256  0.7794  1.9820
 6157TIP3   OH240105   0.742   1.114   0.779  0.1754 -0.0834 -0.4621
 6157TIP3    H140106   0.793   1.053   0.725 -0.5336  0.4895 -1.8221
 6157TIP3    H240107   0.651   1.100   0.752 -0.3682 -0.6708  1.5028
 6158TIP3   OH240108   6.293   2.609   8.040  0.4995  0.3254  0.0191
 6158TIP3    H140109   6.350   2.658   8.099 -0.9474  0.1494  1.6686
 6158TIP3    H240110   6.280   2.525   8.085 -0.6175  0.1749 -0.5451
 6159TIP3   OH240111   5.567   3.440   8.513  0.0510  0.0532 -0.1163
 6159TIP3    H140112   5.494   3.402   8.465 -1.7927  1.8070  1.1244
 6159TIP3    H240113   5.593   3.517   8.461 -0.3789  0.6034  0.4691
 6160TIP3   OH240114   0.548   5.995   8.086  0.4161  0.3967 -0.4780
 6160TIP3    H140115   0.456   5.988   8.058 -0.3144 -1.1428  2.0431
 6160TIP3    H240116   0.580   6.074   8.041 -2.1984  1.1593 -1.2047
 6161TIP3   OH240117   6.783   4.596   0.538 -0.2314  0.3468  0.0357
 6161TIP3    H140118   6.829   4.524   0.582 -0.7949  0.1003  0.2337
 6161TIP3    H240119   6.741   4.554   0.463 -0.4847  0.4899  0.0989
 6162TIP3   OH240120   6.131   5.429   2.160 -0.0538  0.4597  0.6334
 6162TIP3    H140121   6.209   5.447   2.107 -2.1381 -0.8078 -3.3355
 6162TIP3    H240122   6.129   5.334   2.168 -2.5608  0.1256 -2.1038
 6163TIP3   OH240123   1.546   6.400   0.733  0.1867  0.7019  0.2331
 6163TIP3    H140124   1.532   6.467   0.800  3.2326 -0.2926  2.0262
 6163TIP3    H240125   1.619   6.432   0.681 -0.2734  0.1267 -0.7951
 6164TIP3   OH240126   6.132   4.637   0.367  0.0094  0.5867  0.3982
 6164TIP3    H140127   6.061   4.587   0.407 -0.1728  0.3725 -0.1759
 6164TIP3    H240128   6.091   4.679   0.291  0.4950  0.4557  0.0601
 6165TIP3   OH240129   4.132   2.416   2.954 -0.4373 -0.3770  0.2169
 6165TIP3    H140130   4.203   2.414   2.890 -0.7462 -2.3615 -0.1021
 6165TIP3    H240131   4.170   2.376   3.033 -0.3116  1.3108  1.0616
 6166TIP3   OH240132   0.899   6.558   8.284  0.5776  0.1625 -0.8519
 6166TIP3    H140133   0.993   6.570   8.294  0.7787 -1.5135 -0.4259
 6166TIP3    H240134   0.880   6.477   8.332 -1.1185  0.6043 -0.7294
 6167TIP3   OH240135   3.165   4.003   6.510 -0.0304  0.2366 -0.0544
 6167TIP3    H140136   3.113   3.973   6.584  2.0042 -1.7220  0.7087
 6167TIP3    H240137   3.212   3.925   6.481  1.8705  1.7024 -1.1339
 6168TIP3   OH240138   1.467   4.667   0.894  0.1206 -0.1273  0.0428
 6168TIP3    H140139   1.491   4.636   0.807  1.4146 -0.1471  0.3795
 6168TIP3    H240140   1.442   4.758   0.881  2.5292  0.5787 -0.0643
 6169TIP3   OH240141   6.023   0.414   1.899 -0.1294 -0.1354 -0.2432
 6169TIP3    H140142   6.052   0.340   1.952  1.9293 -0.6707 -1.9825
 6169TIP3    H240143   6.055   0.491   1.945 -3.4075 -0.0639  2.2890
 6170TIP3   OH240144   2.693   6.722   8.121  0.1723 -0.4675  0.4834
 6170TIP3    H140145   2.752   6.771   8.063  0.2976 -0.2043  0.8285
 6170TIP3    H240146   2.662   6.788   8.183 -1.4791 -0.3015 -0.4515
 6171TIP3   OH240147   0.693   1.144   2.859 -0.2767 -0.1312  0.2881
 6171TIP3    H140148   0.731   1.083   2.921  1.9529 -0.8947 -1.6765
 6171TIP3    H240149   0.601   1.150   2.884  0.4801 -0.4821  3.4999
 6172TIP3   OH240150   5.281   5.412   6.865  0.5439 -0.2437 -0.3856
 6172TIP3    H140151   5.354   5.433   6.807  1.5110 -0.8686  0.5606
 6172TIP3    H240152   5.214   5.477   6.845  2.2204  1.7778  0.2793
 6173TIP3   OH240153   4.020   2.688   7.138 -0.9100  0.1092 -0.4277
 6173TIP3    H140154   4.115   2.691   7.141 -0.9235  0.6707  2.7480
 6173TIP3    H240155   3.999   2.605   7.095  1.0177 -0.4863 -0.2758
 6174TIP3   OH240156   3.060   5.437   0.008 -0.5431  0.1674  0.2482
 6174TIP3    H140157   3.027   5.516  -0.035  1.6021  1.0953  0.1892
 6174TIP3    H240158   3.110   5.470   0.083 -0.4589 -1.1961  0.8121
 6175TIP3   OH240159   6.793   3.940   0.268 -0.1807  0.0298  0.0675
 6175TIP3    H140160   6.704   3.915   0.241  0.7140 -2.1218 -1.1980
 6175TIP3    H240161   6.811   3.885   0.345  0.8760 -1.4547 -1.1667
 6176TIP3   OH240162   6.936   1.859   1.152 -0.0785 -0.1690  0.2061
 6176TIP3    H140163   6.948   1.954   1.142 -1.2916  0.1577  1.4930
 6176TIP3    H240164   6.881   1.834   1.078  1.8301 -0.2577 -1.2462
 6177TIP3   OH240165   0.487   1.289   0.915  0.0136 -0.1854  0.3052
 6177TIP3    H140166   0.507   1.274   1.008  0.1768  1.1214  0.4965
 6177TIP3    H240167   0.494   1.202   0.875  1.1267 -0.5840  1.2941
 6178TIP3   OH240168   3.781   0.033   0.987  0.3070 -0.1928 -0.7896
 6178TIP3    H140169   3.764   0.010   0.896 -2.1815  2.9246 -1.2877
 6178TIP3    H240170   3.816   0.122   0.983  1.7736 -0.5954  1.2772
 6179TIP3   OH240171   1.959   3.455   2.558 -0.0622 -0.0562 -0.1145
 6179TIP3    H140172   2.052   3.433   2.553 -0.2785 -1.1039  0.2326
 6179TIP3    H240173   1.921   3.387   2.613 -0.5428  1.9588  2.2367
 6180TIP3   OH240174   4.928   2.134   0.361 -0.2646 -0.1518  0.0653
 6180TIP3    H140175   4.833   2.131   0.375  0.1158  0.2169  3.8019
 6180TIP3    H240176   4.954   2.042   0.362 -0.4635 -0.2114 -0.0311
 6181TIP3   OH240177   2.482   4.437   8.333  0.1929  0.4974  0.3396
 6181TIP3    H140178   2.498   4.385   8.255  1.0935  0.5171  0.5054
 6181TIP3    H240179   2.452   4.521   8.300  0.8649  0.6076  0.0012
 6182TIP3   OH240180   2.262   4.624   1.478  0.1745  0.3546 -0.2449
 6182TIP3    H140181   2.205   4.686   1.523 -0.1317  0.2239 -0.4485
 6182TIP3    H240182   2.347   4.634   1.520  0.2872  1.3601 -0.6783
 6183TIP3   OH240183   4.291   0.829   8.543 -0.3370 -0.3098 -0.3265
 6183TIP3    H140184   4.221   0.891   8.562 -0.5396 -0.9816  1.2129
 6183TIP3    H240185   4.245   0.746   8.525  0.0138 -0.5016 -0.3456
 6184TIP3   OH240186   6.745   0.494   1.042  0.5572 -0.1178  0.0410
 6184TIP3    H140187   6.763   0.415   0.991 -0.0815  0.4013 -1.0286
 6184TIP3    H240188   6.814   0.556   1.016  0.3972  0.0579  0.0358
 6185TIP3   OH240189   2.149   1.393   7.793  0.0478  0.0122 -0.2035
 6185TIP3    H140190   2.166   1.412   7.701  0.5104 -0.3680 -0.1970
 6185TIP3    H240191   2.235   1.395   7.835 -0.1624  0.2184  0.2322
 6186TIP3   OH240192   3.173   0.033   0.867 -0.0613 -0.5923  0.0677
 6186TIP3    H140193   3.165  -0.060   0.848 -0.5584 -0.5035 -0.1830
 6186TIP3    H240194   3.169   0.075   0.781 -1.0621 -0.2681  0.2519
 6187TIP3   OH240195   1.504   5.629   2.173  0.3528 -0.6205  0.2028
 6187TIP3    H140196   1.479   5.605   2.084  0.5836  0.6133 -0.2294
 6187TIP3    H240197   1.443   5.582   2.230  0.6720 -1.9937 -0.5674
 6188TIP3   OH240198   3.928   2.016   1.788 -0.0122  0.0643  0.3520
 6188TIP3    H140199   3.943   1.957   1.714 -1.4381 -1.2528  1.0391
 6188TIP3    H240200   3.860   2.076   1.757  0.4144  0.4312  0.1245
 6189TIP3   OH240201   6.017   4.549   5.902 -0.7700 -0.3860  0.9801
 6189TIP3    H140202   6.104   4.582   5.883 -1.5236  1.1780  0.0506
 6189TIP3    H240203   6.031   4.459   5.933  1.0840 -0.5193 -0.1187
 6190TIP3   OH240204   5.027   2.569   7.682 -0.2021  0.5788 -0.5048
 6190TIP3    H140205   4.962   2.550   7.614 -0.6259 -0.3371  0.1467
 6190TIP3    H240206   5.111   2.569   7.635 -0.5644  0.6855 -1.1583
 6191TIP3   OH240207   6.101   6.771   0.872  0.0183  0.5586 -0.8442
 6191TIP3    H140208   6.138   6.683   0.878 -0.7164  0.2667 -0.5316
 6191TIP3    H240209   6.071   6.779   0.781 -0.4343  0.2736 -0.7205
 6192TIP3   OH240210   5.952   6.148   1.961  0.6130 -0.3574  0.0018
 6192TIP3    H140211   5.951   6.155   2.057  0.0535  0.0967 -0.0261
 6192TIP3    H240212   5.927   6.058   1.943 -0.4742 -0.1295  0.2790
 6193TIP3   OH240213   4.790   0.170   1.932  0.0387  0.1917 -0.4811
 6193TIP3    H140214   4.856   0.232   1.901  0.8627 -0.7649 -0.6899
 6193TIP3    H240215   4.737   0.150   1.854 -1.4757  2.0617 -0.0195
 6194TIP3   OH240216   2.628   2.405   0.788 -0.0733 -0.3175 -0.3946
 6194TIP3    H140217   2.582   2.335   0.833 -0.1836 -0.5961 -0.9265
 6194TIP3    H240218   2.703   2.361   0.746  0.9384  0.1951  0.8137
 6195TIP3   OH240219   0.416   4.159   8.232  0.1687 -0.3058 -0.3290
 6195TIP3    H140220   0.395   4.113   8.312  0.7108  0.1832  0.1066
 6195TIP3    H240221   0.444   4.246   8.261  1.1027 -0.3706 -0.9792
 6196TIP3   OH240222   3.733   6.048   0.066  0.9487  0.3175  0.0442
 6196TIP3    H140223   3.676   5.997   0.123  0.4308  0.0945 -0.6530
 6196TIP3    H240224   3.712   6.018  -0.022  1.4929  0.8916 -0.2934
 6197TIP3   OH240225   2.596   3.114   1.472  0.1853  0.4116  0.0358
 6197TIP3    H140226   2.521   3.142   1.525  0.4412  0.3844  0.4096
 6197TIP3    H240227   2.667   3.173   1.498  0.9706 -1.0785  1.4192
 6198TIP3   OH240228   5.558   4.368   0.076  0.2993  0.0404  0.1248
 6198TIP3    H140229   5.474   4.327   0.098  0.6895 -0.3178  1.0003
 6198TIP3    H240230   5.588   4.406   0.158  1.4963 -0.7715  0.0903
 6199TIP3   OH240231   5.998   6.482   1.360  0.4902  0.1794  0.3549
 6199TIP3    H140232   5.921   6.478   1.303  0.4603  1.5632  0.2724
 6199TIP3    H240233   6.062   6.533   1.311  2.6261 -3.3402 -0.8500
 6200TIP3   OH240234   2.657   4.112   7.448  0.0972 -0.2134 -0.3876
 6200TIP3    H140235   2.703   4.183   7.493  0.9438 -0.9267 -0.0703
 6200TIP3    H240236   2.578   4.097   7.500 -1.0317  1.6631 -1.4741
 6201TIP3   OH240237   5.880   3.907   8.115  0.1678  0.1433 -0.5963
 6201TIP3    H140238   5.794   3.945   8.130  0.1783 -0.0575 -0.0200
 6201TIP3    H240239   5.907   3.942   8.030  0.0035  1.1094 -0.2630
 6202TIP3   OH240240   4.674   4.719   0.705 -0.6926  0.3503 -0.1948
 6202TIP3    H140241   4.592   4.757   0.674 -0.7304  0.0159 -0.5080
 6202TIP3    H240242   4.652   4.679   0.789 -1.3386 -1.5114 -1.1957
 6203TIP3   OH240243   5.175   5.770   1.206  0.0354 -0.2726  0.4389
 6203TIP3    H140244   5.131   5.816   1.278 -2.1694  0.9017 -1.5495
 6203TIP3    H240245   5.252   5.823   1.188 -0.2469  0.3052  0.8892
 6204TIP3   OH240246   0.277   3.729   0.089 -0.0486 -0.6217  0.4490
 6204TIP3    H140247   0.252   3.703  -0.000  1.2993  1.3410 -0.5829
 6204TIP3    H240248   0.198   3.770   0.125  0.0958  0.9760 -0.8938
 6205TIP3   OH240249   4.928   3.456   1.414  0.1781  0.0858 -0.1583
 6205TIP3    H140250   4.941   3.401   1.492 -0.3381 -1.8209 -1.3574
 6205TIP3    H240251   4.989   3.529   1.425  0.1068 -0.1187  2.0236
 6206TIP3   OH240252   1.426   2.453   8.299  0.3525  0.0921  0.3341
 6206TIP3    H140253   1.485   2.457   8.223  1.0605 -0.6022  0.8254
 6206TIP3    H240254   1.476   2.495   8.369 -0.2056  0.5134  0.4794
 6207TIP3   OH240255   4.451   6.530   2.831  0.5793 -0.0716 -0.5630
 6207TIP3    H140256   4.534   6.541   2.878  1.2618 -2.0775 -1.2007
 6207TIP3    H240257   4.468   6.566   2.744  0.0684  1.4594 -0.0605
 6208TIP3   OH240258   6.683   6.572   1.491 -0.0142 -0.2120 -0.5236
 6208TIP3    H140259   6.774   6.601   1.494 -0.4513  1.1507  1.1983
 6208TIP3    H240260   6.664   6.561   1.398  1.8193 -0.2717 -0.9239
 6209TIP3   OH240261   0.779   2.086   8.484  0.0977 -0.1021  0.1023
 6209TIP3    H140262   0.856   2.032   8.469 -0.7333 -0.5737 -3.1931
 6209TIP3    H240263   0.705   2.031   8.458 -1.1720  1.1364  0.9334
 6210TIP3   OH240264   5.019   1.304   7.394 -0.2090  0.1965 -0.1760
 6210TIP3    H140265   5.093   1.334   7.447 -0.2344 -0.1578  0.0664
 6210TIP3    H240266   4.991   1.382   7.346  1.4995 -0.0451 -1.6944
 6211TIP3   OH240267   3.326   4.259   0.519  0.4040 -0.1926  0.3578
 6211TIP3    H140268   3.399   4.315   0.493  1.2267  0.2124  3.2193
 6211TIP3    H240269   3.324   4.190   0.453  2.2489  0.7521 -0.7644
 6212TIP3   OH240270   2.567   3.870   8.224 -0.1945  0.2496 -0.3149
 6212TIP3    H140271   2.562   3.842   8.132 -1.4997 -0.8738  0.0579
 6212TIP3    H240272   2.646   3.924   8.228  0.4939 -0.5585 -1.8673
 6213TIP3   OH240273   1.782   1.649   1.169 -0.1347  0.3447  0.2196
 6213TIP3    H140274   1.752   1.733   1.135  1.8494  0.8804 -0.4002
 6213TIP3    H240275   1.704   1.595   1.175 -1.0710  1.3549 -2.0140
 6214TIP3   OH240276   5.171   3.270   0.362  0.1359 -0.0553  0.1109
 6214TIP3    H140277   5.198   3.195   0.415 -0.5056 -1.0992 -0.9788
 6214TIP3    H240278   5.132   3.331   0.424  0.1474 -0.8840  0.9495
 6215TIP3   OH240279   3.231   5.714   1.580 -0.0029 -0.0720  0.5012
 6215TIP3    H140280   3.297   5.735   1.514 -0.8789  0.5062 -0.2356
 6215TIP3    H240281   3.181   5.642   1.542 -0.1252 -0.1489  0.8073
 6216TIP3   OH240282   6.412   6.304   1.466 -0.5581 -0.2767 -0.0444
 6216TIP3    H140283   6.459   6.230   1.427  1.4258  1.2482 -0.7324
 6216TIP3    H240284   6.334   6.314   1.412 -0.1280 -0.9979 -0.8306
 6217TIP3   OH240285   4.267   5.569   1.716  0.0720  0.4695 -0.5278
 6217TIP3    H140286   4.251   5.652   1.761  3.4084  2.2684 -2.3140
 6217TIP3    H240287   4.299   5.510   1.785 -3.2107  0.2027  0.9439
 6218TIP3   OH240288   4.628   0.528   0.392  0.1656  0.5572  0.8879
 6218TIP3    H140289   4.579   0.449   0.368  2.1819 -0.8068  0.9970
 6218TIP3    H240290   4.710   0.521   0.343  0.6045  2.3698  1.2766
 6219TIP3   OH240291   2.454   3.633   1.517 -0.3961 -0.2603 -0.2074
 6219TIP3    H140292   2.455   3.723   1.487 -0.8399 -0.5710 -1.2054
 6219TIP3    H240293   2.518   3.588   1.462 -1.8728 -1.0312 -1.3746
 6220TIP3   OH240294   1.145   4.275   7.703  0.1562  0.4447  0.2069
 6220TIP3    H140295   1.132   4.292   7.797  1.3110 -0.0523  0.4745
 6220TIP3    H240296   1.129   4.359   7.662  2.0172  1.2971  1.1184
 6221TIP3   OH240297   3.655   5.757   0.513 -0.3644 -0.0239 -0.3958
 6221TIP3    H140298   3.599   5.756   0.591 -1.6109 -1.0743 -1.2571
 6221TIP3    H240299   3.623   5.685   0.460  1.6813 -0.5031 -1.0700
 6222TIP3   OH240300   5.147   1.368   7.634 -0.4909 -0.1336 -0.1542
 6222TIP3    H140301   5.229   1.389   7.590 -0.2623  2.9026  1.5040
 6222TIP3    H240302   5.166   1.375   7.727 -2.4802  0.1074  0.2986
 6223TIP3   OH240303   3.642   1.583   8.003 -0.1898  0.0081 -0.4054
 6223TIP3    H140304   3.698   1.659   8.019  2.2024 -1.5521 -0.6778
 6223TIP3    H240305   3.605   1.599   7.916 -1.6905  1.9056  0.5154
 6224TIP3   OH240306   2.610   4.801   8.429 -0.5304 -0.1856  0.1929
 6224TIP3    H140307   2.628   4.716   8.470  1.3583  0.1024  0.0365
 6224TIP3    H240308   2.591   4.780   8.338 -0.1172 -0.4574  0.1642
 6225TIP3   OH240309   1.149   4.884   8.132  0.1679  0.4732  0.0242
 6225TIP3    H140310   1.138   4.791   8.155  0.7085  0.3395 -0.2427
 6225TIP3    H240311   1.206   4.919   8.201  2.4441 -0.1138 -1.4591
 6226TIP3   OH240312   3.240   2.425   7.046 -0.0405 -0.0547  0.4695
 6226TIP3    H140313   3.258   2.356   7.111 -0.1732 -1.0112 -0.4771
 6226TIP3    H240314   3.164   2.393   6.998  0.5565  0.2394 -0.7023
 6227TIP3   OH240315   4.837   5.968   8.390  0.2161 -1.1482 -0.5957
 6227TIP3    H140316   4.891   5.966   8.311 -1.3525 -0.5560 -1.7323
 6227TIP3    H240317   4.852   6.055   8.427 -2.2714  0.3123 -2.6857
 6228TIP3   OH240318   1.148   3.017   6.651 -0.0199  0.6800  0.0458
 6228TIP3    H140319   1.177   2.969   6.728 -0.9177  1.4815  0.9135
 6228TIP3    H240320   1.146   2.952   6.581  0.1394 -0.2154  0.8543
 6229TIP3   OH240321   2.152   5.890   6.628  0.1783 -0.4761  0.3737
 6229TIP3    H140322   2.210   5.940   6.571 -1.6748  1.2711 -0.0635
 6229TIP3    H240323   2.128   5.813   6.576  1.2720 -0.7009  0.1781
 6230TIP3   OH240324   0.658   1.845   8.010  0.1021  0.2887 -0.2462
 6230TIP3    H140325   0.719   1.805   8.073  0.7880  1.9757  0.2167
 6230TIP3    H240326   0.668   1.791   7.931  1.7304  0.1151  0.0281
 6231TIP3   OH240327   5.979   4.210   1.635  0.7498  0.0984  0.1567
 6231TIP3    H140328   5.941   4.222   1.548  1.9111 -0.1682 -0.4078
 6231TIP3    H240329   6.048   4.276   1.640  1.0703 -0.2677  0.6475
 6232TIP3   OH240330   2.355   1.743   7.914  0.3261 -0.3659 -0.6532
 6232TIP3    H140331   2.339   1.658   7.956  2.8236 -0.1703  0.8573
 6232TIP3    H240332   2.417   1.787   7.971 -0.0489  2.0610 -1.9998
 6233TIP3   OH240333   6.242   6.775   7.344  0.0057 -0.0401  0.1748
 6233TIP3    H140334   6.326   6.777   7.298  0.6510 -1.0072  1.2568
 6233TIP3    H240335   6.215   6.684   7.342 -1.4091  0.3688 -0.7909
 6234TIP3   OH240336   6.033   5.344   0.826  0.1254  0.2085 -0.1521
 6234TIP3    H140337   6.089   5.355   0.749  0.3885 -2.0875 -0.3410
 6234TIP3    H240338   5.948   5.319   0.790  0.5945 -2.1847  0.2891
 6235TIP3   OH240339   4.155   3.031   8.380  0.0255  0.5173  0.1321
 6235TIP3    H140340   4.225   2.996   8.434 -0.4217  2.3960  2.0622
 6235TIP3    H240341   4.194   3.106   8.335  0.0209 -0.2136 -1.1292
 6236TIP3   OH240342   3.491   6.030   2.332  0.1510 -0.2140  0.4846
 6236TIP3    H140343   3.579   6.000   2.309 -0.1360  1.1871 -3.1379
 6236TIP3    H240344   3.433   5.958   2.309  0.1326 -0.1462  0.3217
 6237TIP3   OH240345   2.336   0.236   7.719  0.5832 -0.0255  0.4808
 6237TIP3    H140346   2.403   0.168   7.711  0.2282 -0.5386  1.7023
 6237TIP3    H240347   2.261   0.192   7.758 -0.7655  0.3668 -1.5175
 6238TIP3   OH240348   3.749   1.893   2.219 -0.0893  0.1391 -0.8230
 6238TIP3    H140349   3.794   1.865   2.298  0.4526 -0.8409 -1.4611
 6238TIP3    H240350   3.818   1.932   2.164 -0.6305  1.7267 -0.4262
 6239TIP3   OH240351   6.429   1.164   1.712  0.2193  0.4666 -0.3278
 6239TIP3    H140352   6.524   1.175   1.716  0.4092 -0.7315 -0.9627
 6239TIP3    H240353   6.407   1.118   1.792  0.1683  0.7176 -0.1952
 6240TIP3   OH240354   6.631   6.837   8.541  0.0154 -0.2257 -0.2203
 6240TIP3    H140355   6.682   6.885   8.476  0.3396  0.4536  0.5191
 6240TIP3    H240356   6.610   6.902   8.608 -1.4131 -0.6066 -0.2694
 6241TIP3   OH240357   3.030   6.900   0.152  0.0277  0.2991 -0.0262
 6241TIP3    H140358   3.056   6.810   0.173  0.9451  0.3126 -1.0423
 6241TIP3    H240359   3.053   6.950   0.230  2.0132  0.1079 -0.4461
 6242TIP3   OH240360   2.160   4.529   8.471  0.4180  0.7290 -0.0432
 6242TIP3    H140361   2.210   4.590   8.417  0.3729  0.8242  0.0231
 6242TIP3    H240362   2.074   4.524   8.429  0.4723  0.5891 -0.1377
 6243TIP3   OH240363   4.609   4.829   7.846  0.1651 -0.0423 -0.1765
 6243TIP3    H140364   4.634   4.820   7.938 -3.0354 -1.4980  0.6921
 6243TIP3    H240365   4.521   4.866   7.849 -1.1510 -2.6313 -2.4571
 6244TIP3   OH240366   1.846   3.804   1.614 -0.0189  0.5142 -0.7146
 6244TIP3    H140367   1.901   3.844   1.546  0.8355  1.0951  0.2823
 6244TIP3    H240368   1.832   3.875   1.677 -2.7349  0.6742 -1.3854
 6245TIP3   OH240369   3.285   5.828   2.312 -0.0437 -0.5410 -0.8139
 6245TIP3    H140370   3.219   5.859   2.374 -0.2902  0.6429 -1.6343
 6245TIP3    H240371   3.277   5.732   2.316 -2.8539 -0.4610 -1.9030
 6246TIP3   OH240372   1.860   2.323   2.599 -0.7004  1.1754  0.3112
 6246TIP3    H140373   1.949   2.356   2.605 -0.3407  0.4166 -0.7580
 6246TIP3    H240374   1.820   2.347   2.683  0.7866  0.6903  1.1799
 6247TIP3   OH240375   1.569   0.245   0.257  0.1093 -0.0742  0.0610
 6247TIP3    H140376   1.663   0.241   0.274  0.0831  2.1214  1.1240
 6247TIP3    H240377   1.530   0.183   0.318  0.6639  1.6703  2.3089
 6248TIP3   OH240378   0.274   2.669   1.833 -1.0604  0.0677 -0.3440
 6248TIP3    H140379   0.258   2.594   1.776  0.4158 -2.4783  2.2954
 6248TIP3    H240380   0.277   2.632   1.921  2.3908  2.7535  0.9068
 6249TIP3   OH240381   4.149   2.376   8.279  0.4248  0.4634  0.1367
 6249TIP3    H140382   4.205   2.437   8.231  0.4784  0.4921  0.2360
 6249TIP3    H240383   4.060   2.410   8.266  0.5294  1.0342  0.8780
 6250TIP3   OH240384   6.861   4.446   6.470  0.3887 -0.2034  0.4805
 6250TIP3    H140385   6.903   4.526   6.437 -0.4888  0.5224  1.0862
 6250TIP3    H240386   6.767   4.464   6.463  0.0012 -2.5644 -2.7978
 6251TIP3   OH240387   4.978   4.619   7.561 -0.4436 -0.0672 -0.0135
 6251TIP3    H140388   4.993   4.605   7.654  0.4832 -2.0476 -0.4052
 6251TIP3    H240389   4.884   4.633   7.554 -0.6161 -0.5265  1.1573
 6252TIP3   OH240390   3.786   2.479   0.758  0.2245 -0.4103 -0.1994
 6252TIP3    H140391   3.812   2.561   0.716 -0.2767 -0.0222  0.2293
 6252TIP3    H240392   3.762   2.421   0.686 -0.6940  0.2752 -0.4698
 6253TIP3   OH240393   3.582   5.408   8.233  0.3824 -0.1505  0.0566
 6253TIP3    H140394   3.608   5.500   8.230  0.0049 -0.0192  0.7231
 6253TIP3    H240395   3.486   5.411   8.240  0.4005 -0.5828  0.5312
 6254TIP3   OH240396   5.640   3.117   8.502  0.2124 -0.1297 -0.1240
 6254TIP3    H140397   5.688   3.041   8.468 -1.0483 -0.4911 -1.1525
 6254TIP3    H240398   5.568   3.130   8.441  0.0628  1.5598  0.3515
 6255TIP3   OH240399   5.588   3.947   6.928  0.1729  0.9735 -0.1745
 6255TIP3    H140400   5.639   3.871   6.958 -1.3099 -0.5218 -1.2838
 6255TIP3    H240401   5.498   3.915   6.924 -0.4758  2.7859 -0.7525
 6256TIP3   OH240402   6.462   2.310   0.809 -0.1441  0.3920 -0.1125
 6256TIP3    H140403   6.450   2.338   0.718 -0.0667 -1.9987 -0.9332
 6256TIP3    H240404   6.552   2.277   0.812  0.1987  1.3612  1.1447
 6257TIP3   OH240405   3.026   1.133   1.854 -0.6080  0.2563 -0.6934
 6257TIP3    H140406   3.118   1.160   1.854 -0.2183 -0.7213  2.4954
 6257TIP3    H240407   2.977   1.215   1.848  0.5242  1.1111  0.8955
 6258TIP3   OH240408   5.001   4.840   0.978  0.2771  0.3564 -0.0463
 6258TIP3    H140409   5.033   4.754   0.952  1.2026  0.0552  1.8976
 6258TIP3    H240410   4.933   4.861   0.914  1.2219 -1.0326 -1.5963
 6259TIP3   OH240411   0.461   3.183   0.423 -0.3104 -0.5352  0.0325
 6259TIP3    H140412   0.381   3.131   0.429 -1.6584  1.4069 -0.1004
 6259TIP3    H240413   0.509   3.162   0.503 -2.2897  0.2656  1.5158
 6260TIP3   OH240414   5.329   2.818   6.870  0.1285  0.1342 -0.1326
 6260TIP3    H140415   5.326   2.880   6.796  3.3286  0.2432 -0.3380
 6260TIP3    H240416   5.419   2.826   6.904  0.5502 -3.8932  0.2456
 6261TIP3   OH240417   5.576   1.114   1.618 -0.4957 -1.0036 -0.0288
 6261TIP3    H140418   5.534   1.134   1.534 -0.6639 -2.0530 -0.2005
 6261TIP3    H240419   5.668   1.104   1.597 -0.0586  1.4932  0.3786
 6262TIP3   OH240420   3.982   0.447   8.489  0.2082 -0.3502  0.2157
 6262TIP3    H140421   4.076   0.441   8.509  0.3697  1.3877  0.1691
 6262TIP3    H240422   3.977   0.511   8.418 -1.0141 -0.4653  0.1883
 6263TIP3   OH240423   5.087   4.510   8.513  0.3153 -0.5185 -0.2766
 6263TIP3    H140424   5.001   4.549   8.499  0.3064 -0.5411 -0.2856
 6263TIP3    H240425   5.124   4.558   8.587 -0.5585 -1.8938  1.1142
 6264TIP3   OH240426   4.505   5.696   7.181 -0.3508 -0.5401 -0.2418
 6264TIP3    H140427   4.413   5.671   7.196 -1.6013  3.1208 -0.9258
 6264TIP3    H240428   4.516   5.690   7.087  0.1545 -0.9692 -0.1593
 6265TIP3   OH240429   0.255   4.844   6.948  0.0854  0.3128 -0.7652
 6265TIP3    H140430   0.229   4.825   6.858 -0.7031 -0.1871 -0.4442
 6265TIP3    H240431   0.254   4.940   6.953  0.3221  0.3489 -1.3418
 6266TIP3   OH240432   2.048   0.646   1.081 -0.8296 -0.4530  0.3587
 6266TIP3    H140433   2.103   0.590   1.025  0.3974  0.0877  0.9750
 6266TIP3    H240434   2.023   0.719   1.025  0.0551 -0.1199  0.3784
 6267TIP3   OH240435   1.472   1.057   1.513  0.1631 -0.5104 -0.3490
 6267TIP3    H140436   1.387   1.029   1.478  0.8063  1.9837 -4.6355
 6267TIP3    H240437   1.536   1.012   1.457  1.5438  0.1404  0.6589
 6268TIP3   OH240438   4.404   0.682   1.954 -0.4570  0.6446  0.0423
 6268TIP3    H140439   4.328   0.740   1.963 -0.0471  1.1823  0.0939
 6268TIP3    H240440   4.372   0.608   1.903 -1.1711  0.5839  0.5551
 6269TIP3   OH240441   0.903   3.228   7.940 -0.0929  0.1327 -0.1435
 6269TIP3    H140442   0.949   3.303   7.902 -1.6702  0.7300 -0.9752
 6269TIP3    H240443   0.933   3.153   7.889  0.1743  0.4589 -0.4728
 6270TIP3   OH240444   0.372   6.360   3.078 -0.1875 -0.5100  0.6571
 6270TIP3    H140445   0.304   6.424   3.095  2.1421  2.0971  0.7854
 6270TIP3    H240446   0.328   6.290   3.030 -3.2740  0.1427  2.2871
 6271TIP3   OH240447   2.346   6.532   7.426  0.0227 -0.1164 -0.2879
 6271TIP3    H140448   2.434   6.569   7.419 -0.4420  1.0195 -0.5005
 6271TIP3    H240449   2.289   6.600   7.388 -0.9353 -0.8339 -0.1689
 6272TIP3   OH240450   6.797   2.270   0.973  0.0003  0.0673 -0.1043
 6272TIP3    H140451   6.890   2.267   0.995  0.0172 -1.4294 -0.2755
 6272TIP3    H240452   6.776   2.363   0.966  1.3352  0.4274  0.5557
 6273TIP3   OH240453   2.279   4.229   1.617 -0.3904  0.0049  0.1439
 6273TIP3    H140454   2.197   4.212   1.570 -0.7360  0.4507  0.5783
 6273TIP3    H240455   2.254   4.288   1.688  0.4574  0.8555 -0.2456
 6274TIP3   OH240456   4.359   2.557   1.733  0.2090  0.1863 -0.3051
 6274TIP3    H140457   4.422   2.626   1.712  0.6388 -0.1754 -0.2162
 6274TIP3    H240458   4.336   2.518   1.649  0.5241 -0.0420 -0.2881
 6275TIP3   OH240459   4.318   3.733   2.021 -0.0003  0.1602  0.0376
 6275TIP3    H140460   4.374   3.727   2.099 -0.0243 -0.0792  0.0374
 6275TIP3    H240461   4.353   3.667   1.962 -0.3528 -0.0703  0.0811
 6276TIP3   OH240462   4.326   0.136   2.734  0.2771  0.7529  0.3178
 6276TIP3    H140463   4.259   0.130   2.803  0.7786  2.4018  1.0077
 6276TIP3    H240464   4.394   0.075   2.762 -0.2173  0.2550  0.4585
 6277TIP3   OH240465   6.829   1.702   8.099 -0.8314 -0.2703  0.2987
 6277TIP3    H140466   6.884   1.772   8.132 -2.5675  2.4553 -2.0387
 6277TIP3    H240467   6.861   1.686   8.010 -2.2856 -0.2853 -0.2543
 6278TIP3   OH240468   5.707   3.467   0.455  0.7178  0.3033 -0.5455
 6278TIP3    H140469   5.732   3.404   0.522 -2.1911  3.2549  3.8322
 6278TIP3    H240470   5.787   3.516   0.437  1.4687 -0.1734  1.3123
 6279TIP3   OH240471   6.510   0.353   7.364  0.4894 -0.0903 -0.9290
 6279TIP3    H140472   6.493   0.318   7.276 -0.9647 -1.9961  0.0449
 6279TIP3    H240473   6.440   0.417   7.378 -0.9436 -1.7378 -0.1953
 6280TIP3   OH240474   6.514   0.379   1.277 -0.0390  0.3111 -0.1870
 6280TIP3    H140475   6.531   0.344   1.364  0.8842 -1.8848 -1.1770
 6280TIP3    H240476   6.494   0.302   1.224 -1.0835  1.6473 -1.8189
 6281TIP3   OH240477   2.120   6.182   0.412  0.3104  0.6715 -0.3867
 6281TIP3    H140478   2.210   6.185   0.445  0.5833  0.5692 -1.1085
 6281TIP3    H240479   2.088   6.272   0.421 -0.0556  0.4028  1.3149
 6282TIP3   OH240480   1.308   4.839   8.391 -0.1339 -0.7486 -0.2868
 6282TIP3    H140481   1.229   4.842   8.444  0.0098 -1.2387 -0.0380
 6282TIP3    H240482   1.331   4.746   8.387  0.8319 -0.5491  0.2380
 6283TIP3   OH240483   5.603   2.536   2.050 -0.1102  0.0464 -0.3914
 6283TIP3    H140484   5.550   2.546   1.971  1.8366  1.3571 -1.6367
 6283TIP3    H240485   5.690   2.515   2.017  0.2990 -1.5647  1.5501
 6284TIP3   OH240486   4.249   5.010   7.293 -0.0938 -0.1286  0.4274
 6284TIP3    H140487   4.275   5.004   7.201  1.3464 -0.8931  0.8579
 6284TIP3    H240488   4.158   5.040   7.290  0.0272  0.1637 -1.2289
 6285TIP3   OH240489   3.714   4.485   6.705 -0.5636  0.2862  0.1067
 6285TIP3    H140490   3.682   4.450   6.788 -0.7080  1.4113  0.5324
 6285TIP3    H240491   3.715   4.409   6.646 -0.4260 -0.5337  1.1358
 6286TIP3   OH240492   5.245   5.410   0.131 -0.2301 -0.2469 -0.3266
 6286TIP3    H140493   5.340   5.403   0.124 -0.1845 -0.1718  0.2252
 6286TIP3    H240494   5.220   5.346   0.198 -0.3004  1.4522  1.3515
 6287TIP3   OH240495   3.946   2.256   1.459 -0.6519 -0.5585  0.6223
 6287TIP3    H140496   4.006   2.182   1.450  0.7023  0.5181  0.5233
 6287TIP3    H240497   3.922   2.279   1.369  1.0162  0.7429  0.4642
 6288TIP3   OH240498   1.461   2.663   7.757  0.3406 -0.3581 -0.3897
 6288TIP3    H140499   1.408   2.684   7.681 -0.4359  0.2334  0.2944
 6288TIP3    H240500   1.408   2.601   7.807 -0.2768  1.1218  0.8843
 6289TIP3   OH240501   3.876   4.167   0.686  0.2850  0.2573  0.7717
 6289TIP3    H140502   3.830   4.125   0.613  0.5470 -1.4793  1.5438
 6289TIP3    H240503   3.841   4.256   0.689 -0.4545  0.0528 -0.8302
 6290TIP3   OH240504   1.422   0.880   1.128  0.2318 -0.2175 -0.4504
 6290TIP3    H140505   1.329   0.869   1.147 -0.3749  2.5250 -1.3920
 6290TIP3    H240506   1.442   0.809   1.067 -1.0229 -1.3302  0.3909
 6291TIP3   OH240507   0.034   3.024   0.980  0.0503 -0.2800 -0.3185
 6291TIP3    H140508  -0.042   3.070   0.945 -0.4527 -0.3104  0.7061
 6291TIP3    H240509   0.001   2.977   1.057  1.1009 -0.2633  0.1662
 6292TIP3   OH240510   0.996   1.020   1.262  0.2300  0.1810 -0.0426
 6292TIP3    H140511   0.999   1.072   1.182 -1.0275 -0.8553 -0.7822
 6292TIP3    H240512   0.928   1.061   1.315 -0.4094 -0.3981 -0.4105
 6293TIP3   OH240513   0.705   6.866   8.020  0.7209 -0.1402 -0.1990
 6293TIP3    H140514   0.767   6.820   7.963  0.1658 -0.6656 -0.3904
 6293TIP3    H240515   0.698   6.809   8.097  1.1162  0.3397  0.2006
 6294TIP3   OH240516   6.077   1.764   3.120  1.1266 -0.2903 -0.0134
 6294TIP3    H140517   6.163   1.805   3.113  0.4299  1.4680  1.1278
 6294TIP3    H240518   6.096   1.673   3.143  2.6848 -0.0869 -0.3891
 6295TIP3   OH240519   3.422   1.178   8.465 -0.0585 -0.2364 -0.3481
 6295TIP3    H140520   3.393   1.259   8.422  1.2546  0.4579  0.0088
 6295TIP3    H240521   3.396   1.188   8.556  2.8835  1.3074  0.4413
 6296TIP3   OH240522   3.335   6.623   0.009 -0.5468  0.4049 -0.2449
 6296TIP3    H140523   3.308   6.620   0.101  3.2539 -2.1195  1.0305
 6296TIP3    H240524   3.321   6.535  -0.024 -2.0933  1.3260 -2.2990
 6297TIP3   OH240525   5.406   0.680   2.598 -0.1493 -0.1608 -0.1973
 6297TIP3    H140526   5.392   0.589   2.628  1.6048  0.5035  3.1523
 6297TIP3    H240527   5.340   0.730   2.646  2.4843  0.9070  2.6075
 6298TIP3   OH240528   0.279   4.033   8.457  0.4585  0.3577  0.2064
 6298TIP3    H140529   0.334   4.056   8.532 -0.1460 -0.2397  0.8478
 6298TIP3    H240530   0.213   3.974   8.493 -1.0706  1.6336 -0.3767
 6299TIP3   OH240531   6.193   2.891   0.936 -0.2894 -0.1412  0.6926
 6299TIP3    H140532   6.256   2.959   0.915 -0.9464  0.2408 -0.0913
 6299TIP3    H240533   6.199   2.829   0.864 -0.5572 -0.2855  0.7938
 6300TIP3   OH240534   5.776   5.109   6.635  0.5725  0.2237 -0.1700
 6300TIP3    H140535   5.844   5.166   6.599  0.2615  0.2457 -0.7334
 6300TIP3    H240536   5.695   5.157   6.622  0.4319  0.1416  0.3870
 6301TIP3   OH240537   2.922   3.325   1.734 -0.4740 -0.5397  0.1323
 6301TIP3    H140538   2.869   3.385   1.786 -0.1320  0.8740 -1.0876
 6301TIP3    H240539   2.996   3.378   1.703 -0.3254 -1.4909 -1.2412
 6302TIP3   OH240540   4.931   0.870   0.211  0.1565  0.1635  0.3984
 6302TIP3    H140541   4.900   0.941   0.267 -0.6301  0.5850 -0.5351
 6302TIP3    H240542   5.019   0.896   0.185  0.0991  0.5006  0.5441
 6303TIP3   OH240543   4.922   4.123   1.123  0.1162  0.3607  0.3665
 6303TIP3    H140544   4.966   4.170   1.194 -0.3134  0.6720  0.4363
 6303TIP3    H240545   4.986   4.060   1.091  0.0038 -0.4143  1.6394
 6304TIP3   OH240546   4.582   4.683   6.783  0.3212 -0.1917 -0.1967
 6304TIP3    H140547   4.676   4.692   6.799 -0.0445  1.5560  1.3765
 6304TIP3    H240548   4.573   4.597   6.742  2.6564 -0.1502 -0.9748
 6305TIP3   OH240549   1.837   3.619   8.036 -0.4900 -0.5264  0.3040
 6305TIP3    H140550   1.795   3.616   7.950  0.5750 -0.5952 -0.2295
 6305TIP3    H240551   1.777   3.571   8.093 -1.2619 -0.3945 -0.3740
 6306TIP3   OH240552   3.022   1.387   1.039 -0.1320 -0.7489 -0.3205
 6306TIP3    H140553   3.034   1.293   1.051 -0.5041 -0.7641 -0.0664
 6306TIP3    H240554   3.076   1.408   0.962  0.6911 -0.9975  0.1712
 6307TIP3   OH240555   5.052   6.627   1.549  0.4408 -0.1539 -0.2740
 6307TIP3    H140556   5.129   6.579   1.577  0.9135  1.0007  0.5048
 6307TIP3    H240557   5.056   6.710   1.598 -0.8411  0.2770 -0.8388
 6308TIP3   OH240558   2.243   4.928   7.245  0.3080 -0.3185 -0.3264
 6308TIP3    H140559   2.230   4.872   7.322  0.5656  1.3319  0.9901
 6308TIP3    H240560   2.248   4.868   7.171  0.9410 -2.0415  1.0583
 6309TIP3   OH240561   5.379   2.675   7.892  0.5151 -0.1910 -0.4202
 6309TIP3    H140562   5.382   2.579   7.892  1.0937 -0.2006 -1.9400
 6309TIP3    H240563   5.298   2.697   7.846  0.7620  0.0395 -0.7525
 6310TIP3   OH240564   0.539   5.401   7.716 -0.6211  0.3886  0.6292
 6310TIP3    H140565   0.553   5.326   7.658 -1.4764  0.6487  0.0580
 6310TIP3    H240566   0.560   5.477   7.662 -1.1212  0.6216  0.7597
 6311TIP3   OH240567   3.011   1.505   0.702  0.0161  0.1735  0.4871
 6311TIP3    H140568   3.100   1.485   0.728 -0.3255 -1.0531  0.7923
 6311TIP3    H240569   2.976   1.559   0.773  0.7837  1.4836 -0.0854
 6312TIP3   OH240570   3.062   5.453   1.147  0.5081  0.6167  0.5343
 6312TIP3    H140571   3.077   5.486   1.058  1.3433 -0.1973  0.3639
 6312TIP3    H240572   3.146   5.465   1.191  0.2277  0.5839  1.0777
 6313TIP3   OH240573   1.149   1.310   2.811  0.1067  0.1144 -0.1698
 6313TIP3    H140574   1.136   1.215   2.805  2.8533 -0.6729  3.2311
 6313TIP3    H240575   1.064   1.344   2.839 -0.2704 -1.7824  1.2219
 6314TIP3   OH240576   4.221   0.258   1.372  0.1775 -0.3898 -0.2494
 6314TIP3    H140577   4.167   0.216   1.306 -2.2583  0.6439  0.9669
 6314TIP3    H240578   4.245   0.188   1.432  0.9925 -1.0089 -1.2473
 6315TIP3   OH240579   1.963   2.281   8.354  0.0436 -0.2129 -0.0795
 6315TIP3    H140580   2.015   2.202   8.369  1.0206  0.3266 -0.5772
 6315TIP3    H240581   1.991   2.341   8.423 -0.1623 -0.0322 -0.1532
 6316TIP3   OH240582   3.367   0.302   7.746  0.1866 -0.3059 -0.1546
 6316TIP3    H140583   3.396   0.221   7.789 -2.3458 -0.7595  0.9425
 6316TIP3    H240584   3.349   0.362   7.819 -2.7811 -0.5763 -0.5074
 6317TIP3   OH240585   3.245   0.497   0.623  0.7825  0.3558 -0.2576
 6317TIP3    H140586   3.252   0.591   0.610  0.4285  0.3251 -0.7122
 6317TIP3    H240587   3.216   0.487   0.714 -1.0929  0.7850 -0.7583
 6318TIP3   OH240588   4.421   4.119   7.646 -0.5450 -0.7945 -0.1531
 6318TIP3    H140589   4.457   4.184   7.586 -0.0753 -0.5406  0.3936
 6318TIP3    H240590   4.460   4.036   7.617 -1.0027 -0.8115 -0.7361
 6319TIP3   OH240591   6.787   2.859   8.470  0.2200 -0.3665 -0.1298
 6319TIP3    H140592   6.822   2.781   8.428  0.0414  0.3255 -1.6359
 6319TIP3    H240593   6.695   2.839   8.488  0.5589 -1.0404  0.9104
 6320TIP3   OH240594   6.759   4.196   0.090  0.8298  0.3825 -0.2674
 6320TIP3    H140595   6.814   4.190   0.012  1.0214 -0.8694 -0.0501
 6320TIP3    H240596   6.800   4.136   0.152 -0.6985 -0.4807 -0.0585
 6321TIP3   OH240597   0.752   3.931   7.263  0.6242  0.0194 -0.1765
 6321TIP3    H140598   0.812   3.907   7.193  0.1690 -2.5723  0.2081
 6321TIP3    H240599   0.685   3.985   7.220  0.7170 -0.9604 -1.6197
 6322TIP3   OH240600   5.248   1.144   0.279  0.0132  0.0270  0.2286
 6322TIP3    H140601   5.325   1.198   0.261 -0.9195  1.7782  1.2958
 6322TIP3    H240602   5.174   1.200   0.258 -1.0132 -1.4248 -0.1936
 6323TIP3   OH240603   6.219   1.327   1.963 -0.2627 -0.2260  0.5258
 6323TIP3    H140604   6.268   1.261   2.012  0.3212 -0.0747  0.1553
 6323TIP3    H240605   6.173   1.277   1.896  0.3734 -0.2381  0.0903
 6324TIP3   OH240606   6.751   4.673   6.906  0.3454 -0.7640  0.1581
 6324TIP3    H140607   6.756   4.703   6.815 -0.0352  3.3152  1.2986
 6324TIP3    H240608   6.664   4.636   6.915 -0.1421  0.1091 -0.8038
 6325TIP3   OH240609   1.031   1.249   8.557 -0.4335  0.6582  0.6947
 6325TIP3    H140610   1.101   1.246   8.623  1.2470  0.5739 -1.0132
 6325TIP3    H240611   1.045   1.170   8.504  0.7252  2.5840 -2.1018
 6326TIP3   OH240612   3.248   0.661   7.357  0.2995  0.0719 -0.0044
 6326TIP3    H140613   3.231   0.606   7.281 -0.0532 -1.4711  1.1508
 6326TIP3    H240614   3.197   0.621   7.428  1.0908  1.1050  1.1923
 6327TIP3   OH240615   5.578   4.592   0.628 -0.0830 -0.0567 -0.5622
 6327TIP3    H140616   5.560   4.620   0.718  0.7340 -0.3962 -0.2852
 6327TIP3    H240617   5.594   4.674   0.581 -2.8382  0.3225 -0.9698
 6328TIP3   OH240618   4.690   2.844   0.141 -0.5174 -0.4347 -0.0446
 6328TIP3    H140619   4.663   2.908   0.207  1.7099  0.4376  0.0872
 6328TIP3    H240620   4.678   2.890   0.057 -0.3878 -0.4072 -0.0480
 6329TIP3   OH240621   3.406   5.789   0.666 -0.6357  0.0108 -0.0081
 6329TIP3    H140622   3.384   5.802   0.759  0.7153 -0.7378  0.4467
 6329TIP3    H240623   3.373   5.867   0.622 -0.4688  0.8265  1.2609
 6330TIP3   OH240624   4.814   3.981   7.699 -0.1559  0.7623 -0.0767
 6330TIP3    H140625   4.831   4.020   7.614 -0.4652  1.3573  0.1276
 6330TIP3    H240626   4.845   3.891   7.691 -1.3359  0.4277 -1.2143
 6331TIP3   OH240627   4.387   1.000   2.204 -0.4167 -0.0119  0.0284
 6331TIP3    H140628   4.427   0.913   2.195 -1.4830 -0.3501 -2.3433
 6331TIP3    H240629   4.445   1.048   2.263  1.1488 -1.7928  0.0057
 6332TIP3   OH240630   2.940   1.046   7.376 -0.0377  0.1833 -0.4268
 6332TIP3    H140631   3.007   1.028   7.310  1.1529 -1.9378  1.2585
 6332TIP3    H240632   2.989   1.063   7.456 -1.4997  0.5405  0.4285
 6333TIP3   OH240633   3.781   3.997   2.710  0.0036 -0.0536 -0.0611
 6333TIP3    H140634   3.843   4.002   2.638 -1.1523 -1.6722 -1.2564
 6333TIP3    H240635   3.741   3.910   2.701 -0.6757 -0.0462  2.1366
 6334TIP3   OH240636   4.713   6.152   1.320  0.3532 -0.1822  0.3692
 6334TIP3    H140637   4.711   6.078   1.259  1.1971 -1.7007  2.0610
 6334TIP3    H240638   4.729   6.229   1.265 -2.0089 -0.9894 -1.6437
 6335TIP3   OH240639   0.653   1.664   7.509 -0.5514  0.1066 -0.0135
 6335TIP3    H140640   0.576   1.622   7.547 -0.6797  0.7415  0.4492
 6335TIP3    H240641   0.617   1.737   7.458 -0.2547  0.4317  0.2412
 6336TIP3   OH240642   3.423   4.574   2.234 -0.1256  0.2114 -0.2838
 6336TIP3    H140643   3.485   4.640   2.202  0.3079 -0.2992 -0.5110
 6336TIP3    H240644   3.409   4.516   2.159 -0.3506 -0.0700 -0.0250
 6337TIP3   OH240645   2.172   0.060   2.925 -0.0130 -0.3280  0.0809
 6337TIP3    H140646   2.229   0.136   2.910 -0.2922 -0.1441 -0.0547
 6337TIP3    H240647   2.149   0.065   3.018  0.1833 -0.3980  0.1342
 6338TIP3   OH240648   4.168   5.283   7.704  0.2773 -0.3820  0.0059
 6338TIP3    H140649   4.174   5.332   7.622 -1.4292  1.4489  0.8704
 6338TIP3    H240650   4.130   5.198   7.679 -0.8420  0.3939 -1.0507
 6339TIP3   OH240651   5.071   3.030   8.356  0.0911  0.0280 -0.3389
 6339TIP3    H140652   5.064   3.117   8.394 -0.5772 -0.5966  1.0522
 6339TIP3    H240653   5.157   3.028   8.314  1.0447  0.6438  1.5225
 6340TIP3   OH240654   1.083   3.969   0.201 -0.0840 -0.3706 -0.4258
 6340TIP3    H140655   1.110   4.017   0.122 -0.5000 -1.5988 -1.3330
 6340TIP3    H240656   1.163   3.966   0.254  0.8908 -1.6001 -1.8787
 6341TIP3   OH240657   3.879   0.929   0.075 -0.4045  0.3501  0.7787
 6341TIP3    H140658   3.798   0.923   0.024  1.1187 -1.4636 -1.6670
 6341TIP3    H240659   3.857   0.891   0.160 -2.0589 -0.3347  0.0765
 6342TIP3   OH240660   3.509   2.241   0.789 -0.5286  0.4437  0.8750
 6342TIP3    H140661   3.600   2.210   0.784 -0.7868 -0.1231 -2.2305
 6342TIP3    H240662   3.517   2.336   0.785 -0.0264  0.5336  3.0405
 6343TIP3   OH240663   1.326   5.534   7.148 -0.1793 -0.6276  0.0793
 6343TIP3    H140664   1.381   5.598   7.194 -0.7178  0.6145 -0.9527
 6343TIP3    H240665   1.238   5.550   7.180 -0.1648 -1.7573  0.7692
 6344TIP3   OH240666   4.424   5.327   2.220  0.5149 -0.4224 -0.2662
 6344TIP3    H140667   4.384   5.414   2.214  1.5312  0.1013  0.2686
 6344TIP3    H240668   4.352   5.266   2.204 -0.3982  0.4983  0.2125
 6345TIP3   OH240669   6.507   3.737   1.483  0.0022  0.2583  0.6947
 6345TIP3    H140670   6.490   3.805   1.418  2.0067 -1.6077 -1.9749
 6345TIP3    H240671   6.442   3.669   1.463  0.5256 -0.2592  0.7495
 6346TIP3   OH240672   5.099   2.048   1.089 -0.1361 -0.0790 -0.0850
 6346TIP3    H140673   5.094   2.107   1.014  0.0211  0.5463  0.3912
 6346TIP3    H240674   5.011   2.011   1.096 -0.2140  0.0383 -0.4341
 6347TIP3   OH240675   6.816   5.814   0.555 -0.0753 -0.1788  0.3086
 6347TIP3    H140676   6.841   5.722   0.548 -0.8669 -0.3596 -0.4372
 6347TIP3    H240677   6.898   5.862   0.548  0.2466 -0.8015 -0.3992
 6348TIP3   OH240678   4.334   0.122   7.721 -0.7935 -0.4408  0.2547
 6348TIP3    H140679   4.312   0.045   7.773 -1.0773 -2.3384 -2.4818
 6348TIP3    H240680   4.371   0.087   7.640  1.4401  2.3946 -0.1006
 6349TIP3   OH240681   0.925   5.279   2.861 -0.5806 -0.2890 -0.1909
 6349TIP3    H140682   0.830   5.263   2.855 -0.2508 -2.8993  0.2906
 6349TIP3    H240683   0.964   5.192   2.850  1.6680  0.4055  1.6101
 6350TIP3   OH240684   4.766   0.476   1.832 -0.8551 -0.0626  0.0920
 6350TIP3    H140685   4.793   0.492   1.741 -0.8527  1.2253  0.2996
 6350TIP3    H240686   4.734   0.561   1.863 -0.7588 -0.4593  1.3345
 6351TIP3   OH240687   0.135   6.015   7.260 -0.3962 -0.3115 -0.8211
 6351TIP3    H140688   0.166   5.945   7.202 -0.5561  0.0929 -1.4117
 6351TIP3    H240689   0.135   6.093   7.204  1.6992  0.6016  0.3341
 6352TIP3   OH240690   1.194   5.699   8.022 -0.2606 -0.7448 -0.5457
 6352TIP3    H140691   1.157   5.681   8.108 -1.4931 -0.0084 -0.9015
 6352TIP3    H240692   1.145   5.641   7.963 -0.7438  0.1129 -0.9966
 6353TIP3   OH240693   4.070   1.055   1.666 -0.4357 -0.4672  0.1106
 6353TIP3    H140694   4.048   1.123   1.731 -2.6425  1.8676 -2.7534
 6353TIP3    H240695   4.127   1.100   1.604  0.3266 -2.1344 -0.4226
 6354TIP3   OH240696   3.702   6.195   1.177  0.5782  0.3207 -0.4651
 6354TIP3    H140697   3.636   6.197   1.108  0.8111  0.1972 -0.6906
 6354TIP3    H240698   3.659   6.238   1.252  0.9700  2.1670 -1.2508
 6355TIP3   OH240699   4.540   2.543   1.413 -0.6283 -0.0317 -0.8458
 6355TIP3    H140700   4.544   2.614   1.478  0.5998 -1.5509  0.8019
 6355TIP3    H240701   4.620   2.553   1.361 -0.9373  0.3490 -1.2614
 6356TIP3   OH240702   1.729   3.304   0.367 -0.3091 -0.3405 -0.3837
 6356TIP3    H140703   1.696   3.257   0.291 -1.6629 -0.7410  0.4210
 6356TIP3    H240704   1.730   3.238   0.437  1.7651 -0.2147 -0.2380
 6357TIP3   OH240705   0.495   5.656   7.851  0.2822  0.7351  0.3380
 6357TIP3    H140706   0.548   5.578   7.834  0.1961  0.1355  2.5101
 6357TIP3    H240707   0.542   5.728   7.809  1.3862 -0.2001 -0.0503
 6358TIP3   OH240708   6.637   0.283   7.926  0.2159  0.3409 -0.4921
 6358TIP3    H140709   6.732   0.296   7.920  0.0755  1.1783 -1.1457
 6358TIP3    H240710   6.600   0.356   7.877 -0.8627  1.8021  2.2525
 6359TIP3   OH240711   2.226   4.969   7.612 -0.5858 -0.3289  0.5895
 6359TIP3    H140712   2.188   4.898   7.561  0.9715  0.4464 -1.8420
 6359TIP3    H240713   2.319   4.967   7.590  0.5682 -0.8098  4.6057
 6360TIP3   OH240714   5.972   5.830   8.430 -0.2942  0.3127  0.2741
 6360TIP3    H140715   5.913   5.885   8.379 -1.3749  0.4431  1.6039
 6360TIP3    H240716   5.972   5.746   8.385  0.8799  1.1566 -1.4198
 6361TIP3   OH240717   6.290   1.083   6.837  0.9666  0.5429  0.1407
 6361TIP3    H140718   6.331   1.093   6.752 -0.3589 -0.1398 -0.6087
 6361TIP3    H240719   6.204   1.046   6.818  0.7901  0.0261  1.8037
 6362TIP3   OH240720   3.803   3.068   0.556  0.2821 -0.0445  0.0957
 6362TIP3    H140721   3.819   3.162   0.564 -1.9662  0.3522  1.0440
 6362TIP3    H240722   3.754   3.058   0.474  1.9611 -0.6698 -0.8762
 6363TIP3   OH240723   2.813   2.343   0.374  0.0229  0.4686  0.3742
 6363TIP3    H140724   2.733   2.289   0.376 -0.3436  0.8569 -1.7352
 6363TIP3    H240725   2.799   2.404   0.302  0.9531  2.6299  1.9459
 6364TIP3   OH240726   3.819   0.041   6.774  0.1392 -0.1546  0.1369
 6364TIP3    H140727   3.875   0.025   6.698  0.6028 -0.2237  0.4888
 6364TIP3    H240728   3.879   0.040   6.849  0.0902  2.4397  0.2817
 6365TIP3   OH240729   3.021   2.267   0.980  0.4090  0.5819  0.0027
 6365TIP3    H140730   3.000   2.360   0.973  1.7247  0.9817  0.8499
 6365TIP3    H240731   2.957   2.233   1.042 -0.0335  0.9510 -0.2491
 6366TIP3   OH240732   3.264   3.531   2.083 -0.3309 -0.2660 -0.1535
 6366TIP3    H140733   3.347   3.485   2.101 -0.0135  0.3685  0.0283
 6366TIP3    H240734   3.277   3.618   2.121 -0.6851  0.1958 -1.0814
 6367TIP3   OH240735   0.671   3.108   0.659 -0.0350  0.2758 -0.0354
 6367TIP3    H140736   0.656   3.014   0.675  1.9090 -0.1570 -0.5245
 6367TIP3    H240737   0.738   3.110   0.591  0.3817  2.0466  0.3973
 6368TIP3   OH240738   4.609   3.578   7.665  0.3842  0.0740  0.2377
 6368TIP3    H140739   4.558   3.656   7.643 -1.2875 -1.3254 -1.1898
 6368TIP3    H240740   4.683   3.580   7.604 -2.4508 -2.0286 -3.7707
 6369TIP3   OH240741   0.087   2.642   1.121 -0.1645 -0.4958 -0.2593
 6369TIP3    H140742   0.126   2.608   1.202 -0.4040 -0.8923 -0.3073
 6369TIP3    H240743   0.034   2.716   1.149  1.0495  0.4022 -0.2563
 6370TIP3   OH240744   5.196   6.673   1.225  0.3026  0.1616  0.2225
 6370TIP3    H140745   5.153   6.740   1.172  1.6081 -0.5338 -1.8306
 6370TIP3    H240746   5.125   6.617   1.255 -0.4078 -0.1928 -1.9568
 6371TIP3   OH240747   0.376   4.568   2.136 -0.2300 -0.1671 -0.3214
 6371TIP3    H140748   0.315   4.635   2.166  0.2971 -0.1537  0.7709
 6371TIP3    H240749   0.321   4.499   2.100 -0.7644  1.0232 -1.8598
 6372TIP3   OH240750   4.692   1.508   2.502 -0.2239  0.3471  0.0698
 6372TIP3    H140751   4.660   1.592   2.534 -1.3349 -0.1116  0.2297
 6372TIP3    H240752   4.654   1.444   2.562  2.1125 -0.1793  1.1106
 6373TIP3   OH240753   2.679   4.385   2.255  0.2218 -0.8439  0.7507
 6373TIP3    H140754   2.691   4.443   2.330  1.4789 -2.0876  1.5673
 6373TIP3    H240755   2.586   4.366   2.253 -0.0445  0.3361  1.1073
 6374TIP3   OH240756   2.729   2.966   7.712  0.3836 -0.5031  0.1531
 6374TIP3    H140757   2.771   2.975   7.626  0.7304  0.0582  0.3775
 6374TIP3    H240758   2.797   2.990   7.775  0.4486 -1.9091  0.6543
 6375TIP3   OH240759   1.073   5.762   1.492  0.1032  0.0748  0.0330
 6375TIP3    H140760   1.020   5.841   1.500  1.0911  0.7182  0.4429
 6375TIP3    H240761   1.160   5.794   1.469  0.5174 -0.8936  0.2193
 6376TIP3   OH240762   1.175   2.392   8.229 -0.4735 -0.0865  0.1499
 6376TIP3    H140763   1.251   2.444   8.255 -1.3818  0.6884  1.3399
 6376TIP3    H240764   1.157   2.336   8.304 -0.0508 -1.5564 -0.7833
 6377TIP3   OH240765   6.465   0.007   1.803 -0.2727 -0.2658  0.1837
 6377TIP3    H140766   6.510  -0.065   1.846  0.0807  0.3038  0.7760
 6377TIP3    H240767   6.372  -0.010   1.819 -0.2189 -0.8618 -0.1212
 6378TIP3   OH240768   0.486   1.295   7.265 -0.0635  0.3003 -0.2317
 6378TIP3    H140769   0.477   1.385   7.298  2.0242  0.8739 -1.0143
 6378TIP3    H240770   0.520   1.246   7.340  0.1401  0.5007 -0.1894
 6379TIP3   OH240771   3.214   1.920   1.531  0.4224  0.2426 -0.9318
 6379TIP3    H140772   3.240   1.989   1.592  1.2304 -0.3967 -0.5173
 6379TIP3    H240773   3.228   1.958   1.444  0.1148  0.8594 -0.7139
 6380TIP3   OH240774   4.458   6.305   0.892  0.0831 -0.2924 -0.4093
 6380TIP3    H140775   4.515   6.369   0.850  0.8051 -0.3324  0.4671
 6380TIP3    H240776   4.373   6.349   0.897  0.6080  0.6865  0.3306
 6381TIP3   OH240777   1.362   2.186   0.042 -0.3596  0.8108  0.4390
 6381TIP3    H140778   1.370   2.281   0.041  2.2765  0.6755 -0.8955
 6381TIP3    H240779   1.406   2.159   0.123 -1.4757  0.6916  1.0347
 6382TIP3   OH240780   0.769   6.158   0.238  0.2176 -1.0795 -0.4130
 6382TIP3    H140781   0.861   6.182   0.243  0.2575 -1.2550 -0.3060
 6382TIP3    H240782   0.747   6.167   0.145  0.3990 -1.2529 -0.4721
 6383TIP3   OH240783   4.149   6.457   2.397  0.4023  0.1607  0.4366
 6383TIP3    H140784   4.067   6.439   2.352  1.6099 -2.7566 -0.8378
 6383TIP3    H240785   4.131   6.438   2.489  0.1225 -2.6750 -0.1188
 6384TIP3   OH240786   1.773   0.637   0.277  0.2647 -0.1194 -0.1387
 6384TIP3    H140787   1.727   0.717   0.302  0.0429 -0.7381  1.5599
 6384TIP3    H240788   1.865   0.664   0.270  0.2751  0.2084  0.9597
 6385TIP3   OH240789   4.864   0.588   1.470 -0.0079 -0.5472  0.0555
 6385TIP3    H140790   4.843   0.539   1.391 -1.1024 -0.6073  0.3663
 6385TIP3    H240791   4.779   0.605   1.511  0.5135 -0.2057  1.0289
 6386TIP3   OH240792   5.427   1.882   0.709 -0.0775 -0.1581  0.1128
 6386TIP3    H140793   5.438   1.960   0.762  0.2243  0.7812 -1.2931
 6386TIP3    H240794   5.353   1.902   0.652  0.3079 -0.6921 -0.5956
 6387TIP3   OH240795   3.299   4.028   0.371  0.0068 -0.1449 -0.1703
 6387TIP3    H140796   3.273   4.048   0.280 -1.5929 -3.2429 -0.5399
 6387TIP3    H240797   3.356   3.952   0.363  1.1092  0.4862  1.3793
 6388TIP3   OH240798   5.203   2.228   7.899  0.2197 -0.5735  0.5782
 6388TIP3    H140799   5.145   2.291   7.942 -1.0888 -1.1316 -0.3092
 6388TIP3    H240800   5.177   2.143   7.935 -1.6607 -1.1910 -1.9896
 6389TIP3   OH240801   5.150   1.258   0.943  0.3335 -0.4156 -0.8581
 6389TIP3    H140802   5.185   1.247   0.855 -3.4255 -2.0435 -2.3443
 6389TIP3    H240803   5.153   1.170   0.981 -1.3323 -0.4658 -0.7805
 6390TIP3   OH240804   6.461   4.184   8.250 -0.3673 -0.4394 -0.2681
 6390TIP3    H140805   6.473   4.115   8.184 -1.8547  0.1417 -1.1760
 6390TIP3    H240806   6.546   4.228   8.254 -0.8078  0.9942 -3.5232
 6391TIP3   OH240807   4.625   6.764   7.628  0.3239 -0.4538  0.0992
 6391TIP3    H140808   4.588   6.677   7.616  1.7261 -0.7580 -3.3356
 6391TIP3    H240809   4.564   6.822   7.584 -0.4080  0.3347  2.0485
 6392TIP3   OH240810   2.589   5.087   7.395 -0.0430 -0.1422 -0.6320
 6392TIP3    H140811   2.645   5.090   7.317  3.7889  0.1468  1.8378
 6392TIP3    H240812   2.551   5.000   7.394  0.4486 -0.3737 -2.4753
 6393TIP3   OH240813   5.708   3.399   1.904 -0.1099  0.3448  0.1144
 6393TIP3    H140814   5.709   3.471   1.840 -0.5317 -0.6292 -1.0352
 6393TIP3    H240815   5.798   3.369   1.908 -0.3426 -0.6281 -1.2829
 6394TIP3   OH240816   0.148   4.919   1.585  0.1588 -0.7500 -0.0919
 6394TIP3    H140817   0.086   4.853   1.554 -0.4601 -0.3641  0.3077
 6394TIP3    H240818   0.138   4.918   1.680 -1.6575  1.6163 -0.1862
 6395TIP3   OH240819   1.566   5.346   8.184 -0.2988  0.3877 -0.5046
 6395TIP3    H140820   1.488   5.340   8.128 -0.4740 -1.8941 -0.1279
 6395TIP3    H240821   1.629   5.286   8.143 -0.1044 -0.6221  1.1772
 6396TIP3   OH240822   5.568   5.319   8.264 -0.8544  0.6158  0.1883
 6396TIP3    H140823   5.553   5.231   8.300  1.6071  0.4456  0.9922
 6396TIP3    H240824   5.515   5.322   8.184 -0.0551 -2.0851 -0.5470
 6397TIP3   OH240825   6.447   5.911   8.007 -0.5485  0.1761  0.2232
 6397TIP3    H140826   6.527   5.888   7.960 -1.4849 -3.4438  0.1380
 6397TIP3    H240827   6.474   5.923   8.098  0.3332  0.9931 -0.1299
 6398TIP3   OH240828   4.843   6.199   0.265 -0.3257 -0.2109  0.1267
 6398TIP3    H140829   4.795   6.253   0.202 -0.4720 -0.5242 -0.0325
 6398TIP3    H240830   4.823   6.238   0.350  1.4583  1.4575 -0.1419
 6399TIP3   OH240831   2.964   2.989   0.812  0.2209  0.2370  0.4415
 6399TIP3    H140832   2.958   2.895   0.833 -0.5571  0.1419 -0.1665
 6399TIP3    H240833   2.885   3.027   0.850 -0.5154  0.2865 -1.0689
 6400TIP3   OH240834   0.688   4.668   7.432  0.0699  0.0700  0.6491
 6400TIP3    H140835   0.708   4.638   7.521 -0.8175  0.0922  0.8705
 6400TIP3    H240836   0.595   4.646   7.420 -0.0421  0.8280  0.0362
 6401TIP3   OH240837   6.242   4.902   0.887 -0.2098 -0.1006  0.0693
 6401TIP3    H140838   6.196   4.941   0.961 -0.9510 -0.6101 -0.1133
 6401TIP3    H240839   6.328   4.877   0.923  0.7600  2.6530 -0.0675
 6402TIP3   OH240840   6.177   0.257   2.096  0.7422  0.0658  0.1429
 6402TIP3    H140841   6.176   0.307   2.178 -1.2480  0.2301  0.0557
 6402TIP3    H240842   6.144   0.170   2.121  0.8697 -0.1219 -0.3458
 6403TIP3   OH240843   4.808   6.848   1.689 -0.2624  0.4602 -0.6415
 6403TIP3    H140844   4.897   6.883   1.700 -0.1407  0.2632 -1.0112
 6403TIP3    H240845   4.781   6.824   1.778 -0.1265  0.9580 -0.4629
 6404TIP3   OH240846   2.447   4.555   1.249  0.1748  0.4287  0.2278
 6404TIP3    H140847   2.503   4.496   1.300 -0.7752 -0.3295  0.4237
 6404TIP3    H240848   2.387   4.592   1.313  0.9501  1.8733  0.1556
 6405TIP3   OH240849   0.220   4.785   7.270  0.3189 -0.1706 -0.3017
 6405TIP3    H140850   0.148   4.775   7.208  0.0216  0.2268 -0.0276
 6405TIP3    H240851   0.295   4.810   7.216  0.1506 -0.1714 -0.5373
 6406TIP3   OH240852   5.892   1.467   2.621  0.1753  0.3692 -0.1275
 6406TIP3    H140853   5.901   1.562   2.630 -0.9297  0.7588 -2.2809
 6406TIP3    H240854   5.820   1.444   2.679  0.2443  0.9116  0.1838
 6407TIP3   OH240855   5.773   3.833   6.508 -0.0685 -0.0901 -0.1582
 6407TIP3    H140856   5.853   3.885   6.510  1.1438 -1.8289  2.6001
 6407TIP3    H240857   5.772   3.795   6.420  0.2878  2.5454 -1.3932
 6408TIP3   OH240858   5.083   4.561   7.814 -0.0108 -0.0310 -0.0136
 6408TIP3    H140859   5.150   4.511   7.768 -0.2529  1.5899 -2.3061
 6408TIP3    H240860   5.125   4.645   7.834 -0.2583 -0.3153  1.8399
 6409TIP3   OH240861   2.126   1.499   0.710  0.1116  0.0121  0.3350
 6409TIP3    H140862   2.107   1.552   0.788 -0.4847  0.1098  0.1280
 6409TIP3    H240863   2.221   1.501   0.702  0.3298 -1.2933  1.9721
 6410TIP3   OH240864   1.065   1.815   1.387 -0.7546 -0.0401 -0.0755
 6410TIP3    H140865   1.064   1.720   1.394  1.3095 -0.0849  0.1300
 6410TIP3    H240866   1.140   1.843   1.439 -0.0262  1.5307 -1.8498
 6411TIP3   OH240867   3.492   5.680   0.989 -0.2700  0.2466 -0.4557
 6411TIP3    H140868   3.403   5.716   0.982 -0.1925  0.5680  0.1250
 6411TIP3    H240869   3.518   5.663   0.898 -1.2738 -0.7426 -0.5739
 6412TIP3   OH240870   3.853   1.426   7.888 -0.1579 -0.6758 -0.5757
 6412TIP3    H140871   3.793   1.493   7.922 -1.5080 -1.3232 -1.5810
 6412TIP3    H240872   3.907   1.472   7.824 -1.7945 -0.7288 -2.0428
 6413TIP3   OH240873   6.376   6.356   1.062  0.3447  0.1516 -0.3311
 6413TIP3    H140874   6.408   6.445   1.047 -0.9609  1.1629  2.1837
 6413TIP3    H240875   6.443   6.315   1.117  0.4650 -0.0641 -0.6384
 6414TIP3   OH240876   5.073   1.148   7.157  0.0696 -0.2178 -0.0872
 6414TIP3    H140877   5.123   1.229   7.164  0.2560 -0.2082 -1.2083
 6414TIP3    H240878   5.007   1.153   7.226  0.0118  0.9432 -0.2143
 6415TIP3   OH240879   2.597   2.441   1.914  0.0225 -0.3743  0.6986
 6415TIP3    H140880   2.536   2.508   1.884  0.5451 -0.7454 -1.3143
 6415TIP3    H240881   2.590   2.371   1.849  2.2757 -0.6002  0.6164
 6416TIP3   OH240882   5.525   6.714   1.785  0.1930 -0.6567  1.0131
 6416TIP3    H140883   5.603   6.657   1.786  1.5228  1.0058 -0.5378
 6416TIP3    H240884   5.550   6.789   1.839 -0.3238 -0.1037  0.4920
 6417TIP3   OH240885   5.409   3.295   6.246  0.9011 -0.6939 -0.5224
 6417TIP3    H140886   5.489   3.288   6.298  0.1513  0.8229  0.9286
 6417TIP3    H240887   5.420   3.376   6.196  0.3630 -0.6196 -0.5216
 6418TIP3   OH240888   2.370   0.512   8.159  0.0697 -0.0701 -0.3719
 6418TIP3    H140889   2.413   0.451   8.098 -0.1624 -1.4133  0.7527
 6418TIP3    H240890   2.411   0.495   8.243 -1.1117  0.2041  0.2889
 6419TIP3   OH240891   6.475   2.106   1.504 -0.5947 -0.1811  0.4181
 6419TIP3    H140892   6.467   2.039   1.573 -0.1737 -0.5251  0.1342
 6419TIP3    H240893   6.399   2.091   1.448 -1.7480  1.0086  1.5733
 6420TIP3   OH240894   3.394   2.964   0.695 -0.0708 -0.4170  0.3521
 6420TIP3    H140895   3.376   2.972   0.602  2.5834 -0.3532 -0.2332
 6420TIP3    H240896   3.322   3.011   0.738 -1.2739 -0.3405 -1.6406
 6421TIP3   OH240897   0.714   1.205   8.516 -0.1802  0.5394  0.2276
 6421TIP3    H140898   0.797   1.235   8.478  0.2975 -1.3764 -0.3522
 6421TIP3    H240899   0.720   1.109   8.514 -2.4511  0.3520  0.1212
 6422TIP3   OH240900   6.730   6.813   6.907 -0.1613  0.6980  0.3021
 6422TIP3    H140901   6.698   6.903   6.907  0.0043  0.7929 -1.1726
 6422TIP3    H240902   6.684   6.771   6.835 -2.0618 -1.1398  2.4499
 6423TIP3   OH240903   1.548   0.492   1.674  0.4327 -0.2652  0.3212
 6423TIP3    H140904   1.614   0.460   1.614  0.8223 -0.8086  1.0178
 6423TIP3    H240905   1.556   0.587   1.670 -0.5312 -0.2237 -1.5451
 6424TIP3   OH240906   5.527   2.160   1.508 -0.4512 -0.3866  0.4699
 6424TIP3    H140907   5.461   2.106   1.465 -1.2616  0.3749  0.7247
 6424TIP3    H240908   5.602   2.102   1.519 -0.3670 -0.7232 -1.5616
 6425TIP3   OH240909   6.055   4.966   1.136 -0.1273  0.3684  0.4277
 6425TIP3    H140910   5.991   4.974   1.207  0.4726 -0.2015  1.0503
 6425TIP3    H240911   6.086   4.876   1.142 -0.4177  0.1653 -0.8818
 6426TIP3   OH240912   4.990   6.125   0.873 -0.1013 -0.3998 -0.5500
 6426TIP3    H140913   4.969   6.054   0.934 -0.2485  0.0551 -0.0607
 6426TIP3    H240914   4.905   6.162   0.850  0.0270  0.1886 -0.1013
 6427TIP3   OH240915   2.991   0.452   6.726  0.2188  0.1580  0.2044
 6427TIP3    H140916   3.043   0.436   6.648  0.9090 -0.8204  0.8388
 6427TIP3    H240917   3.053   0.438   6.799 -0.7176 -0.2067  0.9498
 6428TIP3   OH240918   6.881   0.542   7.607  0.5496  0.1457 -0.1730
 6428TIP3    H140919   6.900   0.503   7.692 -0.9318 -0.4741 -0.1056
 6428TIP3    H240920   6.787   0.528   7.594  1.1266 -1.9975 -3.0309
 6429TIP3   OH240921   0.883   6.816   6.839 -0.2063 -0.1101  0.0562
 6429TIP3    H140922   0.943   6.742   6.832 -0.6502 -0.4904  0.2419
 6429TIP3    H240923   0.920   6.882   6.780  1.1871  0.2136  1.2430
 6430TIP3   OH240924   1.031   0.450   2.206 -0.0978 -0.7644  0.2212
 6430TIP3    H140925   1.080   0.374   2.236  1.9146  0.7955  1.1111
 6430TIP3    H240926   0.998   0.425   2.120 -0.0891 -2.8619  0.7823
 6431TIP3   OH240927   5.948   2.111   7.809 -0.2408 -0.5165 -0.4168
 6431TIP3    H140928   5.859   2.088   7.833 -0.2449 -1.1217 -1.0208
 6431TIP3    H240929   5.965   2.065   7.727  0.5646 -0.2670 -0.4036
 6432TIP3   OH240930   6.203   2.394   0.080  0.2785 -0.0342 -0.2608
 6432TIP3    H140931   6.161   2.478   0.065  0.2060  0.0104  0.1878
 6432TIP3    H240932   6.278   2.394   0.020 -1.4098 -0.9120 -2.4641
 6433TIP3   OH240933   2.896   2.588   8.523 -0.5485  0.0333  0.3800
 6433TIP3    H140934   2.847   2.506   8.513  0.9536 -0.8037 -0.6082
 6433TIP3    H240935   2.988   2.562   8.512 -0.0768  1.9720 -0.7380
 6434TIP3   OH240936   6.832   2.859   0.329  0.3765 -0.3112 -0.1243
 6434TIP3    H140937   6.797   2.890   0.412  1.4184 -1.0859  0.6338
 6434TIP3    H240938   6.799   2.770   0.321  0.8012 -0.4638 -0.2131
 6435TIP3   OH240939   3.037   1.547   7.010 -0.1366  0.4898  0.2114
 6435TIP3    H140940   2.975   1.534   6.938  0.6284  3.0346 -1.0113
 6435TIP3    H240941   3.033   1.641   7.029  0.9262  0.1554  2.3747
 6436TIP3   OH240942   2.468   2.488   7.772 -0.2928 -0.1526  0.4352
 6436TIP3    H140943   2.444   2.399   7.797  0.1605  0.0815  1.7922
 6436TIP3    H240944   2.385   2.534   7.759 -0.5485 -0.3691  1.2679
 6437TIP3   OH240945   0.407   4.330   7.318 -0.3188  0.1913  0.3799
 6437TIP3    H140946   0.326   4.280   7.330  0.8088 -1.5005  1.2608
 6437TIP3    H240947   0.400   4.401   7.382 -0.7373 -0.4367  1.0508
 6438TIP3   OH240948   3.253   5.044   7.356  0.1364  0.1959  0.1074
 6438TIP3    H140949   3.183   5.094   7.399  1.2500  3.1676 -1.3001
 6438TIP3    H240950   3.208   4.999   7.285 -0.4603  1.8883 -0.6476
 6439TIP3   OH240951   0.342   5.619   1.413 -0.1688  0.1115 -0.0481
 6439TIP3    H140952   0.292   5.546   1.449 -0.6387  0.6828  0.4705
 6439TIP3    H240953   0.405   5.577   1.353  1.2591 -0.9482  2.0808
 6440TIP3   OH240954   4.153   1.584   2.936  0.0634  0.5824 -0.3309
 6440TIP3    H140955   4.098   1.573   3.013 -0.3753  1.4102 -0.5065
 6440TIP3    H240956   4.173   1.678   2.934  2.7584  0.1279  0.5634
 6441TIP3   OH240957   6.731   0.084   1.726 -0.9385  0.4901 -0.5213
 6441TIP3    H140958   6.639   0.059   1.740 -1.2029  2.0397  0.9749
 6441TIP3    H240959   6.761   0.111   1.813  1.1435 -0.5362 -0.8633
 6442TIP3   OH240960   4.140   0.265   0.740  0.1896 -0.1540 -0.5106
 6442TIP3    H140961   4.077   0.193   0.747  0.0067 -0.1363 -1.8429
 6442TIP3    H240962   4.158   0.273   0.647 -0.3324  2.0017 -0.4631
 6443TIP3   OH240963   3.783   1.728   1.193 -0.1814 -0.1451  0.8899
 6443TIP3    H140964   3.828   1.786   1.131 -0.1159 -2.6721 -1.6182
 6443TIP3    H240965   3.699   1.709   1.152 -0.1101 -1.9825  1.4887
 6444TIP3   OH240966   4.068   4.019   0.838  0.5157  0.1723 -0.2573
 6444TIP3    H140967   4.148   3.982   0.802  0.0500 -1.3060  0.1797
 6444TIP3    H240968   4.024   4.058   0.762  0.6559 -0.8484 -0.8744
 6445TIP3   OH240969   1.312   3.338   1.318 -0.1479 -0.4858 -0.0251
 6445TIP3    H140970   1.222   3.365   1.304 -0.7883 -1.2041  2.2291
 6445TIP3    H240971   1.354   3.414   1.358  0.7629  0.4111 -2.4796
 6446TIP3   OH240972   0.874   2.383   7.578 -0.0326  0.5009 -0.3564
 6446TIP3    H140973   0.780   2.361   7.582  0.5045 -1.9417  0.8221
 6446TIP3    H240974   0.918   2.300   7.595  2.3687  1.8790  0.5602
 6447TIP3   OH240975   3.998   6.862   8.423  0.2294  0.1543  0.1168
 6447TIP3    H140976   3.958   6.946   8.445  0.3548  0.3581 -0.4127
 6447TIP3    H240977   3.963   6.840   8.337 -0.0960 -0.5287  0.4064
 6448TIP3   OH240978   0.161   5.630   7.640  0.0486 -0.6475 -0.2233
 6448TIP3    H140979   0.115   5.547   7.630 -0.1922 -0.6928  1.0929
 6448TIP3    H240980   0.136   5.681   7.563  1.4064 -2.3199 -1.8970
 6449TIP3   OH240981   2.123   1.394   7.338 -0.0074  0.3589 -0.3192
 6449TIP3    H140982   2.153   1.313   7.298  1.1003  0.6615 -0.1228
 6449TIP3    H240983   2.037   1.372   7.375  0.3612 -0.7733 -0.1047
 6450TIP3   OH240984   5.953   2.899   1.465  0.0351  0.7674 -0.3734
 6450TIP3    H140985   5.980   2.819   1.511 -1.5422  0.0111 -0.6759
 6450TIP3    H240986   6.011   2.905   1.390 -0.0250 -0.2851 -0.5188
 6451TIP3   OH240987   1.147   6.709   7.619 -0.4609  0.5285 -0.6456
 6451TIP3    H140988   1.138   6.664   7.535  1.8515 -0.2480 -0.5624
 6451TIP3    H240989   1.182   6.642   7.678 -2.9929  0.7504  1.2858
 6452TIP3   OH240990   0.081   1.302   0.749  0.4894  0.3068  0.0712
 6452TIP3    H140991   0.161   1.263   0.715  1.6843  1.7013  1.1731
 6452TIP3    H240992   0.088   1.293   0.844 -0.7449  0.3498  0.1935
 6453TIP3   OH240993   2.287   2.961   8.154  0.3220 -0.0560 -0.2018
 6453TIP3    H140994   2.257   3.018   8.225  1.3488  2.5106 -1.6998
 6453TIP3    H240995   2.372   2.928   8.185  0.3409  0.3112  0.1526
 6454TIP3   OH240996   1.270   5.865   1.171 -0.1138  0.3602  0.7808
 6454TIP3    H140997   1.224   5.784   1.149  1.6468 -0.7528  1.0002
 6454TIP3    H240998   1.224   5.933   1.123 -0.1706 -1.1136 -1.3767
 6455TIP3   OH240999   3.214   2.395   0.784 -0.6844  0.6964 -0.0754
 6455TIP3    H141000   3.126   2.364   0.809 -0.3312 -0.2058  0.1105
 6455TIP3    H241001   3.256   2.317   0.748 -0.4677  1.4906 -1.5849
 6456TIP3   OH241002   0.473   0.477   7.491  0.1854  0.2978  0.1353
 6456TIP3    H141003   0.502   0.457   7.402  1.0398 -0.1584  0.5075
 6456TIP3    H241004   0.390   0.429   7.501  1.0211 -1.1961  0.2097
 6457TIP3   OH241005   5.179   6.101   7.121 -0.5809 -0.9739  0.1877
 6457TIP3    H141006   5.102   6.056   7.156 -0.2550 -0.0923  2.1740
 6457TIP3    H241007   5.252   6.070   7.174 -0.1450  0.8522  0.7336
 6458TIP3   OH241008   3.471   3.032   7.884 -0.4086 -0.2005  0.9445
 6458TIP3    H141009   3.490   2.957   7.939  0.3104 -0.2631  0.6197
 6458TIP3    H241010   3.377   3.049   7.897 -0.8396 -1.8325  0.1883
 6459TIP3   OH241011   4.643   6.925   1.041  0.3757 -0.0626  0.1437
 6459TIP3    H141012   4.633   7.016   1.012  0.4819 -0.3240 -0.7412
 6459TIP3    H241013   4.623   6.873   0.963 -2.4527 -0.9159  1.2976
 6460TIP3   OH241014   6.242   2.624   1.362 -0.4910 -0.9230  0.0166
 6460TIP3    H141015   6.303   2.553   1.342  1.8176  1.4877 -2.1535
 6460TIP3    H241016   6.157   2.581   1.370  0.3596 -3.7098 -3.5392
 6461TIP3   OH241017   6.868   3.713   0.619  0.4862 -0.2793  0.1297
 6461TIP3    H141018   6.947   3.662   0.639 -0.7275 -2.3637 -0.1268
 6461TIP3    H241019   6.804   3.647   0.593 -1.2653  1.3950  0.0721
 6462TIP3   OH241020   4.679   5.149   2.393 -0.5450 -0.0132 -0.0868
 6462TIP3    H141021   4.587   5.146   2.365 -0.1056  1.3101 -1.8571
 6462TIP3    H241022   4.722   5.203   2.327  1.4524 -0.2942  0.9189
 6463TIP3   OH241023   0.178   5.246   7.920 -0.3751 -0.2987 -0.0563
 6463TIP3    H141024   0.143   5.269   8.006  0.7823 -0.8535  0.5858
 6463TIP3    H241025   0.229   5.322   7.894 -0.9585 -0.0173 -0.3895
 6464TIP3   OH241026   3.852   5.055   8.211 -0.0969  0.1912 -0.4621
 6464TIP3    H141027   3.863   4.960   8.216 -0.1169  0.2278  3.5350
 6464TIP3    H241028   3.938   5.090   8.234  0.0201  1.2591 -2.2753
 6465TIP3   OH241029   5.289   4.318   8.567  0.0927  0.1182  0.4116
 6465TIP3    H141030   5.284   4.249   8.501  3.1627  0.7014 -0.5987
 6465TIP3    H241031   5.216   4.376   8.547  0.2919 -0.3051 -1.8228
 6466TIP3   OH241032   0.136   2.031   1.988  0.1018 -0.4767  0.1393
 6466TIP3    H141033   0.124   2.086   2.066  0.7673 -0.8352  0.5025
 6466TIP3    H241034   0.226   2.047   1.961 -0.0382 -0.5720 -0.3977
 6467TIP3   OH241035   5.229   2.939   1.491 -0.0435  0.0115  0.4814
 6467TIP3    H141036   5.181   2.891   1.424 -0.8397 -0.2810  1.2372
 6467TIP3    H241037   5.295   2.878   1.523 -0.1780 -0.1212  0.5061
 6468TIP3   OH241038   3.708   3.548   1.789  0.5306  0.1275 -0.7377
 6468TIP3    H141039   3.718   3.635   1.827  2.0635  0.3918 -1.6678
 6468TIP3    H241040   3.618   3.544   1.759 -0.8064 -0.0898  2.8372
 6469TIP3   OH241041   6.459   3.085   0.036 -0.6524 -0.5391  0.3387
 6469TIP3    H141042   6.393   3.040   0.088 -0.2517  0.1320  1.4566
 6469TIP3    H241043   6.421   3.170   0.016 -0.7392 -0.7324 -0.3426
 6470TIP3   OH241044   4.022   2.442   7.767 -0.0286  0.1808 -0.1670
 6470TIP3    H141045   3.942   2.466   7.814  0.3962 -0.7616  1.1139
 6470TIP3    H241046   4.019   2.493   7.686 -1.1376  1.3683  0.5803
 6471TIP3   OH241047   6.639   6.370   7.521 -0.2112  0.3487  0.5289
 6471TIP3    H141048   6.646   6.463   7.543 -0.7498  0.8984 -1.4157
 6471TIP3    H241049   6.671   6.364   7.432 -0.2287 -1.3473  0.6042
 6472TIP3   OH241050   1.393   4.735   0.454 -0.0479 -0.3375 -0.2722
 6472TIP3    H141051   1.348   4.818   0.440  1.6986  1.5405  3.8478
 6472TIP3    H241052   1.328   4.680   0.499 -0.0865  0.1818  0.3224
 6473TIP3   OH241053   3.240   1.231   8.249  0.9625 -0.2184 -0.0839
 6473TIP3    H141054   3.180   1.264   8.181  0.3480 -0.1135  0.4954
 6473TIP3    H241055   3.323   1.219   8.204  0.3110 -1.1171 -1.0954
 6474TIP3   OH241056   6.581   4.953   2.397 -0.1658  0.5009 -0.2773
 6474TIP3    H141057   6.543   4.871   2.368 -0.0242  0.4924 -0.4361
 6474TIP3    H241058   6.514   5.019   2.380  0.3752  0.6978 -1.7797
 6475TIP3   OH241059   1.954   2.842   1.281  0.3163  0.6269 -0.2122
 6475TIP3    H141060   1.935   2.921   1.230 -0.8102  1.1718  0.9922
 6475TIP3    H241061   1.999   2.873   1.358 -0.5384  0.1687  0.4973
 6476TIP3   OH241062   3.690   2.414   1.483 -0.2717 -0.6369  0.5153
 6476TIP3    H141063   3.626   2.348   1.511  0.3403 -1.0148  1.0554
 6476TIP3    H241064   3.742   2.369   1.416 -0.7072 -0.2574 -0.0870
 6477TIP3   OH241065   5.327   5.015   0.951 -0.0362  0.0672 -0.1406
 6477TIP3    H141066   5.405   4.990   1.000  0.3846 -0.1470 -0.9187
 6477TIP3    H241067   5.351   5.004   0.859 -0.9056  0.2165 -0.3942
 6478TIP3   OH241068   3.528   0.836   0.831 -0.2660  0.5797 -0.4468
 6478TIP3    H141069   3.586   0.801   0.898 -0.2890  1.3831  0.0104
 6478TIP3    H241070   3.456   0.876   0.881 -0.3394  1.0835 -0.9476
 6479TIP3   OH241071   6.378   0.500   2.484  0.5368  0.5710 -0.8489
 6479TIP3    H141072   6.454   0.461   2.440  0.1708 -1.3978  0.1348
 6479TIP3    H241073   6.404   0.509   2.575  0.0020  1.0033 -0.7327
 6480TIP3   OH241074   2.432   1.091   7.480  0.1555  0.1517  0.4045
 6480TIP3    H141075   2.412   1.142   7.558  1.0069  0.0033  0.7302
 6480TIP3    H241076   2.371   1.123   7.414  0.5596  1.4727  0.6486
 6481TIP3   OH241077   3.874   1.948   1.348 -0.2776  0.3182 -0.2564
 6481TIP3    H141078   3.952   1.970   1.297 -0.1510 -1.9767 -1.2120
 6481TIP3    H241079   3.810   1.919   1.283 -1.0229 -0.2374  0.6862
 6482TIP3   OH241080   0.247   5.895   2.807  0.3845  0.7062 -0.0471
 6482TIP3    H141081   0.212   5.973   2.849  0.1587  1.0999 -0.9416
 6482TIP3    H241082   0.342   5.906   2.809  0.3274  1.8248 -1.6337
 6483TIP3   OH241083   0.760   2.755   0.226  0.1290  0.1233 -0.0525
 6483TIP3    H141084   0.799   2.760   0.313  0.5269  0.7048 -0.2654
 6483TIP3    H241085   0.680   2.704   0.240  1.1576 -1.4860  0.3043
 6484TIP3   OH241086   6.113   1.560   0.957 -0.1112 -0.2447  0.5959
 6484TIP3    H141087   6.072   1.579   0.872 -0.0346 -1.7613  0.1911
 6484TIP3    H241088   6.146   1.645   0.987 -2.2855  0.7753  0.2765
 6485TIP3   OH241089   1.156   0.822   1.121  0.1767  0.2166 -0.4921
 6485TIP3    H141090   1.095   0.894   1.139  1.6219  0.8339  2.5213
 6485TIP3    H241091   1.099   0.747   1.103 -1.4133  1.4026 -0.6645
 6486TIP3   OH241092   0.796   0.182   7.940 -0.4113 -0.1292  0.4662
 6486TIP3    H141093   0.756   0.099   7.966 -1.6607 -0.5772 -2.5240
 6486TIP3    H241094   0.885   0.160   7.914 -0.6138 -0.4796  0.0622
 6487TIP3   OH241095   1.652   1.238   0.186 -0.1022 -0.0374  0.4187
 6487TIP3    H141096   1.738   1.224   0.226 -0.4967 -1.0182  0.9802
 6487TIP3    H241097   1.596   1.266   0.258 -0.0741  1.4786 -0.1121
 6488TIP3   OH241098   3.885   6.284   8.169 -0.3087  0.3007 -0.0892
 6488TIP3    H141099   3.830   6.338   8.226  0.1983 -0.2544  0.9634
 6488TIP3    H241100   3.881   6.197   8.208  0.5182  0.0342 -0.5731
 6489TIP3   OH241101   1.323   6.582   1.701  0.3135  0.6757  0.0617
 6489TIP3    H141102   1.393   6.581   1.636  1.0267  0.9431  0.8114
 6489TIP3    H241103   1.361   6.540   1.778 -0.4812  0.4733  0.3520
 6490TIP3   OH241104   0.404   2.102   6.986 -0.4048  0.1537  0.3161
 6490TIP3    H141105   0.386   2.131   6.897  0.2665 -1.1169 -0.2646
 6490TIP3    H241106   0.454   2.021   6.975 -2.5060 -1.4646  1.8102
 6491TIP3   OH241107   2.274   5.244   2.248 -0.2423  0.0665 -0.3312
 6491TIP3    H141108   2.363   5.278   2.261 -0.1765 -0.5444  0.9165
 6491TIP3    H241109   2.251   5.203   2.331 -1.1214 -1.1164 -1.1260
 6492TIP3   OH241110   5.507   2.608   7.315 -0.2189 -0.1873  0.4687
 6492TIP3    H141111   5.428   2.662   7.305  0.4740  1.0962  1.5555
 6492TIP3    H241112   5.507   2.551   7.239 -1.7387  0.3912 -0.0020
 6493TIP3   OH241113   6.738   4.069   1.524  0.6675 -0.1638 -0.5679
 6493TIP3    H141114   6.763   3.985   1.563  0.2124  0.1117  0.3456
 6493TIP3    H241115   6.820   4.115   1.509  1.0378 -1.3240 -2.4038
 6494TIP3   OH241116   0.415   4.710   0.094 -0.3450  0.7019  0.2365
 6494TIP3    H141117   0.417   4.667   0.180 -0.8338  0.4006  0.0996
 6494TIP3    H241118   0.329   4.752   0.090 -0.5628  0.2240 -0.3349
 6495TIP3   OH241119   4.214   0.805   8.172  0.1662 -0.4929 -0.4273
 6495TIP3    H141120   4.242   0.754   8.096  1.5336 -0.8025  0.2471
 6495TIP3    H241121   4.295   0.826   8.217 -0.2678  2.7325 -0.9188
 6496TIP3   OH241122   4.968   5.022   0.345 -0.0029  0.2827 -0.6273
 6496TIP3    H141123   4.875   5.010   0.326  0.1545 -1.5483 -0.4402
 6496TIP3    H241124   4.985   5.114   0.325 -2.1398  1.0316  0.6429
 6497TIP3   OH241125   1.422   3.525   0.649 -0.3809  0.4068 -0.2223
 6497TIP3    H141126   1.516   3.534   0.661 -0.4428 -0.5081  1.1420
 6497TIP3    H241127   1.388   3.613   0.668  0.2846  1.1947 -2.3397
 6498TIP3   OH241128   2.908   4.249   1.286  0.3123 -0.2009 -0.2525
 6498TIP3    H141129   2.958   4.270   1.207 -0.7276 -0.1592 -0.9166
 6498TIP3    H241130   2.917   4.327   1.341 -0.3527  0.4663 -1.0647
 6499TIP3   OH241131   6.194   4.458   6.568 -0.0129  0.6917 -0.3844
 6499TIP3    H141132   6.261   4.427   6.629 -0.7900 -0.5575 -0.1390
 6499TIP3    H241133   6.157   4.535   6.610 -0.5729 -0.1815  0.7606
 6500TIP3   OH241134   5.292   6.363   6.554  0.2322 -0.3014 -0.3211
 6500TIP3    H141135   5.370   6.312   6.531  0.5247 -0.2149  0.4611
 6500TIP3    H241136   5.234   6.352   6.479  0.6936 -0.9733 -0.5928
 6501TIP3   OH241137   5.008   4.755   0.310  0.4403 -0.1303 -0.5364
 6501TIP3    H141138   5.005   4.849   0.327 -2.1670 -0.3066  0.3854
 6501TIP3    H241139   4.921   4.734   0.275 -0.1164 -2.6580  2.0240
 6502TIP3   OH241140   0.667   6.021   1.195  0.1136  0.0357  0.2143
 6502TIP3    H141141   0.654   6.020   1.290  1.4955 -1.6379  0.4459
 6502TIP3    H241142   0.648   5.932   1.167  0.9829  0.1724 -0.8779
 6503TIP3   OH241143   3.994   6.716   1.436 -0.4910  0.4145  0.4721
 6503TIP3    H141144   4.033   6.792   1.393  3.1134 -1.9860 -1.0698
 6503TIP3    H241145   3.943   6.673   1.368  0.4182 -0.3197  0.2216
 6504TIP3   OH241146   1.003   2.281   1.104  0.4563 -0.3464  0.3709
 6504TIP3    H141147   0.994   2.329   1.187 -1.0047  0.5531 -0.2660
 6504TIP3    H241148   1.044   2.344   1.045 -0.2705 -0.3238 -0.1124
 6505TIP3   OH241149   4.634   3.817   2.345 -0.1490 -0.2322 -0.6444
 6505TIP3    H141150   4.718   3.771   2.341 -0.3369 -0.6469 -0.0313
 6505TIP3    H241151   4.569   3.751   2.324 -0.4359 -0.3120  0.4274
 6506TIP3   OH241152   3.743   3.104   8.381 -0.3435 -0.0747  0.1221
 6506TIP3    H141153   3.670   3.141   8.431 -0.6002  1.3158 -1.1994
 6506TIP3    H241154   3.806   3.176   8.373  0.5970 -0.8630  0.1186
 6507TIP3   OH241155   2.924   1.419   7.444  0.3603  0.0960  0.5290
 6507TIP3    H141156   2.957   1.508   7.430  1.3649 -0.4003 -0.3676
 6507TIP3    H241157   2.989   1.379   7.503  1.8537 -1.1057 -1.7876
 6508TIP3   OH241158   0.287   0.486   7.167  0.1628  0.2661  0.3712
 6508TIP3    H141159   0.238   0.481   7.249  0.9523 -0.7689  0.8044
 6508TIP3    H241160   0.374   0.454   7.189  0.6501  0.8172 -0.6822
 6509TIP3   OH241161   6.873   1.920   1.807 -0.4880  0.1323  0.1233
 6509TIP3    H141162   6.793   1.877   1.835 -0.6839  0.0673 -0.5181
 6509TIP3    H241163   6.927   1.925   1.886  0.0329 -2.3662  0.0060
 6510TIP3   OH241164   1.015   0.003   1.821  0.6646 -0.0932 -0.6165
 6510TIP3    H141165   1.058   0.057   1.888 -1.8310  1.8486 -0.4151
 6510TIP3    H241166   1.010  -0.084   1.860 -0.3734  0.8988  1.6426
 6511TIP3   OH241167   6.764   4.396   6.753 -0.2391  0.1702  0.1051
 6511TIP3    H141168   6.785   4.432   6.667  1.9809  1.8763  1.2483
 6511TIP3    H241169   6.792   4.465   6.815 -1.3383 -1.1653  2.2088
 6512TIP3   OH241170   5.621   3.493   7.372  0.1600 -0.6929  0.5466
 6512TIP3    H141171   5.634   3.575   7.325  1.2734 -0.3728  1.3878
 6512TIP3    H241172   5.558   3.514   7.441  1.1431 -0.2928  1.3440
 6513TIP3   OH241173   4.804   3.508   8.457  0.0966  0.3451  0.0332
 6513TIP3    H141174   4.751   3.456   8.396 -0.0090 -0.3036  0.6758
 6513TIP3    H241175   4.831   3.584   8.405 -0.4950  0.1043 -0.6465
 6514TIP3   OH241176   0.974   1.979   8.143 -0.1582  0.1053  0.2075
 6514TIP3    H141177   1.044   2.029   8.102 -0.3732 -1.0190 -1.6487
 6514TIP3    H241178   0.894   2.027   8.121 -0.2105 -0.0940 -0.0366
 6515TIP3   OH241179   4.503   0.360   1.891 -0.0037 -0.2458  0.0438
 6515TIP3    H141180   4.469   0.346   1.803 -2.9207  0.4018  0.9669
 6515TIP3    H241181   4.589   0.401   1.878 -1.4085  2.1232 -2.5160
 6516TIP3   OH241182   5.291   0.200   1.684  0.2844 -0.2041  0.2935
 6516TIP3    H141183   5.290   0.111   1.650 -0.2599 -0.0918  0.0106
 6516TIP3    H241184   5.368   0.203   1.741  0.6627 -0.6694 -0.1839
 6517TIP3   OH241185   0.957   3.330   1.029 -0.1536  0.2701 -0.2945
 6517TIP3    H141186   0.987   3.381   1.104  1.0983 -0.9873  0.0929
 6517TIP3    H241187   0.996   3.244   1.041 -2.5641 -0.9802 -0.6949
 6518TIP3   OH241188   2.293   1.314   2.891 -0.0736 -0.4564  0.0662
 6518TIP3    H141189   2.236   1.369   2.945 -0.2680  0.0498 -0.6340
 6518TIP3    H241190   2.246   1.231   2.884  1.3032 -1.6349  3.0961
 6519TIP3   OH241191   5.753   4.216   0.424  0.5730 -0.3651  0.2756
 6519TIP3    H141192   5.776   4.263   0.504  1.2247 -0.9997  0.4689
 6519TIP3    H241193   5.742   4.285   0.358 -1.0159  0.2587  1.1297
 6520TIP3   OH241194   4.054   3.606   2.672  0.6698  0.4826  0.0364
 6520TIP3    H141195   4.028   3.578   2.759  0.7488 -1.0826 -0.4254
 6520TIP3    H241196   4.105   3.533   2.637  0.4273  0.9780 -1.4238
 6521TIP3   OH241197   1.026   5.346   2.494 -0.0393 -0.0452  0.3132
 6521TIP3    H141198   0.983   5.270   2.532 -1.6113  0.6159 -0.0576
 6521TIP3    H241199   0.975   5.366   2.416  0.9410  0.7957 -0.1382
 6522TIP3   OH241200   2.481   6.394   8.444 -0.3532 -0.0443  0.3675
 6522TIP3    H141201   2.472   6.400   8.349 -0.7108  0.4048  0.4216
 6522TIP3    H241202   2.575   6.393   8.459 -0.2252 -2.7189 -0.1166
 6523TIP3   OH241203   4.873   1.485   1.574  0.2834 -0.1802 -0.3709
 6523TIP3    H141204   4.789   1.479   1.620  0.2014 -0.7380 -0.5805
 6523TIP3    H241205   4.938   1.459   1.639  0.4258  1.4171  0.1473
 6524TIP3   OH241206   0.369   6.257   2.288 -0.1209 -0.7672  0.4478
 6524TIP3    H141207   0.275   6.269   2.279  0.1441 -0.0408 -2.2377
 6524TIP3    H241208   0.397   6.330   2.344 -1.1698 -1.3208  1.7494
 6525TIP3   OH241209   2.217   6.733   0.499  0.0956 -0.5993 -0.3474
 6525TIP3    H141210   2.192   6.745   0.407 -0.2843 -1.3673 -0.3553
 6525TIP3    H241211   2.285   6.664   0.497 -1.8857 -2.7002  0.1498
 6526TIP3   OH241212   0.488   1.652   2.107  0.3656  0.0215 -0.2982
 6526TIP3    H141213   0.583   1.646   2.103  0.4010 -0.7779  1.1020
 6526TIP3    H241214   0.470   1.690   2.193 -0.5915 -0.4161 -0.2883
 6527TIP3   OH241215   6.428   6.300   0.624  0.0186  0.0315 -0.0601
 6527TIP3    H141216   6.428   6.254   0.540  0.5100  1.8494 -1.0978
 6527TIP3    H241217   6.441   6.392   0.601  0.4386  0.5362  2.0396
 6528TIP3   OH241218   1.067   2.627   0.487  0.7209  0.1828  0.1006
 6528TIP3    H141219   0.989   2.682   0.476 -0.3482 -1.2264  0.4008
 6528TIP3    H241220   1.127   2.658   0.419 -0.9573 -0.1499 -1.6155
 6529TIP3   OH241221   5.318   2.877   2.032  0.0602  0.3378  0.3284
 6529TIP3    H141222   5.309   2.962   1.987 -0.1575 -0.2432 -0.7602
 6529TIP3    H241223   5.234   2.834   2.017  0.1187 -0.0158  1.0125
 6530TIP3   OH241224   0.881   3.369   7.635 -0.4834  0.1265 -0.3660
 6530TIP3    H141225   0.818   3.437   7.657 -0.1582  0.9154 -1.8076
 6530TIP3    H241226   0.950   3.378   7.701 -0.9363  0.5193  0.0615
 6531TIP3   OH241227   3.552   2.933   6.731  0.4569  0.3199  0.3168
 6531TIP3    H141228   3.537   2.848   6.772  0.5161  0.1073 -0.0994
 6531TIP3    H241229   3.465   2.974   6.730  0.2250 -0.1615 -0.4196
 6532TIP3   OH241230   1.452   3.433   7.855  0.1204  0.2970  0.2472
 6532TIP3    H141231   1.438   3.522   7.886 -0.2409  0.7627 -1.1648
 6532TIP3    H241232   1.377   3.384   7.889 -0.8120  1.0224 -0.6830
 6533TIP3   OH241233   4.229   2.335   1.579 -0.1784 -0.4732  0.0062
 6533TIP3    H141234   4.165   2.406   1.566  1.4534  0.9408 -0.6536
 6533TIP3    H241235   4.205   2.297   1.664 -2.1239 -0.2706 -0.4095
 6534TIP3   OH241236   4.658   0.770   8.056  0.0196  0.3653  0.0669
 6534TIP3    H141237   4.585   0.777   7.994 -0.2470  0.0968  0.3492
 6534TIP3    H241238   4.726   0.828   8.020  0.0013 -0.0619 -0.6674
 6535TIP3   OH241239   0.395   4.691   2.564 -0.7146 -0.0087  0.0005
 6535TIP3    H141240   0.383   4.762   2.628 -3.6883  0.5683 -1.0430
 6535TIP3    H241241   0.424   4.735   2.484  1.7207 -0.5811  0.4906
 6536TIP3   OH241242   3.196   2.585   2.208  0.2420 -0.2469 -0.2456
 6536TIP3    H141243   3.104   2.607   2.196  0.4366  1.9729  1.7268
 6536TIP3    H241244   3.197   2.524   2.282  0.3499 -0.7364 -0.6390
 6537TIP3   OH241245   5.075   1.500   0.768 -0.5769 -0.3662 -0.2417
 6537TIP3    H141246   5.145   1.441   0.795 -0.1093  0.4869  0.4977
 6537TIP3    H241247   5.094   1.582   0.815 -1.4557  0.2221 -0.8787
 6538TIP3   OH241248   2.991   2.715   0.851  0.3371  0.3061 -0.1651
 6538TIP3    H141249   2.950   2.678   0.773 -0.2539  0.4370  0.0793
 6538TIP3    H241250   2.981   2.648   0.918 -0.9740  0.9673  0.3547
 6539TIP3   OH241251   2.520   0.341   7.984  0.0428  0.4711  0.1249
 6539TIP3    H141252   2.510   0.322   7.891  0.1197 -2.0015  0.5347
 6539TIP3    H241253   2.598   0.291   8.010 -0.5584  0.2946  1.7020
 6540TIP3   OH241254   5.914   5.055   0.906 -0.2531  0.1693 -0.0984
 6540TIP3    H141255   5.974   5.129   0.904 -1.0280  0.8077 -2.3017
 6540TIP3    H241256   5.947   4.999   0.977  1.3676  1.7418  0.4611
 6541TIP3   OH241257   5.249   3.719   0.079 -0.8489 -0.2445  0.3171
 6541TIP3    H141258   5.309   3.747   0.148 -0.9680 -0.3278  0.4571
 6541TIP3    H241259   5.289   3.749  -0.002 -1.1305  0.6042  0.4845
 6542TIP3   OH241260   5.460   3.559   7.617  1.1805  0.1565 -0.3937
 6542TIP3    H141261   5.543   3.606   7.622  2.1510 -1.2512 -2.1569
 6542TIP3    H241262   5.415   3.582   7.699  4.0297 -0.4039  1.5046
 6543TIP3   OH241263   1.082   3.688   0.140 -0.3158 -0.2892 -0.6662
 6543TIP3    H141264   0.999   3.677   0.094 -0.3935  1.8824 -1.1465
 6543TIP3    H241265   1.085   3.781   0.164  2.2515 -0.1417 -1.2332
 6544TIP3   OH241266   4.047   2.399   2.001  0.3521 -0.2437  0.1290
 6544TIP3    H141267   3.976   2.456   2.031  0.9955  0.1587  0.9299
 6544TIP3    H241268   4.059   2.422   1.908  1.3717  1.7883  0.7116
 6545TIP3   OH241269   0.139   0.098   8.544 -0.1699  0.1754  0.3070
 6545TIP3    H141270   0.097   0.164   8.599  1.0098  0.4424  0.9345
 6545TIP3    H241271   0.175   0.035   8.606  1.0749  0.4148 -0.1299
 6546TIP3   OH241272   3.624   6.523   1.022  0.1682  0.7514 -0.3021
 6546TIP3    H141273   3.649   6.615   1.023  2.2556  0.2831 -2.1662
 6546TIP3    H241274   3.656   6.489   1.106 -1.2720  1.7940  0.7345
 6547TIP3   OH241275   3.646   3.496   7.411  0.0318 -0.0919 -0.3377
 6547TIP3    H141276   3.658   3.585   7.378 -0.6734  0.6456  1.3090
 6547TIP3    H241277   3.703   3.490   7.487  0.2778 -1.1641 -0.5829
 6548TIP3   OH241278   4.998   1.890   2.127 -0.2627  0.2845 -0.2186
 6548TIP3    H141279   4.997   1.819   2.064 -0.3732 -1.7983  1.9753
 6548TIP3    H241280   4.933   1.865   2.193 -0.8139  2.7934  0.3049
 6549TIP3   OH241281   3.536   2.878   8.104  0.4695 -0.7483 -0.8486
 6549TIP3    H141282   3.620   2.903   8.141  0.3410 -2.1161  0.4900
 6549TIP3    H241283   3.528   2.784   8.123 -3.8040  0.1348  4.5824
 6550TIP3   OH241284   5.156   2.489   0.484  0.4955  0.0788 -0.4570
 6550TIP3    H141285   5.104   2.410   0.502 -0.2162  0.6024 -0.1794
 6550TIP3    H241286   5.097   2.544   0.433  0.7394  0.7405 -0.0267
 6551TIP3   OH241287   0.431   6.442   7.609  0.2939 -0.2784  0.2973
 6551TIP3    H141288   0.438   6.347   7.598  0.1667 -0.1554 -1.0712
 6551TIP3    H241289   0.369   6.454   7.680  0.9506 -1.2215  1.0618
 6552TIP3   OH241290   2.666   1.626   1.801  0.7965  0.3012  0.2492
 6552TIP3    H141291   2.635   1.700   1.749 -2.2275 -0.0703  1.3262
 6552TIP3    H241292   2.661   1.657   1.892  0.1954 -0.9852  0.6733
 6553TIP3   OH241293   2.022   6.138   0.156  0.2641 -0.0318  0.3517
 6553TIP3    H141294   2.046   6.142   0.248  0.8826  1.3782  0.1473
 6553TIP3    H241295   2.105   6.132   0.109 -0.0025  0.1118 -0.1454
 6554TIP3   OH241296   6.311   3.120   7.527 -0.8670  0.0052 -0.3681
 6554TIP3    H141297   6.238   3.173   7.495 -2.0161 -0.7417  0.9393
 6554TIP3    H241298   6.339   3.164   7.607 -1.0021 -0.6537  0.0447
 6555TIP3   OH241299   3.769   6.368   1.782  0.3279 -0.3509 -0.4163
 6555TIP3    H141300   3.713   6.403   1.852  0.8991 -0.2794  0.0154
 6555TIP3    H241301   3.813   6.446   1.746 -1.3291 -0.1376 -2.1131
 6556TIP3   OH241302   3.987   0.666   7.605 -0.4323 -0.3799 -0.4743
 6556TIP3    H141303   3.895   0.665   7.581 -0.6079 -0.3302  0.1697
 6556TIP3    H241304   3.996   0.598   7.672 -0.5012  1.1717  1.1833
 6557TIP3   OH241305   6.869   0.542   0.040 -0.6093 -0.7840  0.6477
 6557TIP3    H141306   6.776   0.520   0.038 -0.6699 -0.5168 -1.3049
 6557TIP3    H241307   6.875   0.625  -0.008  0.5633 -0.4796  1.2831
 6558TIP3   OH241308   3.537   2.429   2.364 -0.4370 -0.0172  0.8855
 6558TIP3    H141309   3.514   2.479   2.287  0.1577 -0.5233  0.3645
 6558TIP3    H241310   3.456   2.384   2.389 -0.8180  0.7171  1.0070
 6559TIP3   OH241311   6.763   3.586   6.226  0.0860  0.3474  0.0582
 6559TIP3    H141312   6.678   3.614   6.191 -0.3817  2.5104  2.6458
 6559TIP3    H241313   6.827   3.622   6.164 -0.7843  2.0032  0.0531
 6560TIP3   OH241314   6.757   4.368   1.427  0.3952  0.4334 -0.2431
 6560TIP3    H141315   6.698   4.427   1.380 -1.6130 -0.7530  0.6327
 6560TIP3    H241316   6.721   4.281   1.412  0.1415 -0.0806  2.7023
 6561TIP3   OH241317   2.114   0.877   1.309 -0.0199 -0.0099  0.1719
 6561TIP3    H141318   2.023   0.905   1.321  0.2786  0.1084  2.8411
 6561TIP3    H241319   2.109   0.805   1.246 -1.5526  1.8806 -2.0365
 6562TIP3   OH241320   3.639   4.117   0.495 -0.6362  0.1947  0.4135
 6562TIP3    H141321   3.572   4.084   0.557  1.2186 -0.8351  1.9927
 6562TIP3    H241322   3.634   4.212   0.504 -2.1367  0.1745  0.1871
 6563TIP3   OH241323   3.314   1.154   3.034  0.0617 -0.0905 -0.1891
 6563TIP3    H141324   3.409   1.150   3.044  0.3189  3.5682  0.1424
 6563TIP3    H241325   3.300   1.200   2.951 -1.2962  1.4384  0.8149
 6564TIP3   OH241326   4.809   6.255   1.976 -0.4327 -0.6336  0.3048
 6564TIP3    H141327   4.876   6.299   1.924  0.0956 -1.0410  0.6271
 6564TIP3    H241328   4.768   6.193   1.915 -1.0075  0.1108 -0.0820
 6565TIP3   OH241329   3.350   0.875   0.398 -0.1003 -0.7806 -0.2206
 6565TIP3    H141330   3.272   0.902   0.446 -1.5910  0.5095 -3.1179
 6565TIP3    H241331   3.325   0.794   0.354 -0.8939  0.9194 -3.2106
 6566TIP3   OH241332   3.527   4.928   8.042 -0.1787  0.7319 -0.6105
 6566TIP3    H141333   3.527   4.968   8.128 -0.9060  0.5435 -0.5172
 6566TIP3    H241334   3.564   4.841   8.056 -1.9524  0.0103 -0.1362
 6567TIP3   OH241335   0.836   2.104   0.593 -0.6529 -0.0133  0.5978
 6567TIP3    H141336   0.813   2.182   0.543  1.1252  0.2787  0.1806
 6567TIP3    H241337   0.752   2.066   0.618 -1.6720 -0.1347 -2.5395
 6568TIP3   OH241338   2.741   4.003   6.973  0.1672 -0.5714 -0.0186
 6568TIP3    H141339   2.745   4.054   6.892 -2.9520  0.6489  0.4627
 6568TIP3    H241340   2.726   3.913   6.945  0.1775 -0.3230 -0.8264
 6569TIP3   OH241341   5.946   1.445   6.836  0.0333  0.3240 -0.3182
 6569TIP3    H141342   6.041   1.458   6.832  0.2122  1.4648  3.4951
 6569TIP3    H241343   5.934   1.351   6.820  1.7419  0.2256 -1.2660
 6570TIP3   OH241344   0.686   6.066   8.311  0.0984  0.3084  0.6125
 6570TIP3    H141345   0.630   6.079   8.234 -0.1220 -0.2431  0.6757
 6570TIP3    H241346   0.775   6.072   8.277  0.0001  0.3379  0.3584
 6571TIP3   OH241347   1.724   4.483   7.895  0.5880  0.6729  0.2758
 6571TIP3    H141348   1.741   4.403   7.845 -0.5474  0.1372  0.7066
 6571TIP3    H241349   1.649   4.523   7.851 -1.3153 -0.4893  2.2298
 6572TIP3   OH241350   4.042   0.006   1.789 -0.1378  0.6518 -0.5372
 6572TIP3    H141351   3.946   0.013   1.790 -0.2787 -0.6852  1.2915
 6572TIP3    H241352   4.060  -0.072   1.841  1.8992 -0.2235 -2.4037
 6573TIP3   OH241353   6.185   6.246   7.997  0.1484  0.1975 -0.6731
 6573TIP3    H141354   6.117   6.295   8.044 -0.4079  1.0400 -2.2747
 6573TIP3    H241355   6.245   6.312   7.963  2.5615 -0.5897  1.7213
 6574TIP3   OH241356   4.878   3.179   7.772 -0.0596 -0.1424 -0.8065
 6574TIP3    H141357   4.886   3.259   7.824 -0.9325 -0.3519 -0.3351
 6574TIP3    H241358   4.925   3.199   7.691  0.1209  0.6871 -0.5100
 6575TIP3   OH241359   2.952   1.643   0.967 -0.0230 -0.3304 -0.1026
 6575TIP3    H141360   2.955   1.567   1.024 -1.4046 -0.2202  0.1563
 6575TIP3    H241361   2.917   1.713   1.022 -0.6763 -0.0395 -0.8668
 6576TIP3   OH241362   4.248   1.259   0.571 -0.0961 -0.0658 -0.2113
 6576TIP3    H141363   4.190   1.335   0.564 -0.9726 -0.7606 -0.7123
 6576TIP3    H241364   4.196   1.193   0.617  0.9599 -0.0886  1.0036
 6577TIP3   OH241365   4.993   2.164   1.484  0.2194 -0.3545  0.0295
 6577TIP3    H141366   5.073   2.148   1.433 -0.5078 -0.0666 -1.2645
 6577TIP3    H241367   5.022   2.216   1.559  1.3684 -0.9892  0.0470
 6578TIP3   OH241368   2.348   4.118   7.413 -0.2487 -0.2209 -0.5714
 6578TIP3    H141369   2.264   4.096   7.373  0.5745 -0.4426 -2.2239
 6578TIP3    H241370   2.358   4.212   7.397 -0.9775  0.2034  1.2100
 6579TIP3   OH241371   2.214   3.942   8.035 -0.1868 -0.1974  0.0813
 6579TIP3    H141372   2.232   3.990   8.116 -1.2507 -0.3765  0.4426
 6579TIP3    H241373   2.194   3.853   8.064  2.2916 -1.0729 -0.6163
 6580TIP3   OH241374   4.209   4.266   7.736  0.1717  0.3509  0.4301
 6580TIP3    H141375   4.282   4.209   7.712  0.7632  1.2204  0.1104
 6580TIP3    H241376   4.242   4.316   7.810 -0.4752  0.0198  0.9425
 6581TIP3   OH241377   5.399   0.031   7.437  0.0575 -0.0631 -0.6052
 6581TIP3    H141378   5.494   0.023   7.429  0.2596 -0.2898  1.3900
 6581TIP3    H241379   5.364  -0.041   7.385  0.9469  0.3436 -1.7875
 6582TIP3   OH241380   0.444   6.472   1.163  0.2642 -0.1028  0.1193
 6582TIP3    H141381   0.411   6.392   1.203 -1.0387 -0.2098 -1.0951
 6582TIP3    H241382   0.518   6.443   1.110 -0.2602 -0.5253 -0.3921
 6583TIP3   OH241383   3.752   5.042   1.653  0.1028 -0.0220  0.0516
 6583TIP3    H141384   3.829   5.045   1.597 -0.0558 -0.6556 -0.2074
 6583TIP3    H241385   3.782   4.998   1.733 -0.0503 -0.4805 -0.1440
 6584TIP3   OH241386   4.466   2.731   2.910 -0.0649  0.3259  0.1781
 6584TIP3    H141387   4.389   2.705   2.859 -1.0535  1.1916  1.1537
 6584TIP3    H241388   4.430   2.761   2.994  1.3149  1.0467  0.5486
 6585TIP3   OH241389   6.640   0.602   1.440  0.2495 -0.0178  0.0532
 6585TIP3    H141390   6.590   0.529   1.476  0.6443 -0.4699 -0.3064
 6585TIP3    H241391   6.589   0.680   1.463 -0.6240 -0.4700 -0.3028
 6586TIP3   OH241392   4.934   4.489   6.512  0.1361  0.0884  0.4536
 6586TIP3    H141393   4.983   4.569   6.494 -1.9089  1.1557 -0.7348
 6586TIP3    H241394   4.844   4.509   6.487 -0.6350 -2.3087  0.9706
 6587TIP3   OH241395   5.437   4.088   6.550  0.4579  0.3343 -0.1792
 6587TIP3    H141396   5.401   4.173   6.526 -0.3524 -0.3636 -1.5762
 6587TIP3    H241397   5.362   4.028   6.547  0.8791 -0.3337  1.4250
 6588TIP3   OH241398   1.046   2.425   1.848  0.2426 -0.4850 -0.2448
 6588TIP3    H141399   1.016   2.409   1.938 -0.6999 -0.5340 -0.5527
 6588TIP3    H241400   1.088   2.343   1.822  0.9898 -0.2912  0.3257
 6589TIP3   OH241401   1.349   4.299   2.728  0.5181  0.1210  0.0836
 6589TIP3    H141402   1.295   4.220   2.731  0.2564  0.1705 -2.1665
 6589TIP3    H241403   1.438   4.267   2.722  0.3398 -0.0939 -2.2144
 6590TIP3   OH241404   0.408   2.097   0.379  0.5905 -0.2966 -0.2676
 6590TIP3    H141405   0.396   2.165   0.445  3.4804 -0.2916  0.3979
 6590TIP3    H241406   0.439   2.021   0.428  0.3942 -1.1004 -1.3494
 6591TIP3   OH241407   3.100   6.694   0.790  0.5678  0.3672  0.6438
 6591TIP3    H141408   3.009   6.719   0.772 -0.0074  0.1013  2.8563
 6591TIP3    H241409   3.092   6.609   0.834  2.0093 -0.2947 -0.3160
 6592TIP3   OH241410   1.987   5.710   1.828 -0.7849  0.3363 -0.4904
 6592TIP3    H141411   2.070   5.715   1.781 -0.7785  0.9990 -0.4184
 6592TIP3    H241412   2.003   5.754   1.911 -0.8885 -0.5482  0.0130
 6593TIP3   OH241413   2.165   6.726   7.357 -0.4176  0.6321  0.1669
 6593TIP3    H141414   2.099   6.658   7.349 -0.1955  0.3656  0.5186
 6593TIP3    H241415   2.179   6.758   7.268 -0.3676  0.0640 -0.0302
 6594TIP3   OH241416   5.176   5.193   1.306  0.6251  0.2456 -0.2595
 6594TIP3    H141417   5.149   5.187   1.214  1.1578  1.4030 -0.5181
 6594TIP3    H241418   5.208   5.106   1.327  1.5712  0.2424 -1.5441
 6595TIP3   OH241419   3.834   3.472   7.595  0.6331 -0.1477 -0.2848
 6595TIP3    H141420   3.922   3.506   7.578  0.4286  0.5588  0.0728
 6595TIP3    H241421   3.849   3.392   7.645  1.0869 -0.2469 -0.5717
 6596TIP3   OH241422   4.649   5.273   7.656  0.3069  0.3316 -0.2203
 6596TIP3    H141423   4.573   5.317   7.695  0.6511 -0.9727  2.1129
 6596TIP3    H241424   4.613   5.194   7.616  0.4990 -1.2481  2.4598
 6597TIP3   OH241425   6.295   0.448   8.107 -0.2906 -0.3667  0.1062
 6597TIP3    H141426   6.263   0.375   8.159  0.3742 -1.2206 -0.6504
 6597TIP3    H241427   6.234   0.454   8.033 -1.4419  1.0675  1.1010
 6598TIP3   OH241428   4.854   1.392   1.844  0.0651 -0.1625  0.0995
 6598TIP3    H141429   4.849   1.321   1.908  1.8848  0.8166  1.4158
 6598TIP3    H241430   4.942   1.384   1.806 -0.7265 -0.2911 -1.8164
 6599TIP3   OH241431   5.388   5.484   0.372  0.8062  0.2022 -0.4517
 6599TIP3    H141432   5.314   5.540   0.391  0.8649  0.0251  0.3136
 6599TIP3    H241433   5.352   5.395   0.370  1.2247 -0.0402  1.3561
 6600TIP3   OH241434   0.207   3.401   0.464 -0.2855  0.0394  0.2994
 6600TIP3    H141435   0.175   3.345   0.393 -1.0532 -1.2930  1.6134
 6600TIP3    H241436   0.212   3.342   0.540 -1.4283  1.7993  1.8459
 6601TIP3   OH241437   4.377   4.591   1.742 -0.6719 -0.2027 -0.2424
 6601TIP3    H141438   4.389   4.496   1.742 -1.1123 -0.2964  1.4324
 6601TIP3    H241439   4.462   4.626   1.717  1.0094 -1.0002  3.5297
 6602TIP3   OH241440   4.390   0.903   0.665 -0.5164  0.1903  0.2436
 6602TIP3    H141441   4.434   0.968   0.720 -1.1122  0.8758 -0.0783
 6602TIP3    H241442   4.350   0.843   0.728  2.5087 -1.6677  0.5958
 6603TIP3   OH241443   4.327   4.746   8.196 -0.4850 -0.1781  0.2723
 6603TIP3    H141444   4.386   4.693   8.142  0.0739 -0.9046  1.5526
 6603TIP3    H241445   4.279   4.800   8.133  0.6991 -0.4230 -0.8881
 6604TIP3   OH241446   5.543   3.828   1.189  0.5766 -0.0361  0.0691
 6604TIP3    H141447   5.485   3.783   1.127 -1.6375  0.7572  1.4427
 6604TIP3    H241448   5.626   3.838   1.142 -0.7554 -0.1534 -2.4575
 6605TIP3   OH241449   1.854   4.712   0.866  0.1012 -0.3620 -0.2513
 6605TIP3    H141450   1.802   4.633   0.850  0.1292 -0.1238 -1.6686
 6605TIP3    H241451   1.868   4.713   0.961 -0.5181 -1.6609 -0.1229
 6606TIP3   OH241452   1.268   2.944   7.859 -0.0088  0.0583  0.2813
 6606TIP3    H141453   1.354   2.951   7.816 -0.3019 -1.6700 -0.6765
 6606TIP3    H241454   1.285   2.893   7.938  0.1273  1.2638  1.0543
 6607TIP3   OH241455   5.873   3.519   6.471 -0.1049 -0.0838 -0.1454
 6607TIP3    H141456   5.937   3.449   6.480  0.2189  0.2427  0.1547
 6607TIP3    H241457   5.885   3.552   6.382  0.4647  0.2738  0.0555
 6608TIP3   OH241458   0.854   1.208   1.405  0.2540  0.3870  0.0945
 6608TIP3    H141459   0.889   1.243   1.487  1.3008  0.3422 -0.3221
 6608TIP3    H241460   0.844   1.284   1.349  2.0657  0.1291 -0.6404
 6609TIP3   OH241461   2.417   1.394   1.821  0.0845  0.1219  0.5380
 6609TIP3    H141462   2.481   1.436   1.763 -0.3123 -1.4901 -1.1526
 6609TIP3    H241463   2.360   1.466   1.848  0.1303  0.9096 -1.3047
 6610TIP3   OH241464   1.011   3.975   2.328 -0.3436 -0.2756 -0.3245
 6610TIP3    H141465   1.079   4.037   2.303 -0.1815  0.1721  1.0874
 6610TIP3    H241466   0.987   3.930   2.247  1.2402 -0.0642 -0.9405
 6611TIP3   OH241467   1.244   4.912   7.714  0.0671  0.0123  0.3397
 6611TIP3    H141468   1.239   4.819   7.732  1.2496  0.2675  2.2222
 6611TIP3    H241469   1.328   4.924   7.670 -0.2203  0.1819 -0.1875
 6612TIP3   OH241470   5.084   5.044   0.596 -0.0195 -0.4549  0.4554
 6612TIP3    H141471   5.062   5.028   0.505 -1.0339  0.3251  0.5400
 6612TIP3    H241472   5.180   5.043   0.599  0.1016  1.7354 -1.0456
 6613TIP3   OH241473   3.301   6.558   7.243  0.3254  0.4524 -0.4569
 6613TIP3    H141474   3.260   6.595   7.164 -1.4071  0.7671  0.5253
 6613TIP3    H241475   3.229   6.513   7.288  1.4339 -0.3399  0.5870
 6614TIP3   OH241476   5.460   4.603   7.671  0.1372 -0.5807  0.4555
 6614TIP3    H141477   5.406   4.526   7.655 -1.0112  0.0802  1.0204
 6614TIP3    H241478   5.547   4.568   7.690 -0.6383 -1.8304  1.9324
 6615TIP3   OH241479   5.972   5.472   7.785 -0.2318 -0.0826  0.3940
 6615TIP3    H141480   6.045   5.476   7.723 -0.4907 -1.4794 -0.0503
 6615TIP3    H241481   5.899   5.511   7.739 -0.2640 -0.5438  0.0476
 6616TIP3   OH241482   1.360   5.876   8.378 -0.2841 -0.0066 -0.0004
 6616TIP3    H141483   1.292   5.868   8.445  0.3141  0.2372  0.6429
 6616TIP3    H241484   1.355   5.794   8.330  0.0964 -0.7310  1.1380
 6617TIP3   OH241485   1.027   3.176   1.406 -0.3164 -0.2134 -0.3425
 6617TIP3    H141486   1.042   3.258   1.360 -0.2771 -0.4644 -0.7760
 6617TIP3    H241487   1.044   3.197   1.498  0.0728  0.1687 -0.5001
 6618TIP3   OH241488   5.374   2.193   2.801 -0.4103  0.4634 -0.3398
 6618TIP3    H141489   5.401   2.197   2.709 -0.4671 -0.7727 -0.4331
 6618TIP3    H241490   5.393   2.280   2.836 -0.3871  0.9503 -1.5196
 6619TIP3   OH241491   4.335   2.825   0.209 -0.0476  0.2796 -0.1231
 6619TIP3    H141492   4.310   2.822   0.117  1.5253  0.2507 -0.5918
 6619TIP3    H241493   4.395   2.900   0.214  1.8223 -1.1564  0.3052
 6620TIP3   OH241494   3.306   5.476   1.248  0.3319 -0.3498  0.4370
 6620TIP3    H141495   3.326   5.549   1.306  0.5464  1.0634 -1.3106
 6620TIP3    H241496   3.389   5.456   1.205 -0.3176  0.4642 -1.3110
 6621TIP3   OH241497   6.713   5.246   7.009  0.2366  0.3665  0.0620
 6621TIP3    H141498   6.719   5.160   7.049 -1.0818 -0.7366 -1.9349
 6621TIP3    H241499   6.802   5.265   6.979  0.1003 -1.6172 -1.8785
 6622TIP3   OH241500   2.998   5.643   7.908 -0.6535  1.1873 -0.0378
 6622TIP3    H141501   2.946   5.605   7.979 -0.4554  0.2108 -0.3926
 6622TIP3    H241502   2.940   5.705   7.866 -1.0183  1.2323  0.5198
 6623TIP3   OH241503   5.524   4.705   5.562  0.1721  0.0067 -0.4768
 6623TIP3    H141504   5.610   4.683   5.527  0.2690  0.2460 -0.3958
 6623TIP3    H241505   5.527   4.800   5.574 -0.0072 -0.0183 -0.2183
 6624TIP3   OH241506   6.005   3.871   7.068 -0.1207  0.4604 -0.0597
 6624TIP3    H141507   5.921   3.849   7.029 -1.1760  1.9394  1.2243
 6624TIP3    H241508   6.036   3.946   7.018 -0.1768  0.6877  0.2424
 6625TIP3   OH241509   0.055   6.763   7.299 -0.0189 -0.3960  0.1691
 6625TIP3    H141510   0.134   6.724   7.336 -0.5524 -0.7467  0.9592
 6625TIP3    H241511   0.061   6.745   7.205  1.5646  0.8719 -0.0319
 6626TIP3   OH241512   2.766   5.938   1.675  0.4556  0.1919  0.4155
 6626TIP3    H141513   2.778   5.962   1.767  0.3303 -0.5978  0.6416
 6626TIP3    H241514   2.683   5.890   1.673 -1.3399  3.0389 -0.6563
 6627TIP3   OH241515   0.149   5.361   7.466 -0.9463 -0.0974  0.9689
 6627TIP3    H141516   0.139   5.291   7.401 -1.8940  0.2071  0.7641
 6627TIP3    H241517   0.218   5.417   7.431 -1.8594  0.3956 -0.0906
 6628TIP3   OH241518   5.529   2.423   7.088  0.0031  0.1734  0.1475
 6628TIP3    H141519   5.480   2.382   7.017  0.2461 -0.9755  0.6152
 6628TIP3    H241520   5.600   2.470   7.044  0.5237 -1.0352 -0.3578
 6629TIP3   OH241521   5.501   2.469   6.672 -0.0115 -0.6672 -0.9256
 6629TIP3    H141522   5.564   2.468   6.744  0.1143 -1.4195 -1.0375
 6629TIP3    H241523   5.543   2.521   6.604 -0.8056  1.4465  0.1114
 6630TIP3   OH241524   4.112   2.544   1.107  0.1910 -0.0292 -0.0350
 6630TIP3    H141525   4.105   2.511   1.017 -2.3466 -0.3397  0.2060
 6630TIP3    H241526   4.021   2.554   1.136  0.8778  2.8858  1.5025
 6631TIP3   OH241527   5.064   3.146   6.451  0.3050 -0.2525 -0.3509
 6631TIP3    H141528   5.126   3.218   6.444  0.3571 -0.4341 -2.1208
 6631TIP3    H241529   5.118   3.071   6.478  0.5135  0.0073 -0.0299
 6632TIP3   OH241530   6.598   1.587   7.960  0.5095  0.5293  0.2624
 6632TIP3    H141531   6.690   1.569   7.980 -0.4669 -2.8470  2.3911
 6632TIP3    H241532   6.564   1.628   8.040  0.1556  2.1122 -0.6493
 6633TIP3   OH241533   5.993   0.203   1.195 -0.5903 -0.0488 -0.4489
 6633TIP3    H141534   5.964   0.130   1.141  1.7134 -2.9066  1.7983
 6633TIP3    H241535   5.922   0.216   1.258 -0.8833 -0.6194 -0.6564
 6634TIP3   OH241536   6.557   5.729   0.595  0.4469  0.1029 -0.5532
 6634TIP3    H141537   6.651   5.739   0.588  0.4056  0.0094 -1.3104
 6634TIP3    H241538   6.529   5.698   0.509 -0.2100 -0.3636 -0.1853
 6635TIP3   OH241539   5.305   2.605   2.524  0.4238  0.0748  0.3693
 6635TIP3    H141540   5.339   2.678   2.575 -2.3431  1.7193  0.0846
 6635TIP3    H241541   5.211   2.623   2.517 -0.2325 -3.1078 -0.4432
 6636TIP3   OH241542   6.192   6.909   1.765  0.0036  0.0899 -0.2415
 6636TIP3    H141543   6.167   6.864   1.685 -0.3883  1.1899 -0.7490
 6636TIP3    H241544   6.123   6.886   1.828  0.1394 -0.5019 -0.2958
 6637TIP3   OH241545   0.567   4.250   2.161 -0.3786  0.5209 -0.3113
 6637TIP3    H141546   0.613   4.203   2.230 -1.7154 -1.4373 -0.6712
 6637TIP3    H241547   0.526   4.323   2.205  1.3186  1.1167  0.3714
 6638TIP3   OH241548   1.515   0.102   2.290  0.4183  0.0984 -0.3861
 6638TIP3    H141549   1.604   0.074   2.311  0.3164  0.2084  0.2095
 6638TIP3    H241550   1.483   0.142   2.370  0.2454  1.1376 -0.9522
 6639TIP3   OH241551   0.610   6.820   6.889  0.0092 -0.0927  0.3826
 6639TIP3    H141552   0.705   6.815   6.884 -0.1065 -1.4683 -3.0931
 6639TIP3    H241553   0.581   6.728   6.889 -1.3252  0.2997 -0.0648
 6640TIP3   OH241554   3.212   3.728   0.565 -0.7732  0.0835  0.0860
 6640TIP3    H141555   3.125   3.745   0.601 -0.2998  0.3943  1.1285
 6640TIP3    H241556   3.269   3.722   0.642 -0.0144 -0.9764 -0.5271
 6641TIP3   OH241557   4.933   2.558   7.421 -0.1998 -0.6162 -0.1607
 6641TIP3    H141558   4.874   2.607   7.364  0.8478  0.4623 -0.3616
 6641TIP3    H241559   5.012   2.545   7.369  0.3221 -0.6751  0.6189
 6642TIP3   OH241560   2.237   5.171   8.386 -0.6324  0.1572 -0.0387
 6642TIP3    H141561   2.279   5.228   8.322 -0.9935 -0.8391 -1.2199
 6642TIP3    H241562   2.162   5.220   8.418  0.5628  1.3857  1.0168
 6643TIP3   OH241563   1.108   4.511   7.557  0.5859  0.2600 -0.0589
 6643TIP3    H141564   1.053   4.590   7.555  1.1413  0.6868  0.7843
 6643TIP3    H241565   1.083   4.462   7.479 -1.3751  0.1767  0.5727
 6644TIP3   OH241566   3.023   5.962   0.828 -0.1537 -0.2116  0.1704
 6644TIP3    H141567   2.977   5.901   0.770  0.0163  0.0473 -0.2487
 6644TIP3    H241568   3.039   6.039   0.772 -0.7041  0.3691  0.7865
 6645TIP3   OH241569   3.808   2.151   7.492 -0.0960  0.0618 -0.1492
 6645TIP3    H141570   3.892   2.175   7.451 -0.2254 -0.6215 -0.8341
 6645TIP3    H241571   3.780   2.073   7.445 -1.7458  0.9847 -0.7876
 6646TIP3   OH241572   5.955   4.499   0.789  0.7157 -0.5967  0.0165
 6646TIP3    H141573   5.944   4.491   0.884  1.4406 -2.1512  0.0030
 6646TIP3    H241574   5.973   4.592   0.774  0.0205 -0.2227  1.3245
 6647TIP3   OH241575   3.547   3.451   1.266 -0.1188 -0.4842  0.3255
 6647TIP3    H141576   3.514   3.390   1.200  0.2076 -0.6318  0.2959
 6647TIP3    H241577   3.596   3.396   1.327 -0.4784 -0.3575  0.7320
 6648TIP3   OH241578   1.178   1.974   7.840  0.5031  0.3812 -0.0866
 6648TIP3    H141579   1.264   1.937   7.859  0.5969  0.5310 -0.2200
 6648TIP3    H241580   1.160   2.031   7.915  1.0394  1.2660 -0.6126
 6649TIP3   OH241581   5.320   6.530   1.006  0.5454 -0.3568 -0.4328
 6649TIP3    H141582   5.279   6.444   1.021  1.9908 -0.9141  0.5423
 6649TIP3    H241583   5.303   6.579   1.086  0.1809  0.1059 -0.7825
 6650TIP3   OH241584   3.045   0.656   1.670  0.1021  0.1789 -0.5482
 6650TIP3    H141585   3.061   0.712   1.746  0.2673 -0.6371  0.0313
 6650TIP3    H241586   2.977   0.700   1.621  0.0712  0.7727  0.0203
 6651TIP3   OH241587   2.321   5.174   0.486  0.2472  0.0775 -0.3648
 6651TIP3    H141588   2.313   5.267   0.466  0.3661 -0.0681 -1.1365
 6651TIP3    H241589   2.380   5.140   0.418  2.6230 -0.0154  1.6064
 6652TIP3   OH241590   6.479   4.059   2.095  0.0166 -0.7373 -0.5290
 6652TIP3    H141591   6.393   4.102   2.095 -0.5815 -1.8672 -0.6644
 6652TIP3    H241592   6.537   4.120   2.139 -0.8459  0.0896 -0.4993
 6653TIP3   OH241593   2.201   4.788   7.905  0.6371  0.3377 -0.0711
 6653TIP3    H141594   2.146   4.865   7.889 -0.2099  0.0615  1.2884
 6653TIP3    H241595   2.172   4.724   7.840 -0.1187  0.4789  0.1104
 6654TIP3   OH241596   5.624   5.005   8.288  0.0065 -0.6798 -0.6372
 6654TIP3    H141597   5.586   4.979   8.372 -0.5761  0.0744 -0.6612
 6654TIP3    H241598   5.715   4.973   8.293 -0.4319 -1.9419 -0.3359
 6655TIP3   OH241599   1.484   3.745   8.335  0.1920  0.2774  0.1764
 6655TIP3    H141600   1.512   3.701   8.415 -0.6770  0.5711  0.6605
 6655TIP3    H241601   1.388   3.745   8.340 -0.1179 -2.7510 -2.5016
 6656TIP3   OH241602   5.218   2.699   1.135 -0.3765  0.5933 -1.0076
 6656TIP3    H141603   5.306   2.678   1.167 -0.6144 -0.0654 -0.7753
 6656TIP3    H241604   5.225   2.693   1.039 -0.6290 -1.4112 -0.9375
 6657TIP3   OH241605   5.797   3.106   2.540 -0.7412 -0.1733  0.4011
 6657TIP3    H141606   5.856   3.168   2.583 -0.4069 -0.3607  0.2179
 6657TIP3    H241607   5.854   3.054   2.483 -1.5006  2.0571 -2.6504
 6658TIP3   OH241608   1.355   0.086   8.364 -0.8934 -0.2075  0.8707
 6658TIP3    H141609   1.334   0.108   8.455 -0.1849  1.3388  0.6754
 6658TIP3    H241610   1.451   0.084   8.361 -0.8843  0.8374 -0.0827
 6659TIP3   OH241611   3.507   0.385   0.486 -0.3422 -0.3602  0.2888
 6659TIP3    H141612   3.556   0.401   0.405 -1.2881  2.6867  0.1844
 6659TIP3    H241613   3.458   0.466   0.500 -1.8191 -1.5820  2.8302
 6660TIP3   OH241614   2.508   4.983   7.098 -0.4474 -0.1634 -0.0176
 6660TIP3    H141615   2.440   4.968   7.164  0.8777  1.3323  1.8377
 6660TIP3    H241616   2.481   5.064   7.054  0.0155  0.3775  0.6536
 6661TIP3   OH241617   6.521   4.810   0.923  0.2882  0.8330 -0.5650
 6661TIP3    H141618   6.489   4.756   0.850  1.1593  0.1195 -0.4445
 6661TIP3    H241619   6.556   4.888   0.881 -2.3057  2.0462 -0.6394
 6662TIP3   OH241620   4.305   3.520   1.571  0.3052 -0.2413  0.2634
 6662TIP3    H141621   4.381   3.574   1.594  0.5752 -0.8642  0.8759
 6662TIP3    H241622   4.327   3.482   1.486 -0.0405  0.8743 -0.3494
 6663TIP3   OH241623   6.326   6.326   1.714 -0.0729  0.6533  0.0066
 6663TIP3    H141624   6.389   6.331   1.786 -0.3000  2.3121  0.1343
 6663TIP3    H241625   6.380   6.312   1.637  0.0251 -3.9881  0.6566
 6664TIP3   OH241626   5.419   5.232   1.886 -0.2648 -0.7125 -0.1848
 6664TIP3    H141627   5.358   5.249   1.958  1.6069 -0.4628  1.4440
 6664TIP3    H241628   5.492   5.185   1.927  1.0906 -0.1435 -1.8089
 6665TIP3   OH241629   2.301   0.871   3.026  0.1603  0.0752 -0.6066
 6665TIP3    H141630   2.314   0.778   3.042  0.7535  0.4500  1.3766
 6665TIP3    H241631   2.377   0.913   3.065  0.4916  1.3465 -2.4917
 6666TIP3   OH241632   1.933   6.529   8.404  0.1429  0.0753 -0.1011
 6666TIP3    H141633   1.941   6.476   8.483 -0.8642  1.4316  0.9615
 6666TIP3    H241634   1.997   6.491   8.343 -1.4931 -3.2743  0.0177
 6667TIP3   OH241635   6.100   6.092   0.172 -0.4787  0.1097  0.2412
 6667TIP3    H141636   6.028   6.154   0.175 -0.8399 -0.2944 -0.0455
 6667TIP3    H241637   6.059   6.006   0.172 -0.0015 -0.1251  0.0376
 6668TIP3   OH241638   0.590   1.266   1.540 -0.2432  0.5729  0.2505
 6668TIP3    H141639   0.604   1.281   1.633  1.6069 -0.3932  0.1731
 6668TIP3    H241640   0.621   1.345   1.498  1.1422  0.1128  0.3521
 6669TIP3   OH241641   2.576   1.467   1.129  0.3592  0.0192  0.6780
 6669TIP3    H141642   2.524   1.444   1.206 -1.2089 -0.7934 -0.5623
 6669TIP3    H241643   2.553   1.558   1.110 -1.2758 -0.5538 -0.3013
 6670TIP3   OH241644   3.646   2.671   0.993  0.3896 -0.7927 -0.3545
 6670TIP3    H141645   3.699   2.707   1.064  1.0062 -0.9382 -0.7301
 6670TIP3    H241646   3.710   2.630   0.934  0.0204  0.2810 -1.5579
 6671TIP3   OH241647   2.420   0.772   1.440  0.7537 -0.6606 -0.2048
 6671TIP3    H141648   2.331   0.738   1.448  0.4808  0.3076  1.4158
 6671TIP3    H241649   2.428   0.797   1.348 -1.1042  0.3526 -0.1565
 6672TIP3   OH241650   6.894   1.632   1.737 -0.3088  0.1038  0.3801
 6672TIP3    H141651   6.811   1.584   1.734  0.5207 -1.5328  1.5076
 6672TIP3    H241652   6.877   1.705   1.797 -0.9839 -0.1123  0.4630
 6673TIP3   OH241653   1.991   0.477   7.686  0.2393 -0.4415  0.3555
 6673TIP3    H141654   2.063   0.414   7.690  0.4404 -0.2349  0.0176
 6673TIP3    H241655   1.949   0.459   7.602 -0.4566 -0.9407  0.7946
 6674TIP3   OH241656   2.376   2.990   0.572 -0.2483 -0.2527 -0.1674
 6674TIP3    H141657   2.352   2.899   0.552 -1.6281 -0.3033  1.5228
 6674TIP3    H241658   2.420   2.984   0.657 -0.5488  0.6876  0.0568
 6675TIP3   OH241659   0.655   3.856   2.794 -0.0300  0.0738  0.3936
 6675TIP3    H141660   0.734   3.820   2.835  1.3566  0.2945 -1.8564
 6675TIP3    H241661   0.647   3.806   2.712 -1.1692  1.2739 -0.2630
 6676TIP3   OH241662   3.171   5.393   0.649  0.3031  0.6079  0.1425
 6676TIP3    H141663   3.237   5.456   0.619 -0.2837  0.9245 -0.5376
 6676TIP3    H241664   3.108   5.389   0.576 -0.9452  1.0585  1.1507
 6677TIP3   OH241665   0.872   0.667   8.511  0.4164 -0.2212  0.2368
 6677TIP3    H141666   0.966   0.675   8.525  0.0800  0.1809  2.5405
 6677TIP3    H241667   0.842   0.756   8.497  0.3146 -0.3319 -0.3142
 6678TIP3   OH241668   5.159   6.640   7.323 -0.0476 -0.1118  0.0837
 6678TIP3    H141669   5.102   6.706   7.284 -1.3044 -0.7600  0.7556
 6678TIP3    H241670   5.234   6.690   7.357 -1.0884  1.0255  0.8077
 6679TIP3   OH241671   5.530   0.997   0.092  0.5395  0.5127  0.3731
 6679TIP3    H141672   5.583   0.981   0.014  0.9994 -1.3322  1.0240
 6679TIP3    H241673   5.451   1.040   0.059 -0.2857 -2.1756 -1.4753
 6680TIP3   OH241674   0.069   4.862   7.797 -0.2713 -0.0322 -0.2072
 6680TIP3    H141675   0.087   4.782   7.847  1.1391 -0.2925 -1.0686
 6680TIP3    H241676   0.113   4.847   7.713 -1.9644  0.6859 -1.2736
 6681TIP3   OH241677   1.936   0.011   1.064 -0.6565  0.1847  0.5878
 6681TIP3    H141678   1.844  -0.003   1.046 -0.9563  0.4748  1.7995
 6681TIP3    H241679   1.952   0.103   1.041 -0.4123 -0.1314 -0.5687
 6682TIP3   OH241680   2.223   3.152   0.749 -0.6438  0.2058 -0.2818
 6682TIP3    H141681   2.264   3.096   0.683 -2.1131 -2.0547  0.6236
 6682TIP3    H241682   2.218   3.238   0.707  3.2124  0.2034 -1.0998
 6683TIP3   OH241683   4.353   5.225   8.350  0.0977  0.4655  0.4262
 6683TIP3    H141684   4.359   5.150   8.291 -0.0330  0.8298 -0.0469
 6683TIP3    H241685   4.395   5.195   8.431  1.8549  0.5425 -0.4146
 6684TIP3   OH241686   0.546   3.331   2.397 -0.1868 -0.3177  0.1761
 6684TIP3    H141687   0.610   3.354   2.464 -0.1422  2.9728 -0.8506
 6684TIP3    H241688   0.553   3.400   2.332 -1.0519 -2.7255 -2.7084
 6685TIP3   OH241689   2.700   2.956   2.600  0.2499 -0.1128  0.0581
 6685TIP3    H141690   2.680   3.021   2.667  3.2022  0.3983  0.5390
 6685TIP3    H241691   2.755   3.003   2.537  0.6674 -1.5872 -0.7084
 6686TIP3   OH241692   3.941   3.296   8.365  0.0797 -0.2493  0.3676
 6686TIP3    H141693   4.008   3.228   8.373  0.9203  0.0788 -2.6673
 6686TIP3    H241694   3.989   3.375   8.341 -1.0999  0.9789  1.8061
 6687TIP3   OH241695   4.183   2.604   1.490 -0.4629  0.8131  0.0169
 6687TIP3    H141696   4.253   2.582   1.428 -1.2846 -0.8684 -0.3717
 6687TIP3    H241697   4.141   2.681   1.453  0.4099  1.1202 -0.3720
 6688TIP3   OH241698   3.229   0.582   8.188  0.4330  1.4485  0.2946
 6688TIP3    H141699   3.291   0.528   8.140  1.1205  1.3964  1.2006
 6688TIP3    H241700   3.148   0.533   8.188  1.0831  0.3179  1.2261
 6689TIP3   OH241701   6.904   4.817   8.465 -0.4541  0.3432  0.3122
 6689TIP3    H141702   6.906   4.752   8.535  1.4943  0.1542  0.1275
 6689TIP3    H241703   6.866   4.895   8.505 -2.2189 -0.6640  0.7150
 6690TIP3   OH241704   1.412   3.905   1.654  0.0352 -0.1784 -0.2938
 6690TIP3    H141705   1.484   3.854   1.615 -0.2833 -2.8383  2.2399
 6690TIP3    H241706   1.451   3.990   1.674  2.3405 -1.3068  0.3771
 6691TIP3   OH241707   4.035   3.511   0.273 -0.0808 -0.3209  0.0594
 6691TIP3    H141708   4.006   3.428   0.236  0.0825 -0.5421  0.4241
 6691TIP3    H241709   3.954   3.559   0.291 -0.1682 -0.2584 -0.4569
 6692TIP3   OH241710   6.236   0.622   8.346 -0.0476 -0.2633 -0.4317
 6692TIP3    H141711   6.211   0.710   8.316  1.9142  0.4662 -0.0947
 6692TIP3    H241712   6.238   0.569   8.267 -2.5738 -0.4197 -0.4791
 6693TIP3   OH241713   0.699   4.025   7.996  0.3907 -0.1691 -0.1289
 6693TIP3    H141714   0.678   4.059   7.909 -0.5192 -1.4476 -0.4257
 6693TIP3    H241715   0.728   4.103   8.045  0.8382  0.5795 -1.5274
 6694TIP3   OH241716   2.971   3.856   0.674  0.3592  0.5575 -0.0289
 6694TIP3    H141717   2.940   3.885   0.759  1.1009  2.4993 -0.3750
 6694TIP3    H241718   3.001   3.936   0.631  0.5733 -0.4668 -1.8746
 6695TIP3   OH241719   1.608   5.162   6.409 -0.4177 -0.5759  0.6726
 6695TIP3    H141720   1.693   5.154   6.365 -0.3338  0.3798  0.6500
 6695TIP3    H241721   1.582   5.253   6.395  0.2317  0.1924  3.6862
 6696TIP3   OH241722   3.495   0.180   8.316  0.5761 -0.6953 -0.6888
 6696TIP3    H141723   3.451   0.249   8.266 -0.4362 -0.4123  0.5521
 6696TIP3    H241724   3.426   0.139   8.367  1.3691 -1.8644 -0.5175
 6697TIP3   OH241725   6.794   0.592   2.496  0.1330 -0.1345  0.4312
 6697TIP3    H141726   6.884   0.618   2.517  0.4665  0.2371 -1.3167
 6697TIP3    H241727   6.750   0.586   2.581  1.9086 -0.7356  1.3572
 6698TIP3   OH241728   0.198   6.201   1.947  0.1552  0.0673  0.3575
 6698TIP3    H141729   0.171   6.291   1.930  0.9944  0.1689 -0.5480
 6698TIP3    H241730   0.293   6.207   1.957  0.1726 -0.6695  0.6995
 6699TIP3   OH241731   1.179   6.738   0.827 -0.0638 -0.1748  0.0623
 6699TIP3    H141732   1.258   6.721   0.776  0.2721 -0.5856  0.7049
 6699TIP3    H241733   1.196   6.821   0.872  0.7992 -1.1805  1.6774
 6700TIP3   OH241734   5.430   0.097   7.958  0.0039  0.1330  0.2477
 6700TIP3    H141735   5.471   0.031   7.902 -1.0059 -1.1037  0.9184
 6700TIP3    H241736   5.503   0.134   8.009  0.5720 -0.5188 -0.0792
 6701TIP3   OH241737   5.532   5.589   1.200  0.7624 -0.0905 -0.1727
 6701TIP3    H141738   5.490   5.629   1.277 -0.3117  2.6582 -2.0299
 6701TIP3    H241739   5.614   5.637   1.191  0.7970 -0.2736 -0.8406
 6702TIP3   OH241740   1.339   4.904   0.777 -0.7290 -0.4508  0.1380
 6702TIP3    H141741   1.354   4.914   0.683 -1.1175 -0.8988  0.0258
 6702TIP3    H241742   1.401   4.965   0.818 -0.5149 -0.3010 -0.4034
 6703TIP3   OH241743   6.359   3.574   1.212 -0.2114 -0.1601  0.2770
 6703TIP3    H141744   6.433   3.513   1.219  0.2737  0.3619 -0.2047
 6703TIP3    H241745   6.282   3.517   1.206  0.2848 -0.7515 -0.8385
 6704TIP3   OH241746   4.369   5.875   0.425  0.0668  0.0993 -0.3535
 6704TIP3    H141747   4.290   5.929   0.438  1.0296  1.4057  0.2678
 6704TIP3    H241748   4.405   5.863   0.512  0.6393 -0.3787 -0.6487
 6705TIP3   OH241749   0.130   4.312   8.070  0.5039 -0.3667 -0.1737
 6705TIP3    H141750   0.091   4.390   8.108 -1.0762 -1.0245 -0.3700
 6705TIP3    H241751   0.125   4.247   8.140 -0.3704 -0.9460 -0.7546
 6706TIP3   OH241752   0.401   0.689   2.045 -0.5763 -0.6736 -0.2613
 6706TIP3    H141753   0.402   0.742   1.965 -0.0696 -2.4065 -1.4565
 6706TIP3    H241754   0.341   0.735   2.103 -3.3816 -0.8962 -2.7424
 6707TIP3   OH241755   0.216   3.778   1.354 -0.1917 -0.1658 -0.2106
 6707TIP3    H141756   0.285   3.809   1.411  0.2333  0.1338 -0.8731
 6707TIP3    H241757   0.144   3.755   1.413  0.2987 -0.0410  0.4470
 6708TIP3   OH241758   2.468   2.937   0.211 -0.2502  0.3893 -0.5169
 6708TIP3    H141759   2.514   2.949   0.128  0.2050 -0.1600 -0.3487
 6708TIP3    H241760   2.442   2.845   0.211  0.6412  0.1234  0.3903
 6709TIP3   OH241761   1.705   1.889   1.061  0.3395  0.1695  0.1440
 6709TIP3    H141762   1.627   1.926   1.019  0.0604  0.2906  0.7556
 6709TIP3    H241763   1.767   1.961   1.062  0.4856  0.0546 -0.4032
 6710TIP3   OH241764   1.873   4.428   7.608 -0.2334  0.3065 -0.0641
 6710TIP3    H141765   1.786   4.389   7.619 -1.5375  2.9552 -0.1231
 6710TIP3    H241766   1.933   4.356   7.623 -2.2814 -0.9151  4.0520
 6711TIP3   OH241767   1.666   2.225   7.481  0.3325 -0.5009  0.1240
 6711TIP3    H141768   1.701   2.180   7.404 -1.0986 -1.0372 -0.2527
 6711TIP3    H241769   1.722   2.197   7.553  1.8142  0.1572 -0.7341
 6712TIP3   OH241770   4.562   3.471   6.824  0.2451  0.6914  0.0230
 6712TIP3    H141771   4.642   3.513   6.791  0.7147  0.7807  1.2546
 6712TIP3    H241772   4.590   3.421   6.900 -0.1467 -2.5664 -1.7833
 6713TIP3   OH241773   4.531   0.581   1.210 -0.6540 -0.0995  0.2840
 6713TIP3    H141774   4.612   0.629   1.195 -0.6518 -0.2953 -0.3472
 6713TIP3    H241775   4.508   0.546   1.124 -0.4738 -1.5126  0.7968
 6714TIP3   OH241776   3.549   1.228   1.737 -0.0559 -0.5580 -0.0484
 6714TIP3    H141777   3.642   1.246   1.751 -0.5721  2.3669  0.1877
 6714TIP3    H241778   3.539   1.221   1.642  0.4180 -1.2320 -0.0595
 6715TIP3   OH241779   3.470   2.870   7.409 -0.0639  0.1405  0.2676
 6715TIP3    H141780   3.446   2.865   7.316  0.2387  2.5955 -0.0036
 6715TIP3    H241781   3.560   2.901   7.408  0.2543 -0.7018  1.4088
 6716TIP3   OH241782   0.655   5.582   7.508 -0.0168 -0.1740 -0.1280
 6716TIP3    H141783   0.664   5.678   7.506 -0.3639 -0.1439 -1.2576
 6716TIP3    H241784   0.606   5.561   7.428 -0.5023 -1.2478  0.4271
 6717TIP3   OH241785   6.085   4.285   0.660  0.7510 -0.1094  0.7501
 6717TIP3    H141786   6.051   4.350   0.721  0.9607  1.0667 -0.3393
 6717TIP3    H241787   6.159   4.329   0.617  1.0250 -1.1406  0.1317
 6718TIP3   OH241788   3.065   4.034   1.473  0.4843  0.0304 -0.2309
 6718TIP3    H141789   3.084   4.012   1.382 -0.0861  0.0769 -0.3681
 6718TIP3    H241790   2.969   4.034   1.478  0.4685  1.5531 -0.0263
 6719TIP3   OH241791   3.049   5.214   2.311  0.2390 -0.2044 -0.8737
 6719TIP3    H141792   3.137   5.250   2.302  0.2959 -0.2864 -0.6607
 6719TIP3    H241793   3.064   5.123   2.336  0.1030 -0.5231 -1.8970
 6720TIP3   OH241794   5.102   2.047   1.839  0.5146 -0.2191 -0.1646
 6720TIP3    H141795   5.137   2.118   1.785  0.3745 -1.2199 -1.6142
 6720TIP3    H241796   5.146   1.968   1.807 -1.2653 -1.1587 -0.3900
 6721TIP3   OH241797   2.576   5.450   0.797  0.0928 -0.0679  0.1867
 6721TIP3    H141798   2.534   5.496   0.870 -1.5539  0.4976 -1.0422
 6721TIP3    H241799   2.502   5.416   0.745  1.2238 -2.4359 -0.0210
 6722TIP3   OH241800   0.623   3.992   7.630 -0.0509 -0.9464  0.0160
 6722TIP3    H141801   0.652   4.010   7.541  0.4797  0.2809  0.4143
 6722TIP3    H241802   0.587   4.075   7.661 -0.2294 -1.3536  0.9454
 6723TIP3   OH241803   6.740   4.897   1.279  0.1798 -0.3126 -0.3195
 6723TIP3    H141804   6.759   4.850   1.361 -0.8190 -0.5890 -0.2348
 6723TIP3    H241805   6.722   4.828   1.215  0.0554 -0.0808 -0.5361
 6724TIP3   OH241806   4.946   2.991   7.198  0.0306  0.4208  0.2335
 6724TIP3    H141807   4.881   2.966   7.263  1.3335 -1.0841  1.0226
 6724TIP3    H241808   5.029   2.960   7.234  1.1160  1.7026 -1.0364
 6725TIP3   OH241809   2.339   2.850   2.048  0.5011  0.0613 -0.0582
 6725TIP3    H141810   2.284   2.774   2.070  0.0911  0.0123 -1.1984
 6725TIP3    H241811   2.276   2.917   2.021  0.9401  0.3835 -0.2791
 6726TIP3   OH241812   4.402   2.383   0.470  0.1515 -0.0685  0.1667
 6726TIP3    H141813   4.362   2.333   0.399  1.5987 -1.3775  0.2196
 6726TIP3    H241814   4.488   2.407   0.437  0.5388 -0.0007  1.1748
 6727TIP3   OH241815   3.454   4.260   8.458  0.1900  0.3074  0.1606
 6727TIP3    H141816   3.361   4.273   8.442  0.3683  1.0107 -0.3746
 6727TIP3    H241817   3.464   4.165   8.467 -0.8628  0.3354  2.0864
 6728TIP3   OH241818   1.105   3.634   0.906 -0.2380 -0.0494 -0.0119
 6728TIP3    H141819   1.017   3.651   0.939 -0.3774  0.7252 -0.7589
 6728TIP3    H241820   1.093   3.565   0.841 -0.6231  1.4605 -1.6088
 6729TIP3   OH241821   2.177   3.337   1.814  0.1719 -0.0577  0.2693
 6729TIP3    H141822   2.226   3.306   1.890  1.5328 -1.3850 -1.0717
 6729TIP3    H241823   2.211   3.425   1.797 -0.2645  0.3170  1.2623
 6730TIP3   OH241824   6.315   6.785   6.474  0.6591 -0.2868  0.1355
 6730TIP3    H141825   6.283   6.836   6.400  1.5848 -0.5056 -0.4248
 6730TIP3    H241826   6.288   6.695   6.456  0.4031 -0.2534  0.3428
 6731TIP3   OH241827   2.290   4.408   1.846 -0.3672 -0.5202  0.3142
 6731TIP3    H141828   2.275   4.392   1.940  1.4299  1.6074  1.0373
 6731TIP3    H241829   2.223   4.470   1.821 -0.0523 -0.0809  0.5450
 6732TIP3   OH241830   0.860   6.339   8.457 -0.3713 -0.2036  0.8925
 6732TIP3    H141831   0.938   6.283   8.456 -0.8102 -1.0140 -2.5321
 6732TIP3    H241832   0.786   6.279   8.455 -0.8834  0.3775 -1.3391
 6733TIP3   OH241833   0.172   4.904   0.122 -0.0439 -0.1697  0.6629
 6733TIP3    H141834   0.213   4.955   0.052 -2.7246 -1.2620 -1.9044
 6733TIP3    H241835   0.080   4.930   0.119 -0.4499 -1.1167  3.0623
 6734TIP3   OH241836   3.768   3.417   1.027 -0.7482  0.1106  0.5865
 6734TIP3    H141837   3.727   3.367   1.098 -2.8671 -0.6575 -1.1034
 6734TIP3    H241838   3.764   3.360   0.951 -1.8001  2.1980 -1.0401
 6735TIP3   OH241839   3.471   5.871   1.671 -0.3342  0.1701 -0.0747
 6735TIP3    H141840   3.507   5.902   1.588  0.4644 -3.0319 -1.0728
 6735TIP3    H241841   3.548   5.839   1.720 -1.1204 -0.9490  0.4791
 6736TIP3   OH241842   1.239   4.888   0.185 -0.2069 -0.2461  0.4499
 6736TIP3    H141843   1.237   4.983   0.175  0.4502 -0.2843 -0.1916
 6736TIP3    H241844   1.177   4.869   0.255 -0.3030  0.6600  0.6194
 6737TIP3   OH241845   1.201   5.717   0.789  0.1574  0.1954  0.6856
 6737TIP3    H141846   1.201   5.624   0.769 -0.8263  0.1955  0.6694
 6737TIP3    H241847   1.187   5.721   0.884  1.4201  0.3023  0.8872
 6738TIP3   OH241848   3.775   6.266   0.438 -0.2608 -0.3734 -0.4322
 6738TIP3    H141849   3.709   6.273   0.369  0.0511  2.6795 -0.5325
 6738TIP3    H241850   3.837   6.336   0.420  0.2457  0.0697  2.4949
 6739TIP3   OH241851   6.069   3.167   2.140  0.0929  0.1323  0.5675
 6739TIP3    H141852   6.117   3.158   2.222  0.4067 -0.2859  0.3464
 6739TIP3    H241853   6.073   3.079   2.101  0.8553  0.5714 -0.3898
 6740TIP3   OH241854   1.112   0.796   0.521  0.2133  0.7462  0.1264
 6740TIP3    H141855   1.206   0.817   0.515 -0.1789  3.2782  1.5407
 6740TIP3    H241856   1.105   0.743   0.600  0.2872  1.8684  0.9020
 6741TIP3   OH241857   1.519   4.436   0.332  0.5358  0.0373  0.1134
 6741TIP3    H141858   1.450   4.385   0.374  2.3870 -0.3329  3.0317
 6741TIP3    H241859   1.598   4.383   0.342  1.8968  1.9595  0.2152
 6742TIP3   OH241860   3.702   4.393   0.584 -0.5838 -0.5598  0.3996
 6742TIP3    H141861   3.672   4.407   0.673  1.5379  2.0207  0.8359
 6742TIP3    H241862   3.644   4.446   0.530  0.8999  1.6976  0.8691
 6743TIP3   OH241863   1.138   0.143   0.245 -0.1165  0.2949  0.0314
 6743TIP3    H141864   1.133   0.224   0.195  0.2635 -0.1744 -0.7850
 6743TIP3    H241865   1.069   0.088   0.208  0.6253 -0.3160 -0.4789
 6744TIP3   OH241866   1.924   0.390   0.771 -0.7442  0.3205  0.2860
 6744TIP3    H141867   1.875   0.452   0.825 -1.0808  0.1462  0.1833
 6744TIP3    H241868   1.951   0.441   0.694 -1.2584  0.2761  0.0686
 6745TIP3   OH241869   2.692   3.106   7.357 -0.0181 -0.2839  0.0187
 6745TIP3    H141870   2.754   3.037   7.379  1.2250  0.5940 -0.6448
 6745TIP3    H241871   2.606   3.067   7.376  0.6538 -1.9229 -0.1141
 6746TIP3   OH241872   4.314   2.053   7.213  0.2994 -0.2888  0.1512
 6746TIP3    H141873   4.266   2.123   7.168 -0.6350 -1.6663 -1.0735
 6746TIP3    H241874   4.375   2.100   7.270 -0.0632  1.5297 -0.8516
 6747TIP3   OH241875   6.916   2.851   7.861 -0.0960 -0.1731 -0.0822
 6747TIP3    H141876   6.902   2.927   7.804 -0.7371  0.4828  0.9105
 6747TIP3    H241877   6.840   2.852   7.920  0.5983 -0.7691  0.8385
 6748TIP3   OH241878   4.115   5.321   7.374 -0.1146 -0.1528 -0.0118
 6748TIP3    H141879   4.209   5.302   7.381  0.2820  1.5505 -0.2731
 6748TIP3    H241880   4.074   5.234   7.368  1.4717 -0.9333 -0.3241
 6749TIP3   OH241881   3.973   6.251   0.221 -0.3060  0.0763  0.1612
 6749TIP3    H141882   4.005   6.319   0.281 -0.1838 -0.6323  0.9227
 6749TIP3    H241883   3.907   6.204   0.271  0.9169 -1.5472  0.3429
 6750TIP3   OH241884   2.349   5.565   1.878  0.5441 -0.2811  0.1172
 6750TIP3    H141885   2.335   5.607   1.962  0.5258  1.2681 -0.6162
 6750TIP3    H241886   2.383   5.478   1.899  0.3256 -0.0008  1.7043
 6751TIP3   OH241887   6.640   5.557   8.018  0.2751 -0.6450 -0.0554
 6751TIP3    H141888   6.730   5.523   8.022  0.3830 -0.2868  0.9991
 6751TIP3    H241889   6.620   5.581   8.109 -0.5849  0.0667 -0.4191
 6752TIP3   OH241890   2.609   4.423   6.553 -0.3216  0.3767 -0.1662
 6752TIP3    H141891   2.623   4.377   6.470 -1.2134  0.8372 -0.5833
 6752TIP3    H241892   2.567   4.505   6.528  1.5270  1.5844  0.5353
 6753TIP3   OH241893   3.014   0.935   0.657  0.2401  0.2050  0.1163
 6753TIP3    H141894   3.047   0.973   0.576  1.0497  0.3942  0.5140
 6753TIP3    H241895   2.929   0.898   0.635 -0.1614  1.4678 -0.4862
 6754TIP3   OH241896   5.938   2.372   8.110 -0.1868 -0.1823  0.3989
 6754TIP3    H141897   5.961   2.462   8.134 -0.5632 -0.1888  0.7920
 6754TIP3    H241898   5.851   2.359   8.147 -0.6580 -0.2983 -0.7270
 6755TIP3   OH241899   6.274   5.242   6.440  0.1392  0.2714 -0.1885
 6755TIP3    H141900   6.325   5.298   6.498 -0.4078  0.1501  0.4126
 6755TIP3    H241901   6.338   5.209   6.376  1.1062 -0.9326  1.3226
 6756TIP3   OH241902   0.548   4.772   8.230 -0.3465  0.3983 -0.4047
 6756TIP3    H141903   0.617   4.786   8.295  0.6219  0.6575 -1.4586
 6756TIP3    H241904   0.593   4.775   8.146 -1.6839  0.7677 -1.1371
 6757TIP3   OH241905   0.459   1.894   1.944 -0.4784  0.1762  0.2027
 6757TIP3    H141906   0.467   1.960   2.012  1.1619  0.6070 -0.3699
 6757TIP3    H241907   0.460   1.810   1.991  0.5176  0.4715  0.7224
 6758TIP3   OH241908   4.624   5.504   0.244 -0.0481  0.5722  0.0473
 6758TIP3    H141909   4.564   5.564   0.288  1.5973  3.1610 -1.0319
 6758TIP3    H241910   4.708   5.551   0.242  1.8174 -2.4267  0.5515
 6759TIP3   OH241911   6.351   1.036   1.454  0.3813 -0.0351 -0.5039
 6759TIP3    H141912   6.318   0.980   1.525  0.2504  0.2672 -0.3257
 6759TIP3    H241913   6.377   1.117   1.498  1.5533 -0.3317 -0.5986
 6760TIP3   OH241914   0.617   5.059   1.787  0.0631  0.4785  0.0615
 6760TIP3    H141915   0.628   5.138   1.840 -1.4606  0.1848  0.8733
 6760TIP3    H241916   0.642   4.988   1.845  2.4509  0.3559 -0.9963
 6761TIP3   OH241917   2.090   4.274   7.622 -0.0536  0.3883 -0.3833
 6761TIP3    H141918   2.087   4.178   7.626  1.7383  0.2499 -1.3153
 6761TIP3    H241919   2.183   4.296   7.625 -0.3142  1.9794 -2.0143
 6762TIP3   OH241920   1.954   5.138   8.139 -0.5013  0.2827  0.4761
 6762TIP3    H141921   2.049   5.133   8.127  0.0307 -0.0119  3.8294
 6762TIP3    H241922   1.926   5.046   8.140 -0.9745  0.3817 -1.0928
 6763TIP3   OH241923   3.814   0.495   1.452  0.0177  0.0286 -0.0078
 6763TIP3    H141924   3.767   0.452   1.523 -2.0693 -0.4075 -1.5441
 6763TIP3    H241925   3.793   0.588   1.462  3.2439  0.6480  2.3789
 6764TIP3   OH241926   6.230   5.508   7.725 -0.1137  0.0131 -0.0723
 6764TIP3    H141927   6.304   5.490   7.783 -0.5551 -0.7728  0.2565
 6764TIP3    H241928   6.199   5.595   7.751 -1.3664 -1.0065  2.0417
 6765TIP3   OH241929   3.416   3.735   0.365  0.5777 -0.3405 -0.3644
 6765TIP3    H141930   3.335   3.746   0.414  0.8087 -2.3121  0.5565
 6765TIP3    H241931   3.462   3.663   0.409  2.6684  0.4692 -1.0723
 6766TIP3   OH241932   0.457   4.211   0.808 -0.3082  0.5122 -0.6712
 6766TIP3    H141933   0.439   4.148   0.878 -0.4666 -0.6592 -1.7231
 6766TIP3    H241934   0.427   4.167   0.728  0.9726  1.3122 -1.6272
 6767TIP3   OH241935   0.237   5.742   0.869 -0.1072  0.0197 -0.2131
 6767TIP3    H141936   0.167   5.720   0.931 -0.1706 -0.6547 -0.5096
 6767TIP3    H241937   0.302   5.673   0.881  0.4802  0.6110  0.0157
 6768TIP3   OH241938   2.302   2.458   0.211  0.8056  0.3158 -0.2431
 6768TIP3    H141939   2.347   2.530   0.167 -0.5483  0.1434 -2.0215
 6768TIP3    H241940   2.219   2.497   0.242  0.6806 -0.1502  0.0255
 6769TIP3   OH241941   3.260   5.782   0.900 -0.5419 -0.6588  0.4650
 6769TIP3    H141942   3.211   5.865   0.907  0.6356  0.1319 -0.4394
 6769TIP3    H241943   3.191   5.715   0.896 -1.5668  0.3885 -0.3765
 6770TIP3   OH241944   6.346   0.450   8.507 -0.3009 -0.0876 -0.0377
 6770TIP3    H141945   6.413   0.516   8.524 -1.2281  1.4964 -2.1319
 6770TIP3    H241946   6.279   0.496   8.457 -1.2302 -2.5057 -1.1811
 6771TIP3   OH241947   4.490   1.310   1.661  0.1311  0.5269  0.1621
 6771TIP3    H141948   4.503   1.246   1.731 -1.1438  0.7838  0.6587
 6771TIP3    H241949   4.514   1.394   1.700  2.5155  0.3126 -0.7118
 6772TIP3   OH241950   6.862   4.610   0.083 -0.1120 -0.0219  0.4996
 6772TIP3    H141951   6.902   4.632   0.167 -2.3732 -2.3034  2.3287
 6772TIP3    H241952   6.779   4.658   0.083  0.5174  1.1500 -1.1924
 6773TIP3   OH241953   2.318   5.873   7.266 -0.1844 -0.0897 -0.1994
 6773TIP3    H141954   2.332   5.794   7.213  0.1038  0.5204 -1.0538
 6773TIP3    H241955   2.328   5.946   7.204 -0.2395  0.6293  0.6184
 6774TIP3   OH241956   1.910   6.397   0.087 -0.1151 -0.3503  0.2297
 6774TIP3    H141957   1.953   6.329   0.139 -0.1425 -0.1471  0.5175
 6774TIP3    H241958   1.826   6.357   0.061 -0.6859  0.0107  1.4356
 6775TIP3   OH241959   3.170   0.649   8.468  0.2025  0.0988 -0.3063
 6775TIP3    H141960   3.167   0.634   8.373 -1.0842  0.9913 -0.4263
 6775TIP3    H241961   3.224   0.727   8.478 -1.1524  1.0892 -0.4764
 6776TIP3   OH241962   6.865   0.676   7.349 -0.2932 -0.6001  0.5382
 6776TIP3    H141963   6.778   0.697   7.313  0.7094  1.8711 -0.6854
 6776TIP3    H241964   6.846   0.639   7.436 -2.5712 -0.8414  0.0220
 6777TIP3   OH241965   1.983   4.029   8.312 -0.1979  0.2581  0.3323
 6777TIP3    H141966   2.063   4.081   8.320 -0.2626  0.1418  1.9362
 6777TIP3    H241967   2.010   3.951   8.263  0.8436 -0.1149  1.4653
 6778TIP3   OH241968   3.570   1.452   7.502  0.3275 -0.2583  0.1449
 6778TIP3    H141969   3.566   1.477   7.410 -0.3981 -1.0697 -0.0625
 6778TIP3    H241970   3.652   1.490   7.534 -0.2539  1.5548 -0.3694
 6779TIP3   OH241971   3.529   5.114   1.493 -0.0158  0.6338 -0.2473
 6779TIP3    H141972   3.573   5.085   1.573  0.6250  2.7481  0.2130
 6779TIP3    H241973   3.440   5.079   1.501 -0.4676  2.1356  2.2131
 6780TIP3   OH241974   5.403   1.947   2.471  0.4296  0.2973  0.4863
 6780TIP3    H141975   5.321   1.901   2.453  1.5564 -0.7590 -2.6327
 6780TIP3    H241976   5.430   1.915   2.557 -0.4799 -2.4023 -0.1483
 6781TIP3   OH241977   6.886   4.082   2.357  0.0825  0.6425  0.2432
 6781TIP3    H141978   6.902   4.176   2.343 -0.9816  0.8739  0.4860
 6781TIP3    H241979   6.797   4.078   2.391  0.8749 -0.2886  2.3761
 6782TIP3   OH241980   4.962   2.239   6.720 -0.3137  0.3017 -0.0785
 6782TIP3    H141981   5.010   2.307   6.673  0.6630 -0.3439 -0.0340
 6782TIP3    H241982   5.012   2.159   6.704 -0.6331 -0.1438  1.0903
 6783TIP3   OH241983   5.041   2.053   0.024 -0.2343 -0.6230  0.2122
 6783TIP3    H141984   4.947   2.046   0.041 -0.2798 -1.0431 -0.2002
 6783TIP3    H241985   5.048   2.051  -0.071 -0.0600  2.5659  0.0489
 6784TIP3   OH241986   5.500   4.464   2.008  0.6383 -0.3814  0.3336
 6784TIP3    H141987   5.522   4.385   1.958  0.2463 -1.0092  1.1272
 6784TIP3    H241988   5.543   4.535   1.960  0.3375 -0.9596 -0.8552
 6785TIP3   OH241989   4.848   6.663   0.638 -0.0531 -0.1161 -0.2988
 6785TIP3    H141990   4.938   6.663   0.671  0.7623 -1.0221 -2.3199
 6785TIP3    H241991   4.858   6.671   0.543 -1.9864 -2.5365 -0.8162
 6786TIP3   OH241992   4.589   0.190   0.007  0.1220 -0.3381 -0.0825
 6786TIP3    H141993   4.551   0.103   0.010  0.3042 -0.3993  0.5703
 6786TIP3    H241994   4.562   0.225  -0.078  0.6546 -1.3017 -0.6689
 6787TIP3   OH241995   4.786   3.305   8.225 -0.0861  0.2214 -0.3916
 6787TIP3    H141996   4.865   3.264   8.260 -0.8282 -0.8596  0.0802
 6787TIP3    H241997   4.817   3.364   8.157  1.1467  0.0556  0.0037
 6788TIP3   OH241998   2.371   5.178   0.214  0.1398 -0.1827  0.0803
 6788TIP3    H141999   2.405   5.184   0.124 -1.4257 -0.3714 -0.5501
 6788TIP3    H242000   2.282   5.211   0.208 -0.5265 -1.6814  1.2600
 6789TIP3   OH242001   5.857   2.309   2.316 -0.6833  0.0014 -0.0859
 6789TIP3    H142002   5.769   2.281   2.290 -0.0480 -0.9709 -1.2907
 6789TIP3    H242003   5.842   2.374   2.385 -2.3686  0.5895 -0.9510
 6790TIP3   OH242004   4.363   6.091   7.665 -0.1971  0.7006  0.0162
 6790TIP3    H142005   4.347   6.095   7.759  2.1349 -0.0318  0.5186
 6790TIP3    H242006   4.398   6.004   7.650 -1.7705  0.3078 -1.8033
 6791TIP3   OH242007   5.211   1.361   7.153 -0.5134  0.0049 -0.7822
 6791TIP3    H142008   5.280   1.360   7.086 -0.8654  0.4121 -1.1605
 6791TIP3    H242009   5.226   1.442   7.202 -0.7872  0.1497 -0.9353
 6792TIP3   OH242010   1.095   2.781   1.091 -0.7532 -0.3109  0.6225
 6792TIP3    H142011   1.000   2.766   1.084 -0.4729 -1.5628 -0.9354
 6792TIP3    H242012   1.133   2.694   1.088  0.5819  0.2952 -1.1624
 6793TIP3   OH242013   4.629   3.844   0.500 -0.1473  0.0512 -0.0956
 6793TIP3    H142014   4.672   3.912   0.552 -0.6806  1.3032 -1.2560
 6793TIP3    H242015   4.566   3.804   0.561  0.6801  0.0796  0.8045
 6794TIP3   OH242016   2.736   0.415   6.910 -0.0048 -0.3724 -0.8059
 6794TIP3    H142017   2.708   0.506   6.924  3.1142  0.6834 -0.5779
 6794TIP3    H242018   2.831   0.418   6.922  0.1723 -3.7506 -0.5564
 6795TIP3   OH242019   6.457   2.555   6.468 -0.1318  0.1822 -0.5847
 6795TIP3    H142020   6.479   2.527   6.557 -0.1755 -0.7959 -0.8688
 6795TIP3    H242021   6.365   2.533   6.459 -0.1835  0.4874 -0.8035
 6796TIP3   OH242022   1.192   4.177   7.360  0.2841 -0.2384  0.6824
 6796TIP3    H142023   1.141   4.154   7.438  1.2041 -2.5428  0.6743
 6796TIP3    H242024   1.129   4.169   7.288 -0.4130  1.2891  1.0883
 6797TIP3   OH242025   5.300   5.416   2.064 -0.1551  0.4420  0.4775
 6797TIP3    H142026   5.231   5.359   2.098  0.5480 -1.3926 -0.9926
 6797TIP3    H242027   5.356   5.432   2.140 -1.7026  1.2991  1.4996
 6798TIP3   OH242028   1.615   0.870   0.060  0.3255  0.0607 -0.3638
 6798TIP3    H142029   1.670   0.892   0.135 -0.1576 -2.0542  0.6778
 6798TIP3    H242030   1.665   0.805   0.011 -1.0013 -1.6397  0.4122
 6799TIP3   OH242031   2.951   1.095   2.276  0.1414  0.4025 -0.7108
 6799TIP3    H142032   3.030   1.079   2.224 -0.1981 -2.3432 -0.5186
 6799TIP3    H242033   2.880   1.098   2.212  0.0609 -0.1068 -0.6477
 6800TIP3   OH242034   3.718   1.972   7.330 -0.5919 -0.1768  0.3388
 6800TIP3    H142035   3.628   2.001   7.325 -0.7053 -0.6609 -2.9730
 6800TIP3    H242036   3.714   1.877   7.319  0.3039 -0.1090 -0.9015
 6801TIP3   OH242037   2.170   0.295   8.332  0.2251  0.2315 -0.4080
 6801TIP3    H142038   2.151   0.210   8.373  1.5903 -0.4451 -1.0851
 6801TIP3    H242039   2.259   0.285   8.298  0.2680  1.8239 -0.8299
 6802TIP3   OH242040   2.761   0.020   0.320  0.1668 -0.6521 -0.3472
 6802TIP3    H142041   2.773  -0.045   0.250 -0.6355 -0.4476 -0.6916
 6802TIP3    H242042   2.667   0.020   0.336 -0.0568  1.3420 -1.2755
 6803TIP3   OH242043   4.842   1.247   8.124  0.2720 -0.6522 -0.5265
 6803TIP3    H142044   4.906   1.181   8.099  0.3094  0.0560 -2.5308
 6803TIP3    H242045   4.760   1.217   8.085  0.2655  0.3742 -1.3586
 6804TIP3   OH242046   2.660   0.226   1.900  0.3120  0.3594 -0.8010
 6804TIP3    H142047   2.606   0.194   1.972  2.0718 -1.4788 -0.1901
 6804TIP3    H242048   2.704   0.303   1.936  0.6120 -0.1077 -0.1304
 6805TIP3   OH242049   2.120   5.027   7.853 -0.4260  0.7668  0.1397
 6805TIP3    H142050   2.180   5.018   7.779  0.0635 -2.0410  0.7745
 6805TIP3    H242051   2.076   5.111   7.838  1.7834  1.7039 -1.7088
 6806TIP3   OH242052   4.570   1.634   0.332  0.4430 -0.4480  0.7066
 6806TIP3    H142053   4.633   1.605   0.266 -0.2769 -1.8183  0.5852
 6806TIP3    H242054   4.497   1.573   0.324 -0.7411  0.8756  1.1077
 6807TIP3   OH242055   2.226   3.546   1.342  0.5468 -0.8535  0.4874
 6807TIP3    H142056   2.177   3.489   1.401 -0.5968 -0.8733 -0.4483
 6807TIP3    H242057   2.272   3.607   1.400 -1.7574  0.1301  1.4080
 6808TIP3   OH242058   2.101   1.950   0.267  0.1765  0.1232 -0.1407
 6808TIP3    H142059   2.153   1.924   0.190 -0.2085  0.1375 -0.4071
 6808TIP3    H242060   2.145   2.027   0.301  0.3589  0.1071 -0.3379
 6809TIP3   OH242061   0.269   5.990   0.776  0.6986  0.2194 -0.2534
 6809TIP3    H142062   0.237   5.915   0.826 -1.4390  0.0074 -1.8253
 6809TIP3    H242063   0.357   6.006   0.811  0.0438 -1.0928  2.1885
 6810TIP3   OH242064   1.620   4.521   8.552  0.3967 -0.1163 -0.1376
 6810TIP3    H142065   1.586   4.557   8.633  0.4021 -0.2430 -0.0781
 6810TIP3    H242066   1.656   4.435   8.577 -0.7711 -0.7375 -0.5110
 6811TIP3   OH242067   6.305   0.544   7.406 -0.1150  0.5895  0.3514
 6811TIP3    H142068   6.239   0.508   7.347  1.8339 -0.2510 -1.5030
 6811TIP3    H242069   6.311   0.636   7.381  1.9232 -0.1037 -2.2364
 6812TIP3   OH242070   3.156   1.107   0.485 -0.2035  0.2071  0.2749
 6812TIP3    H142071   3.131   1.108   0.393  2.7472 -0.1871 -0.6489
 6812TIP3    H242072   3.211   1.185   0.496 -0.8501  0.4950  1.8511
 6813TIP3   OH242073   0.065   5.425   0.841 -0.2633  0.9560  0.4978
 6813TIP3    H142074   0.089   5.362   0.772 -0.1979  1.3461  0.1617
 6813TIP3    H242075   0.065   5.373   0.921  1.5421  0.8756  0.4943
 6814TIP3   OH242076   6.338   4.074   6.163  0.0067 -0.4577 -0.0163
 6814TIP3    H142077   6.265   4.133   6.147 -0.6417 -1.4298 -0.7128
 6814TIP3    H242078   6.340   4.064   6.258  0.6222  1.2729  0.1905
 6815TIP3   OH242079   2.082   4.667   8.165 -0.5020 -0.1157 -0.4657
 6815TIP3    H142080   2.150   4.674   8.098  0.2070  0.1360  0.2649
 6815TIP3    H242081   2.028   4.593   8.137  0.6176 -0.9091 -0.5811
 6816TIP3   OH242082   5.628   6.858   7.810  0.1487  0.0609  0.0660
 6816TIP3    H142083   5.663   6.922   7.748 -0.2671 -0.1819 -0.4245
 6816TIP3    H242084   5.556   6.816   7.763 -0.3121  0.0203  0.7930
 6817TIP3   OH242085   4.934   5.505   1.433 -0.5982 -0.1613 -0.2172
 6817TIP3    H142086   4.862   5.472   1.486 -0.2817  0.0944  0.3772
 6817TIP3    H242087   4.942   5.442   1.361 -1.8719  0.1740 -0.6954
 6818TIP3   OH242088   4.819   1.980   1.165  0.0814  0.6627  0.1913
 6818TIP3    H142089   4.773   1.971   1.248 -1.7270  1.6099 -0.6449
 6818TIP3    H242090   4.770   2.047   1.117 -0.5164 -1.6170 -2.6732
 6819TIP3   OH242091   6.481   6.222   2.011  0.2887 -0.4080 -0.0060
 6819TIP3    H142092   6.387   6.228   2.024  0.1384 -1.0598 -0.7866
 6819TIP3    H242093   6.513   6.311   2.028 -0.6542  0.1829 -1.2496
 6820TIP3   OH242094   4.090   5.393   0.107  0.0624 -0.0123 -0.3224
 6820TIP3    H142095   4.020   5.451   0.137 -0.2024 -0.6489  0.3286
 6820TIP3    H242096   4.105   5.418   0.016  0.6561  1.7556  0.2191
 6821TIP3   OH242097   4.289   4.534   7.236  0.2723  0.6223 -0.3401
 6821TIP3    H142098   4.292   4.445   7.201  0.1333 -0.2718  1.7628
 6821TIP3    H242099   4.357   4.581   7.188  1.4481 -1.0609 -0.4216
 6822TIP3   OH242100   4.619   2.862   1.121  0.1138 -0.4234 -0.3702
 6822TIP3    H142101   4.560   2.809   1.067 -0.1931 -0.4222 -0.0416
 6822TIP3    H242102   4.632   2.942   1.070  0.8869 -0.9654 -1.0424
 6823TIP3   OH242103   6.534   2.630   1.868 -0.1075  0.2634 -1.0719
 6823TIP3    H142104   6.553   2.639   1.775 -0.6021  1.5053 -1.0684
 6823TIP3    H242105   6.451   2.676   1.880 -0.3091 -0.3271 -0.1009
 6824TIP3   OH242106   2.693   5.562   0.161  0.1330  0.3642  0.2652
 6824TIP3    H142107   2.767   5.614   0.130  1.3598 -1.5072 -0.0876
 6824TIP3    H242108   2.722   5.527   0.245 -0.8752  0.6434  0.7452
 6825TIP3   OH242109   2.810   6.380   7.774 -0.2767 -0.0677 -0.0287
 6825TIP3    H142110   2.725   6.356   7.812 -1.4767  1.2570 -1.6777
 6825TIP3    H242111   2.834   6.305   7.721 -2.1720  0.7355 -2.2242
 6826TIP3   OH242112   4.955   5.886   0.237  0.1706 -0.1196  0.1031
 6826TIP3    H142113   5.002   5.922   0.313  0.2941 -1.7631  0.8342
 6826TIP3    H242114   4.909   5.962   0.201  0.7518  0.8751  1.3307
 6827TIP3   OH242115   2.159   1.913   8.243  0.1688  0.2111 -0.1677
 6827TIP3    H142116   2.167   1.821   8.267  0.5203  0.4709  0.7321
 6827TIP3    H242117   2.168   1.961   8.325  0.9350  1.1071 -0.7456
 6828TIP3   OH242118   3.926   5.375   0.666 -0.0722  0.2263  0.1408
 6828TIP3    H142119   3.911   5.317   0.592  0.6876  0.0095  0.1447
 6828TIP3    H242120   3.897   5.326   0.742 -2.2140  0.9964 -0.1253
 6829TIP3   OH242121   2.782   2.885   8.056 -0.0926  0.6950 -0.4551
 6829TIP3    H142122   2.694   2.922   8.055 -0.3272  0.2493  1.2290
 6829TIP3    H242123   2.769   2.793   8.030 -0.0352  0.7673 -0.7486
 6830TIP3   OH242124   3.708   6.723   1.381 -0.5644 -0.3076  0.1400
 6830TIP3    H142125   3.618   6.733   1.411 -1.2786  0.3994 -2.0343
 6830TIP3    H242126   3.762   6.745   1.457 -2.2168  1.9090  0.7720
 6831TIP3   OH242127   4.821   4.309   0.897 -0.0524  0.1306  0.0160
 6831TIP3    H142128   4.732   4.314   0.862  1.0469  0.3795 -3.0171
 6831TIP3    H242129   4.825   4.224   0.940 -2.3211  0.9809  2.1700
 6832TIP3   OH242130   6.522   1.365   8.111 -0.2483 -0.3106  0.6463
 6832TIP3    H142131   6.431   1.357   8.142 -0.1711  2.4736  1.8663
 6832TIP3    H242132   6.518   1.428   8.040  0.8548  0.9007  1.6057
 6833TIP3   OH242133   4.695   0.981   0.607  0.4496 -0.2584 -0.0003
 6833TIP3    H142134   4.683   1.075   0.620  0.7601 -0.0984 -0.8220
 6833TIP3    H242135   4.759   0.955   0.674  1.2239  0.3382 -0.4895
 6834TIP3   OH242136   6.071   2.747   8.393  0.1361 -0.3654 -0.2776
 6834TIP3    H142137   6.083   2.708   8.480  0.5810  0.7142  0.1605
 6834TIP3    H242138   6.090   2.840   8.405 -0.3972 -0.0906 -1.4094
 6835TIP3   OH242139   0.715   0.639   7.631  0.0785  0.1891  0.1577
 6835TIP3    H142140   0.751   0.618   7.545 -0.9535 -0.2922 -0.1748
 6835TIP3    H242141   0.791   0.655   7.686  0.8240 -1.2498 -0.4155
 6836TIP3   OH242142   0.385   5.803   7.428  0.4702  0.4750 -0.3176
 6836TIP3    H142143   0.330   5.816   7.505  0.8878 -0.0843  0.0709
 6836TIP3    H242144   0.411   5.892   7.403  2.3984  0.5455  1.6778
 6837TIP3   OH242145   5.249   1.840   8.434  0.0804 -0.7572 -0.5586
 6837TIP3    H142146   5.251   1.916   8.493  1.6160 -0.8506 -0.4405
 6837TIP3    H242147   5.160   1.807   8.440 -0.0426 -0.2228  1.0293
 6838TIP3   OH242148   0.495   3.562   8.025  0.4526  0.1891 -0.4979
 6838TIP3    H142149   0.585   3.549   8.054  0.8248  0.9820 -1.2598
 6838TIP3    H242150   0.488   3.656   8.007 -1.1610  0.5678  1.6298
 6839TIP3   OH242151   4.552   2.360   6.751  0.5586  0.3874  0.5419
 6839TIP3    H142152   4.589   2.289   6.698 -0.4880  0.2342 -0.0082
 6839TIP3    H242153   4.565   2.331   6.841  0.7977 -0.1691  0.3376
 6840TIP3   OH242154   0.454   0.488   1.316 -0.2782 -0.1892 -0.2893
 6840TIP3    H142155   0.528   0.503   1.375 -0.7578 -1.5951  0.7485
 6840TIP3    H242156   0.387   0.448   1.372 -1.3685 -0.0631 -1.4600
 6841TIP3   OH242157   1.839   2.110   1.063 -0.5545  0.0253  0.1466
 6841TIP3    H142158   1.932   2.093   1.049 -1.1192 -3.1944 -0.3197
 6841TIP3    H242159   1.808   2.144   0.980 -0.0690 -0.2997 -0.1703
 6842TIP3   OH242160   2.999   1.680   7.436  0.1914  0.2140  0.2636
 6842TIP3    H142161   2.938   1.752   7.421 -1.6353 -1.5771 -1.5030
 6842TIP3    H242162   3.072   1.697   7.377 -1.4420 -0.6223 -2.1237
 6843TIP3   OH242163   2.471   2.201   0.876 -0.7762 -0.2888  0.0230
 6843TIP3    H142164   2.399   2.147   0.843 -0.6171  0.1017 -1.0019
 6843TIP3    H242165   2.441   2.232   0.961 -0.9142 -1.8961  0.5971
 6844TIP3   OH242166   5.316   2.285   2.090  0.4767 -0.0094  0.1062
 6844TIP3    H142167   5.267   2.367   2.096  0.0380 -0.3139  0.8963
 6844TIP3    H242168   5.248   2.217   2.090  0.7905 -0.3599 -1.3494
 6845TIP3   OH242169   2.172   2.843   0.984  0.3154 -0.0102 -0.7468
 6845TIP3    H142170   2.113   2.880   1.049  1.2575 -0.5354  0.4459
 6845TIP3    H242171   2.260   2.864   1.015  0.7997 -0.4901 -1.7166
 6846TIP3   OH242172   5.227   6.257   0.971 -0.1953  0.1004  0.2670
 6846TIP3    H142173   5.224   6.244   1.066 -1.2896 -0.3350  0.1791
 6846TIP3    H242174   5.154   6.205   0.937  0.7464 -0.5171 -0.9069
 6847TIP3   OH242175   2.599   2.714   0.839 -0.6402 -0.1588 -0.2498
 6847TIP3    H142176   2.511   2.679   0.852  0.1783 -2.7906 -1.2316
 6847TIP3    H242177   2.658   2.640   0.853  1.3401  1.1272 -1.1462
 6848TIP3   OH242178   4.219   6.733   7.369  0.1470  0.2465  0.0090
 6848TIP3    H142179   4.222   6.647   7.412  1.1363  0.0957 -0.3239
 6848TIP3    H242180   4.199   6.712   7.278 -3.7238  0.6769  0.5962
 6849TIP3   OH242181   6.002   5.859   0.119 -0.0875  0.3476 -0.1885
 6849TIP3    H142182   6.004   5.856   0.023  1.4473  0.1578 -0.1743
 6849TIP3    H242183   5.927   5.804   0.143  0.0181 -0.3048 -1.2641
 6850TIP3   OH242184   3.827   4.567   1.003  0.4268 -0.1110  0.3460
 6850TIP3    H142185   3.735   4.588   1.018  0.7342  0.4657  1.4613
 6850TIP3    H242186   3.828   4.472   0.991 -0.1795 -0.2751  1.4647
 6851TIP3   OH242187   6.340   6.852   0.979 -0.1634  0.8884  0.8190
 6851TIP3    H142188   6.375   6.916   0.918 -0.5773  0.0185 -0.3800
 6851TIP3    H242189   6.249   6.841   0.952  0.1968 -1.0223  0.2445
 6852TIP3   OH242190   4.982   2.945   6.704 -0.1127 -0.3743  0.3763
 6852TIP3    H142191   5.008   3.002   6.776  1.0942 -1.4595  0.8264
 6852TIP3    H242192   5.062   2.935   6.651 -1.0285  0.6075 -1.2929
 6853TIP3   OH242193   0.504   0.895   7.443  0.0081 -0.1668  0.1954
 6853TIP3    H142194   0.580   0.888   7.385  0.2014 -0.1630  0.4485
 6853TIP3    H242195   0.448   0.959   7.401  0.1203 -0.2088 -0.0202
 6854TIP3   OH242196   5.766   5.472   8.471  0.3516  0.2713 -0.0764
 6854TIP3    H142197   5.747   5.559   8.507 -0.1656  0.6821 -1.3010
 6854TIP3    H242198   5.835   5.438   8.528  2.6698  2.6531 -1.2050
 6855TIP3   OH242199   5.902   0.944   1.158 -0.1119  0.4583 -0.4125
 6855TIP3    H142200   5.941   0.946   1.246  1.0225  0.0292 -0.8875
 6855TIP3    H242201   5.808   0.942   1.174  0.0772  0.4685  0.7971
 6856TIP3   OH242202   3.295   5.111   7.680  1.0660  0.0048 -0.3925
 6856TIP3    H142203   3.219   5.112   7.621  0.6526 -1.0459  0.0967
 6856TIP3    H242204   3.356   5.050   7.639  1.3609  0.3360 -0.4430
 6857TIP3   OH242205   3.041   4.052   0.487 -0.0609  0.3346 -0.2713
 6857TIP3    H142206   3.004   4.015   0.407 -1.7152 -2.4540  1.5983
 6857TIP3    H242207   3.135   4.056   0.470 -0.3051 -0.7497 -2.1581
 6858TIP3   OH242208   5.299   6.463   0.538  0.3900  0.0517 -0.3242
 6858TIP3    H142209   5.346   6.416   0.469  1.9759  1.1445 -0.0293
 6858TIP3    H242210   5.357   6.458   0.614  0.6786  2.5357 -0.3140
 6859TIP3   OH242211   5.678   6.397   7.689 -0.4678  0.0719  0.3031
 6859TIP3    H142212   5.743   6.402   7.759 -0.4738 -0.9597  0.4004
 6859TIP3    H242213   5.630   6.316   7.706 -1.1304  0.3139 -0.3316
 6860TIP3   OH242214   1.347   1.090   0.886  0.2142 -0.1924  0.0137
 6860TIP3    H142215   1.298   1.126   0.960 -0.0682 -2.8093  1.2159
 6860TIP3    H242216   1.326   0.996   0.886  0.2921 -0.3486 -3.3643
 6861TIP3   OH242217   2.835   3.313   6.813 -0.1185  0.0028 -0.4266
 6861TIP3    H142218   2.750   3.269   6.818 -0.0744 -0.1808 -1.1526
 6861TIP3    H242219   2.816   3.399   6.776 -0.2547  0.7744  1.3264
 6862TIP3   OH242220   2.976   4.162   6.837  0.4948 -0.1112  0.1843
 6862TIP3    H142221   2.951   4.085   6.786  1.2106 -0.1021 -0.1907
 6862TIP3    H242222   2.893   4.199   6.866  0.1569 -1.2699  0.7432
 6863TIP3   OH242223   2.784   2.630   2.030  0.1526 -0.1897  0.9582
 6863TIP3    H142224   2.710   2.687   2.008  1.3833  1.1547  0.0560
 6863TIP3    H242225   2.755   2.542   2.006 -1.0459  0.3544  0.3342
 6864TIP3   OH242226   4.876   0.413   0.647 -0.0364  0.1704  0.2355
 6864TIP3    H142227   4.789   0.440   0.676 -0.0055 -0.6617  1.1570
 6864TIP3    H242228   4.922   0.495   0.631 -0.4085  0.6621  1.5102
 6865TIP3   OH242229   4.320   2.782   0.761  0.1670 -0.5900  0.2739
 6865TIP3    H142230   4.337   2.712   0.698  1.4430  0.4033 -0.5430
 6865TIP3    H242231   4.366   2.754   0.840  1.3787 -0.3090 -0.3115
 6866TIP3   OH242232   4.995   5.674   7.295  0.3526  0.7662 -0.0359
 6866TIP3    H142233   4.905   5.651   7.272  0.2202 -1.2281  2.0498
 6866TIP3    H242234   4.991   5.766   7.320 -1.2423  0.6061  0.4403
 6867TIP3   OH242235   3.970   3.508   1.193  0.0188 -0.4253  0.0274
 6867TIP3    H142236   3.891   3.466   1.227  0.5535 -1.9604 -0.5408
 6867TIP3    H242237   3.974   3.481   1.102  0.4987  0.7373 -0.3126
 6868TIP3   OH242238   2.514   1.601   8.399  0.3913  0.2430 -0.3238
 6868TIP3    H142239   2.481   1.563   8.481  1.2910 -0.3041 -0.1935
 6868TIP3    H242240   2.570   1.532   8.363  0.6859  0.8141 -0.9628
 6869TIP3   OH242241   3.088   0.285   7.805  0.0851  0.3791 -0.3060
 6869TIP3    H142242   3.091   0.268   7.899 -1.7928  1.9932  0.1379
 6869TIP3    H242243   3.178   0.303   7.780  1.0808 -2.9105  0.5234
 6870TIP3   OH242244   3.042   5.203   0.929 -0.1538 -0.2654  0.7248
 6870TIP3    H142245   2.952   5.220   0.901  0.0777 -0.8811 -0.4244
 6870TIP3    H242246   3.061   5.275   0.990 -0.3652  1.6947 -1.3881
 6871TIP3   OH242247   0.352   4.746   7.885 -0.1233  0.8148  0.5391
 6871TIP3    H142248   0.335   4.836   7.911  1.2406  0.7296  1.8400
 6871TIP3    H242249   0.279   4.695   7.922 -1.1000  1.3983 -0.5233
 6872TIP3   OH242250   0.711   5.267   1.938 -0.2518 -0.2385  0.0626
 6872TIP3    H142251   0.717   5.357   1.972  0.3656 -0.0088 -0.6355
 6872TIP3    H242252   0.799   5.248   1.906 -1.0062 -0.1119 -2.2406
 6873TIP3   OH242253   2.950   2.149   1.405  0.1288 -0.2049  0.4859
 6873TIP3    H142254   2.939   2.077   1.467 -0.3020 -0.4531  0.1246
 6873TIP3    H242255   3.015   2.118   1.343  0.3395 -0.0702  0.6350
 6874TIP3   OH242256   4.474   5.058   1.046 -0.0475 -0.5010 -0.2291
 6874TIP3    H142257   4.455   4.999   0.973 -1.2392 -1.3688  0.7329
 6874TIP3    H242258   4.496   4.999   1.118 -0.1663  0.2958  0.4690
 6875TIP3   OH242259   0.298   4.517   7.122  0.1114  0.2797 -0.2078
 6875TIP3    H142260   0.303   4.606   7.156 -0.2271 -0.1640  1.0827
 6875TIP3    H242261   0.357   4.466   7.178  0.2743 -0.3177 -0.8996
 6876TIP3   OH242262   5.291   1.951   2.137 -0.2880 -0.3217 -0.1162
 6876TIP3    H142263   5.203   1.922   2.116  0.0329 -1.7456  0.4044
 6876TIP3    H242264   5.279   2.024   2.197 -1.1161 -0.6902  0.1717
 6877TIP3   OH242265   6.195   3.362   1.101 -0.3815 -0.1802  0.2737
 6877TIP3    H142266   6.272   3.308   1.114  0.4394  1.3320  2.3548
 6877TIP3    H242267   6.197   3.385   1.008  1.4912 -0.4738  0.1999
 6878TIP3   OH242268   5.093   3.601   6.448 -0.0903 -0.3099 -0.6418
 6878TIP3    H142269   5.043   3.661   6.503  0.5958 -0.5577  0.2884
 6878TIP3    H242270   5.051   3.605   6.362  0.5113  2.2587 -0.8891
 6879TIP3   OH242271   6.584   0.886   1.841  0.1906 -0.1147 -0.4970
 6879TIP3    H142272   6.575   0.894   1.746 -0.8800 -0.7833 -0.4681
 6879TIP3    H242273   6.526   0.814   1.864 -0.3345  0.6788  0.7845
 6880TIP3   OH242274   0.472   4.460   8.300  0.2831  0.0653 -0.4091
 6880TIP3    H142275   0.440   4.527   8.240 -1.4852  1.0219  1.4450
 6880TIP3    H242276   0.563   4.483   8.316  0.3467  0.6654 -1.5443
 6881TIP3   OH242277   0.205   6.317   0.479  0.4257 -0.1396  0.1073
 6881TIP3    H142278   0.233   6.241   0.428 -0.6906 -0.8576  0.5278
 6881TIP3    H242279   0.114   6.331   0.453  0.7180  1.2902 -0.2265
 6882TIP3   OH242280   0.005   1.457   0.997 -0.6387  0.3988 -0.1043
 6882TIP3    H142281  -0.055   1.452   0.922  1.5719 -1.9581 -1.8655
 6882TIP3    H242282   0.061   1.533   0.978 -0.2166 -0.0699 -0.7646
 6883TIP3   OH242283   0.972   3.074   2.013 -0.3044  0.1822 -0.2980
 6883TIP3    H142284   0.913   3.107   2.081  0.2101 -1.1409  0.8478
 6883TIP3    H242285   0.965   2.979   2.021  0.9969  0.0173 -1.0136
 6884TIP3   OH242286   2.274   3.505   0.894 -0.1531  0.1668  0.3812
 6884TIP3    H142287   2.327   3.561   0.951  0.0198 -0.2114  0.5932
 6884TIP3    H242288   2.197   3.483   0.947 -0.1633  0.1054  0.3417
 6885TIP3   OH242289   2.663   1.988   1.255 -0.1974  0.0155  0.3825
 6885TIP3    H142290   2.599   2.058   1.261 -1.3892 -0.8238 -1.3794
 6885TIP3    H242291   2.684   1.965   1.345 -0.8120  1.6927  0.9752
 6886TIP3   OH242292   6.263   2.268   7.737 -0.5321  0.5621 -0.5394
 6886TIP3    H142293   6.358   2.277   7.729 -0.5197  0.1839 -0.8397
 6886TIP3    H242294   6.236   2.348   7.781 -0.2922  1.5810 -2.1607
 6887TIP3   OH242295   6.350   1.323   0.954  0.3804 -0.1231 -0.5093
 6887TIP3    H142296   6.321   1.279   1.034  2.1749  0.9983  0.8499
 6887TIP3    H242297   6.277   1.313   0.893 -1.3289 -0.4764  1.4693
 6888TIP3   OH242298   4.346   2.314   3.111  0.0206  0.0347  0.8021
 6888TIP3    H142299   4.390   2.278   3.034 -0.0462  0.0364  0.7637
 6888TIP3    H242300   4.408   2.378   3.146 -1.1591  2.2724 -0.9700
 6889TIP3   OH242301   6.682   3.895   6.921 -0.1765 -0.2037  0.0716
 6889TIP3    H142302   6.747   3.942   6.868  1.5178 -0.6964  1.5881
 6889TIP3    H242303   6.659   3.819   6.868 -0.0838  0.3660 -0.8122
 6890TIP3   OH242304   3.039   1.311   0.226 -0.1909  0.3378  0.0076
 6890TIP3    H142305   2.987   1.248   0.177 -1.6327  3.1299 -2.3738
 6890TIP3    H242306   2.984   1.333   0.302 -0.9812  0.6989 -0.6428
 6891TIP3   OH242307   4.758   6.079   2.178 -0.2675 -0.0460 -0.3276
 6891TIP3    H142308   4.846   6.069   2.214 -0.0038 -0.1761 -0.9972
 6891TIP3    H242309   4.771   6.115   2.090 -0.8015 -1.3367 -0.9631
 6892TIP3   OH242310   6.011   3.233   2.619 -0.2246  0.5692  0.2031
 6892TIP3    H142311   6.038   3.286   2.543  1.3019  0.1479  0.4207
 6892TIP3    H242312   6.062   3.153   2.611 -3.0046 -1.2726 -0.5206
 6893TIP3   OH242313   0.856   3.443   0.374 -0.5488  0.0450  0.6138
 6893TIP3    H142314   0.770   3.484   0.382 -0.6363 -0.2925  1.5612
 6893TIP3    H242315   0.839   3.349   0.385 -0.1602 -0.1081 -0.0215
 6894TIP3   OH242316   1.693   0.218   0.744 -0.1572 -0.1461 -0.2521
 6894TIP3    H142317   1.768   0.247   0.692 -0.5664  2.3622  0.3969
 6894TIP3    H242318   1.667   0.135   0.705  2.0762 -0.3975 -1.3741
 6895TIP3   OH242319   2.106   1.076   2.312  0.8287  0.3819 -0.3360
 6895TIP3    H142320   2.181   1.125   2.277  1.9725 -1.6261 -0.8258
 6895TIP3    H242321   2.142   0.992   2.338 -1.5850 -1.5121 -2.5849
 6896TIP3   OH242322   5.701   0.265   6.865  0.5166 -0.3072 -0.2858
 6896TIP3    H142323   5.748   0.186   6.837  1.4508  0.7317 -1.8072
 6896TIP3    H242324   5.763   0.310   6.923  0.0567 -0.5921  0.4325
 6897TIP3   OH242325   6.802   0.147   2.588  0.1742  0.1322 -0.2453
 6897TIP3    H142326   6.752   0.224   2.614 -0.7221 -0.7428  0.7641
 6897TIP3    H242327   6.891   0.179   2.573 -0.0752  1.2873  0.6187
 6898TIP3   OH242328   2.483   5.253   8.109 -0.1391 -0.4684 -0.2418
 6898TIP3    H142329   2.462   5.302   8.189 -0.1535  0.8753 -1.0374
 6898TIP3    H242330   2.575   5.231   8.118 -0.1117 -0.2281  0.0902
 6899TIP3   OH242331   1.274   4.598   0.185 -0.3947 -0.0708  0.4067
 6899TIP3    H142332   1.255   4.679   0.138  1.6665 -0.1488 -0.6825
 6899TIP3    H242333   1.326   4.625   0.261 -2.8030 -0.0611  2.1791
 6900TIP3   OH242334   5.485   5.150   2.141  0.1630 -0.0093 -0.2094
 6900TIP3    H142335   5.490   5.239   2.176 -0.7305  0.0814 -0.2815
 6900TIP3    H242336   5.412   5.110   2.189  0.4577 -0.6516 -0.2927
 6901TIP3   OH242337   5.637   2.840   0.126  0.0173 -0.3702  0.2554
 6901TIP3    H142338   5.597   2.873   0.206 -2.1342 -0.2760 -0.7924
 6901TIP3    H242339   5.627   2.911   0.063  0.6746 -0.8497 -0.4027
 6902TIP3   OH242340   4.187   0.524   7.146  0.3463 -0.3010 -0.9731
 6902TIP3    H142341   4.169   0.587   7.076 -0.7135 -0.9705 -1.3306
 6902TIP3    H242342   4.101   0.498   7.178  0.8302  0.1899  0.7900
 6903TIP3   OH242343   0.590   1.190   1.865  0.1355  0.1380 -0.0721
 6903TIP3    H142344   0.601   1.215   1.957 -0.8152 -1.9181  0.6774
 6903TIP3    H242345   0.514   1.240   1.835 -1.7073 -1.6512  1.3624
 6904TIP3   OH242346   4.830   5.667   0.128 -0.4168  0.1692  0.4043
 6904TIP3    H142347   4.921   5.693   0.144 -0.0496 -1.7613  1.7626
 6904TIP3    H242348   4.778   5.743   0.154  0.6668  0.2384  2.5575
 6905TIP3   OH242349   1.866   3.223   1.434 -0.4261  0.9400  0.1442
 6905TIP3    H142350   1.799   3.173   1.387 -1.3711  2.0009  0.3397
 6905TIP3    H242351   1.888   3.167   1.509 -0.5337  0.2518 -0.3235
 6906TIP3   OH242352   4.721   0.355   0.197 -0.0406  0.0700  0.2712
 6906TIP3    H142353   4.711   0.327   0.288 -1.6544  0.9739  0.4175
 6906TIP3    H242354   4.664   0.295   0.148  1.1588 -0.6964 -0.2326
 6907TIP3   OH242355   3.027   1.544   7.880  0.5578 -0.0780 -0.0045
 6907TIP3    H142356   3.047   1.593   7.960  0.6569  0.0714 -0.1201
 6907TIP3    H242357   3.048   1.605   7.809  0.2022 -0.1105 -0.1396
 6908TIP3   OH242358   6.062   0.197   2.513  0.4112 -0.4067 -0.6362
 6908TIP3    H142359   6.120   0.160   2.580 -0.4464  0.5869  0.7074
 6908TIP3    H242360   6.007   0.259   2.561 -2.4937 -2.0315 -1.6221
 6909TIP3   OH242361   0.617   4.639   7.907  0.3797 -0.2373  0.0191
 6909TIP3    H142362   0.673   4.677   7.975  2.8230  0.2075 -2.0921
 6909TIP3    H242363   0.567   4.712   7.873  0.4722 -0.1160  0.1430
 6910TIP3   OH242364   3.805   4.173   2.050 -0.9058  0.7829 -0.0062
 6910TIP3    H142365   3.834   4.196   1.962 -1.5682 -0.6942 -0.6396
 6910TIP3    H242366   3.785   4.257   2.091 -1.7918  1.4474 -1.7024
 6911TIP3   OH242367   5.145   4.914   7.719 -0.0859 -0.0644 -0.7563
 6911TIP3    H142368   5.054   4.939   7.733  0.3084  1.5183 -0.8019
 6911TIP3    H242369   5.147   4.881   7.629 -0.7550 -0.8912 -0.4790
 6912TIP3   OH242370   4.247   5.610   7.188  0.5097 -0.2073  0.2248
 6912TIP3    H142371   4.232   5.527   7.143 -0.9876 -0.2949  0.8088
 6912TIP3    H242372   4.237   5.589   7.281  2.0728  0.2571  0.5229
 6913TIP3   OH242373   0.151   1.418   1.685  0.3788 -0.1728 -0.4537
 6913TIP3    H142374   0.073   1.467   1.712  0.4473 -0.1992 -0.2076
 6913TIP3    H242375   0.179   1.461   1.604 -0.8034 -1.1384 -1.4015
 6914TIP3   OH242376   3.913   4.789   8.224  0.1732 -0.3041  0.1992
 6914TIP3    H142377   3.954   4.731   8.160 -0.3351 -0.2186 -0.2028
 6914TIP3    H242378   3.945   4.757   8.309  0.8949 -0.3781 -0.0913
 6915TIP3   OH242379   1.832   2.955   7.777 -0.3085  0.2818  0.3506
 6915TIP3    H142380   1.878   3.006   7.844 -0.8893  0.9625  0.2494
 6915TIP3    H242381   1.901   2.905   7.733  0.2364  0.7424  0.6677
 6916TIP3   OH242382   0.778   2.989   2.455 -0.3660 -0.0376 -0.4798
 6916TIP3    H142383   0.728   3.026   2.528 -1.7152 -1.3281 -0.7071
 6916TIP3    H242384   0.780   2.895   2.472 -0.4848 -0.3290 -1.9603
 6917TIP3   OH242385   3.633   2.627   2.054 -0.6282 -0.3003  0.2818
 6917TIP3    H142386   3.702   2.572   2.090 -1.2023  0.2268  2.3638
 6917TIP3    H242387   3.678   2.685   1.992  0.6112 -0.6948  0.7790
 6918TIP3   OH242388   2.152   5.354   0.244 -0.1861 -0.5876 -0.0909
 6918TIP3    H142389   2.174   5.440   0.280  0.4818  0.3106 -2.4765
 6918TIP3    H242390   2.063   5.336   0.277  0.0664  0.5101  1.2760
 6919TIP3   OH242391   2.115   3.983   7.042 -0.2163 -0.3583 -0.0520
 6919TIP3    H142392   2.081   4.065   7.005 -0.3772  0.1731  1.2025
 6919TIP3    H242393   2.050   3.917   7.018  0.3688 -0.3249 -1.8614
 6920TIP3   OH242394   1.403   1.170   0.649 -0.1871  0.8292  0.5952
 6920TIP3    H142395   1.386   1.134   0.736  0.2044 -0.2658  0.2248
 6920TIP3    H242396   1.428   1.261   0.666  0.1831  0.5448  1.6537
 6921TIP3   OH242397   4.942   5.196   1.963 -0.1888 -0.1973  0.0720
 6921TIP3    H142398   5.010   5.216   1.898 -0.3570 -1.0324 -0.3745
 6921TIP3    H242399   4.969   5.245   2.041 -0.6737  1.8494 -0.9982
 6922TIP3   OH242400   3.581   6.560   0.366 -0.4156 -0.2060 -0.2198
 6922TIP3    H142401   3.626   6.642   0.388  0.4485 -0.6529 -0.2758
 6922TIP3    H242402   3.604   6.544   0.274  0.1179 -0.9430  0.0317
 6923TIP3   OH242403   4.525   0.262   7.366  0.0411  0.0264  0.6056
 6923TIP3    H142404   4.518   0.355   7.388  0.3154  0.0816  0.4639
 6923TIP3    H242405   4.470   0.251   7.288 -0.3905 -0.0330  0.9125
 6924TIP3   OH242406   3.568   3.215   8.546 -0.3058 -0.1176  0.1629
 6924TIP3    H142407   3.598   3.298   8.583 -0.5068  0.3860 -0.8025
 6924TIP3    H242408   3.477   3.207   8.575 -0.5036  0.3404 -0.3251
 6925TIP3   OH242409   3.857   3.097   1.762  0.0057  0.1409 -0.5690
 6925TIP3    H142410   3.863   3.003   1.751 -0.4179 -0.1544  1.3197
 6925TIP3    H242411   3.763   3.115   1.772  0.0871  0.7401 -0.8197
 6926TIP3   OH242412   5.875   5.996   0.517 -0.0219 -0.5141  0.9061
 6926TIP3    H142413   5.970   6.003   0.531  0.1077 -1.1998  0.4074
 6926TIP3    H242414   5.847   6.086   0.498  0.9953 -0.6516 -1.7046
 6927TIP3   OH242415   5.674   3.504   1.428 -0.1974  0.2587 -0.4360
 6927TIP3    H142416   5.581   3.489   1.414 -0.1559  0.8975 -1.5765
 6927TIP3    H242417   5.706   3.423   1.469 -0.7233 -1.1340 -2.6094
 6928TIP3   OH242418   6.165   1.154   0.238  0.5286 -0.4223  0.1241
 6928TIP3    H142419   6.237   1.145   0.177  0.6601 -2.4539  0.5084
 6928TIP3    H242420   6.091   1.111   0.195 -0.2499  0.9243  0.0710
 6929TIP3   OH242421   4.825   1.824   2.347  0.3316  0.1675 -0.1110
 6929TIP3    H142422   4.806   1.730   2.347  1.2042 -0.0274  0.9767
 6929TIP3    H242423   4.746   1.864   2.383  0.8743 -0.3992  1.8456
 6930TIP3   OH242424   0.730   5.900   0.542  0.0141 -0.2680  0.1374
 6930TIP3    H142425   0.733   5.852   0.625  0.0634 -1.8233 -0.7138
 6930TIP3    H242426   0.638   5.923   0.531  0.2961  1.7287  1.5523
 6931TIP3   OH242427   1.892   1.878   1.289  0.4210  0.4335 -0.7117
 6931TIP3    H142428   1.809   1.860   1.244 -0.4756  1.3666  0.5194
 6931TIP3    H242429   1.915   1.795   1.330 -0.6612  0.4972  0.0945
 6932TIP3   OH242430   4.091   2.522   7.500 -0.4780  0.0835 -0.4115
 6932TIP3    H142431   4.105   2.503   7.407 -1.6893 -0.0959 -0.5714
 6932TIP3    H242432   4.167   2.574   7.525 -0.1043  0.0850 -1.4899
 6933TIP3   OH242433   2.735   0.731   0.266  0.5990 -0.3452  0.2912
 6933TIP3    H142434   2.825   0.698   0.269 -0.5374 -4.1004 -0.5688
 6933TIP3    H242435   2.691   0.686   0.338 -0.7334  0.9913  0.3605
 6934TIP3   OH242436   4.341   3.545   6.505 -0.0304 -0.7783 -0.0719
 6934TIP3    H142437   4.271   3.553   6.441  2.2609  0.8809 -2.6270
 6934TIP3    H242438   4.345   3.452   6.526 -0.5319 -1.4905 -2.8428
 6935TIP3   OH242439   1.825   5.778   7.705 -0.2445 -0.7577  0.2048
 6935TIP3    H142440   1.902   5.834   7.712  0.2489 -1.4900  0.8168
 6935TIP3    H242441   1.859   5.695   7.672 -0.6376 -1.3265  1.1781
 6936TIP3   OH242442   5.552   0.683   7.893  0.0058  0.0300  0.4344
 6936TIP3    H142443   5.551   0.605   7.948 -0.0230  0.5997  1.2707
 6936TIP3    H242444   5.561   0.650   7.804 -0.1561 -0.9290  0.7604
 6937TIP3   OH242445   3.029   4.624   7.283 -0.0708  0.4600  0.7038
 6937TIP3    H142446   3.120   4.608   7.310  0.5157  0.4765 -1.1522
 6937TIP3    H242447   2.987   4.538   7.289  0.8021 -0.1379 -0.9582
 6938TIP3   OH242448   5.495   0.970   8.350 -0.6087  0.2003 -0.0082
 6938TIP3    H142449   5.550   0.895   8.372  0.0860  0.8945  0.7135
 6938TIP3    H242450   5.407   0.946   8.378 -0.5706 -0.7036 -0.6470
 6939TIP3   OH242451   2.305   5.761   0.108  0.2321 -0.1607 -0.3787
 6939TIP3    H142452   2.372   5.829   0.117  0.3677 -0.4198  0.7438
 6939TIP3    H242453   2.352   5.685   0.074  0.6135 -0.4506  0.7293
 6940TIP3   OH242454   5.631   5.139   6.293 -0.6372 -0.1154 -0.5719
 6940TIP3    H142455   5.719   5.176   6.294 -1.7148  3.0651 -3.0496
 6940TIP3    H242456   5.642   5.050   6.260  1.6771  0.0537 -0.3899
 6941TIP3   OH242457   3.118   4.131   8.078  0.4070 -0.1454  0.3215
 6941TIP3    H142458   3.152   4.219   8.060 -0.2107 -0.1885 -1.2437
 6941TIP3    H242459   3.191   4.073   8.058  0.5448 -0.0395  0.5119
 6942TIP3   OH242460   0.187   3.179   7.705 -0.4440 -0.0665 -0.3048
 6942TIP3    H142461   0.282   3.167   7.704 -0.4309  0.0350 -0.3755
 6942TIP3    H242462   0.175   3.270   7.734 -0.4412  0.5816 -2.1523
 6943TIP3   OH242463   3.771   1.671   7.536  0.2768  0.5713 -0.3867
 6943TIP3    H142464   3.819   1.595   7.503 -1.3172 -0.4519 -0.4733
 6943TIP3    H242465   3.794   1.742   7.476  0.2875 -0.3392 -1.4992
 6944TIP3   OH242466   5.243   2.187   7.190  0.1689 -0.3326 -0.0104
 6944TIP3    H142467   5.182   2.116   7.169 -1.3703  1.1329 -0.7702
 6944TIP3    H242468   5.243   2.242   7.112 -1.7284  2.5359  1.8028
 6945TIP3   OH242469   3.483   2.287   0.266 -0.1492 -0.3205  0.0690
 6945TIP3    H142470   3.538   2.221   0.309  1.3320  1.2727  0.7161
 6945TIP3    H242471   3.410   2.300   0.327  0.8497  0.4058  1.1544
 6946TIP3   OH242472   2.083   5.750   0.474 -0.0569 -0.1001 -0.3121
 6946TIP3    H142473   2.096   5.693   0.551 -0.0922  0.7520  0.3364
 6946TIP3    H242474   2.027   5.821   0.506  0.5209  0.6499 -0.9429
 6947TIP3   OH242475   3.551   5.623   7.109 -1.0173  0.0005  0.3790
 6947TIP3    H142476   3.606   5.654   7.181  0.9156  0.4331 -1.1837
 6947TIP3    H242477   3.600   5.551   7.070 -1.4965  0.4491 -1.1289
 6948TIP3   OH242478   2.409   0.502   7.691 -1.3085  0.0303  0.5510
 6948TIP3    H142479   2.367   0.421   7.720 -0.7469  0.6530  3.4307
 6948TIP3    H242480   2.496   0.475   7.661 -1.1100 -0.4462  1.5329
 6949TIP3   OH242481   4.516   6.698   8.151 -0.0294 -0.8504  0.3477
 6949TIP3    H142482   4.442   6.745   8.113 -1.4077 -2.6704  0.6256
 6949TIP3    H242483   4.477   6.620   8.192  2.0838 -2.0994  0.1554
 6950TIP3   OH242484   4.163   5.933   1.807 -0.0098 -0.3020 -0.7554
 6950TIP3    H142485   4.075   5.972   1.809 -0.9952 -2.3835 -0.8632
 6950TIP3    H242486   4.171   5.889   1.892  0.3292 -1.3364 -1.3122
 6951TIP3   OH242487   5.639   1.577   1.801 -0.3182 -0.6920  0.3752
 6951TIP3    H142488   5.623   1.524   1.879 -2.0887  0.5642  0.9470
 6951TIP3    H242489   5.720   1.624   1.820 -1.1340  0.2078  1.8534
 6952TIP3   OH242490   4.918   4.137   7.916  0.5388  0.0219 -0.1185
 6952TIP3    H142491   4.870   4.102   7.841  1.8523  0.2923 -1.1052
 6952TIP3    H242492   4.852   4.185   7.966 -0.9464 -2.3161  0.3447
 6953TIP3   OH242493   5.738   5.776   1.105  0.3191  0.4527  0.3011
 6953TIP3    H142494   5.827   5.808   1.116  0.0319  1.3329  0.1422
 6953TIP3    H242495   5.697   5.839   1.046 -0.3867  0.0119  0.3100
 6954TIP3   OH242496   4.506   2.289   1.654  0.4866 -0.0169  0.6851
 6954TIP3    H142497   4.413   2.302   1.634  0.8596  0.2300 -1.0695
 6954TIP3    H242498   4.552   2.341   1.588  1.8702 -0.2794  1.4204
 6955TIP3   OH242499   6.382   5.457   6.587  0.3198  0.1625 -0.2810
 6955TIP3    H142500   6.318   5.489   6.525  0.8570  0.5940 -0.6154
 6955TIP3    H242501   6.354   5.492   6.672 -0.9709 -1.2228 -0.0883
 6956TIP3   OH242502   0.963   5.853   0.426  0.3728 -0.0281  1.0812
 6956TIP3    H142503   0.875   5.864   0.463 -0.7577  0.5204 -1.5059
 6956TIP3    H242504   0.993   5.769   0.459 -1.4466 -0.5586  1.4810
 6957TIP3   OH242505   6.640   5.080   8.372  0.4737  0.3277 -0.4338
 6957TIP3    H142506   6.612   5.168   8.397  2.1459  1.5498 -2.5778
 6957TIP3    H242507   6.680   5.044   8.451 -0.4394  1.3634  0.5403
 6958TIP3   OH242508   5.658   3.691   6.699  0.3692 -0.1339 -0.8024
 6958TIP3    H142509   5.713   3.613   6.692  0.9614  0.2747 -0.7960
 6958TIP3    H242510   5.693   3.750   6.632  0.5419  0.4939 -0.1674
 6959TIP3   OH242511   1.904   0.741   3.294  0.3516  0.0299  0.7119
 6959TIP3    H142512   1.935   0.774   3.210  1.7075 -0.4492  0.9876
 6959TIP3    H242513   1.908   0.816   3.353  0.5445  0.0915  0.6208
 6960TIP3   OH242514   6.720   0.039   8.347 -0.6493  0.0352  0.2330
 6960TIP3    H142515   6.765   0.122   8.351  1.9878 -1.3455  3.3872
 6960TIP3    H242516   6.764  -0.009   8.277 -1.0827  0.6725 -0.4887
 6961TIP3   OH242517   6.824   4.688   1.038 -0.6745  0.0163 -0.2667
 6961TIP3    H142518   6.784   4.750   0.977 -1.2242  0.0849  0.1532
 6961TIP3    H242519   6.838   4.609   0.986 -2.4056 -0.3939 -0.1586
 6962TIP3   OH242520   1.052   0.062   1.362 -0.0217  0.1368  0.2667
 6962TIP3    H142521   1.005  -0.014   1.397 -0.6358 -0.2046 -1.2182
 6962TIP3    H242522   0.983   0.122   1.335  0.3958  0.0614 -1.0227
 6963TIP3   OH242523   4.515   3.491   7.903  0.0920 -0.3350  0.1614
 6963TIP3    H142524   4.550   3.512   7.817  1.0082  1.2826  0.8849
 6963TIP3    H242525   4.420   3.502   7.894  0.3136  1.7078 -0.2028
 6964TIP3   OH242526   4.926   5.385   2.687 -0.0313  0.3937  0.4633
 6964TIP3    H142527   4.965   5.331   2.617 -0.8367  0.9656 -0.4496
 6964TIP3    H242528   4.984   5.373   2.761 -0.1306 -1.6915  0.2743
 6965TIP3   OH242529   0.322   0.243   8.155  0.8844 -0.2788  0.1712
 6965TIP3    H142530   0.364   0.293   8.225  0.7619 -1.1047  0.8583
 6965TIP3    H242531   0.321   0.153   8.188 -0.0891 -0.5109 -0.4670
 6966TIP3   OH242532   5.742   2.604   7.757 -0.0158  0.0971  0.2144
 6966TIP3    H142533   5.684   2.624   7.684  0.8647  2.0154 -0.0257
 6966TIP3    H242534   5.788   2.524   7.729 -0.9877 -0.2354 -0.5082
 6967TIP3   OH242535   6.517   3.133   1.584 -0.3358 -0.2674 -0.3545
 6967TIP3    H142536   6.491   3.159   1.672  1.1293 -0.9100  0.3075
 6967TIP3    H242537   6.601   3.088   1.596 -0.1782 -0.5046 -2.0616
 6968TIP3   OH242538   5.691   1.922   1.522 -0.2507  0.3630  0.5531
 6968TIP3    H142539   5.746   1.994   1.490 -0.7865  1.0902  1.2108
 6968TIP3    H242540   5.713   1.848   1.466 -1.2991  1.6188 -1.6635
 6969TIP3   OH242541   0.430   1.379   2.202 -0.3929 -0.1281  0.9331
 6969TIP3    H142542   0.473   1.461   2.227  0.6455 -0.2264 -0.4137
 6969TIP3    H242543   0.354   1.407   2.152  1.4467  0.1132 -1.9698
 6970TIP3   OH242544   1.082   3.191   6.878 -0.2121  0.0924 -0.4736
 6970TIP3    H142545   0.988   3.203   6.894 -0.4500  0.1042 -1.7937
 6970TIP3    H242546   1.089   3.173   6.785  1.3111  2.2646 -0.8543
 6971TIP3   OH242547   3.605   5.265   7.358 -0.1190 -0.1170  0.4616
 6971TIP3    H142548   3.591   5.177   7.392  1.3863 -0.3751  0.4784
 6971TIP3    H242549   3.629   5.253   7.266 -0.8548  0.3478  0.2004
 6972TIP3   OH242550   2.620   4.411   1.382 -0.1676 -0.7174  0.0127
 6972TIP3    H142551   2.714   4.408   1.398 -0.2067  0.8546  0.6792
 6972TIP3    H242552   2.583   4.445   1.463 -0.9354  2.0512 -1.3875
 6973TIP3   OH242553   2.408   0.717   8.486 -0.0505 -0.5540 -0.2687
 6973TIP3    H142554   2.361   0.752   8.562 -2.7189 -3.3981 -0.4098
 6973TIP3    H242555   2.409   0.790   8.424 -2.1392  0.4147  0.7145
 6974TIP3   OH242556   2.003   1.896   7.077  0.4439  0.3156  0.0776
 6974TIP3    H142557   1.968   1.973   7.032 -0.9677 -2.0025 -3.1960
 6974TIP3    H242558   2.082   1.873   7.028  0.3816 -0.7702  0.4665
 6975TIP3   OH242559   2.901   2.705   1.318  0.1578 -0.3988 -0.2979
 6975TIP3    H142560   2.830   2.721   1.381  0.3124  1.0696 -0.4541
 6975TIP3    H242561   2.966   2.656   1.367  0.2153  0.6124  0.6815
 6976TIP3   OH242562   5.831   5.198   7.012 -0.1334 -0.6300 -0.0874
 6976TIP3    H142563   5.911   5.209   7.065 -0.3391 -3.2445  0.9642
 6976TIP3    H242564   5.818   5.282   6.969  1.8285  0.6418  1.6176
 6977TIP3   OH242565   2.051   5.935   7.702  0.1813  1.0431  0.1283
 6977TIP3    H142566   2.122   5.991   7.734  0.4781  0.6664  0.1445
 6977TIP3    H242567   2.077   5.912   7.613  0.2439  0.6404  0.2477
 6978TIP3   OH242568   5.196   6.774   8.167  0.0366  0.1050  0.5248
 6978TIP3    H142569   5.175   6.689   8.129  0.5776 -0.2744  1.0633
 6978TIP3    H242570   5.137   6.783   8.241 -1.1701  0.9406 -0.4875
 6979TIP3   OH242571   2.707   2.785   1.504 -0.0210  0.4934  0.3081
 6979TIP3    H142572   2.690   2.866   1.552 -1.4504  0.0752  0.5537
 6979TIP3    H242573   2.652   2.720   1.548 -0.2149 -0.2236 -0.9583
 6980TIP3   OH242574   3.879   5.423   1.663  0.2704  0.0548 -0.2327
 6980TIP3    H142575   3.789   5.400   1.640 -0.0208  0.1283  0.8171
 6980TIP3    H242576   3.887   5.516   1.640 -0.8020  0.8181  2.1953
 6981TIP3   OH242577   3.250   3.217   6.693  0.0290 -0.0609  0.1339
 6981TIP3    H142578   3.180   3.178   6.746  0.9094 -0.2256  1.2227
 6981TIP3    H242579   3.215   3.302   6.666 -1.4646 -1.0721 -1.2786
 6982TIP3   OH242580   2.466   1.206   0.344 -0.6257 -0.1553 -0.3219
 6982TIP3    H142581   2.489   1.222   0.252  1.4895 -0.4785  0.1139
 6982TIP3    H242582   2.370   1.201   0.344 -0.8363  2.2800 -2.1148
 6983TIP3   OH242583   2.076   2.052   8.457 -0.2189  0.3234  0.1842
 6983TIP3    H142584   2.033   1.977   8.498  0.7820 -0.1607  0.3769
 6983TIP3    H242585   2.098   2.110   8.530  0.7115 -0.0988  0.2599
 6984TIP3   OH242586   1.949   2.556   7.636  0.3673  0.0985  0.0106
 6984TIP3    H142587   2.039   2.555   7.604  0.0894  2.7202 -1.1142
 6984TIP3    H242588   1.941   2.638   7.685 -0.6453 -1.4641  2.7042
 6985TIP3   OH242589   6.555   1.756   1.045 -0.4569  0.2818 -0.3010
 6985TIP3    H142590   6.514   1.708   0.972 -1.1229  2.2839 -1.3174
 6985TIP3    H242591   6.634   1.793   1.007  0.0964 -0.0622  0.4976
 6986TIP3   OH242592   4.711   6.360   0.077  0.0290 -0.6083 -0.6067
 6986TIP3    H142593   4.699   6.378  -0.016 -0.1699  1.2313 -0.2550
 6986TIP3    H242594   4.622   6.347   0.111  0.0768 -0.9213 -0.5946
 6987TIP3   OH242595   5.152   1.584   0.318 -0.5560 -0.3744 -0.1581
 6987TIP3    H142596   5.215   1.656   0.329  0.1472 -1.1530  1.1086
 6987TIP3    H242597   5.102   1.584   0.400 -1.2128 -0.7212 -0.5516
 6988TIP3   OH242598   0.278   0.495   8.549  0.6772  0.4072 -0.1821
 6988TIP3    H142599   0.310   0.426   8.491 -0.2031  0.2512 -0.4941
 6988TIP3    H242600   0.196   0.524   8.509  1.6897  2.5722 -0.7938
 6989TIP3   OH242601   2.444   6.149   0.899 -0.2010 -0.2080 -0.1169
 6989TIP3    H142602   2.474   6.095   0.972  1.3720  2.0452  1.0118
 6989TIP3    H242603   2.520   6.156   0.841 -0.7310 -0.1400 -0.8099
 6990TIP3   OH242604   4.968   6.476   7.925  0.6680  0.2441 -0.8352
 6990TIP3    H142605   4.876   6.497   7.911  0.4651 -0.9178 -1.4130
 6990TIP3    H242606   4.978   6.387   7.891  1.9897  0.3188 -0.7279
 6991TIP3   OH242607   4.355   0.607   1.465  0.1818 -0.3240  0.2469
 6991TIP3    H142608   4.350   0.637   1.374 -2.6673  1.9883  1.0176
 6991TIP3    H242609   4.272   0.561   1.479 -0.1907  0.7879  2.0651
 6992TIP3   OH242610   2.907   2.214   8.547  0.1861  0.4825  0.1737
 6992TIP3    H142611   2.862   2.224   8.630 -0.6306  1.9741 -0.4145
 6992TIP3    H242612   2.936   2.123   8.546 -2.1583 -0.3374  0.9041
 6993TIP3   OH242613   4.042   2.404   0.843 -0.0884 -0.5657  0.2684
 6993TIP3    H142614   4.095   2.376   0.768 -0.3871  0.6074 -0.4105
 6993TIP3    H242615   3.956   2.423   0.807 -0.2129  0.1105  0.8770
 6994TIP3   OH242616   1.813   1.836   0.583 -0.9347 -0.2643 -0.2519
 6994TIP3    H142617   1.798   1.757   0.636  0.2087 -0.6147 -0.4232
 6994TIP3    H242618   1.765   1.904   0.629 -1.8196 -1.0193 -0.0133
 6995TIP3   OH242619   3.480   6.153   7.075  0.1110  0.3226 -0.3771
 6995TIP3    H142620   3.446   6.067   7.048 -0.6917  0.3368  0.5378
 6995TIP3    H242621   3.484   6.203   6.993  0.4633 -0.5416 -0.9004
 6996TIP3   OH242622   2.377   4.964   1.504 -0.0676 -0.2082  0.5665
 6996TIP3    H142623   2.288   4.932   1.518 -0.2535 -0.9738 -1.9130
 6996TIP3    H242624   2.425   4.887   1.474  0.8904  0.6437 -0.1155
 6997TIP3   OH242625   5.879   4.416   0.055 -0.3731  0.0549 -0.4277
 6997TIP3    H142626   5.857   4.451  -0.032 -2.3094  0.8833  0.3531
 6997TIP3    H242627   5.834   4.474   0.116 -1.0788 -1.9465  1.0369
 6998TIP3   OH242628   5.115   4.712   0.745 -0.1478 -0.2211 -0.3865
 6998TIP3    H142629   5.079   4.799   0.727 -0.0052 -0.3288 -1.2417
 6998TIP3    H242630   5.045   4.666   0.791 -1.0237 -0.3191 -1.7367
 6999TIP3   OH242631   2.983   1.074   1.585  0.0662 -0.1472  0.2536
 6999TIP3    H142632   3.010   1.101   1.673  1.9516  0.1800 -0.3994
 6999TIP3    H242633   2.943   1.152   1.547 -0.7854 -0.2975  0.7991
 7000TIP3   OH242634   2.781   5.496   1.160  0.1510  0.0377 -0.1653
 7000TIP3    H142635   2.749   5.409   1.138 -2.4085  0.6883  0.5547
 7000TIP3    H242636   2.874   5.485   1.178 -0.3916 -2.8473  1.4214
 7001TIP3   OH242637   5.313   5.418   1.414  0.2395  0.5889  0.2732
 7001TIP3    H142638   5.320   5.357   1.488 -0.5119 -0.0092 -0.1325
 7001TIP3    H242639   5.269   5.367   1.346  1.0516  1.0887 -0.6407
 7002TIP3   OH242640   2.694   0.137   0.940 -0.1590 -0.0780 -0.3116
 7002TIP3    H142641   2.730   0.202   0.880 -1.1459  0.4154 -0.3811
 7002TIP3    H242642   2.739   0.155   1.023  0.5192 -0.1544 -0.6552
 7003TIP3   OH242643   0.880   2.155   1.741 -0.5787 -0.4099 -0.8816
 7003TIP3    H142644   0.900   2.246   1.716  0.4629 -0.0974  0.9237
 7003TIP3    H242645   0.946   2.133   1.806 -0.6842 -2.5667 -1.4212
 7004TIP3   OH242646   0.124   1.184   8.175  0.5244 -0.2213 -0.7285
 7004TIP3    H142647   0.128   1.162   8.268 -0.3382  1.2169 -0.3299
 7004TIP3    H242648   0.031   1.177   8.152  0.9064 -2.1863 -1.9306
 7005TIP3   OH242649   4.841   2.428   0.637 -0.0828 -0.1786 -0.2411
 7005TIP3    H142650   4.817   2.510   0.593 -0.9044 -1.8356 -3.1773
 7005TIP3    H242651   4.758   2.391   0.667  0.1530 -0.4758  0.0615
 7006TIP3   OH242652   4.063   6.415   0.009  0.4809  0.1797 -0.1961
 7006TIP3    H142653   4.121   6.363  -0.046 -0.0181 -0.8729  0.2440
 7006TIP3    H242654   4.037   6.355   0.079 -2.5965 -0.0421 -1.3699
 7007TIP3   OH242655   1.642   3.410   6.996  0.3710 -0.4370  0.0883
 7007TIP3    H142656   1.706   3.351   7.036 -0.0014 -1.0570 -0.2139
 7007TIP3    H242657   1.617   3.469   7.066  1.5514  0.0593  0.1222
 7008TIP3   OH242658   5.136   4.959   8.364 -0.2903  0.5826 -0.2363
 7008TIP3    H142659   5.168   5.023   8.428 -0.6676  0.6156 -0.0796
 7008TIP3    H242660   5.201   4.962   8.293  2.3781 -2.3295  1.8421
 7009TIP3   OH242661   1.234   3.040   8.266 -0.5355 -0.0069  0.2442
 7009TIP3    H142662   1.319   3.073   8.295 -1.1681  2.0630 -0.0732
 7009TIP3    H242663   1.250   2.948   8.243  1.1844 -0.1853  1.9109
 7010TIP3   OH242664   3.634   3.972   1.718  0.3896  0.8211 -0.2424
 7010TIP3    H142665   3.549   3.987   1.678 -0.2739 -0.3975  0.6352
 7010TIP3    H242666   3.694   3.959   1.644 -0.6949 -0.7848 -0.8969
 7011TIP3   OH242667   3.240   0.131   6.714 -0.1634 -0.1003 -0.3548
 7011TIP3    H142668   3.212   0.071   6.784 -1.2419 -0.6297 -1.2142
 7011TIP3    H242669   3.333   0.146   6.731 -0.7366  1.1221  2.1805
 7012TIP3   OH242670   5.140   6.350   7.381  0.6094 -0.3904  0.5893
 7012TIP3    H142671   5.060   6.316   7.419  1.7969 -2.7979  1.1002
 7012TIP3    H242672   5.127   6.445   7.379 -1.7675 -0.6227  1.6641
 7013TIP3   OH242673   6.282   5.239   0.881  0.0007  1.0549 -0.7204
 7013TIP3    H142674   6.197   5.281   0.889 -0.5985  0.1263 -1.8904
 7013TIP3    H242675   6.266   5.163   0.825  1.6060  0.9023 -1.0198
 7014TIP3   OH242676   0.418   3.418   0.267  0.4340 -0.2284 -0.2498
 7014TIP3    H142677   0.437   3.349   0.331  0.8509 -0.0520 -0.1833
 7014TIP3    H242678   0.327   3.441   0.283  0.6518  0.0983  0.5489
 7015TIP3   OH242679   3.252   6.526   2.300 -1.0919 -0.8376 -0.1511
 7015TIP3    H142680   3.266   6.620   2.292 -0.9124 -0.7039  1.4087
 7015TIP3    H242681   3.340   6.488   2.297 -1.1534 -0.9395 -0.6397
 7016TIP3   OH242682   2.224   3.319   2.542  0.5651 -0.2497  0.0143
 7016TIP3    H142683   2.224   3.284   2.631  0.6441  0.1781  0.1846
 7016TIP3    H242684   2.286   3.392   2.545  1.2326 -0.7768 -0.6069
 7017TIP3   OH242685   6.867   5.952   7.652 -0.0745  0.5001 -0.0977
 7017TIP3    H142686   6.884   5.867   7.693  2.4420 -0.7790 -3.3731
 7017TIP3    H242687   6.774   5.952   7.634 -0.8181  0.0853  3.0821
 7018TIP3   OH242688   5.818   4.145   1.062 -0.4430 -0.7335 -0.1861
 7018TIP3    H142689   5.896   4.103   1.100 -0.1108  0.5974  0.6934
 7018TIP3    H242690   5.851   4.229   1.028 -1.5466  0.0630  0.6323
 7019TIP3   OH242691   5.584   0.560   7.263 -0.0026 -0.4419  0.2940
 7019TIP3    H142692   5.537   0.626   7.212 -0.2547  0.3611  1.5244
 7019TIP3    H242693   5.516   0.510   7.306  0.2292 -0.0807  1.0956
 7020TIP3   OH242694   1.236   6.317   6.976  0.2085  0.7254 -0.4024
 7020TIP3    H142695   1.201   6.228   6.964 -0.1698  0.3454  2.6138
 7020TIP3    H242696   1.158   6.372   6.984  0.3664  0.8403  0.4771
 7021TIP3   OH242697   1.839   4.743   1.363  0.1651  0.3415 -0.3416
 7021TIP3    H142698   1.873   4.831   1.381  0.1925  0.2403  0.1012
 7021TIP3    H242699   1.817   4.707   1.449  1.0901 -0.4637 -0.4294
 7022TIP3   OH242700   2.043   2.028   7.748 -0.1146 -0.1690 -0.2112
 7022TIP3    H142701   2.037   1.990   7.836  0.2198  2.2588  0.9371
 7022TIP3    H242702   2.128   2.000   7.716 -0.5037 -1.6153 -0.0577
 7023TIP3   OH242703   3.909   2.276   2.855  0.4626 -0.3849 -0.1500
 7023TIP3    H142704   3.956   2.197   2.878  0.4714 -0.2042  0.4555
 7023TIP3    H242705   3.968   2.348   2.877 -0.7863 -0.0447  2.5233
 7024TIP3   OH242706   0.590   3.146   2.617  0.3404 -0.0472  0.1196
 7024TIP3    H142707   0.600   3.211   2.548  0.1630  0.2371  0.3597
 7024TIP3    H242708   0.502   3.110   2.604  1.2251 -1.8576 -1.3987
 7025TIP3   OH242709   4.387   4.397   6.959  0.3970 -0.1038  0.6969
 7025TIP3    H142710   4.345   4.333   6.902 -0.6467  1.3512 -0.2054
 7025TIP3    H242711   4.479   4.396   6.932  0.3861 -1.1310  0.6348
 7026TIP3   OH242712   1.530   4.635   1.146 -0.1494 -0.3141  0.4485
 7026TIP3    H142713   1.580   4.717   1.142 -0.4229 -0.1068  1.0412
 7026TIP3    H242714   1.483   4.631   1.063 -0.0364  0.0730  0.3648
 7027TIP3   OH242715   3.451   0.291   2.049  0.0498  1.0112 -0.1539
 7027TIP3    H142716   3.452   0.284   2.145 -0.4819 -1.0769 -0.2481
 7027TIP3    H242717   3.369   0.249   2.023  0.2737  1.3829 -1.5568
 7028TIP3   OH242718   2.561   5.364   6.932 -0.2843 -0.3442  1.0778
 7028TIP3    H142719   2.498   5.320   6.989 -1.6401  0.0948 -0.0450
 7028TIP3    H242720   2.550   5.323   6.847  0.2503  0.4130  0.6332
 7029TIP3   OH242721   0.267   2.443   7.106  0.4846  0.2344 -0.5520
 7029TIP3    H142722   0.237   2.404   7.024 -1.1068 -0.6728  0.4071
 7029TIP3    H242723   0.261   2.372   7.170  1.4581  0.9871  0.4095
 7030TIP3   OH242724   1.032   2.998   2.335 -0.1177 -0.1830 -0.3580
 7030TIP3    H142725   0.957   3.003   2.395  0.8506 -0.4758  0.9353
 7030TIP3    H242726   1.080   3.080   2.351  1.5972 -1.4180  1.3378
 7031TIP3   OH242727   1.243   5.410   1.365  0.2765 -0.4799  0.3320
 7031TIP3    H142728   1.157   5.410   1.406  0.9006  0.7590  1.7588
 7031TIP3    H242729   1.295   5.470   1.419  2.2985 -1.8943  0.0844
 7032TIP3   OH242730   1.358   2.799   2.426 -0.0308  0.2118 -0.1430
 7032TIP3    H142731   1.409   2.826   2.503  1.6323 -1.6976 -0.4944
 7032TIP3    H242732   1.286   2.747   2.461  0.7460 -0.6876  0.1590
 7033TIP3   OH242733   1.540   1.403   2.466  0.4821  0.4586 -1.0343
 7033TIP3    H142734   1.565   1.487   2.426  1.1990  0.1464 -1.2640
 7033TIP3    H242735   1.446   1.410   2.479  0.4962  1.2192 -1.2508
 7034TIP3   OH242736   0.074   5.067   2.471  0.1502  0.1966 -0.4966
 7034TIP3    H142737   0.086   5.002   2.540 -1.5316  1.1246  0.7471
 7034TIP3    H242738   0.140   5.135   2.490  0.2566  0.0449 -0.3193
 7035TIP3   OH242739   4.168   6.624   0.181  0.4968 -0.5437  0.4027
 7035TIP3    H142740   4.197   6.559   0.246 -1.0581 -1.2634  0.4306
 7035TIP3    H242741   4.101   6.578   0.130  2.6315 -0.5027 -2.7011
 7036TIP3   OH242742   5.739   1.115   2.070 -0.2457  0.2422 -0.0996
 7036TIP3    H142743   5.761   1.206   2.048 -1.5170  0.0549 -2.4138
 7036TIP3    H242744   5.677   1.088   2.002 -0.7203 -2.0379  1.1440
 7037TIP3   OH242745   6.361   0.618   1.655 -0.2274 -0.1970  0.0802
 7037TIP3    H142746   6.348   0.524   1.663  1.8775 -0.5053  0.3700
 7037TIP3    H242747   6.351   0.636   1.562 -1.1708 -0.5889  0.0913
 7038TIP3   OH242748   6.380   2.259   6.921 -0.5297  0.6778 -0.0512
 7038TIP3    H142749   6.305   2.243   6.863 -0.8808  0.3368  0.4785
 7038TIP3    H242750   6.340   2.290   7.003 -0.2536 -1.0898  0.8182
 7039TIP3   OH242751   6.535   4.669   0.667 -0.1145 -0.1198  0.3585
 7039TIP3    H142752   6.469   4.678   0.598 -0.4010  1.8090  0.8276
 7039TIP3    H242753   6.617   4.653   0.620 -0.5817 -0.5383 -0.3316
 7040TIP3   OH242754   2.197   4.935   0.708 -0.2424  0.2702 -0.0843
 7040TIP3    H142755   2.149   4.852   0.700  1.7633 -0.9261 -0.2901
 7040TIP3    H242756   2.258   4.934   0.635 -1.1963  2.6924 -0.9998
 7041TIP3   OH242757   6.900   0.951   1.635 -0.1975 -0.1545 -0.5277
 7041TIP3    H142758   6.932   0.878   1.687 -1.0240  1.0753  1.8341
 7041TIP3    H242759   6.976   1.009   1.626  0.1747 -0.7533 -1.5179
 7042TIP3   OH242760   4.461   2.740   7.344 -0.2084  0.0189  0.0569
 7042TIP3    H142761   4.419   2.780   7.267  0.4333 -0.2507 -0.4489
 7042TIP3    H242762   4.485   2.815   7.399 -1.0773  0.1890  0.2160
 7043TIP3   OH242763   1.817   2.595   7.055  0.5086 -0.5096 -0.4014
 7043TIP3    H142764   1.739   2.629   7.098  1.0513 -1.8539  1.7867
 7043TIP3    H242765   1.881   2.666   7.059  0.5857 -0.6461  1.1818
 7044TIP3   OH242766   5.759   2.619   8.342 -0.2495  0.6239 -0.2834
 7044TIP3    H142767   5.701   2.579   8.277 -0.8303  0.9840  0.0074
 7044TIP3    H242768   5.844   2.625   8.298 -1.0028  2.3636 -1.6299
 7045TIP3   OH242769   6.676   6.662   7.573  0.4296  0.5745 -0.1073
 7045TIP3    H142770   6.706   6.724   7.508 -0.4518  0.8100 -0.2972
 7045TIP3    H242771   6.630   6.715   7.638 -1.5367  0.0359 -0.9617
 7046TIP3   OH242772   3.191   3.805   1.603 -0.0713  0.3367 -0.3502
 7046TIP3    H142773   3.205   3.749   1.527  1.7415  1.6260 -1.0341
 7046TIP3    H242774   3.118   3.861   1.579  0.2179  0.4491 -0.9816
 7047TIP3   OH242775   5.690   6.695   2.417 -0.3643  0.0529  0.5235
 7047TIP3    H142776   5.731   6.763   2.469 -1.1869  1.1343 -0.2019
 7047TIP3    H242777   5.666   6.627   2.480  1.4252 -0.0746  1.1075
 7048TIP3   OH242778   1.938   0.856   0.926  0.1332 -0.2145 -0.7836
 7048TIP3    H142779   2.010   0.916   0.907  0.1760 -0.1716 -0.4883
 7048TIP3    H242780   1.917   0.817   0.842  1.8848 -1.7804 -0.5485
 7049TIP3   OH242781   0.173   1.887   7.727  0.1446  0.4879  0.0076
 7049TIP3    H142782   0.264   1.890   7.695 -0.3981 -1.0812 -1.8363
 7049TIP3    H242783   0.121   1.922   7.655 -0.6610  3.1318  1.7140
 7050TIP3   OH242784   0.241   5.275   2.556 -0.2423  0.5582 -0.3164
 7050TIP3    H142785   0.322   5.266   2.504  0.9961 -2.1138  1.8622
 7050TIP3    H242786   0.259   5.349   2.614  0.1871  0.6822 -0.5965
 7051TIP3   OH242787   2.087   5.672   6.480 -0.0922  0.1069  0.5173
 7051TIP3    H142788   2.154   5.610   6.450  0.1960  0.9698 -0.7084
 7051TIP3    H242789   2.005   5.633   6.449  0.1368  0.5874 -0.7784
 7052TIP3   OH242790   4.737   5.333   0.819  0.2428 -0.0146  0.2617
 7052TIP3    H142791   4.652   5.362   0.854  0.4838  0.1922  0.6871
 7052TIP3    H242792   4.763   5.261   0.877 -0.4524 -1.2727 -0.9181
 7053TIP3   OH242793   1.013   1.920   1.938 -0.8973  0.6403  0.0598
 7053TIP3    H142794   1.059   1.998   1.908  0.7105  0.1997  1.2532
 7053TIP3    H242795   0.993   1.937   2.030 -1.2487 -0.0330  0.1160
 7054TIP3   OH242796   1.622   2.780   7.164  0.1889  0.0395  0.2149
 7054TIP3    H142797   1.598   2.867   7.195  0.3172  0.6841 -1.4156
 7054TIP3    H242798   1.687   2.749   7.227 -0.1286  0.9521  1.0162
 7055TIP3   OH242799   4.565   5.980   0.672 -0.3572 -0.2648 -0.2395
 7055TIP3    H142800   4.643   5.934   0.640 -0.3691 -0.5756  0.1725
 7055TIP3    H242801   4.504   5.910   0.697 -0.3467 -0.0379  0.4582
 7056TIP3   OH242802   0.460   0.721   1.166 -0.0081  0.4671  0.4880
 7056TIP3    H142803   0.437   0.634   1.198 -1.7503  0.8440  0.3220
 7056TIP3    H242804   0.540   0.707   1.114 -0.4699 -1.0920  0.1521
 7057TIP3   OH242805   2.381   0.029   8.107 -0.2882 -0.0886 -0.2182
 7057TIP3    H142806   2.348  -0.008   8.188  1.6533  0.0052  0.6773
 7057TIP3    H242807   2.448   0.091   8.134  0.4076 -0.0438 -1.8840
 7058TIP3   OH242808   4.311   2.160   8.016 -0.8616 -0.6943  0.3883
 7058TIP3    H142809   4.379   2.222   7.991 -1.7199  0.6050  1.1161
 7058TIP3    H242810   4.229   2.208   8.003 -1.7443 -2.4715 -1.2480
 7059TIP3   OH242811   2.067   4.789   0.087  0.0832 -0.1588  0.2539
 7059TIP3    H142812   2.007   4.779   0.013 -0.3948  0.3925  0.5560
 7059TIP3    H242813   2.154   4.770   0.051 -0.0368  0.9186 -0.6509
 7060TIP3   OH242814   5.529   4.027   1.948 -0.1481  0.0123  0.6311
 7060TIP3    H142815   5.509   3.933   1.940 -0.3834  0.1107 -0.0430
 7060TIP3    H242816   5.561   4.037   2.037 -0.4297 -0.6560  0.8177
 7061TIP3   OH242817   6.614   2.803   1.438  0.1371 -0.5469  0.2911
 7061TIP3    H142818   6.679   2.866   1.468 -0.1103  0.6701 -1.5605
 7061TIP3    H242819   6.622   2.805   1.343 -0.4393 -2.7569  0.1558
 7062TIP3   OH242820   3.647   2.753   0.397  0.0529  0.2467 -0.4273
 7062TIP3    H142821   3.592   2.781   0.324  0.7100  0.0528 -1.0055
 7062TIP3    H242822   3.735   2.782   0.373  0.3880 -0.4198 -0.0353
 7063TIP3   OH242823   3.235   4.506   7.384 -0.6806 -0.1140  0.4367
 7063TIP3    H142824   3.241   4.422   7.429  0.9448  0.3028  1.0632
 7063TIP3    H242825   3.325   4.538   7.381 -1.1391  1.1708 -0.6461
 7064TIP3   OH242826   4.939   1.279   0.234  0.2468  0.1625 -0.4099
 7064TIP3    H142827   4.860   1.282   0.181 -0.6589  1.9334  0.9334
 7064TIP3    H242828   4.912   1.233   0.314  0.9276 -0.3394 -0.4608
 7065TIP3   OH242829   2.717   0.332   6.619 -0.2033 -0.3201  0.0549
 7065TIP3    H142830   2.689   0.366   6.704 -1.5688 -2.9401  0.7618
 7065TIP3    H242831   2.807   0.302   6.634 -0.4865 -0.9054  0.6479
 7066TIP3   OH242832   6.264   4.636   5.891 -0.2910  0.0307 -0.6209
 7066TIP3    H142833   6.221   4.713   5.927  0.4582  1.1716 -2.0436
 7066TIP3    H242834   6.334   4.671   5.835  1.7283 -1.7157  0.6512
 7067TIP3   OH242835   6.094   4.724   8.206 -0.2845 -0.4497  0.2355
 7067TIP3    H142836   6.132   4.793   8.153 -1.6682 -0.8294 -1.3363
 7067TIP3    H242837   6.097   4.646   8.151 -0.8908 -1.1001  1.0808
 7068TIP3   OH242838   6.015   6.808   0.578  0.2169  0.3244  0.3710
 7068TIP3    H142839   6.014   6.714   0.566  0.1044  0.4012 -0.2429
 7068TIP3    H242840   5.923   6.833   0.577  0.1121  0.2206  2.4455
 7069TIP3   OH242841   6.292   1.454   2.238 -0.0059 -0.1432 -0.6466
 7069TIP3    H142842   6.381   1.430   2.216 -0.4416 -2.5478 -0.0345
 7069TIP3    H242843   6.238   1.385   2.200 -1.3141 -0.5852  1.7916
 7070TIP3   OH242844   1.144   0.637   2.576 -0.4767 -0.0697  0.5113
 7070TIP3    H142845   1.072   0.647   2.638  1.0520  0.4315  2.2946
 7070TIP3    H242846   1.196   0.717   2.586 -0.0949 -0.0437 -1.3352
 7071TIP3   OH242847   3.160   2.785   0.476 -0.5900  0.0023 -0.3990
 7071TIP3    H142848   3.201   2.871   0.485  0.3406 -0.4112 -0.5446
 7071TIP3    H242849   3.228   2.723   0.505 -0.3328 -0.8421 -2.6507
 7072TIP3   OH242850   4.262   2.391   8.521 -0.3256 -0.4911  0.2977
 7072TIP3    H142851   4.341   2.345   8.493  0.0007  0.6844 -0.8352
 7072TIP3    H242852   4.222   2.422   8.440 -0.3502  1.4399  0.9873
 7073TIP3   OH242853   4.911   5.818   1.344 -0.0871 -0.3181  0.0148
 7073TIP3    H142854   4.940   5.731   1.372  0.2573  0.1453  1.1246
 7073TIP3    H242855   4.821   5.805   1.314 -0.4917 -0.8313  1.3872
 7074TIP3   OH242856   1.425   6.342   1.317  0.1801 -0.7721 -0.0347
 7074TIP3    H142857   1.461   6.288   1.247  1.0867 -1.4650  0.9534
 7074TIP3    H242858   1.332   6.318   1.320 -0.0697 -0.1589 -1.4935
 7075TIP3   OH242859   4.105   1.858   7.319  0.0057  0.0216  0.0514
 7075TIP3    H142860   4.197   1.871   7.295  0.2005 -0.3500  0.5872
 7075TIP3    H242861   4.101   1.770   7.355 -0.5449  0.0691  0.1229
 7076TIP3   OH242862   2.915   4.266   0.609  0.1484 -0.1326  0.0184
 7076TIP3    H142863   2.975   4.341   0.613 -0.5904  0.4549  0.5113
 7076TIP3    H242864   2.963   4.199   0.561  1.1351  0.3810  0.2586
 7077TIP3   OH242865   4.231   6.343   1.134  0.2276  0.4513  0.3904
 7077TIP3    H142866   4.154   6.298   1.167 -0.1952 -1.5180 -2.8723
 7077TIP3    H242867   4.285   6.358   1.211 -1.7783 -1.3753  2.2745
 7078TIP3   OH242868   5.217   1.410   3.160 -0.3381 -0.2791 -0.5036
 7078TIP3    H142869   5.232   1.382   3.069  0.5339  0.1097 -0.4849
 7078TIP3    H242870   5.298   1.389   3.205 -1.1473 -1.4924  0.4629
 7079TIP3   OH242871   3.716   4.714   0.766 -0.2586  0.0823  0.1624
 7079TIP3    H142872   3.707   4.621   0.784 -1.5101  0.1539  0.0056
 7079TIP3    H242873   3.790   4.742   0.819 -1.1748 -0.5803  1.8683
 7080TIP3   OH242874   0.193   5.834   7.886 -0.0177  0.1873  0.5529
 7080TIP3    H142875   0.204   5.777   7.810  1.5149 -0.0351  0.9168
 7080TIP3    H242876   0.098   5.849   7.891 -0.2779 -0.9109 -0.5705
 7081TIP3   OH242877   2.788   4.705   7.156  0.2550 -0.0383 -0.2668
 7081TIP3    H142878   2.867   4.652   7.155 -0.1870 -0.6835 -1.1120
 7081TIP3    H242879   2.724   4.652   7.203  0.1363  0.2387 -0.1078
 7082TIP3   OH242880   4.753   5.099   0.981 -0.2446  0.5717 -0.2288
 7082TIP3    H142881   4.659   5.083   0.991 -0.3617  0.7908 -0.8831
 7082TIP3    H242882   4.774   5.062   0.895  0.0555  1.4021 -0.5228
 7083TIP3   OH242883   4.783   5.688   2.109  0.3974 -0.6917  0.6414
 7083TIP3    H142884   4.759   5.598   2.084 -0.1754 -0.1579 -0.8658
 7083TIP3    H242885   4.712   5.742   2.074  1.0965  0.4221  0.9030
 7084TIP3   OH242886   0.672   6.448   0.997  0.0982  0.0809 -0.0101
 7084TIP3    H142887   0.722   6.371   1.022 -1.0253 -0.6982 -0.0940
 7084TIP3    H242888   0.725   6.522   1.027  1.8112 -0.6620 -1.0432
 7085TIP3   OH242889   2.940   6.643   2.315  0.1138  0.1237 -0.6561
 7085TIP3    H142890   2.951   6.704   2.388  0.4965 -1.0563  0.3253
 7085TIP3    H242891   3.005   6.670   2.251  0.7604  0.3391  0.0671
 7086TIP3   OH242892   0.727   4.471   0.785 -0.4276  0.1852 -0.1766
 7086TIP3    H142893   0.776   4.396   0.752  1.0963  1.2100 -0.3427
 7086TIP3    H242894   0.695   4.444   0.871  0.5993 -0.4559  0.0201
 7087TIP3   OH242895   4.793   3.392   0.217  0.4577 -0.5267 -0.1705
 7087TIP3    H142896   4.783   3.446   0.296  0.7827 -1.5678  0.6115
 7087TIP3    H242897   4.711   3.405   0.169 -1.1040 -2.1643  1.8252
 7088TIP3   OH242898   3.667   0.937   7.902 -0.2545  0.4330  0.5205
 7088TIP3    H142899   3.712   0.915   7.983  1.3666  1.3990 -0.0626
 7088TIP3    H242900   3.662   1.032   7.902  0.1673  0.4707 -0.7012
 7089TIP3   OH242901   2.101   1.711   2.242  0.0727 -0.7486  0.0015
 7089TIP3    H142902   2.131   1.625   2.273 -0.4858 -0.9282  0.0722
 7089TIP3    H242903   2.058   1.750   2.318 -0.9713 -1.0317 -0.4251
 7090TIP3   OH242904   3.650   0.744   8.168  0.4431 -0.2300 -0.2739
 7090TIP3    H142905   3.620   0.657   8.143 -0.2589  0.3112 -1.3853
 7090TIP3    H242906   3.574   0.784   8.210 -0.3180  0.9585 -2.6248
 7091TIP3   OH242907   2.830   0.156   1.228 -0.5053 -0.3750 -0.4035
 7091TIP3    H142908   2.759   0.199   1.276 -2.9415 -0.9010 -3.2394
 7091TIP3    H242909   2.908   0.206   1.251 -2.2969  2.1895  0.5684
 7092TIP3   OH242910   4.947   0.925   0.807 -0.0539  0.0769 -0.8241
 7092TIP3    H142911   4.906   0.936   0.893 -0.6903  0.6490 -1.1963
 7092TIP3    H242912   5.025   0.872   0.825  0.7380  1.5575  0.3664
 7093TIP3   OH242913   3.973   5.615   0.561 -0.4098  0.4260 -0.1234
 7093TIP3    H142914   3.963   5.542   0.622  0.1449  0.4578  0.0178
 7093TIP3    H242915   4.055   5.596   0.515 -0.9181  0.3000 -1.0049
 7094TIP3   OH242916   0.141   3.124   8.528 -0.4279 -0.4030  0.0866
 7094TIP3    H142917   0.086   3.201   8.517 -0.0450 -0.4106 -2.4902
 7094TIP3    H242918   0.230   3.155   8.510  0.0750 -0.9652  1.4637
 7095TIP3   OH242919   1.771   4.760   7.297 -0.4151 -0.1297  0.4339
 7095TIP3    H142920   1.825   4.683   7.314 -0.0298  0.3977  1.6808
 7095TIP3    H242921   1.685   4.725   7.274 -0.3416 -0.9228  1.3336
 7096TIP3   OH242922   5.837   4.771   0.061  0.0822 -0.6247 -0.1810
 7096TIP3    H142923   5.860   4.763  -0.032  1.5663  1.5765 -0.0835
 7096TIP3    H242924   5.785   4.851   0.067 -1.0176 -1.3796  0.7453
 7097TIP3   OH242925   1.143   2.356   7.955  0.1206 -0.6821  0.2580
 7097TIP3    H142926   1.100   2.419   7.896  1.7801  0.3786  0.1171
 7097TIP3    H242927   1.132   2.394   8.042  0.8919 -0.3271  0.2035
 7098TIP3   OH242928   5.465   1.995   0.008  0.1664 -0.5620 -0.4646
 7098TIP3    H142929   5.509   1.917   0.042 -1.0125 -0.2225  2.0953
 7098TIP3    H242930   5.506   2.067   0.056 -1.0511  0.0434 -0.3202
 7099TIP3   OH242931   6.094   0.161   7.608 -0.1673 -0.6281  0.0137
 7099TIP3    H142932   6.129   0.248   7.627 -2.1159  0.7024 -2.0296
 7099TIP3    H242933   6.061   0.130   7.693 -1.1658  1.4754  0.4698
 7100TIP3   OH242934   6.559   1.308   1.145 -0.6025 -1.2240 -0.1768
 7100TIP3    H142935   6.548   1.362   1.224  1.6173 -0.6680 -0.1697
 7100TIP3    H242936   6.483   1.330   1.091 -0.9494  0.2042  0.8008
 7101TIP3   OH242937   5.301   5.146   8.545 -0.7923  0.4441 -0.3428
 7101TIP3    H142938   5.358   5.223   8.545 -0.5571  0.2733 -0.5713
 7101TIP3    H242939   5.290   5.125   8.638  0.9275 -0.5276 -0.3025
 7102TIP3   OH242940   1.827   5.915   0.885 -0.3073 -0.2988  0.9392
 7102TIP3    H142941   1.749   5.949   0.840  0.9192  1.2842 -0.1017
 7102TIP3    H242942   1.810   5.933   0.977 -0.8867  0.7013  0.6602
 7103TIP3   OH242943   6.533   2.363   1.448  0.4155  0.3595  0.2137
 7103TIP3    H142944   6.524   2.275   1.484 -0.4686  0.7918  1.1095
 7103TIP3    H242945   6.448   2.380   1.406  0.0736  1.2770  1.2286
 7104TIP3   OH242946   3.773   3.805   7.609  0.4234  0.2954  0.1958
 7104TIP3    H142947   3.727   3.884   7.582  0.5888 -0.3426 -2.1990
 7104TIP3    H242948   3.853   3.804   7.556 -0.6200 -2.5334 -1.5704
 7105TIP3   OH242949   5.112   5.196   7.562  0.0468  0.0849  0.0147
 7105TIP3    H142950   5.108   5.287   7.531 -1.2426  1.0279  2.5862
 7105TIP3    H242951   5.023   5.163   7.550 -0.2567  0.1868  1.6865
 7106TIP3   OH242952   5.593   3.552   6.349  0.4346 -0.2219 -0.3938
 7106TIP3    H142953   5.662   3.497   6.386  0.9890  0.8933  0.3003
 7106TIP3    H242954   5.633   3.590   6.270  0.4073 -0.0590 -0.3297
 7107TIP3   OH242955   2.554   2.993   0.788  0.2671  0.0592 -0.1023
 7107TIP3    H142956   2.583   2.902   0.780 -0.1759 -0.3027  1.9478
 7107TIP3    H242957   2.619   3.033   0.846 -0.0144  0.8563 -0.3252
 7108TIP3   OH242958   2.520   2.885   7.930  0.2062  0.2314  0.2549
 7108TIP3    H142959   2.497   2.965   7.977 -0.9994  0.5370 -0.7954
 7108TIP3    H242960   2.541   2.914   7.842 -0.2580 -0.6043 -0.1426
 7109TIP3   OH242961   1.500   4.844   7.596 -0.4016  0.2895 -0.0341
 7109TIP3    H142962   1.593   4.863   7.608  0.0733 -2.3430  1.3639
 7109TIP3    H242963   1.469   4.911   7.535  1.9248  2.4219  0.9471
 7110TIP3   OH242964   5.435   1.085   1.108  0.0114  0.3556  0.2443
 7110TIP3    H142965   5.439   1.146   1.182 -0.5659 -0.0200  0.6025
 7110TIP3    H242966   5.341   1.069   1.096  0.1507 -0.4737  0.1735
 7111TIP3   OH242967   4.295   2.074   2.012 -0.5613  0.0137 -0.4367
 7111TIP3    H142968   4.381   2.111   1.993 -1.4122  1.5662 -1.4979
 7111TIP3    H242969   4.313   1.999   2.068  1.3231  1.7941  1.5432
 7112TIP3   OH242970   4.819   2.016   1.862  0.2373  0.1770  0.5845
 7112TIP3    H142971   4.791   2.078   1.794 -1.0866  0.8298  1.6811
 7112TIP3    H242972   4.908   2.044   1.884  0.8734 -0.3122 -1.1395
 7113TIP3   OH242973   5.934   4.818   1.577 -0.3601 -0.5384  0.0360
 7113TIP3    H142974   5.840   4.832   1.565 -0.6733 -1.3227  1.2720
 7113TIP3    H242975   5.960   4.885   1.641  0.6842  1.8401 -2.6687
 7114TIP3   OH242976   6.092   6.786   1.505  0.4346 -0.2197 -0.0729
 7114TIP3    H142977   6.077   6.794   1.411  1.3756 -0.0210 -0.2145
 7114TIP3    H242978   6.129   6.698   1.516 -0.1978 -0.4553  0.1827
 7115TIP3   OH242979   5.907   6.019   7.453  0.4361 -0.1767  0.0529
 7115TIP3    H142980   5.968   5.947   7.466  0.8555  0.4739  2.1941
 7115TIP3    H242981   5.879   6.042   7.542 -0.3612  1.7164 -0.6434
 7116TIP3   OH242982   5.788   3.889   0.037 -0.0039 -0.4056  0.5893
 7116TIP3    H142983   5.730   3.937   0.096  1.0155  1.3506  0.2351
 7116TIP3    H242984   5.863   3.948   0.023 -0.2819 -0.6080 -2.6101
 7117TIP3   OH242985   5.267   4.839   7.187 -0.4186 -0.6593 -0.1618
 7117TIP3    H142986   5.307   4.923   7.165  1.7876 -0.8464  2.6127
 7117TIP3    H242987   5.322   4.804   7.257 -1.1738 -4.5251 -1.2942
 7118TIP3   OH242988   5.674   4.400   7.403  0.2412  0.7067 -0.2541
 7118TIP3    H142989   5.694   4.488   7.436 -0.4098  0.7518  0.0446
 7118TIP3    H242990   5.682   4.407   7.308 -0.2487  1.2084 -0.2631
 7119TIP3   OH242991   4.959   3.055   2.103 -0.0196 -0.7048  0.3341
 7119TIP3    H142992   5.010   3.115   2.157  0.4422  0.3340 -1.2029
 7119TIP3    H242993   4.923   3.109   2.034 -1.3091 -1.8517  0.0712
 7120TIP3   OH242994   3.798   3.628   0.305  0.3881 -0.5128 -0.3069
 7120TIP3    H142995   3.758   3.577   0.376 -0.0451 -0.9843 -0.8760
 7120TIP3    H242996   3.745   3.708   0.301 -0.8638 -1.3463 -1.3790
 7121TIP3   OH242997   6.774   0.469   2.757  0.3666 -0.4272 -0.3049
 7121TIP3    H142998   6.859   0.432   2.732  0.6809 -1.0586  1.5434
 7121TIP3    H242999   6.795   0.530   2.829 -0.6025  0.4615 -0.7546
 7122TIP3   OH243000   1.416   0.978   7.655  0.2649 -1.0199 -0.1807
 7122TIP3    H143001   1.367   0.907   7.615 -2.0252 -0.6092  1.6614
 7122TIP3    H243002   1.434   1.039   7.583 -0.5479 -1.9436 -1.1938
 7123TIP3   OH243003   0.279   4.638   8.170  0.3528  0.0543 -0.4461
 7123TIP3    H143004   0.356   4.683   8.204  1.2583 -0.9078 -1.1645
 7123TIP3    H243005   0.208   4.702   8.178  1.1208  0.8003  0.6425
 7124TIP3   OH243006   0.260   2.476   2.063  0.1269  0.1447 -0.2535
 7124TIP3    H143007   0.251   2.398   2.008 -1.6543 -1.0767  1.6416
 7124TIP3    H243008   0.185   2.473   2.122 -0.8930  4.1359 -1.0473
 7125TIP3   OH243009   4.944   3.167   0.676 -0.0308  0.3336  0.0394
 7125TIP3    H143010   4.985   3.206   0.754 -0.4154  0.8548 -0.0119
 7125TIP3    H243011   4.962   3.230   0.606  0.3461 -0.1524 -0.3078
 7126TIP3   OH243012   5.016   6.819   1.063 -0.2957  0.3331 -0.0912
 7126TIP3    H143013   5.046   6.882   0.998  0.3046  0.8042  0.6172
 7126TIP3    H243014   4.950   6.866   1.114 -0.7877 -0.0419 -0.3697
 7127TIP3   OH243015   2.865   5.634   0.723 -0.1375  0.1602 -0.2147
 7127TIP3    H143016   2.836   5.547   0.750  0.5217  0.1303  0.4268
 7127TIP3    H243017   2.810   5.694   0.773 -0.3255  0.1125 -0.3631
 7128TIP3   OH243018   1.939   0.892   7.924 -0.6173 -0.0526  0.0582
 7128TIP3    H143019   1.879   0.851   7.986  0.1646  0.4123  1.1543
 7128TIP3    H243020   1.895   0.972   7.896 -0.1043  0.8418  1.6762
 7129TIP3   OH243021   6.491   1.299   7.437  0.0479 -0.1538  0.0725
 7129TIP3    H143022   6.454   1.382   7.467 -1.9602 -0.7414 -0.6638
 7129TIP3    H243023   6.424   1.261   7.381  0.3958 -2.8595  1.3337
 7130TIP3   OH243024   5.789   5.082   7.851  0.7592  0.6236 -0.2516
 7130TIP3    H143025   5.846   5.024   7.801  0.8628  1.3875 -1.0436
 7130TIP3    H243026   5.848   5.144   7.893  0.6304  0.3402  0.3620
 7131TIP3   OH243027   1.692   4.881   7.853 -0.0588 -0.3497 -0.7343
 7131TIP3    H143028   1.693   4.974   7.831 -0.7179 -0.6454 -2.1085
 7131TIP3    H243029   1.638   4.876   7.932  1.7355  0.6525  0.6282
 7132TIP3   OH243030   1.425   4.316   2.247 -0.3871  0.7950  1.3078
 7132TIP3    H143031   1.458   4.229   2.227  1.3573  1.2736  1.9600
 7132TIP3    H243032   1.477   4.375   2.192 -0.4267  1.5419  2.0492
 7133TIP3   OH243033   1.718   3.610   7.787  0.2430 -0.4003 -0.1501
 7133TIP3    H143034   1.739   3.685   7.730  1.7099 -1.6717 -1.3974
 7133TIP3    H243035   1.680   3.545   7.728  0.1510 -1.0981  0.6579
 7134TIP3   OH243036   5.737   5.910   6.769 -0.1347 -0.5524  0.8387
 7134TIP3    H143037   5.775   5.945   6.689 -1.7383  2.1275  1.1434
 7134TIP3    H243038   5.688   5.832   6.740 -0.6546  0.3365 -0.8204
 7135TIP3   OH243039   2.484   0.454   8.464 -0.5873  0.0310 -0.5139
 7135TIP3    H143040   2.472   0.549   8.467  1.2769  0.3543 -1.4785
 7135TIP3    H243041   2.566   0.438   8.512 -0.9734 -1.1186 -0.1930
 7136TIP3   OH243042   6.383   4.554   8.366  0.3033 -0.2881 -0.1647
 7136TIP3    H143043   6.394   4.606   8.446  1.1896  1.9054 -1.5922
 7136TIP3    H243044   6.288   4.550   8.352  0.1734 -0.1805  0.6747
 7137TIP3   OH243045   6.124   3.827   0.059  0.7909 -0.1252  0.0177
 7137TIP3    H143046   6.103   3.913   0.023  0.9432 -0.1247 -0.0742
 7137TIP3    H243047   6.050   3.772   0.036  0.5085  0.0791  0.4256
 7138TIP3   OH243048   4.654   1.248   0.669 -0.2346  0.1078  0.0247
 7138TIP3    H143049   4.722   1.259   0.736  0.1538  3.3730 -0.7406
 7138TIP3    H243050   4.573   1.271   0.715 -0.5523 -1.4771  0.3162
 7139TIP3   OH243051   6.434   3.578   1.730 -0.0732  0.0507 -0.1391
 7139TIP3    H143052   6.435   3.660   1.681  2.1410 -0.2540 -0.6793
 7139TIP3    H243053   6.406   3.512   1.666  0.4595  0.0260 -0.3482
 7140TIP3   OH243054   3.484   5.645   2.139  0.0989  0.0094 -0.3158
 7140TIP3    H143055   3.540   5.723   2.135  0.5550 -0.3516 -1.2957
 7140TIP3    H243056   3.509   5.602   2.221  0.9461  0.0834 -0.5280
 7141TIP3   OH243057   1.288   3.424   0.950 -0.0479  0.6111 -0.1427
 7141TIP3    H143058   1.281   3.507   0.996  1.0941  1.0018 -0.6473
 7141TIP3    H243059   1.262   3.443   0.860 -3.2109 -0.3490  0.4387
 7142TIP3   OH243060   0.237   5.658   0.247  0.3084  0.3173  0.8835
 7142TIP3    H143061   0.171   5.651   0.177  0.9833  1.0093  0.1638
 7142TIP3    H243062   0.241   5.751   0.268  0.7623  0.2269  1.2156
 7143TIP3   OH243063   4.038   1.611   2.296 -0.3098 -0.1771  0.0605
 7143TIP3    H143064   3.956   1.581   2.335 -1.2673  1.8104 -0.3343
 7143TIP3    H243065   4.037   1.706   2.306  2.1022 -0.1061  0.3124
 7144TIP3   OH243066   2.909   3.273   0.561  0.0958 -0.2810 -0.1334
 7144TIP3    H143067   2.938   3.191   0.520  0.6019  0.8370 -2.1330
 7144TIP3    H243068   2.816   3.279   0.537 -0.3285 -0.9454  1.2476
 7145TIP3   OH243069   6.403   3.731   7.861 -0.5743  0.6697 -0.4593
 7145TIP3    H143070   6.335   3.704   7.922  1.3248 -1.0919  1.0410
 7145TIP3    H243071   6.373   3.701   7.775 -1.3388 -0.7714  0.2922
 7146TIP3   OH243072   1.069   4.865   8.511 -0.3889 -0.4230  0.0542
 7146TIP3    H143073   1.060   4.960   8.511  2.1274 -0.0879  1.9216
 7146TIP3    H243074   1.029   4.837   8.594 -1.0280 -1.0385 -0.4359
 7147TIP3   OH243075   0.335   5.136   1.153  0.0190  0.0316  1.0610
 7147TIP3    H143076   0.316   5.055   1.202  1.6823 -0.5262  0.8676
 7147TIP3    H243077   0.430   5.134   1.141 -0.2120  0.7358 -1.2140
 7148TIP3   OH243078   2.371   1.098   8.463  0.4557 -0.2545 -0.0055
 7148TIP3    H143079   2.427   1.040   8.410  0.3184  0.0331 -0.4708
 7148TIP3    H243080   2.432   1.140   8.524  0.9833  1.0437 -1.3724
 7149LIG     O143081   6.908   5.338   1.709  0.2809  0.3581 -0.2921
 7149LIG     O243082   7.022   5.288   1.907 -0.7131  0.1072 -0.8282
 7149LIG     O343083   7.111   5.082   1.821  0.5610  0.4501 -0.7225
 7149LIG     O443084   6.787   5.522   1.938  0.4604 -0.1858  0.0742
 7149LIG     O543085   6.603   5.301   1.919  0.1632  0.2823 -0.1467
 7149LIG     O643086   7.305   5.384   1.898 -0.1199  0.9683 -0.4850
 7149LIG     O743087   7.222   5.251   2.139  0.7099  0.1629  0.2734
 7149LIG     O843088   7.182   4.969   2.162 -0.6890 -0.2515 -0.4617
 7149LIG     O943089   7.091   5.557   1.944  0.1206  0.0561 -0.3474
 7149LIG    O1043090   6.798   5.067   1.660  0.8920 -0.1177  0.0628
 7149LIG    O1143091   6.944   4.837   1.834 -0.1042  0.4566  0.4726
 7149LIG     C143092   6.953   5.385   1.835 -0.0677 -0.3865 -0.1147
 7149LIG     C243093   6.834   5.390   1.935  0.2514 -0.3734  0.1518
 7149LIG     C343094   6.742   5.286   1.879  0.1073  0.1731  0.1662
 7149LIG     C443095   6.771   5.306   1.723 -0.2662  1.3640  0.3066
 7149LIG     C543096   7.126   5.223   1.832 -0.2834  0.3775 -0.9603
 7149LIG     C643097   7.262   5.246   1.896 -0.0725  0.3762 -0.0160
 7149LIG     C743098   7.277   5.173   2.033 -0.5107  0.3056  0.0528
 7149LIG     C843099   7.204   5.030   2.029 -0.0065  0.1795 -0.5988
 7149LIG     C943100   7.079   5.015   1.940  0.7100  0.3214  0.1146
 7149LIG    C1043101   7.038   5.511   1.825  0.6647 -0.2596  0.2597
 7149LIG    C1143102   6.724   5.191   1.636  0.0557 -0.3146  0.2568
 7149LIG    C1243103   7.052   4.862   1.928  0.1271  0.1169 -0.0542
 7149LIG     H143104   6.853   5.370   2.041  1.7314  0.4553  0.0632
 7149LIG     H243105   6.779   5.187   1.910  1.5705  0.1086 -1.6405
 7149LIG     H343106   6.725   5.397   1.684  0.0383  1.2077 -0.4310
 7149LIG     H443107   7.139   5.261   1.728  0.2552 -0.7319 -1.3102
 7149LIG     H543108   7.328   5.189   1.827  0.7403  2.2453 -0.8683
 7149LIG     H643109   7.386   5.159   2.048 -0.0347  0.2460 -2.8895
 7149LIG     H743110   7.281   4.973   1.972  1.3112  1.3730 -0.0938
 7149LIG     H843111   6.998   5.069   1.994 -0.3525  0.5184 -1.6311
 7149LIG     H943112   7.125   5.484   1.762 -1.4082 -0.8610 -2.4977
 7149LIG    H1043113   6.977   5.587   1.772 -1.7694 -1.1861  1.5573
 7149LIG    H1143114   6.614   5.176   1.641 -0.0425  0.4552  0.6198
 7149LIG    H1243115   6.744   5.224   1.532  3.0742  0.3575  0.9506
 7149LIG    H1343116   7.138   4.806   1.885 -1.1794 -3.5746  1.6899
 7149LIG    H1443117   7.028   4.820   2.028 -2.1528  3.4457  0.9479
 7149LIG    H1543118   6.696   5.521   1.970  0.1131  3.8634 -0.2732
 7149LIG    H1643119   6.577   5.215   1.953  1.1661 -0.3098 -0.8116
 7149LIG    H1743120   7.377   5.389   1.963  1.9462  1.9149 -2.7058
 7149LIG    H1843121   7.278   5.328   2.156  0.0790  0.5776  0.4855
 7149LIG    H1943122   7.127   5.027   2.215 -0.2098 -2.2600  2.5171
 7149LIG    H2043123   7.166   5.499   1.954  0.6713  0.6809 -0.8107
 7149LIG    H2143124   6.892   5.074   1.639  1.0756 -1.1090  0.4789
 7149LIG    H2243125   6.865   4.861   1.885 -0.5901 -0.9807  0.4416
   6.93930   6.93930   8.57886
