Title
43125
    1CHL1    C3    1   4.767   4.994   6.468  0.5015 -0.9158 -0.0931
    1CHL1    H3    2   4.798   5.101   6.474 -1.1997 -0.3717 -0.4739
    1CHL1    O3    3   4.770   4.944   6.595 -0.3904 -0.0774  0.4227
    1CHL1   H3'    4   4.741   4.853   6.588 -1.8024  0.4578 -2.5055
    1CHL1    C4    5   4.628   4.972   6.412  0.6190 -1.1434 -0.5160
    1CHL1   H4A    6   4.592   4.867   6.409 -3.7673  0.1262 -3.2287
    1CHL1   H4B    7   4.559   5.027   6.479  0.2233 -0.8776 -1.1301
    1CHL1    C5    8   4.623   5.016   6.264  0.3784  0.1808  0.0329
    1CHL1    C6    9   4.540   5.109   6.223  0.3287  0.2384  0.1999
    1CHL1    H6   10   4.477   5.162   6.296  0.4004 -0.2367  0.6138
    1CHL1    C7   11   4.526   5.158   6.080 -0.2486  0.4981  0.2284
    1CHL1   H7A   12   4.420   5.147   6.050 -0.1622 -1.9079  0.5833
    1CHL1   H7B   13   4.545   5.267   6.068 -3.3221  1.1385  0.2679
    1CHL1    C8   14   4.605   5.062   5.986  0.2027  0.0982 -0.3403
    1CHL1    H8   15   4.555   4.963   5.980  1.5472 -0.6559  0.3261
    1CHL1   C14   16   4.638   5.134   5.856  0.1835 -0.8971 -0.1921
    1CHL1   H14   17   4.704   5.220   5.878 -0.4744  0.7883 -4.0198
    1CHL1   C15   18   4.523   5.217   5.793 -0.2937  0.9713 -0.5125
    1CHL1  H15A   19   4.433   5.152   5.794 -0.7092  1.4795  2.4528
    1CHL1  H15B   20   4.506   5.305   5.858 -0.6949  1.1692 -0.8813
    1CHL1   C16   21   4.576   5.251   5.657  0.6055  0.2491  0.5371
    1CHL1  H16A   22   4.504   5.202   5.587  0.0144  0.9717  0.6321
    1CHL1  H16B   23   4.579   5.359   5.632 -2.9756 -0.0882 -2.2574
    1CHL1   C17   24   4.711   5.183   5.639 -0.7864 -0.0020  0.8413
    1CHL1   H17   25   4.786   5.261   5.663 -0.5490  0.9025 -2.3635
    1CHL1   C13   26   4.716   5.066   5.741  0.8578  0.0619  0.1264
    1CHL1   C18   27   4.636   4.943   5.692  0.1153  0.3366  0.2443
    1CHL1  H18A   28   4.695   4.885   5.618  0.0255  0.8513 -0.2363
    1CHL1  H18B   29   4.604   4.876   5.774 -1.0563  1.7895  1.0261
    1CHL1  H18C   30   4.538   4.973   5.650 -0.9898 -0.4237  2.1668
    1CHL1   C12   31   4.849   5.013   5.797  0.0412 -0.0977  0.9673
    1CHL1  H12A   32   4.897   4.929   5.742 -1.6753 -0.5705  0.1254
    1CHL1  H12B   33   4.919   5.098   5.793  0.5604 -0.3819  2.9341
    1CHL1   C11   34   4.834   4.955   5.936  0.0813  0.1526  0.3268
    1CHL1  H11A   35   4.785   4.857   5.917  0.7862  0.0138 -0.8600
    1CHL1  H11B   36   4.935   4.925   5.972  0.5911  1.6498  0.2178
    1CHL1    C9   37   4.741   5.024   6.040 -0.6556 -0.1166 -0.1902
    1CHL1    H9   38   4.798   5.117   6.065  2.0889 -2.0750  1.5119
    1CHL1   C10   39   4.727   4.947   6.174  0.4114  0.0062  0.1182
    1CHL1   C19   40   4.687   4.806   6.144 -0.1551 -0.4069 -0.6176
    1CHL1  H19A   41   4.672   4.746   6.237  0.6939 -0.5933 -0.5898
    1CHL1  H19B   42   4.601   4.795   6.075 -1.3345 -0.5386  0.8406
    1CHL1  H19C   43   4.780   4.751   6.117  2.0140  0.8615  3.3952
    1CHL1    C1   44   4.865   4.940   6.240 -0.3568 -0.4478 -0.6702
    1CHL1   H1A   45   4.942   4.876   6.192  0.8880  0.3045  0.2619
    1CHL1   H1B   46   4.907   5.043   6.240  2.7666 -1.5918  0.8270
    1CHL1    C2   47   4.862   4.903   6.392 -0.2316  0.0487 -0.0428
    1CHL1   H2A   48   4.963   4.918   6.434  0.1754  2.9163 -1.7508
    1CHL1   H2B   49   4.853   4.793   6.400  0.7587  0.1050  3.1614
    1CHL1   C20   50   4.738   5.131   5.492 -0.3256  0.0821 -0.8394
    1CHL1   H20   51   4.684   5.038   5.464  1.2673 -0.7298 -1.3667
    1CHL1   C21   52   4.893   5.099   5.484  0.2690  0.0003  0.1951
    1CHL1  H21A   53   4.922   5.089   5.377  1.9682  1.2354  0.4974
    1CHL1  H21B   54   4.926   5.016   5.550 -0.0102 -0.4536 -0.2396
    1CHL1  H21C   55   4.952   5.184   5.525  1.5672 -1.5773  1.7261
    1CHL1   C22   56   4.699   5.247   5.387  0.9998 -0.4242 -0.4729
    1CHL1  H22A   57   4.588   5.255   5.394  0.7959 -1.7357 -1.8111
    1CHL1  H22B   58   4.744   5.346   5.410  0.4748  0.3707 -2.6895
    1CHL1   C23   59   4.736   5.214   5.244 -0.5139  0.3633 -0.3050
    1CHL1  H23A   60   4.695   5.300   5.188 -1.1956  0.6765  0.6382
    1CHL1  H23B   61   4.846   5.225   5.241 -0.7102  2.5416 -2.4022
    1CHL1   C24   62   4.704   5.076   5.185  0.1664  0.8786 -0.3618
    1CHL1  H24A   63   4.765   4.997   5.234  0.8129  1.1827 -0.6779
    1CHL1  H24B   64   4.606   5.051   5.232  0.1127  1.5267 -0.1183
    1CHL1   C25   65   4.722   5.065   5.032  0.3509  0.0107  0.1834
    1CHL1   H25   66   4.674   5.153   4.984 -0.2808 -0.5155 -0.1715
    1CHL1   C26   67   4.868   5.060   4.985 -0.3772  0.4938 -0.4820
    1CHL1  H26A   68   4.879   5.030   4.879 -1.8064 -0.2614 -0.4375
    1CHL1  H26B   69   4.914   5.158   5.011 -2.1202  1.2237  0.0468
    1CHL1  H26C   70   4.921   4.973   5.029  0.8620 -0.5015 -3.6706
    1CHL1   C27   71   4.649   4.942   4.995 -0.0176 -0.1135 -0.8464
    1CHL1  H27A   72   4.549   4.925   5.042  0.2459  1.4284  0.3381
    1CHL1  H27B   73   4.644   4.928   4.885  0.5876 -0.9582 -0.7748
    1CHL1  H27C   74   4.713   4.862   5.038 -1.8698 -1.3800 -0.3208
    2CHL1    C3   75   3.776   2.880   6.037 -0.5600 -0.0357 -0.0838
    2CHL1    H3   76   3.863   2.943   6.061  0.3079 -1.6374  1.1851
    2CHL1    O3   77   3.752   2.822   6.167 -0.2037  0.0108 -0.3146
    2CHL1   H3'   78   3.820   2.758   6.191 -0.0663 -0.2895 -1.4458
    2CHL1    C4   79   3.660   2.965   5.994 -0.5714 -0.0975  0.2332
    2CHL1   H4A   80   3.569   2.902   5.992 -0.4870 -0.2578 -2.6354
    2CHL1   H4B   81   3.635   3.044   6.068 -3.0238 -0.2441 -0.3486
    2CHL1    C5   82   3.691   3.016   5.849 -0.2805 -0.3079 -0.3859
    2CHL1    C6   83   3.689   3.141   5.803  0.0109  0.4772 -0.7664
    2CHL1    H6   84   3.678   3.221   5.878  3.9434  1.0169 -0.5752
    2CHL1    C7   85   3.708   3.186   5.663 -0.0550  0.9205  0.4125
    2CHL1   H7A   86   3.632   3.261   5.634 -2.4622 -1.2053  0.8231
    2CHL1   H7B   87   3.810   3.226   5.645  0.6292 -0.7595  0.3004
    2CHL1    C8   88   3.690   3.073   5.562  0.0841  1.0897  0.3736
    2CHL1    H8   89   3.581   3.053   5.564 -0.2833  2.9612  2.1188
    2CHL1   C14   90   3.737   3.107   5.423  0.0807 -0.1075 -0.3626
    2CHL1   H14   91   3.845   3.131   5.431 -0.0309  0.0553  0.8942
    2CHL1   C15   92   3.666   3.222   5.352  0.0248 -0.4126 -0.0202
    2CHL1  H15A   93   3.556   3.214   5.347  0.0066  0.3719 -1.4135
    2CHL1  H15B   94   3.698   3.317   5.401  1.0052  0.5093 -2.2968
    2CHL1   C16   95   3.720   3.217   5.207 -0.0828  0.0456 -0.2723
    2CHL1  H16A   96   3.632   3.233   5.141  0.4083  0.8576 -0.7401
    2CHL1  H16B   97   3.784   3.305   5.183 -0.2159  0.3224  0.3771
    2CHL1   C17   98   3.800   3.082   5.197  0.6257 -0.5728  0.8053
    2CHL1   H17   99   3.907   3.104   5.218  1.1201 -2.6713  0.6453
    2CHL1   C13  100   3.742   2.999   5.315 -0.0584 -0.1399 -0.3528
    2CHL1   C18  101   3.588   2.950   5.288 -0.1430  0.2184  0.1440
    2CHL1  H18A  102   3.544   3.033   5.228  0.5690  1.3018  1.0773
    2CHL1  H18B  103   3.590   2.846   5.251  3.3695 -0.3052  1.4269
    2CHL1  H18C  104   3.520   2.948   5.376  0.2932  0.7074  0.5006
    2CHL1   C12  105   3.830   2.884   5.371 -0.1818 -0.4888  0.5135
    2CHL1  H12A  106   3.815   2.800   5.300 -1.7767 -0.9292  1.3159
    2CHL1  H12B  107   3.939   2.904   5.372 -0.3814  1.2708 -2.3403
    2CHL1   C11  108   3.772   2.839   5.502 -0.1599  0.3198  0.4666
    2CHL1  H11A  109   3.663   2.826   5.489 -0.6534  3.3068  1.0459
    2CHL1  H11B  110   3.815   2.741   5.532 -3.4440 -1.3464  0.1090
    2CHL1    C9  111   3.775   2.949   5.613 -0.0686  0.2734  0.3342
    2CHL1    H9  112   3.882   2.980   5.609 -0.1995  0.9002  1.2912
    2CHL1   C10  113   3.724   2.896   5.751  0.0301 -0.2293 -0.0226
    2CHL1   C19  114   3.584   2.825   5.731 -0.6114 -0.4691 -0.1381
    2CHL1  H19A  115   3.541   2.792   5.828 -1.1885 -0.9973 -0.5641
    2CHL1  H19B  116   3.507   2.891   5.686  0.2009  0.6139  0.0299
    2CHL1  H19C  117   3.606   2.736   5.669  2.7222  0.0975  0.0450
    2CHL1    C1  118   3.834   2.800   5.799  0.6215  0.5374  0.8183
    2CHL1   H1A  119   3.833   2.699   5.753 -1.6842  1.2072 -0.7364
    2CHL1   H1B  120   3.936   2.845   5.793  1.4269 -1.3417 -0.4371
    2CHL1    C2  121   3.805   2.765   5.945 -0.0376 -0.1338  0.0477
    2CHL1   H2A  122   3.888   2.704   5.987 -0.1353 -0.6836 -0.5463
    2CHL1   H2B  123   3.716   2.699   5.943 -1.0971  1.1766  1.5326
    2CHL1   C20  124   3.793   3.040   5.048 -0.5607  0.1429 -0.4199
    2CHL1   H20  125   3.690   3.018   5.013 -1.1740  0.6888  0.9866
    2CHL1   C21  126   3.873   2.912   5.041  0.2169  0.6700  0.0325
    2CHL1  H21A  127   3.906   2.898   4.936  0.2805  0.7258  0.0448
    2CHL1  H21B  128   3.806   2.828   5.070 -0.3045  0.6650 -1.1177
    2CHL1  H21C  129   3.965   2.921   5.101  0.3225  4.4843 -0.4529
    2CHL1   C22  130   3.849   3.156   4.949  0.3181 -0.1037 -0.1352
    2CHL1  H22A  131   3.784   3.245   4.960  0.7673  0.4246 -1.5648
    2CHL1  H22B  132   3.949   3.187   4.986  0.7215  0.7273 -1.8466
    2CHL1   C23  133   3.843   3.116   4.805  0.2528  0.3687 -0.4096
    2CHL1  H23A  134   3.930   3.052   4.778  0.5365  0.0705  1.0801
    2CHL1  H23B  135   3.745   3.067   4.786 -0.0626 -0.0512  1.9170
    2CHL1   C24  136   3.852   3.236   4.706 -0.2619 -0.2094 -0.1683
    2CHL1  H24A  137   3.794   3.322   4.746  1.2276  0.6351  0.2661
    2CHL1  H24B  138   3.954   3.279   4.708  0.3629 -1.6531  0.4121
    2CHL1   C25  139   3.772   3.216   4.576  1.0535  0.2228  0.4673
    2CHL1   H25  140   3.670   3.196   4.615  0.6094  1.0217 -0.2717
    2CHL1   C26  141   3.766   3.340   4.484 -0.1263  0.3019 -0.0365
    2CHL1  H26A  142   3.872   3.372   4.472  0.3577 -1.5568 -1.1581
    2CHL1  H26B  143   3.721   3.313   4.386  0.8106 -1.2311 -0.0917
    2CHL1  H26C  144   3.713   3.425   4.531  0.4167  0.5052  0.2140
    2CHL1   C27  145   3.822   3.090   4.495  0.7441  0.9878  0.5427
    2CHL1  H27A  146   3.833   3.004   4.564 -1.2733  0.9000  0.8123
    2CHL1  H27B  147   3.747   3.060   4.419  0.7499  3.0255 -0.3380
    2CHL1  H27C  148   3.922   3.104   4.450  0.8351 -0.6900  0.1358
    3CHL1    C3  149   6.560   2.452   6.198 -0.0676  0.0421  0.4564
    3CHL1    H3  150   6.584   2.553   6.160 -1.3547  0.0087 -0.5297
    3CHL1    O3  151   6.541   2.462   6.332 -0.7381  0.6025 -0.4308
    3CHL1   H3'  152   6.562   2.377   6.370  2.5567  1.9926  1.2444
    3CHL1    C4  153   6.431   2.401   6.136  0.0796 -1.1071 -0.4563
    3CHL1   H4A  154   6.410   2.300   6.176 -1.2645 -0.6408  0.0863
    3CHL1   H4B  155   6.347   2.462   6.175 -0.5137 -2.4554  0.4254
    3CHL1    C5  156   6.451   2.408   5.987  0.0026 -0.1320 -0.8783
    3CHL1    C6  157   6.376   2.482   5.908 -0.2803 -0.3878 -0.1049
    3CHL1    H6  158   6.288   2.533   5.948 -0.3248 -0.4657 -0.1028
    3CHL1    C7  159   6.390   2.503   5.757  0.3959 -0.5592 -0.0994
    3CHL1   H7A  160   6.285   2.512   5.723  0.4662 -0.0227 -0.1928
    3CHL1   H7B  161   6.445   2.599   5.742 -1.0721  0.8375  2.6460
    3CHL1    C8  162   6.467   2.378   5.709  0.0473 -0.3166 -0.0922
    3CHL1    H8  163   6.391   2.297   5.714 -1.3420  0.9825  0.7886
    3CHL1   C14  164   6.500   2.388   5.567 -0.8389 -0.3450  0.3601
    3CHL1   H14  165   6.562   2.480   5.560  0.0566 -1.0105 -0.9784
    3CHL1   C15  166   6.384   2.410   5.465 -0.1452 -0.2286 -0.2590
    3CHL1  H15A  167   6.296   2.344   5.482 -1.7762  2.4129  2.5133
    3CHL1  H15B  168   6.350   2.514   5.482 -1.9809 -0.9787  1.0301
    3CHL1   C16  169   6.448   2.399   5.326 -0.3901 -0.4111 -0.1636
    3CHL1  H16A  170   6.380   2.343   5.258  0.2195 -1.6547  0.2204
    3CHL1  H16B  171   6.463   2.494   5.270  3.1101  0.2371  1.5888
    3CHL1   C17  172   6.582   2.321   5.349 -0.3330 -0.8972 -0.5050
    3CHL1   H17  173   6.664   2.395   5.340  0.7590 -2.3300 -3.2898
    3CHL1   C13  174   6.580   2.279   5.502 -0.0631 -0.4622  0.7101
    3CHL1   C18  175   6.501   2.146   5.498  0.1633  0.6286  0.1712
    3CHL1  H18A  176   6.473   2.117   5.601  1.0194  1.2287  0.5855
    3CHL1  H18B  177   6.407   2.160   5.441 -0.7676  0.9343  1.7337
    3CHL1  H18C  178   6.555   2.066   5.443 -0.1595  1.9015 -2.1235
    3CHL1   C12  179   6.718   2.272   5.572  0.1569 -0.1029  0.6945
    3CHL1  H12A  180   6.784   2.194   5.529 -1.4849 -1.4316  0.4931
    3CHL1  H12B  181   6.768   2.366   5.541  2.0198 -1.9258 -2.3638
    3CHL1   C11  182   6.697   2.252   5.718  0.2315  0.6628  0.0018
    3CHL1  H11A  183   6.649   2.153   5.733 -1.7706  2.0278  3.9940
    3CHL1  H11B  184   6.795   2.241   5.770  0.4222 -1.3181 -0.6787
    3CHL1    C9  185   6.598   2.352   5.792  1.0647 -1.0628  0.1985
    3CHL1    H9  186   6.656   2.448   5.793 -0.1744 -0.2622 -1.4203
    3CHL1   C10  187   6.570   2.324   5.939 -0.0355 -0.4108  0.2148
    3CHL1   C19  188   6.527   2.174   5.964 -0.3563  0.4704  0.2720
    3CHL1  H19A  189   6.441   2.156   5.897  0.2658  1.9702 -1.0023
    3CHL1  H19B  190   6.600   2.100   5.924 -1.2727  0.0328 -0.6388
    3CHL1  H19C  191   6.503   2.150   6.069  0.3916 -1.3518  0.0517
    3CHL1    C1  192   6.701   2.363   6.012  0.2352  0.9640  0.4147
    3CHL1   H1A  193   6.784   2.291   5.994 -0.1530 -0.0216  2.2916
    3CHL1   H1B  194   6.730   2.463   5.974 -3.4556  1.0166 -2.8652
    3CHL1    C2  195   6.681   2.366   6.168  0.0458 -0.4534  0.9266
    3CHL1   H2A  196   6.774   2.419   6.199  0.3438 -0.1432 -0.4456
    3CHL1   H2B  197   6.669   2.261   6.205 -2.3402 -0.6891 -0.3047
    3CHL1   C20  198   6.620   2.220   5.236  0.4034 -0.6719 -0.4560
    3CHL1   H20  199   6.540   2.143   5.237  1.4747 -1.8867 -2.1842
    3CHL1   C21  200   6.751   2.154   5.279 -0.2883  0.6733 -0.1720
    3CHL1  H21A  201   6.794   2.100   5.192 -0.2231  0.6181 -0.1055
    3CHL1  H21B  202   6.732   2.086   5.365 -1.0299  0.5908 -0.3922
    3CHL1  H21C  203   6.830   2.230   5.300  1.5310 -0.8371 -1.1997
    3CHL1   C22  204   6.623   2.287   5.095  0.1246  0.4180 -0.4171
    3CHL1  H22A  205   6.619   2.210   5.015 -0.6680 -1.2212  1.1203
    3CHL1  H22B  206   6.533   2.348   5.073  0.3738  1.1982  0.6398
    3CHL1   C23  207   6.741   2.386   5.070  0.0642  0.6695  0.4379
    3CHL1  H23A  208   6.750   2.453   5.158 -0.9019  0.4120  0.7466
    3CHL1  H23B  209   6.837   2.331   5.062 -0.1636 -0.0291  1.9823
    3CHL1   C24  210   6.713   2.469   4.948 -0.4968 -0.1344  0.1381
    3CHL1  H24A  211   6.611   2.511   4.959 -0.8074 -1.2784  2.1660
    3CHL1  H24B  212   6.791   2.549   4.948 -0.7230  0.2001 -2.9246
    3CHL1   C25  213   6.723   2.398   4.812 -0.7241  0.4072 -0.7682
    3CHL1   H25  214   6.685   2.295   4.830  1.4369 -0.1236  1.2602
    3CHL1   C26  215   6.638   2.467   4.710 -0.1821  0.0942 -0.2547
    3CHL1  H26A  216   6.530   2.450   4.729 -0.3495  0.5968 -0.7179
    3CHL1  H26B  217   6.658   2.575   4.693 -1.4377  0.4413  0.3301
    3CHL1  H26C  218   6.664   2.436   4.606 -0.8541  1.5602 -0.8864
    3CHL1   C27  219   6.874   2.377   4.766  0.0646 -0.3339 -0.2588
    3CHL1  H27A  220   6.890   2.316   4.674 -0.7910  1.9701 -2.0118
    3CHL1  H27B  221   6.941   2.465   4.758  0.2113 -0.5294 -1.4569
    3CHL1  H27C  222   6.914   2.310   4.845  2.1265  1.6275  0.4525
    4CHL1    C3  223   6.577   4.586   5.729  0.0592  0.5483  0.2548
    4CHL1    H3  224   6.595   4.509   5.651 -1.0183 -0.8184  1.3150
    4CHL1    O3  225   6.579   4.522   5.853 -0.3579 -0.1371  0.5503
    4CHL1   H3'  226   6.504   4.570   5.890  1.3813  2.4445  0.9323
    4CHL1    C4  227   6.673   4.696   5.730 -0.4440 -0.3168 -0.0417
    4CHL1   H4A  228   6.669   4.763   5.820  3.3694 -0.3084  0.2996
    4CHL1   H4B  229   6.774   4.654   5.750 -1.4916 -2.2796  1.3921
    4CHL1    C5  230   6.670   4.780   5.599 -0.4837  0.6256 -0.6319
    4CHL1    C6  231   6.777   4.787   5.516  0.1128  0.3044 -0.3272
    4CHL1    H6  232   6.866   4.733   5.552 -1.1703 -0.0200  2.6556
    4CHL1    C7  233   6.780   4.859   5.386 -0.2005  0.3094 -0.0930
    4CHL1   H7A  234   6.878   4.910   5.375 -0.3465  0.7778  0.7138
    4CHL1   H7B  235   6.775   4.785   5.303  0.0958  0.6293 -0.3910
    4CHL1    C8  236   6.666   4.960   5.365  0.6245  0.1474 -0.2458
    4CHL1    H8  237   6.702   5.047   5.425  0.7580  0.3816 -0.6625
    4CHL1   C14  238   6.646   4.988   5.216 -0.0368  0.0326 -0.3213
    4CHL1   H14  239   6.600   4.902   5.162  0.3967 -0.3677 -0.0559
    4CHL1   C15  240   6.768   5.018   5.129 -0.7535  0.0856 -0.4638
    4CHL1  H15A  241   6.839   5.076   5.192 -0.1027 -1.7409  0.5664
    4CHL1  H15B  242   6.814   4.920   5.104  1.3642  0.2576  2.2539
    4CHL1   C16  243   6.710   5.091   5.005  0.3322 -0.5905  0.4749
    4CHL1  H16A  244   6.758   5.191   4.995  0.0432 -0.5643 -0.9418
    4CHL1  H16B  245   6.731   5.033   4.913 -1.7556  1.6653 -1.5803
    4CHL1   C17  246   6.556   5.120   5.038  0.1801  0.3225 -0.3115
    4CHL1   H17  247   6.510   5.036   4.982 -2.1018  0.0789  1.7702
    4CHL1   C13  248   6.544   5.101   5.192  0.2110  0.1670  1.0201
    4CHL1   C18  249   6.591   5.231   5.259  0.3095  0.5031 -0.6084
    4CHL1  H18A  250   6.512   5.309   5.258  0.7253  1.0006  1.3267
    4CHL1  H18B  251   6.608   5.205   5.365 -1.8649  1.6894  0.0984
    4CHL1  H18C  252   6.687   5.267   5.216 -0.2837 -0.8978 -3.3641
    4CHL1   C12  253   6.411   5.048   5.248  0.0936 -0.5296 -0.1455
    4CHL1  H12A  254   6.336   5.131   5.251  0.7719  0.0587  1.6891
    4CHL1  H12B  255   6.370   4.973   5.177  0.6089 -0.8492 -0.1051
    4CHL1   C11  256   6.414   4.997   5.395  0.7659 -0.7747 -0.6818
    4CHL1  H11A  257   6.428   5.090   5.454 -0.2187 -1.1176  0.1241
    4CHL1  H11B  258   6.325   4.937   5.422  1.3327 -0.4978  2.1061
    4CHL1    C9  259   6.535   4.903   5.422  0.5391  0.2727  0.3163
    4CHL1    H9  260   6.514   4.823   5.348  0.1573 -0.6202  1.3570
    4CHL1   C10  261   6.534   4.848   5.562 -0.0475 -0.0821 -0.4292
    4CHL1   C19  262   6.511   4.960   5.666 -0.0394  0.1810 -0.0096
    4CHL1  H19A  263   6.498   4.913   5.766 -0.0341 -2.6862 -1.2470
    4CHL1  H19B  264   6.600   5.026   5.672 -0.0542  0.1360  0.6918
    4CHL1  H19C  265   6.417   5.016   5.652 -0.6481 -1.0684 -1.2204
    4CHL1    C1  266   6.428   4.734   5.574  0.3244  0.0842 -0.4529
    4CHL1   H1A  267   6.324   4.774   5.565  0.2931 -0.3331 -2.2995
    4CHL1   H1B  268   6.455   4.670   5.487  1.7437  0.4497 -0.3060
    4CHL1    C2  269   6.436   4.646   5.707 -0.4357 -0.2458 -0.5524
    4CHL1   H2A  270   6.361   4.563   5.702  0.1725 -0.9490  1.2187
    4CHL1   H2B  271   6.408   4.707   5.795 -0.6082 -0.0889 -0.7168
    4CHL1   C20  272   6.486   5.239   4.961 -0.1651  0.1863 -0.3497
    4CHL1   H20  273   6.529   5.336   4.993  0.3163  0.6567 -2.3470
    4CHL1   C21  274   6.337   5.234   4.993 -0.2351  0.2787  0.1379
    4CHL1  H21A  275   6.285   5.138   4.974 -1.4676  1.0689 -0.6124
    4CHL1  H21B  276   6.278   5.307   4.933  2.4216  0.7220 -2.1881
    4CHL1  H21C  277   6.317   5.252   5.100  1.2548  2.5784  0.1127
    4CHL1   C22  278   6.518   5.218   4.805  0.2581  0.1460  0.1970
    4CHL1  H22A  279   6.628   5.207   4.795  0.6485  3.1821  0.3505
    4CHL1  H22B  280   6.463   5.124   4.780 -0.1538 -0.2593  2.3767
    4CHL1   C23  281   6.472   5.338   4.714 -0.3513 -0.0732  0.1521
    4CHL1  H23A  282   6.361   5.329   4.713 -0.2768 -1.1840 -1.5173
    4CHL1  H23B  283   6.487   5.426   4.781 -3.6920  0.0024  0.9855
    4CHL1   C24  284   6.539   5.336   4.572 -0.3680 -0.5549 -0.2424
    4CHL1  H24A  285   6.648   5.314   4.575  0.4507  2.9812  1.6490
    4CHL1  H24B  286   6.487   5.256   4.515  0.9783 -0.8586 -1.1058
    4CHL1   C25  287   6.514   5.467   4.503 -0.0243 -0.0698  0.1531
    4CHL1   H25  288   6.404   5.479   4.491  0.0769  0.8455  0.0648
    4CHL1   C26  289   6.573   5.589   4.579 -0.3017  0.4856  0.1656
    4CHL1  H26A  290   6.674   5.558   4.615  0.6044  0.2325 -2.4388
    4CHL1  H26B  291   6.581   5.681   4.519  1.2489  0.8260  0.8602
    4CHL1  H26C  292   6.516   5.616   4.671 -2.2341  0.5607 -0.9936
    4CHL1   C27  293   6.578   5.469   4.364  0.2759 -0.2160  0.6060
    4CHL1  H27A  294   6.542   5.558   4.308  0.1548 -1.8807 -2.1165
    4CHL1  H27B  295   6.687   5.486   4.377  0.1713 -0.2716  1.6670
    4CHL1  H27C  296   6.571   5.376   4.304 -1.8490 -1.2180  2.2942
    5CHL1    C3  297   5.183   5.274   6.458  0.5517  0.3961 -0.7065
    5CHL1    H3  298   5.088   5.319   6.422  0.2926  1.3738  1.1010
    5CHL1    O3  299   5.160   5.232   6.589  0.3513 -0.0806 -0.7377
    5CHL1   H3'  300   5.231   5.172   6.613  0.4325  0.0550 -0.6369
    5CHL1    C4  301   5.226   5.152   6.374  1.0385 -0.1946  0.4219
    5CHL1   H4A  302   5.319   5.118   6.425  0.5832 -2.3506 -0.0990
    5CHL1   H4B  303   5.147   5.075   6.382  1.7600 -1.4908 -3.2282
    5CHL1    C5  304   5.256   5.182   6.229 -0.2150 -0.0962 -0.0768
    5CHL1    C6  305   5.195   5.117   6.125 -0.2712 -0.3993  0.3799
    5CHL1    H6  306   5.122   5.036   6.143 -1.7200  0.3984 -1.6037
    5CHL1    C7  307   5.201   5.160   5.980  0.1603 -0.4552  0.6325
    5CHL1   H7A  308   5.225   5.074   5.914  2.4354 -0.9939  2.0380
    5CHL1   H7B  309   5.096   5.178   5.948  0.8834 -0.9243 -2.2761
    5CHL1    C8  310   5.303   5.273   5.940  0.1840  0.0598  0.2786
    5CHL1    H8  311   5.392   5.209   5.921 -1.7158 -1.8844 -2.9852
    5CHL1   C14  312   5.267   5.349   5.811 -0.5516 -0.5334  0.1618
    5CHL1   H14  313   5.177   5.411   5.830 -0.0663 -0.3123  1.9786
    5CHL1   C15  314   5.231   5.268   5.692 -0.7694 -0.6651  0.3717
    5CHL1  H15A  315   5.312   5.192   5.693  0.4968  0.6411  0.6352
    5CHL1  H15B  316   5.128   5.229   5.707 -1.5203 -0.0940 -2.6348
    5CHL1   C16  317   5.249   5.369   5.578  0.1106  0.1816 -0.2371
    5CHL1  H16A  318   5.316   5.326   5.500  0.2706  1.3312 -0.7489
    5CHL1  H16B  319   5.146   5.399   5.547  0.9789  0.4976 -3.1584
    5CHL1   C17  320   5.329   5.492   5.632  0.6074 -0.1009 -0.1884
    5CHL1   H17  321   5.244   5.562   5.638  0.3294 -0.4599  0.1012
    5CHL1   C13  322   5.383   5.449   5.771 -0.4258 -0.0421  0.3892
    5CHL1   C18  323   5.514   5.374   5.745 -0.5272 -0.6356 -0.5071
    5CHL1  H18A  324   5.594   5.448   5.724 -0.8178  0.0249  0.5882
    5CHL1  H18B  325   5.549   5.319   5.835 -2.2089  1.3220  1.4627
    5CHL1  H18C  326   5.492   5.301   5.664 -1.1336 -2.0071  0.8259
    5CHL1   C12  327   5.398   5.554   5.882  0.0185 -0.4096  0.2484
    5CHL1  H12A  328   5.475   5.627   5.852  0.4169 -2.1649 -3.6950
    5CHL1  H12B  329   5.302   5.608   5.896 -0.0034  0.1921 -1.9488
    5CHL1   C11  330   5.422   5.493   6.027  0.3189  0.0982  0.2898
    5CHL1  H11A  331   5.522   5.445   6.032  0.3479 -0.1809 -2.0321
    5CHL1  H11B  332   5.398   5.572   6.102 -0.8985  2.0133 -2.0086
    5CHL1    C9  333   5.320   5.373   6.059 -0.4375 -0.6641  1.1227
    5CHL1    H9  334   5.225   5.431   6.056  0.5077  0.8931 -0.3138
    5CHL1   C10  335   5.338   5.309   6.199 -0.1485 -0.1430 -0.1764
    5CHL1   C19  336   5.489   5.264   6.218 -0.1982  0.1782  0.3084
    5CHL1  H19A  337   5.548   5.358   6.225 -0.7545  0.5442  0.1908
    5CHL1  H19B  338   5.496   5.210   6.315 -0.4060  1.4451  1.0568
    5CHL1  H19C  339   5.522   5.195   6.138 -2.4042 -0.7898  0.1622
    5CHL1    C1  340   5.307   5.421   6.308 -0.5563 -0.4991  0.6679
    5CHL1   H1A  341   5.390   5.494   6.299  0.0594 -1.1493  0.8873
    5CHL1   H1B  342   5.216   5.472   6.271  0.6534  1.4542  0.2697
    5CHL1    C2  343   5.294   5.376   6.452 -0.0982  0.5589  0.0779
    5CHL1   H2A  344   5.269   5.465   6.513 -1.2356 -0.4114  1.0850
    5CHL1   H2B  345   5.389   5.333   6.492  1.0609  2.3553 -0.6217
    5CHL1   C20  346   5.425   5.551   5.529 -0.5747  0.0150  0.0806
    5CHL1   H20  347   5.507   5.479   5.506 -0.3429  0.3225 -0.0637
    5CHL1   C21  348   5.492   5.683   5.577 -0.7606  0.0006 -0.0409
    5CHL1  H21A  349   5.562   5.723   5.500 -0.7786  1.6608  0.7602
    5CHL1  H21B  350   5.551   5.679   5.671  2.5465 -2.2397 -1.9808
    5CHL1  H21C  351   5.420   5.767   5.568 -2.8071 -1.8020 -1.2006
    5CHL1   C22  352   5.364   5.570   5.386 -0.4481  0.0855  0.5454
    5CHL1  H22A  353   5.299   5.490   5.344 -1.3799  0.9931  0.2038
    5CHL1  H22B  354   5.305   5.665   5.387 -1.1400 -0.3302  2.3556
    5CHL1   C23  355   5.474   5.584   5.278  0.4024  0.0924  0.4007
    5CHL1  H23A  356   5.436   5.664   5.211  2.6482  1.4471  0.6296
    5CHL1  H23B  357   5.559   5.625   5.337  0.2304 -0.1852  0.8538
    5CHL1   C24  358   5.510   5.456   5.198 -0.5191  0.0964 -0.1759
    5CHL1  H24A  359   5.539   5.375   5.269 -0.1357 -0.1093 -0.5642
    5CHL1  H24B  360   5.428   5.413   5.138 -1.1170 -0.5677  1.0771
    5CHL1   C25  361   5.626   5.463   5.095  0.1543 -0.3448 -0.4222
    5CHL1   H25  362   5.661   5.362   5.064 -1.5060 -0.8148 -0.8680
    5CHL1   C26  363   5.600   5.538   4.964 -0.1857 -0.3699 -0.0382
    5CHL1  H26A  364   5.549   5.635   4.982  0.9528  0.3523 -0.5854
    5CHL1  H26B  365   5.702   5.564   4.928 -0.1432 -1.7875 -0.9927
    5CHL1  H26C  366   5.542   5.490   4.882 -2.5938  1.8478  0.2286
    5CHL1   C27  367   5.748   5.533   5.162 -0.0111  0.3869  0.5415
    5CHL1  H27A  368   5.778   5.471   5.249 -1.0882 -0.7014  0.1573
    5CHL1  H27B  369   5.832   5.533   5.089  0.9835 -1.4759  1.6289
    5CHL1  H27C  370   5.727   5.641   5.183 -1.8683  0.6606 -2.2297
    6CHL1    C3  371   6.183   1.891   6.165  0.4890 -0.8975  0.8656
    6CHL1    H3  372   6.142   1.796   6.125  2.1657 -0.9647 -0.8356
    6CHL1    O3  373   6.247   1.854   6.281  0.0282  0.1262 -0.1433
    6CHL1   H3'  374   6.284   1.927   6.331  1.2081 -0.1520 -0.5690
    6CHL1    C4  375   6.272   1.948   6.055  0.2005 -0.5625 -0.3693
    6CHL1   H4A  376   6.319   2.034   6.107 -2.7039 -0.6261  2.7265
    6CHL1   H4B  377   6.351   1.871   6.038 -1.8855 -2.7394 -0.8428
    6CHL1    C5  378   6.195   1.981   5.925  1.0927 -0.7361 -0.2736
    6CHL1    C6  379   6.224   1.925   5.806 -0.5097 -0.0540 -0.0775
    6CHL1    H6  380   6.312   1.859   5.801  0.2368  0.7633  1.4433
    6CHL1    C7  381   6.155   1.967   5.676  0.0309  0.3997  0.1488
    6CHL1   H7A  382   6.234   1.983   5.599  1.1583 -0.4334  1.1118
    6CHL1   H7B  383   6.096   1.885   5.630  1.0348  0.4181 -1.2514
    6CHL1    C8  384   6.067   2.098   5.698 -0.5624  0.2770  0.1122
    6CHL1    H8  385   6.142   2.180   5.701  1.2240 -1.2813 -0.0394
    6CHL1   C14  386   5.975   2.108   5.577  0.0164  0.6768 -0.6193
    6CHL1   H14  387   5.902   2.025   5.585 -0.8099  1.3855 -0.7500
    6CHL1   C15  388   6.048   2.089   5.440  0.4098  0.1843  0.7039
    6CHL1  H15A  389   6.148   2.138   5.430  0.3362  0.3061  0.5763
    6CHL1  H15B  390   6.055   1.984   5.406 -1.5906  0.6517 -1.3387
    6CHL1   C16  391   5.960   2.170   5.339 -0.3509 -0.0055  0.3606
    6CHL1  H16A  392   6.003   2.267   5.304 -0.1497 -0.9328 -2.1789
    6CHL1  H16B  393   5.925   2.125   5.244 -0.1940  0.4484  0.0831
    6CHL1   C17  394   5.838   2.218   5.434 -0.0061 -0.4709 -0.7668
    6CHL1   H17  395   5.771   2.130   5.436  1.8047 -1.8851  0.2266
    6CHL1   C13  396   5.898   2.235   5.575  0.4555  0.0846  0.4876
    6CHL1   C18  397   5.993   2.358   5.575 -0.4344 -1.2049  0.5671
    6CHL1  H18A  398   6.066   2.367   5.491 -1.2488  0.5165  0.0078
    6CHL1  H18B  399   5.931   2.450   5.574 -1.2725 -1.7635 -0.0929
    6CHL1  H18C  400   6.056   2.358   5.667 -0.7459 -1.6533  0.7845
    6CHL1   C12  401   5.800   2.232   5.697 -0.1747  0.3417  0.2025
    6CHL1  H12A  402   5.745   2.328   5.706 -0.8020 -0.0222  0.2761
    6CHL1  H12B  403   5.722   2.153   5.692  0.7433 -0.5546 -0.1985
    6CHL1   C11  404   5.881   2.207   5.821  0.0900 -0.1614 -0.5775
    6CHL1  H11A  405   5.934   2.304   5.833  3.3591 -1.8945  0.3008
    6CHL1  H11B  406   5.811   2.190   5.906  0.0607 -0.5894 -0.6840
    6CHL1    C9  407   5.982   2.094   5.818  0.2858  0.1065  0.6099
    6CHL1    H9  408   5.930   1.999   5.795 -1.7246  2.0609 -4.2612
    6CHL1   C10  409   6.069   2.077   5.946  0.3913 -0.2862 -0.3868
    6CHL1   C19  410   6.117   2.217   5.996 -0.3765  0.5440  0.1744
    6CHL1  H19A  411   6.167   2.270   5.912  0.8662  0.1303  0.6446
    6CHL1  H19B  412   6.030   2.276   6.033  0.1010 -0.2823  2.8225
    6CHL1  H19C  413   6.193   2.220   6.077  1.1263 -1.5115 -1.0847
    6CHL1    C1  414   5.982   2.015   6.064  0.4042  0.2442 -0.8172
    6CHL1   H1A  415   5.896   2.079   6.092  0.1540 -0.7551  0.8136
    6CHL1   H1B  416   5.940   1.921   6.023 -4.1982  1.8972 -0.4457
    6CHL1    C2  417   6.054   1.985   6.197  0.7085 -0.4877 -0.0463
    6CHL1   H2A  418   5.992   1.922   6.264  1.1113 -0.9305 -0.0829
    6CHL1   H2B  419   6.085   2.083   6.239 -0.4412 -1.0491  2.2827
    6CHL1   C20  420   5.756   2.334   5.374  0.3219  0.8038  0.1572
    6CHL1   H20  421   5.821   2.421   5.352  2.1837 -0.3898  0.6775
    6CHL1   C21  422   5.642   2.377   5.474 -0.1700 -0.2328  0.1582
    6CHL1  H21A  423   5.698   2.425   5.557  2.5789 -0.9212 -1.1850
    6CHL1  H21B  424   5.570   2.301   5.512  1.1118 -0.5121  2.2090
    6CHL1  H21C  425   5.586   2.457   5.421 -0.7033 -0.6765  0.0441
    6CHL1   C22  426   5.704   2.292   5.233  0.0624 -0.1533 -0.2309
    6CHL1  H22A  427   5.775   2.251   5.157  0.2351  1.6956 -1.1288
    6CHL1  H22B  428   5.623   2.216   5.243  3.0988 -3.6785 -0.2636
    6CHL1   C23  429   5.653   2.416   5.168  0.1354 -0.1423  0.7688
    6CHL1  H23A  430   5.544   2.427   5.188  0.1185  1.1102  0.1247
    6CHL1  H23B  431   5.703   2.500   5.221  3.5500 -1.0214 -0.7896
    6CHL1   C24  432   5.676   2.432   5.015  0.9057  0.6085 -0.2479
    6CHL1  H24A  433   5.781   2.398   5.001  1.3210  1.3681  0.8484
    6CHL1  H24B  434   5.604   2.366   4.961 -0.0154  1.1957  0.2295
    6CHL1   C25  435   5.652   2.578   4.973 -0.4203  0.5388  1.1197
    6CHL1   H25  436   5.721   2.631   5.041  0.0855  0.2166  0.8591
    6CHL1   C26  437   5.681   2.592   4.825  0.7508 -0.3045  0.1149
    6CHL1  H26A  438   5.792   2.589   4.813  0.7460 -0.5437  0.1179
    6CHL1  H26B  439   5.639   2.507   4.768 -1.9584  0.1368  1.3259
    6CHL1  H26C  440   5.639   2.687   4.787 -1.1883 -1.0635  0.2677
    6CHL1   C27  441   5.508   2.627   4.998  0.1236  0.2696 -0.1138
    6CHL1  H27A  442   5.444   2.577   4.922  1.7006 -0.3030 -1.1213
    6CHL1  H27B  443   5.464   2.626   5.100 -0.9958 -0.5312 -0.5799
    6CHL1  H27C  444   5.505   2.735   4.972  1.4033  0.4977  0.6222
    7CHL1    C3  445   3.860   0.755   5.998 -0.1957  0.3359  0.5080
    7CHL1    H3  446   3.790   0.833   5.962 -0.3896 -0.1009 -0.0732
    7CHL1    O3  447   3.855   0.724   6.136 -0.5647 -0.5984  0.5225
    7CHL1   H3'  448   3.916   0.649   6.135  0.4998  0.2344 -0.2295
    7CHL1    C4  449   3.833   0.619   5.925  0.7945  0.0255 -0.7702
    7CHL1   H4A  450   3.906   0.553   5.975 -0.0159  0.1418  0.6270
    7CHL1   H4B  451   3.730   0.588   5.954  0.9885  1.8802  2.3891
    7CHL1    C5  452   3.858   0.648   5.775  0.4757 -0.6312 -0.1617
    7CHL1    C6  453   3.757   0.623   5.696 -0.0747 -0.0542 -0.6812
    7CHL1    H6  454   3.670   0.573   5.741 -0.0251  0.6931  0.2753
    7CHL1    C7  455   3.770   0.620   5.543  0.2682  0.6736 -0.3966
    7CHL1   H7A  456   3.727   0.539   5.480 -0.8882  2.8495 -2.5892
    7CHL1   H7B  457   3.726   0.720   5.521 -0.8012  0.9131  2.4518
    7CHL1    C8  458   3.918   0.644   5.502  0.5434 -0.3745 -0.3358
    7CHL1    H8  459   3.966   0.545   5.517 -1.1076 -1.0717  0.5524
    7CHL1   C14  460   3.931   0.681   5.355  0.6522  0.0211 -0.1888
    7CHL1   H14  461   3.883   0.781   5.340 -0.1474 -0.1604  0.9567
    7CHL1   C15  462   3.871   0.584   5.257  0.0347  0.7014  0.4215
    7CHL1  H15A  463   3.860   0.475   5.273  2.6693  0.0423 -1.5742
    7CHL1  H15B  464   3.770   0.625   5.235  0.5989  1.3662 -1.0740
    7CHL1   C16  465   3.934   0.602   5.117  0.0007  0.7070  0.2727
    7CHL1  H16A  466   3.992   0.512   5.086 -1.9021 -0.9406  1.2197
    7CHL1  H16B  467   3.861   0.616   5.034 -0.2880 -1.3316  0.1146
    7CHL1   C17  468   4.035   0.719   5.151  0.5336 -0.3648  0.8323
    7CHL1   H17  469   3.975   0.813   5.139  0.2243 -0.6263  0.2697
    7CHL1   C13  470   4.068   0.708   5.294  0.1382  0.4930 -0.7733
    7CHL1   C18  471   4.160   0.585   5.317 -1.1442  0.5605  0.0153
    7CHL1  H18A  472   4.163   0.557   5.424  0.6530  0.8625  0.0704
    7CHL1  H18B  473   4.123   0.496   5.261 -0.0617 -0.6496  1.1556
    7CHL1  H18C  474   4.268   0.597   5.293 -0.1140 -1.5616  2.9975
    7CHL1   C12  475   4.139   0.826   5.381  0.1831  0.4534  0.3818
    7CHL1  H12A  476   4.249   0.819   5.363  0.7310  1.7767  2.8028
    7CHL1  H12B  477   4.089   0.916   5.340  0.3488  0.3288 -0.1027
    7CHL1   C11  478   4.126   0.801   5.536  0.3103 -0.1328 -0.1241
    7CHL1  H11A  479   4.203   0.725   5.558 -0.1376 -0.2867  0.9301
    7CHL1  H11B  480   4.161   0.897   5.580  1.5993  0.6328 -2.6066
    7CHL1    C9  481   3.983   0.754   5.588  0.6060  0.4014  0.2190
    7CHL1    H9  482   3.915   0.841   5.579  0.7157  0.4280 -0.4100
    7CHL1   C10  483   3.992   0.714   5.737  0.1047  0.5512  0.3376
    7CHL1   C19  484   4.102   0.603   5.763  0.0711  0.1179 -0.2597
    7CHL1  H19A  485   4.098   0.519   5.691 -1.1570 -1.6046  1.7311
    7CHL1  H19B  486   4.206   0.643   5.760  0.6464 -1.3384 -0.4970
    7CHL1  H19C  487   4.087   0.555   5.862  0.8298  2.2843  0.9777
    7CHL1    C1  488   4.024   0.838   5.820  0.0696 -0.3637  0.9074
    7CHL1   H1A  489   4.119   0.889   5.793 -0.0307 -0.8534 -0.4252
    7CHL1   H1B  490   3.944   0.913   5.797  0.9393  0.5761  0.8608
    7CHL1    C2  491   4.005   0.805   5.969 -0.6883 -0.1049  0.2545
    7CHL1   H2A  492   4.052   0.882   6.034  2.9180 -0.2913 -1.8782
    7CHL1   H2B  493   4.069   0.719   5.997  0.3080  0.2190 -0.9304
    7CHL1   C20  494   4.151   0.724   5.057 -0.3146  0.2912  0.6340
    7CHL1   H20  495   4.233   0.661   5.098  0.0308  0.1155 -0.2971
    7CHL1   C21  496   4.214   0.867   5.049  0.6612 -0.0908  0.4191
    7CHL1  H21A  497   4.236   0.900   5.153 -1.6328 -2.1135  1.6432
    7CHL1  H21B  498   4.140   0.940   5.010 -0.7602 -1.2253  0.9118
    7CHL1  H21C  499   4.309   0.862   4.991  1.7467  0.2461  2.0845
    7CHL1   C22  500   4.123   0.673   4.913 -0.1288 -0.4480 -0.0200
    7CHL1  H22A  501   4.215   0.695   4.854 -0.5428  0.6595 -0.2682
    7CHL1  H22B  502   4.119   0.563   4.927  0.1490 -0.6157 -1.1489
    7CHL1   C23  503   4.009   0.738   4.835  0.5358  0.5412  0.1930
    7CHL1  H23A  504   3.921   0.765   4.898  0.2754  3.0205 -1.1053
    7CHL1  H23B  505   4.056   0.830   4.793  1.0073  0.0837 -0.2933
    7CHL1   C24  506   3.956   0.643   4.731  0.0460  0.5623  0.3315
    7CHL1  H24A  507   4.037   0.607   4.664 -0.1758  0.7033 -0.0203
    7CHL1  H24B  508   3.929   0.549   4.783 -1.3258  0.4171 -0.5576
    7CHL1   C25  509   3.835   0.692   4.647  0.2244 -0.3206 -0.1901
    7CHL1   H25  510   3.758   0.739   4.712  1.4177  0.2146  0.8511
    7CHL1   C26  511   3.859   0.801   4.536 -0.0848  0.5876  0.3952
    7CHL1  H26A  512   3.883   0.888   4.601 -1.3049 -1.6387  4.2043
    7CHL1  H26B  513   3.951   0.773   4.481  0.4821 -0.4690  1.7986
    7CHL1  H26C  514   3.776   0.816   4.463 -0.8262 -0.1214  1.0733
    7CHL1   C27  515   3.767   0.575   4.586  0.1054  0.0070  0.3544
    7CHL1  H27A  516   3.833   0.536   4.506 -0.5690  0.6714 -0.5519
    7CHL1  H27B  517   3.762   0.493   4.661  0.9213  0.3775  0.8312
    7CHL1  H27C  518   3.675   0.610   4.533  0.9401  0.0774 -1.0952
    8CHL1    C3  519   4.127   4.247   6.140 -0.7377  0.5660 -0.2773
    8CHL1    H3  520   4.221   4.303   6.120 -0.2143  0.0907  0.7616
    8CHL1    O3  521   4.116   4.199   6.270  0.0620  0.2276 -0.3915
    8CHL1   H3'  522   4.042   4.139   6.276 -1.0455  1.6888  3.0058
    8CHL1    C4  523   4.016   4.351   6.110 -0.0473 -0.1609 -0.9847
    8CHL1   H4A  524   3.915   4.318   6.145 -0.5881  0.6832 -1.7211
    8CHL1   H4B  525   4.039   4.436   6.177 -2.9325  0.5748 -0.7854
    8CHL1    C5  526   4.009   4.390   5.958  0.4712  0.5239  0.2953
    8CHL1    C6  527   4.001   4.516   5.922 -0.2906  0.4689 -0.5053
    8CHL1    H6  528   3.997   4.599   5.995  0.0505  1.5674 -1.6958
    8CHL1    C7  529   4.000   4.564   5.782  0.2718 -0.2006  0.0443
    8CHL1   H7A  530   3.931   4.649   5.763 -0.4620 -0.3937  1.6926
    8CHL1   H7B  531   4.094   4.623   5.772 -0.8435  1.3409 -2.3459
    8CHL1    C8  532   3.987   4.457   5.675  0.0305  0.4020  0.4841
    8CHL1    H8  533   3.882   4.421   5.667  0.5139 -0.7303 -1.4400
    8CHL1   C14  534   4.032   4.505   5.539  0.2427 -1.1908 -0.2217
    8CHL1   H14  535   4.139   4.529   5.552 -0.3137  1.4013  0.0491
    8CHL1   C15  536   3.965   4.637   5.481 -0.3990  0.0348  0.9359
    8CHL1  H15A  537   3.856   4.619   5.492 -0.2769 -1.4905 -0.1178
    8CHL1  H15B  538   3.999   4.723   5.542  2.4903 -0.3263 -0.0174
    8CHL1   C16  539   4.007   4.639   5.337  0.2238  0.5887 -0.1109
    8CHL1  H16A  540   3.920   4.670   5.274 -1.2194 -2.2104  0.3615
    8CHL1  H16B  541   4.083   4.719   5.324  1.1395 -0.2439  0.0531
    8CHL1   C17  542   4.048   4.492   5.302 -0.2810  0.5459  0.0505
    8CHL1   H17  543   4.159   4.500   5.311 -0.0746 -1.2120 -0.5138
    8CHL1   C13  544   4.021   4.401   5.426 -0.1679 -0.0498 -0.3758
    8CHL1   C18  545   3.872   4.343   5.414  0.3247  0.5620  0.2446
    8CHL1  H18A  546   3.806   4.432   5.414  0.0854  0.3857  0.1462
    8CHL1  H18B  547   3.864   4.289   5.317 -0.9558 -2.2227  1.7863
    8CHL1  H18C  548   3.851   4.278   5.501  0.4006 -1.0225 -0.8672
    8CHL1   C12  549   4.127   4.296   5.470 -0.2893 -0.0259  0.2356
    8CHL1  H12A  550   4.126   4.211   5.399  0.2132 -1.6206  2.0651
    8CHL1  H12B  551   4.230   4.339   5.467  0.7819 -2.4685 -0.1802
    8CHL1   C11  552   4.100   4.235   5.602 -0.0821 -0.0025 -1.2556
    8CHL1  H11A  553   4.009   4.171   5.596 -0.3336  0.3447 -1.1717
    8CHL1  H11B  554   4.178   4.158   5.621 -1.6679 -1.0528  1.7134
    8CHL1    C9  555   4.069   4.341   5.713  0.4379  0.6437  0.1167
    8CHL1    H9  556   4.176   4.367   5.727  0.9942 -1.4863  0.1983
    8CHL1   C10  557   4.026   4.281   5.848  0.0637  0.1810  0.1202
    8CHL1   C19  558   3.894   4.203   5.837 -0.2101  0.3376 -0.0835
    8CHL1  H19A  559   3.902   4.121   5.763 -2.3741 -0.9337  1.0011
    8CHL1  H19B  560   3.865   4.156   5.934  0.3344  1.4601  0.6437
    8CHL1  H19C  561   3.811   4.272   5.812  0.1262 -0.3077 -3.3337
    8CHL1    C1  562   4.126   4.172   5.899 -0.3210 -0.2357 -0.0154
    8CHL1   H1A  563   4.108   4.078   5.843 -2.2651 -0.0800  0.2814
    8CHL1   H1B  564   4.230   4.203   5.876  0.0815 -0.4005  1.5116
    8CHL1    C2  565   4.116   4.125   6.042  0.4298 -0.1353 -0.7189
    8CHL1   H2A  566   4.195   4.053   6.072  1.1789  1.8995  2.8081
    8CHL1   H2B  567   4.018   4.080   6.071  0.0721  0.1717 -1.4214
    8CHL1   C20  568   4.004   4.441   5.161 -0.5776  0.4664  0.1262
    8CHL1   H20  569   3.896   4.419   5.172 -0.3284  0.0800  2.1919
    8CHL1   C21  570   4.077   4.307   5.125  0.9535  0.3770  0.5493
    8CHL1  H21A  571   4.186   4.325   5.131  1.2534 -0.5365 -1.4671
    8CHL1  H21B  572   4.042   4.269   5.027 -1.6186  0.1670  1.4683
    8CHL1  H21C  573   4.040   4.230   5.196 -1.0458  1.7803  1.1380
    8CHL1   C22  574   4.026   4.548   5.050 -0.2288  0.3756 -0.0672
    8CHL1  H22A  575   3.974   4.642   5.080 -0.3341 -0.2147  1.7156
    8CHL1  H22B  576   4.132   4.575   5.036  0.3905 -1.5168  0.6093
    8CHL1   C23  577   3.975   4.504   4.918 -0.1684 -0.4028 -0.3927
    8CHL1  H23A  578   4.038   4.424   4.874  1.1220  1.2692 -1.7444
    8CHL1  H23B  579   3.876   4.463   4.947  0.6062 -0.3277  2.7112
    8CHL1   C24  580   3.973   4.628   4.819 -0.1706  0.2319  0.4046
    8CHL1  H24A  581   3.927   4.716   4.869  1.2957 -0.1873  2.6277
    8CHL1  H24B  582   4.083   4.644   4.813 -0.0795  0.1197  1.6177
    8CHL1   C25  583   3.905   4.621   4.685 -0.2868  0.2373  0.2356
    8CHL1   H25  584   3.932   4.706   4.619 -2.2590  1.3969  0.8351
    8CHL1   C26  585   3.946   4.487   4.623  0.4927 -0.2631 -0.1009
    8CHL1  H26A  586   4.055   4.471   4.639  0.7450  0.2483 -1.1748
    8CHL1  H26B  587   3.873   4.408   4.649 -2.1460  1.7497 -0.9679
    8CHL1  H26C  588   3.929   4.500   4.514 -0.7659 -0.3049  0.0769
    8CHL1   C27  589   3.751   4.623   4.709 -1.2295  1.1286 -0.1248
    8CHL1  H27A  590   3.712   4.530   4.756 -3.4301  2.1325  0.1989
    8CHL1  H27B  591   3.724   4.700   4.785 -1.6543 -2.0124  3.1518
    8CHL1  H27C  592   3.686   4.633   4.619 -1.5958 -0.5551 -0.0817
    9CHL1    C3  593   0.063   2.809   6.098  0.3777  0.2899 -0.4420
    9CHL1    H3  594   0.160   2.830   6.047  0.1633  2.0047 -0.2202
    9CHL1    O3  595   0.103   2.782   6.231 -0.0417  0.1018  0.3651
    9CHL1   H3'  596   0.015   2.776   6.268 -0.8762 -0.5301 -1.6194
    9CHL1    C4  597  -0.024   2.936   6.083 -0.8303  0.6304  0.4214
    9CHL1   H4A  598  -0.110   2.908   6.147 -0.2704 -0.9198  0.5380
    9CHL1   H4B  599   0.030   3.018   6.135 -1.7807 -0.0029  2.5166
    9CHL1    C5  600  -0.068   2.952   5.936 -1.1468  0.6647 -0.2804
    9CHL1    C6  601  -0.025   3.059   5.873 -1.2251  0.4457  0.3012
    9CHL1    H6  602   0.041   3.123   5.934 -0.2768 -0.9726  0.8293
    9CHL1    C7  603  -0.053   3.091   5.730  0.1672  0.4786  0.1955
    9CHL1   H7A  604  -0.099   3.192   5.728  0.1051  0.4373 -0.7256
    9CHL1   H7B  605   0.037   3.084   5.666 -0.6091 -0.4220 -0.8377
    9CHL1    C8  606  -0.163   2.991   5.674  0.4916 -0.4651  0.5132
    9CHL1    H8  607  -0.264   3.031   5.700 -0.0489  0.6962 -2.7885
    9CHL1   C14  608  -0.160   3.002   5.512  0.2523  0.4075  0.4685
    9CHL1   H14  609  -0.064   2.954   5.482  0.5365 -0.1888  2.2201
    9CHL1   C15  610  -0.143   3.134   5.438  0.2870  0.4322 -0.0149
    9CHL1  H15A  611  -0.210   3.209   5.485  0.1068 -0.4468  1.1951
    9CHL1  H15B  612  -0.038   3.169   5.446  0.2463  0.2324  1.9278
    9CHL1   C16  613  -0.208   3.118   5.298  0.3271  0.3302 -0.0778
    9CHL1  H16A  614  -0.311   3.158   5.289 -1.1386 -3.1680 -0.1437
    9CHL1  H16B  615  -0.137   3.153   5.219  0.7153 -2.8839 -1.3158
    9CHL1   C17  616  -0.241   2.963   5.283  1.1379  0.1715 -0.2956
    9CHL1   H17  617  -0.146   2.910   5.262  1.8836  2.1464 -2.2936
    9CHL1   C13  618  -0.260   2.919   5.435  0.4120  0.3161  0.2837
    9CHL1   C18  619  -0.402   2.962   5.479 -0.0885  0.6410  0.4512
    9CHL1  H18A  620  -0.423   3.067   5.451 -2.9909 -0.5493 -2.4571
    9CHL1  H18B  621  -0.488   2.915   5.428 -1.0844  1.8605  0.9468
    9CHL1  H18C  622  -0.408   2.945   5.589  1.1246 -0.3849  0.3885
    9CHL1   C12  623  -0.240   2.775   5.475 -0.7649  0.3294 -0.6034
    9CHL1  H12A  624  -0.326   2.716   5.435 -0.3185 -0.0493 -1.0130
    9CHL1  H12B  625  -0.147   2.738   5.427 -1.4522 -0.3595 -1.4588
    9CHL1   C11  626  -0.246   2.746   5.628 -0.5283 -0.5047  0.9501
    9CHL1  H11A  627  -0.348   2.745   5.671 -0.4358 -0.4396  1.1724
    9CHL1  H11B  628  -0.204   2.645   5.646  0.0736 -0.3801  0.2887
    9CHL1    C9  629  -0.147   2.851   5.714  0.9267  0.6942  0.6432
    9CHL1    H9  630  -0.048   2.822   5.674  1.3451  3.3873 -0.4967
    9CHL1   C10  631  -0.142   2.837   5.865  0.6605  0.4471 -0.1773
    9CHL1   C19  632  -0.282   2.834   5.932  0.5289 -0.3980 -0.3263
    9CHL1  H19A  633  -0.342   2.918   5.891 -0.9850 -1.1517  0.2434
    9CHL1  H19B  634  -0.340   2.740   5.920 -1.3397  0.6521  0.0404
    9CHL1  H19C  635  -0.270   2.844   6.042  0.7458 -0.0469 -0.3775
    9CHL1    C1  636  -0.062   2.706   5.900 -0.0307 -0.1870  0.3339
    9CHL1   H1A  637  -0.125   2.622   5.862  1.4525 -1.8736  1.4369
    9CHL1   H1B  638   0.026   2.711   5.832  1.0343 -0.8050  1.6370
    9CHL1    C2  639  -0.022   2.689   6.043  0.1153  0.1440  0.0775
    9CHL1   H2A  640   0.035   2.593   6.045 -1.6562 -0.9604  2.3981
    9CHL1   H2B  641  -0.109   2.674   6.110  1.7437  0.9887  2.5141
    9CHL1   C20  642  -0.348   2.934   5.175 -0.1627  0.0306 -0.9160
    9CHL1   H20  643  -0.446   2.953   5.222 -0.6652 -1.1197 -1.4524
    9CHL1   C21  644  -0.333   2.778   5.147  0.2539 -1.2209 -0.8345
    9CHL1  H21A  645  -0.404   2.733   5.075 -1.7749  0.3766  0.0569
    9CHL1  H21B  646  -0.358   2.718   5.237  0.5595 -0.5908 -0.3177
    9CHL1  H21C  647  -0.229   2.757   5.112  0.1514 -0.4495 -1.6365
    9CHL1   C22  648  -0.315   3.013   5.042  0.6526 -0.1529 -0.6039
    9CHL1  H22A  649  -0.332   3.121   5.060  1.6750 -0.2528  1.2205
    9CHL1  H22B  650  -0.208   2.992   5.018  1.5929  3.2153  0.1655
    9CHL1   C23  651  -0.403   2.974   4.924  0.8409 -1.0527  0.7264
    9CHL1  H23A  652  -0.398   2.866   4.898  1.5199 -0.6860 -0.7737
    9CHL1  H23B  653  -0.508   2.990   4.957  1.2266 -1.1802  2.0946
    9CHL1   C24  654  -0.361   3.043   4.786  0.6966  0.1540 -1.7594
    9CHL1  H24A  655  -0.378   3.152   4.800 -1.2208 -0.2922 -0.1565
    9CHL1  H24B  656  -0.257   3.031   4.751 -0.1936  0.0991 -4.6733
    9CHL1   C25  657  -0.447   2.997   4.664  0.1792  0.4220  0.0558
    9CHL1   H25  658  -0.424   2.888   4.657  1.5070  0.6133  1.0501
    9CHL1   C26  659  -0.597   3.012   4.693  0.1366 -0.0103  0.0168
    9CHL1  H26A  660  -0.635   3.115   4.710 -1.0417 -0.6290  1.3496
    9CHL1  H26B  661  -0.653   2.982   4.603 -1.4463  4.0765 -0.5522
    9CHL1  H26C  662  -0.628   2.960   4.787  1.8634  1.1988  1.3334
    9CHL1   C27  663  -0.403   3.055   4.529 -0.0334 -0.0962 -0.2293
    9CHL1  H27A  664  -0.302   3.030   4.491 -1.0873  0.6463 -3.9205
    9CHL1  H27B  665  -0.466   3.008   4.451  0.2151 -0.3153 -0.2958
    9CHL1  H27C  666  -0.423   3.165   4.524  0.0713 -0.0589  0.0939
   10CHL1    C3  667   6.702   6.049   6.019  0.5283 -0.5239 -0.1337
   10CHL1    H3  668   6.792   5.985   6.027  0.2490 -0.7464  1.6771
   10CHL1    O3  669   6.649   6.075   6.152 -0.4614  0.0930  0.0261
   10CHL1   H3'  670   6.726   6.097   6.206  1.1238  0.5168 -2.2460
   10CHL1    C4  671   6.718   6.184   5.950 -1.3093  0.4993 -0.4457
   10CHL1   H4A  672   6.626   6.243   5.970 -0.8505  1.1416 -0.1754
   10CHL1   H4B  673   6.798   6.242   6.001 -0.3847 -3.0436  2.4912
   10CHL1    C5  674   6.743   6.163   5.799  0.4610  0.1828 -0.4552
   10CHL1    C6  675   6.851   6.216   5.748 -0.4078  0.5317  0.3771
   10CHL1    H6  676   6.914   6.279   5.813 -2.1186  0.8065  1.8622
   10CHL1    C7  677   6.899   6.203   5.607  1.3280  0.0727  0.6883
   10CHL1   H7A  678   6.928   6.299   5.560  1.5605 -0.2240  0.2059
   10CHL1   H7B  679   6.991   6.141   5.599  0.7495 -0.7206 -0.1179
   10CHL1    C8  680   6.780   6.142   5.519 -0.2327  0.1672 -0.2031
   10CHL1    H8  681   6.716   6.227   5.486 -0.3999 -0.2258 -0.9009
   10CHL1   C14  682   6.843   6.092   5.390  0.4311  0.0896  0.8647
   10CHL1   H14  683   6.899   6.001   5.419 -0.9483 -1.5629 -1.3223
   10CHL1   C15  684   6.935   6.183   5.302 -0.7728 -0.1489  0.2007
   10CHL1  H15A  685   6.913   6.291   5.291 -0.1540  0.1970  2.0214
   10CHL1  H15B  686   7.036   6.164   5.344  0.5522 -1.3783 -3.1554
   10CHL1   C16  687   6.922   6.117   5.164  0.1616  0.8174  0.3970
   10CHL1  H16A  688   6.892   6.184   5.082 -0.4492 -0.9162 -0.8590
   10CHL1  H16B  689   7.022   6.076   5.139 -1.1516 -1.5467 -1.4294
   10CHL1   C17  690   6.817   5.999   5.170 -0.4634  0.3377 -0.3026
   10CHL1   H17  691   6.878   5.907   5.183  1.4976  1.4602 -1.1830
   10CHL1   C13  692   6.734   6.040   5.291 -0.7795  0.1366  0.5258
   10CHL1   C18  693   6.633   6.151   5.249 -1.2199  0.0588  0.1615
   10CHL1  H18A  694   6.559   6.123   5.170 -0.1486 -0.4742 -0.6720
   10CHL1  H18B  695   6.573   6.192   5.333  1.4647  0.6370  1.8889
   10CHL1  H18C  696   6.690   6.238   5.211 -1.1418 -0.5529 -1.1979
   10CHL1   C12  697   6.665   5.921   5.363 -0.6964 -0.0228  0.0674
   10CHL1  H12A  698   6.587   5.868   5.303 -1.0106  0.6766 -0.1468
   10CHL1  H12B  699   6.743   5.843   5.379 -0.1696  0.0855 -1.7577
   10CHL1   C11  700   6.600   5.965   5.489 -0.1841 -0.1615  0.0266
   10CHL1  H11A  701   6.520   6.039   5.468  1.8793  2.1562 -0.1135
   10CHL1  H11B  702   6.553   5.880   5.543 -0.9219 -0.7487 -1.4728
   10CHL1    C9  703   6.704   6.028   5.586  0.2028 -0.3925 -0.5843
   10CHL1    H9  704   6.778   5.948   5.607  1.9117  0.7929 -1.8079
   10CHL1   C10  705   6.652   6.069   5.724  0.0742 -0.0291  0.0179
   10CHL1   C19  706   6.513   6.144   5.709  1.0442  0.0525  0.4975
   10CHL1  H19A  707   6.534   6.237   5.652 -0.9455  0.0939 -0.2285
   10CHL1  H19B  708   6.430   6.083   5.667  1.1716 -0.5470  1.0922
   10CHL1  H19C  709   6.471   6.176   5.806  0.4043  1.3617 -0.1795
   10CHL1    C1  710   6.633   5.938   5.803 -0.2249 -0.1520 -0.4424
   10CHL1   H1A  711   6.550   5.879   5.759 -0.5099 -0.1238  0.0379
   10CHL1   H1B  712   6.726   5.877   5.805 -1.2083 -1.7237 -0.5827
   10CHL1    C2  713   6.596   5.961   5.958  0.2756  0.3618  0.8371
   10CHL1   H2A  714   6.593   5.863   6.010 -0.9677  0.0813  0.2783
   10CHL1   H2B  715   6.491   6.000   5.954 -0.4177 -1.1395  2.7414
   10CHL1   C20  716   6.746   5.984   5.041  0.0802  0.7912  0.4547
   10CHL1   H20  717   6.695   6.076   5.006 -3.7954 -1.4874 -0.4572
   10CHL1   C21  718   6.647   5.864   5.045  0.0952 -0.8629 -0.1241
   10CHL1  H21A  719   6.614   5.831   4.944 -1.2584 -1.1085  0.3757
   10CHL1  H21B  720   6.554   5.898   5.096  1.1579  0.2911  1.1361
   10CHL1  H21C  721   6.700   5.782   5.098 -0.9513 -0.3315  1.8353
   10CHL1   C22  722   6.862   5.947   4.936  0.6091 -0.4497 -0.2415
   10CHL1  H22A  723   6.933   6.033   4.930 -0.0553  0.0044 -2.3289
   10CHL1  H22B  724   6.924   5.863   4.974 -0.2379 -0.9764 -0.0165
   10CHL1   C23  725   6.812   5.925   4.796 -0.0158 -0.3134 -0.6402
   10CHL1  H23A  726   6.755   5.832   4.775 -1.6008  0.3709  0.4582
   10CHL1  H23B  727   6.743   6.009   4.771  0.8836  0.5177 -0.3736
   10CHL1   C24  728   6.930   5.924   4.693 -0.4087 -0.0933  0.1866
   10CHL1  H24A  729   6.980   6.023   4.686  0.5118 -0.6799 -2.8419
   10CHL1  H24B  730   7.005   5.851   4.730 -1.2953 -0.9234  0.3918
   10CHL1   C25  731   6.892   5.875   4.549 -0.2579  0.4174 -0.0149
   10CHL1   H25  732   6.875   5.766   4.563 -1.0751  0.5405 -0.0277
   10CHL1   C26  733   6.759   5.930   4.500  0.1727 -0.6671  0.6316
   10CHL1  H26A  734   6.776   6.037   4.527  1.7221 -0.4422 -1.0322
   10CHL1  H26B  735   6.745   5.904   4.394  0.6695  0.6931  0.2078
   10CHL1  H26C  736   6.676   5.898   4.566  0.1958 -0.3814  0.8053
   10CHL1   C27  737   7.000   5.900   4.445 -0.5635  0.3133  0.1453
   10CHL1  H27A  738   7.006   6.007   4.413 -2.8065 -0.3755 -3.1005
   10CHL1  H27B  739   7.097   5.858   4.476 -1.0761 -1.7699 -0.9281
   10CHL1  H27C  740   6.969   5.838   4.358  1.2627 -0.6150  0.1196
   11CHL1    C3  741   4.841   1.099   5.953 -0.2768 -0.2270  0.2659
   11CHL1    H3  742   4.952   1.100   5.952 -0.1610  3.4770  1.2516
   11CHL1    O3  743   4.786   1.035   6.063 -0.5129  0.3996 -0.1144
   11CHL1   H3'  744   4.749   1.108   6.114 -2.7619 -0.2898 -0.6675
   11CHL1    C4  745   4.795   1.239   5.941  0.3008 -0.4720  0.1032
   11CHL1   H4A  746   4.684   1.243   5.935  0.1075 -0.3248  2.6523
   11CHL1   H4B  747   4.813   1.291   6.038 -0.2686 -1.6980  0.8945
   11CHL1    C5  748   4.841   1.303   5.811 -0.4135 -0.5154 -0.0692
   11CHL1    C6  749   4.912   1.420   5.815 -0.5734  0.2650  0.1579
   11CHL1    H6  750   4.930   1.470   5.911  0.8001  1.6223 -0.7523
   11CHL1    C7  751   4.971   1.480   5.692 -0.7443 -0.3045  0.5269
   11CHL1   H7A  752   4.956   1.590   5.698  1.6987  0.1266 -0.4698
   11CHL1   H7B  753   5.081   1.466   5.698 -0.9758 -1.9614  1.5687
   11CHL1    C8  754   4.919   1.416   5.563  0.0107  0.2810  0.6108
   11CHL1    H8  755   4.818   1.461   5.557 -1.3500 -2.3328  2.2310
   11CHL1   C14  756   5.002   1.459   5.444 -0.1825 -0.2773 -0.1552
   11CHL1   H14  757   5.106   1.420   5.452  0.1943  0.6150 -0.5268
   11CHL1   C15  758   5.016   1.616   5.415 -0.0451 -0.6838 -0.5158
   11CHL1  H15A  759   4.912   1.655   5.422  0.1023 -0.3141 -0.3492
   11CHL1  H15B  760   5.087   1.686   5.465 -1.1225  1.7987 -2.2243
   11CHL1   C16  761   5.059   1.615   5.270  0.1692  0.6199  0.9585
   11CHL1  H16A  762   4.997   1.685   5.210  0.6021  0.8900  0.8173
   11CHL1  H16B  763   5.160   1.663   5.263  0.5725 -0.3582 -0.1647
   11CHL1   C17  764   5.049   1.476   5.210  0.5549 -0.3238 -0.8643
   11CHL1   H17  765   5.147   1.434   5.241  1.5535  0.6056 -2.5868
   11CHL1   C13  766   4.947   1.408   5.307 -0.0669  0.0675 -0.3288
   11CHL1   C18  767   4.808   1.468   5.278  0.0018 -0.0591  0.5906
   11CHL1  H18A  768   4.804   1.579   5.274 -1.1632  0.0350  2.8394
   11CHL1  H18B  769   4.763   1.437   5.181 -0.6869  1.4258  0.4003
   11CHL1  H18C  770   4.734   1.450   5.358  0.1182  2.7795  1.4620
   11CHL1   C12  771   4.956   1.250   5.312  0.1323 -0.5577 -0.3297
   11CHL1  H12A  772   4.923   1.203   5.217  3.3417 -0.7349 -1.4843
   11CHL1  H12B  773   5.062   1.218   5.321 -0.4510 -3.0578 -1.4968
   11CHL1   C11  774   4.863   1.207   5.425 -0.3910  0.3006 -0.0597
   11CHL1  H11A  775   4.760   1.242   5.401 -0.2753  0.2408 -0.6494
   11CHL1  H11B  776   4.859   1.097   5.419  2.7684  0.1241 -0.3181
   11CHL1    C9  777   4.902   1.269   5.564  0.3844  0.7311 -0.3950
   11CHL1    H9  778   5.001   1.225   5.587 -0.2032 -0.3068  0.2441
   11CHL1   C10  779   4.813   1.219   5.680 -0.8290  0.0578 -0.0184
   11CHL1   C19  780   4.664   1.237   5.638  0.2207  0.1609 -0.5880
   11CHL1  H19A  781   4.597   1.200   5.718 -0.2307  2.5649  0.2201
   11CHL1  H19B  782   4.635   1.343   5.620 -0.1941 -0.0181 -0.9878
   11CHL1  H19C  783   4.631   1.175   5.552  0.4266 -3.4289  1.7228
   11CHL1    C1  784   4.839   1.060   5.705 -0.6123  0.0614  0.3472
   11CHL1   H1A  785   4.800   1.002   5.619 -0.6204  0.2041  0.2536
   11CHL1   H1B  786   4.948   1.043   5.718 -0.7578 -0.1830  1.2997
   11CHL1    C2  787   4.789   1.019   5.844  0.4578  0.5171 -0.0127
   11CHL1   H2A  788   4.816   0.915   5.874  1.5352  1.2679  1.8060
   11CHL1   H2B  789   4.678   1.012   5.844  0.5244 -1.0572 -0.9250
   11CHL1   C20  790   5.037   1.459   5.063  0.1117 -0.3856  0.0411
   11CHL1   H20  791   4.933   1.488   5.038  0.2523 -1.5650 -2.1604
   11CHL1   C21  792   5.053   1.315   5.005 -0.0243 -0.7814 -0.2304
   11CHL1  H21A  793   5.071   1.326   4.896  0.2286 -0.4369 -0.1547
   11CHL1  H21B  794   4.954   1.268   5.026 -0.0579  0.1104  1.8809
   11CHL1  H21C  795   5.139   1.260   5.048  1.3156 -0.3408 -2.2385
   11CHL1   C22  796   5.124   1.560   4.972  0.3738  0.0237 -0.3406
   11CHL1  H22A  797   5.091   1.542   4.868  0.9985  0.3229 -0.5963
   11CHL1  H22B  798   5.126   1.666   5.008 -1.2978 -0.2168  0.5673
   11CHL1   C23  799   5.267   1.516   4.984 -0.0973 -0.0208 -0.1526
   11CHL1  H23A  800   5.296   1.509   5.091  1.5567  0.6626 -0.5256
   11CHL1  H23B  801   5.281   1.410   4.952  1.3552  0.5873 -1.7274
   11CHL1   C24  802   5.360   1.618   4.917  0.4051 -0.4378 -0.0177
   11CHL1  H24A  803   5.321   1.631   4.813 -2.9322  1.8765  1.3512
   11CHL1  H24B  804   5.351   1.721   4.957 -1.3195  0.1528 -1.7440
   11CHL1   C25  805   5.516   1.585   4.918  0.5637  0.3230  0.0842
   11CHL1   H25  806   5.522   1.497   4.850  3.0963  1.7097 -1.6410
   11CHL1   C26  807   5.603   1.700   4.856  0.1321  0.6148 -0.3015
   11CHL1  H26A  808   5.562   1.791   4.905 -0.3445 -0.1120  0.6867
   11CHL1  H26B  809   5.710   1.686   4.880  0.2231  0.3937 -0.8176
   11CHL1  H26C  810   5.597   1.711   4.746  1.1285  0.3706 -0.3894
   11CHL1   C27  811   5.560   1.556   5.065  0.1950 -0.0482 -0.3547
   11CHL1  H27A  812   5.495   1.470   5.089  1.0051 -0.4215  0.5583
   11CHL1  H27B  813   5.666   1.523   5.064 -0.4133 -2.2217  1.1661
   11CHL1  H27C  814   5.548   1.639   5.137  1.6823 -0.0811 -0.0367
   12CHL1    C3  815   4.948   6.906   6.252  0.2968 -0.2446 -0.1502
   12CHL1    H3  816   4.902   7.006   6.246  0.5281 -0.0067  1.3791
   12CHL1    O3  817   4.927   6.856   6.384  0.4834 -0.1939  0.0186
   12CHL1   H3'  818   4.833   6.837   6.383  0.0942  1.5710  0.0399
   12CHL1    C4  819   4.889   6.810   6.153  1.2654 -0.2169  0.1445
   12CHL1   H4A  820   4.931   6.711   6.178  1.6348  0.5633  2.9882
   12CHL1   H4B  821   4.780   6.792   6.165  1.2990 -1.3013 -0.9959
   12CHL1    C5  822   4.921   6.847   6.010  0.1456  1.0703 -0.1611
   12CHL1    C6  823   4.825   6.869   5.919  0.2966 -0.3623 -0.9116
   12CHL1    H6  824   4.722   6.859   5.957  0.3055  0.1016 -0.7601
   12CHL1    C7  825   4.847   6.895   5.777  0.1319 -0.1023  0.3220
   12CHL1   H7A  826   4.798   6.821   5.710 -0.5964  1.2458 -0.6928
   12CHL1   H7B  827   4.797   6.993   5.762 -1.4345 -0.5344  2.2605
   12CHL1    C8  828   4.995   6.894   5.737  0.4645  0.4000  0.2324
   12CHL1    H8  829   5.032   6.789   5.730 -1.3815 -0.3119  0.6814
   12CHL1   C14  830   5.014   6.980   5.612 -0.7265 -0.2016 -0.4261
   12CHL1   H14  831   4.979   7.081   5.643 -0.3296 -0.2401  0.1693
   12CHL1   C15  832   4.922   6.937   5.492  0.3570 -0.0288  0.1196
   12CHL1  H15A  833   4.921   6.827   5.475 -1.8119 -0.8040  4.0621
   12CHL1  H15B  834   4.817   6.965   5.518  0.9687  0.3627  2.3406
   12CHL1   C16  835   4.997   7.006   5.371 -0.3758  0.1362 -0.4233
   12CHL1  H16A  836   5.024   6.920   5.306  1.1757  0.1229  0.1941
   12CHL1  H16B  837   4.942   7.081   5.311  0.5999  1.8387  0.7338
   12CHL1   C17  838   5.127   7.073   5.431  0.1140  0.4214  0.0929
   12CHL1   H17  839   5.088   7.169   5.472 -0.7299  0.3025 -0.4119
   12CHL1   C13  840   5.162   6.987   5.555  0.0574 -0.2055  0.8585
   12CHL1   C18  841   5.217   6.847   5.513  0.0146  0.5250 -0.6063
   12CHL1  H18A  842   5.214   6.786   5.605  0.5695 -0.2667 -1.1078
   12CHL1  H18B  843   5.148   6.802   5.438  0.3010  0.1308 -0.6335
   12CHL1  H18C  844   5.320   6.852   5.473  0.1465  0.0634 -0.3293
   12CHL1   C12  845   5.243   7.056   5.660 -0.2715 -0.4010  0.0531
   12CHL1  H12A  846   5.352   7.060   5.637 -0.4908 -1.0783 -1.1617
   12CHL1  H12B  847   5.206   7.160   5.671  0.0831 -0.2683  0.0143
   12CHL1   C11  848   5.235   6.980   5.799  0.8472  0.1311  0.1306
   12CHL1  H11A  849   5.285   6.884   5.776  0.5244 -0.4231  1.6473
   12CHL1  H11B  850   5.290   7.035   5.878  2.7884 -3.5272  1.5371
   12CHL1    C9  851   5.087   6.951   5.844  0.4809  0.1596 -0.5706
   12CHL1    H9  852   5.045   7.050   5.874 -1.0458 -0.2944 -1.1268
   12CHL1   C10  853   5.070   6.875   5.982  0.1868 -0.2078  0.7920
   12CHL1   C19  854   5.157   6.745   5.980  0.4584 -0.2255  0.7285
   12CHL1  H19A  855   5.149   6.708   6.085  1.0006  2.6270  1.8654
   12CHL1  H19B  856   5.101   6.676   5.913  0.2086 -0.9884  1.6920
   12CHL1  H19C  857   5.264   6.755   5.954 -0.4140  1.9801 -2.5624
   12CHL1    C1  858   5.132   6.969   6.086 -0.2375  0.4387  0.1395
   12CHL1   H1A  859   5.243   6.967   6.083 -0.2425  0.2615 -2.7780
   12CHL1   H1B  860   5.103   7.075   6.070 -1.5070  0.2756  1.2039
   12CHL1    C2  861   5.100   6.929   6.226  0.2847  0.0744 -0.4745
   12CHL1   H2A  862   5.143   7.004   6.297 -1.5434  1.2819 -0.5551
   12CHL1   H2B  863   5.144   6.832   6.255  1.0034 -0.0235 -1.8491
   12CHL1   C20  864   5.240   7.098   5.334  0.6792 -0.3785  0.5401
   12CHL1   H20  865   5.309   7.011   5.331 -0.2705 -1.2041  1.5679
   12CHL1   C21  866   5.326   7.221   5.379  0.8440 -0.7838  0.0650
   12CHL1  H21A  867   5.338   7.223   5.490 -1.2019 -1.6464  0.3478
   12CHL1  H21B  868   5.282   7.318   5.349  0.1533 -1.3900 -0.9538
   12CHL1  H21C  869   5.424   7.222   5.327  1.3015 -0.1084  0.8999
   12CHL1   C22  870   5.194   7.115   5.186 -0.3740  0.4532 -0.9258
   12CHL1  H22A  871   5.292   7.110   5.133 -1.7679 -1.3604 -3.4964
   12CHL1  H22B  872   5.139   7.022   5.162  0.4839 -0.9570  2.0368
   12CHL1   C23  873   5.104   7.227   5.166  0.7285 -0.2905 -0.2245
   12CHL1  H23A  874   5.030   7.241   5.247 -0.3033  1.8625 -1.4626
   12CHL1  H23B  875   5.151   7.326   5.146  0.2270 -0.3268 -1.7395
   12CHL1   C24  876   5.025   7.215   5.029  0.5891 -0.1011 -0.4267
   12CHL1  H24A  877   5.103   7.205   4.950  1.2542 -1.0582  0.3268
   12CHL1  H24B  878   4.953   7.132   5.017  1.5162 -0.5883 -3.8035
   12CHL1   C25  879   4.948   7.345   5.001  0.3893  0.3251 -0.1150
   12CHL1   H25  880   5.027   7.423   5.005  0.0531  0.6602  0.0715
   12CHL1   C26  881   4.895   7.348   4.856 -0.0005  0.0625 -0.1093
   12CHL1  H26A  882   4.847   7.443   4.827 -0.2135  0.1191  0.4045
   12CHL1  H26B  883   4.978   7.334   4.784 -0.6023  0.2450 -0.8523
   12CHL1  H26C  884   4.815   7.273   4.840  0.6941 -0.9150  0.7718
   12CHL1   C27  885   4.836   7.373   5.098  0.2646 -1.0428  0.4324
   12CHL1  H27A  886   4.803   7.471   5.057 -2.1575 -1.7990  0.3977
   12CHL1  H27B  887   4.753   7.298   5.103  1.0357 -2.1118 -1.6923
   12CHL1  H27C  888   4.868   7.379   5.204  2.6125 -1.2655 -0.2038
   13CHL1    C3  889   2.846   6.544   6.347  0.0137  0.1456  0.3490
   13CHL1    H3  890   2.883   6.642   6.310 -0.9835 -0.2871 -1.9422
   13CHL1    O3  891   2.858   6.528   6.488  0.3536  0.3258 -0.0189
   13CHL1   H3'  892   2.950   6.533   6.513  0.2647 -0.1932  0.4498
   13CHL1    C4  893   2.700   6.524   6.317 -0.2192 -0.5146 -0.2776
   13CHL1   H4A  894   2.665   6.432   6.368 -2.0484  1.2078  1.7831
   13CHL1   H4B  895   2.640   6.605   6.363 -2.3161  0.4214 -4.1563
   13CHL1    C5  896   2.683   6.520   6.165 -0.7486  0.0315 -0.3332
   13CHL1    C6  897   2.600   6.599   6.097 -0.8498 -0.2750  0.7555
   13CHL1    H6  898   2.528   6.663   6.150 -1.2383  1.2610 -1.4835
   13CHL1    C7  899   2.567   6.595   5.953  0.0859  0.0964 -0.0346
   13CHL1   H7A  900   2.458   6.605   5.940  0.5519  2.5908 -3.3185
   13CHL1   H7B  901   2.628   6.680   5.915 -0.7523  0.4953 -0.5091
   13CHL1    C8  902   2.621   6.468   5.892 -0.6175  0.3975  0.1094
   13CHL1    H8  903   2.547   6.385   5.900 -3.2916  2.1033 -3.7425
   13CHL1   C14  904   2.628   6.499   5.745 -0.8300  0.5395 -0.0138
   13CHL1   H14  905   2.699   6.585   5.749  0.1860 -0.1882 -1.4955
   13CHL1   C15  906   2.506   6.554   5.666  0.4170  0.2713 -0.5849
   13CHL1  H15A  907   2.415   6.498   5.695  0.2771 -0.0025 -1.5254
   13CHL1  H15B  908   2.480   6.660   5.680  0.0978  0.1594 -0.3287
   13CHL1   C16  909   2.540   6.524   5.521 -0.3630 -0.7103 -0.1206
   13CHL1  H16A  910   2.452   6.464   5.489 -1.9679  2.2812 -1.7974
   13CHL1  H16B  911   2.531   6.614   5.455 -1.2685  0.5144  1.5995
   13CHL1   C17  912   2.674   6.446   5.509 -0.2963 -0.4521 -0.3443
   13CHL1   H17  913   2.751   6.526   5.504 -0.2186 -0.5778 -1.5076
   13CHL1   C13  914   2.697   6.391   5.656  0.2321  0.6452 -0.1135
   13CHL1   C18  915   2.611   6.262   5.659 -0.0040  0.3681 -0.3545
   13CHL1  H18A  916   2.661   6.175   5.612 -0.1095 -0.1747  0.5233
   13CHL1  H18B  917   2.601   6.209   5.756 -1.0744  0.6403 -0.3037
   13CHL1  H18C  918   2.505   6.275   5.628 -0.7409 -3.2210  0.2658
   13CHL1   C12  919   2.834   6.365   5.710 -0.1521 -0.6092  0.3647
   13CHL1  H12A  920   2.902   6.299   5.652  1.4226  0.5726  0.8099
   13CHL1  H12B  921   2.896   6.457   5.716 -2.1427  0.8714 -0.4801
   13CHL1   C11  922   2.831   6.316   5.858  0.5449 -0.7557  0.0198
   13CHL1  H11A  923   2.763   6.228   5.869  0.0211 -0.2351  1.0267
   13CHL1  H11B  924   2.930   6.293   5.902  0.5969  0.2958  0.4666
   13CHL1    C9  925   2.762   6.426   5.944 -0.3616 -0.2508 -0.1962
   13CHL1    H9  926   2.825   6.517   5.926 -1.6053  0.8644  0.8918
   13CHL1   C10  927   2.765   6.414   6.095  0.1036  0.3689 -0.0908
   13CHL1   C19  928   2.710   6.274   6.131  0.6577 -0.3769 -0.0687
   13CHL1  H19A  929   2.770   6.195   6.080 -1.3311 -1.1936 -1.2538
   13CHL1  H19B  930   2.718   6.258   6.241  0.5801  0.0329 -0.0039
   13CHL1  H19C  931   2.603   6.256   6.108  0.9448  0.2854 -2.1013
   13CHL1    C1  932   2.914   6.432   6.141  1.0566  0.1305  0.5563
   13CHL1   H1A  933   2.976   6.346   6.112 -2.8191 -3.3448  1.5892
   13CHL1   H1B  934   2.969   6.526   6.117  4.2526 -2.0158 -1.1326
   13CHL1    C2  935   2.925   6.429   6.295 -0.4537 -0.6196  0.6358
   13CHL1   H2A  936   3.032   6.446   6.316 -0.5801  1.4989 -0.1961
   13CHL1   H2B  937   2.886   6.331   6.329 -0.0805 -1.4230 -1.1372
   13CHL1   C20  938   2.681   6.355   5.389  0.6650 -0.3165  0.0782
   13CHL1   H20  939   2.611   6.268   5.395  0.2328 -0.2625 -2.9491
   13CHL1   C21  940   2.817   6.285   5.367 -0.2722  0.7675 -0.1830
   13CHL1  H21A  941   2.840   6.212   5.448 -0.1579  0.1177 -0.7951
   13CHL1  H21B  942   2.897   6.360   5.387  0.0172 -0.1824  2.7662
   13CHL1  H21C  943   2.826   6.248   5.263  3.6939 -1.4871  0.7346
   13CHL1   C22  944   2.627   6.432   5.262 -0.2138  0.0269 -0.6669
   13CHL1  H22A  945   2.623   6.362   5.176 -2.5877 -0.1281 -0.4799
   13CHL1  H22B  946   2.519   6.451   5.277 -0.2512  1.1660 -2.1494
   13CHL1   C23  947   2.708   6.556   5.237  0.2251  0.8954  0.6681
   13CHL1  H23A  948   2.719   6.624   5.324  2.3024  1.5662 -0.0606
   13CHL1  H23B  949   2.817   6.550   5.215  0.5403 -0.7417  2.3884
   13CHL1   C24  950   2.628   6.633   5.130 -0.0773 -0.6412  0.3518
   13CHL1  H24A  951   2.525   6.636   5.170 -0.3296  0.1118 -0.3346
   13CHL1  H24B  952   2.665   6.738   5.125  0.9479 -0.8977  1.8479
   13CHL1   C25  953   2.624   6.579   4.984 -0.2806  0.0179 -0.0039
   13CHL1   H25  954   2.567   6.484   4.995  0.7600 -0.5951  0.2642
   13CHL1   C26  955   2.555   6.681   4.894  0.1468 -0.0738  0.2696
   13CHL1  H26A  956   2.457   6.703   4.941 -0.2047 -0.5467 -0.2277
   13CHL1  H26B  957   2.618   6.769   4.871  0.5345 -1.0764 -3.0988
   13CHL1  H26C  958   2.545   6.627   4.797 -1.3957 -0.7747  0.7964
   13CHL1   C27  959   2.763   6.546   4.926  0.3679  0.5064 -0.4085
   13CHL1  H27A  960   2.824   6.493   5.001  0.0642 -0.1603 -0.6306
   13CHL1  H27B  961   2.751   6.478   4.840 -0.5657  0.9563 -0.6553
   13CHL1  H27C  962   2.815   6.641   4.899  2.0624  0.2424  1.6501
   14CHL1    C3  963   2.696   5.380   5.848 -0.1498  0.4295 -0.1465
   14CHL1    H3  964   2.625   5.463   5.827 -1.0349 -0.1939  0.3006
   14CHL1    O3  965   2.694   5.357   5.987 -0.3173 -0.0640 -0.1843
   14CHL1   H3'  966   2.687   5.440   6.034  1.1917 -0.3802  0.6651
   14CHL1    C4  967   2.661   5.253   5.773 -0.3723 -0.0026 -0.1911
   14CHL1   H4A  968   2.736   5.172   5.780  1.2976  1.5912  1.3933
   14CHL1   H4B  969   2.562   5.219   5.810 -0.8395  0.1026 -1.2855
   14CHL1    C5  970   2.656   5.293   5.623 -1.4323  0.1295 -0.3693
   14CHL1    C6  971   2.545   5.279   5.544 -0.8404 -0.5651 -0.2688
   14CHL1    H6  972   2.456   5.232   5.587 -0.8245 -1.0680 -0.7775
   14CHL1    C7  973   2.532   5.313   5.396 -0.4348  0.2984 -0.2340
   14CHL1   H7A  974   2.473   5.240   5.338  0.0281  0.0002 -0.3375
   14CHL1   H7B  975   2.477   5.409   5.386 -0.6906  0.0007 -1.8929
   14CHL1    C8  976   2.675   5.336   5.336 -0.3814  0.3341 -0.3924
   14CHL1    H8  977   2.715   5.234   5.318  1.4386  1.0915 -0.8887
   14CHL1   C14  978   2.660   5.416   5.197 -0.2442 -0.0509  0.1253
   14CHL1   H14  979   2.619   5.515   5.227  1.0585  0.6077 -0.2122
   14CHL1   C15  980   2.553   5.366   5.096 -0.6171 -0.8876 -1.0879
   14CHL1  H15A  981   2.553   5.255   5.083  0.8848 -0.9767 -0.5902
   14CHL1  H15B  982   2.449   5.398   5.117 -0.6698 -2.7748  2.1904
   14CHL1   C16  983   2.606   5.410   4.958  0.2644 -0.1723 -0.0728
   14CHL1  H16A  984   2.620   5.317   4.899  0.7289 -1.0511  1.3791
   14CHL1  H16B  985   2.536   5.476   4.903 -0.5269 -0.5471  0.4682
   14CHL1   C17  986   2.734   5.499   4.988 -0.1208  0.8521 -0.5060
   14CHL1   H17  987   2.707   5.605   5.005 -3.7021 -0.0091  0.0058
   14CHL1   C13  988   2.788   5.427   5.115 -0.1634 -0.3920  0.1937
   14CHL1   C18  989   2.847   5.295   5.078 -0.2844  0.3492  0.5809
   14CHL1  H18A  990   2.856   5.235   5.172 -1.6469  1.6574  1.6040
   14CHL1  H18B  991   2.788   5.225   5.015  1.5728 -0.9261  0.1519
   14CHL1  H18C  992   2.948   5.303   5.032 -0.1515 -2.1253  0.2937
   14CHL1   C12  993   2.879   5.509   5.212 -0.8067 -0.2454  0.2257
   14CHL1  H12A  994   2.979   5.523   5.165  0.6157 -2.4401  2.3625
   14CHL1  H12B  995   2.821   5.602   5.228 -2.2316 -1.3679  1.8838
   14CHL1   C11  996   2.900   5.442   5.348 -0.6116  0.5406 -0.6797
   14CHL1  H11A  997   2.952   5.345   5.332  1.7208  1.7574 -0.8811
   14CHL1  H11B  998   2.965   5.508   5.408 -0.7452 -0.6602  0.8397
   14CHL1    C9  999   2.767   5.415   5.425  0.3121 -0.0686  0.0538
   14CHL1    H9 1000   2.718   5.514   5.435  0.1536 -0.0382 -0.9025
   14CHL1   C10 1001   2.782   5.358   5.569  0.2840  0.4801 -0.5486
   14CHL1   C19 1002   2.885   5.239   5.567 -0.2908 -0.0771  0.2316
   14CHL1  H19A 1003   2.896   5.205   5.672 -0.5698  0.0618  0.3058
   14CHL1  H19B 1004   2.840   5.158   5.504 -0.5925 -0.9256  1.4966
   14CHL1  H19C 1005   2.984   5.263   5.523 -1.4507  0.1695 -2.4189
   14CHL1    C1 1006   2.833   5.467   5.661  0.4046 -0.2945 -0.6561
   14CHL1   H1A 1007   2.941   5.487   5.641  0.4920  0.7218  0.7292
   14CHL1   H1B 1008   2.765   5.553   5.647  0.8721  0.1717 -0.1136
   14CHL1    C2 1009   2.831   5.430   5.811 -0.5030 -0.3391 -0.3103
   14CHL1   H2A 1010   2.855   5.515   5.879 -1.8814 -1.7843  2.1189
   14CHL1   H2B 1011   2.903   5.348   5.829 -1.1160 -0.8948 -0.3599
   14CHL1   C20 1012   2.836   5.501   4.867 -0.2006 -0.2783  0.5674
   14CHL1   H20 1013   2.898   5.409   4.868  0.9978  0.5004  1.8493
   14CHL1   C21 1014   2.933   5.616   4.898 -0.3476  0.2517 -0.1317
   14CHL1  H21A 1015   3.004   5.585   4.977 -1.1212 -2.0499 -0.2896
   14CHL1  H21B 1016   2.882   5.713   4.916 -1.7358 -0.3964 -0.4588
   14CHL1  H21C 1017   2.986   5.639   4.802  1.3341 -0.3730  0.6108
   14CHL1   C22 1018   2.769   5.514   4.729  0.3713  0.3200 -0.2420
   14CHL1  H22A 1019   2.847   5.528   4.650  1.1305  2.6678  0.8207
   14CHL1  H22B 1020   2.714   5.422   4.701 -2.0718  0.7516  2.6525
   14CHL1   C23 1021   2.675   5.639   4.714 -0.2264 -0.0435  0.0225
   14CHL1  H23A 1022   2.584   5.639   4.777 -0.9444  3.3747 -0.8505
   14CHL1  H23B 1023   2.734   5.728   4.743 -0.1838  0.2440 -0.8944
   14CHL1   C24 1024   2.632   5.655   4.559  0.3065 -0.1501 -0.0151
   14CHL1  H24A 1025   2.722   5.668   4.496 -1.0027 -1.0517 -2.1638
   14CHL1  H24B 1026   2.581   5.564   4.522  2.0508 -2.6087  3.0172
   14CHL1   C25 1027   2.542   5.773   4.530  0.4283  0.2991 -0.2479
   14CHL1   H25 1028   2.585   5.862   4.581  0.8989  0.7747 -1.4363
   14CHL1   C26 1029   2.515   5.798   4.385 -0.1272  0.2725  0.4325
   14CHL1  H26A 1030   2.448   5.885   4.371  1.5319  1.6677  0.7324
   14CHL1  H26B 1031   2.612   5.809   4.331  0.3972 -0.0185  1.2923
   14CHL1  H26C 1032   2.460   5.712   4.341 -0.7485  1.2319 -0.7475
   14CHL1   C27 1033   2.403   5.746   4.594  0.4263 -0.7327  0.0523
   14CHL1  H27A 1034   2.345   5.840   4.597 -0.2224 -1.1583  1.6538
   14CHL1  H27B 1035   2.347   5.672   4.533  0.8933  0.6287 -2.1471
   14CHL1  H27C 1036   2.391   5.721   4.701 -1.3772  3.3166  0.9512
   15CHL1    C3 1037   3.610   5.400   5.992  0.5511  0.0466  0.0939
   15CHL1    H3 1038   3.541   5.336   5.934 -1.7154  2.3873  0.0034
   15CHL1    O3 1039   3.586   5.381   6.133  0.0995 -0.3415 -0.0221
   15CHL1   H3' 1040   3.625   5.454   6.181  0.1001 -1.4267  1.7389
   15CHL1    C4 1041   3.753   5.373   5.960 -0.7374  0.0856 -0.0681
   15CHL1   H4A 1042   3.810   5.446   6.021 -2.2045  0.5690  0.7828
   15CHL1   H4B 1043   3.779   5.267   5.979 -1.1644 -0.7150 -3.2754
   15CHL1    C5 1044   3.789   5.399   5.817 -0.1877  0.4744 -0.2488
   15CHL1    C6 1045   3.847   5.309   5.730 -0.5195 -0.6268  0.0728
   15CHL1    H6 1046   3.877   5.208   5.761 -0.1684 -0.4051  0.4500
   15CHL1    C7 1047   3.890   5.333   5.587 -0.2843  0.0109  0.6597
   15CHL1   H7A 1048   3.996   5.305   5.572 -1.0443 -2.6872 -0.2943
   15CHL1   H7B 1049   3.829   5.257   5.533 -0.3237 -0.8980  1.9294
   15CHL1    C8 1050   3.864   5.480   5.536 -0.1900  0.1733 -0.2011
   15CHL1    H8 1051   3.946   5.548   5.569  0.4303 -0.9556  0.6291
   15CHL1   C14 1052   3.863   5.482   5.380  0.1230 -0.6566 -0.3266
   15CHL1   H14 1053   3.783   5.409   5.354 -0.5567 -0.2750  0.6441
   15CHL1   C15 1054   3.981   5.437   5.296 -0.2482 -0.0249 -0.2330
   15CHL1  H15A 1055   4.072   5.467   5.352 -0.8367  2.4068 -0.4737
   15CHL1  H15B 1056   3.982   5.326   5.293  0.6451 -0.0325  0.1164
   15CHL1   C16 1057   3.972   5.513   5.159 -0.3911  0.4471 -0.0411
   15CHL1  H16A 1058   4.058   5.583   5.158 -0.7115  0.8410 -0.3377
   15CHL1  H16B 1059   3.966   5.444   5.072  1.2532  2.6076 -1.9920
   15CHL1   C17 1060   3.842   5.600   5.173  0.2876 -0.2193 -0.2778
   15CHL1   H17 1061   3.749   5.543   5.150 -1.0488  1.8068 -0.1667
   15CHL1   C13 1062   3.826   5.621   5.323  0.2047  0.1799  0.2123
   15CHL1   C18 1063   3.937   5.726   5.358  0.0532 -0.2444  0.2573
   15CHL1  H18A 1064   3.965   5.743   5.464  1.1170  0.1359 -0.0768
   15CHL1  H18B 1065   4.034   5.704   5.309  0.7842  1.8666  0.6565
   15CHL1  H18C 1066   3.908   5.825   5.318 -1.8145  0.3514  2.7780
   15CHL1   C12 1067   3.693   5.675   5.390  0.3479  0.0921  0.1896
   15CHL1  H12A 1068   3.663   5.780   5.367  1.5254  0.5677  0.7464
   15CHL1  H12B 1069   3.613   5.604   5.358  1.3817 -1.7280  1.4790
   15CHL1   C11 1070   3.703   5.676   5.544  1.0904 -0.8663  0.0985
   15CHL1  H11A 1071   3.781   5.751   5.566  0.1214 -0.0946  1.0025
   15CHL1  H11B 1072   3.603   5.703   5.585  0.4234 -0.3397 -1.7612
   15CHL1    C9 1073   3.740   5.533   5.601  0.3252  0.4444 -0.2123
   15CHL1    H9 1074   3.656   5.468   5.571  0.7658  0.9112 -2.6572
   15CHL1   C10 1075   3.744   5.531   5.758  0.2562 -0.0446 -0.1003
   15CHL1   C19 1076   3.841   5.642   5.810  0.1789  1.2115  0.1243
   15CHL1  H19A 1077   3.944   5.629   5.771  0.3598  0.7010  0.7600
   15CHL1  H19B 1078   3.810   5.744   5.779  1.6814  1.0835 -2.0983
   15CHL1  H19C 1079   3.848   5.643   5.921  1.4347  0.1603  0.0774
   15CHL1    C1 1080   3.604   5.560   5.802  0.5717  0.1857 -0.1955
   15CHL1   H1A 1081   3.575   5.662   5.769 -1.6158 -1.1960 -2.9319
   15CHL1   H1B 1082   3.525   5.505   5.747 -0.8295  0.2533  1.6346
   15CHL1    C2 1083   3.573   5.543   5.955 -0.5293  0.5745 -1.1615
   15CHL1   H2A 1084   3.463   5.557   5.959 -0.4634  1.1366 -1.2549
   15CHL1   H2B 1085   3.637   5.618   6.007  0.2372 -0.4346 -0.6213
   15CHL1   C20 1086   3.860   5.724   5.087 -0.3970  0.6536 -0.1700
   15CHL1   H20 1087   3.940   5.792   5.123  0.8974 -1.5525  1.3706
   15CHL1   C21 1088   3.730   5.800   5.091  0.1390  0.1097  0.3932
   15CHL1  H21A 1089   3.728   5.855   5.188  0.4142  1.5919 -0.4014
   15CHL1  H21B 1090   3.649   5.725   5.081  0.4207 -0.3246  1.2309
   15CHL1  H21C 1091   3.727   5.888   5.022  0.3198 -0.6186 -0.5613
   15CHL1   C22 1092   3.900   5.680   4.943 -0.0495  0.2267  0.4874
   15CHL1  H22A 1093   3.896   5.769   4.877 -3.9142  1.2477  1.8318
   15CHL1  H22B 1094   4.006   5.646   4.940 -0.7215 -2.1574  1.1925
   15CHL1   C23 1095   3.798   5.588   4.865 -0.0837 -0.0856 -0.2860
   15CHL1  H23A 1096   3.815   5.487   4.907  2.6697  0.5124  0.2199
   15CHL1  H23B 1097   3.695   5.618   4.896 -0.2882 -2.5663  1.8351
   15CHL1   C24 1098   3.819   5.601   4.712  0.4612  0.6064 -0.3393
   15CHL1  H24A 1099   3.773   5.695   4.676 -0.9385 -0.4535 -1.4688
   15CHL1  H24B 1100   3.926   5.587   4.689 -0.1206  0.0063 -2.9595
   15CHL1   C25 1101   3.757   5.483   4.633 -0.7169 -0.7804  0.2060
   15CHL1   H25 1102   3.813   5.391   4.659 -1.5819 -1.1005  1.0101
   15CHL1   C26 1103   3.610   5.438   4.663 -0.2021 -0.5921  0.1382
   15CHL1  H26A 1104   3.545   5.523   4.634  0.4645 -0.5454 -1.2896
   15CHL1  H26B 1105   3.584   5.358   4.591  0.9962  0.8811 -2.0228
   15CHL1  H26C 1106   3.584   5.410   4.768 -2.6674  0.2490 -0.1951
   15CHL1   C27 1107   3.769   5.506   4.479 -0.3722 -0.1652 -0.5661
   15CHL1  H27A 1108   3.722   5.424   4.422 -0.7504 -0.2626 -0.1170
   15CHL1  H27B 1109   3.713   5.596   4.446 -1.1486 -1.7251 -3.9118
   15CHL1  H27C 1110   3.878   5.508   4.456  0.1196  1.8044  1.4711
   16CHL1    C3 1111   3.380   4.100   5.742  0.5572 -0.4662  0.3071
   16CHL1    H3 1112   3.322   4.022   5.689 -1.4148  0.8718  0.3735
   16CHL1    O3 1113   3.401   4.076   5.878  0.0353  0.4741 -0.7046
   16CHL1   H3' 1114   3.332   4.016   5.908 -0.9689  1.4241 -1.0590
   16CHL1    C4 1115   3.515   4.123   5.660  0.0204 -0.5947  0.0252
   16CHL1   H4A 1116   3.562   4.204   5.720 -0.6673 -0.4636  0.4000
   16CHL1   H4B 1117   3.585   4.039   5.677  0.0533 -0.4071  0.8322
   16CHL1    C5 1118   3.497   4.160   5.514 -0.8753 -0.6383  0.0233
   16CHL1    C6 1119   3.558   4.081   5.425  1.2396  0.1862  0.4802
   16CHL1    H6 1120   3.617   3.993   5.455  2.2563  0.1202 -1.5169
   16CHL1    C7 1121   3.549   4.110   5.277  0.7203 -0.3783 -0.0995
   16CHL1   H7A 1122   3.644   4.111   5.220  0.1787  2.9171 -1.1556
   16CHL1   H7B 1123   3.471   4.045   5.232  0.0713  0.4544 -0.2030
   16CHL1    C8 1124   3.488   4.255   5.253 -0.6621 -0.1455 -0.1209
   16CHL1    H8 1125   3.569   4.329   5.271  1.4930 -1.7616 -2.5280
   16CHL1   C14 1126   3.450   4.279   5.104 -0.4469  0.3632 -0.2414
   16CHL1   H14 1127   3.377   4.198   5.086  0.7978 -1.2637  1.5985
   16CHL1   C15 1128   3.555   4.257   4.997 -0.4856 -0.2539  0.1082
   16CHL1  H15A 1129   3.654   4.296   5.030 -1.2896  0.3881  1.9213
   16CHL1  H15B 1130   3.578   4.149   4.986  2.1613  0.3814 -1.4951
   16CHL1   C16 1131   3.511   4.316   4.867  0.2257 -0.0505 -0.3258
   16CHL1  H16A 1132   3.596   4.376   4.830 -0.3840  1.1245  0.1195
   16CHL1  H16B 1133   3.487   4.245   4.785  2.0348 -0.7949 -0.2455
   16CHL1   C17 1134   3.379   4.398   4.914  0.7263 -0.7213  0.0021
   16CHL1   H17 1135   3.296   4.330   4.887 -1.1186  1.1743  0.5641
   16CHL1   C13 1136   3.394   4.417   5.066 -0.1297 -0.9724 -0.3236
   16CHL1   C18 1137   3.490   4.535   5.095  1.0171  0.0282  0.1543
   16CHL1  H18A 1138   3.501   4.529   5.205 -1.1130 -1.1893  0.3606
   16CHL1  H18B 1139   3.586   4.506   5.048  0.7522 -1.8048  0.6546
   16CHL1  H18C 1140   3.453   4.635   5.064 -0.6055  0.0163  1.8530
   16CHL1   C12 1141   3.265   4.422   5.147  0.6182  0.1268  0.4239
   16CHL1  H12A 1142   3.215   4.519   5.126 -1.9065 -1.6995 -3.0472
   16CHL1  H12B 1143   3.200   4.336   5.121 -1.8661  2.1016 -0.3703
   16CHL1   C11 1144   3.283   4.405   5.296 -0.7391 -0.0226  0.3273
   16CHL1  H11A 1145   3.337   4.499   5.322 -1.1100  0.5820 -1.0040
   16CHL1  H11B 1146   3.186   4.410   5.350 -0.7186  2.7971  0.2437
   16CHL1    C9 1147   3.370   4.290   5.339  0.2936  0.6318  0.7784
   16CHL1    H9 1148   3.313   4.199   5.309  0.8483  0.0431  1.4792
   16CHL1   C10 1149   3.407   4.280   5.489  0.6954  0.2968  0.2899
   16CHL1   C19 1150   3.481   4.404   5.534 -0.2209 -0.8016 -0.6548
   16CHL1  H19A 1151   3.577   4.427   5.483 -1.1200  0.2726 -1.9237
   16CHL1  H19B 1152   3.426   4.496   5.507  1.0657  0.1280 -0.2385
   16CHL1  H19C 1153   3.488   4.404   5.645 -0.3554 -0.9702 -0.6467
   16CHL1    C1 1154   3.273   4.257   5.567 -0.6554 -0.3230  0.1075
   16CHL1   H1A 1155   3.209   4.348   5.561 -4.1371 -2.6045  0.1107
   16CHL1   H1B 1156   3.223   4.168   5.524  0.9623 -0.4587 -1.6241
   16CHL1    C2 1157   3.287   4.219   5.716 -0.7326  0.1186 -0.0711
   16CHL1   H2A 1158   3.185   4.198   5.754 -0.7248 -0.2954 -0.2704
   16CHL1   H2B 1159   3.328   4.311   5.762 -0.7054  0.5233 -0.8933
   16CHL1   C20 1160   3.354   4.526   4.830 -0.4579 -0.1971  0.3055
   16CHL1   H20 1161   3.427   4.605   4.858 -0.1870 -0.3794  0.1196
   16CHL1   C21 1162   3.209   4.583   4.854 -0.3114 -0.1986 -0.1386
   16CHL1  H21A 1163   3.175   4.642   4.767 -0.0809  1.6603  0.9637
   16CHL1  H21B 1164   3.203   4.633   4.954  1.1349 -3.0201  1.4829
   16CHL1  H21C 1165   3.141   4.496   4.842  1.5745 -1.5900 -1.2118
   16CHL1   C22 1166   3.373   4.506   4.677 -0.4853 -0.1027 -0.1631
   16CHL1  H22A 1167   3.357   4.605   4.631  0.3342 -0.4357 -1.1886
   16CHL1  H22B 1168   3.478   4.474   4.657 -1.1012 -1.6031 -1.2267
   16CHL1   C23 1169   3.285   4.407   4.609 -0.9446 -0.6865  0.2048
   16CHL1  H23A 1170   3.297   4.309   4.659 -0.9370  0.7219  3.1395
   16CHL1  H23B 1171   3.178   4.438   4.609 -0.1505  2.4367 -1.8765
   16CHL1   C24 1172   3.324   4.405   4.456  0.6885  0.9055 -0.4091
   16CHL1  H24A 1173   3.434   4.401   4.448  0.6609 -0.1075 -0.3598
   16CHL1  H24B 1174   3.288   4.310   4.411  0.5525  1.2236 -0.9967
   16CHL1   C25 1175   3.261   4.519   4.373  0.4526  0.3684 -0.4426
   16CHL1   H25 1176   3.254   4.606   4.441 -1.3239  0.1351 -0.2676
   16CHL1   C26 1177   3.344   4.552   4.245  0.0753 -0.4470 -0.4629
   16CHL1  H26A 1178   3.447   4.566   4.283 -0.1083  0.4272 -0.2767
   16CHL1  H26B 1179   3.347   4.482   4.158  3.5953 -0.2659 -0.6373
   16CHL1  H26C 1180   3.294   4.640   4.199 -3.2664 -1.3137  1.2494
   16CHL1   C27 1181   3.118   4.489   4.341 -1.0741  0.8359  0.3241
   16CHL1  H27A 1182   3.066   4.485   4.439 -0.0368 -0.1260  0.8625
   16CHL1  H27B 1183   3.083   4.568   4.271 -0.1249 -0.0210 -1.1928
   16CHL1  H27C 1184   3.109   4.395   4.282  2.8891  0.6010 -0.1563
   17CHL1    C3 1185   2.068   5.864   5.855 -0.1418 -0.0823  0.4898
   17CHL1    H3 1186   2.162   5.809   5.834  0.5960  0.8845  1.1289
   17CHL1    O3 1187   2.025   5.848   5.989  0.4944  0.0945  0.2670
   17CHL1   H3' 1188   1.955   5.910   6.013  0.6221 -0.8611  3.6515
   17CHL1    C4 1189   2.090   6.018   5.829  0.3478 -0.5476  0.5947
   17CHL1   H4A 1190   1.993   6.068   5.850 -0.0474 -0.5437 -1.1396
   17CHL1   H4B 1191   2.168   6.054   5.900 -2.2994  3.0803  1.9372
   17CHL1    C5 1192   2.131   6.044   5.688  0.5072 -1.2157  0.2053
   17CHL1    C6 1193   2.242   6.125   5.663 -0.4117 -0.2428 -0.4540
   17CHL1    H6 1194   2.297   6.169   5.747 -0.0359 -0.1769 -0.7304
   17CHL1    C7 1195   2.283   6.155   5.522 -0.1613 -0.4363 -0.1522
   17CHL1   H7A 1196   2.316   6.261   5.515  0.4309 -0.7367 -2.6334
   17CHL1   H7B 1197   2.377   6.103   5.495 -1.0306 -2.0038 -0.2929
   17CHL1    C8 1198   2.171   6.128   5.412  0.1542 -0.9225 -0.2806
   17CHL1    H8 1199   2.105   6.215   5.433  0.0220 -1.3900  1.3777
   17CHL1   C14 1200   2.213   6.137   5.269 -0.3224 -0.5769 -0.6621
   17CHL1   H14 1201   2.287   6.056   5.255  0.8595  0.4815 -0.7797
   17CHL1   C15 1202   2.288   6.264   5.234 -0.2902  0.1127  0.5605
   17CHL1  H15A 1203   2.233   6.350   5.278  0.0893  1.6750 -1.8499
   17CHL1  H15B 1204   2.388   6.265   5.284  0.2716 -0.4687 -0.5104
   17CHL1   C16 1205   2.284   6.260   5.082 -0.0528 -1.0982 -0.0677
   17CHL1  H16A 1206   2.248   6.361   5.055  1.2779 -0.3131  0.9946
   17CHL1  H16B 1207   2.387   6.244   5.044  0.4531  3.0867 -0.8918
   17CHL1   C17 1208   2.172   6.156   5.043 -0.1182  0.5165 -0.5559
   17CHL1   H17 1209   2.232   6.064   5.027 -0.9116 -0.0303 -0.4400
   17CHL1   C13 1210   2.098   6.127   5.168  0.0608 -0.2828  0.1969
   17CHL1   C18 1211   2.001   6.247   5.184 -0.0143  0.2238 -0.4314
   17CHL1  H18A 1212   2.037   6.346   5.147 -1.5948  0.8744 -0.3470
   17CHL1  H18B 1213   1.908   6.228   5.125  0.6002 -0.9613 -1.0361
   17CHL1  H18C 1214   1.955   6.256   5.285  2.6127 -0.3173  0.8725
   17CHL1   C12 1215   2.025   5.993   5.188 -0.5994  0.3500  1.1727
   17CHL1  H12A 1216   1.935   5.986   5.123 -1.5395  2.6621  2.0962
   17CHL1  H12B 1217   2.086   5.909   5.150 -3.5271 -0.6950 -1.6557
   17CHL1   C11 1218   1.981   5.974   5.329 -0.7347 -0.0268 -0.6845
   17CHL1  H11A 1219   1.899   6.049   5.335  0.5938  1.5031 -1.1131
   17CHL1  H11B 1220   1.942   5.871   5.342 -0.9887  0.2520  0.9820
   17CHL1    C9 1221   2.091   6.000   5.437 -0.7339 -0.2666  0.4146
   17CHL1    H9 1222   2.164   5.916   5.429  0.2489  0.6291 -0.2179
   17CHL1   C10 1223   2.037   5.989   5.583 -0.0390 -0.5993 -0.4220
   17CHL1   C19 1224   1.909   6.078   5.582 -0.5218  0.5837 -0.5094
   17CHL1  H19A 1225   1.878   6.108   5.685 -1.9097  2.8432 -1.5050
   17CHL1  H19B 1226   1.915   6.175   5.529 -0.9000  0.2763 -1.1307
   17CHL1  H19C 1227   1.829   6.019   5.532  2.8677 -4.0818 -1.1062
   17CHL1    C1 1228   2.008   5.845   5.623 -0.0712 -0.7508  0.4158
   17CHL1   H1A 1229   1.924   5.810   5.559  0.0599 -0.1026 -0.1208
   17CHL1   H1B 1230   2.097   5.781   5.606 -0.5872 -1.4953  0.4312
   17CHL1    C2 1231   1.958   5.820   5.766 -0.0868 -0.1566  0.2730
   17CHL1   H2A 1232   1.931   5.712   5.772  0.1935 -0.1609  1.8075
   17CHL1   H2B 1233   1.862   5.873   5.776  0.5817  1.3873 -1.0789
   17CHL1   C20 1234   2.109   6.185   4.910 -0.0126  0.3961  0.3458
   17CHL1   H20 1235   2.035   6.265   4.928 -2.3509 -1.8418  1.3273
   17CHL1   C21 1236   2.017   6.075   4.848 -0.5139  0.4060 -0.3404
   17CHL1  H21A 1237   1.932   6.049   4.914  0.6663  1.0021  1.4978
   17CHL1  H21B 1238   2.081   5.986   4.832 -0.8036  0.2296 -0.5100
   17CHL1  H21C 1239   1.968   6.114   4.756 -0.3469 -1.9123 -1.4921
   17CHL1   C22 1240   2.207   6.234   4.797  0.4023 -0.7349 -0.4525
   17CHL1  H22A 1241   2.155   6.270   4.706 -0.1941 -0.1582  0.1113
   17CHL1  H22B 1242   2.275   6.315   4.831 -1.4248  0.1793  1.1780
   17CHL1   C23 1243   2.308   6.133   4.737 -0.3229 -0.3902 -0.1684
   17CHL1  H23A 1244   2.354   6.081   4.823 -1.6942  0.1947  0.9476
   17CHL1  H23B 1245   2.250   6.056   4.680 -1.9405 -0.6989  1.7740
   17CHL1   C24 1246   2.417   6.201   4.652 -0.9665  0.3236 -0.2104
   17CHL1  H24A 1247   2.470   6.276   4.714  0.2550 -0.5289 -0.1882
   17CHL1  H24B 1248   2.477   6.114   4.617 -1.4997  1.0195 -3.0605
   17CHL1   C25 1249   2.368   6.272   4.522 -0.5325 -0.5964  0.1139
   17CHL1   H25 1250   2.300   6.358   4.540  0.9795  0.4338  1.1388
   17CHL1   C26 1251   2.496   6.317   4.449  0.0892  0.6956 -0.5669
   17CHL1  H26A 1252   2.473   6.367   4.352  0.2417 -1.2095 -1.6246
   17CHL1  H26B 1253   2.555   6.389   4.510  2.4936  0.5679 -2.6089
   17CHL1  H26C 1254   2.558   6.232   4.414 -0.7287 -0.4614  0.6953
   17CHL1   C27 1255   2.287   6.173   4.439 -0.0914 -0.1833 -0.4425
   17CHL1  H27A 1256   2.188   6.153   4.486  0.0855  0.3716  0.1718
   17CHL1  H27B 1257   2.255   6.213   4.340 -0.5533 -0.0015 -0.2231
   17CHL1  H27C 1258   2.345   6.081   4.415 -0.4483 -0.1641 -1.4437
   18CHL1    C3 1259   4.813   2.423   6.222  0.2891 -0.1635 -0.3355
   18CHL1    H3 1260   4.887   2.505   6.219  1.2536 -1.0011 -0.1572
   18CHL1    O3 1261   4.807   2.379   6.358  0.2041 -0.1897  0.1201
   18CHL1   H3' 1262   4.758   2.296   6.361 -1.0910  0.4958 -0.8956
   18CHL1    C4 1263   4.666   2.464   6.178 -0.4293 -0.3037 -0.6280
   18CHL1   H4A 1264   4.602   2.373   6.186 -1.5421  0.4632 -0.4814
   18CHL1   H4B 1265   4.637   2.540   6.254 -0.5993 -1.3576  0.3874
   18CHL1    C5 1266   4.668   2.509   6.033 -0.3203  0.2455 -0.6833
   18CHL1    C6 1267   4.631   2.630   5.993 -0.2170 -0.6920 -0.1046
   18CHL1    H6 1268   4.608   2.702   6.074  0.4037 -1.4306  0.7428
   18CHL1    C7 1269   4.623   2.688   5.853 -0.3308  0.1372 -0.0546
   18CHL1   H7A 1270   4.520   2.730   5.841  0.6259  2.3066 -1.1251
   18CHL1   H7B 1271   4.700   2.764   5.832  0.1982 -0.3688  0.0219
   18CHL1    C8 1272   4.642   2.567   5.751  0.0355  0.0619 -0.0304
   18CHL1    H8 1273   4.549   2.507   5.747  0.4956 -0.6348 -0.4350
   18CHL1   C14 1274   4.664   2.617   5.611  0.5194 -0.5476  0.7818
   18CHL1   H14 1275   4.765   2.664   5.611  0.0727  0.5852 -1.5424
   18CHL1   C15 1276   4.569   2.726   5.550  0.1825 -0.1272 -0.4394
   18CHL1  H15A 1277   4.471   2.741   5.601 -0.7476 -1.9235 -1.5776
   18CHL1  H15B 1278   4.625   2.821   5.552  1.2737 -0.7573  1.7128
   18CHL1   C16 1279   4.558   2.682   5.399  0.4916  0.0373 -0.5225
   18CHL1  H16A 1280   4.460   2.636   5.377  0.3938  0.6039 -1.2819
   18CHL1  H16B 1281   4.564   2.777   5.342  1.0949  0.5473  0.3652
   18CHL1   C17 1282   4.668   2.584   5.382 -0.3965  0.2667 -0.4925
   18CHL1   H17 1283   4.760   2.647   5.385 -1.6078  2.1326 -0.7790
   18CHL1   C13 1284   4.672   2.506   5.509 -0.3559  0.0737 -0.4166
   18CHL1   C18 1285   4.547   2.409   5.510  0.1643 -0.2922  0.4730
   18CHL1  H18A 1286   4.452   2.463   5.491 -0.1899 -0.7221  0.9822
   18CHL1  H18B 1287   4.558   2.325   5.438 -2.8544  0.1336 -0.6253
   18CHL1  H18C 1288   4.522   2.359   5.606 -0.4251 -0.6870  0.1183
   18CHL1   C12 1289   4.805   2.439   5.545 -0.2090 -0.6698 -0.0785
   18CHL1  H12A 1290   4.832   2.374   5.459 -1.7725  0.2333 -1.3162
   18CHL1  H12B 1291   4.882   2.519   5.546 -0.3232 -0.5513 -0.4597
   18CHL1   C11 1292   4.802   2.375   5.685  0.7100  0.2918  0.1269
   18CHL1  H11A 1293   4.735   2.286   5.675  1.3153 -0.1184 -0.3066
   18CHL1  H11B 1294   4.903   2.342   5.715  0.3922 -1.0236 -0.1508
   18CHL1    C9 1295   4.752   2.470   5.799 -0.6596 -0.3803 -0.0658
   18CHL1    H9 1296   4.839   2.538   5.808 -0.1351 -0.9334 -0.7749
   18CHL1   C10 1297   4.725   2.405   5.933  0.1823  0.4086  0.7463
   18CHL1   C19 1298   4.633   2.282   5.906  0.6350 -0.6199 -0.0971
   18CHL1  H19A 1299   4.596   2.229   5.997 -1.7909  1.3629  0.1698
   18CHL1  H19B 1300   4.545   2.317   5.848  2.2371 -0.3264 -2.4882
   18CHL1  H19C 1301   4.695   2.202   5.861  0.0247 -1.2271  0.1278
   18CHL1    C1 1302   4.865   2.354   5.990  0.4531  0.2956 -0.8103
   18CHL1   H1A 1303   4.898   2.263   5.934  3.1440  0.2756  0.6475
   18CHL1   H1B 1304   4.950   2.423   5.967  0.2264  1.0544  0.5365
   18CHL1    C2 1305   4.858   2.309   6.139  0.1913  0.0977  0.3492
   18CHL1   H2A 1306   4.955   2.274   6.179  0.3134 -0.6662 -0.5578
   18CHL1   H2B 1307   4.806   2.211   6.147  0.0950  0.1715  0.6113
   18CHL1   C20 1308   4.673   2.488   5.250  0.0627  0.4411  0.9330
   18CHL1   H20 1309   4.728   2.396   5.280  2.7903  0.1177 -3.8788
   18CHL1   C21 1310   4.756   2.563   5.146 -0.6744  0.0590  0.0654
   18CHL1  H21A 1311   4.765   2.514   5.047  1.3373  1.0823 -0.3276
   18CHL1  H21B 1312   4.856   2.579   5.192  0.1096  0.5813 -1.7274
   18CHL1  H21C 1313   4.715   2.664   5.125  0.0326 -0.1668 -2.7286
   18CHL1   C22 1314   4.534   2.448   5.190  0.4312  0.3147 -0.7162
   18CHL1  H22A 1315   4.470   2.429   5.279 -0.2838  1.5649 -0.9375
   18CHL1  H22B 1316   4.480   2.533   5.144 -2.7958 -1.0463  0.2297
   18CHL1   C23 1317   4.526   2.338   5.078  0.3068  0.5240 -0.2163
   18CHL1  H23A 1318   4.584   2.368   4.988 -1.6994  1.1588 -1.3778
   18CHL1  H23B 1319   4.566   2.245   5.123  1.3744  0.9358 -0.2987
   18CHL1   C24 1320   4.384   2.314   5.038 -0.2916 -0.6072  0.0015
   18CHL1  H24A 1321   4.329   2.272   5.125 -0.2195  0.3709  0.5341
   18CHL1  H24B 1322   4.334   2.412   5.025  0.3605 -0.3077 -0.2542
   18CHL1   C25 1323   4.359   2.227   4.913 -0.5764 -0.2399  0.0137
   18CHL1   H25 1324   4.252   2.198   4.915 -0.5182 -0.4635 -0.1114
   18CHL1   C26 1325   4.373   2.319   4.784 -0.4766 -0.5378 -0.2192
   18CHL1  H26A 1326   4.460   2.387   4.790 -3.2148  3.3277 -0.3300
   18CHL1  H26B 1327   4.368   2.255   4.694 -0.5357 -1.5787  0.5109
   18CHL1  H26C 1328   4.285   2.388   4.783 -0.3270 -0.3395  0.2692
   18CHL1   C27 1329   4.449   2.103   4.917 -0.6118 -0.0660 -0.4750
   18CHL1  H27A 1330   4.556   2.134   4.913  0.0025 -1.8886  0.4671
   18CHL1  H27B 1331   4.443   2.042   5.010  4.3308 -1.1509 -0.5946
   18CHL1  H27C 1332   4.442   2.047   4.821  1.1529  0.7458 -1.1296
   19CHL1    C3 1333   3.003   1.296   5.958  0.2785  0.1732 -0.1715
   19CHL1    H3 1334   3.008   1.405   5.939  3.9520  0.1574  0.1235
   19CHL1    O3 1335   3.047   1.291   6.091  0.2578 -0.2467 -0.4322
   19CHL1   H3' 1336   3.026   1.203   6.124 -0.0662  0.3929  1.1088
   19CHL1    C4 1337   2.859   1.244   5.947 -0.3736 -0.2895  0.2179
   19CHL1   H4A 1338   2.862   1.145   5.999  1.5439  0.2056  1.1273
   19CHL1   H4B 1339   2.796   1.305   6.014  1.1245  0.5602  0.8929
   19CHL1    C5 1340   2.811   1.246   5.807 -0.3432 -0.1983  0.3680
   19CHL1    C6 1341   2.714   1.326   5.767 -0.1340 -0.2650 -0.0622
   19CHL1    H6 1342   2.665   1.378   5.851  3.3881  2.8198  0.3458
   19CHL1    C7 1343   2.663   1.340   5.627  0.5962 -0.2319 -0.4704
   19CHL1   H7A 1344   2.553   1.336   5.620  0.6658 -0.9391 -1.4194
   19CHL1   H7B 1345   2.699   1.436   5.582 -0.5006  1.1532  1.4700
   19CHL1    C8 1346   2.706   1.224   5.542 -0.1615  0.0341 -0.1526
   19CHL1    H8 1347   2.653   1.133   5.578 -0.0724  0.5853  1.4683
   19CHL1   C14 1348   2.676   1.252   5.395  0.2043 -0.2149  0.1818
   19CHL1   H14 1349   2.740   1.337   5.360 -0.8194  0.1619 -0.8341
   19CHL1   C15 1350   2.532   1.297   5.349 -0.1664 -0.6204  0.0693
   19CHL1  H15A 1351   2.463   1.228   5.401 -0.7144  0.8756  1.3947
   19CHL1  H15B 1352   2.507   1.403   5.374  0.7159 -0.7183  1.4352
   19CHL1   C16 1353   2.537   1.284   5.197  0.4566  0.2464  0.6504
   19CHL1  H16A 1354   2.444   1.236   5.159  0.3568  0.3430  0.7698
   19CHL1  H16B 1355   2.560   1.379   5.144  0.5282 -0.4472 -0.5869
   19CHL1   C17 1356   2.657   1.189   5.168 -0.2740  0.8632 -0.6325
   19CHL1   H17 1357   2.736   1.261   5.135 -1.7557  2.1967 -1.4159
   19CHL1   C13 1358   2.703   1.134   5.300  0.1925 -0.4478  0.1530
   19CHL1   C18 1359   2.625   1.008   5.338 -0.0609  0.2050 -0.2991
   19CHL1  H18A 1360   2.656   0.990   5.443 -1.1209 -0.3110 -0.0589
   19CHL1  H18B 1361   2.515   1.012   5.323 -0.3034 -1.0428  0.9032
   19CHL1  H18C 1362   2.662   0.929   5.269  0.7036 -0.2651  0.6251
   19CHL1   C12 1363   2.853   1.102   5.310 -0.3302  0.0039 -0.5325
   19CHL1  H12A 1364   2.867   1.003   5.262 -2.2217 -0.6032  0.0804
   19CHL1  H12B 1365   2.909   1.187   5.267 -0.1086  0.2638  0.2447
   19CHL1   C11 1366   2.903   1.085   5.462 -0.3639 -0.0014 -0.0057
   19CHL1  H11A 1367   2.864   0.987   5.495 -0.1990  0.1188  0.5570
   19CHL1  H11B 1368   3.014   1.077   5.461 -0.3841 -0.5067  0.8257
   19CHL1    C9 1369   2.859   1.194   5.561 -0.2190 -0.5860  0.8619
   19CHL1    H9 1370   2.906   1.288   5.526 -1.1928 -1.1429 -2.2607
   19CHL1   C10 1371   2.901   1.161   5.710 -0.2807  0.2281 -0.6905
   19CHL1   C19 1372   2.896   1.007   5.736 -0.2193  0.8323 -0.2399
   19CHL1  H19A 1373   2.971   0.955   5.674 -0.4986  0.9547 -0.6811
   19CHL1  H19B 1374   2.907   0.986   5.845 -1.2225  0.6187 -0.1661
   19CHL1  H19C 1375   2.795   0.969   5.709 -0.9821  1.1321  1.9634
   19CHL1    C1 1376   3.047   1.210   5.729 -0.1442 -0.5145 -0.1990
   19CHL1   H1A 1377   3.117   1.156   5.662 -0.7744  1.9421 -3.0971
   19CHL1   H1B 1378   3.053   1.315   5.693 -3.8735  0.4725  1.5376
   19CHL1    C2 1379   3.099   1.217   5.874  0.2812  0.2608  0.8010
   19CHL1   H2A 1380   3.200   1.264   5.869 -0.1080  1.0363 -0.0903
   19CHL1   H2B 1381   3.112   1.113   5.910 -0.9185 -0.2196 -0.0994
   19CHL1   C20 1382   2.636   1.093   5.048  0.6585  0.8141  0.3725
   19CHL1   H20 1383   2.560   1.021   5.085 -0.8133  1.9476 -0.3395
   19CHL1   C21 1384   2.751   1.005   5.011  0.6208 -0.5340  0.3774
   19CHL1  H21A 1385   2.843   1.068   5.011 -1.2864  2.5948 -2.5481
   19CHL1  H21B 1386   2.740   0.965   4.909 -1.4422  1.8251 -0.4191
   19CHL1  H21C 1387   2.764   0.925   5.087  1.4192 -0.3568  0.4347
   19CHL1   C22 1388   2.585   1.159   4.917 -0.0592  0.2199  0.1665
   19CHL1  H22A 1389   2.568   1.078   4.842 -0.7679  1.5500 -1.1534
   19CHL1  H22B 1390   2.483   1.202   4.934 -0.6910 -0.9460 -0.5187
   19CHL1   C23 1391   2.683   1.260   4.865  0.1250 -0.9317 -0.1786
   19CHL1  H23A 1392   2.706   1.329   4.949  1.4755 -0.1199 -1.1615
   19CHL1  H23B 1393   2.773   1.211   4.823  0.3191  0.0129 -0.9122
   19CHL1   C24 1394   2.619   1.344   4.754 -0.2371 -0.0270 -0.1217
   19CHL1  H24A 1395   2.579   1.278   4.674  0.6245  1.8169 -2.1734
   19CHL1  H24B 1396   2.529   1.398   4.790 -1.5897 -0.3025 -2.8680
   19CHL1   C25 1397   2.702   1.457   4.686 -0.2377  0.0651 -0.1663
   19CHL1   H25 1398   2.637   1.511   4.614  0.2822  1.0009  0.0521
   19CHL1   C26 1399   2.745   1.561   4.791  0.3848  0.1493  0.0983
   19CHL1  H26A 1400   2.792   1.637   4.724  2.5074 -2.2109 -1.2967
   19CHL1  H26B 1401   2.656   1.590   4.851  1.1746  0.3339  1.2012
   19CHL1  H26C 1402   2.827   1.525   4.857  0.7238 -0.4496 -0.6251
   19CHL1   C27 1403   2.817   1.405   4.614 -0.3473  0.0298  0.5196
   19CHL1  H27A 1404   2.869   1.488   4.560  3.1995 -1.2332  1.6918
   19CHL1  H27B 1405   2.906   1.381   4.677  0.0040 -0.2692 -0.0801
   19CHL1  H27C 1406   2.798   1.327   4.538 -0.4393 -1.3424  1.8905
   20CHL1    C3 1407   1.612   1.737   6.178  0.1993 -0.3363  0.2642
   20CHL1    H3 1408   1.621   1.630   6.149  0.0152 -0.1894 -0.3277
   20CHL1    O3 1409   1.540   1.740   6.299  0.2250  0.2761 -0.0825
   20CHL1   H3' 1410   1.452   1.725   6.262  0.4180  3.8349 -2.5836
   20CHL1    C4 1411   1.744   1.805   6.204 -0.6975  0.3912  0.4779
   20CHL1   H4A 1412   1.717   1.900   6.255 -0.7599  0.3599  0.5037
   20CHL1   H4B 1413   1.802   1.750   6.281 -1.5226 -0.3897  0.5624
   20CHL1    C5 1414   1.827   1.812   6.073  0.6657 -0.0223  0.7303
   20CHL1    C6 1415   1.949   1.766   6.058  0.0331 -0.7778 -0.0669
   20CHL1    H6 1416   1.995   1.711   6.141  0.5603 -2.7424 -1.6053
   20CHL1    C7 1417   2.039   1.790   5.938  0.2997  0.7327  0.4471
   20CHL1   H7A 1418   2.141   1.824   5.964  0.5274  0.2981  0.1242
   20CHL1   H7B 1419   2.063   1.696   5.884  0.5457  2.1658 -2.1174
   20CHL1    C8 1420   1.976   1.893   5.843 -0.5696 -0.7032  0.5791
   20CHL1    H8 1421   1.993   1.992   5.891  0.8250  0.0158 -1.2612
   20CHL1   C14 1422   2.040   1.890   5.703 -1.2477 -1.0465 -0.6040
   20CHL1   H14 1423   2.010   1.791   5.662  2.1181 -3.2973  1.9016
   20CHL1   C15 1424   2.195   1.906   5.695  0.0619 -0.3163 -0.0692
   20CHL1  H15A 1425   2.226   1.980   5.772 -2.2151  0.9987 -0.3188
   20CHL1  H15B 1426   2.245   1.809   5.712 -1.0935 -0.4682  3.2919
   20CHL1   C16 1427   2.221   1.949   5.549 -0.4510 -1.1211 -0.1324
   20CHL1  H16A 1428   2.279   2.043   5.550  1.6628 -2.3509 -1.0801
   20CHL1  H16B 1429   2.286   1.874   5.499 -0.8132 -0.0852 -2.2529
   20CHL1   C17 1430   2.084   1.967   5.488 -0.1804 -0.6821 -0.2014
   20CHL1   H17 1431   2.048   1.870   5.449 -5.6530  1.9687 -2.7458
   20CHL1   C13 1432   1.989   1.991   5.597 -0.0818 -0.8204 -0.0591
   20CHL1   C18 1433   2.013   2.141   5.648  0.3325 -0.1068  0.5365
   20CHL1  H18A 1434   2.008   2.226   5.577  1.9906  1.4721  2.2119
   20CHL1  H18B 1435   1.940   2.167   5.728 -0.8810  3.2643 -1.4750
   20CHL1  H18C 1436   2.119   2.148   5.682  0.5099  0.8123 -0.1896
   20CHL1   C12 1437   1.840   1.965   5.574  0.5030  0.2585  0.5875
   20CHL1  H12A 1438   1.789   2.040   5.510 -0.8967  0.0246  1.3699
   20CHL1  H12B 1439   1.816   1.865   5.531  0.2239  0.7922 -0.5278
   20CHL1   C11 1440   1.763   1.963   5.709  1.0112  0.5523  0.4025
   20CHL1  H11A 1441   1.756   2.070   5.737 -1.8470 -0.0481  2.3837
   20CHL1  H11B 1442   1.656   1.931   5.703  1.3180 -0.9034  1.9189
   20CHL1    C9 1443   1.824   1.872   5.822 -0.6530  0.0281  0.0726
   20CHL1    H9 1444   1.813   1.771   5.778 -1.2616 -1.0018  2.4935
   20CHL1   C10 1445   1.751   1.878   5.957 -0.3206 -0.8262  0.3222
   20CHL1   C19 1446   1.739   2.030   5.999 -0.0162  0.5861  0.3181
   20CHL1  H19A 1447   1.690   2.059   6.094 -1.3561  0.3337 -0.2742
   20CHL1  H19B 1448   1.840   2.074   5.987  1.0411 -1.2871  1.7530
   20CHL1  H19C 1449   1.660   2.075   5.935  0.0232 -0.8400 -0.7835
   20CHL1    C1 1450   1.616   1.806   5.938 -0.2253  0.0769 -1.2793
   20CHL1   H1A 1451   1.563   1.863   5.858 -0.2966 -0.6122 -1.7334
   20CHL1   H1B 1452   1.639   1.705   5.898 -0.1054  1.2302 -4.3784
   20CHL1    C2 1453   1.532   1.796   6.066  0.4747 -0.7726  0.3301
   20CHL1   H2A 1454   1.448   1.730   6.036  0.4928 -1.1018  0.9981
   20CHL1   H2B 1455   1.481   1.894   6.077  0.5048 -0.6570 -0.5038
   20CHL1   C20 1456   2.090   2.068   5.365  0.3879  0.3797 -0.0471
   20CHL1   H20 1457   2.113   2.171   5.397  0.1436  0.8088 -1.2041
   20CHL1   C21 1458   1.959   2.063   5.284 -0.1967  0.5216 -0.3022
   20CHL1  H21A 1459   1.926   1.958   5.268 -2.3447  0.3970  3.6469
   20CHL1  H21B 1460   1.974   2.121   5.191 -1.6712  1.8260  0.2402
   20CHL1  H21C 1461   1.879   2.126   5.326  0.6366  1.2720  0.1970
   20CHL1   C22 1462   2.191   2.016   5.255  0.1167  0.1460  0.0065
   20CHL1  H22A 1463   2.182   2.079   5.164 -0.4678 -1.0116 -0.7582
   20CHL1  H22B 1464   2.293   2.032   5.297 -0.7180  0.8883  1.8465
   20CHL1   C23 1465   2.180   1.873   5.203  0.2513 -0.7737  0.0391
   20CHL1  H23A 1466   2.186   1.802   5.288 -1.1920 -1.2347 -0.2142
   20CHL1  H23B 1467   2.081   1.853   5.156  0.1439  0.4647 -0.3011
   20CHL1   C24 1468   2.297   1.835   5.109 -0.3970  0.2436  0.1747
   20CHL1  H24A 1469   2.299   1.908   5.025 -0.8763 -0.5810 -0.5748
   20CHL1  H24B 1470   2.389   1.855   5.168 -0.1960 -1.1103  0.3579
   20CHL1   C25 1471   2.289   1.696   5.044  0.6044 -0.1879 -0.6020
   20CHL1   H25 1472   2.261   1.618   5.117 -1.2611  1.2779  0.3294
   20CHL1   C26 1473   2.177   1.688   4.937  0.1234  0.4256  1.0657
   20CHL1  H26A 1474   2.200   1.770   4.865  3.5344 -1.2608  0.0311
   20CHL1  H26B 1475   2.169   1.585   4.896  1.2902  0.9916 -0.6977
   20CHL1  H26C 1476   2.081   1.717   4.984 -0.2037 -1.9470  1.9830
   20CHL1   C27 1477   2.418   1.649   4.983 -0.4511 -0.0605 -0.1664
   20CHL1  H27A 1478   2.405   1.543   4.952 -0.1919 -0.2814  0.4778
   20CHL1  H27B 1479   2.444   1.702   4.889  3.2281  0.5597  1.0556
   20CHL1  H27C 1480   2.510   1.665   5.043 -1.2555 -1.6304  1.5824
   21CHL1    C3 1481   0.531   2.646   6.063 -0.1780  0.8645 -0.4408
   21CHL1    H3 1482   0.562   2.548   6.021  1.0658  1.4630 -0.9588
   21CHL1    O3 1483   0.550   2.650   6.200  0.1519 -0.0248  0.3156
   21CHL1   H3' 1484   0.635   2.691   6.219  0.2113 -0.2851  0.6192
   21CHL1    C4 1485   0.607   2.757   5.999 -0.0171 -0.1755  0.3158
   21CHL1   H4A 1486   0.592   2.856   6.047 -0.6454  0.8609 -1.9004
   21CHL1   H4B 1487   0.714   2.739   6.023 -0.4652 -2.2858  0.9116
   21CHL1    C5 1488   0.576   2.763   5.853 -0.3518 -0.3718  0.7599
   21CHL1    C6 1489   0.678   2.763   5.759  0.2999  0.1563  0.4847
   21CHL1    H6 1490   0.782   2.754   5.796  0.7524 -1.3824 -1.0476
   21CHL1    C7 1491   0.654   2.772   5.609 -0.2772 -0.3070  0.5711
   21CHL1   H7A 1492   0.726   2.827   5.544 -1.9594 -0.2171 -1.3079
   21CHL1   H7B 1493   0.648   2.667   5.575  0.3898 -0.8022  1.9044
   21CHL1    C8 1494   0.518   2.835   5.583  0.8200 -0.5911  0.4065
   21CHL1    H8 1495   0.515   2.942   5.611 -1.4783 -0.3949 -0.3965
   21CHL1   C14 1496   0.489   2.821   5.431 -0.3511  0.4559 -0.5752
   21CHL1   H14 1497   0.477   2.710   5.422 -0.5777  0.4147  0.1667
   21CHL1   C15 1498   0.588   2.859   5.326  0.1972 -0.1398  0.1510
   21CHL1  H15A 1499   0.629   2.959   5.350  3.1730 -0.3876 -3.0443
   21CHL1  H15B 1500   0.668   2.783   5.311 -0.9525 -1.6630  1.4189
   21CHL1   C16 1501   0.510   2.880   5.194 -0.4467  0.5764  0.1530
   21CHL1  H16A 1502   0.528   2.987   5.170  0.7600  0.4451  0.4167
   21CHL1  H16B 1503   0.542   2.815   5.109 -0.4690  1.4724 -0.5628
   21CHL1   C17 1504   0.362   2.866   5.232  0.2415  0.3228  0.0713
   21CHL1   H17 1505   0.337   2.759   5.218 -0.4168  0.4694  0.1028
   21CHL1   C13 1506   0.358   2.881   5.386 -0.0494  0.5074  0.4139
   21CHL1   C18 1507   0.361   3.028   5.422  0.7659 -0.2612  0.2503
   21CHL1  H18A 1508   0.350   3.038   5.533  0.7281  0.9954  0.1495
   21CHL1  H18B 1509   0.457   3.078   5.397  0.7923  1.1133  2.7577
   21CHL1  H18C 1510   0.283   3.089   5.373  0.1634 -0.7298  0.6158
   21CHL1   C12 1511   0.249   2.798   5.457 -0.0485  0.1237 -0.0854
   21CHL1  H12A 1512   0.155   2.849   5.426  0.6463  1.3655 -0.1674
   21CHL1  H12B 1513   0.254   2.690   5.432 -0.4935  0.1767 -0.4219
   21CHL1   C11 1514   0.261   2.813   5.607  0.0470  0.1547  0.4205
   21CHL1  H11A 1515   0.236   2.912   5.650 -0.6281 -0.8466  2.4279
   21CHL1  H11B 1516   0.192   2.738   5.651  1.8606 -3.0482 -1.8372
   21CHL1    C9 1517   0.400   2.761   5.659 -0.5051 -0.5603  0.5864
   21CHL1    H9 1518   0.414   2.654   5.631  0.9587  0.0884 -1.3526
   21CHL1   C10 1519   0.424   2.775   5.813  0.4819 -0.2397 -0.3477
   21CHL1   C19 1520   0.382   2.918   5.857 -0.3744 -0.3877 -0.1411
   21CHL1  H19A 1521   0.274   2.943   5.859  0.0267  1.4502 -0.3922
   21CHL1  H19B 1522   0.416   2.948   5.958 -1.5708 -0.4175  0.2806
   21CHL1  H19C 1523   0.424   2.993   5.786 -1.6950 -0.1330 -0.6912
   21CHL1    C1 1524   0.354   2.658   5.890  0.4373  0.0363 -0.4553
   21CHL1   H1A 1525   0.243   2.664   5.881  0.3732  0.1414  0.2964
   21CHL1   H1B 1526   0.385   2.563   5.842 -1.2084 -0.9052  0.2391
   21CHL1    C2 1527   0.381   2.664   6.046 -0.2251 -0.1946  0.7790
   21CHL1   H2A 1528   0.323   2.583   6.096  0.9826 -0.2395  2.1454
   21CHL1   H2B 1529   0.343   2.759   6.089 -1.4230 -0.2545 -0.0873
   21CHL1   C20 1530   0.273   2.951   5.139  0.2099 -0.2614  0.4911
   21CHL1   H20 1531   0.305   3.057   5.151  1.8818 -0.7571  0.7547
   21CHL1   C21 1532   0.120   2.937   5.165 -0.0477 -0.0074 -0.0941
   21CHL1  H21A 1533   0.105   2.984   5.265  2.0698 -2.7001  1.6187
   21CHL1  H21B 1534   0.076   2.835   5.157  3.3765 -1.8403  1.9950
   21CHL1  H21C 1535   0.076   3.002   5.086 -0.2476  0.1534  0.1456
   21CHL1   C22 1536   0.308   2.925   4.997  0.3033 -0.3409 -0.0177
   21CHL1  H22A 1537   0.257   3.002   4.934  0.3997  0.6392  1.0609
   21CHL1  H22B 1538   0.414   2.940   4.967 -0.2523  1.3562 -1.3642
   21CHL1   C23 1539   0.253   2.794   4.940 -0.4575 -0.3337  0.1027
   21CHL1  H23A 1540   0.324   2.719   4.983 -0.7418  0.1108  1.3721
   21CHL1  H23B 1541   0.151   2.764   4.972  0.5569 -5.1132 -0.3134
   21CHL1   C24 1542   0.255   2.797   4.792 -0.0055 -0.0994  0.6486
   21CHL1  H24A 1543   0.179   2.866   4.750 -1.5989 -1.9283  0.4036
   21CHL1  H24B 1544   0.356   2.822   4.751  0.5203 -0.3127  1.7753
   21CHL1   C25 1545   0.216   2.661   4.728  0.0824 -0.3716 -0.3169
   21CHL1   H25 1546   0.121   2.630   4.777 -0.4573 -0.8518 -1.6032
   21CHL1   C26 1547   0.189   2.685   4.570  0.1031  0.3578  0.1136
   21CHL1  H26A 1548   0.272   2.740   4.519  0.9788 -0.9544  0.0764
   21CHL1  H26B 1549   0.161   2.590   4.519 -0.1360  0.2446  0.4560
   21CHL1  H26C 1550   0.094   2.743   4.577 -0.5095 -0.7188  0.9592
   21CHL1   C27 1551   0.318   2.549   4.750  0.0501  0.2050 -0.0664
   21CHL1  H27A 1552   0.420   2.562   4.708 -0.3619 -0.6298 -1.3511
   21CHL1  H27B 1553   0.339   2.525   4.857  0.7040  0.5608 -0.1106
   21CHL1  H27C 1554   0.274   2.461   4.699 -2.7983  1.4372  0.1104
   22CHL1    C3 1555   1.484   6.110   5.955 -0.6451 -0.1854  0.9075
   22CHL1    H3 1556   1.568   6.038   5.945 -0.2085 -0.1717  3.6913
   22CHL1    O3 1557   1.428   6.092   6.085  0.4900 -0.1201  0.0670
   22CHL1   H3' 1558   1.338   6.119   6.065  0.9323  1.2121 -0.2493
   22CHL1    C4 1559   1.522   6.260   5.933 -0.6285  0.5861  0.2464
   22CHL1   H4A 1560   1.441   6.326   5.971  0.4894  1.3002  1.4793
   22CHL1   H4B 1561   1.603   6.284   6.004 -0.2460 -2.8553  1.1538
   22CHL1    C5 1562   1.541   6.300   5.789 -0.1542  0.1465 -0.4554
   22CHL1    C6 1563   1.651   6.356   5.750 -0.2115  0.4950 -0.1498
   22CHL1    H6 1564   1.723   6.385   5.828 -1.4815  1.2774  0.7821
   22CHL1    C7 1565   1.688   6.405   5.612 -0.0334 -0.0707 -0.9668
   22CHL1   H7A 1566   1.725   6.509   5.614  1.9047 -0.7254 -0.0086
   22CHL1   H7B 1567   1.775   6.349   5.572  0.1426 -0.5359  0.0208
   22CHL1    C8 1568   1.575   6.393   5.512 -0.7000  0.2307 -0.4348
   22CHL1    H8 1569   1.507   6.478   5.537  1.4182  1.6682  0.6804
   22CHL1   C14 1570   1.627   6.408   5.374 -0.4770  0.2924 -0.2391
   22CHL1   H14 1571   1.699   6.324   5.369  1.1861  1.6276  0.0034
   22CHL1   C15 1572   1.702   6.528   5.337 -0.3007 -0.6507  0.4450
   22CHL1  H15A 1573   1.637   6.617   5.348 -1.7784 -1.3364 -1.9076
   22CHL1  H15B 1574   1.799   6.546   5.387  0.7898 -2.3971 -0.9278
   22CHL1   C16 1575   1.722   6.512   5.181 -0.8790 -0.6413 -0.6051
   22CHL1  H16A 1576   1.691   6.605   5.129 -1.9799  0.1570  1.3639
   22CHL1  H16B 1577   1.825   6.485   5.148 -0.2526  2.1696 -1.2752
   22CHL1   C17 1578   1.625   6.396   5.138 -0.0435  0.0736 -0.5843
   22CHL1   H17 1579   1.672   6.296   5.151 -1.9757 -0.8789 -0.6702
   22CHL1   C13 1580   1.526   6.390   5.261  0.5338  0.0810  0.7601
   22CHL1   C18 1581   1.417   6.513   5.247 -0.2023  0.4729  0.3153
   22CHL1  H18A 1582   1.466   6.611   5.235 -1.9846  1.1727 -2.2422
   22CHL1  H18B 1583   1.353   6.497   5.157 -1.8011  1.6038  1.1934
   22CHL1  H18C 1584   1.347   6.520   5.333 -0.5208  2.4809 -0.0632
   22CHL1   C12 1585   1.448   6.261   5.276  0.0719 -0.4376 -0.3405
   22CHL1  H12A 1586   1.366   6.261   5.201 -0.0253  0.0771 -0.2349
   22CHL1  H12B 1587   1.516   6.175   5.257  2.2436 -0.1319  4.4284
   22CHL1   C11 1588   1.393   6.241   5.420 -0.4092  0.7946  0.3230
   22CHL1  H11A 1589   1.304   6.307   5.428 -1.5820 -0.6830  0.0624
   22CHL1  H11B 1590   1.350   6.138   5.427  0.4345  0.4576  0.7236
   22CHL1    C9 1591   1.497   6.261   5.533  0.9119  0.2967 -0.1082
   22CHL1    H9 1592   1.575   6.183   5.516 -0.4082 -0.9171 -0.7495
   22CHL1   C10 1593   1.444   6.254   5.681  0.1143  0.1200 -0.4630
   22CHL1   C19 1594   1.313   6.331   5.689  0.2636  0.2581 -0.1071
   22CHL1  H19A 1595   1.288   6.332   5.797  0.7520 -0.8009  0.0189
   22CHL1  H19B 1596   1.318   6.439   5.662  0.2805  0.8027  1.9095
   22CHL1  H19C 1597   1.238   6.271   5.634 -0.9805  0.7569  1.0021
   22CHL1    C1 1598   1.421   6.102   5.710 -0.2256  0.3247  0.3037
   22CHL1   H1A 1599   1.351   6.063   5.633  2.7884  1.5497 -3.3693
   22CHL1   H1B 1600   1.517   6.050   5.688  0.3476  0.6239  1.9762
   22CHL1    C2 1601   1.381   6.066   5.846  0.1492 -0.5378  0.2877
   22CHL1   H2A 1602   1.361   5.957   5.848  1.0476 -0.8104 -2.2154
   22CHL1   H2B 1603   1.292   6.120   5.885  0.7740  0.1297  0.8152
   22CHL1   C20 1604   1.578   6.405   4.993 -0.0408 -0.0388  0.0911
   22CHL1   H20 1605   1.537   6.507   4.979  1.3826  0.7887  1.6007
   22CHL1   C21 1606   1.467   6.305   4.946 -0.9806 -0.2141  0.2010
   22CHL1  H21A 1607   1.375   6.296   5.007 -1.0169 -0.0950  0.1630
   22CHL1  H21B 1608   1.512   6.206   4.924  2.1439  0.6311  2.1292
   22CHL1  H21C 1609   1.430   6.340   4.848 -1.0516 -0.7598  0.0289
   22CHL1   C22 1610   1.703   6.378   4.901 -0.3864  0.7183 -0.0175
   22CHL1  H22A 1611   1.782   6.452   4.926  0.8015 -0.2354 -0.8378
   22CHL1  H22B 1612   1.742   6.276   4.923 -2.8356  0.2089  2.5980
   22CHL1   C23 1613   1.671   6.382   4.748 -1.0860 -0.2128  0.8926
   22CHL1  H23A 1614   1.597   6.304   4.719 -2.8014  1.8257 -0.4331
   22CHL1  H23B 1615   1.625   6.482   4.733 -0.4777  0.5243  3.3953
   22CHL1   C24 1616   1.802   6.353   4.659 -0.0928  0.5057  0.1384
   22CHL1  H24A 1617   1.882   6.414   4.706  0.3520  0.6012 -0.7289
   22CHL1  H24B 1618   1.826   6.244   4.667 -1.6364  0.2592  2.3610
   22CHL1   C25 1619   1.781   6.372   4.508 -0.7135 -0.5998 -0.5089
   22CHL1   H25 1620   1.748   6.476   4.486 -1.5760 -0.5949  0.6728
   22CHL1   C26 1621   1.910   6.362   4.435 -0.1333 -0.5640 -0.1878
   22CHL1  H26A 1622   1.906   6.389   4.327 -0.7461  0.3586  0.0611
   22CHL1  H26B 1623   1.998   6.421   4.470 -2.1185  1.2603  2.0012
   22CHL1  H26C 1624   1.944   6.257   4.450 -0.4566 -0.5051  1.0487
   22CHL1   C27 1625   1.679   6.276   4.448  0.6349 -0.0058  0.5987
   22CHL1  H27A 1626   1.687   6.267   4.337  0.8297 -1.3051  0.6981
   22CHL1  H27B 1627   1.690   6.171   4.482 -0.7252 -0.2501  0.3701
   22CHL1  H27C 1628   1.574   6.303   4.475  0.6738  1.3483 -0.4928
   23CHL1    C3 1629   2.632   1.714   5.866  0.1220 -0.1640 -0.0411
   23CHL1    H3 1630   2.649   1.605   5.852  1.5685 -0.1700  1.4980
   23CHL1    O3 1631   2.594   1.744   6.002  0.0085  0.0673 -0.7291
   23CHL1   H3' 1632   2.587   1.840   5.997  0.4664  0.0992 -0.8190
   23CHL1    C4 1633   2.774   1.770   5.843 -0.1266 -0.6142  0.0646
   23CHL1   H4A 1634   2.794   1.874   5.876  0.6851 -1.3640  2.1203
   23CHL1   H4B 1635   2.835   1.710   5.913  1.2265  2.2280  1.4714
   23CHL1    C5 1636   2.826   1.749   5.703  0.1190  0.5208 -0.0753
   23CHL1    C6 1637   2.934   1.683   5.674 -0.6295 -0.6781 -0.0141
   23CHL1    H6 1638   3.007   1.641   5.744  1.1552 -0.3705 -1.5947
   23CHL1    C7 1639   2.990   1.684   5.532  0.5877  0.3487  0.4594
   23CHL1   H7A 1640   3.100   1.688   5.539  0.8034 -1.0280 -1.4053
   23CHL1   H7B 1641   2.973   1.581   5.494  0.5175  0.1276  1.0894
   23CHL1    C8 1642   2.932   1.780   5.434 -0.1576 -0.5261  0.0230
   23CHL1    H8 1643   2.972   1.879   5.464 -1.3263  0.0252 -0.1779
   23CHL1   C14 1644   2.984   1.749   5.289 -0.5275  0.7857 -0.5280
   23CHL1   H14 1645   2.942   1.647   5.273  1.1613  0.1093 -0.8660
   23CHL1   C15 1646   3.138   1.740   5.266 -0.3776  0.7015  0.8389
   23CHL1  H15A 1647   3.180   1.839   5.295 -0.8815  0.6194  1.8969
   23CHL1  H15B 1648   3.175   1.652   5.322 -0.5111  0.2983  0.3077
   23CHL1   C16 1649   3.134   1.734   5.113  0.8238 -0.1173  0.6672
   23CHL1  H16A 1650   3.209   1.806   5.072 -0.0138 -1.2644 -3.2321
   23CHL1  H16B 1651   3.162   1.631   5.083 -0.2635 -0.3750  0.4943
   23CHL1   C17 1652   2.996   1.783   5.063 -0.2600  0.2849  0.3994
   23CHL1   H17 1653   2.930   1.697   5.040  0.5183 -0.7156  1.7750
   23CHL1   C13 1654   2.928   1.843   5.184  0.3036  0.2063 -0.1079
   23CHL1   C18 1655   2.972   1.988   5.209 -0.6162 -0.4960 -0.3601
   23CHL1  H18A 1656   2.919   2.056   5.139 -3.2283  1.0377  2.8287
   23CHL1  H18B 1657   2.938   2.026   5.307 -0.5799 -1.3117 -0.0210
   23CHL1  H18C 1658   3.083   1.995   5.206 -0.6208 -0.6122 -0.9091
   23CHL1   C12 1659   2.773   1.843   5.188 -0.6831 -0.0180 -0.0311
   23CHL1  H12A 1660   2.729   1.924   5.126 -2.2494 -0.9013 -0.1383
   23CHL1  H12B 1661   2.736   1.742   5.160 -2.2555  0.0748  1.5580
   23CHL1   C11 1662   2.717   1.865   5.337  0.2834  0.2331  0.2067
   23CHL1  H11A 1663   2.737   1.972   5.359  0.2990  0.4495 -0.7950
   23CHL1  H11B 1664   2.607   1.852   5.341  0.2310  0.7906  0.6348
   23CHL1    C9 1665   2.785   1.778   5.446  0.5700 -0.3844  0.8172
   23CHL1    H9 1666   2.748   1.675   5.426 -0.2318 -0.3600  2.0069
   23CHL1   C10 1667   2.732   1.809   5.594 -0.2839 -0.0967  0.2076
   23CHL1   C19 1668   2.726   1.959   5.606 -0.0454  0.0352 -0.0387
   23CHL1  H19A 1669   2.698   2.001   5.704  0.9415  0.8144 -0.0674
   23CHL1  H19B 1670   2.821   2.004   5.568 -0.3620 -0.5200 -1.5504
   23CHL1  H19C 1671   2.654   2.010   5.539 -0.4392  1.2909  1.2959
   23CHL1    C1 1672   2.590   1.750   5.617 -0.2550 -0.2206  0.5300
   23CHL1   H1A 1673   2.510   1.785   5.548 -0.6593  1.9615  2.0212
   23CHL1   H1B 1674   2.604   1.642   5.592  2.6434 -0.0318  1.0745
   23CHL1    C2 1675   2.540   1.768   5.763  0.6492 -0.6436 -0.5466
   23CHL1   H2A 1676   2.437   1.724   5.757  0.3613  0.1450 -1.7027
   23CHL1   H2B 1677   2.521   1.875   5.785  1.7413 -0.3903 -0.8206
   23CHL1   C20 1678   2.997   1.865   4.929  0.0453  0.0461 -0.1731
   23CHL1   H20 1679   3.051   1.958   4.958 -1.8762  1.0859  0.1890
   23CHL1   C21 1680   2.859   1.913   4.886 -1.2061 -0.0903 -0.1457
   23CHL1  H21A 1681   2.849   1.954   4.783 -1.9024  2.6614  0.9350
   23CHL1  H21B 1682   2.820   1.990   4.955 -0.2909 -0.4680  0.8247
   23CHL1  H21C 1683   2.794   1.824   4.904  1.1469 -1.5630  1.7974
   23CHL1   C22 1684   3.064   1.788   4.812 -0.2282 -0.3286  0.1642
   23CHL1  H22A 1685   3.163   1.745   4.839  1.0958  1.3751 -1.6921
   23CHL1  H22B 1686   2.994   1.706   4.788 -1.5058  0.5057  0.8779
   23CHL1   C23 1687   3.091   1.881   4.690  0.1471  0.4346  0.4401
   23CHL1  H23A 1688   3.018   1.965   4.686  0.7527  0.9612 -2.8538
   23CHL1  H23B 1689   3.188   1.935   4.697 -0.3176  1.2482  0.7572
   23CHL1   C24 1690   3.077   1.818   4.548 -0.1559 -0.3167 -0.0676
   23CHL1  H24A 1691   2.982   1.760   4.542 -0.6871  0.3103  1.7610
   23CHL1  H24B 1692   3.077   1.905   4.479  0.3266 -1.4766 -1.5796
   23CHL1   C25 1693   3.184   1.727   4.498  0.0213  0.1566  0.8738
   23CHL1   H25 1694   3.277   1.785   4.479  0.3914  0.0661  2.2452
   23CHL1   C26 1695   3.211   1.605   4.581 -0.0845  0.6993  0.2865
   23CHL1  H26A 1696   3.250   1.637   4.680 -0.4214 -0.1251  0.6890
   23CHL1  H26B 1697   3.121   1.544   4.604 -0.0871  0.8084  0.5638
   23CHL1  H26C 1698   3.285   1.540   4.529  0.6737  0.3792  1.7157
   23CHL1   C27 1699   3.150   1.690   4.342 -0.2427  0.0829 -0.2970
   23CHL1  H27A 1700   3.058   1.630   4.328 -0.3518  0.2513 -0.3148
   23CHL1  H27B 1701   3.126   1.788   4.295 -2.5909  0.2823  1.1351
   23CHL1  H27C 1702   3.238   1.647   4.290  0.6966 -0.4472  1.6375
   24CHL1    C3 1703   2.963   5.820   6.249 -0.5772  0.0762 -0.2292
   24CHL1    H3 1704   2.921   5.718   6.239 -0.2804 -0.0587 -0.1195
   24CHL1    O3 1705   2.959   5.840   6.386  0.2643 -0.2063 -0.0862
   24CHL1   H3' 1706   3.013   5.772   6.427  0.1873  0.6136  1.4246
   24CHL1    C4 1707   3.114   5.817   6.210  0.0101 -0.8897  0.8068
   24CHL1   H4A 1708   3.150   5.911   6.257  0.7864 -0.6407 -0.2421
   24CHL1   H4B 1709   3.168   5.736   6.262 -1.1906 -0.7431  2.3581
   24CHL1    C5 1710   3.129   5.812   6.056  0.0783 -0.5920 -0.1140
   24CHL1    C6 1711   3.197   5.713   6.002  0.5471  0.0131  0.4345
   24CHL1    H6 1712   3.257   5.658   6.076  3.6859  3.5019  0.7842
   24CHL1    C7 1713   3.205   5.678   5.853 -0.9021 -0.5751  0.3178
   24CHL1   H7A 1714   3.307   5.635   5.842 -0.7149  0.0686 -0.5733
   24CHL1   H7B 1715   3.134   5.597   5.822 -1.8616  0.4668 -0.2876
   24CHL1    C8 1716   3.178   5.806   5.769 -0.4093 -0.2552 -0.0086
   24CHL1    H8 1717   3.262   5.878   5.777  0.8684 -1.7420  0.4597
   24CHL1   C14 1718   3.172   5.771   5.617  0.3612 -0.9705 -0.5581
   24CHL1   H14 1719   3.095   5.692   5.608 -2.0263  1.2556 -1.0653
   24CHL1   C15 1720   3.290   5.699   5.549  0.3438  0.2074 -0.4601
   24CHL1  H15A 1721   3.386   5.750   5.571 -0.4649  1.0564  1.2438
   24CHL1  H15B 1722   3.291   5.593   5.582  2.2534  0.6670  1.1109
   24CHL1   C16 1723   3.252   5.708   5.402 -0.2051  0.0429  0.0398
   24CHL1  H16A 1724   3.338   5.749   5.346 -0.4801  0.9656  0.2872
   24CHL1  H16B 1725   3.219   5.609   5.364 -2.9230  1.8680 -2.8639
   24CHL1   C17 1726   3.125   5.807   5.390 -0.0214  0.2569 -0.1882
   24CHL1   H17 1727   3.037   5.742   5.367 -0.0198  0.5738 -1.1365
   24CHL1   C13 1728   3.123   5.878   5.524 -1.0854 -0.1290 -0.1726
   24CHL1   C18 1729   3.223   5.996   5.528 -0.2369 -0.3853  0.2745
   24CHL1  H18A 1730   3.194   6.082   5.464 -1.3446  0.2608  1.5749
   24CHL1  H18B 1731   3.232   6.035   5.632  1.4265  0.0393 -0.0056
   24CHL1  H18C 1732   3.327   5.967   5.502  1.1956  2.6078  2.1186
   24CHL1   C12 1733   2.980   5.924   5.571 -0.2294  0.0728 -0.3115
   24CHL1  H12A 1734   2.944   5.997   5.496  2.7537  0.4591 -1.5103
   24CHL1  H12B 1735   2.913   5.836   5.569 -0.3954  0.2044 -0.6896
   24CHL1   C11 1736   2.982   5.971   5.712  0.8501  0.0406 -0.0984
   24CHL1  H11A 1737   3.037   6.067   5.719 -0.7645  0.9251  0.7299
   24CHL1  H11B 1738   2.885   5.996   5.758  1.0064  0.5693 -0.0469
   24CHL1    C9 1739   3.044   5.863   5.814  0.0382  0.9268  0.3524
   24CHL1    H9 1740   2.976   5.775   5.818 -0.6311  1.3110 -1.4441
   24CHL1   C10 1741   3.048   5.907   5.964  0.8962 -0.4803 -0.5836
   24CHL1   C19 1742   3.117   6.046   5.982 -0.4139  1.1261 -0.5970
   24CHL1  H19A 1743   3.202   6.045   5.910 -1.3108 -0.1412 -1.6798
   24CHL1  H19B 1744   3.051   6.133   5.961  1.6565  3.1483  0.7341
   24CHL1  H19C 1745   3.157   6.057   6.085  0.2096  0.9986 -0.8212
   24CHL1    C1 1746   2.901   5.912   6.023 -0.2589 -0.4561 -0.0927
   24CHL1   H1A 1747   2.841   5.997   5.986 -0.9545 -0.5496  0.7844
   24CHL1   H1B 1748   2.847   5.817   6.001 -1.4880  0.3611 -0.7172
   24CHL1    C2 1749   2.888   5.928   6.178 -0.2040 -0.0735  0.1929
   24CHL1   H2A 1750   2.784   5.932   6.216 -0.2010 -0.7597  0.2892
   24CHL1   H2B 1751   2.931   6.027   6.205 -0.0745  0.5095 -1.9940
   24CHL1   C20 1752   3.141   5.889   5.268  0.3152  0.0595  1.4009
   24CHL1   H20 1753   3.229   5.952   5.291  1.9331 -2.3677  2.3647
   24CHL1   C21 1754   3.015   5.978   5.241  0.2063  0.3789  0.5202
   24CHL1  H21A 1755   2.927   5.911   5.249 -0.4197  1.3301  2.1280
   24CHL1  H21B 1756   3.023   6.023   5.140  1.7040 -0.3347  0.2958
   24CHL1  H21C 1757   3.008   6.064   5.311 -1.6001 -0.5803  1.5878
   24CHL1   C22 1758   3.180   5.810   5.139  0.6596  0.2218  0.6032
   24CHL1  H22A 1759   3.238   5.716   5.153 -1.2554 -1.1425 -0.1686
   24CHL1  H22B 1760   3.090   5.771   5.086  1.9567 -1.0747 -0.7662
   24CHL1   C23 1761   3.251   5.898   5.032  0.3787  0.1327 -0.4537
   24CHL1  H23A 1762   3.188   5.987   5.015  0.6747  0.5694  0.6807
   24CHL1  H23B 1763   3.333   5.942   5.093 -0.3676  1.9403 -0.6989
   24CHL1   C24 1764   3.286   5.820   4.910  0.1007  0.5292 -0.2525
   24CHL1  H24A 1765   3.325   5.721   4.943 -0.3384  0.9521  1.6182
   24CHL1  H24B 1766   3.189   5.820   4.856 -0.8953 -0.1030  1.4481
   24CHL1   C25 1767   3.402   5.892   4.831 -0.2668  0.8236  0.6870
   24CHL1   H25 1768   3.482   5.892   4.908  0.4273 -0.1689 -0.0248
   24CHL1   C26 1769   3.436   5.800   4.714  0.1314 -0.1720  0.8970
   24CHL1  H26A 1770   3.441   5.696   4.752  0.3686 -0.8461 -0.8513
   24CHL1  H26B 1771   3.358   5.809   4.635  2.2292 -0.1090 -1.2954
   24CHL1  H26C 1772   3.535   5.817   4.667 -0.6693 -0.0189 -0.8192
   24CHL1   C27 1773   3.380   6.030   4.782 -0.0558  0.2224 -0.2028
   24CHL1  H27A 1774   3.467   6.068   4.725  2.2871  0.5926  3.3301
   24CHL1  H27B 1775   3.286   6.049   4.725 -0.2151  3.8754  0.9787
   24CHL1  H27C 1776   3.363   6.105   4.863  0.7950  1.1651 -0.8674
   25CHL1    C3 1777   5.872   2.597   6.248  0.5218 -0.0810 -0.4546
   25CHL1    H3 1778   5.952   2.670   6.269  2.2996 -2.4732  1.7695
   25CHL1    O3 1779   5.859   2.515   6.363 -0.1101 -0.0240 -0.4709
   25CHL1   H3' 1780   5.796   2.448   6.337  0.2037 -0.1218 -0.9797
   25CHL1    C4 1781   5.737   2.655   6.238  0.5153  0.1047  0.7604
   25CHL1   H4A 1782   5.661   2.574   6.243  1.2087 -0.4827  2.6553
   25CHL1   H4B 1783   5.720   2.729   6.319 -0.1123  0.3897  0.3814
   25CHL1    C5 1784   5.707   2.724   6.109  0.6472  0.0270 -0.2421
   25CHL1    C6 1785   5.662   2.850   6.102  0.3621  0.4520 -0.3409
   25CHL1    H6 1786   5.640   2.907   6.193  0.0663 -1.4789  0.8559
   25CHL1    C7 1787   5.610   2.911   5.970 -0.2757  0.0360  0.2284
   25CHL1   H7A 1788   5.516   2.969   5.983  0.8218  1.9151  0.2009
   25CHL1   H7B 1789   5.680   2.991   5.937 -1.5794  0.7122 -1.0020
   25CHL1    C8 1790   5.605   2.806   5.857 -0.1415  0.1095 -0.7012
   25CHL1    H8 1791   5.512   2.745   5.863 -0.8765  1.1762 -0.9901
   25CHL1   C14 1792   5.592   2.884   5.723  0.3727  0.1311 -0.4927
   25CHL1   H14 1793   5.685   2.945   5.721 -0.6045  1.6368 -1.9533
   25CHL1   C15 1794   5.472   2.981   5.707 -0.8581  0.0354  0.0139
   25CHL1  H15A 1795   5.378   2.932   5.741 -1.2047  0.7036  0.0532
   25CHL1  H15B 1796   5.487   3.072   5.770 -0.8899 -1.2441  1.9537
   25CHL1   C16 1797   5.473   3.028   5.566 -0.2255 -0.3246 -0.4230
   25CHL1  H16A 1798   5.371   3.022   5.522 -0.9495  0.1861  1.1205
   25CHL1  H16B 1799   5.498   3.135   5.546 -1.0813 -0.3584 -1.8295
   25CHL1   C17 1800   5.578   2.930   5.497 -0.2330  0.3876 -0.1633
   25CHL1   H17 1801   5.667   2.996   5.496 -0.7491  1.0908 -1.3320
   25CHL1   C13 1802   5.596   2.814   5.597  0.7071 -0.1965  0.6155
   25CHL1   C18 1803   5.471   2.726   5.588 -0.9110  0.1405  0.5452
   25CHL1  H18A 1804   5.472   2.648   5.667  1.0332  0.5427  0.9771
   25CHL1  H18B 1805   5.375   2.780   5.576  0.5947  2.7728 -0.7342
   25CHL1  H18C 1806   5.479   2.668   5.494  0.3203  2.1469 -0.6785
   25CHL1   C12 1807   5.730   2.737   5.597  0.5143 -0.4163  1.0527
   25CHL1  H12A 1808   5.736   2.672   5.507  1.1093 -0.5431  1.1839
   25CHL1  H12B 1809   5.814   2.809   5.589  0.2430 -0.2156 -0.2263
   25CHL1   C11 1810   5.747   2.645   5.727 -0.5448 -0.2786  0.0212
   25CHL1  H11A 1811   5.672   2.563   5.724  0.1423 -0.9809  1.2579
   25CHL1  H11B 1812   5.844   2.593   5.714  0.4083  1.5498 -0.4088
   25CHL1    C9 1813   5.731   2.724   5.859 -0.7019  0.3018 -0.3840
   25CHL1    H9 1814   5.808   2.804   5.856  1.0930 -1.1218  2.6923
   25CHL1   C10 1815   5.740   2.638   5.987  0.5388  0.6834  1.0406
   25CHL1   C19 1816   5.643   2.516   5.980 -0.8065  1.0158  0.3848
   25CHL1  H19A 1817   5.617   2.469   6.077 -1.5421 -1.0356 -0.7577
   25CHL1  H19B 1818   5.544   2.555   5.947 -1.2571  0.7364  1.3591
   25CHL1  H19C 1819   5.681   2.434   5.916 -1.3632  1.0808 -0.0418
   25CHL1    C1 1820   5.888   2.583   6.004 -0.0923  0.3153 -0.3510
   25CHL1   H1A 1821   5.910   2.514   5.920  0.2490 -0.3994  0.3117
   25CHL1   H1B 1822   5.959   2.667   5.986  0.4153  0.1127  0.6438
   25CHL1    C2 1823   5.905   2.503   6.127 -0.1285  0.6600 -0.4507
   25CHL1   H2A 1824   6.011   2.472   6.139 -0.6336 -0.5326  1.5569
   25CHL1   H2B 1825   5.852   2.406   6.131  0.0430  0.5772  3.1611
   25CHL1   C20 1826   5.543   2.903   5.358 -0.6072 -0.7528  0.1798
   25CHL1   H20 1827   5.442   2.858   5.348 -1.2943  0.6904  0.4435
   25CHL1   C21 1828   5.631   2.807   5.292  0.7153  0.3034  0.0580
   25CHL1  H21A 1829   5.602   2.799   5.185  1.9813  2.0566 -0.4584
   25CHL1  H21B 1830   5.616   2.705   5.335 -0.6517  1.1204  1.6015
   25CHL1  H21C 1831   5.739   2.832   5.281  1.2305 -1.1055  1.4250
   25CHL1   C22 1832   5.554   3.035   5.279  0.2412 -0.2958 -0.1974
   25CHL1  H22A 1833   5.496   3.120   5.322  1.0476 -0.2941  0.9549
   25CHL1  H22B 1834   5.661   3.067   5.280  0.3996 -0.7421 -1.5073
   25CHL1   C23 1835   5.501   3.029   5.135  0.1265  0.2226 -0.2767
   25CHL1  H23A 1836   5.536   2.940   5.079 -1.1052 -0.2155 -0.3898
   25CHL1  H23B 1837   5.394   3.006   5.153  1.0408 -2.5974  2.5690
   25CHL1   C24 1838   5.519   3.158   5.057  0.0524  0.0148 -0.1353
   25CHL1  H24A 1839   5.447   3.234   5.092  1.3062  1.1896 -0.0137
   25CHL1  H24B 1840   5.617   3.200   5.089  0.6771 -2.1515  1.0577
   25CHL1   C25 1841   5.508   3.143   4.905 -0.1571  0.2797 -0.8655
   25CHL1   H25 1842   5.519   3.244   4.860  0.9795  0.5220 -0.1013
   25CHL1   C26 1843   5.630   3.065   4.848  0.6852  0.2713  0.5432
   25CHL1  H26A 1844   5.712   3.105   4.912 -0.3088  1.4608  1.1049
   25CHL1  H26B 1845   5.619   2.954   4.850  1.4535  0.1637 -0.4374
   25CHL1  H26C 1846   5.638   3.096   4.742 -3.1144  2.0948  0.6286
   25CHL1   C27 1847   5.369   3.085   4.860  0.2065 -0.5017 -0.1050
   25CHL1  H27A 1848   5.358   3.112   4.753 -1.3062  0.2482  0.2182
   25CHL1  H27B 1849   5.360   2.976   4.878 -1.9968 -0.6591 -1.7263
   25CHL1  H27C 1850   5.293   3.148   4.910  1.4825 -0.1500  1.5052
   26CHL1    C3 1851   2.273   6.932   5.938 -0.4499 -0.6337 -0.5792
   26CHL1    H3 1852   2.267   6.825   5.908 -2.0596 -0.3576 -1.3584
   26CHL1    O3 1853   2.251   6.949   6.081  0.4033 -0.4206  1.4227
   26CHL1   H3' 1854   2.341   6.941   6.113  0.2207 -1.2578  1.7728
   26CHL1    C4 1855   2.409   6.991   5.898 -1.0738  0.0255  0.8093
   26CHL1   H4A 1856   2.410   7.096   5.935 -1.2236  1.7080 -3.4015
   26CHL1   H4B 1857   2.485   6.933   5.954  0.0662  1.6030  0.9601
   26CHL1    C5 1858   2.424   6.984   5.744  0.3185 -0.6728 -1.3162
   26CHL1    C6 1859   2.534   6.932   5.692  0.5793 -0.1322 -0.6705
   26CHL1    H6 1860   2.615   6.903   5.760  1.3091  1.3263 -0.8740
   26CHL1    C7 1861   2.564   6.927   5.542 -0.2270  0.1447  0.1275
   26CHL1   H7A 1862   2.670   6.951   5.522 -0.6089  1.2435 -0.6834
   26CHL1   H7B 1863   2.533   6.830   5.498  1.6474  0.1344 -1.2627
   26CHL1    C8 1864   2.472   7.029   5.474  0.1217  0.5820  0.2036
   26CHL1    H8 1865   2.509   7.132   5.497  0.1736  0.6316 -0.0954
   26CHL1   C14 1866   2.494   7.019   5.321 -0.1722  0.7414 -0.3524
   26CHL1   H14 1867   2.466   6.915   5.295 -0.7797  0.5779  0.9233
   26CHL1   C15 1868   2.645   7.029   5.267  0.4747 -0.6772  0.2597
   26CHL1  H15A 1869   2.687   7.115   5.323 -2.0973  0.0100  1.3198
   26CHL1  H15B 1870   2.702   6.936   5.287 -0.1319 -1.2127 -0.4590
   26CHL1   C16 1871   2.625   7.058   5.115  0.1723 -0.7242 -0.0011
   26CHL1  H16A 1872   2.675   7.155   5.094 -0.6128 -0.0940  0.9218
   26CHL1  H16B 1873   2.664   6.975   5.053 -2.0269 -0.8159 -1.3978
   26CHL1   C17 1874   2.470   7.064   5.095  0.7136  0.8014 -0.0262
   26CHL1   H17 1875   2.432   6.961   5.079  2.8303  0.1987 -1.6585
   26CHL1   C13 1876   2.411   7.108   5.233  0.0677 -0.0237 -0.9901
   26CHL1   C18 1877   2.441   7.255   5.254 -0.5266 -0.3504  0.5482
   26CHL1  H18A 1878   2.451   7.264   5.364  0.9496 -2.0512  0.6020
   26CHL1  H18B 1879   2.538   7.291   5.213  0.2676 -2.6426  0.2646
   26CHL1  H18C 1880   2.362   7.317   5.207 -1.0723 -2.8241 -2.1052
   26CHL1   C12 1881   2.262   7.081   5.266  0.6391  0.3714  0.5489
   26CHL1  H12A 1882   2.188   7.143   5.213 -0.0933 -2.2064 -1.6579
   26CHL1  H12B 1883   2.244   6.977   5.230  0.5095  0.8590 -0.8293
   26CHL1   C11 1884   2.240   7.101   5.418 -0.4805 -0.1972  0.7283
   26CHL1  H11A 1885   2.254   7.209   5.439 -0.8799 -0.2581  1.3223
   26CHL1  H11B 1886   2.136   7.072   5.445 -0.0170 -1.0977  1.6255
   26CHL1    C9 1887   2.330   7.019   5.511 -0.0639  0.9705 -1.0125
   26CHL1    H9 1888   2.302   6.913   5.491 -0.2048  1.1265 -1.6641
   26CHL1   C10 1889   2.304   7.047   5.665 -0.1023  0.8297  0.8860
   26CHL1   C19 1890   2.311   7.202   5.694  0.3313  0.2310 -0.1244
   26CHL1  H19A 1891   2.305   7.228   5.802  0.4799  1.1770 -0.3362
   26CHL1  H19B 1892   2.403   7.251   5.654 -0.0482  0.4779 -0.7067
   26CHL1  H19C 1893   2.215   7.249   5.665 -1.0021 -2.0548  0.2917
   26CHL1    C1 1894   2.167   6.991   5.713  0.2782  0.3361 -0.6801
   26CHL1   H1A 1895   2.083   7.041   5.661 -0.5007  0.9519  1.1134
   26CHL1   H1B 1896   2.167   6.883   5.690  1.3764  0.0401  0.5741
   26CHL1    C2 1897   2.160   7.008   5.868  0.1786 -0.2186 -0.6656
   26CHL1   H2A 1898   2.068   6.960   5.907  0.6696 -0.1183  0.6940
   26CHL1   H2B 1899   2.162   7.116   5.898  1.1136 -1.0221  2.6117
   26CHL1   C20 1900   2.433   7.149   4.974  0.4489  0.0189 -0.7936
   26CHL1   H20 1901   2.480   7.249   4.980 -4.5998  2.7142 -0.2169
   26CHL1   C21 1902   2.279   7.181   4.967 -0.5372  0.0249  0.3611
   26CHL1  H21A 1903   2.253   7.228   4.870 -1.5469  1.8708  1.4616
   26CHL1  H21B 1904   2.249   7.251   5.048  0.4113  1.0560 -0.1530
   26CHL1  H21C 1905   2.213   7.093   4.981  1.1641 -1.1212  1.5100
   26CHL1   C22 1906   2.479   7.079   4.847  0.1735  0.5653 -0.2606
   26CHL1  H22A 1907   2.579   7.033   4.863 -0.4362 -0.7172  0.0329
   26CHL1  H22B 1908   2.403   7.002   4.819 -0.3078  0.6801  0.6783
   26CHL1   C23 1909   2.502   7.185   4.733  0.1963  0.7833 -0.0984
   26CHL1  H23A 1910   2.409   7.245   4.724 -0.7290 -0.3001  1.6625
   26CHL1  H23B 1911   2.590   7.246   4.761 -1.6169  2.3259  2.7190
   26CHL1   C24 1912   2.543   7.123   4.595  0.1152 -0.0942  0.2554
   26CHL1  H24A 1913   2.629   7.054   4.606 -0.8048 -1.4093 -0.5008
   26CHL1  H24B 1914   2.468   7.051   4.556  0.2194 -0.0548 -0.0175
   26CHL1   C25 1915   2.579   7.224   4.481 -0.2391  0.4360 -0.5399
   26CHL1   H25 1916   2.663   7.284   4.524  0.4392 -1.1042  0.3780
   26CHL1   C26 1917   2.626   7.144   4.358  1.1511  0.2551  0.2341
   26CHL1  H26A 1918   2.668   7.212   4.281  0.3285 -0.5982 -0.9915
   26CHL1  H26B 1919   2.694   7.065   4.396 -1.4415 -2.0144  0.5148
   26CHL1  H26C 1920   2.537   7.101   4.306  1.7309 -1.0201  0.2581
   26CHL1   C27 1921   2.467   7.323   4.446 -0.2192  0.4005  0.1412
   26CHL1  H27A 1922   2.377   7.258   4.442  0.7053 -0.9058 -0.1293
   26CHL1  H27B 1923   2.455   7.403   4.522 -1.3490  0.6893 -0.3303
   26CHL1  H27C 1924   2.491   7.362   4.345 -1.4575 -0.8046 -0.6524
   27CHL1    C3 1925   2.047   0.428   5.847  0.1984  0.0271 -0.2285
   27CHL1    H3 1926   2.107   0.335   5.835  2.3749  1.2883  0.3177
   27CHL1    O3 1927   1.998   0.424   5.982  0.0681 -0.0837  0.3708
   27CHL1   H3' 1928   1.913   0.469   5.978 -0.5317 -1.2737 -1.2096
   27CHL1    C4 1929   2.122   0.562   5.825  0.1337  0.2979 -0.0383
   27CHL1   H4A 1930   2.044   0.636   5.851  0.6775  0.6410  0.6321
   27CHL1   H4B 1931   2.209   0.574   5.893 -0.1245  0.2645  0.2966
   27CHL1    C5 1932   2.170   0.572   5.684 -0.3016  0.6840 -0.4945
   27CHL1    C6 1933   2.297   0.573   5.652 -0.5914  0.0217  0.0364
   27CHL1    H6 1934   2.368   0.576   5.736  0.2772  0.4524 -0.6996
   27CHL1    C7 1935   2.347   0.581   5.512  0.8090 -0.5087  0.0727
   27CHL1   H7A 1936   2.443   0.637   5.508  1.5395 -1.7944 -1.2327
   27CHL1   H7B 1937   2.385   0.481   5.481  1.8142  0.0220 -0.4866
   27CHL1    C8 1938   2.243   0.628   5.407  0.2666 -0.2615 -0.1916
   27CHL1    H8 1939   2.218   0.736   5.416  2.4655  0.3894 -0.9767
   27CHL1   C14 1940   2.307   0.622   5.269 -0.4632 -0.1448 -0.1024
   27CHL1   H14 1941   2.342   0.516   5.267  0.1809  0.0761 -1.6624
   27CHL1   C15 1942   2.418   0.714   5.240 -0.6777 -0.2049 -0.5203
   27CHL1  H15A 1943   2.379   0.814   5.269 -2.9284 -0.5239 -2.2448
   27CHL1  H15B 1944   2.509   0.698   5.302 -0.1731 -1.3498 -1.5025
   27CHL1   C16 1945   2.435   0.694   5.091 -0.0675  0.0108 -0.4090
   27CHL1  H16A 1946   2.435   0.797   5.049  0.4258  0.1612 -0.0410
   27CHL1  H16B 1947   2.528   0.643   5.060 -0.0254  0.2881 -0.7395
   27CHL1   C17 1948   2.299   0.639   5.034  0.0233  0.6887 -0.2426
   27CHL1   H17 1949   2.326   0.533   5.016  0.1998  0.2891  2.0855
   27CHL1   C13 1950   2.203   0.648   5.160 -0.3651 -0.1496  0.6779
   27CHL1   C18 1951   2.143   0.794   5.155 -0.2651  0.2766  0.4154
   27CHL1  H18A 1952   2.218   0.868   5.120  0.3076 -0.3196  0.3679
   27CHL1  H18B 1953   2.058   0.800   5.084  0.3048  1.9578 -0.1897
   27CHL1  H18C 1954   2.086   0.832   5.243 -2.7233  1.0186 -1.3876
   27CHL1   C12 1955   2.086   0.547   5.166  0.0317 -1.0643  0.0627
   27CHL1  H12A 1956   2.005   0.560   5.091 -0.8577  0.4385  1.2357
   27CHL1  H12B 1957   2.140   0.449   5.162  0.7230 -0.6647 -0.6255
   27CHL1   C11 1958   2.027   0.559   5.312  0.1533 -0.2226  0.0664
   27CHL1  H11A 1959   1.978   0.657   5.323 -0.9318 -0.6007 -1.1353
   27CHL1  H11B 1960   1.952   0.478   5.328 -0.8162  1.1185  2.8911
   27CHL1    C9 1961   2.125   0.534   5.428 -0.0251 -0.3495 -0.5097
   27CHL1    H9 1962   2.154   0.428   5.419 -0.8210 -0.5535 -0.7818
   27CHL1   C10 1963   2.064   0.560   5.572 -0.3330  0.0038 -0.8163
   27CHL1   C19 1964   1.983   0.689   5.583  0.5153  0.2629 -0.4824
   27CHL1  H19A 1965   1.965   0.708   5.691 -0.4461 -3.0765  0.0535
   27CHL1  H19B 1966   2.049   0.770   5.545  1.4911  0.2377  1.0459
   27CHL1  H19C 1967   1.889   0.689   5.523  1.6522  3.0084 -2.4954
   27CHL1    C1 1968   1.977   0.433   5.605 -0.0949  0.0382 -0.8131
   27CHL1   H1A 1969   1.887   0.427   5.540 -0.7066  0.0707  0.0072
   27CHL1   H1B 1970   2.034   0.341   5.581 -1.7038 -0.7776 -1.6499
   27CHL1    C2 1971   1.930   0.425   5.749  0.3812  0.4003 -0.3473
   27CHL1   H2A 1972   1.879   0.327   5.760  1.0352 -0.2461 -2.5230
   27CHL1   H2B 1973   1.863   0.509   5.776 -0.3700 -0.5393  0.7641
   27CHL1   C20 1974   2.270   0.708   4.900 -0.4886 -0.3735 -0.1784
   27CHL1   H20 1975   2.255   0.817   4.904 -0.4683 -0.2712 -2.0769
   27CHL1   C21 1976   2.144   0.658   4.833 -0.0754 -0.6362  0.8087
   27CHL1  H21A 1977   2.052   0.690   4.887 -0.9830 -0.8351 -0.5732
   27CHL1  H21B 1978   2.141   0.549   4.818 -0.5173 -0.4979 -0.1797
   27CHL1  H21C 1979   2.149   0.709   4.734  1.4501 -1.9205  0.1930
   27CHL1   C22 1980   2.385   0.680   4.803  0.1128  0.8313 -0.7087
   27CHL1  H22A 1981   2.483   0.667   4.853 -1.4745  0.0665  2.4209
   27CHL1  H22B 1982   2.358   0.603   4.727 -0.0119 -0.3791  0.5297
   27CHL1   C23 1983   2.418   0.813   4.722  0.7314 -0.1858  0.3949
   27CHL1  H23A 1984   2.325   0.844   4.670  0.5456  0.0529  0.8625
   27CHL1  H23B 1985   2.434   0.896   4.794  0.2937 -0.0866  0.3802
   27CHL1   C24 1986   2.530   0.791   4.620 -0.3349 -0.1080 -0.0177
   27CHL1  H24A 1987   2.631   0.792   4.668  0.3156 -2.9503 -1.1080
   27CHL1  H24B 1988   2.514   0.690   4.578 -0.1864 -0.3433  0.4808
   27CHL1   C25 1989   2.529   0.882   4.495 -0.3965  0.1587 -0.3966
   27CHL1   H25 1990   2.423   0.902   4.468  0.2355  2.9530 -1.0785
   27CHL1   C26 1991   2.575   1.023   4.529  0.1730 -0.1312  0.4450
   27CHL1  H26A 1992   2.534   1.062   4.625  0.3648  2.6491 -0.5102
   27CHL1  H26B 1993   2.685   1.012   4.539  0.2801 -2.1697 -1.9083
   27CHL1  H26C 1994   2.551   1.090   4.444  1.8531  1.4052  1.1163
   27CHL1   C27 1995   2.602   0.813   4.378  0.4395 -0.2550 -0.5718
   27CHL1  H27A 1996   2.576   0.857   4.280 -2.7767 -1.0017 -0.1866
   27CHL1  H27B 1997   2.711   0.806   4.396  0.1498 -2.0204  0.8431
   27CHL1  H27C 1998   2.564   0.709   4.367  0.1351  0.0297 -2.4373
   28CHL1    C3 1999   2.555   0.351   6.178 -0.4557  0.1685  0.4843
   28CHL1    H3 2000   2.478   0.296   6.119  0.0570 -1.1819  1.0377
   28CHL1    O3 2001   2.531   0.334   6.319 -0.0184 -0.3678  0.1554
   28CHL1   H3' 2002   2.584   0.403   6.359  0.9440 -1.5988  1.0672
   28CHL1    C4 2003   2.692   0.300   6.141 -0.5448 -0.0964  0.5574
   28CHL1   H4A 2004   2.768   0.358   6.199 -0.1473 -0.1645  0.1146
   28CHL1   H4B 2005   2.691   0.193   6.170 -0.4128 -0.3850 -0.4792
   28CHL1    C5 2006   2.729   0.321   5.990  0.8299  0.0473 -0.2289
   28CHL1    C6 2007   2.770   0.219   5.916  0.0372 -0.3121 -0.4180
   28CHL1    H6 2008   2.785   0.121   5.964  0.2301 -1.0970 -2.0282
   28CHL1    C7 2009   2.794   0.230   5.768 -0.2510  1.1778 -0.7829
   28CHL1   H7A 2010   2.878   0.164   5.739 -1.0155 -0.1251 -0.1142
   28CHL1   H7B 2011   2.702   0.200   5.715  0.0394 -0.7213 -0.2870
   28CHL1    C8 2012   2.819   0.376   5.717 -0.4065  0.7753  0.2146
   28CHL1    H8 2013   2.912   0.407   5.771  0.2852  1.9845 -1.5747
   28CHL1   C14 2014   2.834   0.391   5.565 -0.3623  0.0844 -0.2853
   28CHL1   H14 2015   2.732   0.375   5.525  0.3579  0.2778 -2.2991
   28CHL1   C15 2016   2.916   0.285   5.493 -0.0801  0.3173 -0.1796
   28CHL1  H15A 2017   3.009   0.291   5.553  0.5476 -0.8620 -0.9927
   28CHL1  H15B 2018   2.871   0.183   5.496  0.3806  0.0702 -1.3711
   28CHL1   C16 2019   2.934   0.345   5.355 -0.6476 -0.0089 -0.0484
   28CHL1  H16A 2020   3.044   0.344   5.338 -0.0877  2.6899  2.6104
   28CHL1  H16B 2021   2.886   0.290   5.271 -0.1704  0.0512 -0.3661
   28CHL1   C17 2022   2.874   0.487   5.357 -0.1805 -0.1834  0.1946
   28CHL1   H17 2023   2.770   0.473   5.321 -1.0493  0.0822  2.4640
   28CHL1   C13 2024   2.858   0.531   5.511 -0.0022 -0.2558  0.7019
   28CHL1   C18 2025   2.996   0.575   5.560 -0.1022 -0.4045 -0.8000
   28CHL1  H18A 2026   3.013   0.679   5.524  1.5704  0.0608  1.1863
   28CHL1  H18B 2027   2.992   0.574   5.671  0.7604 -0.9634 -0.7735
   28CHL1  H18C 2028   3.071   0.505   5.520 -0.7122 -0.7400 -1.3804
   28CHL1   C12 2029   2.747   0.625   5.550 -0.3902  0.6493  0.0472
   28CHL1  H12A 2030   2.749   0.734   5.530 -1.8507  0.7507  0.3533
   28CHL1  H12B 2031   2.652   0.598   5.499 -1.1640  1.5769  0.9477
   28CHL1   C11 2032   2.717   0.619   5.704 -0.4547 -0.4727 -0.6333
   28CHL1  H11A 2033   2.788   0.691   5.751 -1.2524  0.4175 -0.7741
   28CHL1  H11B 2034   2.623   0.668   5.735  1.2641  1.1492  2.5634
   28CHL1    C9 2035   2.712   0.474   5.770  0.2546  0.5335  0.6240
   28CHL1    H9 2036   2.619   0.435   5.722 -0.4678  0.8168  1.7617
   28CHL1   C10 2037   2.703   0.467   5.932 -0.0364 -0.1838  0.3741
   28CHL1   C19 2038   2.804   0.570   5.991 -0.3836 -0.0354  0.5691
   28CHL1  H19A 2039   2.891   0.572   5.922 -1.7397 -2.8260 -1.4324
   28CHL1  H19B 2040   2.755   0.669   5.978  1.7264  1.0400  0.3054
   28CHL1  H19C 2041   2.819   0.542   6.098 -1.9528 -0.4852  0.6973
   28CHL1    C1 2042   2.560   0.505   5.979  0.0917 -0.0768 -0.9129
   28CHL1   H1A 2043   2.549   0.610   5.945  1.1343  0.6379  0.8611
   28CHL1   H1B 2044   2.483   0.443   5.928  0.5536 -1.6546  0.2206
   28CHL1    C2 2045   2.533   0.495   6.135 -0.6866 -0.2339 -0.7749
   28CHL1   H2A 2046   2.429   0.522   6.163 -0.5241 -0.1370 -0.2526
   28CHL1   H2B 2047   2.597   0.567   6.191 -1.4422  0.8584 -1.2823
   28CHL1   C20 2048   2.938   0.580   5.252 -0.0171 -0.4384  0.3344
   28CHL1   H20 2049   3.047   0.586   5.271 -0.4332  0.2678  2.9166
   28CHL1   C21 2050   2.877   0.719   5.258 -0.4130 -0.4444  0.4362
   28CHL1  H21A 2051   2.882   0.767   5.358  1.7020  2.7458 -1.0239
   28CHL1  H21B 2052   2.772   0.712   5.220 -0.2852 -3.9696  0.4062
   28CHL1  H21C 2053   2.930   0.781   5.183 -4.1332  1.5228 -0.8577
   28CHL1   C22 2054   2.940   0.517   5.107 -0.1691 -0.6457 -0.3441
   28CHL1  H22A 2055   2.994   0.601   5.059 -1.1095 -0.9213 -1.9365
   28CHL1  H22B 2056   3.005   0.427   5.102 -1.0055 -1.3209  0.4408
   28CHL1   C23 2057   2.811   0.484   5.037 -0.3632 -0.1755  0.1989
   28CHL1  H23A 2058   2.739   0.435   5.105  0.0251  3.0990  3.2779
   28CHL1  H23B 2059   2.760   0.575   4.996  0.0988  0.1458  0.3349
   28CHL1   C24 2060   2.849   0.391   4.918 -0.1033  0.9038 -0.2742
   28CHL1  H24A 2061   2.891   0.301   4.967  1.0234  2.3903  1.6521
   28CHL1  H24B 2062   2.754   0.363   4.868 -1.5007  3.2322  0.8842
   28CHL1   C25 2063   2.948   0.449   4.810 -0.1901 -0.1735 -0.2107
   28CHL1   H25 2064   3.036   0.499   4.855 -0.4113  1.5638 -1.5963
   28CHL1   C26 2065   2.986   0.333   4.724 -0.3873 -0.4134  0.3172
   28CHL1  H26A 2066   3.037   0.259   4.789  0.5000  1.4277  1.8220
   28CHL1  H26B 2067   2.893   0.290   4.680 -0.8333  1.6242 -0.8560
   28CHL1  H26C 2068   3.060   0.354   4.645 -0.0872  0.2004  0.7532
   28CHL1   C27 2069   2.893   0.566   4.714 -0.0843  0.7522 -0.5757
   28CHL1  H27A 2070   2.802   0.523   4.667  0.1392 -0.2929 -0.0674
   28CHL1  H27B 2071   2.883   0.662   4.769  1.4392  0.0706  0.9933
   28CHL1  H27C 2072   2.969   0.588   4.636 -0.3920  0.4709 -0.9624
   29CHL1    C3 2073   6.900   4.072   3.053  0.0408 -0.2781 -0.4144
   29CHL1    H3 2074   6.927   3.975   3.098  0.0201 -0.9885 -1.8567
   29CHL1    O3 2075   6.874   4.064   2.912  0.1493  0.6368  0.2218
   29CHL1   H3' 2076   6.874   4.153   2.876  3.1456  0.1016 -1.4191
   29CHL1    C4 2077   6.793   4.139   3.143  0.0739  0.8667  0.2714
   29CHL1   H4A 2078   6.788   4.238   3.094  0.0672 -0.0403 -1.6198
   29CHL1   H4B 2079   6.695   4.086   3.138  2.0896 -3.8124  3.2614
   29CHL1    C5 2080   6.839   4.150   3.285 -0.1338 -0.8608  0.3928
   29CHL1    C6 2081   6.763   4.088   3.377 -0.4007  0.5212 -0.3928
   29CHL1    H6 2082   6.670   4.034   3.353 -1.3392  0.0389  3.6477
   29CHL1    C7 2083   6.786   4.096   3.523 -1.1631  0.2120 -0.0375
   29CHL1   H7A 2084   6.692   4.122   3.576 -1.0628 -1.7215  1.2006
   29CHL1   H7B 2085   6.817   3.994   3.554  0.9686  0.0543 -2.3734
   29CHL1    C8 2086   6.909   4.184   3.549 -0.7969 -0.4615 -0.4236
   29CHL1    H8 2087   6.873   4.288   3.562 -0.6403 -0.6943  2.3093
   29CHL1   C14 2088   6.959   4.153   3.687  0.3863 -0.0908  0.5290
   29CHL1   H14 2089   6.992   4.047   3.676 -1.3608 -0.4480 -2.2493
   29CHL1   C15 2090   6.849   4.152   3.799  0.3747 -0.2473  0.2202
   29CHL1  H15A 2091   6.793   4.247   3.786 -3.3325 -2.3504 -0.4734
   29CHL1  H15B 2092   6.777   4.068   3.797 -0.0673  0.1439 -1.3915
   29CHL1   C16 2093   6.930   4.166   3.925  0.2487  0.3124  0.1424
   29CHL1  H16A 2094   6.903   4.260   3.978 -1.3526 -0.8793  1.5510
   29CHL1  H16B 2095   6.914   4.085   4.000 -1.6770  1.6337  1.2395
   29CHL1   C17 2096   7.080   4.175   3.885  0.3197  0.0311 -0.5754
   29CHL1   H17 2097   7.119   4.072   3.871 -0.2700 -0.0281 -2.0088
   29CHL1   C13 2098   7.071   4.236   3.741  0.2788 -0.2250 -0.5051
   29CHL1   C18 2099   7.043   4.384   3.738 -0.4640  0.3281  0.5492
   29CHL1  H18A 2100   6.961   4.405   3.810 -2.3316  0.4458 -1.5074
   29CHL1  H18B 2101   7.134   4.428   3.785 -0.1081 -0.9645  1.1146
   29CHL1  H18C 2102   7.026   4.435   3.641 -0.5932  1.7902  1.3090
   29CHL1   C12 2103   7.185   4.202   3.645  0.1069  0.0760 -0.3772
   29CHL1  H12A 2104   7.276   4.260   3.674  0.4442  0.0572 -1.3727
   29CHL1  H12B 2105   7.202   4.092   3.650  0.6359  0.2022  2.9723
   29CHL1   C11 2106   7.160   4.243   3.499 -0.3265  0.3741 -0.5784
   29CHL1  H11A 2107   7.154   4.353   3.489 -1.8403  0.4149  0.4175
   29CHL1  H11B 2108   7.248   4.213   3.440 -1.5656  0.6215 -2.6362
   29CHL1    C9 2109   7.028   4.181   3.446 -0.0311 -0.0898  0.0461
   29CHL1    H9 2110   7.048   4.074   3.424 -0.1816  0.3322 -2.4146
   29CHL1   C10 2111   6.983   4.216   3.301 -0.2467  0.4909  0.1606
   29CHL1   C19 2112   6.966   4.374   3.296  0.1851 -0.0476 -0.5104
   29CHL1  H19A 2113   6.891   4.392   3.376 -0.2537 -1.5974 -0.5439
   29CHL1  H19B 2114   7.064   4.425   3.301  0.8216 -1.0709 -1.8333
   29CHL1  H19C 2115   6.920   4.407   3.200 -0.4932 -1.5611 -0.7500
   29CHL1    C1 2116   7.088   4.172   3.203 -0.4715  0.4103 -0.2991
   29CHL1   H1A 2117   7.187   4.224   3.207 -1.5035  2.4751 -0.3027
   29CHL1   H1B 2118   7.111   4.068   3.236 -1.8784  0.6569  1.6495
   29CHL1    C2 2119   7.036   4.150   3.063  0.2799  0.0909  0.2040
   29CHL1   H2A 2120   7.108   4.087   3.005 -1.0435  0.5996 -2.1449
   29CHL1   H2B 2121   7.031   4.248   3.009 -0.9021 -1.3382 -2.5096
   29CHL1   C20 2122   7.172   4.231   3.992  0.1010 -0.3876 -0.2561
   29CHL1   H20 2123   7.152   4.337   4.016  1.9850  0.4135 -1.9297
   29CHL1   C21 2124   7.320   4.239   3.947  0.1930  0.1631  0.3065
   29CHL1  H21A 2125   7.363   4.147   3.903 -0.1580  0.4116 -0.5856
   29CHL1  H21B 2126   7.387   4.271   4.029  1.8265  1.3293 -1.3965
   29CHL1  H21C 2127   7.330   4.304   3.857 -1.4220 -0.6385 -0.4889
   29CHL1   C22 2128   7.156   4.158   4.131  0.2495 -0.0540  0.4016
   29CHL1  H22A 2129   7.057   4.178   4.178  0.5498  0.7497  0.7081
   29CHL1  H22B 2130   7.172   4.048   4.124  1.4904  0.1103  0.4979
   29CHL1   C23 2131   7.265   4.193   4.242 -0.2071 -0.2994 -0.5908
   29CHL1  H23A 2132   7.361   4.152   4.202 -0.0967 -0.0600 -0.5726
   29CHL1  H23B 2133   7.270   4.304   4.249  2.0769 -0.3998  0.4187
   29CHL1   C24 2134   7.248   4.120   4.377  1.2544  0.1295 -0.2098
   29CHL1  H24A 2135   7.142   4.129   4.409  0.2920 -3.5086 -1.7773
   29CHL1  H24B 2136   7.268   4.011   4.366  0.9338 -0.2426  2.2062
   29CHL1   C25 2137   7.348   4.172   4.487  0.7652  0.3058 -0.5613
   29CHL1   H25 2138   7.451   4.155   4.452  0.4186 -2.0996 -0.5603
   29CHL1   C26 2139   7.322   4.322   4.516 -0.1093  1.0730 -0.2074
   29CHL1  H26A 2140   7.365   4.384   4.434  3.6565 -1.8057 -0.7376
   29CHL1  H26B 2141   7.218   4.352   4.535  0.1680  1.8793  0.0459
   29CHL1  H26C 2142   7.370   4.346   4.613  0.0219  0.0157  0.0040
   29CHL1   C27 2143   7.325   4.077   4.608 -0.2377 -0.5357 -0.6537
   29CHL1  H27A 2144   7.350   3.976   4.570 -0.8224 -0.4022 -1.4272
   29CHL1  H27B 2145   7.393   4.097   4.694 -0.1811 -4.4389  0.3959
   29CHL1  H27C 2146   7.222   4.064   4.648  0.6085 -1.4700  1.3202
   30CHL1    C3 2147   1.770   0.094   2.719 -0.2941 -0.4905 -0.5691
   30CHL1    H3 2148   1.881   0.088   2.722 -0.2580 -0.7246 -2.0487
   30CHL1    O3 2149   1.721   0.127   2.593 -0.0867  0.6273  0.0103
   30CHL1   H3' 2150   1.625   0.119   2.596 -0.0732  0.6938  1.5999
   30CHL1    C4 2151   1.721  -0.039   2.753  0.9396  0.0674 -0.1310
   30CHL1   H4A 2152   1.612  -0.037   2.735  1.0778  1.5564 -0.9399
   30CHL1   H4B 2153   1.759  -0.112   2.679  1.7954  1.2288 -0.8780
   30CHL1    C5 2154   1.734  -0.086   2.900  0.1823 -0.0821 -0.5219
   30CHL1    C6 2155   1.791  -0.203   2.920  0.1439 -0.1870 -0.2638
   30CHL1    H6 2156   1.825  -0.263   2.834  0.7159  1.5821 -1.3188
   30CHL1    C7 2157   1.799  -0.262   3.058 -0.4599  0.6703 -0.4540
   30CHL1   H7A 2158   1.753  -0.363   3.052 -0.4034  0.6228 -0.0964
   30CHL1   H7B 2159   1.906  -0.272   3.086 -0.2431 -0.3702 -1.5692
   30CHL1    C8 2160   1.732  -0.170   3.171 -0.3038 -0.0933  0.2609
   30CHL1    H8 2161   1.624  -0.193   3.161 -1.0121  3.0319 -0.3874
   30CHL1   C14 2162   1.785  -0.213   3.308 -0.2721 -0.2779  0.2559
   30CHL1   H14 2163   1.893  -0.189   3.315 -0.6312  1.0671  1.9983
   30CHL1   C15 2164   1.792  -0.362   3.350  0.3174  0.6315 -0.0474
   30CHL1  H15A 2165   1.690  -0.405   3.340  0.7617 -0.7896  1.1016
   30CHL1  H15B 2166   1.857  -0.418   3.280 -0.9191  1.0109 -1.5582
   30CHL1   C16 2167   1.823  -0.353   3.500  0.5583  0.1196 -0.3851
   30CHL1  H16A 2168   1.766  -0.433   3.551  1.1764  0.2018  0.4511
   30CHL1  H16B 2169   1.933  -0.369   3.509  0.7259 -1.5348 -3.6974
   30CHL1   C17 2170   1.785  -0.208   3.555  0.8776  0.3866  0.1605
   30CHL1   H17 2171   1.879  -0.149   3.563  1.8579 -1.2379  1.1505
   30CHL1   C13 2172   1.713  -0.142   3.429 -0.1765 -0.1871  0.7363
   30CHL1   C18 2173   1.566  -0.156   3.428  1.1008  0.7538 -0.0871
   30CHL1  H18A 2174   1.531  -0.101   3.518 -2.6588  0.6598 -1.3153
   30CHL1  H18B 2175   1.511  -0.114   3.342 -0.0728 -1.0674 -0.3074
   30CHL1  H18C 2176   1.537  -0.263   3.437  4.5775 -0.2658  0.5517
   30CHL1   C12 2177   1.735   0.009   3.400 -0.4496 -0.1869 -0.0689
   30CHL1  H12A 2178   1.675   0.069   3.472  1.1526 -0.0955  1.2395
   30CHL1  H12B 2179   1.845   0.017   3.410 -0.4775  1.4149 -0.7808
   30CHL1   C11 2180   1.694   0.062   3.259 -0.4944  0.1943  0.4544
   30CHL1  H11A 2181   1.583   0.057   3.258 -0.6980  2.3090  2.8427
   30CHL1  H11B 2182   1.726   0.167   3.245 -1.8911  0.3984 -1.8034
   30CHL1    C9 2183   1.742  -0.022   3.143  1.0064  0.3594  0.9160
   30CHL1    H9 2184   1.852  -0.002   3.140  1.0324  1.0639 -4.6284
   30CHL1   C10 2185   1.690   0.017   3.004 -0.3400  0.5548  0.9410
   30CHL1   C19 2186   1.538   0.033   2.997 -0.2589  0.4443 -0.8521
   30CHL1  H19A 2187   1.507   0.068   2.896  1.1576 -1.2441 -1.9182
   30CHL1  H19B 2188   1.492  -0.066   3.021 -1.0666  1.3144  1.4622
   30CHL1  H19C 2189   1.506   0.108   3.072 -2.7825 -0.0542 -1.3369
   30CHL1    C1 2190   1.757   0.155   2.963 -0.5260  0.2592 -0.6309
   30CHL1   H1A 2191   1.728   0.232   3.038  0.5475  0.0088  0.0627
   30CHL1   H1B 2192   1.867   0.138   2.964 -0.5565  0.0212 -0.9457
   30CHL1    C2 2193   1.719   0.197   2.823 -1.0018 -0.5875 -0.8360
   30CHL1   H2A 2194   1.766   0.297   2.813 -0.6832 -0.7547 -1.0019
   30CHL1   H2B 2195   1.611   0.221   2.814 -0.3054  2.5371 -2.0678
   30CHL1   C20 2196   1.714  -0.206   3.691  0.7232 -0.7328  0.6169
   30CHL1   H20 2197   1.609  -0.241   3.678  1.0010 -0.8615 -1.7057
   30CHL1   C21 2198   1.725  -0.064   3.740 -0.0466  0.1959  0.2236
   30CHL1  H21A 2199   1.633  -0.036   3.796 -0.6129 -1.0508 -0.0566
   30CHL1  H21B 2200   1.730   0.005   3.653  0.1881 -1.3203 -1.0199
   30CHL1  H21C 2201   1.814  -0.054   3.805 -0.7649 -0.0494  1.2806
   30CHL1   C22 2202   1.781  -0.301   3.801  1.0109  0.0184  0.1563
   30CHL1  H22A 2203   1.719  -0.297   3.894 -2.1886 -2.0437 -1.7231
   30CHL1  H22B 2204   1.780  -0.405   3.763 -0.1825  0.3172 -0.6924
   30CHL1   C23 2205   1.923  -0.266   3.830  0.4194  0.4100  0.1500
   30CHL1  H23A 2206   1.971  -0.215   3.744 -0.8632  1.7297  0.1783
   30CHL1  H23B 2207   1.922  -0.186   3.907 -0.3950  1.4043 -0.8707
   30CHL1   C24 2208   2.018  -0.370   3.877  0.2593  0.4929  0.2201
   30CHL1  H24A 2209   2.017  -0.441   3.792 -0.8724  2.6216 -1.6432
   30CHL1  H24B 2210   2.121  -0.335   3.895  0.8082 -1.2213  0.6607
   30CHL1   C25 2211   1.982  -0.447   4.007 -0.2382  0.7412 -0.6758
   30CHL1   H25 2212   1.883  -0.496   3.998  0.0889 -0.1007  0.0784
   30CHL1   C26 2213   2.078  -0.562   4.040 -0.9809  0.4712  0.5068
   30CHL1  H26A 2214   2.080  -0.622   3.947  1.0671 -0.7212  1.2590
   30CHL1  H26B 2215   2.176  -0.523   4.075 -1.9832  3.5250  0.2316
   30CHL1  H26C 2216   2.043  -0.637   4.114  0.5515 -2.2312 -1.3537
   30CHL1   C27 2217   1.974  -0.358   4.131  0.4663 -0.7864 -0.3552
   30CHL1  H27A 2218   1.904  -0.274   4.110 -1.4248 -2.1498  0.2194
   30CHL1  H27B 2219   1.941  -0.414   4.221 -1.0623 -2.5279 -1.9225
   30CHL1  H27C 2220   2.076  -0.318   4.153 -1.0025  2.8442  0.6755
   31CHL1    C3 2221   2.184   6.499   2.577  0.5294 -0.5289  0.3570
   31CHL1    H3 2222   2.293   6.521   2.586  1.0805 -3.2354  1.5219
   31CHL1    O3 2223   2.145   6.509   2.444  1.1242 -0.4587 -0.2561
   31CHL1   H3' 2224   2.050   6.492   2.447  1.4580 -2.5015  0.0555
   31CHL1    C4 2225   2.154   6.352   2.610 -0.5376 -0.1953 -0.0161
   31CHL1   H4A 2226   2.049   6.329   2.582 -0.3591  1.0638 -1.8618
   31CHL1   H4B 2227   2.225   6.293   2.547 -0.8898 -0.6179 -0.0226
   31CHL1    C5 2228   2.186   6.332   2.754  0.3212  0.4799 -0.2442
   31CHL1    C6 2229   2.278   6.241   2.790 -0.1862  0.2458  0.2036
   31CHL1    H6 2230   2.325   6.166   2.725 -0.6095 -0.4681  0.7076
   31CHL1    C7 2231   2.332   6.219   2.927  0.2051  0.4227 -0.2683
   31CHL1   H7A 2232   2.350   6.110   2.940 -0.4427  0.2131 -1.0609
   31CHL1   H7B 2233   2.423   6.277   2.955  0.6263 -0.2977 -0.1161
   31CHL1    C8 2234   2.224   6.270   3.030  0.0722 -0.0602  0.8214
   31CHL1    H8 2235   2.141   6.196   3.031 -0.2622  0.3115  1.6888
   31CHL1   C14 2236   2.289   6.256   3.171 -0.5318 -0.6357  0.1853
   31CHL1   H14 2237   2.380   6.319   3.161 -1.7000  0.9968 -0.6958
   31CHL1   C15 2238   2.346   6.119   3.222  0.1229  0.2814  0.3763
   31CHL1  H15A 2239   2.275   6.035   3.206  0.2532  0.0593  0.9349
   31CHL1  H15B 2240   2.437   6.090   3.164  1.3967 -1.4140  2.9823
   31CHL1   C16 2241   2.361   6.141   3.370  0.3522  0.4267  0.0684
   31CHL1  H16A 2242   2.294   6.067   3.419  1.8212 -0.6700  0.5295
   31CHL1  H16B 2243   2.467   6.129   3.401  1.6179  0.4426 -3.7024
   31CHL1   C17 2244   2.323   6.290   3.403 -0.2321 -0.3102  0.0583
   31CHL1   H17 2245   2.410   6.358   3.386  0.5438 -0.4221  2.9736
   31CHL1   C13 2246   2.222   6.323   3.289  0.4573  0.1987 -0.2254
   31CHL1   C18 2247   2.094   6.244   3.314 -0.5161  0.3962 -0.1186
   31CHL1  H18A 2248   2.105   6.135   3.332 -1.9613 -0.2254 -2.4968
   31CHL1  H18B 2249   2.047   6.281   3.407  0.5207  0.3105  0.4455
   31CHL1  H18C 2250   2.024   6.248   3.227 -1.2257 -0.2472  0.4132
   31CHL1   C12 2251   2.185   6.463   3.258 -0.5856 -0.6814 -0.1264
   31CHL1  H12A 2252   2.105   6.497   3.327  1.4320 -0.1826  2.0860
   31CHL1  H12B 2253   2.275   6.528   3.265 -0.5142 -0.7924 -0.0107
   31CHL1   C11 2254   2.122   6.484   3.119  0.5525  0.3777 -0.8684
   31CHL1  H11A 2255   2.021   6.437   3.126  0.4743  0.5542 -0.8180
   31CHL1  H11B 2256   2.098   6.592   3.111  0.3708  0.3348 -0.9231
   31CHL1    C9 2257   2.186   6.412   2.998  0.1597 -0.2433  0.3452
   31CHL1    H9 2258   2.277   6.475   2.988 -1.4841  2.1702 -0.4563
   31CHL1   C10 2259   2.120   6.433   2.859  0.1578  0.2455 -0.3832
   31CHL1   C19 2260   1.975   6.394   2.871  0.4881 -0.0535  0.6275
   31CHL1  H19A 2261   1.928   6.401   2.770  0.0163 -1.2951  0.7469
   31CHL1  H19B 2262   1.957   6.292   2.911  0.2991 -1.3432 -2.4005
   31CHL1  H19C 2263   1.926   6.463   2.942  0.6628  0.0810  0.6195
   31CHL1    C1 2264   2.149   6.572   2.808  0.3285  0.2322 -0.2856
   31CHL1   H1A 2265   2.093   6.640   2.875  0.5089 -1.5086  1.7393
   31CHL1   H1B 2266   2.257   6.597   2.822  0.2956  1.4683 -1.9606
   31CHL1    C2 2267   2.103   6.597   2.661  0.3811 -0.6262 -0.8008
   31CHL1   H2A 2268   2.128   6.702   2.637  2.0107 -1.1396 -1.4741
   31CHL1   H2B 2269   1.993   6.584   2.650  0.2274  0.1277 -0.2518
   31CHL1   C20 2270   2.278   6.304   3.552 -0.5880  0.7803  0.3749
   31CHL1   H20 2271   2.177   6.264   3.577 -0.6677  0.9652  0.3455
   31CHL1   C21 2272   2.274   6.447   3.600  0.1752 -0.5969  0.2763
   31CHL1  H21A 2273   2.251   6.440   3.709  0.3791 -0.2632  0.3432
   31CHL1  H21B 2274   2.200   6.517   3.555 -0.4344 -0.9047  0.7780
   31CHL1  H21C 2275   2.377   6.489   3.597  1.2395 -3.0162  0.2548
   31CHL1   C22 2276   2.374   6.220   3.648  0.0222  0.2230  0.2265
   31CHL1  H22A 2277   2.387   6.116   3.612 -1.0985  1.0181 -2.7349
   31CHL1  H22B 2278   2.471   6.273   3.638  0.5849 -0.1001  3.0520
   31CHL1   C23 2279   2.344   6.205   3.796  0.2471 -0.2031  0.7480
   31CHL1  H23A 2280   2.323   6.301   3.848 -1.0753 -0.6636  1.1076
   31CHL1  H23B 2281   2.250   6.147   3.812 -0.3018  1.2739  3.5979
   31CHL1   C24 2282   2.445   6.111   3.873 -0.4897 -0.2884 -0.1328
   31CHL1  H24A 2283   2.457   6.013   3.822 -0.7471  0.7114 -2.2030
   31CHL1  H24B 2284   2.538   6.171   3.862 -1.3698  2.2066  3.8325
   31CHL1   C25 2285   2.406   6.107   4.027  0.6629 -0.1391 -0.0014
   31CHL1   H25 2286   2.377   6.213   4.046 -0.5598 -0.4210 -0.1680
   31CHL1   C26 2287   2.278   6.013   4.052 -0.1772 -0.9259 -0.0824
   31CHL1  H26A 2288   2.195   6.058   3.994 -0.7096  0.4242  1.6200
   31CHL1  H26B 2289   2.309   5.913   4.017  2.0009 -1.3020  2.5890
   31CHL1  H26C 2290   2.254   6.004   4.160 -1.0648 -0.3360 -0.2162
   31CHL1   C27 2291   2.535   6.063   4.105  0.3146  0.2290  0.1512
   31CHL1  H27A 2292   2.539   6.075   4.216 -0.0525  1.1061  0.0817
   31CHL1  H27B 2293   2.566   5.959   4.085 -0.4829  0.5031 -3.1256
   31CHL1  H27C 2294   2.617   6.129   4.069  1.5305 -1.4350 -0.2289
   32CHL1    C3 2295   2.549   4.357   2.356 -0.3652  0.2612 -0.4259
   32CHL1    H3 2296   2.638   4.296   2.382 -1.0945 -0.7146 -0.1519
   32CHL1    O3 2297   2.523   4.392   2.221  0.1201  0.1707  0.1210
   32CHL1   H3' 2298   2.452   4.334   2.192  0.0790  0.0622  0.4350
   32CHL1    C4 2299   2.428   4.283   2.420  0.0017 -0.0528 -0.9226
   32CHL1   H4A 2300   2.331   4.329   2.393  0.0228  0.7774  0.3544
   32CHL1   H4B 2301   2.428   4.185   2.367 -0.2835 -0.4490 -0.1974
   32CHL1    C5 2302   2.434   4.272   2.570 -0.0767 -0.5404  0.9482
   32CHL1    C6 2303   2.421   4.152   2.628 -0.0320 -0.3513  0.1772
   32CHL1    H6 2304   2.403   4.066   2.561 -0.7984  0.7207 -1.0278
   32CHL1    C7 2305   2.424   4.127   2.773 -0.2238  0.4808 -0.2330
   32CHL1   H7A 2306   2.332   4.067   2.793  0.2719  0.1499  1.1625
   32CHL1   H7B 2307   2.507   4.060   2.804 -1.4346 -0.9675 -0.0057
   32CHL1    C8 2308   2.425   4.262   2.853  0.2418 -0.4207 -0.9798
   32CHL1    H8 2309   2.320   4.298   2.856  0.6640  0.8397 -0.2688
   32CHL1   C14 2310   2.461   4.237   3.002  0.1926 -0.0755  0.2330
   32CHL1   H14 2311   2.567   4.202   3.006  0.0628 -0.4160  3.5809
   32CHL1   C15 2312   2.384   4.129   3.083  0.4174  0.4977 -0.0816
   32CHL1  H15A 2313   2.274   4.134   3.064 -0.2111  0.2450  2.9748
   32CHL1  H15B 2314   2.409   4.026   3.049 -1.0017 -0.3843  1.3702
   32CHL1   C16 2315   2.422   4.150   3.227  0.4341 -0.4695 -1.1580
   32CHL1  H16A 2316   2.331   4.159   3.289  0.3739 -0.8622 -1.1876
   32CHL1  H16B 2317   2.485   4.069   3.269  1.1012  1.5471  2.0901
   32CHL1   C17 2318   2.486   4.290   3.231  0.3103  0.2465 -0.0082
   32CHL1   H17 2319   2.593   4.262   3.233  0.6122  1.3027 -0.7329
   32CHL1   C13 2320   2.459   4.360   3.092 -0.0667 -0.2228 -0.4381
   32CHL1   C18 2321   2.316   4.428   3.096  1.0478  0.2278 -0.3489
   32CHL1  H18A 2322   2.247   4.374   3.165 -0.2049  1.8746 -0.2422
   32CHL1  H18B 2323   2.329   4.533   3.130  0.4214 -0.2435  1.4249
   32CHL1  H18C 2324   2.265   4.426   2.998  0.6343 -0.3069 -0.1266
   32CHL1   C12 2325   2.560   4.454   3.031 -0.0150 -0.8198  0.5814
   32CHL1  H12A 2326   2.568   4.546   3.094  0.6611  1.7278 -2.9108
   32CHL1  H12B 2327   2.662   4.411   3.033  1.1986  1.7657 -0.2509
   32CHL1   C11 2328   2.528   4.491   2.889 -0.4807 -0.8138 -0.3968
   32CHL1  H11A 2329   2.424   4.531   2.898 -0.6610 -1.1466 -0.9672
   32CHL1  H11B 2330   2.601   4.565   2.849  0.4122 -0.9597  0.9187
   32CHL1    C9 2331   2.512   4.371   2.792  0.0306 -0.0423  0.0496
   32CHL1    H9 2332   2.610   4.319   2.793 -0.3367 -0.7544  0.1959
   32CHL1   C10 2333   2.469   4.400   2.650 -0.2887 -0.0233  0.1430
   32CHL1   C19 2334   2.348   4.498   2.647 -0.2661  0.2063  0.1102
   32CHL1  H19A 2335   2.319   4.518   2.541  1.5120 -1.6453 -0.7966
   32CHL1  H19B 2336   2.262   4.450   2.698 -0.4681 -1.9937 -2.0801
   32CHL1  H19C 2337   2.380   4.589   2.702 -1.5067 -0.2921  1.7345
   32CHL1    C1 2338   2.601   4.458   2.586  0.8393 -0.3761 -0.0427
   32CHL1   H1A 2339   2.630   4.555   2.632 -2.8958  1.1690 -0.6418
   32CHL1   H1B 2340   2.688   4.389   2.593  1.6038  0.4973 -0.6725
   32CHL1    C2 2341   2.576   4.486   2.439 -0.4001  0.2668  0.2114
   32CHL1   H2A 2342   2.676   4.512   2.396 -0.4000 -0.1436 -0.0373
   32CHL1   H2B 2343   2.501   4.565   2.416 -1.7177 -0.3595  2.1889
   32CHL1   C20 2344   2.467   4.367   3.362  0.2740  0.0638  0.5998
   32CHL1   H20 2345   2.356   4.361   3.364  0.3423 -2.5121  0.5754
   32CHL1   C21 2346   2.534   4.503   3.360 -0.4489  0.8035  1.1628
   32CHL1  H21A 2347   2.478   4.579   3.301  1.4704  0.2834 -1.5425
   32CHL1  H21B 2348   2.637   4.500   3.317 -0.2241  1.5197  1.6419
   32CHL1  H21C 2349   2.532   4.542   3.464 -0.0922  0.6731  1.2221
   32CHL1   C22 2350   2.517   4.295   3.493  0.3670  0.6611 -0.4278
   32CHL1  H22A 2351   2.499   4.352   3.587 -1.3314 -0.0614 -0.2713
   32CHL1  H22B 2352   2.452   4.205   3.485  1.8334 -0.3120 -7.2394
   32CHL1   C23 2353   2.667   4.258   3.499 -0.0959 -0.1208 -0.6592
   32CHL1  H23A 2354   2.681   4.170   3.433  0.3316 -0.6589  0.1294
   32CHL1  H23B 2355   2.733   4.338   3.460  1.8260 -1.2342  0.1822
   32CHL1   C24 2356   2.702   4.231   3.639  0.2676  0.0977  0.2308
   32CHL1  H24A 2357   2.616   4.177   3.683 -1.2655  1.4828 -0.9748
   32CHL1  H24B 2358   2.790   4.163   3.646 -0.2642 -0.8143 -1.5804
   32CHL1   C25 2359   2.737   4.361   3.720  0.4114 -0.8516  0.3070
   32CHL1   H25 2360   2.659   4.440   3.710 -0.9619 -1.9879  1.5142
   32CHL1   C26 2361   2.754   4.329   3.873  0.2219 -0.0979 -0.5224
   32CHL1  H26A 2362   2.767   4.427   3.923  0.5551  0.3869 -1.5224
   32CHL1  H26B 2363   2.665   4.275   3.911  0.4200 -1.2290 -1.5994
   32CHL1  H26C 2364   2.842   4.265   3.890 -1.3653 -2.8748 -2.0742
   32CHL1   C27 2365   2.866   4.432   3.670  0.5189 -0.7243 -0.5752
   32CHL1  H27A 2366   2.847   4.491   3.578  0.5127  0.5265  0.2056
   32CHL1  H27B 2367   2.904   4.498   3.750  1.7026 -0.7455 -1.0982
   32CHL1  H27C 2368   2.942   4.354   3.646  0.8996 -0.0713 -1.5284
   33CHL1    C3 2369   0.459   4.493   2.679  0.3272 -0.2872  0.3577
   33CHL1    H3 2370   0.460   4.603   2.659 -0.0372 -0.3403  0.0305
   33CHL1    O3 2371   0.444   4.420   2.559 -0.0156 -0.2731  0.1271
   33CHL1   H3' 2372   0.526   4.436   2.511  0.5437  1.5875  1.5728
   33CHL1    C4 2373   0.587   4.450   2.744  0.1326 -0.3719  0.4667
   33CHL1   H4A 2374   0.614   4.342   2.743 -1.9695 -0.9561 -1.1620
   33CHL1   H4B 2375   0.671   4.496   2.688 -0.6280  1.7451  0.9613
   33CHL1    C5 2376   0.602   4.496   2.888  0.6863 -0.0010 -0.8942
   33CHL1    C6 2377   0.719   4.550   2.931  0.4384  0.9680 -0.4115
   33CHL1    H6 2378   0.807   4.557   2.865  0.6214 -0.8546 -0.4332
   33CHL1    C7 2379   0.735   4.593   3.071 -0.6443  0.5137  0.3625
   33CHL1   H7A 2380   0.835   4.578   3.116 -0.6878  0.3569  0.4073
   33CHL1   H7B 2381   0.721   4.703   3.083  1.3651  0.5232  4.2598
   33CHL1    C8 2382   0.634   4.526   3.169 -0.1450 -0.0094  0.1296
   33CHL1    H8 2383   0.656   4.418   3.183 -2.0113 -0.1001  3.4971
   33CHL1   C14 2384   0.646   4.586   3.310  0.2072  0.4079  0.1883
   33CHL1   H14 2385   0.619   4.693   3.302  0.8868  0.5551 -0.2165
   33CHL1   C15 2386   0.784   4.583   3.380 -0.2369 -0.1347  0.3664
   33CHL1  H15A 2387   0.848   4.497   3.353 -0.0786  0.3017 -0.7214
   33CHL1  H15B 2388   0.853   4.667   3.358  0.4222 -0.4113  1.3436
   33CHL1   C16 2389   0.759   4.582   3.532 -0.1828  0.0227 -0.4252
   33CHL1  H16A 2390   0.785   4.485   3.579 -0.0380  0.0195 -0.5129
   33CHL1  H16B 2391   0.816   4.665   3.579 -0.2905  0.8978 -1.7705
   33CHL1   C17 2392   0.605   4.589   3.547  0.1248 -0.4630 -0.4865
   33CHL1   H17 2393   0.575   4.696   3.546 -0.3950 -0.5249  1.7516
   33CHL1   C13 2394   0.544   4.534   3.412  0.0695  0.5002  0.3200
   33CHL1   C18 2395   0.552   4.379   3.425  0.1378  0.1780 -0.7406
   33CHL1  H18A 2396   0.649   4.337   3.461 -0.3938 -0.7698 -0.3747
   33CHL1  H18B 2397   0.482   4.351   3.507  1.1236  1.9370  0.7936
   33CHL1  H18C 2398   0.514   4.332   3.332 -2.4277 -0.4895  0.5676
   33CHL1   C12 2399   0.404   4.583   3.360 -0.0536 -0.5530 -0.5379
   33CHL1  H12A 2400   0.316   4.543   3.415  1.4177 -0.9352  1.6724
   33CHL1  H12B 2401   0.393   4.694   3.350 -3.0894 -0.6774  0.4394
   33CHL1   C11 2402   0.368   4.526   3.218 -0.3700 -0.7521 -0.4482
   33CHL1  H11A 2403   0.348   4.421   3.247 -3.8989 -0.0384  0.1462
   33CHL1  H11B 2404   0.273   4.563   3.174  0.1789 -0.0294 -1.0663
   33CHL1    C9 2405   0.487   4.548   3.117 -0.7000  0.8117  0.5201
   33CHL1    H9 2406   0.487   4.658   3.099 -0.6662  1.1216  2.2784
   33CHL1   C10 2407   0.475   4.478   2.981 -0.0507  0.0687  0.2384
   33CHL1   C19 2408   0.446   4.327   3.010  0.8129 -0.7758  0.2140
   33CHL1  H19A 2409   0.353   4.321   3.070  0.3283  2.5388 -0.0138
   33CHL1  H19B 2410   0.432   4.269   2.917  1.6038 -0.2138 -0.2658
   33CHL1  H19C 2411   0.527   4.291   3.077 -0.4875 -1.9543  1.1998
   33CHL1    C1 2412   0.355   4.536   2.909  0.2244 -0.5243  0.3371
   33CHL1   H1A 2413   0.259   4.520   2.964 -0.8947 -1.9349 -1.9019
   33CHL1   H1B 2414   0.370   4.645   2.895 -1.3787 -0.3070  0.1294
   33CHL1    C2 2415   0.332   4.481   2.770  0.9461 -0.3592  0.4490
   33CHL1   H2A 2416   0.251   4.539   2.720  2.0793 -0.9567 -2.2143
   33CHL1   H2B 2417   0.300   4.375   2.779  0.4946 -0.1955  0.8024
   33CHL1   C20 2418   0.562   4.526   3.683 -0.5721 -1.2337  0.2375
   33CHL1   H20 2419   0.586   4.418   3.678 -0.8362 -1.2771 -0.1474
   33CHL1   C21 2420   0.410   4.547   3.702 -0.0952 -0.1726 -0.4787
   33CHL1  H21A 2421   0.397   4.655   3.722  0.5755  0.1140 -1.5004
   33CHL1  H21B 2422   0.370   4.485   3.786  0.7597  0.2760  0.2814
   33CHL1  H21C 2423   0.358   4.524   3.607  0.0643  0.4099 -0.7077
   33CHL1   C22 2424   0.632   4.580   3.805  0.5288  0.5212 -0.0661
   33CHL1  H22A 2425   0.741   4.575   3.787  0.2401 -2.3295 -1.6228
   33CHL1  H22B 2426   0.599   4.686   3.807 -1.0268  0.0938 -1.0519
   33CHL1   C23 2427   0.599   4.515   3.940 -0.6911 -0.6487  0.9608
   33CHL1  H23A 2428   0.490   4.499   3.958 -0.7532 -1.1695  0.1708
   33CHL1  H23B 2429   0.647   4.415   3.937  2.1145  0.6176 -0.5429
   33CHL1   C24 2430   0.653   4.606   4.055  0.4508  0.4478 -0.4259
   33CHL1  H24A 2431   0.763   4.606   4.045  0.4199  2.0903 -0.9917
   33CHL1  H24B 2432   0.618   4.711   4.052  1.1554  0.9247  3.2962
   33CHL1   C25 2433   0.620   4.558   4.203  0.2165  1.0952  0.3959
   33CHL1   H25 2434   0.514   4.580   4.227  0.4433  0.0132  2.5562
   33CHL1   C26 2435   0.636   4.402   4.226  0.5666 -0.6843  0.5993
   33CHL1  H26A 2436   0.744   4.380   4.214  0.2308 -1.3575 -1.6186
   33CHL1  H26B 2437   0.594   4.376   4.325 -1.1231  0.7926  0.3247
   33CHL1  H26C 2438   0.576   4.342   4.155 -0.6253  0.2302  0.7941
   33CHL1   C27 2439   0.701   4.637   4.309  0.0198 -0.0147 -0.0166
   33CHL1  H27A 2440   0.679   4.580   4.402  1.6913 -2.6984 -1.1357
   33CHL1  H27B 2441   0.810   4.632   4.291  0.4627  1.1362  2.1241
   33CHL1  H27C 2442   0.656   4.738   4.315  1.7120  0.7918 -0.3255
   34CHL1    C3 2443   2.928   1.426   2.956 -0.3976 -0.6363 -0.3705
   34CHL1    H3 2444   2.823   1.392   2.955 -0.2600 -1.1317  0.6105
   34CHL1    O3 2445   2.964   1.476   2.830  0.7350 -0.1333  0.1519
   34CHL1   H3' 2446   3.047   1.522   2.839  0.8604  0.3079 -2.4794
   34CHL1    C4 2447   2.950   1.540   3.057 -0.7620 -0.0801 -0.0171
   34CHL1   H4A 2448   3.051   1.583   3.040 -0.2524 -1.1503  0.2218
   34CHL1   H4B 2449   2.874   1.616   3.026  0.5035 -0.2139 -4.1087
   34CHL1    C5 2450   2.931   1.492   3.201  0.4735  0.1449  0.6089
   34CHL1    C6 2451   2.839   1.551   3.274 -0.1104  0.1249  0.0132
   34CHL1    H6 2452   2.786   1.644   3.248 -1.9639 -0.4558  1.4790
   34CHL1    C7 2453   2.820   1.511   3.416 -0.6543  0.0864  0.5106
   34CHL1   H7A 2454   2.835   1.601   3.480 -1.1884 -0.4371  1.3823
   34CHL1   H7B 2455   2.719   1.483   3.452 -0.7969  0.9177  0.7854
   34CHL1    C8 2456   2.926   1.405   3.472  0.5290 -0.4383 -0.2985
   34CHL1    H8 2457   3.018   1.457   3.506 -0.1563  0.1513  0.7136
   34CHL1   C14 2458   2.862   1.336   3.599 -0.0193 -0.5430  0.5428
   34CHL1   H14 2459   2.772   1.294   3.549  0.4084  0.1924 -0.8976
   34CHL1   C15 2460   2.807   1.423   3.704 -0.2204 -0.6929 -0.6723
   34CHL1  H15A 2461   2.882   1.495   3.744 -0.1813 -0.9161 -0.3371
   34CHL1  H15B 2462   2.718   1.482   3.672 -0.1402  0.4899  1.1346
   34CHL1   C16 2463   2.795   1.325   3.823 -0.3856 -0.3540 -0.4046
   34CHL1  H16A 2464   2.868   1.353   3.901 -0.0400  1.6336 -1.3946
   34CHL1  H16B 2465   2.696   1.326   3.874  0.6442  0.4842  1.7011
   34CHL1   C17 2466   2.848   1.187   3.778 -0.6089 -0.3434 -0.8319
   34CHL1   H17 2467   2.768   1.131   3.724  1.4636 -2.7947 -1.5895
   34CHL1   C13 2468   2.944   1.219   3.663  0.0070 -1.3616 -0.7484
   34CHL1   C18 2469   3.075   1.294   3.729  0.0077 -0.4243  0.0536
   34CHL1  H18A 2470   3.141   1.211   3.760 -0.9825 -1.2128  0.0999
   34CHL1  H18B 2471   3.117   1.363   3.654 -1.1623 -0.6230 -0.8203
   34CHL1  H18C 2472   3.045   1.354   3.818 -0.7354 -2.0214  0.9228
   34CHL1   C12 2473   2.972   1.114   3.549  0.4991 -0.1487 -0.3949
   34CHL1  H12A 2474   3.041   1.034   3.583  0.9535  0.5157  0.2758
   34CHL1  H12B 2475   2.876   1.069   3.517 -0.1268  1.2648 -0.5822
   34CHL1   C11 2476   3.037   1.180   3.420  0.4793  0.0685  0.1749
   34CHL1  H11A 2477   3.135   1.229   3.439  0.6249 -0.4306  0.7414
   34CHL1  H11B 2478   3.041   1.107   3.338 -0.6283  0.5800 -0.3610
   34CHL1    C9 2479   2.953   1.300   3.365  0.8012 -0.2012 -0.0290
   34CHL1    H9 2480   2.854   1.258   3.335 -0.8925  2.5437  1.3099
   34CHL1   C10 2481   3.009   1.362   3.238  0.0669  0.8111  0.0658
   34CHL1   C19 2482   3.156   1.394   3.259  0.9948  0.5753  0.1355
   34CHL1  H19A 2483   3.189   1.452   3.171 -0.1988 -0.6276 -1.1580
   34CHL1  H19B 2484   3.173   1.456   3.349  0.0016 -0.3835  1.0193
   34CHL1  H19C 2485   3.211   1.298   3.264 -2.0775 -1.3673 -0.2138
   34CHL1    C1 2486   2.993   1.254   3.124 -0.0086 -0.5508  0.1555
   34CHL1   H1A 2487   3.062   1.167   3.137 -0.2301 -0.8541 -0.6257
   34CHL1   H1B 2488   2.890   1.213   3.125 -1.1516  2.1268  1.1226
   34CHL1    C2 2489   3.023   1.308   2.984 -0.5005 -0.5424  0.0396
   34CHL1   H2A 2490   2.998   1.228   2.910  0.3470 -1.3145  0.5653
   34CHL1   H2B 2491   3.127   1.340   2.966 -0.8154 -1.2714 -4.1841
   34CHL1   C20 2492   2.898   1.103   3.895 -0.5001 -0.1864 -0.1117
   34CHL1   H20 2493   2.994   1.140   3.935  0.9117 -1.0025 -2.5447
   34CHL1   C21 2494   2.931   0.960   3.843 -0.3197  0.1049  0.3157
   34CHL1  H21A 2495   3.018   0.952   3.775  0.4334 -0.4579  1.3381
   34CHL1  H21B 2496   2.848   0.929   3.776  1.9175 -0.9110 -2.1396
   34CHL1  H21C 2497   2.947   0.887   3.925 -0.6830  1.1525  1.3527
   34CHL1   C22 2498   2.807   1.086   4.019 -0.1193  0.1559 -0.2304
   34CHL1  H22A 2499   2.780   1.186   4.059 -2.2737 -0.5221  0.1067
   34CHL1  H22B 2500   2.711   1.038   3.991  0.0706 -1.6710  1.9988
   34CHL1   C23 2501   2.865   1.011   4.144 -0.3200  0.4156  0.2842
   34CHL1  H23A 2502   2.790   1.029   4.224 -1.9320 -0.5761 -0.9319
   34CHL1  H23B 2503   2.866   0.901   4.126 -0.0639  0.7311 -1.8574
   34CHL1   C24 2504   3.005   1.054   4.202 -0.2418  0.4957  0.5625
   34CHL1  H24A 2505   3.085   1.037   4.127 -0.2130  0.5123  0.5891
   34CHL1  H24B 2506   3.022   1.163   4.216  2.0777  0.2444  0.0742
   34CHL1   C25 2507   3.049   0.968   4.326 -0.6523 -0.2040  0.3972
   34CHL1   H25 2508   2.970   0.995   4.399 -0.1355 -0.9841  1.2567
   34CHL1   C26 2509   3.062   0.821   4.294 -0.9972  0.4000 -0.3192
   34CHL1  H26A 2510   2.967   0.764   4.307 -0.8868  0.4902  0.9750
   34CHL1  H26B 2511   3.098   0.800   4.190 -1.3641  0.0204 -0.3716
   34CHL1  H26C 2512   3.128   0.773   4.370  1.3618  0.9251 -1.9247
   34CHL1   C27 2513   3.175   1.026   4.385  0.2116  0.5706  0.3910
   34CHL1  H27A 2514   3.194   0.993   4.489 -0.0454  1.6002  0.7824
   34CHL1  H27B 2515   3.259   1.004   4.315 -1.4844 -0.7562 -1.3305
   34CHL1  H27C 2516   3.159   1.136   4.398  0.6005  0.5339  1.2311
   35CHL1    C3 2517   6.443   1.000   2.996  0.4464 -0.1666  0.2322
   35CHL1    H3 2518   6.534   1.032   3.050  0.3880 -2.2147  1.6835
   35CHL1    O3 2519   6.461   1.053   2.862  0.5013  0.4846  0.1168
   35CHL1   H3' 2520   6.388   1.016   2.811  1.5432 -1.7976  0.1405
   35CHL1    C4 2521   6.434   0.850   2.990  0.2675 -0.6205  0.3583
   35CHL1   H4A 2522   6.358   0.832   2.911  1.7274 -1.0071 -1.0182
   35CHL1   H4B 2523   6.524   0.801   2.947  0.6819 -0.5681  1.1525
   35CHL1    C5 2524   6.400   0.791   3.120 -0.6830 -0.8951 -0.1950
   35CHL1    C6 2525   6.479   0.697   3.171 -0.3933  0.5820 -0.1885
   35CHL1    H6 2526   6.559   0.647   3.114 -1.7683 -1.8462 -0.1392
   35CHL1    C7 2527   6.458   0.644   3.305  0.4426  0.3616  0.4640
   35CHL1   H7A 2528   6.474   0.534   3.309 -0.3639  0.0923 -2.0812
   35CHL1   H7B 2529   6.530   0.692   3.375 -0.0590 -1.1911  2.1141
   35CHL1    C8 2530   6.328   0.683   3.381  0.7133  0.2763 -0.2816
   35CHL1    H8 2531   6.245   0.618   3.345  0.3022 -0.0185  1.1565
   35CHL1   C14 2532   6.343   0.654   3.527  0.4332 -0.4667  0.0984
   35CHL1   H14 2533   6.424   0.727   3.547 -1.2713  2.2931 -2.3666
   35CHL1   C15 2534   6.392   0.516   3.568 -0.2345 -0.1271  1.0934
   35CHL1  H15A 2535   6.330   0.448   3.505 -1.2989  0.4324  1.5349
   35CHL1  H15B 2536   6.501   0.503   3.549 -0.1343 -0.3643  1.7943
   35CHL1   C16 2537   6.350   0.512   3.716  0.2036  0.3842  0.2668
   35CHL1  H16A 2538   6.277   0.428   3.721 -0.1965  0.7881  1.3581
   35CHL1  H16B 2539   6.431   0.489   3.789  0.1455 -1.5457 -0.2192
   35CHL1   C17 2540   6.270   0.637   3.745  0.0104 -0.5780  0.4322
   35CHL1   H17 2541   6.342   0.713   3.783  1.9732 -2.0095 -0.2872
   35CHL1   C13 2542   6.221   0.687   3.612  0.6379 -0.9923  0.3177
   35CHL1   C18 2543   6.109   0.599   3.559  0.7658 -0.4747  0.6554
   35CHL1  H18A 2544   6.088   0.599   3.450 -0.5609  1.0280  0.8770
   35CHL1  H18B 2545   6.125   0.494   3.590 -1.6595 -0.8003  1.0127
   35CHL1  H18C 2546   6.017   0.636   3.609  1.0835  1.4672 -0.0957
   35CHL1   C12 2547   6.186   0.837   3.598 -0.1941  0.0938 -0.0276
   35CHL1  H12A 2548   6.098   0.868   3.659 -0.4437 -0.8335  0.1070
   35CHL1  H12B 2549   6.267   0.894   3.648 -0.2553  0.8429 -0.7626
   35CHL1   C11 2550   6.188   0.890   3.453 -0.5742  0.1107 -0.1523
   35CHL1  H11A 2551   6.097   0.844   3.409  1.5745 -2.4845 -2.3184
   35CHL1  H11B 2552   6.183   1.001   3.449  0.6715  0.1600 -2.2150
   35CHL1    C9 2553   6.299   0.831   3.356 -0.5973  0.4303  0.5699
   35CHL1    H9 2554   6.389   0.884   3.395  2.4273 -3.3686 -0.6214
   35CHL1   C10 2555   6.289   0.865   3.203  0.0405  0.4025  0.1770
   35CHL1   C19 2556   6.160   0.809   3.142  0.3296  0.0226 -0.0740
   35CHL1  H19A 2557   6.150   0.851   3.040 -0.0831 -0.6186 -0.2992
   35CHL1  H19B 2558   6.157   0.699   3.131 -0.6506 -0.1717  1.7442
   35CHL1  H19C 2559   6.065   0.834   3.193 -0.6362 -0.4184 -1.5858
   35CHL1    C1 2560   6.293   1.020   3.192  0.0664 -0.0608 -0.1878
   35CHL1   H1A 2561   6.195   1.061   3.225  0.1203  0.4634 -0.6625
   35CHL1   H1B 2562   6.371   1.066   3.256 -0.7383  2.5843 -0.9815
   35CHL1    C2 2563   6.316   1.069   3.052 -0.2214 -0.5167  0.6574
   35CHL1   H2A 2564   6.325   1.180   3.048 -1.0336 -0.4420  0.6936
   35CHL1   H2B 2565   6.229   1.037   2.992 -1.0176  2.3509  0.1384
   35CHL1   C20 2566   6.164   0.604   3.852  0.4940 -0.3825 -0.3203
   35CHL1   H20 2567   6.099   0.523   3.813  0.2316  0.1432 -1.0070
   35CHL1   C21 2568   6.063   0.718   3.897 -0.3403 -0.7683 -0.0422
   35CHL1  H21A 2569   5.997   0.692   3.982 -1.1785  0.4584 -0.3003
   35CHL1  H21B 2570   6.001   0.759   3.814  1.1630  0.4491 -0.6092
   35CHL1  H21C 2571   6.119   0.801   3.944 -1.9819  0.2140  0.2280
   35CHL1   C22 2572   6.229   0.540   3.983 -0.7287  0.0402  0.4363
   35CHL1  H22A 2573   6.339   0.548   3.979 -0.7707  0.6002  0.3862
   35CHL1  H22B 2574   6.211   0.619   4.059 -0.2094  0.9803 -0.3932
   35CHL1   C23 2575   6.178   0.393   4.003 -0.7626 -0.4050 -0.3398
   35CHL1  H23A 2576   6.175   0.349   3.901  0.4869  1.8332 -1.4297
   35CHL1  H23B 2577   6.252   0.337   4.064  1.2567 -0.6393 -2.8524
   35CHL1   C24 2578   6.049   0.400   4.078 -0.1373 -0.2455 -0.5069
   35CHL1  H24A 2579   6.064   0.465   4.167 -0.8940 -1.7403  0.7429
   35CHL1  H24B 2580   5.972   0.438   4.008 -1.5645 -0.9805  0.6206
   35CHL1   C25 2581   5.997   0.266   4.127  0.2583 -0.4920  0.3974
   35CHL1   H25 2582   6.001   0.194   4.043  1.2569 -0.6945  0.5993
   35CHL1   C26 2583   6.083   0.212   4.239  0.8419 -0.3611 -0.0208
   35CHL1  H26A 2584   6.104   0.283   4.322  1.0437 -0.0091 -0.3757
   35CHL1  H26B 2585   6.040   0.118   4.281 -0.1043 -0.1944 -0.6052
   35CHL1  H26C 2586   6.184   0.188   4.200  0.2154 -2.8190 -0.3091
   35CHL1   C27 2587   5.854   0.280   4.175  0.3539 -0.1955  0.0528
   35CHL1  H27A 2588   5.787   0.331   4.102  2.4033  1.0644 -1.0341
   35CHL1  H27B 2589   5.807   0.185   4.206  1.2853 -0.7703 -0.2632
   35CHL1  H27C 2590   5.855   0.350   4.261  1.3388 -1.5667  1.2030
   36CHL1    C3 2591   2.643   3.552   2.475 -0.6512  0.3892  0.5299
   36CHL1    H3 2592   2.681   3.464   2.532 -0.2135  0.9436  1.1071
   36CHL1    O3 2593   2.702   3.552   2.346  0.2849 -0.3878 -0.1924
   36CHL1   H3' 2594   2.628   3.526   2.290 -0.6021  0.7069  0.4488
   36CHL1    C4 2595   2.494   3.527   2.463 -0.4075 -0.1479  0.0162
   36CHL1   H4A 2596   2.456   3.592   2.381  2.1287  0.4800 -0.7377
   36CHL1   H4B 2597   2.485   3.424   2.421 -0.3346 -0.8427  1.6337
   36CHL1    C5 2598   2.415   3.531   2.594 -0.1265 -0.3390  0.5044
   36CHL1    C6 2599   2.335   3.433   2.633 -0.0421  0.7418 -0.0153
   36CHL1    H6 2600   2.317   3.352   2.561 -1.7113 -1.6516  2.8578
   36CHL1    C7 2601   2.259   3.443   2.760 -0.6746  0.1799  0.5213
   36CHL1   H7A 2602   2.151   3.420   2.743 -0.5370 -0.1055  0.0158
   36CHL1   H7B 2603   2.296   3.368   2.833 -1.6652 -0.0297  0.8298
   36CHL1    C8 2604   2.253   3.578   2.832 -0.4241  0.5294 -0.6188
   36CHL1    H8 2605   2.174   3.634   2.778 -0.5501  4.2842  2.9491
   36CHL1   C14 2606   2.214   3.552   2.973  0.3850 -0.1019 -0.2202
   36CHL1   H14 2607   2.287   3.480   3.018 -1.8413 -0.7810  2.6401
   36CHL1   C15 2608   2.075   3.490   2.995 -0.1192  0.0921  0.2271
   36CHL1  H15A 2609   2.000   3.552   2.942 -0.0111 -0.2485 -0.3232
   36CHL1  H15B 2610   2.079   3.383   2.969  0.2505  0.5969 -1.9416
   36CHL1   C16 2611   2.074   3.503   3.142  0.6155  0.5928 -0.4181
   36CHL1  H16A 2612   1.976   3.546   3.172  0.7252  0.2281  0.4858
   36CHL1  H16B 2613   2.080   3.404   3.192  0.8520  0.1369 -1.3357
   36CHL1   C17 2614   2.185   3.603   3.199 -0.4586 -0.2437 -0.1192
   36CHL1   H17 2615   2.275   3.547   3.234  1.8014  2.3694 -1.3714
   36CHL1   C13 2616   2.226   3.675   3.070  1.0974  0.4668  0.1807
   36CHL1   C18 2617   2.117   3.779   3.037  0.5073  0.0583  0.6640
   36CHL1  H18A 2618   2.015   3.749   3.070 -0.8669  1.0148 -2.3536
   36CHL1  H18B 2619   2.132   3.881   3.079 -1.1450  0.5680  0.1122
   36CHL1  H18C 2620   2.102   3.795   2.928 -0.7099  1.3428  0.9799
   36CHL1   C12 2621   2.363   3.746   3.048  0.0835  0.2367 -0.2739
   36CHL1  H12A 2622   2.362   3.837   3.113  2.7573  0.7872 -0.8773
   36CHL1  H12B 2623   2.444   3.679   3.083 -0.1170  1.2561  2.4236
   36CHL1   C11 2624   2.392   3.786   2.904  0.0574  0.1327 -0.1868
   36CHL1  H11A 2625   2.314   3.860   2.876  1.0316  0.4382 -2.2854
   36CHL1  H11B 2626   2.491   3.835   2.898 -0.4998  1.7550  2.3456
   36CHL1    C9 2627   2.392   3.648   2.821  0.5131  0.3034 -0.0624
   36CHL1    H9 2628   2.463   3.572   2.859  0.5520 -0.0290 -0.7843
   36CHL1   C10 2629   2.447   3.654   2.676  0.5058 -0.3519  1.0177
   36CHL1   C19 2630   2.358   3.757   2.598  0.7232 -0.6711 -0.1350
   36CHL1  H19A 2631   2.407   3.787   2.504 -1.4493  0.4554 -0.9601
   36CHL1  H19B 2632   2.257   3.720   2.570  0.8598 -0.2168 -1.2651
   36CHL1  H19C 2633   2.347   3.846   2.663  1.0241 -0.8392  0.1531
   36CHL1    C1 2634   2.601   3.700   2.676  0.9084  0.3498 -0.0748
   36CHL1   H1A 2635   2.606   3.804   2.716  0.4009 -0.0720  1.1480
   36CHL1   H1B 2636   2.650   3.636   2.753 -0.0951 -1.5396 -0.9457
   36CHL1    C2 2637   2.670   3.681   2.544 -0.2040  0.1481 -0.2765
   36CHL1   H2A 2638   2.780   3.686   2.557  0.0240 -1.9865 -1.0470
   36CHL1   H2B 2639   2.635   3.764   2.478 -1.1164  1.4513  1.7571
   36CHL1   C20 2640   2.144   3.691   3.316  0.1135  0.4262 -0.3846
   36CHL1   H20 2641   2.059   3.759   3.296 -0.0431  1.5292  3.2290
   36CHL1   C21 2642   2.262   3.778   3.363 -0.4604 -0.4625 -0.2089
   36CHL1  H21A 2643   2.257   3.795   3.473 -1.6603 -0.6072 -0.2342
   36CHL1  H21B 2644   2.261   3.873   3.306 -1.2855 -0.1091  0.3830
   36CHL1  H21C 2645   2.348   3.711   3.340 -0.2076  0.5994 -2.6756
   36CHL1   C22 2646   2.093   3.596   3.430  0.2681  0.3713  0.2939
   36CHL1  H22A 2647   2.009   3.533   3.395  0.3375  0.5425 -0.1820
   36CHL1  H22B 2648   2.171   3.523   3.459  0.4295 -0.2900 -1.6819
   36CHL1   C23 2649   2.037   3.670   3.556 -0.7568 -0.5159  1.1657
   36CHL1  H23A 2650   2.093   3.638   3.646  0.6927  2.0785  1.2946
   36CHL1  H23B 2651   2.058   3.779   3.555  0.8622 -0.7847 -0.9332
   36CHL1   C24 2652   1.887   3.646   3.571  0.0358 -0.0598  0.1890
   36CHL1  H24A 2653   1.838   3.671   3.475 -0.1800 -1.8657 -0.2201
   36CHL1  H24B 2654   1.874   3.537   3.589 -0.4300 -0.4141 -2.0114
   36CHL1   C25 2655   1.823   3.722   3.686  0.0710  0.1405  0.2761
   36CHL1   H25 2656   1.822   3.829   3.658  0.5158 -0.4768 -2.2628
   36CHL1   C26 2657   1.677   3.683   3.719 -0.0492 -0.2697 -0.2273
   36CHL1  H26A 2658   1.659   3.582   3.761 -0.1976  0.6150  1.9847
   36CHL1  H26B 2659   1.629   3.743   3.799 -0.0907 -2.2073  1.2722
   36CHL1  H26C 2660   1.629   3.697   3.620  0.7714 -2.1993 -0.9408
   36CHL1   C27 2661   1.904   3.707   3.817 -0.2488 -0.7453 -0.2456
   36CHL1  H27A 2662   1.920   3.597   3.819 -0.0047 -0.9367 -4.1153
   36CHL1  H27B 2663   1.995   3.771   3.815 -2.1820  2.2511  0.5404
   36CHL1  H27C 2664   1.852   3.744   3.908  1.3493  0.2857  0.2897
   37CHL1    C3 2665   5.606   5.908   2.982 -0.3864  0.7754  0.0809
   37CHL1    H3 2666   5.660   5.823   3.028  3.2327  1.9636 -1.6364
   37CHL1    O3 2667   5.553   5.882   2.849 -0.4162 -0.0844 -0.9988
   37CHL1   H3' 2668   5.623   5.904   2.787  0.3796 -3.0235 -1.3106
   37CHL1    C4 2669   5.494   5.949   3.070 -0.4457  0.2124  0.5994
   37CHL1   H4A 2670   5.447   6.039   3.026 -1.5995 -0.8895 -0.4746
   37CHL1   H4B 2671   5.414   5.873   3.062 -0.7502  0.7094 -2.2160
   37CHL1    C5 2672   5.544   5.975   3.213  0.1432 -0.3975  0.1825
   37CHL1    C6 2673   5.485   5.917   3.322 -0.3189  0.4299 -0.4066
   37CHL1    H6 2674   5.407   5.841   3.308  1.3889 -1.6571  0.8086
   37CHL1    C7 2675   5.535   5.934   3.462  0.1786 -0.7214 -0.1444
   37CHL1   H7A 2676   5.458   5.955   3.540 -0.8854  0.6237 -1.4724
   37CHL1   H7B 2677   5.601   5.855   3.503  1.7487 -0.0930 -1.3697
   37CHL1    C8 2678   5.621   6.070   3.467 -0.0855  0.0132 -0.2824
   37CHL1    H8 2679   5.553   6.157   3.455 -0.5248 -0.4689 -1.3806
   37CHL1   C14 2680   5.687   6.078   3.605  0.2842 -0.4079 -0.2338
   37CHL1   H14 2681   5.746   5.984   3.616 -0.2586 -0.5213  2.5905
   37CHL1   C15 2682   5.602   6.059   3.735  0.1421 -0.1542 -0.4836
   37CHL1  H15A 2683   5.502   6.107   3.725  0.3248 -0.1559 -2.9466
   37CHL1  H15B 2684   5.587   5.950   3.751 -0.0036 -0.1516 -0.6017
   37CHL1   C16 2685   5.689   6.124   3.840  0.5152 -0.3399  0.2848
   37CHL1  H16A 2686   5.633   6.203   3.894  0.1100  0.5809 -1.4125
   37CHL1  H16B 2687   5.718   6.045   3.912 -0.1776 -2.1222 -1.3244
   37CHL1   C17 2688   5.815   6.181   3.770 -0.6568 -0.9671 -0.7002
   37CHL1   H17 2689   5.878   6.090   3.757 -2.1135 -2.0610 -0.4166
   37CHL1   C13 2690   5.775   6.208   3.625 -0.0930  0.0553  0.5405
   37CHL1   C18 2691   5.691   6.336   3.621  0.3600 -0.1251 -0.6565
   37CHL1  H18A 2692   5.648   6.352   3.520  1.4482  1.6811 -0.8737
   37CHL1  H18B 2693   5.603   6.324   3.688  1.2821 -1.0131  0.4528
   37CHL1  H18C 2694   5.748   6.422   3.662 -0.4755 -0.2263  0.8167
   37CHL1   C12 2695   5.889   6.195   3.527 -0.0619 -0.0769  1.6671
   37CHL1  H12A 2696   5.963   6.278   3.531 -0.6241  0.5899 -0.3755
   37CHL1  H12B 2697   5.933   6.096   3.553  0.5841 -0.6063 -1.1294
   37CHL1   C11 2698   5.832   6.184   3.383 -0.5021 -0.1464  0.3706
   37CHL1  H11A 2699   5.791   6.286   3.367  1.3763  1.0751  2.7800
   37CHL1  H11B 2700   5.916   6.182   3.311 -0.5645 -0.6687  0.3056
   37CHL1    C9 2701   5.728   6.068   3.362  0.6306 -0.0485 -0.0117
   37CHL1    H9 2702   5.778   5.969   3.365 -2.5537 -1.7528  0.5531
   37CHL1   C10 2703   5.667   6.065   3.220 -0.4154 -0.0146  0.4021
   37CHL1   C19 2704   5.625   6.209   3.189  0.6505 -0.4951  0.5214
   37CHL1  H19A 2705   5.562   6.216   3.098  0.4492 -2.7404  0.4225
   37CHL1  H19B 2706   5.558   6.248   3.268  1.2200  3.6224 -0.8013
   37CHL1  H19C 2707   5.708   6.282   3.175  0.5291 -0.4416  0.0829
   37CHL1    C1 2708   5.772   6.015   3.121  0.3463  0.2357 -0.1074
   37CHL1   H1A 2709   5.859   6.083   3.111 -0.9753  2.2424  1.2898
   37CHL1   H1B 2710   5.805   5.914   3.154 -0.0232 -0.7850 -2.6970
   37CHL1    C2 2711   5.717   6.012   2.981 -0.0967  0.4011 -0.2896
   37CHL1   H2A 2712   5.799   5.983   2.912  0.4525 -2.5938  1.4665
   37CHL1   H2B 2713   5.679   6.110   2.944  0.5506  1.5542  1.9124
   37CHL1   C20 2714   5.895   6.285   3.851 -0.5711 -0.2595 -0.1448
   37CHL1   H20 2715   5.819   6.362   3.878 -3.7201 -3.1913 -0.0248
   37CHL1   C21 2716   6.012   6.356   3.770 -0.4218 -0.4569  0.1067
   37CHL1  H21A 2717   6.060   6.439   3.827  1.0362 -0.6619 -0.7557
   37CHL1  H21B 2718   5.979   6.408   3.677 -0.3778  1.0703  0.9062
   37CHL1  H21C 2719   6.080   6.274   3.738 -1.4067 -1.3118  0.1485
   37CHL1   C22 2720   5.947   6.216   3.979 -0.3063 -0.2558 -0.5063
   37CHL1  H22A 2721   5.862   6.170   4.034  0.9119 -3.0830 -0.8414
   37CHL1  H22B 2722   5.998   6.128   3.934  0.5173 -1.0947  1.9427
   37CHL1   C23 2723   6.040   6.293   4.074 -0.2940  0.1163  0.5328
   37CHL1  H23A 2724   6.080   6.216   4.144  0.3228  0.0747  0.1426
   37CHL1  H23B 2725   6.124   6.352   4.031 -1.1700  1.7772  1.0019
   37CHL1   C24 2726   5.966   6.388   4.165  0.4900 -0.2972  0.4223
   37CHL1  H24A 2727   5.885   6.447   4.119 -1.0808 -3.9359 -1.9087
   37CHL1  H24B 2728   5.918   6.332   4.248 -0.7727  0.7820  0.4445
   37CHL1   C25 2729   6.061   6.498   4.229  0.3168 -0.2852 -0.4348
   37CHL1   H25 2730   6.097   6.565   4.148 -0.2062  1.7590  0.9445
   37CHL1   C26 2731   5.977   6.585   4.319 -0.2325 -0.2689  0.0464
   37CHL1  H26A 2732   5.940   6.518   4.400  0.5580 -0.1425  0.5153
   37CHL1  H26B 2733   6.034   6.672   4.357  1.7276 -1.2364 -0.5307
   37CHL1  H26C 2734   5.902   6.639   4.258 -0.1288 -0.9959 -0.7442
   37CHL1   C27 2735   6.171   6.433   4.318  0.0765  0.6344  0.3920
   37CHL1  H27A 2736   6.216   6.509   4.385  1.0662  0.9066 -0.5433
   37CHL1  H27B 2737   6.130   6.345   4.373 -0.0387 -1.2897 -2.5339
   37CHL1  H27C 2738   6.245   6.386   4.249 -0.4037 -2.6662  1.9286
   38CHL1    C3 2739   5.624   3.412   3.047 -0.2558  0.0358 -0.5335
   38CHL1    H3 2740   5.726   3.439   3.083  0.2386 -3.8293  1.4603
   38CHL1    O3 2741   5.619   3.380   2.910 -0.2529  0.4210 -0.5078
   38CHL1   H3' 2742   5.538   3.334   2.886 -0.5516  0.5453  0.2706
   38CHL1    C4 2743   5.588   3.291   3.125 -0.0905 -0.0296  0.4841
   38CHL1   H4A 2744   5.482   3.277   3.092  0.3641  1.4578 -1.8578
   38CHL1   H4B 2745   5.658   3.208   3.105  0.3691 -0.1390  2.3535
   38CHL1    C5 2746   5.580   3.316   3.275  0.4759  0.1659  0.8618
   38CHL1    C6 2747   5.665   3.257   3.360  0.3055  0.0668  0.5233
   38CHL1    H6 2748   5.725   3.179   3.309  0.6520  0.6318  0.0551
   38CHL1    C7 2749   5.677   3.279   3.502 -0.1745 -0.7534 -1.0793
   38CHL1   H7A 2750   5.693   3.182   3.553  1.1826 -0.1424 -0.2775
   38CHL1   H7B 2751   5.767   3.343   3.516 -1.4785  1.0794 -0.6825
   38CHL1    C8 2752   5.554   3.351   3.559  0.7393  0.5477 -0.0053
   38CHL1    H8 2753   5.473   3.277   3.569 -1.1224  2.4239 -0.4669
   38CHL1   C14 2754   5.578   3.413   3.695  0.2916  0.3980  0.2506
   38CHL1   H14 2755   5.658   3.487   3.674  2.4706 -1.8674  0.2382
   38CHL1   C15 2756   5.637   3.318   3.797  0.5899  0.2128  0.7592
   38CHL1  H15A 2757   5.599   3.215   3.787  0.4634  0.3598 -0.4546
   38CHL1  H15B 2758   5.747   3.306   3.783  0.6024  0.8934  0.1789
   38CHL1   C16 2759   5.618   3.394   3.930  0.1415  0.7417  0.0912
   38CHL1  H16A 2760   5.558   3.325   3.992 -0.0399 -0.8292 -1.7299
   38CHL1  H16B 2761   5.714   3.407   3.984 -1.2434  0.4170  2.7969
   38CHL1   C17 2762   5.531   3.521   3.897  0.1048  0.0573 -0.1931
   38CHL1   H17 2763   5.583   3.616   3.872 -0.9764  0.2989 -1.6901
   38CHL1   C13 2764   5.463   3.491   3.763  0.1351 -0.2689 -0.6199
   38CHL1   C18 2765   5.344   3.391   3.782 -0.5457  0.7831 -0.4323
   38CHL1  H18A 2766   5.255   3.447   3.818  0.5374  1.6715  1.0124
   38CHL1  H18B 2767   5.311   3.332   3.695  2.4145 -1.2169 -0.3372
   38CHL1  H18C 2768   5.360   3.322   3.867  0.9100  1.7486  0.1275
   38CHL1   C12 2769   5.411   3.605   3.675 -0.7870  0.7775  0.6459
   38CHL1  H12A 2770   5.314   3.634   3.719 -1.1086  0.0672  0.4338
   38CHL1  H12B 2771   5.495   3.677   3.673 -0.9341  0.9450  0.4417
   38CHL1   C11 2772   5.384   3.543   3.531 -0.6440 -0.0211 -0.8612
   38CHL1  H11A 2773   5.290   3.486   3.542 -1.1671  0.9512 -0.1951
   38CHL1  H11B 2774   5.362   3.632   3.467  3.2234  1.8888  0.1190
   38CHL1    C9 2775   5.500   3.464   3.462  0.1017  0.6853  0.3594
   38CHL1    H9 2776   5.594   3.524   3.465  0.7593 -0.3417  1.0146
   38CHL1   C10 2777   5.485   3.426   3.311  0.0079  0.0173 -0.6902
   38CHL1   C19 2778   5.337   3.382   3.293 -0.1883 -0.1326 -0.5463
   38CHL1  H19A 2779   5.310   3.363   3.187  1.3369  0.1561 -1.0169
   38CHL1  H19B 2780   5.321   3.290   3.354  1.0024 -0.6523 -0.9703
   38CHL1  H19C 2781   5.268   3.456   3.338 -0.3490 -0.2578 -0.5896
   38CHL1    C1 2782   5.509   3.557   3.227 -0.3289  0.1296 -0.6945
   38CHL1   H1A 2783   5.428   3.629   3.250  1.1786  1.6005  0.2368
   38CHL1   H1B 2784   5.606   3.604   3.254 -1.2703  1.6205  0.1917
   38CHL1    C2 2785   5.529   3.527   3.075  0.7435 -0.8452  0.1852
   38CHL1   H2A 2786   5.563   3.614   3.016 -0.0495  0.2025  1.2144
   38CHL1   H2B 2787   5.430   3.493   3.036 -0.4467  1.0418  1.3745
   38CHL1   C20 2788   5.435   3.552   4.019 -0.0542  0.1177 -0.0154
   38CHL1   H20 2789   5.347   3.485   4.009  0.2434 -0.4240  0.8473
   38CHL1   C21 2790   5.394   3.706   3.997 -0.2862 -0.2683 -0.3434
   38CHL1  H21A 2791   5.334   3.738   4.085 -0.2670  0.6094 -0.6475
   38CHL1  H21B 2792   5.326   3.727   3.911  0.5833  0.6837 -0.8246
   38CHL1  H21C 2793   5.484   3.770   3.985 -1.4363  1.6839  0.9102
   38CHL1   C22 2794   5.498   3.527   4.165  0.4666  0.3466 -0.7030
   38CHL1  H22A 2795   5.419   3.554   4.238  0.2957  0.8151 -1.0572
   38CHL1  H22B 2796   5.524   3.420   4.181  1.1072  0.1671 -2.6524
   38CHL1   C23 2797   5.623   3.617   4.187 -0.2774 -0.3786 -0.0501
   38CHL1  H23A 2798   5.704   3.586   4.117  0.9260  0.0525  1.0988
   38CHL1  H23B 2799   5.612   3.723   4.155  2.3389 -0.1272 -0.3355
   38CHL1   C24 2800   5.676   3.615   4.336  0.1286 -0.6371 -0.4515
   38CHL1  H24A 2801   5.592   3.605   4.408 -0.0440  0.5071 -0.4761
   38CHL1  H24B 2802   5.757   3.539   4.351  0.3473 -0.0586  1.5631
   38CHL1   C25 2803   5.752   3.745   4.379 -0.8842 -0.0826 -0.4822
   38CHL1   H25 2804   5.682   3.830   4.366  0.2727  0.5437 -3.2980
   38CHL1   C26 2805   5.784   3.726   4.527 -0.1448  0.4531  0.2913
   38CHL1  H26A 2806   5.865   3.652   4.546 -1.4381 -1.4780 -1.3252
   38CHL1  H26B 2807   5.807   3.824   4.573 -0.8370  0.4488  0.6679
   38CHL1  H26C 2808   5.699   3.678   4.580  0.3794  0.3802  1.0830
   38CHL1   C27 2809   5.876   3.784   4.301 -0.3170 -0.3307 -0.3534
   38CHL1  H27A 2810   5.849   3.820   4.200 -2.8423 -0.1312  0.3206
   38CHL1  H27B 2811   5.930   3.870   4.346 -1.2104 -0.2380  0.5850
   38CHL1  H27C 2812   5.946   3.698   4.287 -0.7698 -0.4692 -1.9409
   39CHL1    C3 2813   4.715   5.720   2.870 -0.1928 -0.5203 -0.7012
   39CHL1    H3 2814   4.773   5.638   2.917  1.1032  0.9310  0.3214
   39CHL1    O3 2815   4.718   5.707   2.729  0.3515  0.3974  0.0576
   39CHL1   H3' 2816   4.808   5.732   2.706  0.2252  2.6787  1.6951
   39CHL1    C4 2817   4.569   5.700   2.910  0.3426  0.2718 -0.6515
   39CHL1   H4A 2818   4.505   5.768   2.850 -1.0409 -2.4094 -2.4371
   39CHL1   H4B 2819   4.534   5.600   2.875 -1.4673  0.8368 -0.5411
   39CHL1    C5 2820   4.549   5.708   3.059  0.0813 -0.0826  1.2545
   39CHL1    C6 2821   4.484   5.612   3.130 -0.2759  0.1813  0.0578
   39CHL1    H6 2822   4.439   5.530   3.072 -3.3617  2.5847 -1.2275
   39CHL1    C7 2823   4.456   5.616   3.279  0.2534  0.2884 -0.2754
   39CHL1   H7A 2824   4.346   5.622   3.297  0.1501  1.0119 -1.0681
   39CHL1   H7B 2825   4.509   5.531   3.325 -0.2800  0.7668  1.2637
   39CHL1    C8 2826   4.505   5.752   3.344  0.0692  0.4227 -0.9848
   39CHL1    H8 2827   4.421   5.825   3.332 -1.3204 -1.0750 -0.7498
   39CHL1   C14 2828   4.530   5.737   3.503 -1.0364 -0.0361  0.4772
   39CHL1   H14 2829   4.623   5.679   3.521 -1.6514 -0.8397  1.1321
   39CHL1   C15 2830   4.422   5.664   3.592 -0.7643 -0.5932  0.1791
   39CHL1  H15A 2831   4.330   5.718   3.562 -1.3097 -1.2847  0.5788
   39CHL1  H15B 2832   4.415   5.554   3.575  0.3477 -0.4724 -1.2600
   39CHL1   C16 2833   4.452   5.712   3.731 -0.3112 -0.0276  0.2629
   39CHL1  H16A 2834   4.364   5.755   3.784 -0.2359  0.3612  0.0709
   39CHL1  H16B 2835   4.498   5.635   3.797  0.9669 -0.0274 -0.5958
   39CHL1   C17 2836   4.561   5.829   3.718  0.4194 -0.1713  0.3495
   39CHL1   H17 2837   4.655   5.771   3.733  0.7071  0.2607  0.2286
   39CHL1   C13 2838   4.556   5.868   3.569 -0.1332  0.4450 -0.6156
   39CHL1   C18 2839   4.438   5.974   3.555 -0.5652 -0.3703 -0.6556
   39CHL1  H18A 2840   4.340   5.935   3.588 -1.8288  2.3150 -1.0016
   39CHL1  H18B 2841   4.467   6.068   3.607  1.6222 -1.8689  1.0281
   39CHL1  H18C 2842   4.432   6.003   3.448 -0.3030  2.7526  0.0626
   39CHL1   C12 2843   4.680   5.930   3.509 -0.9010  1.0774 -0.2693
   39CHL1  H12A 2844   4.708   6.034   3.536 -0.2683  1.0157 -0.6747
   39CHL1  H12B 2845   4.765   5.870   3.549 -0.4129  2.1396  0.3171
   39CHL1   C11 2846   4.687   5.934   3.354 -0.1441 -0.2762 -0.7759
   39CHL1  H11A 2847   4.624   6.020   3.325  1.3238  1.4200  0.8125
   39CHL1  H11B 2848   4.793   5.952   3.330  0.1987 -0.5490  0.4624
   39CHL1    C9 2849   4.637   5.808   3.283  0.2501 -0.1922  0.2840
   39CHL1    H9 2850   4.706   5.722   3.296 -0.8224 -0.9472  1.2263
   39CHL1   C10 2851   4.620   5.828   3.129 -0.2719  0.2482 -0.1568
   39CHL1   C19 2852   4.525   5.947   3.099  0.1207  0.4618  0.0898
   39CHL1  H19A 2853   4.559   6.051   3.121  1.2397 -0.4080  2.8999
   39CHL1  H19B 2854   4.507   5.947   2.989 -1.7863  0.5780  0.3817
   39CHL1  H19C 2855   4.427   5.939   3.150  0.6122  0.0939  0.9999
   39CHL1    C1 2856   4.761   5.860   3.070  0.1342  0.3821  0.0163
   39CHL1   H1A 2857   4.798   5.958   3.106  1.8878 -1.1054  2.6415
   39CHL1   H1B 2858   4.833   5.782   3.104 -0.7317 -1.8658 -2.9133
   39CHL1    C2 2859   4.769   5.852   2.918  0.1305  1.1585 -0.4765
   39CHL1   H2A 2860   4.871   5.871   2.880 -0.1016 -0.2050 -1.8759
   39CHL1   H2B 2861   4.712   5.928   2.860 -2.8838 -0.9969 -0.6186
   39CHL1   C20 2862   4.559   5.934   3.836  0.5777  0.1713 -0.7490
   39CHL1   H20 2863   4.458   5.980   3.832  0.7806  0.8349  0.8054
   39CHL1   C21 2864   4.659   6.043   3.816 -0.1668 -0.3719 -0.0350
   39CHL1  H21A 2865   4.656   6.101   3.722 -0.0121  0.6568  0.5859
   39CHL1  H21B 2866   4.762   6.003   3.829 -0.2904 -0.1132  2.1919
   39CHL1  H21C 2867   4.653   6.120   3.895 -1.9249 -1.1712  0.6569
   39CHL1   C22 2868   4.566   5.869   3.980 -0.7879  0.4229  0.0498
   39CHL1  H22A 2869   4.526   5.766   3.984  2.0380 -0.8820 -1.8967
   39CHL1  H22B 2870   4.672   5.838   3.994 -0.6375 -1.2470 -3.6511
   39CHL1   C23 2871   4.506   5.960   4.090  0.1064 -0.2349 -0.0779
   39CHL1  H23A 2872   4.565   6.053   4.105 -0.2146  0.0611 -0.6143
   39CHL1  H23B 2873   4.411   5.993   4.044 -0.0901  0.4254  0.7620
   39CHL1   C24 2874   4.488   5.887   4.228 -0.2856 -0.4738  0.3133
   39CHL1  H24A 2875   4.430   5.796   4.205 -0.6283 -0.2930  0.4505
   39CHL1  H24B 2876   4.589   5.862   4.265  0.2601  0.6673 -0.3403
   39CHL1   C25 2877   4.402   5.965   4.330  0.0140 -1.0617 -0.1440
   39CHL1   H25 2878   4.310   5.988   4.271  0.6840 -1.7873 -1.5208
   39CHL1   C26 2879   4.348   5.888   4.449 -0.4420 -0.3657  0.3368
   39CHL1  H26A 2880   4.430   5.852   4.515  0.0766  0.0583 -0.0645
   39CHL1  H26B 2881   4.291   5.961   4.510 -0.7342  2.0888 -2.6029
   39CHL1  H26C 2882   4.291   5.798   4.419 -2.0472  0.5408  0.5519
   39CHL1   C27 2883   4.463   6.093   4.381  0.1523 -0.3318  0.6912
   39CHL1  H27A 2884   4.539   6.069   4.458  0.2661 -2.7594 -0.1184
   39CHL1  H27B 2885   4.515   6.146   4.298  0.9491  1.1307  2.0577
   39CHL1  H27C 2886   4.391   6.164   4.429  0.1852  0.4494 -0.3771
   40CHL1    C3 2887   4.327   4.214   2.579 -0.3435  0.2442 -0.2982
   40CHL1    H3 2888   4.307   4.104   2.575 -1.5414  0.4955 -2.6071
   40CHL1    O3 2889   4.354   4.265   2.453 -0.9232 -0.0685  0.3931
   40CHL1   H3' 2890   4.354   4.360   2.468  1.8711  0.1685 -0.6476
   40CHL1    C4 2891   4.209   4.294   2.652 -0.4634  0.0889  0.3213
   40CHL1   H4A 2892   4.224   4.404   2.647  1.7607 -0.1938 -3.8939
   40CHL1   H4B 2893   4.128   4.274   2.579  0.6271  0.1780 -0.9704
   40CHL1    C5 2894   4.176   4.264   2.794  0.5259  0.0829  0.0271
   40CHL1    C6 2895   4.053   4.216   2.827 -0.1214 -0.0193  0.7571
   40CHL1    H6 2896   3.976   4.186   2.754  0.5450 -1.7905  0.7378
   40CHL1    C7 2897   4.020   4.195   2.970 -0.0034  0.0166 -0.0999
   40CHL1   H7A 2898   3.919   4.238   2.991 -0.2202 -1.0782  1.2758
   40CHL1   H7B 2899   4.016   4.085   2.985  0.1508  0.3681  3.1466
   40CHL1    C8 2900   4.125   4.248   3.072  0.0510  0.2458 -0.2502
   40CHL1    H8 2901   4.121   4.359   3.078 -0.0544  0.2042  0.5492
   40CHL1   C14 2902   4.095   4.191   3.210  0.3182  0.1603 -0.1300
   40CHL1   H14 2903   4.102   4.081   3.197  0.0598  0.1059  0.1703
   40CHL1   C15 2904   3.954   4.221   3.258 -0.6181 -0.6254  0.4810
   40CHL1  H15A 2905   3.925   4.327   3.241  1.8892  0.1041  0.3407
   40CHL1  H15B 2906   3.890   4.146   3.207 -2.1850  1.5059 -0.8770
   40CHL1   C16 2907   3.956   4.199   3.413 -0.1311 -0.9010 -0.6300
   40CHL1  H16A 2908   3.908   4.283   3.468  0.3523 -0.1196 -1.3828
   40CHL1  H16B 2909   3.907   4.102   3.435 -0.5092 -0.7237 -0.6775
   40CHL1   C17 2910   4.112   4.180   3.445 -0.0137  0.4606  0.0207
   40CHL1   H17 2911   4.125   4.070   3.431 -1.4379  0.0814  1.3922
   40CHL1   C13 2912   4.180   4.241   3.322 -0.1704  0.4686  0.0467
   40CHL1   C18 2913   4.181   4.395   3.327 -0.3779 -0.2126  0.4878
   40CHL1  H18A 2914   4.271   4.431   3.381  0.4234 -3.2857  1.4346
   40CHL1  H18B 2915   4.189   4.456   3.235  1.2069  3.6949  2.9509
   40CHL1  H18C 2916   4.090   4.428   3.382 -1.1800  1.6227 -1.7864
   40CHL1   C12 2917   4.318   4.184   3.287 -0.1196 -0.1096 -0.3191
   40CHL1  H12A 2918   4.394   4.224   3.358  1.4844 -1.7839 -1.0289
   40CHL1  H12B 2919   4.321   4.073   3.290  0.6209 -0.0838  2.0156
   40CHL1   C11 2920   4.365   4.227   3.145 -0.6910  0.1232  0.1510
   40CHL1  H11A 2921   4.396   4.333   3.154  4.0900 -0.9690 -0.8213
   40CHL1  H11B 2922   4.465   4.189   3.118 -1.5617 -0.7639 -2.0399
   40CHL1    C9 2923   4.263   4.212   3.032 -0.0315  0.0409  0.0968
   40CHL1    H9 2924   4.247   4.103   3.025 -1.3799  0.2239  0.1224
   40CHL1   C10 2925   4.286   4.276   2.889 -0.4664  0.1595  0.0920
   40CHL1   C19 2926   4.321   4.426   2.901 -0.4173  0.2561 -0.9549
   40CHL1  H19A 2927   4.394   4.453   2.980 -3.9930  4.4155  1.4287
   40CHL1  H19B 2928   4.359   4.483   2.814  1.7407  1.2492  0.5524
   40CHL1  H19C 2929   4.233   4.480   2.943  1.3661  2.6184 -0.0519
   40CHL1    C1 2930   4.409   4.198   2.822 -0.1248 -0.3120 -0.9499
   40CHL1   H1A 2931   4.491   4.221   2.893 -2.3667  1.8547  1.1905
   40CHL1   H1B 2932   4.379   4.091   2.830  0.2045 -0.2802  1.4103
   40CHL1    C2 2933   4.448   4.237   2.675  0.4876  0.1632 -0.0016
   40CHL1   H2A 2934   4.544   4.187   2.650  2.1512  2.3738  1.5875
   40CHL1   H2B 2935   4.477   4.344   2.669 -0.2724  0.3799  0.0845
   40CHL1   C20 2936   4.161   4.209   3.591 -0.0229 -0.5164  0.0750
   40CHL1   H20 2937   4.175   4.318   3.609  0.6868 -0.6551  0.4001
   40CHL1   C21 2938   4.301   4.158   3.619 -0.0777  0.1718  0.1572
   40CHL1  H21A 2939   4.378   4.188   3.544 -1.5135  0.0689 -1.4133
   40CHL1  H21B 2940   4.302   4.047   3.627  1.2920 -0.3189 -4.3189
   40CHL1  H21C 2941   4.334   4.199   3.717  1.0626  1.1621 -0.6131
   40CHL1   C22 2942   4.065   4.163   3.703 -0.4846  0.1230  0.0143
   40CHL1  H22A 2943   4.091   4.202   3.804  0.1655 -0.4208  0.0653
   40CHL1  H22B 2944   3.970   4.220   3.693 -0.7703 -0.3603 -0.0393
   40CHL1   C23 2945   4.030   4.014   3.699  0.1985 -0.4249 -0.0223
   40CHL1  H23A 2946   3.979   3.983   3.606 -2.8045  2.5582  0.4471
   40CHL1  H23B 2947   4.117   3.945   3.705  0.7052 -0.0882 -2.5227
   40CHL1   C24 2948   3.930   3.992   3.808  0.4983 -0.3877 -0.1730
   40CHL1  H24A 2949   3.969   4.036   3.902 -2.4016  3.0715 -0.3852
   40CHL1  H24B 2950   3.835   4.041   3.780  2.4698  1.9921 -3.3310
   40CHL1   C25 2951   3.900   3.843   3.828  0.2136 -0.3839 -0.5015
   40CHL1   H25 2952   3.996   3.789   3.844  1.5501  2.0753  0.2038
   40CHL1   C26 2953   3.816   3.827   3.955  0.2509 -0.5262  0.4633
   40CHL1  H26A 2954   3.812   3.719   3.981 -0.4027 -0.5771  0.1709
   40CHL1  H26B 2955   3.869   3.886   4.033 -1.0280  2.0253 -0.4784
   40CHL1  H26C 2956   3.717   3.877   3.947  0.6974  0.5787  1.3935
   40CHL1   C27 2957   3.826   3.786   3.701  0.3720 -0.6339  0.2517
   40CHL1  H27A 2958   3.888   3.802   3.610  1.8459 -1.4946  1.0688
   40CHL1  H27B 2959   3.796   3.680   3.707  0.0247 -0.6997 -1.7759
   40CHL1  H27C 2960   3.731   3.843   3.686 -0.4564 -1.3140  2.4762
   41CHL1    C3 2961   0.421   2.049   2.803 -0.2774 -0.4215 -0.6712
   41CHL1    H3 2962   0.510   2.057   2.737  0.5550 -2.1609  0.1806
   41CHL1    O3 2963   0.306   2.050   2.720 -0.6783 -0.1797  0.5641
   41CHL1   H3' 2964   0.226   2.046   2.772 -1.6714 -2.8848 -0.9790
   41CHL1    C4 2965   0.414   1.915   2.887 -0.2100  0.3665 -0.2587
   41CHL1   H4A 2966   0.306   1.896   2.904 -0.6649  0.3873 -2.7344
   41CHL1   H4B 2967   0.425   1.827   2.820  0.0802 -0.2677  0.6001
   41CHL1    C5 2968   0.482   1.907   3.019 -0.0289 -0.3511  0.2867
   41CHL1    C6 2969   0.557   1.809   3.054 -0.2058  0.5242  0.7580
   41CHL1    H6 2970   0.574   1.724   2.985 -1.3882  0.7393  0.1859
   41CHL1    C7 2971   0.620   1.790   3.189  0.5369  0.8643 -0.2756
   41CHL1   H7A 2972   0.600   1.687   3.227  0.8015  0.4422 -1.2491
   41CHL1   H7B 2973   0.730   1.790   3.180  0.7231 -0.2254  1.4868
   41CHL1    C8 2974   0.568   1.895   3.295 -0.5405 -0.0302  0.4486
   41CHL1    H8 2975   0.467   1.861   3.327  0.0018  0.7746  3.3468
   41CHL1   C14 2976   0.658   1.892   3.419 -0.1150  0.1139  0.1920
   41CHL1   H14 2977   0.759   1.907   3.376  0.2336 -2.7176 -0.1522
   41CHL1   C15 2978   0.672   1.757   3.481  0.2860  0.0618 -0.2664
   41CHL1  H15A 2979   0.571   1.712   3.490  0.7748 -1.1709 -0.7779
   41CHL1  H15B 2980   0.744   1.686   3.436 -1.6123 -0.7953 -2.1238
   41CHL1   C16 2981   0.722   1.784   3.625 -0.3602 -0.6309 -0.1010
   41CHL1  H16A 2982   0.657   1.754   3.710 -0.0418  0.8565  0.6944
   41CHL1  H16B 2983   0.823   1.739   3.635  0.2331  0.7555  0.2705
   41CHL1   C17 2984   0.726   1.944   3.633  0.8876 -0.4769 -0.4407
   41CHL1   H17 2985   0.825   1.964   3.587  1.4543 -1.7192  0.1950
   41CHL1   C13 2986   0.626   1.991   3.523 -0.0334 -0.5961  0.5707
   41CHL1   C18 2987   0.483   1.972   3.573  0.3264 -0.1264  0.1376
   41CHL1  H18A 2988   0.441   2.053   3.636  0.9824  2.2118 -2.2069
   41CHL1  H18B 2989   0.400   1.953   3.501 -1.1206 -0.6031  1.8443
   41CHL1  H18C 2990   0.492   1.873   3.621  1.9443 -0.5149 -0.9016
   41CHL1   C12 2991   0.650   2.125   3.457 -0.5617 -1.0129 -0.0645
   41CHL1  H12A 2992   0.624   2.211   3.522 -0.7545 -0.4298 -0.8847
   41CHL1  H12B 2993   0.751   2.131   3.411 -0.8159  2.2316 -0.4641
   41CHL1   C11 2994   0.561   2.142   3.335  0.3694 -0.0177 -0.0599
   41CHL1  H11A 2995   0.454   2.134   3.363 -0.1432  0.9075 -1.5911
   41CHL1  H11B 2996   0.584   2.244   3.297  3.0243  0.1885  1.8118
   41CHL1    C9 2997   0.571   2.027   3.230  0.0309  0.3773 -0.2359
   41CHL1    H9 2998   0.673   2.036   3.187  0.6502  0.5933  1.2184
   41CHL1   C10 2999   0.472   2.038   3.105 -0.5631 -0.1059 -0.2547
   41CHL1   C19 3000   0.329   2.052   3.162  0.6049  0.3624  0.0176
   41CHL1  H19A 3001   0.256   2.021   3.084 -0.1526 -0.9978  1.2137
   41CHL1  H19B 3002   0.300   1.997   3.254  0.9151  1.3065  0.6949
   41CHL1  H19C 3003   0.300   2.159   3.172 -1.5682  0.0058 -1.7001
   41CHL1    C1 3004   0.508   2.158   3.019 -0.8559  0.3628  0.4206
   41CHL1   H1A 3005   0.525   2.248   3.082 -0.9836  0.7791 -0.1262
   41CHL1   H1B 3006   0.610   2.142   2.979 -1.2988 -0.0638 -0.5873
   41CHL1    C2 3007   0.414   2.176   2.896 -0.2421 -0.5064 -0.4332
   41CHL1   H2A 3008   0.440   2.267   2.839 -0.8408 -0.7896 -1.1692
   41CHL1   H2B 3009   0.313   2.195   2.938  1.2623  1.6756  2.6381
   41CHL1   C20 3010   0.703   2.001   3.776  0.4891  0.8991 -0.2355
   41CHL1   H20 3011   0.596   1.986   3.799  0.3736 -1.4437 -1.9282
   41CHL1   C21 3012   0.714   2.152   3.774 -0.1618 -0.2921 -0.2055
   41CHL1  H21A 3013   0.793   2.181   3.702 -0.5735 -0.4482 -0.7301
   41CHL1  H21B 3014   0.746   2.186   3.875  0.9293  2.1709 -1.3029
   41CHL1  H21C 3015   0.618   2.202   3.748 -0.2415  0.8898  2.0695
   41CHL1   C22 3016   0.781   1.938   3.889 -0.2575 -0.0896  0.2647
   41CHL1  H22A 3017   0.793   1.827   3.885 -0.6772 -0.2765  2.6839
   41CHL1  H22B 3018   0.886   1.973   3.883  0.2300 -1.6674 -1.6328
   41CHL1   C23 3019   0.712   1.952   4.027  0.6541 -0.7049 -0.0703
   41CHL1  H23A 3020   0.700   2.058   4.058 -2.5744 -1.3914  1.5180
   41CHL1  H23B 3021   0.609   1.911   4.024  0.6865 -0.7243 -1.0818
   41CHL1   C24 3022   0.797   1.887   4.135  0.4082  0.0053 -0.3184
   41CHL1  H24A 3023   0.858   1.799   4.107 -1.8145 -2.1645  1.2459
   41CHL1  H24B 3024   0.880   1.959   4.151  1.8944 -1.5271 -0.8327
   41CHL1   C25 3025   0.727   1.851   4.271  0.2572 -0.1082  0.0027
   41CHL1   H25 3026   0.656   1.770   4.245  0.9648 -1.1726  1.2512
   41CHL1   C26 3027   0.822   1.782   4.365 -0.2485  0.4178 -0.6773
   41CHL1  H26A 3028   0.894   1.709   4.322  2.2736  0.8420  2.5093
   41CHL1  H26B 3029   0.890   1.856   4.411 -0.5164  0.9662 -1.1364
   41CHL1  H26C 3030   0.758   1.725   4.436  0.1608  0.8198  0.0242
   41CHL1   C27 3031   0.644   1.968   4.336  0.0034  0.3256  0.0790
   41CHL1  H27A 3032   0.595   1.927   4.427 -2.5332  0.1298 -1.2846
   41CHL1  H27B 3033   0.706   2.053   4.371  0.8449  0.2531 -1.1853
   41CHL1  H27C 3034   0.569   2.008   4.264 -0.2429  3.1273  1.7668
   42CHL1    C3 3035   5.627   5.519   3.148  0.1473 -0.2079  0.4204
   42CHL1    H3 3036   5.576   5.617   3.147  0.1070 -0.2322  0.2032
   42CHL1    O3 3037   5.619   5.465   3.021 -0.3409 -0.0461  0.7058
   42CHL1   H3' 3038   5.634   5.372   3.035  0.2467 -0.0266  0.2677
   42CHL1    C4 3039   5.773   5.525   3.182  0.3848  0.5739  0.3055
   42CHL1   H4A 3040   5.826   5.430   3.157  1.1742  0.8703  0.8160
   42CHL1   H4B 3041   5.830   5.592   3.114 -0.2990  0.2474 -0.6073
   42CHL1    C5 3042   5.805   5.568   3.328 -0.1110  0.3739  0.8352
   42CHL1    C6 3043   5.882   5.674   3.350  0.1225 -0.3122 -0.4557
   42CHL1    H6 3044   5.919   5.730   3.263 -2.4521  3.4042  0.5986
   42CHL1    C7 3045   5.901   5.729   3.493 -0.4399  0.3710  0.0745
   42CHL1   H7A 3046   6.011   5.740   3.505 -0.3137 -0.0507 -0.6309
   42CHL1   H7B 3047   5.842   5.823   3.492 -3.7407 -1.3551  3.9232
   42CHL1    C8 3048   5.851   5.637   3.604 -0.2323  0.0528 -0.3028
   42CHL1    H8 3049   5.936   5.566   3.595 -0.9954 -0.7169 -1.9821
   42CHL1   C14 3050   5.844   5.712   3.729 -0.8597 -0.0071 -0.0492
   42CHL1   H14 3051   5.767   5.788   3.706  0.1822  0.7373 -1.1476
   42CHL1   C15 3052   5.973   5.798   3.764  0.1632 -0.1421  0.1215
   42CHL1  H15A 3053   6.058   5.729   3.746 -1.8147 -2.7462  0.0624
   42CHL1  H15B 3054   5.968   5.885   3.696 -1.2648  0.4792  0.9618
   42CHL1   C16 3055   5.940   5.827   3.914  0.0676 -0.5180 -0.1091
   42CHL1  H16A 3056   6.026   5.824   3.984 -1.8495  1.0220  2.4791
   42CHL1  H16B 3057   5.891   5.926   3.924  1.5504  0.2025  0.2486
   42CHL1   C17 3058   5.818   5.729   3.960 -0.3444  0.4541 -0.1491
   42CHL1   H17 3059   5.723   5.787   3.954 -0.9516 -0.3831  0.7996
   42CHL1   C13 3060   5.807   5.627   3.854 -0.6010 -0.1443 -0.6030
   42CHL1   C18 3061   5.922   5.516   3.873 -0.3783 -0.3684 -0.1419
   42CHL1  H18A 3062   5.933   5.448   3.786 -2.6935 -0.8595 -0.1050
   42CHL1  H18B 3063   6.020   5.569   3.876 -0.5169  0.0557 -1.7895
   42CHL1  H18C 3064   5.896   5.461   3.965 -3.3396  0.0072 -0.6425
   42CHL1   C12 3065   5.676   5.556   3.838 -0.4900  0.1979 -0.0558
   42CHL1  H12A 3066   5.664   5.483   3.921 -1.0189  1.5704  1.1299
   42CHL1  H12B 3067   5.590   5.627   3.836 -1.0943 -0.5450 -1.5239
   42CHL1   C11 3068   5.674   5.470   3.702  0.3343 -0.2572  0.8049
   42CHL1  H11A 3069   5.740   5.381   3.710  2.4834  1.2048  0.1428
   42CHL1  H11B 3070   5.571   5.433   3.683 -0.4301  0.4817  3.0927
   42CHL1    C9 3071   5.722   5.555   3.573 -0.1770  0.0459  0.1519
   42CHL1    H9 3072   5.650   5.638   3.562  1.8209  1.5980 -2.8026
   42CHL1   C10 3073   5.719   5.487   3.433  0.0003  0.4619  0.5263
   42CHL1   C19 3074   5.796   5.356   3.452 -0.4860 -0.1817  0.0745
   42CHL1  H19A 3075   5.811   5.303   3.356 -1.1769 -1.1311  0.4758
   42CHL1  H19B 3076   5.892   5.370   3.506 -0.5651  0.9150 -0.0503
   42CHL1  H19C 3077   5.734   5.286   3.513 -1.0233  1.2365  1.2214
   42CHL1    C1 3078   5.572   5.462   3.385  0.2941 -0.0956  0.4949
   42CHL1   H1A 3079   5.535   5.378   3.448  1.5678 -0.6725  0.5187
   42CHL1   H1B 3080   5.514   5.556   3.394 -0.0610 -0.1546 -0.8437
   42CHL1    C2 3081   5.566   5.415   3.240  0.3408  0.5307  0.5881
   42CHL1   H2A 3082   5.458   5.407   3.213  0.4535 -1.1649  0.4923
   42CHL1   H2B 3083   5.626   5.321   3.232  1.3823  1.0667  1.8378
   42CHL1   C20 3084   5.830   5.680   4.108 -0.3499 -0.4649  0.3013
   42CHL1   H20 3085   5.922   5.618   4.110  0.6212  0.9462  1.5149
   42CHL1   C21 3086   5.713   5.592   4.152 -0.6631 -0.5577 -0.0676
   42CHL1  H21A 3087   5.723   5.489   4.110  0.3388 -0.6194  0.2925
   42CHL1  H21B 3088   5.618   5.640   4.119 -0.4079  0.7794  1.0692
   42CHL1  H21C 3089   5.711   5.584   4.263  1.9254 -0.8030  0.0071
   42CHL1   C22 3090   5.855   5.791   4.209  0.1436 -0.1274  0.9345
   42CHL1  H22A 3091   5.863   5.746   4.310  0.0559 -0.4978  0.7779
   42CHL1  H22B 3092   5.952   5.840   4.189 -0.2638 -0.1523 -1.4016
   42CHL1   C23 3093   5.751   5.906   4.215 -0.1010 -0.4645 -0.3851
   42CHL1  H23A 3094   5.729   5.941   4.112 -0.9842 -2.5261 -0.9605
   42CHL1  H23B 3095   5.652   5.872   4.253 -0.7890  0.5293 -1.2434
   42CHL1   C24 3096   5.802   6.022   4.306  0.5390 -0.1138  0.4062
   42CHL1  H24A 3097   5.840   5.991   4.406  0.4742  0.7691  0.7154
   42CHL1  H24B 3098   5.876   6.091   4.260 -1.5301  0.8911 -1.5853
   42CHL1   C25 3099   5.691   6.136   4.332 -0.1926  0.6629  0.6023
   42CHL1   H25 3100   5.734   6.221   4.389 -1.2065  0.9519  0.9652
   42CHL1   C26 3101   5.630   6.198   4.201 -0.0010 -0.0562 -0.7924
   42CHL1  H26A 3102   5.557   6.121   4.168  0.5126 -0.5236 -0.8450
   42CHL1  H26B 3103   5.567   6.287   4.224 -1.0629 -1.1075  0.5854
   42CHL1  H26C 3104   5.709   6.217   4.126  0.5951 -1.2006 -0.4692
   42CHL1   C27 3105   5.570   6.083   4.414  0.0538 -0.1328  0.7934
   42CHL1  H27A 3106   5.509   6.024   4.343  0.1700  1.1125 -0.3915
   42CHL1  H27B 3107   5.597   6.018   4.500 -1.6604 -2.7733 -0.5177
   42CHL1  H27C 3108   5.515   6.172   4.450  0.4407  0.1449  0.7032
   43CHL1    C3 3109   1.998   5.237   5.706 -0.2354 -0.0078  0.5101
   43CHL1    H3 3110   2.086   5.191   5.658  0.0187  1.4064 -0.4353
   43CHL1    O3 3111   1.985   5.180   5.834 -0.1040  0.5092  0.2595
   43CHL1   H3' 3112   1.959   5.089   5.820  0.4136  0.5843 -1.3920
   43CHL1    C4 3113   2.035   5.387   5.701 -0.1940 -0.2758 -0.0125
   43CHL1   H4A 3114   1.954   5.443   5.752  0.6843  1.2956 -0.2923
   43CHL1   H4B 3115   2.126   5.402   5.763 -0.4163  0.4368  0.1551
   43CHL1    C5 3116   2.048   5.418   5.555  0.5606 -0.6803  0.2956
   43CHL1    C6 3117   2.170   5.446   5.502  0.4299  0.4706 -0.1021
   43CHL1    H6 3118   2.260   5.442   5.565 -0.6613 -1.3328  1.4679
   43CHL1    C7 3119   2.189   5.480   5.356 -0.3872  0.0972  0.5543
   43CHL1   H7A 3120   2.255   5.569   5.351 -0.3567 -0.0083 -1.9904
   43CHL1   H7B 3121   2.239   5.396   5.304  2.0261  0.4441  2.1200
   43CHL1    C8 3122   2.059   5.515   5.282 -0.1689 -0.4704 -1.0765
   43CHL1    H8 3123   2.031   5.616   5.318  1.2961 -0.9926  1.8399
   43CHL1   C14 3124   2.073   5.507   5.127  0.0483  0.1219  0.3673
   43CHL1   H14 3125   2.103   5.403   5.104  1.4487  0.5846 -0.0699
   43CHL1   C15 3126   2.185   5.596   5.065 -0.4780 -0.0183 -0.5267
   43CHL1  H15A 3127   2.183   5.694   5.117 -0.5014 -0.4983  0.3962
   43CHL1  H15B 3128   2.282   5.543   5.076 -1.3758 -1.8774 -1.1766
   43CHL1   C16 3129   2.146   5.609   4.919 -0.1174  0.0993 -0.3400
   43CHL1  H16A 3130   2.138   5.718   4.896  0.5962  0.0630 -0.8035
   43CHL1  H16B 3131   2.224   5.567   4.852  1.0338  0.9209  0.4326
   43CHL1   C17 3132   2.009   5.536   4.899  1.2899  0.5270 -0.5725
   43CHL1   H17 3133   2.022   5.433   4.861 -1.1653 -0.2732  0.5965
   43CHL1   C13 3134   1.953   5.537   5.043  0.2452  0.8037  0.9534
   43CHL1   C18 3135   1.894   5.683   5.068 -0.2104 -0.4644  0.2123
   43CHL1  H18A 3136   1.964   5.754   5.020  2.1298 -2.2053  0.8757
   43CHL1  H18B 3137   1.786   5.684   5.040  0.0728 -0.0374 -0.9027
   43CHL1  H18C 3138   1.895   5.714   5.175  0.4140  0.0122  0.0735
   43CHL1   C12 3139   1.849   5.427   5.074 -0.2514 -0.2605  0.5763
   43CHL1  H12A 3140   1.748   5.435   5.027  0.7965  2.3833 -1.4913
   43CHL1  H12B 3141   1.888   5.329   5.042 -0.3764 -0.2843  0.4982
   43CHL1   C11 3142   1.817   5.429   5.226 -0.0541 -0.7464  0.1449
   43CHL1  H11A 3143   1.762   5.522   5.252  1.9880  0.4496  0.4115
   43CHL1  H11B 3144   1.750   5.345   5.253 -1.3862  0.4366  0.6393
   43CHL1    C9 3145   1.943   5.415   5.317 -0.0690 -0.1643 -0.1022
   43CHL1    H9 3146   1.983   5.316   5.287 -2.7599 -0.8260 -1.8076
   43CHL1   C10 3147   1.916   5.399   5.475 -0.8188 -0.2096 -0.0398
   43CHL1   C19 3148   1.813   5.509   5.517 -0.0761  0.1236 -0.9923
   43CHL1  H19A 3149   1.712   5.494   5.472 -0.8091  0.2316  0.5431
   43CHL1  H19B 3150   1.802   5.526   5.626  0.8811 -0.9800 -0.7015
   43CHL1  H19C 3151   1.848   5.607   5.479 -0.8090  0.4748 -0.7852
   43CHL1    C1 3152   1.864   5.255   5.503 -0.0482 -0.4403  0.1062
   43CHL1   H1A 3153   1.760   5.253   5.463  0.8350 -0.0581 -2.3952
   43CHL1   H1B 3154   1.920   5.176   5.449  0.7758 -1.0995  1.8799
   43CHL1    C2 3155   1.857   5.212   5.655  0.3471 -0.5029  0.8058
   43CHL1   H2A 3156   1.813   5.111   5.668 -1.0513  0.1255  1.1545
   43CHL1   H2B 3157   1.794   5.288   5.707  0.8575 -0.2470  1.0602
   43CHL1   C20 3158   1.918   5.602   4.789 -0.0006  0.0740  0.1639
   43CHL1   H20 3159   1.868   5.700   4.809 -0.1176  0.3537 -1.3525
   43CHL1   C21 3160   1.804   5.508   4.752  0.3771  0.5738 -0.3070
   43CHL1  H21A 3161   1.834   5.402   4.743 -1.1859 -0.0302  1.1166
   43CHL1  H21B 3162   1.738   5.539   4.668 -0.5741 -0.7286 -0.0658
   43CHL1  H21C 3163   1.744   5.504   4.845 -0.2644 -1.6378 -0.7790
   43CHL1   C22 3164   2.000   5.629   4.660  0.8303 -0.1651  0.3811
   43CHL1  H22A 3165   2.071   5.713   4.678  1.5894 -0.4503 -1.1641
   43CHL1  H22B 3166   2.071   5.545   4.652  0.4496 -0.6350  1.6278
   43CHL1   C23 3167   1.913   5.666   4.534 -0.0252  0.0428  0.0948
   43CHL1  H23A 3168   1.857   5.573   4.509 -0.2688  0.5192 -1.2040
   43CHL1  H23B 3169   1.834   5.736   4.568 -1.4224 -1.5088  0.1742
   43CHL1   C24 3170   2.001   5.717   4.421 -0.7491  0.1144  0.2169
   43CHL1  H24A 3171   2.084   5.777   4.465  0.2141 -1.1755  0.2352
   43CHL1  H24B 3172   2.048   5.628   4.374  1.0222 -0.0586  2.1888
   43CHL1   C25 3173   1.923   5.790   4.310  0.0679  0.4368 -0.7943
   43CHL1   H25 3174   1.824   5.741   4.299  1.5094 -2.2234 -2.9240
   43CHL1   C26 3175   1.884   5.939   4.343 -0.5724 -0.7381  0.1473
   43CHL1  H26A 3176   1.813   5.978   4.267  0.5654 -2.2343 -1.7686
   43CHL1  H26B 3177   1.852   5.954   4.448  0.6153  1.4186  0.2747
   43CHL1  H26C 3178   1.978   5.996   4.326 -0.3326 -1.0012  0.5843
   43CHL1   C27 3179   1.982   5.779   4.171 -0.5391  0.6393 -0.0962
   43CHL1  H27A 3180   1.950   5.864   4.108  0.6527  0.6643 -0.6995
   43CHL1  H27B 3181   2.091   5.797   4.185 -0.3001 -1.1085  0.6707
   43CHL1  H27C 3182   1.965   5.676   4.133  0.0211  0.6249 -0.3166
   44CHL1    C3 3183   2.757   0.236   2.708 -0.1536 -0.4820 -0.1293
   44CHL1    H3 3184   2.858   0.283   2.709 -1.2177  1.9763 -0.4642
   44CHL1    O3 3185   2.711   0.239   2.574  0.2911 -0.4687 -0.0341
   44CHL1   H3' 3186   2.637   0.177   2.571  0.5888 -0.8834  0.7195
   44CHL1    C4 3187   2.784   0.092   2.754 -0.3475 -0.4482 -0.0409
   44CHL1   H4A 3188   2.703   0.018   2.737 -0.0634 -1.0600  1.1417
   44CHL1   H4B 3189   2.866   0.061   2.686 -1.2227 -0.7203 -0.9932
   44CHL1    C5 3190   2.828   0.089   2.898 -0.6218 -0.8563 -0.0013
   44CHL1    C6 3191   2.948   0.041   2.932 -0.3468 -0.3537 -0.1192
   44CHL1    H6 3192   3.016   0.002   2.854 -0.3101 -1.1435  0.3021
   44CHL1    C7 3193   3.000   0.033   3.068 -0.2839  0.3065 -0.2851
   44CHL1   H7A 3194   3.041  -0.067   3.093  0.0672  0.1706 -1.3359
   44CHL1   H7B 3195   3.077   0.111   3.087  0.0469  0.2415 -1.2684
   44CHL1    C8 3196   2.890   0.065   3.176 -0.3553 -0.3035  0.1759
   44CHL1    H8 3197   2.824  -0.024   3.188 -1.8321  0.9114  1.4794
   44CHL1   C14 3198   2.957   0.094   3.308  0.0694  0.4755 -0.5918
   44CHL1   H14 3199   3.006   0.192   3.289 -1.0694  1.3346  0.7639
   44CHL1   C15 3200   3.077   0.012   3.363  0.4755  0.4643  0.1526
   44CHL1  H15A 3201   3.054  -0.096   3.358 -1.0541  0.7018  1.4453
   44CHL1  H15B 3202   3.176   0.036   3.317  0.4894 -0.4635 -0.3283
   44CHL1   C16 3203   3.074   0.038   3.513  0.1349 -0.4959 -0.2202
   44CHL1  H16A 3204   3.057  -0.056   3.568  3.8074 -0.4864  1.1995
   44CHL1  H16B 3205   3.166   0.081   3.557 -0.6497  0.3637  0.6298
   44CHL1   C17 3206   2.957   0.143   3.542 -0.3544 -0.4801  0.4281
   44CHL1   H17 3207   3.007   0.242   3.539 -0.3853 -0.4371  1.2087
   44CHL1   C13 3208   2.863   0.127   3.425  0.1613 -0.0805  0.1482
   44CHL1   C18 3209   2.787  -0.003   3.441  0.2951  0.1929 -0.0062
   44CHL1  H18A 3210   2.856  -0.086   3.467 -0.1849  0.2365  1.5473
   44CHL1  H18B 3211   2.721   0.004   3.531  2.1027  1.9682  1.2908
   44CHL1  H18C 3212   2.713  -0.033   3.365  0.1033 -1.8631  0.9248
   44CHL1   C12 3213   2.778   0.248   3.388 -0.3541  0.0528  0.7860
   44CHL1  H12A 3214   2.691   0.274   3.452 -0.3358  3.0173 -0.2697
   44CHL1  H12B 3215   2.836   0.341   3.373 -1.1950  0.2805 -1.4294
   44CHL1   C11 3216   2.710   0.223   3.247  0.4358 -0.2596  0.3274
   44CHL1  H11A 3217   2.631   0.145   3.254 -1.3806  0.6652 -5.2312
   44CHL1  H11B 3218   2.645   0.307   3.216 -0.6285 -1.5605 -1.1093
   44CHL1    C9 3219   2.808   0.179   3.129  0.1724 -0.1746  0.1565
   44CHL1    H9 3220   2.872   0.268   3.114 -1.7485  0.9866 -1.5710
   44CHL1   C10 3221   2.732   0.159   3.001  0.1477  0.4194  0.5141
   44CHL1   C19 3222   2.612   0.067   3.029 -0.2899 -0.4820  0.6182
   44CHL1  H19A 3223   2.637   0.004   3.117  0.8063  0.2214  0.8316
   44CHL1  H19B 3224   2.530   0.132   3.065  0.2721 -0.1549  1.3536
   44CHL1  H19C 3225   2.563   0.009   2.948 -1.1550  1.6102 -0.4232
   44CHL1    C1 3226   2.688   0.299   2.942 -0.4916  0.1226  0.4476
   44CHL1   H1A 3227   2.606   0.331   3.009 -0.7538  0.7089 -0.1443
   44CHL1   H1B 3228   2.771   0.371   2.960  0.7285 -1.3096  0.7096
   44CHL1    C2 3229   2.648   0.303   2.795  0.5419 -0.3408 -0.0499
   44CHL1   H2A 3230   2.623   0.402   2.751  2.2125  0.1259 -0.0324
   44CHL1   H2B 3231   2.551   0.250   2.787 -0.4624  0.9657  2.5134
   44CHL1   C20 3232   2.906   0.138   3.682  0.5896  0.5696  0.3425
   44CHL1   H20 3233   2.856   0.039   3.694  1.7533  0.0352  1.0318
   44CHL1   C21 3234   2.795   0.245   3.709 -0.0602  0.1703  0.2071
   44CHL1  H21A 3235   2.708   0.230   3.641  0.7014 -0.5429 -0.6467
   44CHL1  H21B 3236   2.844   0.344   3.701 -1.9452  1.2974  1.7408
   44CHL1  H21C 3237   2.747   0.239   3.808 -1.7926 -0.4450 -0.6255
   44CHL1   C22 3238   3.013   0.143   3.797 -0.0566  0.6751 -0.3170
   44CHL1  H22A 3239   3.112   0.099   3.773  0.2373  0.7682  0.6801
   44CHL1  H22B 3240   3.034   0.248   3.829  1.1796  1.2691 -2.8583
   44CHL1   C23 3241   2.970   0.090   3.938 -0.1171  0.6307  1.0548
   44CHL1  H23A 3242   2.906   0.165   3.989  0.0962  2.3170 -1.0170
   44CHL1  H23B 3243   2.914  -0.006   3.935 -0.3388  0.7744  0.4025
   44CHL1   C24 3244   3.090   0.078   4.030 -0.3167 -0.0479 -0.4009
   44CHL1  H24A 3245   3.174   0.022   3.983  1.7169 -0.8524  3.6938
   44CHL1  H24B 3246   3.122   0.182   4.053 -1.5676  0.1988  0.2912
   44CHL1   C25 3247   3.049   0.008   4.165 -0.6636  0.0890 -0.3375
   44CHL1   H25 3248   3.147  -0.024   4.207  0.5537 -0.3845 -3.3101
   44CHL1   C26 3249   2.985   0.096   4.272  0.4951 -0.5404  0.5112
   44CHL1  H26A 3250   2.967   0.025   4.355 -0.1206 -1.4973 -0.4090
   44CHL1  H26B 3251   3.049   0.176   4.314  0.8026 -0.3438 -0.3222
   44CHL1  H26C 3252   2.887   0.143   4.248  0.7731  0.7282  1.7334
   44CHL1   C27 3253   2.971  -0.122   4.150 -0.6015 -0.3090 -0.2770
   44CHL1  H27A 3254   2.872  -0.111   4.100 -0.4362  0.5193 -0.4382
   44CHL1  H27B 3255   3.036  -0.187   4.089  2.9389  1.1195  1.6950
   44CHL1  H27C 3256   2.946  -0.170   4.247 -0.7448 -0.0668 -0.1915
   45CHL1    C3 3257   5.838   2.056   3.040 -0.1669 -0.5939  0.0998
   45CHL1    H3 3258   5.874   2.147   3.093 -0.2070 -1.4716  1.6974
   45CHL1    O3 3259   5.819   2.081   2.903  0.1614 -0.0466 -0.2950
   45CHL1   H3' 3260   5.823   1.993   2.863  2.3232  0.9474 -2.5633
   45CHL1    C4 3261   5.942   1.939   3.044  0.2984 -0.4103  0.2353
   45CHL1   H4A 3262   5.900   1.853   2.988 -0.6418 -0.0632  0.3863
   45CHL1   H4B 3263   6.034   1.968   2.990 -0.6321 -0.8405 -1.6555
   45CHL1    C5 3264   5.968   1.903   3.186 -0.8182  0.2767  0.6416
   45CHL1    C6 3265   6.092   1.918   3.238 -0.1392  0.5215 -0.0101
   45CHL1    H6 3266   6.179   1.949   3.178  0.7910  1.1959  1.6295
   45CHL1    C7 3267   6.128   1.862   3.372  0.1337  0.7095 -0.1732
   45CHL1   H7A 3268   6.228   1.814   3.367  0.6627  1.8853 -1.3249
   45CHL1   H7B 3269   6.134   1.958   3.428 -3.2667  0.0599  1.5493
   45CHL1    C8 3270   6.020   1.771   3.433  0.1916  0.8984  0.1512
   45CHL1    H8 3271   6.036   1.673   3.382 -0.9352  0.2599  0.9859
   45CHL1   C14 3272   6.051   1.742   3.580  0.3871 -0.3702  0.7140
   45CHL1   H14 3273   6.051   1.841   3.630  0.8727 -0.7221  1.4383
   45CHL1   C15 3274   6.187   1.670   3.607 -0.2461 -1.0456 -0.4511
   45CHL1  H15A 3275   6.194   1.581   3.542 -1.2513 -3.6890  2.7769
   45CHL1  H15B 3276   6.269   1.738   3.577  0.6909 -2.3199 -0.8316
   45CHL1   C16 3277   6.177   1.626   3.750 -0.1217  1.2604  0.1969
   45CHL1  H16A 3278   6.212   1.522   3.769 -2.3641  0.2533 -0.8523
   45CHL1  H16B 3279   6.227   1.679   3.834 -0.3840  0.3137  0.9691
   45CHL1   C17 3280   6.024   1.643   3.779 -0.1931  0.0031 -0.2765
   45CHL1   H17 3281   6.015   1.738   3.836  0.2594 -0.1260  0.0130
   45CHL1   C13 3282   5.946   1.664   3.651  0.3010 -0.5275  0.4301
   45CHL1   C18 3283   5.936   1.530   3.579 -0.5699  0.0139 -0.2117
   45CHL1  H18A 3284   5.853   1.473   3.625 -1.1424  1.5865  0.7916
   45CHL1  H18B 3285   5.920   1.539   3.469 -0.8101 -1.5801 -0.3244
   45CHL1  H18C 3286   6.026   1.468   3.595 -0.4377 -0.2038 -1.6779
   45CHL1   C12 3287   5.814   1.737   3.650 -0.0373 -0.0510  0.1735
   45CHL1  H12A 3288   5.736   1.676   3.700  0.0787 -1.1516 -0.9231
   45CHL1  H12B 3289   5.804   1.831   3.707  1.5201  0.8658 -0.9923
   45CHL1   C11 3290   5.769   1.771   3.507 -0.1090 -0.3525 -0.2136
   45CHL1  H11A 3291   5.728   1.680   3.458 -1.1130 -0.0794  0.1047
   45CHL1  H11B 3292   5.682   1.839   3.511  0.4496  0.3538  0.3335
   45CHL1    C9 3293   5.878   1.830   3.419 -0.3390 -0.2855 -0.2514
   45CHL1    H9 3294   5.888   1.931   3.464 -2.0574  0.3330 -1.1585
   45CHL1   C10 3295   5.847   1.846   3.265 -0.3771  0.7724 -0.4382
   45CHL1   C19 3296   5.796   1.707   3.215  0.1290 -0.5367  0.5444
   45CHL1  H19A 3297   5.862   1.624   3.248  0.1673 -0.9689 -0.5658
   45CHL1  H19B 3298   5.694   1.688   3.254 -0.0914 -0.9953 -0.2251
   45CHL1  H19C 3299   5.793   1.690   3.105 -0.4436 -4.2253  1.0001
   45CHL1    C1 3300   5.742   1.954   3.252 -0.3245 -0.1407  0.1682
   45CHL1   H1A 3301   5.646   1.918   3.297 -0.2751  0.1741  0.5310
   45CHL1   H1B 3302   5.787   2.036   3.312  0.5784 -1.2560  1.0605
   45CHL1    C2 3303   5.712   2.000   3.109 -0.0279  0.1825  0.2083
   45CHL1   H2A 3304   5.631   2.077   3.103 -1.0170 -0.8356  0.2266
   45CHL1   H2B 3305   5.667   1.913   3.056 -1.5535 -0.4284  2.3583
   45CHL1   C20 3306   5.978   1.535   3.885 -0.1449  0.2466 -0.2955
   45CHL1   H20 3307   5.996   1.439   3.832  0.3204 -0.1398  0.5398
   45CHL1   C21 3308   5.828   1.561   3.918  0.0355  0.5273  0.1609
   45CHL1  H21A 3309   5.797   1.510   4.011 -0.6103 -0.3689 -0.5274
   45CHL1  H21B 3310   5.769   1.523   3.832  2.6534  1.1389 -2.0460
   45CHL1  H21C 3311   5.814   1.671   3.927 -3.4198  0.2971 -0.8976
   45CHL1   C22 3312   6.065   1.535   4.012 -0.0122  0.3816 -0.1958
   45CHL1  H22A 3313   6.174   1.542   3.993 -0.2097 -1.0370 -2.2491
   45CHL1  H22B 3314   6.028   1.610   4.084 -3.1640 -1.6968  0.5553
   45CHL1   C23 3315   6.044   1.392   4.085 -0.7576 -0.6906  0.9901
   45CHL1  H23A 3316   5.934   1.383   4.091 -0.9524 -0.1768 -0.9262
   45CHL1  H23B 3317   6.077   1.313   4.013 -2.4351 -1.6423  1.2241
   45CHL1   C24 3318   6.131   1.363   4.211  0.6262 -0.0347 -0.4997
   45CHL1  H24A 3319   6.131   1.254   4.233  1.5330  0.5861  3.3643
   45CHL1  H24B 3320   6.236   1.391   4.188  0.3940  1.3961  0.0722
   45CHL1   C25 3321   6.078   1.440   4.338 -0.3691  0.3437 -0.5408
   45CHL1   H25 3322   6.045   1.537   4.294  0.0872  0.8658  0.2312
   45CHL1   C26 3323   5.958   1.367   4.404 -0.1301  0.6132  0.0851
   45CHL1  H26A 3324   5.976   1.258   4.416 -0.0006  0.5813 -0.3724
   45CHL1  H26B 3325   5.926   1.402   4.505 -0.7220 -2.5614  1.1040
   45CHL1  H26C 3326   5.870   1.369   4.336 -0.2943  0.5772  0.2956
   45CHL1   C27 3327   6.199   1.463   4.431 -0.2787 -0.3028 -0.1108
   45CHL1  H27A 3328   6.284   1.523   4.390  0.6332 -1.7775 -0.4653
   45CHL1  H27B 3329   6.156   1.517   4.518  1.0768  0.5112  0.0889
   45CHL1  H27C 3330   6.240   1.366   4.465 -0.2659 -0.0628  0.5673
   46CHL1    C3 3331   2.091   1.010   2.557  0.0957  0.8437 -0.3919
   46CHL1    H3 3332   2.192   0.963   2.554 -0.4552 -0.6740  1.8876
   46CHL1    O3 3333   2.076   1.089   2.439  0.5320  0.1496  0.0179
   46CHL1   H3' 3334   2.008   1.155   2.453  0.2216 -0.2290  0.3052
   46CHL1    C4 3335   1.991   0.898   2.563  0.0585  0.3595  0.3137
   46CHL1   H4A 3336   1.889   0.942   2.570  0.3307  0.8380  1.4739
   46CHL1   H4B 3337   2.002   0.842   2.467  1.2631  0.0614  0.6078
   46CHL1    C5 3338   2.015   0.802   2.674  0.3075 -0.0748  0.3380
   46CHL1    C6 3339   2.031   0.666   2.656  0.4342  0.5095 -0.0884
   46CHL1    H6 3340   2.003   0.620   2.561  1.7397  2.3967 -1.4654
   46CHL1    C7 3341   2.075   0.574   2.764  0.1067 -0.6129  0.9911
   46CHL1   H7A 3342   2.023   0.476   2.754 -0.0391 -0.3673 -1.1561
   46CHL1   H7B 3343   2.181   0.553   2.741  0.4283 -0.1746  2.0026
   46CHL1    C8 3344   2.050   0.625   2.902  0.3929 -0.1273 -0.1940
   46CHL1    H8 3345   1.943   0.611   2.925  0.0563 -2.1749 -2.6321
   46CHL1   C14 3346   2.130   0.546   3.004 -0.0429  0.3626 -0.7878
   46CHL1   H14 3347   2.236   0.566   2.978  0.4309 -0.6809  0.2319
   46CHL1   C15 3348   2.123   0.396   2.998  0.2727 -0.0578  0.5118
   46CHL1  H15A 3349   2.014   0.375   3.003 -0.1568  1.9218  0.2087
   46CHL1  H15B 3350   2.164   0.344   2.909  1.1022  1.8695 -0.2694
   46CHL1   C16 3351   2.203   0.346   3.123 -0.1054 -0.3816  0.3526
   46CHL1  H16A 3352   2.140   0.271   3.176 -1.4704  1.1324  0.9927
   46CHL1  H16B 3353   2.300   0.300   3.097 -0.0960  0.3328 -0.9803
   46CHL1   C17 3354   2.223   0.480   3.215 -0.3004  0.4138 -0.8106
   46CHL1   H17 3355   2.322   0.519   3.182  0.2659  0.8835  1.3236
   46CHL1   C13 3356   2.121   0.582   3.155  0.1809 -0.3776 -0.7478
   46CHL1   C18 3357   1.973   0.560   3.209  0.0589  0.5774  0.0703
   46CHL1  H18A 3358   1.961   0.611   3.307  2.1824 -0.1525  0.7622
   46CHL1  H18B 3359   1.906   0.608   3.134  1.1963  1.4769 -0.4122
   46CHL1  H18C 3360   1.950   0.452   3.205  0.4912  0.3659  2.2160
   46CHL1   C12 3361   2.166   0.731   3.165 -0.2899  0.1635  0.9821
   46CHL1  H12A 3362   2.166   0.772   3.269 -0.3685  1.4756  0.4914
   46CHL1  H12B 3363   2.270   0.734   3.127 -0.6181 -0.8782 -0.0302
   46CHL1   C11 3364   2.088   0.825   3.068 -0.0192  0.7082 -0.0293
   46CHL1  H11A 3365   1.987   0.827   3.114  0.5331 -0.8138  1.3983
   46CHL1  H11B 3366   2.118   0.931   3.062 -0.7742  1.0175  1.3323
   46CHL1    C9 3367   2.085   0.773   2.921 -0.1399 -0.9115 -0.3657
   46CHL1    H9 3368   2.193   0.774   2.893  0.8297 -2.3268  2.8308
   46CHL1   C10 3369   2.026   0.868   2.814  0.4600 -0.2163  0.3074
   46CHL1   C19 3370   1.871   0.894   2.860  0.0363  0.5911  0.4568
   46CHL1  H19A 3371   1.821   0.799   2.890  1.0853  0.2771  1.3043
   46CHL1  H19B 3372   1.872   0.972   2.939  0.8805  3.7710 -2.4636
   46CHL1  H19C 3373   1.805   0.942   2.785 -1.7772 -0.9319  0.9969
   46CHL1    C1 3374   2.104   0.997   2.804  0.2753 -0.1390 -0.3954
   46CHL1   H1A 3375   2.077   1.050   2.897  4.0866 -0.9997  1.3880
   46CHL1   H1B 3376   2.213   0.977   2.814  0.2405  0.6605  2.4895
   46CHL1    C2 3377   2.084   1.094   2.690  0.3274 -0.0970  0.2061
   46CHL1   H2A 3378   2.171   1.163   2.698  0.4647 -0.2628  0.1561
   46CHL1   H2B 3379   1.985   1.141   2.704  0.6890  0.2658  1.7205
   46CHL1   C20 3380   2.248   0.465   3.367 -0.5369 -0.2465  0.3422
   46CHL1   H20 3381   2.262   0.565   3.413  0.4866  0.2957 -1.0947
   46CHL1   C21 3382   2.382   0.385   3.372 -0.7991 -0.2968 -0.5568
   46CHL1  H21A 3383   2.420   0.369   3.476  0.3925 -1.1132 -1.0862
   46CHL1  H21B 3384   2.457   0.435   3.307 -1.7080  2.1908  0.1920
   46CHL1  H21C 3385   2.363   0.285   3.329 -3.0122 -1.0896  1.9770
   46CHL1   C22 3386   2.138   0.386   3.446  0.2747  0.1999  0.1553
   46CHL1  H22A 3387   2.042   0.442   3.442  0.5141  0.5734 -0.4100
   46CHL1  H22B 3388   2.134   0.285   3.400  2.5728  0.4284 -0.6588
   46CHL1   C23 3389   2.176   0.359   3.597 -0.5151 -0.6202 -1.4054
   46CHL1  H23A 3390   2.269   0.300   3.609  0.3066  1.0364  1.3360
   46CHL1  H23B 3391   2.215   0.451   3.646  0.3890 -0.6671 -2.0191
   46CHL1   C24 3392   2.063   0.307   3.690  0.1090  0.6839  0.6300
   46CHL1  H24A 3393   1.971   0.364   3.665 -0.0979  0.5426  1.0500
   46CHL1  H24B 3394   2.054   0.198   3.671 -0.7788  0.9765 -0.7572
   46CHL1   C25 3395   2.100   0.322   3.845 -0.4134 -0.1695 -0.5007
   46CHL1   H25 3396   2.211   0.329   3.837 -0.5555 -0.1471 -4.8386
   46CHL1   C26 3397   2.048   0.459   3.895 -0.2445  0.5510 -0.1420
   46CHL1  H26A 3398   2.064   0.463   4.005  1.0752 -0.2688 -0.2800
   46CHL1  H26B 3399   2.101   0.547   3.851 -0.8354  1.2588  0.5199
   46CHL1  H26C 3400   1.939   0.471   3.882 -0.2610  0.6159  0.0507
   46CHL1   C27 3401   2.063   0.199   3.933 -0.3611  0.2778 -0.7356
   46CHL1  H27A 3402   2.092   0.109   3.874  0.0183 -0.4902  0.5957
   46CHL1  H27B 3403   2.108   0.199   4.034 -0.0179  0.8894 -0.8833
   46CHL1  H27C 3404   1.952   0.193   3.943 -0.2418 -2.5186 -0.2213
   47CHL1    C3 3405   0.053   2.917   3.481 -0.0724  0.8930 -0.4950
   47CHL1    H3 3406  -0.057   2.929   3.478 -0.3817 -0.7743  1.7110
   47CHL1    O3 3407   0.094   2.877   3.350 -0.5225 -0.0233 -0.1332
   47CHL1   H3' 3408   0.184   2.907   3.339  0.4108 -1.9514  1.4804
   47CHL1    C4 3409   0.118   3.052   3.521  0.3806 -1.1099 -0.9512
   47CHL1   H4A 3410   0.225   3.028   3.504  0.2150 -1.8835 -0.9788
   47CHL1   H4B 3411   0.086   3.135   3.455 -0.8289  0.8756  1.9357
   47CHL1    C5 3412   0.086   3.090   3.666  0.4595  0.5492  0.7130
   47CHL1    C6 3413   0.020   3.200   3.697 -0.0940  0.2264  0.1156
   47CHL1    H6 3414  -0.014   3.276   3.625 -2.3542 -0.8075  0.0039
   47CHL1    C7 3415  -0.017   3.238   3.835 -0.2955  0.0854 -0.6602
   47CHL1   H7A 3416  -0.009   3.349   3.834  0.4459  0.0361 -0.9251
   47CHL1   H7B 3417  -0.127   3.221   3.845 -0.2365 -0.0708 -0.2861
   47CHL1    C8 3418   0.064   3.168   3.943 -0.1036  0.5595 -0.0872
   47CHL1    H8 3419   0.166   3.212   3.945  0.4022 -0.4123  3.7389
   47CHL1   C14 3420  -0.009   3.186   4.073  0.4185  1.3278 -0.2433
   47CHL1   H14 3421  -0.109   3.138   4.067  1.0722 -0.1644  0.3081
   47CHL1   C15 3422  -0.043   3.332   4.110  0.1424  0.2199 -0.1568
   47CHL1  H15A 3423   0.035   3.409   4.091 -0.2662  0.7300  0.2123
   47CHL1  H15B 3424  -0.133   3.357   4.049  1.3514  0.0256 -2.1002
   47CHL1   C16 3425  -0.076   3.317   4.260 -0.0474  0.3747  0.0916
   47CHL1  H16A 3426  -0.015   3.385   4.322  0.1034 -2.0449  2.7873
   47CHL1  H16B 3427  -0.186   3.331   4.269 -0.1941  0.5423 -1.6342
   47CHL1   C17 3428  -0.028   3.173   4.309 -0.5758 -0.0184 -0.7232
   47CHL1   H17 3429  -0.125   3.122   4.294 -0.0383 -0.5993 -2.6251
   47CHL1   C13 3430   0.058   3.123   4.193  0.2660  0.5390 -0.2039
   47CHL1   C18 3431   0.207   3.172   4.207 -0.2292  0.0283 -0.3915
   47CHL1  H18A 3432   0.256   3.114   4.288  2.8413  2.3380 -0.4136
   47CHL1  H18B 3433   0.269   3.161   4.115  1.0016 -0.6717  0.4946
   47CHL1  H18C 3434   0.203   3.280   4.231 -2.5568  0.2555 -1.4907
   47CHL1   C12 3435   0.057   2.970   4.162 -0.5493 -0.0736  0.6704
   47CHL1  H12A 3436   0.107   2.915   4.244 -0.4148  1.0996  1.3860
   47CHL1  H12B 3437  -0.051   2.946   4.154  0.1371 -4.3468  2.0517
   47CHL1   C11 3438   0.130   2.935   4.031  0.5087  0.4554 -0.2475
   47CHL1  H11A 3439   0.237   2.964   4.044  0.3940  0.9732 -0.4181
   47CHL1  H11B 3440   0.120   2.829   4.001 -1.3179  0.5346 -0.0617
   47CHL1    C9 3441   0.074   3.019   3.910  0.1508  0.0762 -0.3623
   47CHL1    H9 3442  -0.031   2.984   3.913 -0.8974  3.0344  0.1816
   47CHL1   C10 3443   0.124   2.984   3.769 -0.1748 -0.1997  0.5832
   47CHL1   C19 3444   0.278   2.968   3.761 -0.3277 -0.1399  0.2408
   47CHL1  H19A 3445   0.321   2.962   3.658  3.8153  1.5890  1.6459
   47CHL1  H19B 3446   0.329   3.056   3.806 -0.3811 -0.0487  0.1242
   47CHL1  H19C 3447   0.309   2.877   3.817 -0.9393 -0.4469  0.0947
   47CHL1    C1 3448   0.051   2.854   3.721  0.4633  0.4564 -0.5859
   47CHL1   H1A 3449   0.072   2.775   3.796 -0.1290  0.9744  0.1410
   47CHL1   H1B 3450  -0.060   2.862   3.720  0.1799 -2.2535 -0.2390
   47CHL1    C2 3451   0.091   2.804   3.579 -0.3744 -0.5196  0.4458
   47CHL1   H2A 3452   0.023   2.719   3.558 -1.4898  0.5690 -0.5163
   47CHL1   H2B 3453   0.200   2.785   3.580 -0.2434  0.2224  1.2809
   47CHL1   C20 3454   0.030   3.166   4.456 -0.3615  0.1613  0.5159
   47CHL1   H20 3455   0.126   3.221   4.458 -1.3045  1.9199 -0.3969
   47CHL1   C21 3456   0.042   3.015   4.501  0.1267  0.7616  0.4696
   47CHL1  H21A 3457  -0.062   2.977   4.494 -0.0665  1.5696 -1.5450
   47CHL1  H21B 3458   0.074   3.021   4.608  0.0271  2.6226  0.4249
   47CHL1  H21C 3459   0.109   2.961   4.431  0.0662 -0.1323  1.0868
   47CHL1   C22 3460  -0.068   3.241   4.553  0.1737  0.6103 -0.2061
   47CHL1  H22A 3461  -0.102   3.334   4.503 -1.3114 -0.0314 -0.4385
   47CHL1  H22B 3462  -0.158   3.180   4.571  1.3220 -1.4191 -0.9942
   47CHL1   C23 3463   0.002   3.274   4.685  0.0033  0.2370 -0.1204
   47CHL1  H23A 3464   0.019   3.179   4.740  0.6792 -0.0557 -0.8068
   47CHL1  H23B 3465   0.105   3.312   4.666  1.2577 -1.2477  2.9923
   47CHL1   C24 3466  -0.079   3.377   4.760  0.0647  0.1261 -0.7029
   47CHL1  H24A 3467  -0.097   3.472   4.706 -1.5953  0.6054  0.6219
   47CHL1  H24B 3468  -0.184   3.346   4.780  0.1528  0.8420  1.0198
   47CHL1   C25 3469  -0.026   3.404   4.909  0.0240 -0.8484  0.0846
   47CHL1   H25 3470   0.084   3.415   4.899  0.2717 -3.1906 -0.3032
   47CHL1   C26 3471  -0.082   3.535   4.971  0.2990 -0.1461  0.6212
   47CHL1  H26A 3472  -0.192   3.520   4.980 -0.1471 -2.2725 -4.7263
   47CHL1  H26B 3473  -0.031   3.555   5.068  1.3048 -0.0764  0.0884
   47CHL1  H26C 3474  -0.075   3.626   4.908 -0.0233  0.6277  1.6583
   47CHL1   C27 3475  -0.043   3.289   5.010 -0.3154  0.0286  0.2815
   47CHL1  H27A 3476   0.021   3.333   5.090 -0.4542  0.7722 -0.0068
   47CHL1  H27B 3477  -0.148   3.284   5.046  0.2202 -0.5457  1.8565
   47CHL1  H27C 3478  -0.002   3.194   4.971  3.1469  2.2615 -2.1303
   48CHL1    C3 3479   3.354   2.562   3.020 -0.6609  0.2963 -0.0315
   48CHL1    H3 3480   3.423   2.639   2.980  0.1947 -0.0509  0.7356
   48CHL1    O3 3481   3.338   2.457   2.929  0.2226 -0.2727  0.6200
   48CHL1   H3' 3482   3.422   2.440   2.886 -0.5028 -2.9093  0.1006
   48CHL1    C4 3483   3.415   2.491   3.149  0.0034 -0.2225  0.6247
   48CHL1   H4A 3484   3.339   2.414   3.175  0.4400 -0.4734  1.1815
   48CHL1   H4B 3485   3.504   2.430   3.122 -1.6418 -2.5416  0.0906
   48CHL1    C5 3486   3.444   2.586   3.260  0.2268 -0.4528  0.4128
   48CHL1    C6 3487   3.558   2.596   3.314 -0.3972  0.0620 -0.1740
   48CHL1    H6 3488   3.639   2.526   3.288  1.3736  2.8875 -3.0713
   48CHL1    C7 3489   3.576   2.684   3.436 -0.2663  0.1151  0.0190
   48CHL1   H7A 3490   3.639   2.641   3.516  1.3255  1.8043 -0.2591
   48CHL1   H7B 3491   3.629   2.775   3.402 -2.1104  1.4012  0.4387
   48CHL1    C8 3492   3.444   2.735   3.500  0.4728  0.8070  0.0478
   48CHL1    H8 3493   3.397   2.643   3.540  2.0193 -1.0480 -2.0608
   48CHL1   C14 3494   3.470   2.837   3.610  0.0110  0.0795 -0.5714
   48CHL1   H14 3495   3.527   2.920   3.563  2.0977 -1.5852 -1.1183
   48CHL1   C15 3496   3.555   2.807   3.731  0.2627  0.7053  0.4254
   48CHL1  H15A 3497   3.530   2.707   3.774 -3.4120  1.1985 -0.2483
   48CHL1  H15B 3498   3.663   2.800   3.703  0.0268  0.0061 -0.3630
   48CHL1   C16 3499   3.531   2.932   3.815  0.6033 -0.0237 -0.1487
   48CHL1  H16A 3500   3.527   2.910   3.923 -1.0481 -0.7611 -0.3337
   48CHL1  H16B 3501   3.617   3.003   3.809 -0.6931  1.9429  2.5940
   48CHL1   C17 3502   3.405   3.006   3.757 -0.3546  0.0317  0.6546
   48CHL1   H17 3503   3.449   3.094   3.707 -1.2283  1.6099  2.4814
   48CHL1   C13 3504   3.349   2.907   3.658  0.1265  0.5031  0.5196
   48CHL1   C18 3505   3.255   2.810   3.732  0.0245 -0.2837 -0.8323
   48CHL1  H18A 3506   3.159   2.853   3.767  1.2546  2.7115 -0.8472
   48CHL1  H18B 3507   3.216   2.726   3.670 -1.4165  0.7443 -1.3705
   48CHL1  H18C 3508   3.302   2.767   3.824 -2.8138  0.4227  1.0774
   48CHL1   C12 3509   3.270   2.975   3.536 -0.5946 -0.1494 -0.1697
   48CHL1  H12A 3510   3.179   3.024   3.577  0.5924  1.4971  0.6224
   48CHL1  H12B 3511   3.334   3.053   3.490 -0.2312  0.4012  1.1972
   48CHL1   C11 3512   3.236   2.869   3.432 -0.1969  0.6456 -0.9534
   48CHL1  H11A 3513   3.167   2.799   3.482  1.9589  1.0562  2.9618
   48CHL1  H11B 3514   3.180   2.913   3.346 -2.3734  0.1874  0.1669
   48CHL1    C9 3515   3.355   2.781   3.389 -0.4942 -0.6369  0.5861
   48CHL1    H9 3516   3.409   2.846   3.317 -0.9915  0.0933  0.8590
   48CHL1   C10 3517   3.315   2.664   3.289  0.1412 -1.3311 -0.2415
   48CHL1   C19 3518   3.201   2.575   3.358 -0.3487 -0.7208  0.0274
   48CHL1  H19A 3519   3.247   2.542   3.454  0.1100  1.1258  0.4832
   48CHL1  H19B 3520   3.104   2.625   3.377 -0.0480 -0.2985  0.4700
   48CHL1  H19C 3521   3.189   2.486   3.292 -2.9211  1.4744 -2.7449
   48CHL1    C1 3522   3.262   2.732   3.162  0.4135  0.3274 -0.4687
   48CHL1   H1A 3523   3.168   2.787   3.186  1.2655  2.4038 -1.5986
   48CHL1   H1B 3524   3.342   2.800   3.126  2.6485 -2.0999 -0.3476
   48CHL1    C2 3525   3.221   2.630   3.055 -0.0227  0.3226 -0.6377
   48CHL1   H2A 3526   3.195   2.696   2.969  0.6388 -0.0329 -1.1207
   48CHL1   H2B 3527   3.139   2.560   3.080 -0.0578  0.1729 -1.1611
   48CHL1   C20 3528   3.318   3.066   3.877 -0.4472  0.5755 -0.1364
   48CHL1   H20 3529   3.273   2.979   3.929  1.3590 -0.4365 -0.1717
   48CHL1   C21 3530   3.201   3.149   3.822 -0.6227  0.0446  0.2988
   48CHL1  H21A 3531   3.240   3.231   3.758 -0.0838 -0.0804  0.4593
   48CHL1  H21B 3532   3.160   3.203   3.910 -0.2597 -1.5161  1.4711
   48CHL1  H21C 3533   3.119   3.103   3.764  0.8377 -0.7233 -1.2380
   48CHL1   C22 3534   3.409   3.152   3.972 -0.7946  0.0848  0.0996
   48CHL1  H22A 3535   3.491   3.093   4.018 -1.2059 -0.0253  0.7023
   48CHL1  H22B 3536   3.458   3.236   3.919  1.0262 -0.2562  1.1687
   48CHL1   C23 3537   3.342   3.215   4.098 -0.5234 -0.3858  0.1951
   48CHL1  H23A 3538   3.425   3.254   4.161  0.0247 -2.4399  0.8353
   48CHL1  H23B 3539   3.293   3.312   4.073  0.3006  0.5550  2.0402
   48CHL1   C24 3540   3.255   3.117   4.179  0.0730  0.3019  0.0979
   48CHL1  H24A 3541   3.156   3.120   4.129 -0.3092 -2.4111  0.5644
   48CHL1  H24B 3542   3.282   3.009   4.177 -0.6932  0.0676  1.2361
   48CHL1   C25 3543   3.223   3.164   4.324 -0.9867  0.3253  0.6963
   48CHL1   H25 3544   3.174   3.263   4.319 -1.2087  0.1650 -1.2379
   48CHL1   C26 3545   3.128   3.077   4.400 -0.4252 -0.1174  0.3836
   48CHL1  H26A 3546   3.035   3.084   4.339 -0.3213  0.3174  0.2699
   48CHL1  H26B 3547   3.158   2.970   4.400 -0.4603 -0.1451 -0.9445
   48CHL1  H26C 3548   3.104   3.112   4.503 -2.2907 -2.5484  0.8719
   48CHL1   C27 3549   3.349   3.174   4.417  0.0250 -0.8922 -0.4089
   48CHL1  H27A 3550   3.406   3.262   4.383 -2.5539  1.1512  0.2366
   48CHL1  H27B 3551   3.314   3.204   4.518  4.3746  0.8538  0.7879
   48CHL1  H27C 3552   3.405   3.078   4.417  1.6706  0.0284 -0.7867
   49CHL1    C3 3553   5.339   1.203   2.813 -0.1523  0.9302 -0.0205
   49CHL1    H3 3554   5.256   1.141   2.851 -0.1335  1.0411  0.2075
   49CHL1    O3 3555   5.360   1.185   2.673  0.5723 -0.4404 -0.4692
   49CHL1   H3' 3556   5.289   1.237   2.634 -0.7762 -1.3442  0.6706
   49CHL1    C4 3557   5.299   1.352   2.839 -0.6608  0.6125  0.4249
   49CHL1   H4A 3558   5.387   1.412   2.809  1.1249 -2.1397 -0.1356
   49CHL1   H4B 3559   5.212   1.377   2.775 -1.0987  0.6919  1.0391
   49CHL1    C5 3560   5.280   1.380   2.989 -0.0263 -0.3554 -0.0897
   49CHL1    C6 3561   5.163   1.428   3.037 -0.7099  0.2820 -0.4757
   49CHL1    H6 3562   5.083   1.456   2.967 -2.8879 -0.6840  1.5021
   49CHL1    C7 3563   5.136   1.458   3.177 -0.1004  0.0679 -0.3929
   49CHL1   H7A 3564   5.070   1.545   3.196 -2.8470 -1.3014 -2.7962
   49CHL1   H7B 3565   5.092   1.368   3.224  2.3432  1.2889  5.0347
   49CHL1    C8 3566   5.269   1.485   3.263  0.0363  0.3349  0.1191
   49CHL1    H8 3567   5.322   1.579   3.235  1.9488 -0.7585 -0.1381
   49CHL1   C14 3568   5.237   1.484   3.415 -0.7975 -0.2293 -0.0054
   49CHL1   H14 3569   5.187   1.386   3.435  0.4366 -1.0527 -0.8699
   49CHL1   C15 3570   5.141   1.599   3.461 -0.3612 -0.1318  0.1852
   49CHL1  H15A 3571   5.160   1.693   3.405  1.1777 -0.0951  0.7405
   49CHL1  H15B 3572   5.038   1.559   3.444  0.0074 -0.3516 -1.7262
   49CHL1   C16 3573   5.160   1.604   3.614 -0.6559  0.4783  0.7102
   49CHL1  H16A 3574   5.205   1.702   3.642  3.2411 -0.6762 -0.8024
   49CHL1  H16B 3575   5.070   1.581   3.675 -0.7714 -0.5893  0.1655
   49CHL1   C17 3576   5.279   1.504   3.645 -0.4283  0.0154  0.1303
   49CHL1   H17 3577   5.231   1.404   3.660 -1.2053  0.1507 -1.3087
   49CHL1   C13 3578   5.357   1.487   3.513  0.3889 -0.4259 -0.5110
   49CHL1   C18 3579   5.446   1.612   3.482 -0.3607  0.0594 -0.5206
   49CHL1  H18A 3580   5.546   1.594   3.528 -0.9166  0.2368  0.8019
   49CHL1  H18B 3581   5.457   1.637   3.374 -1.0995  2.5229 -0.0930
   49CHL1  H18C 3582   5.411   1.694   3.549 -0.2568 -2.0575  2.3490
   49CHL1   C12 3583   5.431   1.354   3.478  0.2558  0.1085  0.5612
   49CHL1  H12A 3584   5.520   1.343   3.543  0.8369  2.1464  0.1939
   49CHL1  H12B 3585   5.365   1.270   3.506 -0.8260 -0.1931 -2.4777
   49CHL1   C11 3586   5.484   1.346   3.333  0.0701  0.6684 -0.0480
   49CHL1  H11A 3587   5.558   1.427   3.317  1.0782 -0.2863 -0.3592
   49CHL1  H11B 3588   5.536   1.249   3.321  1.7122  1.6157 -0.9479
   49CHL1    C9 3589   5.363   1.358   3.234 -0.4182 -0.0907  0.2678
   49CHL1    H9 3590   5.304   1.269   3.262  2.2459 -1.3510  2.3827
   49CHL1   C10 3591   5.398   1.345   3.079 -0.4860  0.1947  0.2799
   49CHL1   C19 3592   5.509   1.445   3.051 -1.0411 -0.7721 -0.1276
   49CHL1  H19A 3593   5.605   1.418   3.100 -0.5373  1.0142 -0.0519
   49CHL1  H19B 3594   5.540   1.441   2.944  1.0420  0.6978  0.3613
   49CHL1  H19C 3595   5.479   1.548   3.080 -0.6155 -0.7271  0.1735
   49CHL1    C1 3596   5.439   1.200   3.040 -0.1818  0.3423 -0.9899
   49CHL1   H1A 3597   5.531   1.180   3.100 -0.9768 -2.4437 -0.5663
   49CHL1   H1B 3598   5.362   1.131   3.082 -0.0251  1.5448  1.4698
   49CHL1    C2 3599   5.462   1.165   2.889  0.4549  0.2996 -0.3109
   49CHL1   H2A 3600   5.476   1.055   2.881 -0.8400  0.2109 -2.0041
   49CHL1   H2B 3601   5.551   1.221   2.855 -0.1211  1.1358 -0.4831
   49CHL1   C20 3602   5.364   1.536   3.773  1.0782 -0.5782  0.0017
   49CHL1   H20 3603   5.403   1.639   3.767  1.1053 -0.5565  0.4830
   49CHL1   C21 3604   5.492   1.460   3.783  0.4000 -0.2006  0.1334
   49CHL1  H21A 3605   5.536   1.498   3.877 -0.8161  1.8440 -0.0549
   49CHL1  H21B 3606   5.566   1.471   3.701  0.0230  0.0430 -0.1855
   49CHL1  H21C 3607   5.470   1.352   3.793 -3.2620  0.3839  0.1109
   49CHL1   C22 3608   5.276   1.527   3.904 -0.4040 -0.5254  0.5597
   49CHL1  H22A 3609   5.177   1.567   3.876 -0.2169 -0.3148  0.1773
   49CHL1  H22B 3610   5.255   1.419   3.921  0.3753 -1.4654 -3.2920
   49CHL1   C23 3611   5.332   1.594   4.024 -0.4034  0.9939  0.3811
   49CHL1  H23A 3612   5.435   1.557   4.039 -0.4466  0.2966 -0.8869
   49CHL1  H23B 3613   5.353   1.702   4.007 -0.4603  1.1503  1.2715
   49CHL1   C24 3614   5.242   1.573   4.142  0.0364 -0.0259  0.0318
   49CHL1  H24A 3615   5.141   1.614   4.123  0.6453  1.3082 -0.4738
   49CHL1  H24B 3616   5.220   1.465   4.153  1.2284 -0.1325  1.7417
   49CHL1   C25 3617   5.304   1.603   4.285  0.3147 -0.0148 -0.5939
   49CHL1   H25 3618   5.394   1.539   4.294  0.7211  0.6305 -0.0689
   49CHL1   C26 3619   5.345   1.752   4.304 -0.3764  0.4401  0.5059
   49CHL1  H26A 3620   5.252   1.813   4.312  0.1620  1.2871  0.4075
   49CHL1  H26B 3621   5.390   1.759   4.405 -1.2854 -1.0701  1.0600
   49CHL1  H26C 3622   5.423   1.775   4.229  2.0562 -0.5011  2.5926
   49CHL1   C27 3623   5.211   1.564   4.393 -0.3420  0.3874 -0.4895
   49CHL1  H27A 3624   5.193   1.455   4.397  1.3882  0.0553 -0.9934
   49CHL1  H27B 3625   5.246   1.599   4.493 -3.0184  1.6059  0.1207
   49CHL1  H27C 3626   5.107   1.605   4.386 -0.8838 -0.8313  0.2219
   50CHL1    C3 3627   0.655   2.393   2.539 -0.4313  0.3562 -0.5529
   50CHL1    H3 3628   0.574   2.327   2.577 -1.5791  2.4321  0.7324
   50CHL1    O3 3629   0.638   2.416   2.403  0.3884 -0.0645 -0.1907
   50CHL1   H3' 3630   0.711   2.465   2.365  1.5352 -1.2487  0.4128
   50CHL1    C4 3631   0.644   2.525   2.614  1.1195 -0.2091 -0.3757
   50CHL1   H4A 3632   0.706   2.593   2.552  1.1513  0.8329  0.7705
   50CHL1   H4B 3633   0.538   2.556   2.601  0.9728 -0.9960 -1.1396
   50CHL1    C5 3634   0.694   2.547   2.751 -0.0251 -0.0539 -0.0478
   50CHL1    C6 3635   0.619   2.603   2.843 -0.0530  0.0790 -0.3744
   50CHL1    H6 3636   0.523   2.647   2.813 -0.5062  1.2553  2.4825
   50CHL1    C7 3637   0.645   2.631   2.985  0.1724 -0.1547  0.0574
   50CHL1   H7A 3638   0.650   2.740   3.005 -0.4600 -0.4784  2.1125
   50CHL1   H7B 3639   0.561   2.584   3.040 -0.3186 -0.2611 -0.7645
   50CHL1    C8 3640   0.784   2.571   3.023  0.0467 -0.0279  0.1321
   50CHL1    H8 3641   0.864   2.645   3.000  0.4238 -1.1138 -2.3326
   50CHL1   C14 3642   0.779   2.525   3.170  0.2530 -0.2057 -0.1129
   50CHL1   H14 3643   0.705   2.442   3.177  0.1815 -0.1757 -0.5314
   50CHL1   C15 3644   0.720   2.630   3.272 -0.4036  0.1191  1.2749
   50CHL1  H15A 3645   0.761   2.732   3.259  1.4359 -0.4746  2.0266
   50CHL1  H15B 3646   0.609   2.630   3.262 -0.2962 -1.5509 -0.6383
   50CHL1   C16 3647   0.764   2.577   3.414  0.3185  0.1376 -0.2607
   50CHL1  H16A 3648   0.809   2.661   3.471 -1.0165 -0.1002  1.2402
   50CHL1  H16B 3649   0.672   2.547   3.469  1.0046  1.6488  1.8271
   50CHL1   C17 3650   0.860   2.458   3.378 -0.8539  0.0823 -0.1694
   50CHL1   H17 3651   0.806   2.361   3.374  0.9517 -0.9842 -0.0840
   50CHL1   C13 3652   0.907   2.476   3.228  0.3425  0.3311 -0.6294
   50CHL1   C18 3653   1.010   2.591   3.223 -0.5875 -0.0014 -0.1528
   50CHL1  H18A 3654   0.978   2.689   3.266 -1.0154 -0.4122  0.4749
   50CHL1  H18B 3655   1.105   2.557   3.268 -1.9021  0.3189  3.2090
   50CHL1  H18C 3656   1.032   2.612   3.116 -1.8112  0.7990 -0.2772
   50CHL1   C12 3657   0.948   2.346   3.147 -0.1437  0.6126  0.2421
   50CHL1  H12A 3658   1.048   2.317   3.187 -0.3906  1.1048  1.2356
   50CHL1  H12B 3659   0.881   2.262   3.174  0.9431 -0.5578 -0.5843
   50CHL1   C11 3660   0.947   2.370   2.997 -0.6120 -0.0431  0.3591
   50CHL1  H11A 3661   1.027   2.443   2.972 -1.6683  0.7820 -0.7208
   50CHL1  H11B 3662   0.972   2.275   2.945  1.8791  1.0797 -0.6937
   50CHL1    C9 3663   0.816   2.450   2.939  0.5996  0.8715  0.1781
   50CHL1    H9 3664   0.733   2.379   2.961  0.6984  1.0579  1.2324
   50CHL1   C10 3665   0.820   2.475   2.786  0.6771 -0.4358 -1.2556
   50CHL1   C19 3666   0.940   2.558   2.744 -0.4117 -0.5858 -0.0250
   50CHL1  H19A 3667   0.937   2.577   2.635 -2.1395 -3.5664 -0.5739
   50CHL1  H19B 3668   0.953   2.655   2.798  2.4380  0.8899 -3.0019
   50CHL1  H19C 3669   1.028   2.492   2.756 -0.8906 -0.8784  2.6367
   50CHL1    C1 3670   0.819   2.335   2.707  0.0117 -0.4094 -0.2317
   50CHL1   H1A 3671   0.898   2.269   2.749  0.1810 -1.4754 -2.0957
   50CHL1   H1B 3672   0.732   2.278   2.746 -1.8069  1.5288 -1.2449
   50CHL1    C2 3673   0.798   2.342   2.554  0.5827  0.3169  0.7510
   50CHL1   H2A 3674   0.813   2.239   2.514 -2.2157  0.5597 -1.1722
   50CHL1   H2B 3675   0.878   2.411   2.521  1.5641 -0.0567  2.2575
   50CHL1   C20 3676   0.963   2.441   3.491 -0.4271  0.3763 -0.3225
   50CHL1   H20 3677   1.048   2.508   3.469  1.0513 -0.5190  2.2394
   50CHL1   C21 3678   1.014   2.299   3.483  0.4060  0.4287  0.0196
   50CHL1  H21A 3679   0.927   2.232   3.504 -0.3979  1.4484  0.0237
   50CHL1  H21B 3680   1.095   2.280   3.556 -1.0608 -1.6059  1.2394
   50CHL1  H21C 3681   1.055   2.283   3.381  0.9364 -2.1833  0.5625
   50CHL1   C22 3682   0.909   2.482   3.632  0.4724  0.1620  0.1137
   50CHL1  H22A 3683   0.907   2.593   3.630 -1.1541  0.1591  0.2877
   50CHL1  H22B 3684   0.805   2.450   3.651  0.7439 -1.0602 -0.3685
   50CHL1   C23 3685   0.990   2.425   3.760  0.2799  0.3082 -0.3172
   50CHL1  H23A 3686   0.932   2.472   3.842  3.7212  1.2885  1.7753
   50CHL1  H23B 3687   0.990   2.314   3.772  0.5208  0.1937 -1.2335
   50CHL1   C24 3688   1.136   2.465   3.779  0.1967  0.1860 -0.0915
   50CHL1  H24A 3689   1.201   2.431   3.696  0.1354 -1.0429  0.3539
   50CHL1  H24B 3690   1.129   2.576   3.770  2.3582  0.4109  0.5545
   50CHL1   C25 3691   1.194   2.437   3.919 -0.4186  0.0140  1.1533
   50CHL1   H25 3692   1.133   2.476   4.004  0.3829 -2.1544  2.8152
   50CHL1   C26 3693   1.224   2.292   3.939  0.1420  0.1107 -0.4694
   50CHL1  H26A 3694   1.283   2.250   3.855  0.0791 -0.0531 -0.4316
   50CHL1  H26B 3695   1.292   2.295   4.027  0.6125  1.2127 -0.8532
   50CHL1  H26C 3696   1.133   2.232   3.959  1.4914 -1.8383  0.1200
   50CHL1   C27 3697   1.318   2.525   3.938  0.1216  0.5746  0.5107
   50CHL1  H27A 3698   1.396   2.511   3.861  1.1857  1.0269  1.4832
   50CHL1  H27B 3699   1.301   2.635   3.944  2.8792  1.0462  1.0059
   50CHL1  H27C 3700   1.365   2.496   4.034  1.6683 -1.4542 -0.7715
   51CHL1    C3 3701   0.897   0.293   2.677 -0.1915  0.7315 -0.0867
   51CHL1    H3 3702   0.913   0.184   2.684 -3.4132  0.2491  1.2751
   51CHL1    O3 3703   0.824   0.314   2.562 -0.0073 -0.6957  0.6981
   51CHL1   H3' 3704   0.790   0.402   2.581  0.6522  0.1169 -1.6069
   51CHL1    C4 3705   0.813   0.327   2.799  0.7527 -0.0799  0.5269
   51CHL1   H4A 3706   0.789   0.434   2.782  0.4993 -0.2858 -0.4608
   51CHL1   H4B 3707   0.719   0.269   2.792 -0.3013  1.6469 -0.0453
   51CHL1    C5 3708   0.875   0.308   2.933 -0.3136 -0.1535 -0.0968
   51CHL1    C6 3709   0.817   0.239   3.031 -0.5431  0.2052  0.2762
   51CHL1    H6 3710   0.718   0.192   3.034 -0.0112 -1.0456 -0.8547
   51CHL1    C7 3711   0.880   0.242   3.166 -0.1323  0.2140 -0.1532
   51CHL1   H7A 3712   0.797   0.266   3.236  0.0086  0.6796 -0.1405
   51CHL1   H7B 3713   0.914   0.137   3.184 -1.2538 -0.3141 -0.9976
   51CHL1    C8 3714   1.002   0.331   3.197  0.0877  0.3327  0.1656
   51CHL1    H8 3715   0.969   0.432   3.229  1.3351  0.7017  0.3247
   51CHL1   C14 3716   1.076   0.269   3.313 -0.4413 -0.7807  0.1432
   51CHL1   H14 3717   1.097   0.163   3.286 -2.0039 -0.4966 -2.6057
   51CHL1   C15 3718   1.003   0.260   3.446  0.1804 -0.1550 -0.2405
   51CHL1  H15A 3719   0.936   0.347   3.462 -0.7748 -0.9720  0.3035
   51CHL1  H15B 3720   0.957   0.159   3.448 -0.8624  0.3053 -0.5071
   51CHL1   C16 3721   1.116   0.253   3.554 -0.4918  0.1679 -0.1020
   51CHL1  H16A 3722   1.094   0.332   3.629 -0.2185 -0.6049  0.8176
   51CHL1  H16B 3723   1.106   0.161   3.616 -0.0616 -1.2782 -2.0627
   51CHL1   C17 3724   1.251   0.263   3.474 -0.1888  0.1473  0.4226
   51CHL1   H17 3725   1.288   0.162   3.448  0.0021  0.2300  0.3655
   51CHL1   C13 3726   1.210   0.339   3.347  0.0011 -0.4991  0.4252
   51CHL1   C18 3727   1.188   0.487   3.380 -0.2295 -0.3524  0.7017
   51CHL1  H18A 3728   1.105   0.499   3.453 -3.3154 -0.1675 -2.5493
   51CHL1  H18B 3729   1.288   0.528   3.404  1.4094 -3.3251 -0.6142
   51CHL1  H18C 3730   1.150   0.533   3.286  0.1999 -2.9318 -0.8298
   51CHL1   C12 3731   1.301   0.327   3.221 -0.5002  0.1945  0.2479
   51CHL1  H12A 3732   1.396   0.384   3.233 -0.0735  0.3538 -2.8969
   51CHL1  H12B 3733   1.312   0.218   3.202 -1.7292  0.4217 -2.1930
   51CHL1   C11 3734   1.230   0.377   3.087  0.0579 -0.6101 -0.4409
   51CHL1  H11A 3735   1.223   0.485   3.110  0.7529 -0.3102 -1.5733
   51CHL1  H11B 3736   1.294   0.356   2.998  0.5608 -3.0336  0.4084
   51CHL1    C9 3737   1.091   0.319   3.070 -0.4329 -0.3559 -0.6097
   51CHL1    H9 3738   1.102   0.210   3.054 -2.6995 -0.3422 -2.8589
   51CHL1   C10 3739   1.019   0.366   2.947 -0.2384 -1.0270  0.6066
   51CHL1   C19 3740   1.016   0.525   2.941  0.3482  0.3273  0.0435
   51CHL1  H19A 3741   0.978   0.559   2.842 -1.6433  1.5429  1.1586
   51CHL1  H19B 3742   0.948   0.573   3.015 -1.2996  0.6550 -1.6039
   51CHL1  H19C 3743   1.120   0.560   2.954 -0.3785  2.5031  0.4024
   51CHL1    C1 3744   1.097   0.317   2.820  0.5972  0.2715 -0.1287
   51CHL1   H1A 3745   1.201   0.355   2.820  0.6044  0.2741 -1.3362
   51CHL1   H1B 3746   1.112   0.208   2.834 -0.9223  0.1060  0.3666
   51CHL1    C2 3747   1.037   0.355   2.681 -0.4754 -1.2483  0.1881
   51CHL1   H2A 3748   1.095   0.314   2.596  1.4752  0.0802  0.8004
   51CHL1   H2B 3749   1.022   0.465   2.674 -2.6774 -1.5357 -0.2784
   51CHL1   C20 3750   1.369   0.315   3.559  0.1028 -0.6029  0.0747
   51CHL1   H20 3751   1.351   0.422   3.583 -0.5281 -0.1019 -2.3596
   51CHL1   C21 3752   1.492   0.300   3.472 -0.1924  0.3850 -0.3468
   51CHL1  H21A 3753   1.509   0.381   3.398 -2.5262  1.4015  0.1603
   51CHL1  H21B 3754   1.491   0.209   3.409  2.2069 -0.5733  0.8518
   51CHL1  H21C 3755   1.583   0.302   3.537 -1.3650  0.3829  1.3771
   51CHL1   C22 3756   1.375   0.241   3.693  0.2864  0.6294 -0.3749
   51CHL1  H22A 3757   1.278   0.243   3.747  0.2523  0.4442 -0.4292
   51CHL1  H22B 3758   1.410   0.138   3.676 -0.0367  0.2012  1.3619
   51CHL1   C23 3759   1.470   0.292   3.797 -0.3156  0.3310 -0.9964
   51CHL1  H23A 3760   1.573   0.264   3.766 -0.3657  0.2959 -1.1368
   51CHL1  H23B 3761   1.479   0.403   3.797  1.6671  0.2503  1.6478
   51CHL1   C24 3762   1.450   0.238   3.939  0.9627  0.0200  0.3839
   51CHL1  H24A 3763   1.343   0.243   3.969  0.0796 -1.7531 -2.1700
   51CHL1  H24B 3764   1.456   0.128   3.923 -2.0487 -0.4668  1.8369
   51CHL1   C25 3765   1.550   0.284   4.054  0.8645  0.0166  0.2856
   51CHL1   H25 3766   1.530   0.393   4.066 -0.8459 -0.2844  0.4498
   51CHL1   C26 3767   1.530   0.211   4.193 -0.0181  0.1795 -0.4785
   51CHL1  H26A 3768   1.608   0.140   4.225 -0.7643  0.5091  2.3348
   51CHL1  H26B 3769   1.534   0.287   4.274 -0.3122 -1.0121  0.6767
   51CHL1  H26C 3770   1.437   0.150   4.188 -0.2858  0.5615 -0.2789
   51CHL1   C27 3771   1.696   0.268   4.008 -0.8202  0.2040 -0.2162
   51CHL1  H27A 3772   1.765   0.283   4.094 -1.7136  0.5027  0.4705
   51CHL1  H27B 3773   1.717   0.169   3.964  2.1676  0.4533  0.4280
   51CHL1  H27C 3774   1.713   0.342   3.927 -1.5149 -1.2470 -1.7216
   52CHL1    C3 3775   3.348   6.046   2.775 -0.0199 -0.9366  0.2215
   52CHL1    H3 3776   3.297   5.950   2.800 -0.4904 -0.8015 -0.2026
   52CHL1    O3 3777   3.339   6.062   2.631 -0.6584  0.7036  0.3511
   52CHL1   H3' 3778   3.379   6.148   2.613  0.7807 -0.1871 -0.9280
   52CHL1    C4 3779   3.271   6.150   2.845  0.9020 -0.0334 -0.2500
   52CHL1   H4A 3780   3.292   6.254   2.814 -1.8514  0.5498 -0.3954
   52CHL1   H4B 3781   3.165   6.124   2.826  0.8507 -0.7771  0.9235
   52CHL1    C5 3782   3.288   6.135   2.997  0.3690  0.3101  0.2850
   52CHL1    C6 3783   3.182   6.129   3.082 -0.1430 -0.5186 -0.2777
   52CHL1    H6 3784   3.078   6.123   3.047 -0.0558  0.7607 -0.8023
   52CHL1    C7 3785   3.200   6.126   3.235  0.5753  0.3527 -0.1086
   52CHL1   H7A 3786   3.137   6.196   3.295 -0.9976  0.6466 -2.0046
   52CHL1   H7B 3787   3.177   6.025   3.274 -1.8158  1.8721  2.8374
   52CHL1    C8 3788   3.338   6.170   3.293  1.0223 -0.0906  0.5433
   52CHL1    H8 3789   3.342   6.280   3.278 -1.9881  0.2306  1.3116
   52CHL1   C14 3790   3.350   6.125   3.440  0.0355  0.4940  0.1733
   52CHL1   H14 3791   3.359   6.015   3.438  0.3565  0.4331  2.6597
   52CHL1   C15 3792   3.242   6.161   3.543 -0.0744 -0.3505  0.1759
   52CHL1  H15A 3793   3.214   6.268   3.530 -1.2132 -0.6723 -0.2124
   52CHL1  H15B 3794   3.149   6.102   3.529  0.3484 -0.3981 -3.3288
   52CHL1   C16 3795   3.307   6.150   3.678  0.5297 -0.6636  0.1049
   52CHL1  H16A 3796   3.302   6.241   3.743 -0.9833 -1.4133  1.0939
   52CHL1  H16B 3797   3.268   6.072   3.747 -0.2440  0.9778  1.6226
   52CHL1   C17 3798   3.457   6.121   3.644 -0.0854  0.0734  0.3714
   52CHL1   H17 3799   3.451   6.010   3.638 -0.4568  0.0975  0.2429
   52CHL1   C13 3800   3.483   6.163   3.498  0.5914  0.4311  0.3406
   52CHL1   C18 3801   3.494   6.323   3.504  0.8951  0.6543 -0.2906
   52CHL1  H18A 3802   3.515   6.358   3.401  0.7818 -0.4471 -0.6988
   52CHL1  H18B 3803   3.409   6.375   3.553 -0.3609 -1.0160 -0.6244
   52CHL1  H18C 3804   3.585   6.340   3.565  2.1832  0.2563 -2.0103
   52CHL1   C12 3805   3.595   6.099   3.411  0.1203  0.3662 -0.3564
   52CHL1  H12A 3806   3.690   6.132   3.457 -0.8837  1.0762  1.2789
   52CHL1  H12B 3807   3.587   5.988   3.413  2.4621  0.1087 -1.5624
   52CHL1   C11 3808   3.581   6.141   3.264 -0.0628  0.5808  0.2791
   52CHL1  H11A 3809   3.613   6.248   3.263  3.9480 -0.4802  0.1037
   52CHL1  H11B 3810   3.657   6.091   3.201 -1.3093  0.2600 -1.0162
   52CHL1    C9 3811   3.438   6.107   3.202 -0.1130 -0.0060  0.6505
   52CHL1    H9 3812   3.432   5.997   3.218  1.6081 -0.0958  0.9181
   52CHL1   C10 3813   3.431   6.135   3.049 -0.0071  0.6341 -0.1837
   52CHL1   C19 3814   3.497   6.276   3.034 -1.2677  0.8906 -0.1997
   52CHL1  H19A 3815   3.608   6.273   3.026 -1.1972  2.3655 -0.0094
   52CHL1  H19B 3816   3.477   6.334   2.942 -1.8801  2.0133  0.6132
   52CHL1  H19C 3817   3.481   6.343   3.121 -2.6393  0.8155 -0.3673
   52CHL1    C1 3818   3.504   6.019   2.971 -0.0925 -0.1832 -0.1833
   52CHL1   H1A 3819   3.609   6.017   3.010  0.1455 -0.3842 -0.8277
   52CHL1   H1B 3820   3.463   5.921   3.003 -0.1831 -1.0227 -2.6802
   52CHL1    C2 3821   3.492   6.035   2.822 -0.0539  0.5669  0.8202
   52CHL1   H2A 3822   3.528   5.946   2.766 -1.4117  0.0266  0.7750
   52CHL1   H2B 3823   3.552   6.123   2.788 -1.4726  1.2616  0.0293
   52CHL1   C20 3824   3.552   6.154   3.760 -0.6642 -0.2871 -0.1629
   52CHL1   H20 3825   3.532   6.262   3.779 -0.3892 -0.0812 -0.9670
   52CHL1   C21 3826   3.697   6.120   3.725  0.0959  0.2181  0.2291
   52CHL1  H21A 3827   3.732   6.177   3.636 -1.3148 -0.5085 -0.8160
   52CHL1  H21B 3828   3.710   6.013   3.702 -0.0202 -0.2871  2.2819
   52CHL1  H21C 3829   3.763   6.132   3.815  0.4110  0.1448  0.0100
   52CHL1   C22 3830   3.512   6.080   3.891  0.0903 -0.7680  0.2066
   52CHL1  H22A 3831   3.408   6.110   3.916  0.7185  0.1543  1.8703
   52CHL1  H22B 3832   3.508   5.971   3.871 -0.1932 -0.9400  1.1310
   52CHL1   C23 3833   3.582   6.103   4.023  0.2386 -0.2727 -0.8225
   52CHL1  H23A 3834   3.685   6.067   4.004  0.2003  0.3961 -2.4287
   52CHL1  H23B 3835   3.581   6.209   4.054 -1.0843 -0.4966 -0.0213
   52CHL1   C24 3836   3.516   6.014   4.130  0.1785 -0.1967  0.1188
   52CHL1  H24A 3837   3.412   6.050   4.140  0.3051  0.6896 -1.4657
   52CHL1  H24B 3838   3.506   5.913   4.085  0.6035 -2.4427  4.5196
   52CHL1   C25 3839   3.578   6.032   4.272  0.3237 -0.3086  0.6607
   52CHL1   H25 3840   3.677   5.982   4.265  0.5845  0.3791 -0.9900
   52CHL1   C26 3841   3.586   6.170   4.330 -0.0828  0.2799 -0.2420
   52CHL1  H26A 3842   3.663   6.230   4.276  0.5317  2.3756  2.7167
   52CHL1  H26B 3843   3.493   6.228   4.312 -0.5169 -0.3203  0.0628
   52CHL1  H26C 3844   3.620   6.175   4.435 -0.5046 -1.4733 -0.0050
   52CHL1   C27 3845   3.491   5.947   4.364  0.3738 -0.0306 -0.6607
   52CHL1  H27A 3846   3.384   5.963   4.339  0.4737  0.9850 -0.5014
   52CHL1  H27B 3847   3.517   5.840   4.354  0.2207  0.1505 -4.4536
   52CHL1  H27C 3848   3.504   5.980   4.470  0.6045 -0.8831 -0.4215
   53CHL1    C3 3849   1.592   1.927   2.743 -0.0360 -0.4282  0.2586
   53CHL1    H3 3850   1.646   2.022   2.761 -1.7946  0.7589 -0.5122
   53CHL1    O3 3851   1.538   1.931   2.613  0.1459  0.3103 -0.4691
   53CHL1   H3' 3852   1.564   1.844   2.580  1.5802  0.6057 -0.1822
   53CHL1    C4 3853   1.690   1.806   2.761  0.0694 -0.0524  0.1752
   53CHL1   H4A 3854   1.641   1.707   2.750  0.6007 -0.1389 -1.9865
   53CHL1   H4B 3855   1.777   1.803   2.691  0.4502 -1.2693  0.6780
   53CHL1    C5 3856   1.740   1.788   2.901 -0.9041 -0.5816 -0.7111
   53CHL1    C6 3857   1.872   1.777   2.921  0.6288  0.2917  0.1614
   53CHL1    H6 3858   1.938   1.770   2.833 -1.8231 -0.7198 -1.7332
   53CHL1    C7 3859   1.930   1.758   3.063 -0.1623 -0.1893 -0.0820
   53CHL1   H7A 3860   2.002   1.674   3.064  0.0826  0.0217  0.0168
   53CHL1   H7B 3861   1.973   1.854   3.097  0.4448  0.0422 -1.4574
   53CHL1    C8 3862   1.824   1.722   3.178  0.9566  0.6857  0.2759
   53CHL1    H8 3863   1.801   1.614   3.167  0.1231  0.8889 -0.0158
   53CHL1   C14 3864   1.877   1.747   3.315 -0.0230 -0.1563 -0.4007
   53CHL1   H14 3865   1.876   1.858   3.320 -0.2365 -0.2107  2.2523
   53CHL1   C15 3866   2.017   1.695   3.350  0.2221  1.2516 -0.9621
   53CHL1  H15A 3867   2.032   1.588   3.325  0.0784  0.5967  1.4681
   53CHL1  H15B 3868   2.088   1.766   3.301 -0.2628  2.6910  0.3614
   53CHL1   C16 3869   2.020   1.697   3.507  0.0760  0.6248  0.0685
   53CHL1  H16A 3870   2.059   1.605   3.556 -1.7017 -0.1906  0.0027
   53CHL1  H16B 3871   2.085   1.780   3.544  1.8603 -1.0979  1.0212
   53CHL1   C17 3872   1.874   1.731   3.549  0.3064  0.1090  0.0017
   53CHL1   H17 3873   1.869   1.841   3.561 -1.9606  0.0929 -0.4793
   53CHL1   C13 3874   1.787   1.702   3.424  0.5652 -0.7336 -1.0878
   53CHL1   C18 3875   1.766   1.549   3.418  0.2042 -0.3929 -0.3846
   53CHL1  H18A 3876   1.717   1.518   3.324 -2.4682 -2.9320  1.6364
   53CHL1  H18B 3877   1.862   1.495   3.432 -0.1967 -0.7669  1.0967
   53CHL1  H18C 3878   1.695   1.515   3.496 -0.5010 -1.1758 -1.3541
   53CHL1   C12 3879   1.651   1.778   3.421  0.4166  0.0033  1.0526
   53CHL1  H12A 3880   1.573   1.728   3.483 -1.5295  0.8042 -0.6311
   53CHL1  H12B 3881   1.661   1.882   3.459 -1.7870  1.0668 -1.0294
   53CHL1   C11 3882   1.594   1.775   3.273  0.2412  0.0116  0.4539
   53CHL1  H11A 3883   1.553   1.672   3.270 -0.7890  0.3767  1.1256
   53CHL1  H11B 3884   1.513   1.851   3.267  0.6014  0.4337  0.7785
   53CHL1    C9 3885   1.694   1.807   3.157 -0.2748  0.5697 -0.0979
   53CHL1    H9 3886   1.729   1.913   3.152 -1.1450  0.8452 -0.6700
   53CHL1   C10 3887   1.632   1.790   3.015  0.3166  0.3583  0.3458
   53CHL1   C19 3888   1.535   1.665   3.014 -0.3790  0.0410  0.6410
   53CHL1  H19A 3889   1.594   1.586   3.064 -0.1814  0.0077  0.3610
   53CHL1  H19B 3890   1.433   1.676   3.054 -0.1524 -2.3889  2.0746
   53CHL1  H19C 3891   1.517   1.629   2.910 -0.2140 -1.5545  1.1433
   53CHL1    C1 3892   1.537   1.913   2.986  0.1409  0.5187 -0.3696
   53CHL1   H1A 3893   1.460   1.910   3.066  1.1274 -1.7666  0.5990
   53CHL1   H1B 3894   1.588   2.010   3.006  0.6364 -0.0498  1.3114
   53CHL1    C2 3895   1.484   1.908   2.841 -0.4080  0.6439  0.2026
   53CHL1   H2A 3896   1.420   1.998   2.838 -1.7740 -0.2084  1.9894
   53CHL1   H2B 3897   1.421   1.819   2.821  1.4823 -0.5507 -0.8212
   53CHL1   C20 3898   1.836   1.679   3.684  0.3130  0.0994  0.2031
   53CHL1   H20 3899   1.820   1.569   3.678  1.4609 -0.0408 -0.6737
   53CHL1   C21 3900   1.712   1.753   3.733 -0.1795 -0.4745  0.7170
   53CHL1  H21A 3901   1.731   1.862   3.722  0.2517 -0.5202  0.9742
   53CHL1  H21B 3902   1.691   1.730   3.840 -0.5954  1.0299  0.9938
   53CHL1  H21C 3903   1.629   1.712   3.672  1.3831 -5.1654  1.3359
   53CHL1   C22 3904   1.941   1.686   3.802 -0.5544  0.3973  0.6158
   53CHL1  H22A 3905   1.899   1.647   3.897  3.1372 -2.6538  1.2623
   53CHL1  H22B 3906   2.022   1.616   3.773 -0.3639  0.2325  1.5314
   53CHL1   C23 3907   2.016   1.817   3.818  0.3395  0.5657 -0.3756
   53CHL1  H23A 3908   2.096   1.829   3.742  0.6081 -1.0437 -0.3897
   53CHL1  H23B 3909   1.936   1.893   3.805 -0.3281  0.0699  0.6893
   53CHL1   C24 3910   2.079   1.831   3.960  0.5020  0.4105  0.6660
   53CHL1  H24A 3911   2.006   1.816   4.042 -1.7531  2.6833 -0.8027
   53CHL1  H24B 3912   2.162   1.758   3.972  0.9120  0.5212 -1.2058
   53CHL1   C25 3913   2.146   1.973   3.988 -0.0848  0.2682  0.0158
   53CHL1   H25 3914   2.223   1.990   3.910 -0.2117  1.7409  0.1835
   53CHL1   C26 3915   2.040   2.088   3.972  0.5419  0.0569 -0.0134
   53CHL1  H26A 3916   1.962   2.080   4.051 -0.7253  1.0664 -1.1068
   53CHL1  H26B 3917   2.080   2.192   3.978  1.1115 -0.2111  1.0875
   53CHL1  H26C 3918   1.980   2.084   3.879  0.4457  2.3577 -0.1202
   53CHL1   C27 3919   2.207   1.982   4.127 -0.4002  0.1796  0.2408
   53CHL1  H27A 3920   2.292   1.910   4.130 -1.8367 -1.5852  1.0737
   53CHL1  H27B 3921   2.252   2.083   4.134 -1.3077  0.5125  1.7401
   53CHL1  H27C 3922   2.135   1.964   4.210 -0.5606  0.1780  0.1016
   54CHL1    C3 3923   4.569   6.209   2.734  0.7928  0.1230 -0.2900
   54CHL1    H3 3924   4.552   6.100   2.744 -0.5860  0.2884 -0.7033
   54CHL1    O3 3925   4.554   6.232   2.595 -0.4981  0.2089  0.2677
   54CHL1   H3' 3926   4.618   6.299   2.567 -0.9631  0.4967 -0.1416
   54CHL1    C4 3927   4.454   6.280   2.813 -0.1695  0.0444 -0.5431
   54CHL1   H4A 3928   4.429   6.382   2.778  2.1227 -0.3492 -3.7473
   54CHL1   H4B 3929   4.360   6.221   2.801  1.0835 -2.7128  1.8209
   54CHL1    C5 3930   4.475   6.289   2.961 -0.0482 -0.5919 -0.7011
   54CHL1    C6 3931   4.384   6.254   3.045 -0.5295 -0.1649  0.3561
   54CHL1    H6 3932   4.291   6.212   3.004  1.1087 -2.4691 -1.1778
   54CHL1    C7 3933   4.381   6.271   3.197 -0.0437  0.2032  0.5739
   54CHL1   H7A 3934   4.287   6.305   3.245  0.2613  1.0697  0.5686
   54CHL1   H7B 3935   4.392   6.169   3.240 -1.7156 -0.0309  0.5145
   54CHL1    C8 3936   4.496   6.369   3.239  0.0162 -0.1408  0.1597
   54CHL1    H8 3937   4.456   6.468   3.209  0.2278 -0.0632  0.1325
   54CHL1   C14 3938   4.525   6.350   3.389 -0.2656  0.0063  0.4707
   54CHL1   H14 3939   4.567   6.248   3.400 -0.1609  0.0345  0.3363
   54CHL1   C15 3940   4.409   6.354   3.485 -0.0010  0.0070  0.0581
   54CHL1  H15A 3941   4.345   6.443   3.474  1.1632  1.5083  3.7759
   54CHL1  H15B 3942   4.347   6.262   3.489  1.3280 -0.9590 -0.6169
   54CHL1   C16 3943   4.477   6.371   3.621  0.0577  0.3144  0.0637
   54CHL1  H16A 3944   4.441   6.462   3.673  1.2878  0.4550  0.6893
   54CHL1  H16B 3945   4.450   6.285   3.686 -1.3214  1.0518  0.5215
   54CHL1   C17 3946   4.629   6.387   3.596  0.2800  0.0228 -0.8188
   54CHL1   H17 3947   4.665   6.283   3.610 -1.9592 -0.6836  0.0912
   54CHL1   C13 3948   4.635   6.432   3.446  0.0763  0.1169  0.3812
   54CHL1   C18 3949   4.584   6.583   3.432  0.2488 -0.1701 -0.9157
   54CHL1  H18A 3950   4.563   6.625   3.332  2.2269  0.7374 -0.9990
   54CHL1  H18B 3951   4.497   6.595   3.500  1.5061  0.0553  0.7310
   54CHL1  H18C 3952   4.659   6.649   3.482 -1.6375  0.9363  0.5677
   54CHL1   C12 3953   4.768   6.422   3.369  0.3026  0.4877 -0.1797
   54CHL1  H12A 3954   4.853   6.487   3.399  0.0566  0.4441  0.6183
   54CHL1  H12B 3955   4.805   6.321   3.397 -0.6532  0.2201  0.1476
   54CHL1   C11 3956   4.739   6.443   3.218 -0.5147  0.2554 -0.2770
   54CHL1  H11A 3957   4.712   6.551   3.216 -0.2598  0.3512  0.7862
   54CHL1  H11B 3958   4.831   6.416   3.163 -0.4646 -0.6711  0.2360
   54CHL1    C9 3959   4.629   6.344   3.165  0.4278 -0.4241 -0.0535
   54CHL1    H9 3960   4.661   6.240   3.186 -0.0727 -0.5663  0.0164
   54CHL1   C10 3961   4.608   6.355   3.007 -0.1329 -0.3562 -0.5566
   54CHL1   C19 3962   4.631   6.505   2.966  0.9088 -0.0386 -0.7711
   54CHL1  H19A 3963   4.737   6.535   2.978  0.4937  0.9382  0.9047
   54CHL1  H19B 3964   4.604   6.524   2.860  2.0026 -1.4600 -1.3413
   54CHL1  H19C 3965   4.574   6.572   3.035  0.9194  0.2737 -1.0617
   54CHL1    C1 3966   4.719   6.258   2.946  0.2318 -0.0043 -0.6568
   54CHL1   H1A 3967   4.820   6.293   2.976  0.3184 -0.6140 -0.2236
   54CHL1   H1B 3968   4.714   6.158   2.993  1.7908  0.4074  0.4864
   54CHL1    C2 3969   4.712   6.253   2.789 -0.5678  0.2512  0.0510
   54CHL1   H2A 3970   4.781   6.173   2.754 -0.6673  0.1726  0.0346
   54CHL1   H2B 3971   4.738   6.351   2.743 -0.2381 -0.2065 -0.7782
   54CHL1   C20 3972   4.713   6.467   3.708  0.4100  0.5412  1.1343
   54CHL1   H20 3973   4.687   6.575   3.715  0.1882  0.4532  1.7265
   54CHL1   C21 3974   4.866   6.470   3.663  0.0995 -0.0111 -0.0382
   54CHL1  H21A 3975   4.912   6.373   3.635  1.5996  0.7449 -0.2964
   54CHL1  H21B 3976   4.927   6.511   3.746  1.3456 -1.5069 -0.1832
   54CHL1  H21C 3977   4.871   6.546   3.583  0.6983  0.1817  0.1828
   54CHL1   C22 3978   4.694   6.406   3.847  0.2390  0.6030 -0.1376
   54CHL1  H22A 3979   4.590   6.368   3.862  0.2179  0.1743 -1.2552
   54CHL1  H22B 3980   4.768   6.325   3.862  0.5746  0.8337 -0.5457
   54CHL1   C23 3981   4.725   6.510   3.959 -0.5433 -0.1123 -0.4701
   54CHL1  H23A 3982   4.832   6.540   3.957 -1.3323  3.4239  1.2460
   54CHL1  H23B 3983   4.669   6.602   3.931  0.0694  0.0934 -1.0307
   54CHL1   C24 3984   4.692   6.473   4.102 -0.9587 -0.0747 -0.5244
   54CHL1  H24A 3985   4.691   6.572   4.152 -1.9713  1.1423 -2.7741
   54CHL1  H24B 3986   4.589   6.432   4.104 -1.0334  0.1232 -0.2819
   54CHL1   C25 3987   4.792   6.373   4.163  0.0279  0.5187 -0.4836
   54CHL1   H25 3988   4.793   6.284   4.096  0.3243  0.6380 -0.6420
   54CHL1   C26 3989   4.938   6.424   4.182 -0.5937  0.0345 -0.6848
   54CHL1  H26A 3990   4.929   6.504   4.258  0.1906  0.6833 -1.2618
   54CHL1  H26B 3991   4.997   6.339   4.224 -0.8229  0.2991  0.1891
   54CHL1  H26C 3992   4.989   6.467   4.093 -0.3388  4.3346  1.2898
   54CHL1   C27 3993   4.735   6.327   4.297 -0.2192 -0.1455 -0.7201
   54CHL1  H27A 3994   4.768   6.395   4.379 -1.2557  0.0848 -0.4852
   54CHL1  H27B 3995   4.625   6.313   4.296 -0.0809 -1.6252 -3.1249
   54CHL1  H27C 3996   4.786   6.231   4.322 -0.5013 -0.4817 -1.4211
   55CHL1    C3 3997   3.203   0.254   2.737 -0.7170 -0.0997  0.0558
   55CHL1    H3 3998   3.131   0.177   2.770 -1.7555  0.4850 -0.7984
   55CHL1    O3 3999   3.207   0.254   2.592 -0.0257  0.1370 -0.1970
   55CHL1   H3' 4000   3.114   0.268   2.574 -0.2755 -1.3170 -0.2120
   55CHL1    C4 4001   3.170   0.398   2.776 -0.3369 -0.0400  0.1793
   55CHL1   H4A 4002   3.235   0.475   2.731  2.2788 -0.9980  2.0814
   55CHL1   H4B 4003   3.066   0.422   2.746 -0.5598  2.2469  2.4583
   55CHL1    C5 4004   3.175   0.412   2.924  0.2616 -0.1331  0.0307
   55CHL1    C6 4005   3.076   0.464   2.994  0.4041 -0.3713 -0.6376
   55CHL1    H6 4006   2.991   0.511   2.944  2.1011  2.5050 -1.0534
   55CHL1    C7 4007   3.071   0.495   3.138 -0.1432  0.6998  0.0343
   55CHL1   H7A 4008   3.042   0.600   3.162  1.3580  1.2287 -0.3792
   55CHL1   H7B 4009   2.991   0.430   3.180 -0.5163  1.0361 -0.1511
   55CHL1    C8 4010   3.211   0.475   3.207 -0.0164 -0.1967  1.6165
   55CHL1    H8 4011   3.267   0.570   3.191 -0.2862 -0.4996 -1.8232
   55CHL1   C14 4012   3.194   0.454   3.356  0.3868  0.3037  1.1146
   55CHL1   H14 4013   3.155   0.350   3.364 -1.3357  0.6299 -1.5961
   55CHL1   C15 4014   3.110   0.552   3.427  0.6899  0.4622 -0.6408
   55CHL1  H15A 4015   3.139   0.659   3.424 -0.4103  0.7960 -0.0830
   55CHL1  H15B 4016   3.004   0.538   3.398  0.3612  4.2026 -1.7850
   55CHL1   C16 4017   3.145   0.511   3.574  0.1304 -0.6406 -0.4840
   55CHL1  H16A 4018   3.186   0.605   3.617  1.3598 -0.0922 -2.6882
   55CHL1  H16B 4019   3.058   0.476   3.634 -1.0697  2.0116 -0.5393
   55CHL1   C17 4020   3.263   0.411   3.574 -0.6941 -0.1489 -0.1345
   55CHL1   H17 4021   3.214   0.311   3.581  2.1335 -1.5968  0.3905
   55CHL1   C13 4022   3.332   0.442   3.436  0.3732 -0.8457  0.4651
   55CHL1   C18 4023   3.426   0.564   3.440  0.0424  0.1354 -0.1764
   55CHL1  H18A 4024   3.462   0.588   3.338  0.5990  0.9284  0.1918
   55CHL1  H18B 4025   3.384   0.652   3.493  1.2000 -0.1245  1.2279
   55CHL1  H18C 4026   3.510   0.534   3.506  2.1256  2.6532 -1.5042
   55CHL1   C12 4027   3.399   0.321   3.374 -0.1875 -0.4842  0.4988
   55CHL1  H12A 4028   3.505   0.320   3.407  0.1866  0.6465 -0.6502
   55CHL1  H12B 4029   3.336   0.232   3.397 -0.0269 -1.2231 -1.7606
   55CHL1   C11 4030   3.417   0.346   3.220  0.5463  0.2353 -0.0826
   55CHL1  H11A 4031   3.480   0.435   3.203  0.3989  0.9089  2.4576
   55CHL1  H11B 4032   3.478   0.256   3.195 -1.3910 -1.3321  0.5889
   55CHL1    C9 4033   3.284   0.361   3.147  0.9472  0.2342  0.3564
   55CHL1    H9 4034   3.223   0.269   3.158 -0.3423  0.6823 -2.3832
   55CHL1   C10 4035   3.302   0.369   2.992 -0.5152  0.5238 -0.4312
   55CHL1   C19 4036   3.405   0.481   2.948  0.5276  0.4189  1.4373
   55CHL1  H19A 4037   3.384   0.581   2.990 -0.9681 -0.5398  3.0774
   55CHL1  H19B 4038   3.499   0.441   2.991  0.4071 -1.1297  0.3493
   55CHL1  H19C 4039   3.418   0.500   2.839 -2.7615  3.5385  1.4202
   55CHL1    C1 4040   3.356   0.236   2.933 -0.4253 -0.7189 -0.5300
   55CHL1   H1A 4041   3.466   0.233   2.949 -0.6246  0.1090  1.2461
   55CHL1   H1B 4042   3.309   0.149   2.984  1.3439 -0.7590  1.1742
   55CHL1    C2 4043   3.347   0.222   2.785 -0.1918  0.2522  0.1546
   55CHL1   H2A 4044   3.367   0.117   2.757  0.0408 -0.1377  1.6575
   55CHL1   H2B 4045   3.411   0.301   2.741 -0.2063  1.5607  2.3163
   55CHL1   C20 4046   3.357   0.416   3.698  0.1628 -0.2596  0.0517
   55CHL1   H20 4047   3.437   0.492   3.689  0.8207 -0.8474  0.8145
   55CHL1   C21 4048   3.425   0.277   3.707  0.4015 -0.1415  0.2260
   55CHL1  H21A 4049   3.480   0.249   3.614  1.3885 -1.3026  1.1262
   55CHL1  H21B 4050   3.346   0.202   3.729  1.3942 -0.8872  1.3965
   55CHL1  H21C 4051   3.490   0.271   3.797 -0.4395 -4.2920  0.7433
   55CHL1   C22 4052   3.275   0.448   3.825 -0.0573 -0.5664 -0.3223
   55CHL1  H22A 4053   3.250   0.556   3.820 -0.4394 -0.7097 -3.2122
   55CHL1  H22B 4054   3.176   0.398   3.828 -0.6801  0.5565 -1.4016
   55CHL1   C23 4055   3.355   0.435   3.957 -0.3454 -1.0565 -0.2870
   55CHL1  H23A 4056   3.391   0.330   3.968  2.2208 -0.6174 -3.1180
   55CHL1  H23B 4057   3.443   0.503   3.948 -2.7524  2.4804  0.5628
   55CHL1   C24 4058   3.278   0.474   4.089 -0.6191  0.1853 -0.2109
   55CHL1  H24A 4059   3.254   0.580   4.069 -0.1073  0.7781  2.0037
   55CHL1  H24B 4060   3.181   0.421   4.092  0.0055 -0.9776  1.9400
   55CHL1   C25 4061   3.359   0.447   4.224  0.4024 -0.4528  0.6988
   55CHL1   H25 4062   3.368   0.336   4.235 -0.4692 -0.4630  1.5238
   55CHL1   C26 4063   3.503   0.503   4.233 -0.1758  0.2936 -0.1030
   55CHL1  H26A 4064   3.504   0.607   4.194  0.7304  0.4922  0.4302
   55CHL1  H26B 4065   3.525   0.519   4.340  0.1547 -1.0731  0.0495
   55CHL1  H26C 4066   3.582   0.436   4.193 -1.1928 -0.2502 -1.2679
   55CHL1   C27 4067   3.270   0.506   4.341  0.0108  0.2093 -0.0862
   55CHL1  H27A 4068   3.258   0.615   4.320 -3.1208  0.2411  1.2803
   55CHL1  H27B 4069   3.165   0.471   4.348  0.2615 -0.4635  0.4398
   55CHL1  H27C 4070   3.333   0.504   4.433  1.8758  3.5950 -1.1079
   56CHL1    C3 4071   2.425   1.675   2.896 -0.4950  0.2163 -0.3439
   56CHL1    H3 4072   2.497   1.591   2.897 -0.6399  0.0892 -0.5793
   56CHL1    O3 4073   2.372   1.680   2.769  0.2606  0.4344 -0.2525
   56CHL1   H3' 4074   2.420   1.752   2.725  1.2324  0.0826  0.2143
   56CHL1    C4 4075   2.307   1.645   2.993 -0.3285  0.2875 -0.3917
   56CHL1   H4A 4076   2.236   1.729   2.976 -1.0990 -0.5199 -1.2251
   56CHL1   H4B 4077   2.252   1.551   2.972  2.7399 -1.5340 -0.8131
   56CHL1    C5 4078   2.358   1.643   3.140  0.1666 -0.8800 -0.6258
   56CHL1    C6 4079   2.340   1.541   3.225  0.7131 -0.2442  0.3029
   56CHL1    H6 4080   2.288   1.454   3.184 -1.2304  0.0846  1.8830
   56CHL1    C7 4081   2.372   1.534   3.373 -0.0128 -0.0912  0.4808
   56CHL1   H7A 4082   2.299   1.481   3.439  3.1270 -0.9087  3.6416
   56CHL1   H7B 4083   2.455   1.461   3.391 -0.3219 -1.1223 -1.8941
   56CHL1    C8 4084   2.413   1.685   3.427  0.2871  0.0065  1.0050
   56CHL1    H8 4085   2.315   1.735   3.434  0.8568  1.4856 -0.7992
   56CHL1   C14 4086   2.482   1.677   3.563  0.1057  0.7488  0.3555
   56CHL1   H14 4087   2.584   1.638   3.546  0.3939  2.0331 -1.0559
   56CHL1   C15 4088   2.409   1.599   3.672  0.3633  0.3622  0.4449
   56CHL1  H15A 4089   2.302   1.626   3.681  0.1196 -0.0203 -0.9666
   56CHL1  H15B 4090   2.416   1.492   3.642 -0.3344  0.0977  1.1800
   56CHL1   C16 4091   2.488   1.633   3.796 -0.2520 -0.2528  0.4081
   56CHL1  H16A 4092   2.420   1.652   3.882 -1.3742 -0.5816 -0.3867
   56CHL1  H16B 4093   2.557   1.553   3.831 -0.0029  0.5595  1.8422
   56CHL1   C17 4094   2.567   1.764   3.771 -0.0652  0.0356  0.1511
   56CHL1   H17 4095   2.667   1.721   3.749  0.1898 -1.2533  3.2503
   56CHL1   C13 4096   2.509   1.809   3.634  0.3383 -0.6513  0.2094
   56CHL1   C18 4097   2.380   1.886   3.656  0.0060 -0.7186 -0.2092
   56CHL1  H18A 4098   2.322   1.835   3.736 -0.6706 -0.1219 -0.3063
   56CHL1  H18B 4099   2.401   1.993   3.678  0.0887 -1.0500  1.4913
   56CHL1  H18C 4100   2.322   1.887   3.561  1.3393  0.2371 -1.0459
   56CHL1   C12 4101   2.602   1.883   3.533 -0.3512  0.0275 -0.2341
   56CHL1  H12A 4102   2.629   1.983   3.574  0.0684 -0.6302  1.1189
   56CHL1  H12B 4103   2.697   1.827   3.526 -1.1228 -1.3979  0.2658
   56CHL1   C11 4104   2.538   1.896   3.387 -0.2646 -0.2969 -0.1242
   56CHL1  H11A 4105   2.445   1.957   3.398  0.9226  1.2624  1.8433
   56CHL1  H11B 4106   2.612   1.950   3.325 -0.8582  0.0449 -0.5478
   56CHL1    C9 4107   2.499   1.758   3.318 -0.0186 -0.1764 -0.0603
   56CHL1    H9 4108   2.596   1.705   3.306  0.0408  0.1773 -1.1681
   56CHL1   C10 4109   2.441   1.766   3.179 -0.1937  0.5693 -0.8638
   56CHL1   C19 4110   2.341   1.888   3.178  0.2796 -0.0271  0.2153
   56CHL1  H19A 4111   2.403   1.980   3.166 -1.1943  0.7065 -2.5205
   56CHL1  H19B 4112   2.266   1.899   3.097 -0.3972  1.4101  0.9901
   56CHL1  H19C 4113   2.278   1.886   3.269 -2.1898 -0.4685 -1.3948
   56CHL1    C1 4114   2.547   1.802   3.075  0.5108  0.0267 -0.3554
   56CHL1   H1A 4115   2.597   1.897   3.101 -1.9103  1.5976 -1.1131
   56CHL1   H1B 4116   2.617   1.717   3.060  3.9008  2.4528  0.5787
   56CHL1    C2 4117   2.484   1.808   2.928 -0.6140  0.5510 -0.5287
   56CHL1   H2A 4118   2.551   1.844   2.847 -0.3319 -1.7994 -1.4062
   56CHL1   H2B 4119   2.408   1.888   2.919 -0.8250  0.3403 -0.6122
   56CHL1   C20 4120   2.579   1.862   3.884 -0.2167 -1.1537 -0.0284
   56CHL1   H20 4121   2.478   1.904   3.900  0.0689 -1.0377  1.5434
   56CHL1   C21 4122   2.662   1.987   3.846 -0.4687  0.1930  0.5241
   56CHL1  H21A 4123   2.646   2.057   3.930  0.0330  1.3662 -0.3299
   56CHL1  H21B 4124   2.619   2.043   3.760  2.1253  1.2492 -0.1958
   56CHL1  H21C 4125   2.771   1.973   3.828 -0.2493  0.0896  1.8300
   56CHL1   C22 4126   2.632   1.795   4.011  0.1689  0.3822  0.2808
   56CHL1  H22A 4127   2.609   1.687   4.027 -0.2579  0.1125 -1.8946
   56CHL1  H22B 4128   2.737   1.785   3.976 -0.2234  1.8935 -1.4524
   56CHL1   C23 4129   2.625   1.880   4.141  0.2446  0.6495  0.0178
   56CHL1  H23A 4130   2.680   1.976   4.135 -1.4384  1.5964 -0.6926
   56CHL1  H23B 4131   2.517   1.896   4.163 -0.3653 -0.1198 -2.1482
   56CHL1   C24 4132   2.684   1.808   4.274 -0.4444 -0.7102  0.4935
   56CHL1  H24A 4133   2.638   1.706   4.281  2.0821 -2.0256 -0.7797
   56CHL1  H24B 4134   2.793   1.794   4.263  0.1614  1.8925  2.3047
   56CHL1   C25 4135   2.659   1.902   4.396  0.1346  0.1432  0.2580
   56CHL1   H25 4136   2.560   1.945   4.369 -0.1333 -1.2094 -1.1106
   56CHL1   C26 4137   2.660   1.832   4.531  0.2465  0.4453  0.2995
   56CHL1  H26A 4138   2.758   1.779   4.537  0.0460  0.0333  0.0506
   56CHL1  H26B 4139   2.652   1.904   4.614 -2.0145  0.9087 -0.2648
   56CHL1  H26C 4140   2.586   1.752   4.551  1.7887 -0.5975  2.2772
   56CHL1   C27 4141   2.763   2.015   4.393  0.4843  0.0054 -0.6990
   56CHL1  H27A 4142   2.783   2.065   4.295 -0.0557  0.8778 -0.3757
   56CHL1  H27B 4143   2.745   2.086   4.477 -1.3345 -0.5867 -0.5476
   56CHL1  H27C 4144   2.860   1.968   4.419  0.3219 -0.7641 -1.4290
   57SAPC     N 4145   1.097   2.843   6.674  0.1730  0.8938  0.4974
   57SAPC   C12 4146   0.956   2.808   6.610  0.4467  0.1768  0.3285
   57SAPC  H12A 4147   0.934   2.894   6.548  1.6805 -0.7678 -1.5165
   57SAPC  H12B 4148   0.884   2.782   6.686  0.6467 -2.4015 -0.2676
   57SAPC   C13 4149   1.196   2.866   6.564 -0.5152 -0.0832  0.7662
   57SAPC  H13A 4150   1.204   2.791   6.487  1.0642  2.5821 -1.8611
   57SAPC  H13B 4151   1.163   2.959   6.520  2.4058 -0.5915 -2.9715
   57SAPC  H13C 4152   1.295   2.890   6.600  0.4653 -1.1097 -1.1165
   57SAPC   C14 4153   1.083   2.963   6.755 -0.4204 -0.1180 -0.1602
   57SAPC  H14A 4154   1.032   2.941   6.848  2.6046  2.8616  2.4913
   57SAPC  H14B 4155   1.183   2.997   6.780  0.4803 -0.8288 -2.5752
   57SAPC  H14C 4156   1.035   3.052   6.717  1.3669  0.8769 -0.2285
   57SAPC   C15 4157   1.147   2.736   6.764  0.5715  0.1418  0.8114
   57SAPC  H15A 4158   1.162   2.651   6.700  0.0647 -0.9872  2.1387
   57SAPC  H15B 4159   1.239   2.759   6.816 -0.3742 -0.5510  2.9075
   57SAPC  H15C 4160   1.073   2.697   6.833  0.6283  0.8978  1.3116
   57SAPC   C11 4161   0.948   2.690   6.506  0.0433 -0.3870 -0.0551
   57SAPC  H11A 4162   0.845   2.649   6.505  0.3495 -1.1666 -0.0233
   57SAPC  H11B 4163   1.009   2.603   6.536 -1.3847 -1.2401  0.4956
   57SAPC     P 4164   0.906   2.836   6.295  0.0362 -0.1784 -0.3999
   57SAPC   O13 4165   0.774   2.773   6.276  0.2632 -0.1617  0.2241
   57SAPC   O14 4166   0.896   2.973   6.363 -0.4537 -0.2164  0.0061
   57SAPC   O12 4167   0.994   2.741   6.385  0.1032 -0.5772 -0.2513
   57SAPC   O11 4168   0.979   2.859   6.158 -0.3081 -0.0781  0.7042
   57SAPC    C1 4169   1.082   2.946   6.131  0.2246 -0.1137  0.8005
   57SAPC    HA 4170   1.150   2.967   6.217  1.0618 -1.8259  0.5947
   57SAPC    HB 4171   1.136   2.885   6.055 -1.7081 -0.7729 -0.0975
   57SAPC    C2 4172   1.037   3.080   6.061 -0.4198  0.0898  0.4725
   57SAPC    HS 4173   1.005   3.147   6.144 -0.8723 -0.9638  1.1844
   57SAPC   O21 4174   0.925   3.044   5.977 -0.3020 -0.1024 -0.4168
   57SAPC   C21 4175   0.828   3.132   5.951  1.0560  0.4821 -0.8600
   57SAPC   O22 4176   0.817   3.234   6.022  0.3762 -0.6966 -0.3534
   57SAPC   C22 4177   0.741   3.093   5.838  0.0382  0.1531 -0.3738
   57SAPC   H2R 4178   0.779   3.001   5.788  1.3052  0.7897 -0.6098
   57SAPC   H2S 4179   0.643   3.062   5.880 -0.0413  1.9254  0.8251
   57SAPC    C3 4180   1.152   3.146   5.983  0.4711  0.1574  0.6258
   57SAPC    HX 4181   1.176   3.091   5.890 -2.3300 -0.9233  0.4499
   57SAPC    HY 4182   1.241   3.130   6.048  0.6178 -1.2172  0.1232
   57SAPC   O31 4183   1.137   3.286   5.949  0.2462 -0.0888  0.2525
   57SAPC   C31 4184   1.120   3.365   6.055 -0.1247  0.1385 -1.0973
   57SAPC   O32 4185   1.148   3.336   6.173  0.2997  0.5332  0.3115
   57SAPC   C32 4186   1.074   3.500   6.010  0.3508 -0.1566  0.1054
   57SAPC   H2X 4187   1.158   3.564   5.975 -0.3519  0.9378  0.4048
   57SAPC   H2Y 4188   1.024   3.554   6.093  0.8192  0.5998 -0.1000
   57SAPC   C23 4189   0.725   3.203   5.730 -0.6241 -0.4229 -1.1011
   57SAPC   H3R 4190   0.718   3.309   5.761  0.5638 -0.1350 -1.7683
   57SAPC   H3S 4191   0.628   3.191   5.678 -1.5772  0.3030  0.4425
   57SAPC   C24 4192   0.831   3.194   5.614  0.8347 -0.4290  0.4609
   57SAPC   H4R 4193   0.836   3.296   5.570  4.4883 -1.7583 -2.7384
   57SAPC   H4S 4194   0.778   3.148   5.528 -0.3125 -0.1446  0.9953
   57SAPC   C25 4195   0.966   3.138   5.636 -0.0823  0.3655  0.2474
   57SAPC   H5R 4196   1.018   3.156   5.731  0.4119  0.4563 -0.0371
   57SAPC   C26 4197   1.029   3.050   5.553  0.3812  0.5348  0.0616
   57SAPC   H6R 4198   1.131   3.012   5.572  0.8399  1.1020 -1.1161
   57SAPC   C27 4199   0.981   3.015   5.412  0.5382 -0.4176 -0.9379
   57SAPC   H7R 4200   0.935   3.104   5.364 -0.2374 -0.6709 -0.6779
   57SAPC   H7S 4201   0.888   2.958   5.433 -1.0093  1.8276 -1.2674
   57SAPC   C28 4202   1.093   2.940   5.343 -0.1629 -0.3330 -0.6876
   57SAPC   H8R 4203   1.142   2.861   5.402 -1.8185  0.6820  2.2237
   57SAPC   C29 4204   1.129   2.960   5.217  0.5172 -0.3210 -0.0078
   57SAPC   H9R 4205   1.224   2.921   5.176  2.7619  1.6857  2.8044
   57SAPC  C210 4206   1.063   3.055   5.116  0.0440 -0.0032 -0.4825
   57SAPC  H10R 4207   0.952   3.046   5.126  0.0537 -0.5186 -0.8114
   57SAPC  H10S 4208   1.083   3.032   5.010  1.1896 -1.3927  0.0028
   57SAPC  C211 4209   1.098   3.199   5.130 -0.3509 -0.0908  1.3474
   57SAPC  H11R 4210   1.029   3.257   5.192 -1.6011  0.1975 -0.2397
   57SAPC  C212 4211   1.200   3.261   5.068  0.3910 -0.1018  1.1633
   57SAPC  H12R 4212   1.218   3.366   5.095  3.2596 -0.3612  0.5496
   57SAPC  C213 4213   1.303   3.203   4.971 -0.2505  0.2390  0.2801
   57SAPC  H13R 4214   1.256   3.138   4.894 -1.1492  0.5223  0.5723
   57SAPC  H13S 4215   1.380   3.149   5.029 -0.5830  0.2888  0.7722
   57SAPC  C214 4216   1.388   3.309   4.899  0.2975 -0.8717 -0.3942
   57SAPC  H14R 4217   1.442   3.372   4.971 -2.7231 -0.1273  1.3960
   57SAPC  C215 4218   1.412   3.311   4.765  0.9890 -0.0839  0.8704
   57SAPC  H15R 4219   1.479   3.386   4.720  0.3614  0.6426  1.1247
   57SAPC  C216 4220   1.350   3.233   4.650  0.0689  0.6070 -0.0435
   57SAPC  H16R 4221   1.269   3.298   4.610 -0.0003  1.2092  1.0171
   57SAPC  H16S 4222   1.309   3.137   4.687 -0.2988 -0.2820 -2.5563
   57SAPC  C217 4223   1.445   3.193   4.534  0.0437 -0.7212 -0.4786
   57SAPC  H17R 4224   1.386   3.121   4.473 -1.1872  0.3505 -0.5999
   57SAPC  H17S 4225   1.538   3.147   4.574 -0.2411 -0.0579  1.0166
   57SAPC  C218 4226   1.493   3.300   4.436 -0.0546 -0.2287  0.1387
   57SAPC  H18R 4227   1.567   3.365   4.488 -0.1287 -0.0014 -0.0383
   57SAPC  H18S 4228   1.411   3.362   4.394 -0.6263 -0.4497  0.8945
   57SAPC  C219 4229   1.555   3.229   4.313  0.4690  0.3731  0.6102
   57SAPC  H19R 4230   1.474   3.168   4.267  1.0214 -0.6055  0.9015
   57SAPC  H19S 4231   1.623   3.147   4.345 -2.0527 -2.0805  0.0446
   57SAPC  C220 4232   1.605   3.317   4.202  0.2042  0.3116  0.3906
   57SAPC  H20R 4233   1.635   3.248   4.120 -0.3342  0.4776  0.0498
   57SAPC  H20S 4234   1.691   3.383   4.226 -0.4672  2.3687 -2.3378
   57SAPC  H20T 4235   1.530   3.394   4.174 -0.7307 -0.7353 -0.0854
   57SAPC   C33 4236   0.971   3.493   5.897  0.1698 -0.1454 -0.0805
   57SAPC   H3X 4237   0.894   3.413   5.905  0.4300 -0.2840  1.2957
   57SAPC   H3Y 4238   1.024   3.458   5.806 -0.0584 -1.4673  0.2685
   57SAPC   C34 4239   0.894   3.624   5.862  0.2541 -0.2037 -0.4381
   57SAPC   H4X 4240   0.967   3.701   5.829 -0.1308  0.1027 -0.5857
   57SAPC   H4Y 4241   0.853   3.653   5.961  0.5065 -0.2266 -0.3270
   57SAPC   C35 4242   0.796   3.603   5.747 -0.0750  0.2669  0.0615
   57SAPC   H5X 4243   0.695   3.573   5.784  1.0096 -2.3886  1.0731
   57SAPC   H5Y 4244   0.833   3.509   5.702  0.2439 -0.0872  1.0494
   57SAPC   C36 4245   0.811   3.705   5.640  0.4583 -0.3417 -0.5189
   57SAPC   H6X 4246   0.917   3.708   5.607  0.9055  1.8924  0.9342
   57SAPC   H6Y 4247   0.794   3.807   5.679 -2.0159 -1.4569  1.6708
   57SAPC   C37 4248   0.710   3.670   5.535 -0.4853  0.4548 -0.6497
   57SAPC   H7X 4249   0.608   3.665   5.577 -0.2905  4.1768  0.6175
   57SAPC   H7Y 4250   0.727   3.564   5.506 -0.7229 -0.3445  1.8862
   57SAPC   C38 4251   0.727   3.766   5.427  0.8693 -0.2691 -0.3915
   57SAPC   H8X 4252   0.833   3.772   5.394  1.2105 -2.2185  0.2534
   57SAPC   H8Y 4253   0.709   3.867   5.471 -1.4271 -1.1756  0.9490
   57SAPC   C39 4254   0.642   3.734   5.304  0.0950  1.2161 -0.4880
   57SAPC   H9X 4255   0.548   3.695   5.349  0.3751  1.4480  0.2983
   57SAPC   H9Y 4256   0.690   3.653   5.244 -0.5840  0.3475  0.1246
   57SAPC  C310 4257   0.608   3.854   5.215  0.1006 -0.0065  0.2960
   57SAPC  H10X 4258   0.559   3.932   5.277  0.5428  0.0529  0.5760
   57SAPC  H10Y 4259   0.539   3.839   5.129  0.5019  0.7598 -0.1741
   57SAPC  C311 4260   0.734   3.916   5.149 -0.1466 -0.0414 -0.3405
   57SAPC  H11X 4261   0.783   3.825   5.109 -1.1460 -1.6084  1.7931
   57SAPC  H11Y 4262   0.799   3.958   5.230  0.4045 -1.0725 -0.2354
   57SAPC  C312 4263   0.716   4.030   5.049 -0.0996  1.1928 -0.4208
   57SAPC  H12X 4264   0.678   4.111   5.115  0.8702  0.9704  0.4310
   57SAPC  H12Y 4265   0.637   3.990   4.981  0.3669  2.3103 -1.6603
   57SAPC  C313 4266   0.832   4.079   4.980  0.4645 -0.4799  0.3352
   57SAPC  H13X 4267   0.872   3.997   4.916  0.6285 -0.5533  0.5314
   57SAPC  H13Y 4268   0.918   4.113   5.041 -1.5447  3.3651  1.3938
   57SAPC  C314 4269   0.804   4.184   4.874 -0.4129  0.1244 -0.3484
   57SAPC  H14X 4270   0.792   4.284   4.921  1.2045 -1.0366  2.8211
   57SAPC  H14Y 4271   0.711   4.163   4.818 -0.5806  2.4677 -1.0822
   57SAPC  C315 4272   0.913   4.196   4.771 -0.5879  0.4447  0.5484
   57SAPC  H15X 4273   0.917   4.100   4.715 -0.2816  1.4942 -1.3149
   57SAPC  H15Y 4274   1.013   4.201   4.819 -0.4952  1.5120  0.2535
   57SAPC  C316 4275   0.890   4.302   4.670  0.5022  0.1996 -0.0058
   57SAPC  H16X 4276   0.879   4.401   4.718  0.5456  0.7504 -1.1036
   57SAPC  H16Y 4277   0.800   4.277   4.609  0.1804  1.0235  0.1229
   57SAPC  C317 4278   1.016   4.322   4.580 -0.6869 -0.0847 -0.0781
   57SAPC  H17X 4279   1.041   4.225   4.532  0.3780 -1.4714  2.9775
   57SAPC  H17Y 4280   1.101   4.366   4.635 -2.2329  2.7631  0.1983
   57SAPC  C318 4281   0.979   4.425   4.477  0.3355 -0.2387  0.3028
   57SAPC  H18X 4282   0.923   4.510   4.522  1.3805  0.6253  0.0169
   57SAPC  H18Y 4283   0.922   4.376   4.395  1.6899 -1.5495  0.1173
   57SAPC  H18Z 4284   1.066   4.479   4.434  0.4774  1.5341  2.6490
   58SAPC     N 4285   2.997   3.149   6.764  0.2489 -0.3032  0.3306
   58SAPC   C12 4286   3.004   3.003   6.722  0.9217 -0.4762 -0.2412
   58SAPC  H12A 4287   2.905   2.982   6.685  1.6814 -1.0894 -2.0025
   58SAPC  H12B 4288   3.030   2.939   6.805  0.0713 -0.6584 -0.1083
   58SAPC   C13 4289   2.918   3.172   6.887 -0.0079 -0.0700 -0.5999
   58SAPC  H13A 4290   2.895   3.277   6.900  0.2820  0.0617 -1.1448
   58SAPC  H13B 4291   2.828   3.112   6.886 -0.3023  0.3559 -0.0973
   58SAPC  H13C 4292   2.971   3.136   6.974 -1.4204 -0.5164  0.1111
   58SAPC   C14 4293   3.130   3.214   6.782 -0.3876  0.0195  0.1390
   58SAPC  H14A 4294   3.110   3.314   6.819  0.4592  0.3280 -0.2096
   58SAPC  H14B 4295   3.192   3.154   6.847  0.9220 -1.0533 -1.9979
   58SAPC  H14C 4296   3.182   3.219   6.688  0.8340  0.4295  0.8131
   58SAPC   C15 4297   2.924   3.222   6.653  0.5076 -0.1547  0.0666
   58SAPC  H15A 4298   2.961   3.192   6.556  0.2078 -0.2307 -0.0259
   58SAPC  H15B 4299   2.817   3.208   6.645  0.5674  0.1387 -1.8502
   58SAPC  H15C 4300   2.933   3.329   6.665  2.7255 -0.4353  1.4537
   58SAPC   C11 4301   3.086   2.965   6.596  0.3288 -0.0989  0.4688
   58SAPC  H11A 4302   3.105   2.856   6.596 -0.4033 -0.2360  1.4706
   58SAPC  H11B 4303   3.186   3.013   6.586 -0.7845  1.9755 -2.0492
   58SAPC     P 4304   2.915   2.908   6.407  0.0759  0.1707 -0.0899
   58SAPC   O13 4305   2.848   2.823   6.507  0.3530  0.7057  0.2641
   58SAPC   O14 4306   2.829   2.989   6.319 -0.1125 -0.2300 -0.0622
   58SAPC   O12 4307   3.015   3.007   6.479  0.3951  0.3452  0.6864
   58SAPC   O11 4308   2.997   2.805   6.313 -0.1521  0.4084  0.1282
   58SAPC    C1 4309   3.130   2.825   6.263 -0.3173 -1.3106  1.0475
   58SAPC    HA 4310   3.195   2.879   6.335  0.6365  1.0440 -1.4283
   58SAPC    HB 4311   3.173   2.724   6.248 -0.8365 -1.3331 -0.3989
   58SAPC    C2 4312   3.134   2.901   6.120  0.0755 -0.0417 -0.0277
   58SAPC    HS 4313   3.102   3.007   6.131  1.4455  0.7906 -2.9704
   58SAPC   O21 4314   3.044   2.834   6.024  0.0799  0.2322 -0.3458
   58SAPC   C21 4315   2.993   2.908   5.923 -0.0373  0.8835  0.0695
   58SAPC   O22 4316   3.015   3.027   5.908 -0.5807 -0.1201  0.0075
   58SAPC   C22 4317   2.916   2.820   5.825  0.1641  0.4995  0.1124
   58SAPC   H2R 4318   2.959   2.719   5.810 -1.5948 -0.0131 -1.9900
   58SAPC   H2S 4319   2.824   2.792   5.880  0.7187 -0.6470  0.4837
   58SAPC    C3 4320   3.276   2.909   6.050  0.1806  0.2859  0.5284
   58SAPC    HX 4321   3.321   2.807   6.049 -0.6906 -0.1268 -0.8307
   58SAPC    HY 4322   3.336   2.965   6.124 -0.4906 -1.0318  2.1449
   58SAPC   O31 4323   3.273   2.965   5.914 -0.2953  1.0171 -0.4665
   58SAPC   C31 4324   3.317   3.087   5.902  0.2135  0.5164  0.4093
   58SAPC   O32 4325   3.360   3.159   5.990 -0.5292 -0.2295 -0.2495
   58SAPC   C32 4326   3.316   3.110   5.746 -0.0212 -0.6080  0.2724
   58SAPC   H2X 4327   3.219   3.073   5.708 -0.5453  2.3018 -1.6104
   58SAPC   H2Y 4328   3.400   3.049   5.707  1.2840  1.0272  0.3740
   58SAPC   C23 4329   2.868   2.887   5.695  0.4744 -0.7704  0.4361
   58SAPC   H3R 4330   2.959   2.907   5.635 -0.4465 -1.2477 -1.1701
   58SAPC   H3S 4331   2.833   2.992   5.704  1.7050 -0.3110  0.0588
   58SAPC   C24 4332   2.774   2.792   5.616 -0.6471  0.4233  0.1280
   58SAPC   H4R 4333   2.671   2.801   5.657 -0.2776  2.8989  0.7198
   58SAPC   H4S 4334   2.812   2.693   5.648 -0.0245  0.6810  0.2037
   58SAPC   C25 4335   2.780   2.788   5.459  0.0549  0.1661 -1.6712
   58SAPC   H5R 4336   2.881   2.779   5.418  0.3887  0.9839 -1.0420
   58SAPC   C26 4337   2.679   2.815   5.375  0.2384  0.3090 -0.1359
   58SAPC   H6R 4338   2.705   2.802   5.269  1.7080 -1.0683  0.3601
   58SAPC   C27 4339   2.537   2.864   5.404  0.4374 -0.1202  0.4035
   58SAPC   H7R 4340   2.546   2.969   5.439  0.5389  0.0405 -0.1026
   58SAPC   H7S 4341   2.487   2.809   5.487 -0.1434  1.1647  0.9397
   58SAPC   C28 4342   2.438   2.857   5.288 -0.1587  0.2528  0.1737
   58SAPC   H8R 4343   2.444   2.769   5.222  0.2696  0.1660  0.3214
   58SAPC   C29 4344   2.328   2.932   5.271 -0.4881 -0.6173  0.9470
   58SAPC   H9R 4345   2.253   2.898   5.199  0.2872 -1.9819  0.7506
   58SAPC  C210 4346   2.293   3.050   5.359 -0.4949 -0.4576 -0.1500
   58SAPC  H10R 4347   2.379   3.120   5.358 -1.2284  0.6102  2.2799
   58SAPC  H10S 4348   2.283   3.012   5.463  0.6452 -1.9266 -0.5400
   58SAPC  C211 4349   2.168   3.125   5.320  0.4035 -0.7559 -0.2578
   58SAPC  H11R 4350   2.082   3.128   5.388  1.3676 -1.4875  1.0331
   58SAPC  C212 4351   2.140   3.186   5.200 -0.2308 -0.3110  0.0002
   58SAPC  H12R 4352   2.047   3.241   5.183  0.2395  0.0951 -1.4124
   58SAPC  C213 4353   2.233   3.178   5.085  0.7682  1.0446  0.4275
   58SAPC  H13R 4354   2.332   3.139   5.118 -0.2105 -1.3439  0.7438
   58SAPC  H13S 4355   2.242   3.273   5.028  0.4577 -0.8551 -3.0162
   58SAPC  C214 4356   2.195   3.078   4.983 -0.9768 -0.2186  0.0468
   58SAPC  H14R 4357   2.118   3.003   5.004 -3.5950  2.5384  1.0674
   58SAPC  C215 4358   2.263   3.067   4.862 -0.6048  0.5081  0.2403
   58SAPC  H15R 4359   2.232   2.995   4.786  0.1522  0.3860  0.0317
   58SAPC  C216 4360   2.375   3.152   4.822 -0.7631 -0.6094  0.0585
   58SAPC  H16R 4361   2.463   3.093   4.788 -0.3202  0.8372 -1.4288
   58SAPC  H16S 4362   2.420   3.206   4.908 -1.3844  0.1642 -0.0897
   58SAPC  C217 4363   2.329   3.257   4.720  0.7825  0.1912  0.2614
   58SAPC  H17R 4364   2.241   3.308   4.764 -0.9045 -2.4793  0.1691
   58SAPC  H17S 4365   2.280   3.206   4.635 -3.4577 -1.4848  3.3697
   58SAPC  C218 4366   2.432   3.359   4.682  0.1889  0.2897  0.1439
   58SAPC  H18R 4367   2.531   3.309   4.680 -0.0958 -0.3192  0.7527
   58SAPC  H18S 4368   2.446   3.432   4.764  0.7045 -0.7809  1.0289
   58SAPC  C219 4369   2.412   3.447   4.562 -0.9565  0.0667  0.5163
   58SAPC  H19R 4370   2.489   3.526   4.558 -0.4772 -0.4670 -1.4741
   58SAPC  H19S 4371   2.315   3.502   4.568  0.4472  2.7327 -0.0140
   58SAPC  C220 4372   2.417   3.368   4.430 -0.1543 -0.0216  0.4383
   58SAPC  H20R 4373   2.410   3.439   4.344  2.3108  0.1330  0.2967
   58SAPC  H20S 4374   2.333   3.297   4.419 -1.6611  1.9576 -2.1180
   58SAPC  H20T 4375   2.507   3.304   4.419  0.3385  0.2303  2.5852
   58SAPC   C33 4376   3.327   3.256   5.689 -0.1318 -0.3399  0.0252
   58SAPC   H3X 4377   3.408   3.310   5.742  0.0913  0.7517 -1.3657
   58SAPC   H3Y 4378   3.226   3.294   5.716 -0.7363 -1.1116 -1.0434
   58SAPC   C34 4379   3.348   3.263   5.538  0.0383 -0.0783  0.1422
   58SAPC   H4X 4380   3.432   3.196   5.510  0.1322 -1.3267  3.0844
   58SAPC   H4Y 4381   3.388   3.365   5.517 -1.1584  0.4959  0.5777
   58SAPC   C35 4382   3.231   3.230   5.456  0.5253  0.2963  0.7679
   58SAPC   H5X 4383   3.155   3.300   5.498  1.4921  1.4930  0.5665
   58SAPC   H5Y 4384   3.199   3.126   5.475  1.4442  0.0445  0.9699
   58SAPC   C36 4385   3.243   3.249   5.302 -0.1404 -0.2566  0.8154
   58SAPC   H6X 4386   3.144   3.225   5.259  0.3189 -1.3796  0.3469
   58SAPC   H6Y 4387   3.323   3.177   5.274  0.4112  1.3869 -2.2668
   58SAPC   C37 4388   3.288   3.387   5.244  0.1232  0.0882 -0.6475
   58SAPC   H7X 4389   3.337   3.384   5.144  4.0131  0.2242  1.0555
   58SAPC   H7Y 4390   3.377   3.414   5.304  0.1034 -1.6471  0.2370
   58SAPC   C38 4391   3.175   3.492   5.246 -0.2637  0.5108  0.9657
   58SAPC   H8X 4392   3.176   3.556   5.336  0.8292  0.2383  1.1618
   58SAPC   H8Y 4393   3.081   3.433   5.249  0.7087 -1.4519 -2.2817
   58SAPC   C39 4394   3.152   3.579   5.118 -0.3918  0.6867  0.5124
   58SAPC   H9X 4395   3.247   3.632   5.095 -0.8168  1.1344 -0.2438
   58SAPC   H9Y 4396   3.078   3.659   5.141 -0.9079 -0.2260  2.1302
   58SAPC  C310 4397   3.099   3.496   4.999  0.6464  0.3187  0.9556
   58SAPC  H10X 4398   2.996   3.467   5.032  0.2086 -0.5195 -0.9953
   58SAPC  H10Y 4399   3.151   3.402   4.970 -0.6337 -0.1464  0.0630
   58SAPC  C311 4400   3.081   3.580   4.870 -0.6834 -0.2005 -0.2042
   58SAPC  H11X 4401   3.186   3.612   4.850  0.3864 -2.6148  1.0842
   58SAPC  H11Y 4402   3.022   3.671   4.893  1.0892  0.7443  0.8974
   58SAPC  C312 4403   3.031   3.496   4.747 -0.2445  0.5693 -0.3736
   58SAPC  H12X 4404   2.922   3.476   4.749 -0.3381  0.7411 -2.0825
   58SAPC  H12Y 4405   3.081   3.398   4.752 -0.6751  0.4039  2.4034
   58SAPC  C313 4406   3.058   3.568   4.613  0.4366 -0.2220  0.0812
   58SAPC  H13X 4407   3.166   3.572   4.590  0.4740  3.0137  0.3133
   58SAPC  H13Y 4408   3.030   3.675   4.618  1.1501  0.0218 -0.9540
   58SAPC  C314 4409   2.983   3.499   4.500 -0.2594 -0.0215 -0.0318
   58SAPC  H14X 4410   2.876   3.501   4.529 -0.1903  0.6214  0.1911
   58SAPC  H14Y 4411   2.999   3.390   4.493  0.9225  0.2094 -1.4952
   58SAPC  C315 4412   3.007   3.562   4.363 -0.0566  0.0915  0.7435
   58SAPC  H15X 4413   3.117   3.574   4.356 -0.0448  1.4349  2.5910
   58SAPC  H15Y 4414   2.958   3.662   4.361 -1.2782 -0.4852  0.6608
   58SAPC  C316 4415   2.961   3.472   4.244  0.2280 -0.0744 -0.9975
   58SAPC  H16X 4416   3.030   3.385   4.252  1.1449  0.6729 -0.5632
   58SAPC  H16Y 4417   2.984   3.516   4.145  2.1060 -2.0845 -1.5450
   58SAPC  C317 4418   2.812   3.420   4.244 -0.3659 -0.3382  0.0571
   58SAPC  H17X 4419   2.751   3.491   4.184 -0.2590  0.0348  0.3839
   58SAPC  H17Y 4420   2.767   3.412   4.345 -1.6714  2.2199 -0.2279
   58SAPC  C318 4421   2.807   3.283   4.187 -0.1252  0.5380  0.0820
   58SAPC  H18X 4422   2.877   3.212   4.237 -1.0270 -0.3198  0.1463
   58SAPC  H18Y 4423   2.827   3.278   4.078  1.9257 -0.9255  0.4604
   58SAPC  H18Z 4424   2.705   3.240   4.196  0.4024 -0.9610 -0.7372
   59SAPC     N 4425   3.291   3.821   6.709  0.1421  0.0613  0.3408
   59SAPC   C12 4426   3.274   3.903   6.581  0.6691  0.8216  0.3905
   59SAPC  H12A 4427   3.335   3.991   6.591  0.4588  0.9459  0.5993
   59SAPC  H12B 4428   3.169   3.929   6.585  0.1672 -1.1543  1.5714
   59SAPC   C13 4429   3.420   3.754   6.701  0.2238  0.6803 -0.8669
   59SAPC  H13A 4430   3.502   3.822   6.688  1.4871 -0.3537  1.2614
   59SAPC  H13B 4431   3.435   3.694   6.789  0.6676  0.6134 -0.9853
   59SAPC  H13C 4432   3.421   3.683   6.619 -1.3278  0.9691 -1.1689
   59SAPC   C14 4433   3.282   3.911   6.824 -0.6660 -0.0773  0.1429
   59SAPC  H14A 4434   3.184   3.955   6.830 -1.3906 -1.5585 -0.5012
   59SAPC  H14B 4435   3.293   3.854   6.915 -2.5335  0.5185  0.7973
   59SAPC  H14C 4436   3.359   3.987   6.822 -1.3410  0.6204 -2.6996
   59SAPC   C15 4437   3.186   3.718   6.716 -0.4661 -0.2313 -0.2976
   59SAPC  H15A 4438   3.099   3.767   6.757  0.2569 -0.3378  1.4776
   59SAPC  H15B 4439   3.170   3.685   6.615  0.1296  0.6947 -0.7059
   59SAPC  H15C 4440   3.202   3.632   6.779 -0.8047 -1.5190 -1.9059
   59SAPC   C11 4441   3.318   3.848   6.446  0.1236  0.3936  0.0366
   59SAPC  H11A 4442   3.428   3.834   6.450 -0.1092 -1.7058  0.0487
   59SAPC  H11B 4443   3.305   3.927   6.368 -0.6077  0.5347  0.2899
   59SAPC     P 4444   3.134   3.707   6.319 -0.0187  0.2021 -0.0128
   59SAPC   O13 4445   3.051   3.600   6.378 -0.2572  0.6435  0.2879
   59SAPC   O14 4446   3.071   3.836   6.295  0.1495 -0.2843 -0.7597
   59SAPC   O12 4447   3.257   3.721   6.414 -0.0572  0.0909  0.0404
   59SAPC   O11 4448   3.203   3.658   6.187  0.5867  0.1157 -0.1478
   59SAPC    C1 4449   3.252   3.527   6.161  0.2446 -0.1767 -0.4998
   59SAPC    HA 4450   3.363   3.529   6.167  0.4204 -2.1703 -1.9407
   59SAPC    HB 4451   3.228   3.447   6.235  1.3227 -0.0217  0.0343
   59SAPC    C2 4452   3.221   3.483   6.016 -0.2488 -0.6061  0.3534
   59SAPC    HS 4453   3.264   3.382   5.995  0.3101 -0.0643 -1.2467
   59SAPC   O21 4454   3.261   3.566   5.908  0.3514 -0.0069 -0.9157
   59SAPC   C21 4455   3.385   3.595   5.893  0.2094  0.0279  0.0984
   59SAPC   O22 4456   3.480   3.537   5.948 -0.1360  0.6731 -0.6883
   59SAPC   C22 4457   3.407   3.698   5.785  0.9799  0.4094 -0.2759
   59SAPC   H2R 4458   3.316   3.748   5.744 -0.3840 -1.7468 -0.0341
   59SAPC   H2S 4459   3.469   3.778   5.830 -0.2012  0.5240  1.2591
   59SAPC    C3 4460   3.064   3.458   5.999  0.4397 -0.3338 -0.9451
   59SAPC    HX 4461   3.014   3.557   5.991  0.8466  0.0425  0.7915
   59SAPC    HY 4462   3.032   3.411   6.094  1.7919  0.1546 -0.2216
   59SAPC   O31 4463   3.031   3.380   5.884 -0.0639  0.4303 -0.6638
   59SAPC   C31 4464   2.902   3.376   5.839 -0.2483 -0.2391  0.5660
   59SAPC   O32 4465   2.818   3.444   5.886  0.4510  0.1373  0.2852
   59SAPC   C32 4466   2.889   3.275   5.718  0.7741  1.4367 -0.1163
   59SAPC   H2X 4467   2.820   3.195   5.753  3.2039  0.0089  1.7177
   59SAPC   H2Y 4468   2.986   3.223   5.701 -0.3853 -0.5527 -1.0409
   59SAPC   C23 4469   3.483   3.631   5.669 -0.5546  0.1526  0.0342
   59SAPC   H3R 4470   3.408   3.588   5.599  0.9246 -1.4792 -0.6220
   59SAPC   H3S 4471   3.562   3.561   5.704  0.2151  0.2810 -1.3729
   59SAPC   C24 4472   3.567   3.736   5.595 -1.1744  0.2260 -0.5275
   59SAPC   H4R 4473   3.613   3.807   5.666 -1.7426  1.0245 -0.9465
   59SAPC   H4S 4474   3.491   3.794   5.539  1.1256  3.8034 -0.2197
   59SAPC   C25 4475   3.675   3.685   5.508 -0.2010 -0.2405 -0.5970
   59SAPC   H5R 4476   3.755   3.651   5.575 -2.7692 -2.1183  1.7543
   59SAPC   C26 4477   3.684   3.695   5.378 -0.2431 -0.6298 -0.2732
   59SAPC   H6R 4478   3.768   3.641   5.332  0.4807  0.4832 -0.2764
   59SAPC   C27 4479   3.576   3.747   5.284 -0.4209  0.5984  0.6564
   59SAPC   H7R 4480   3.608   3.847   5.247 -0.0719  1.0307  2.0312
   59SAPC   H7S 4481   3.476   3.767   5.329  0.0103  1.9753  1.0505
   59SAPC   C28 4482   3.562   3.653   5.162  0.2411  0.1212 -0.4989
   59SAPC   H8R 4483   3.573   3.545   5.178  0.6213 -0.0537 -1.8246
   59SAPC   C29 4484   3.528   3.686   5.032  0.0843 -0.1857 -0.0631
   59SAPC   H9R 4485   3.528   3.598   4.966  0.3630 -0.5004  0.3491
   59SAPC  C210 4486   3.505   3.821   4.970  0.6850 -0.1173  0.5676
   59SAPC  H10R 4487   3.601   3.867   4.936  0.4394 -0.5549 -0.7615
   59SAPC  H10S 4488   3.471   3.887   5.053  2.1581 -0.0980  1.1959
   59SAPC  C211 4489   3.394   3.816   4.863 -0.0722 -0.3082 -0.1451
   59SAPC  H11R 4490   3.303   3.768   4.902  0.7870 -0.8602  1.2626
   59SAPC  C212 4491   3.396   3.894   4.753  0.2593  0.3401 -0.1832
   59SAPC  H12R 4492   3.308   3.888   4.687  1.0128  0.5868 -1.2496
   59SAPC  C213 4493   3.515   3.972   4.709 -0.9644  0.5087 -0.1523
   59SAPC  H13R 4494   3.613   3.919   4.714 -0.4009  1.5091 -0.3172
   59SAPC  H13S 4495   3.522   4.063   4.773  0.5469  1.4016 -1.5133
   59SAPC  C214 4496   3.488   4.026   4.570  0.0600 -0.2434  0.1883
   59SAPC  H14R 4497   3.387   4.057   4.540  0.6310  1.4163 -0.1322
   59SAPC  C215 4498   3.584   4.043   4.475 -0.0520  0.1077  0.2998
   59SAPC  H15R 4499   3.553   4.106   4.390  2.5448  0.5914 -0.3688
   59SAPC  C216 4500   3.729   4.003   4.479 -0.4114 -0.2747  0.4121
   59SAPC  H16R 4501   3.756   3.955   4.576  0.5804 -1.9107 -0.6124
   59SAPC  H16S 4502   3.798   4.089   4.469 -0.6809 -0.0974  0.0432
   59SAPC  C217 4503   3.769   3.892   4.376 -0.2126  0.3737  0.6529
   59SAPC  H17R 4504   3.739   3.920   4.272  1.2984  0.4002  0.1965
   59SAPC  H17S 4505   3.723   3.797   4.409  1.6177 -0.7442  0.0875
   59SAPC  C218 4506   3.915   3.859   4.369  0.0316 -0.6968 -0.9417
   59SAPC  H18R 4507   3.954   3.854   4.473  1.3812  1.0278 -1.3071
   59SAPC  H18S 4508   3.967   3.950   4.332 -0.0253  0.5393  1.7341
   59SAPC  C219 4509   3.946   3.732   4.282 -0.0711 -0.4161  0.3576
   59SAPC  H19R 4510   3.881   3.740   4.192 -0.5350  0.2651  0.7442
   59SAPC  H19S 4511   3.911   3.643   4.340 -0.7551 -0.1859  0.3065
   59SAPC  C220 4512   4.088   3.723   4.227 -0.4531  0.1211 -0.0243
   59SAPC  H20R 4513   4.159   3.682   4.302 -0.8801 -0.8839 -0.1469
   59SAPC  H20S 4514   4.126   3.818   4.185 -0.6073  0.0228 -0.3885
   59SAPC  H20T 4515   4.086   3.652   4.141 -1.9714 -0.2037  0.2518
   59SAPC   C33 4516   2.834   3.333   5.591 -0.1312  0.2067 -0.1309
   59SAPC   H3X 4517   2.906   3.406   5.547 -0.3493 -0.3156 -1.3971
   59SAPC   H3Y 4518   2.745   3.387   5.629  0.3711  0.2325  1.0670
   59SAPC   C34 4519   2.798   3.234   5.486  0.0006  0.7306 -0.7945
   59SAPC   H4X 4520   2.704   3.183   5.517 -0.5540  2.0478 -0.2487
   59SAPC   H4Y 4521   2.871   3.151   5.493 -0.8693 -0.0161 -0.3933
   59SAPC   C35 4522   2.814   3.275   5.343 -0.4584  0.3437  0.0036
   59SAPC   H5X 4523   2.924   3.273   5.327 -0.5191 -0.7767 -0.3528
   59SAPC   H5Y 4524   2.783   3.382   5.335  0.2263  0.4889 -0.8301
   59SAPC   C36 4525   2.747   3.185   5.245  0.2370 -0.5649 -0.2557
   59SAPC   H6X 4526   2.638   3.183   5.263 -0.0445 -0.4719 -1.8158
   59SAPC   H6Y 4527   2.781   3.081   5.263  1.1022 -0.2021  0.2998
   59SAPC   C37 4528   2.787   3.227   5.104 -0.0326 -0.0021  0.2222
   59SAPC   H7X 4529   2.892   3.258   5.091 -0.8649  2.0307 -2.4931
   59SAPC   H7Y 4530   2.736   3.322   5.079  0.3655  0.2068  0.2069
   59SAPC   C38 4531   2.746   3.126   5.001 -0.7644 -0.5675  0.1405
   59SAPC   H8X 4532   2.637   3.105   5.004 -0.3783 -2.9045 -0.0014
   59SAPC   H8Y 4533   2.810   3.035   5.005 -0.4896 -0.4256 -0.7831
   59SAPC   C39 4534   2.769   3.181   4.856  0.1898 -0.2244 -0.0245
   59SAPC   H9X 4535   2.855   3.251   4.861 -0.1060  0.1764 -0.4328
   59SAPC   H9Y 4536   2.679   3.242   4.830 -0.4693 -0.9022  0.6216
   59SAPC  C310 4537   2.787   3.075   4.748 -0.5786  0.4472  0.1807
   59SAPC  H10X 4538   2.695   3.013   4.757 -0.5377  0.4708  0.8380
   59SAPC  H10Y 4539   2.858   2.995   4.777 -3.2296 -2.5143 -0.8588
   59SAPC  C311 4540   2.804   3.125   4.611  0.0259 -0.4973  0.2677
   59SAPC  H11X 4541   2.906   3.166   4.591 -1.0483  1.4558 -1.7010
   59SAPC  H11Y 4542   2.735   3.210   4.591  1.9312  0.6578 -1.9217
   59SAPC  C312 4543   2.770   3.022   4.500 -0.2023  0.6216  0.6475
   59SAPC  H12X 4544   2.831   2.932   4.522  0.3951  0.8865  0.1122
   59SAPC  H12Y 4545   2.801   3.065   4.402 -1.0880  2.1728  1.0115
   59SAPC  C313 4546   2.624   2.986   4.494 -0.4981 -0.2345 -1.1703
   59SAPC  H13X 4547   2.564   3.070   4.536  1.5009  1.5207 -1.6241
   59SAPC  H13Y 4548   2.617   2.893   4.554 -1.3862 -0.0023 -0.8923
   59SAPC  C314 4549   2.581   2.950   4.349  0.7572  1.0927 -0.6357
   59SAPC  H14X 4550   2.654   2.877   4.310  1.9478  0.3128  2.7294
   59SAPC  H14Y 4551   2.582   3.039   4.282 -0.5883  0.0937 -2.0675
   59SAPC  C315 4552   2.432   2.898   4.359 -0.2473 -1.0327 -0.2773
   59SAPC  H15X 4553   2.378   2.992   4.383 -1.7247 -2.0069  0.3393
   59SAPC  H15Y 4554   2.403   2.830   4.443 -2.6027  1.0424  0.7144
   59SAPC  C316 4555   2.373   2.845   4.228 -0.9278  0.2523  0.0356
   59SAPC  H16X 4556   2.432   2.759   4.191  1.0093  0.6894  1.9009
   59SAPC  H16Y 4557   2.391   2.933   4.162  1.0552 -1.3307 -1.6752
   59SAPC  C317 4558   2.224   2.816   4.230 -0.3610  0.5252  0.0657
   59SAPC  H17X 4559   2.168   2.834   4.136  0.1845 -3.0607 -1.1214
   59SAPC  H17Y 4560   2.179   2.883   4.306 -1.3265 -0.0020 -0.0123
   59SAPC  C318 4561   2.199   2.670   4.259 -0.4908 -0.4118  0.1156
   59SAPC  H18X 4562   2.221   2.609   4.168  0.5786  1.3417 -0.8638
   59SAPC  H18Y 4563   2.095   2.643   4.285 -0.0704 -2.0813  0.1950
   59SAPC  H18Z 4564   2.252   2.631   4.348 -1.7181 -1.3769  0.4425
   60SAPC     N 4565   1.392   0.735   6.220  0.0739  0.1779 -0.4995
   60SAPC   C12 4566   1.521   0.813   6.261 -0.6149  0.7708 -0.8511
   60SAPC  H12A 4567   1.481   0.901   6.311 -1.6175  0.2178 -0.6540
   60SAPC  H12B 4568   1.568   0.846   6.170 -1.4105 -0.3238 -1.6736
   60SAPC   C13 4569   1.309   0.726   6.352 -0.5058  0.1670  0.2185
   60SAPC  H13A 4570   1.262   0.819   6.377  2.1799  1.7911 -0.4001
   60SAPC  H13B 4571   1.228   0.657   6.333 -0.8145  0.9922 -1.6486
   60SAPC  H13C 4572   1.376   0.694   6.431  0.5681  0.3263 -0.5988
   60SAPC   C14 4573   1.314   0.823   6.130 -0.1592 -0.6604  0.4049
   60SAPC  H14A 4574   1.294   0.916   6.181  0.1791 -0.7595  0.7282
   60SAPC  H14B 4575   1.365   0.844   6.038 -1.7057  2.7917  0.1987
   60SAPC  H14C 4576   1.213   0.792   6.108 -1.1147  1.6064  1.3319
   60SAPC   C15 4577   1.421   0.601   6.163  0.7475  0.1513  0.0382
   60SAPC  H15A 4578   1.452   0.537   6.244 -0.3839  0.8354  1.0534
   60SAPC  H15B 4579   1.326   0.558   6.136 -0.2175  2.2156 -0.0775
   60SAPC  H15C 4580   1.490   0.600   6.080 -1.2899 -1.3522 -1.7684
   60SAPC   C11 4581   1.626   0.753   6.364 -0.1219  0.5540  0.0965
   60SAPC  H11A 4582   1.568   0.726   6.454  1.3308 -1.7829  0.4144
   60SAPC  H11B 4583   1.698   0.833   6.395  1.5969 -1.5422  1.8627
   60SAPC     P 4584   1.783   0.653   6.201 -0.1375  0.0538 -0.0252
   60SAPC   O13 4585   1.900   0.698   6.278 -0.8135 -0.0998 -0.0954
   60SAPC   O14 4586   1.798   0.532   6.115  0.6134  0.2770 -0.3068
   60SAPC   O12 4587   1.675   0.634   6.314  0.1731  0.1636  0.1044
   60SAPC   O11 4588   1.738   0.772   6.113  0.2634  0.1620 -0.0575
   60SAPC    C1 4589   1.834   0.848   6.033  0.4309  0.4141 -0.2639
   60SAPC    HA 4590   1.865   0.934   6.096  0.8011  0.0671  0.0316
   60SAPC    HB 4591   1.924   0.787   6.011  0.3962  0.2903 -0.0603
   60SAPC    C2 4592   1.770   0.901   5.899  0.1757 -0.8813 -0.1648
   60SAPC    HS 4593   1.691   0.978   5.913 -0.8829 -2.3251  2.4863
   60SAPC   O21 4594   1.733   0.791   5.814 -0.1059 -0.4844  0.3265
   60SAPC   C21 4595   1.606   0.766   5.802  0.4662 -1.1987 -0.3772
   60SAPC   O22 4596   1.514   0.824   5.861 -0.5478 -0.2011  0.5613
   60SAPC   C22 4597   1.588   0.644   5.711  0.5584  0.4873  0.0459
   60SAPC   H2R 4598   1.579   0.680   5.606  1.1319 -1.8396 -0.8651
   60SAPC   H2S 4599   1.668   0.567   5.715 -0.6200 -0.7639  0.3242
   60SAPC    C3 4600   1.890   0.985   5.837  0.4186  0.2869 -0.1317
   60SAPC    HX 4601   1.982   0.926   5.821  0.2335  0.4467 -1.9716
   60SAPC    HY 4602   1.925   1.066   5.905 -0.3480  1.3432 -0.9554
   60SAPC   O31 4603   1.862   1.043   5.710  0.2161 -0.1986  0.3806
   60SAPC   C31 4604   1.777   1.139   5.705  0.5310  0.2466  0.2406
   60SAPC   O32 4605   1.724   1.192   5.802 -0.0625 -0.1415  0.4281
   60SAPC   C32 4606   1.751   1.168   5.559  0.5516  1.0445  0.5567
   60SAPC   H2X 4607   1.844   1.158   5.500  1.8961  3.0265  2.2096
   60SAPC   H2Y 4608   1.708   1.271   5.560  0.7959  1.1450  0.9848
   60SAPC   C23 4609   1.453   0.573   5.744  0.0996  0.3005  0.0911
   60SAPC   H3R 4610   1.372   0.649   5.740  1.0856  1.4131  0.8986
   60SAPC   H3S 4611   1.464   0.535   5.848 -1.0582 -0.2355  0.0402
   60SAPC   C24 4612   1.418   0.454   5.645 -0.3723 -0.1175  0.2291
   60SAPC   H4R 4613   1.439   0.491   5.543 -2.3591  2.4062  0.6553
   60SAPC   H4S 4614   1.310   0.428   5.648 -0.5037  0.4685  0.8504
   60SAPC   C25 4615   1.495   0.336   5.682 -0.2161 -0.0814 -0.0402
   60SAPC   H5R 4616   1.493   0.304   5.788  2.6067  0.2606  0.2074
   60SAPC   C26 4617   1.588   0.283   5.602 -0.6652 -0.2832  0.1000
   60SAPC   H6R 4618   1.630   0.184   5.626 -1.2422 -0.9476 -1.4940
   60SAPC   C27 4619   1.619   0.327   5.461  0.5016 -0.4036 -0.5826
   60SAPC   H7R 4620   1.719   0.291   5.428  0.4589 -0.0533 -1.1103
   60SAPC   H7S 4621   1.630   0.438   5.456 -0.1658 -0.3481 -1.0796
   60SAPC   C28 4622   1.519   0.283   5.359  0.7252 -0.9225 -0.0080
   60SAPC   H8R 4623   1.439   0.214   5.391  0.3017  0.1155  1.2701
   60SAPC   C29 4624   1.520   0.319   5.231 -0.3559  0.1839 -0.2035
   60SAPC   H9R 4625   1.435   0.287   5.168  0.8377 -0.6406 -1.4499
   60SAPC  C210 4626   1.617   0.404   5.161  0.0669 -0.0147  0.5510
   60SAPC  H10R 4627   1.693   0.345   5.106  2.8241  2.3317  1.5744
   60SAPC  H10S 4628   1.683   0.463   5.229 -0.5209 -0.1396  1.2392
   60SAPC  C211 4629   1.561   0.514   5.076  0.1208 -0.1562 -0.7499
   60SAPC  H11R 4630   1.530   0.598   5.139  0.8871 -1.2374  1.1561
   60SAPC  C212 4631   1.540   0.506   4.946  0.2247 -0.1312 -0.6815
   60SAPC  H12R 4632   1.496   0.594   4.897  1.7357  2.2635  1.9408
   60SAPC  C213 4633   1.555   0.388   4.855  0.0776  0.1811  0.2668
   60SAPC  H13R 4634   1.623   0.308   4.893 -0.5119 -0.3855  0.1551
   60SAPC  H13S 4635   1.614   0.434   4.773 -3.3818  2.5362 -1.1182
   60SAPC  C214 4636   1.423   0.334   4.804  0.7728 -0.2877 -0.5446
   60SAPC  H14R 4637   1.356   0.301   4.884  1.0539 -0.2655 -0.2967
   60SAPC  C215 4638   1.375   0.329   4.680 -0.0833  0.2838  0.6739
   60SAPC  H15R 4639   1.276   0.288   4.655 -0.4105 -0.5806  3.0911
   60SAPC  C216 4640   1.458   0.370   4.559  0.6947  0.2022  0.6936
   60SAPC  H16R 4641   1.440   0.289   4.485  1.8785  1.8043 -1.4549
   60SAPC  H16S 4642   1.568   0.369   4.576  1.4302  0.3404 -3.1263
   60SAPC  C217 4643   1.418   0.497   4.489  0.0152  0.4610 -0.1265
   60SAPC  H17R 4644   1.464   0.506   4.388 -0.6432 -0.5612 -0.5376
   60SAPC  H17S 4645   1.444   0.590   4.544  1.3424  0.2213 -0.3165
   60SAPC  C218 4646   1.261   0.508   4.452  0.0941 -1.6545  0.5182
   60SAPC  H18R 4647   1.245   0.607   4.405  1.3033 -0.7284  1.9583
   60SAPC  H18S 4648   1.208   0.505   4.550 -1.8568  0.2133 -0.3984
   60SAPC  C219 4649   1.211   0.399   4.353  0.2469  0.8976 -0.1990
   60SAPC  H19R 4650   1.208   0.298   4.398  0.9524  1.7660  1.9512
   60SAPC  H19S 4651   1.280   0.390   4.266  1.1012  1.7916  0.3592
   60SAPC  C220 4652   1.076   0.427   4.292  0.3402 -0.3501  0.3675
   60SAPC  H20R 4653   1.038   0.333   4.247  2.3299 -0.4826 -1.1618
   60SAPC  H20S 4654   1.080   0.500   4.208  2.1258 -0.5704  0.2149
   60SAPC  H20T 4655   0.990   0.450   4.359 -1.8352 -2.0641 -1.6716
   60SAPC   C33 4656   1.643   1.079   5.494 -0.0521  0.2635 -0.3283
   60SAPC   H3X 4657   1.626   1.132   5.397 -1.1865  1.8596  0.6986
   60SAPC   H3Y 4658   1.550   1.079   5.553  0.0387  0.7307 -0.1792
   60SAPC   C34 4659   1.707   0.940   5.470 -0.1402 -0.0815  0.4777
   60SAPC   H4X 4660   1.707   0.886   5.567 -0.7506 -0.7357  0.1261
   60SAPC   H4Y 4661   1.815   0.950   5.448  0.3160 -1.1986  1.9971
   60SAPC   C35 4662   1.643   0.850   5.363 -0.0547  0.0138  0.5744
   60SAPC   H5X 4663   1.537   0.837   5.395  0.5396 -4.2615  1.4052
   60SAPC   H5Y 4664   1.682   0.746   5.355 -0.7503 -0.1392 -3.6798
   60SAPC   C36 4665   1.654   0.901   5.217  0.0319 -0.8487  0.5721
   60SAPC   H6X 4666   1.604   0.999   5.206  0.9850 -0.4269 -0.1855
   60SAPC   H6Y 4667   1.596   0.830   5.153  1.8931  0.0601 -2.3178
   60SAPC   C37 4668   1.803   0.903   5.161  0.6245 -0.1320  0.2793
   60SAPC   H7X 4669   1.846   0.801   5.165 -0.4044 -0.5830  0.1160
   60SAPC   H7Y 4670   1.862   0.966   5.233  1.4534  0.0256 -0.5204
   60SAPC   C38 4671   1.810   0.965   5.019  0.2070  0.0526  0.2226
   60SAPC   H8X 4672   1.917   0.965   4.991 -0.2801 -3.5081 -2.3723
   60SAPC   H8Y 4673   1.770   1.067   5.037 -1.7153 -0.1903 -2.0578
   60SAPC   C39 4674   1.717   0.909   4.915  0.0808  0.4805 -0.4983
   60SAPC   H9X 4675   1.718   0.982   4.832 -1.4787  1.1243  0.0120
   60SAPC   H9Y 4676   1.611   0.888   4.940  0.1005 -0.5854 -1.2428
   60SAPC  C310 4677   1.767   0.776   4.870 -0.0996 -0.2484  1.0458
   60SAPC  H10X 4678   1.732   0.703   4.946  0.7341 -0.0416  1.6369
   60SAPC  H10Y 4679   1.877   0.772   4.886  0.0882 -0.0086 -0.0638
   60SAPC  C311 4680   1.734   0.740   4.717 -0.5171 -0.3291  0.1911
   60SAPC  H11X 4681   1.635   0.754   4.669 -0.0420  0.7351 -0.5472
   60SAPC  H11Y 4682   1.759   0.633   4.703 -2.6901 -1.0830  1.6731
   60SAPC  C312 4683   1.838   0.795   4.618  0.5588  0.0169  0.7996
   60SAPC  H12X 4684   1.830   0.737   4.523  2.8354  0.5193  0.2372
   60SAPC  H12Y 4685   1.937   0.765   4.657  1.8472  0.3818 -1.9532
   60SAPC  C313 4686   1.830   0.944   4.589 -0.3235  0.8480 -0.2587
   60SAPC  H13X 4687   1.890   0.993   4.669 -0.0844 -0.2017  0.2238
   60SAPC  H13Y 4688   1.725   0.977   4.602 -1.6805 -3.3195  1.0987
   60SAPC  C314 4689   1.892   0.976   4.453 -0.0160  0.1824 -0.3291
   60SAPC  H14X 4690   1.854   0.904   4.377  0.6178 -1.8382  1.1734
   60SAPC  H14Y 4691   2.002   0.980   4.465 -0.2375 -0.9027  3.6341
   60SAPC  C315 4692   1.848   1.121   4.410  0.2977  0.7714 -0.3594
   60SAPC  H15X 4693   1.864   1.182   4.501  1.8059 -2.9008  2.0855
   60SAPC  H15Y 4694   1.739   1.125   4.390  0.2562  1.3098 -0.0545
   60SAPC  C316 4695   1.930   1.178   4.291 -0.0463 -0.0349  1.1851
   60SAPC  H16X 4696   1.908   1.118   4.200 -0.1436  2.5123 -0.5620
   60SAPC  H16Y 4697   2.037   1.165   4.319  0.4618 -2.5976 -1.5414
   60SAPC  C317 4698   1.890   1.326   4.274 -0.6389  0.3684 -0.1389
   60SAPC  H17X 4699   1.883   1.377   4.373 -0.3592 -0.6417  0.4158
   60SAPC  H17Y 4700   1.788   1.327   4.231 -0.6454 -1.5621 -0.2482
   60SAPC  C318 4701   1.996   1.397   4.187 -0.3457  0.6470 -0.3636
   60SAPC  H18X 4702   1.975   1.500   4.152  0.6591  0.2086 -2.4092
   60SAPC  H18Y 4703   2.011   1.341   4.092  2.0095 -0.6354  0.6638
   60SAPC  H18Z 4704   2.093   1.387   4.241 -1.4449  0.1540  1.6507
   61SAPC     N 4705   5.813   6.077   7.193 -1.2001  0.5699  0.0758
   61SAPC   C12 4706   5.793   5.932   7.149  0.2586 -0.3888  0.0209
   61SAPC  H12A 4707   5.707   5.925   7.084 -0.5950 -1.6160  1.2133
   61SAPC  H12B 4708   5.748   5.869   7.224 -3.0028 -3.4703 -4.0368
   61SAPC   C13 4709   5.912   6.076   7.306  0.0989  0.4415 -0.6040
   61SAPC  H13A 4710   5.882   6.005   7.382 -1.8368  1.3289 -0.4736
   61SAPC  H13B 4711   6.010   6.062   7.265  0.7534 -0.9425  1.2893
   61SAPC  H13C 4712   5.917   6.175   7.350 -0.0407  1.5746 -2.9918
   61SAPC   C14 4713   5.866   6.162   7.084  0.0472  0.5156 -0.6759
   61SAPC  H14A 4714   5.930   6.238   7.125 -1.6437  1.8624 -0.4159
   61SAPC  H14B 4715   5.912   6.089   7.019 -0.7785 -2.0195  1.4007
   61SAPC  H14C 4716   5.786   6.209   7.029  0.5081  2.1138 -0.0369
   61SAPC   C15 4717   5.688   6.128   7.256  0.1859 -0.3637  0.6300
   61SAPC  H15A 4718   5.609   6.161   7.190 -0.5189  0.5047  1.8626
   61SAPC  H15B 4719   5.649   6.053   7.323  0.5573 -0.8572  0.3017
   61SAPC  H15C 4720   5.705   6.212   7.321 -2.3184 -0.5666  1.6599
   61SAPC   C11 4721   5.916   5.853   7.105  0.0072 -0.0138  0.6976
   61SAPC  H11A 4722   5.891   5.745   7.119 -0.7220  0.3132  2.0571
   61SAPC  H11B 4723   6.009   5.878   7.160 -0.8346  0.1511  2.0781
   61SAPC     P 4724   6.051   5.814   6.884  0.2710  0.3069 -0.2675
   61SAPC   O13 4725   6.181   5.876   6.927 -0.4157  0.1990  0.1643
   61SAPC   O14 4726   6.039   5.673   6.899  0.0702  0.7300 -0.1113
   61SAPC   O12 4727   5.932   5.879   6.964 -0.1151 -0.5000  0.1083
   61SAPC   O11 4728   6.014   5.858   6.744  0.4310  0.5738  0.4565
   61SAPC    C1 4729   6.041   5.779   6.626 -0.0805  0.5032  0.6480
   61SAPC    HA 4730   6.115   5.697   6.643 -0.6769  0.0595  1.1624
   61SAPC    HB 4731   5.947   5.727   6.596  1.1947 -1.4570 -0.1656
   61SAPC    C2 4732   6.094   5.860   6.510 -0.1759  0.1493 -0.4168
   61SAPC    HS 4733   6.189   5.909   6.542 -0.0914  1.0132 -1.8875
   61SAPC   O21 4734   5.998   5.965   6.479  0.3438  0.5257  0.3425
   61SAPC   C21 4735   6.048   6.074   6.433  0.4532 -0.0367  0.2203
   61SAPC   O22 4736   6.168   6.110   6.436  0.7630  0.2429 -0.4355
   61SAPC   C22 4737   5.930   6.155   6.375 -0.0877 -0.6994  0.5959
   61SAPC   H2R 4738   5.879   6.082   6.309 -0.7712 -0.1145  0.4635
   61SAPC   H2S 4739   5.857   6.164   6.459  0.5812 -0.3115  1.1465
   61SAPC    C3 4740   6.122   5.770   6.386  0.4727  0.7962 -0.3666
   61SAPC    HX 4741   6.056   5.681   6.384  1.4933 -0.0552  1.4100
   61SAPC    HY 4742   6.221   5.725   6.408  1.4544  1.1079 -3.5398
   61SAPC   O31 4743   6.118   5.850   6.261  0.5401  0.5310 -0.4211
   61SAPC   C31 4744   6.207   5.825   6.171  0.7753  0.6570 -0.2668
   61SAPC   O32 4745   6.303   5.746   6.175  0.2724 -0.7300 -0.0751
   61SAPC   C32 4746   6.170   5.927   6.056  0.2596  0.4018 -0.0902
   61SAPC   H2X 4747   6.241   6.009   6.079  0.0119 -0.0279  2.4801
   61SAPC   H2Y 4748   6.062   5.952   6.065 -0.2379 -1.2051 -1.0778
   61SAPC   C23 4749   5.972   6.294   6.312  0.5364  0.1923 -0.0104
   61SAPC   H3R 4750   6.074   6.281   6.271 -0.0768 -1.3588 -1.1209
   61SAPC   H3S 4751   5.981   6.379   6.383 -0.4686 -0.1689  0.5588
   61SAPC   C24 4752   5.871   6.339   6.199 -0.3025 -0.1960 -0.2787
   61SAPC   H4R 4753   5.779   6.371   6.252 -0.3409 -1.6272  0.5742
   61SAPC   H4S 4754   5.844   6.258   6.128  0.5209 -2.1715  1.5502
   61SAPC   C25 4755   5.937   6.459   6.133  0.3642 -0.4525 -0.0824
   61SAPC   H5R 4756   5.931   6.553   6.189  1.1540  0.6257 -1.7331
   61SAPC   C26 4757   5.999   6.459   6.018 -0.3704  0.0549 -0.2862
   61SAPC   H6R 4758   6.058   6.545   5.983 -0.0970 -0.8796 -2.2662
   61SAPC   C27 4759   6.026   6.347   5.923  0.5245 -0.7208 -0.2720
   61SAPC   H7R 4760   6.057   6.256   5.979 -0.4965 -1.7360 -1.2955
   61SAPC   H7S 4761   6.117   6.368   5.863  1.3173 -2.5505  0.2358
   61SAPC   C28 4762   5.913   6.314   5.826 -0.7303 -0.0182 -0.5821
   61SAPC   H8R 4763   5.857   6.224   5.854  1.0802 -2.5504 -4.2246
   61SAPC   C29 4764   5.895   6.372   5.707  0.7775  0.6574 -0.4557
   61SAPC   H9R 4765   5.797   6.352   5.660  2.6692 -0.9502 -4.1344
   61SAPC  C210 4766   5.964   6.489   5.644 -0.5544  0.4063 -0.3383
   61SAPC  H10R 4767   6.069   6.458   5.622 -0.5718 -0.3279  0.5085
   61SAPC  H10S 4768   5.977   6.574   5.714 -3.0726  0.4187  0.1773
   61SAPC  C211 4769   5.897   6.550   5.525  0.0145 -0.4437 -0.0559
   61SAPC  H11R 4770   5.838   6.641   5.543  0.0434 -0.3184 -0.5895
   61SAPC  C212 4771   5.922   6.525   5.399  0.3723 -0.7809 -0.0356
   61SAPC  H12R 4772   5.861   6.574   5.322  0.8669  0.6470  0.4543
   61SAPC  C213 4773   6.011   6.419   5.354  0.2679  0.4704 -0.0757
   61SAPC  H13R 4774   5.951   6.336   5.312  1.1658  0.7199 -1.9623
   61SAPC  H13S 4775   6.077   6.374   5.431 -0.6899 -0.7361  0.0597
   61SAPC  C214 4776   6.100   6.481   5.249  0.1793  0.1384  0.2622
   61SAPC  H14R 4777   6.188   6.536   5.285  0.1306  0.1491  0.3651
   61SAPC  C215 4778   6.073   6.485   5.117 -0.1014 -0.5822 -0.1956
   61SAPC  H15R 4779   6.145   6.535   5.050  1.9745 -3.1420 -0.0456
   61SAPC  C216 4780   5.946   6.446   5.043 -0.9145 -0.7647 -0.2497
   61SAPC  H16R 4781   5.878   6.533   5.039 -0.6910 -0.5147  0.9799
   61SAPC  H16S 4782   5.895   6.368   5.102  0.1909  1.0103  3.3733
   61SAPC  C217 4783   5.965   6.368   4.914 -0.2826  0.1328  0.6000
   61SAPC  H17R 4784   5.994   6.261   4.925 -1.9033 -0.5407 -1.1247
   61SAPC  H17S 4785   6.041   6.422   4.854  0.1334  0.1455  1.1303
   61SAPC  C218 4786   5.841   6.354   4.831 -0.1722 -0.4181  0.6182
   61SAPC  H18R 4787   5.815   6.455   4.792  1.0089  0.2023  1.3976
   61SAPC  H18S 4788   5.765   6.321   4.906 -2.5498  2.1365 -0.4573
   61SAPC  C219 4789   5.859   6.257   4.716  0.1102 -0.7183  0.3671
   61SAPC  H19R 4790   5.767   6.258   4.653  0.3465 -2.4491 -0.0643
   61SAPC  H19S 4791   5.876   6.152   4.748 -1.2803 -0.9365  0.4503
   61SAPC  C220 4792   5.974   6.310   4.623  0.0019  0.0913 -0.0617
   61SAPC  H20R 4793   5.975   6.252   4.528 -0.2160 -1.7702  1.0194
   61SAPC  H20S 4794   6.071   6.296   4.674 -1.1843  0.4395  2.4627
   61SAPC  H20T 4795   5.978   6.418   4.598  1.9597  0.1535  0.4311
   61SAPC   C33 4796   6.195   5.861   5.916 -0.2443  0.1469  0.3910
   61SAPC   H3X 4797   6.144   5.763   5.921  1.5472 -0.8443  0.2109
   61SAPC   H3Y 4798   6.302   5.830   5.911 -0.6515 -1.2152 -0.1940
   61SAPC   C34 4799   6.156   5.961   5.808 -0.1160  0.3797 -0.0292
   61SAPC   H4X 4800   6.228   6.043   5.826 -0.3859  0.8201 -0.9094
   61SAPC   H4Y 4801   6.052   5.991   5.834  0.1239 -0.1666  1.6727
   61SAPC   C35 4802   6.165   5.905   5.661  0.4390 -0.2503 -0.8453
   61SAPC   H5X 4803   6.089   5.825   5.650 -1.1937  1.1335 -0.1712
   61SAPC   H5Y 4804   6.267   5.863   5.652  0.7216  0.6917 -2.4787
   61SAPC   C36 4805   6.146   6.010   5.550 -0.1181 -0.2288 -0.1669
   61SAPC   H6X 4806   6.197   6.103   5.582 -0.9190  0.0411  0.3455
   61SAPC   H6Y 4807   6.038   6.031   5.543 -0.7025 -2.2985  1.4825
   61SAPC   C37 4808   6.194   5.958   5.420  0.5333 -0.3592 -0.8010
   61SAPC   H7X 4809   6.112   5.893   5.381 -1.5689  2.3297 -1.1782
   61SAPC   H7Y 4810   6.281   5.894   5.443  1.3705  1.0760  0.1194
   61SAPC   C38 4811   6.245   6.068   5.329  0.2830 -0.3677  0.2693
   61SAPC   H8X 4812   6.346   6.101   5.361  0.5296 -0.4039 -0.4648
   61SAPC   H8Y 4813   6.173   6.152   5.319  1.3305  1.3827  4.9705
   61SAPC   C39 4814   6.262   6.027   5.182  1.4116  0.2701 -0.2655
   61SAPC   H9X 4815   6.175   5.962   5.157  1.1606  1.0205 -1.3915
   61SAPC   H9Y 4816   6.359   5.975   5.165  1.7114 -0.0089  1.9343
   61SAPC  C310 4817   6.262   6.138   5.074  0.2370  0.6263 -0.1316
   61SAPC  H10X 4818   6.340   6.216   5.090  0.9924 -0.0757 -0.3519
   61SAPC  H10Y 4819   6.165   6.193   5.067 -0.4256 -0.4995 -0.1207
   61SAPC  C311 4820   6.296   6.082   4.939 -0.5006  0.2057  0.3977
   61SAPC  H11X 4821   6.219   6.003   4.921  0.1935 -0.2566 -0.6430
   61SAPC  H11Y 4822   6.393   6.028   4.942  0.5249  2.0408  1.7899
   61SAPC  C312 4823   6.303   6.184   4.831 -0.9945  0.0405  0.1098
   61SAPC  H12X 4824   6.389   6.246   4.863  0.2543 -1.6095  0.0802
   61SAPC  H12Y 4825   6.208   6.240   4.821 -0.8136  0.7422  1.9481
   61SAPC  C313 4826   6.344   6.142   4.694  0.3301 -0.6641  0.5128
   61SAPC  H13X 4827   6.448   6.104   4.694  0.2250 -0.9615 -0.0878
   61SAPC  H13Y 4828   6.332   6.228   4.624  0.4569 -1.5051 -0.5597
   61SAPC  C314 4829   6.256   6.032   4.634  0.0284  0.3588 -0.0931
   61SAPC  H14X 4830   6.164   6.071   4.586 -1.1298 -1.4632  0.5246
   61SAPC  H14Y 4831   6.209   5.961   4.707  1.3718 -3.5913 -2.7434
   61SAPC  C315 4832   6.329   5.955   4.524 -0.3163 -0.6150 -0.4431
   61SAPC  H15X 4833   6.427   5.911   4.551  1.5053  3.0133 -0.4176
   61SAPC  H15Y 4834   6.362   6.026   4.445  2.2455 -1.2972 -0.0928
   61SAPC  C316 4835   6.243   5.850   4.462  0.1731  0.4240 -0.0618
   61SAPC  H16X 4836   6.157   5.902   4.415  1.4405  0.9894 -1.8607
   61SAPC  H16Y 4837   6.213   5.772   4.535  1.7051 -0.6100 -0.5013
   61SAPC  C317 4838   6.312   5.782   4.344  0.0131 -0.3947  0.2803
   61SAPC  H17X 4839   6.400   5.734   4.392  0.6977  1.6793  1.2087
   61SAPC  H17Y 4840   6.354   5.859   4.275  1.1808 -0.0424  1.3421
   61SAPC  C318 4841   6.223   5.694   4.264  1.0276  0.7218  0.4980
   61SAPC  H18X 4842   6.261   5.663   4.164 -2.8795  2.6998 -1.8654
   61SAPC  H18Y 4843   6.136   5.761   4.244  2.2957  1.5810 -2.9447
   61SAPC  H18Z 4844   6.180   5.615   4.329  1.1900  1.1134  1.0868
   62SAPC     N 4845   2.082   3.184   6.473 -0.0117  0.4179 -0.1839
   62SAPC   C12 4846   2.140   3.213   6.339 -0.5930  0.1619  0.2573
   62SAPC  H12A 4847   2.168   3.317   6.332  1.0340 -0.1935  1.0671
   62SAPC  H12B 4848   2.067   3.184   6.265 -0.5838 -1.4648  0.8528
   62SAPC   C13 4849   2.018   3.050   6.472  0.4343  0.5653 -0.3711
   62SAPC  H13A 4850   2.088   2.971   6.449  1.8271  1.3907  0.8444
   62SAPC  H13B 4851   1.991   3.030   6.575  1.3728  0.7669 -0.0752
   62SAPC  H13C 4852   1.936   3.051   6.402 -0.1786  1.9492  0.3252
   62SAPC   C14 4853   2.197   3.187   6.573  0.0356 -1.6569  0.3868
   62SAPC  H14A 4854   2.248   3.282   6.577 -1.3612 -0.7153 -1.7640
   62SAPC  H14B 4855   2.171   3.153   6.672  0.4634  0.5284  1.3085
   62SAPC  H14C 4856   2.277   3.121   6.542  0.9536  0.4336 -1.9925
   62SAPC   C15 4857   1.987   3.282   6.512 -0.8335 -0.2157  0.0602
   62SAPC  H15A 4858   1.948   3.255   6.609 -0.0420 -1.4331  0.0590
   62SAPC  H15B 4859   2.031   3.380   6.520  0.1068 -0.7365  1.8034
   62SAPC  H15C 4860   1.896   3.283   6.453  0.5194 -0.8253 -2.1194
   62SAPC   C11 4861   2.268   3.130   6.302 -0.0323  0.0952 -0.0520
   62SAPC  H11A 4862   2.358   3.141   6.366  0.1298 -0.0781 -0.2515
   62SAPC  H11B 4863   2.294   3.183   6.208  0.0434  2.4734  1.2413
   62SAPC     P 4864   2.315   2.873   6.355  0.4713 -0.2690  0.0527
   62SAPC   O13 4865   2.369   2.926   6.487 -0.3889 -0.2901 -0.2466
   62SAPC   O14 4866   2.225   2.751   6.368  0.6912 -0.2617  0.0498
   62SAPC   O12 4867   2.244   2.987   6.274  0.2891 -0.5558  0.1454
   62SAPC   O11 4868   2.432   2.836   6.264 -0.1814  0.0983  0.0564
   62SAPC    C1 4869   2.409   2.774   6.130  0.2378  0.3568  0.1056
   62SAPC    HA 4870   2.383   2.666   6.143 -1.9186  0.7330 -0.6246
   62SAPC    HB 4871   2.324   2.818   6.073  0.9277 -0.0307 -1.2711
   62SAPC    C2 4872   2.531   2.785   6.035  0.1884  0.0239 -0.1097
   62SAPC    HS 4873   2.501   2.755   5.933 -0.9062  2.2579 -0.5114
   62SAPC   O21 4874   2.643   2.710   6.085 -0.6609  0.6800 -0.1233
   62SAPC   C21 4875   2.627   2.573   6.080  0.5280 -0.4587  0.3033
   62SAPC   O22 4876   2.521   2.521   6.045  0.1767  0.8529  0.3587
   62SAPC   C22 4877   2.747   2.513   6.132 -0.4162 -0.7936 -0.9592
   62SAPC   H2R 4878   2.785   2.565   6.223 -0.3300 -0.1449 -1.3593
   62SAPC   H2S 4879   2.738   2.407   6.163 -0.2378 -0.4910  0.1822
   62SAPC    C3 4880   2.563   2.937   6.032 -0.0315 -0.0865 -0.1235
   62SAPC    HX 4881   2.659   2.954   5.978 -1.7066 -1.1960 -3.7636
   62SAPC    HY 4882   2.570   2.984   6.133 -2.3878 -0.3884  0.2407
   62SAPC   O31 4883   2.458   3.014   5.969 -0.8290 -0.4878 -0.1406
   62SAPC   C31 4884   2.463   3.034   5.841  0.0708  0.0294  0.8347
   62SAPC   O32 4885   2.549   2.991   5.765 -0.0978  1.0264 -0.0378
   62SAPC   C32 4886   2.344   3.116   5.797 -0.7928  0.3414  0.4186
   62SAPC   H2X 4887   2.340   3.182   5.886 -0.5586  0.3177  0.4485
   62SAPC   H2Y 4888   2.258   3.046   5.789 -0.8909  0.5601 -0.4994
   62SAPC   C23 4889   2.862   2.526   6.023 -0.3927  0.5686  0.4033
   62SAPC   H3R 4890   2.959   2.493   6.066  1.1332  1.4908 -2.0864
   62SAPC   H3S 4891   2.875   2.633   5.995  2.9124 -0.1477 -1.3396
   62SAPC   C24 4892   2.826   2.454   5.891 -0.7041  0.2185 -0.1400
   62SAPC   H4R 4893   2.882   2.493   5.804  1.4103 -1.3251  0.4496
   62SAPC   H4S 4894   2.725   2.485   5.857  0.2205  2.4514 -1.0410
   62SAPC   C25 4895   2.840   2.303   5.910  0.3348  0.1072  0.5597
   62SAPC   H5R 4896   2.762   2.247   5.963 -0.5299  0.5624 -0.1990
   62SAPC   C26 4897   2.926   2.226   5.842  0.6218  0.1161  0.4934
   62SAPC   H6R 4898   2.907   2.118   5.850 -1.0321  0.2553 -1.0062
   62SAPC   C27 4899   3.042   2.266   5.757  0.0639  0.1929 -0.8027
   62SAPC   H7R 4900   3.132   2.239   5.816  1.1559  2.5450 -1.3011
   62SAPC   H7S 4901   3.047   2.374   5.731 -0.2188 -0.0511 -1.9291
   62SAPC   C28 4902   3.041   2.195   5.623 -0.9335  0.3113  0.1389
   62SAPC   H8R 4903   3.022   2.087   5.628 -1.8246  0.5052  1.1606
   62SAPC   C29 4904   3.052   2.255   5.503  0.0493  0.0746 -0.0356
   62SAPC   H9R 4905   3.038   2.184   5.421 -1.7922  1.5433 -1.0643
   62SAPC  C210 4906   3.068   2.398   5.470 -0.7591 -0.5411 -0.5810
   62SAPC  H10R 4907   3.148   2.410   5.394  0.2785 -0.1087  0.5606
   62SAPC  H10S 4908   3.098   2.457   5.559  2.4432  0.5082 -2.2153
   62SAPC  C211 4909   2.937   2.446   5.423 -0.0300 -0.3838  0.8747
   62SAPC  H11R 4910   2.859   2.439   5.500 -0.2471 -2.0887  0.5478
   62SAPC  C212 4911   2.908   2.489   5.297  0.2647 -0.1683  0.3549
   62SAPC  H12R 4912   2.804   2.521   5.280  0.9647  1.7295 -0.6599
   62SAPC  C213 4913   3.001   2.514   5.181 -0.4455 -0.1084 -0.1256
   62SAPC  H13R 4914   3.085   2.443   5.198 -1.0735 -0.1755  3.5949
   62SAPC  H13S 4915   3.043   2.612   5.210 -2.1902  0.5076  0.4979
   62SAPC  C214 4916   2.960   2.519   5.034  0.1521  0.7543  0.2554
   62SAPC  H14R 4917   2.967   2.422   4.983  0.1781  0.5519  0.6372
   62SAPC  C215 4918   2.894   2.605   4.957 -0.6203  0.3518 -0.2906
   62SAPC  H15R 4919   2.875   2.570   4.854 -0.7339  0.9947 -0.4935
   62SAPC  C216 4920   2.833   2.744   4.997  0.4880  0.6498 -0.2827
   62SAPC  H16R 4921   2.865   2.821   4.923  3.9793  0.2248  0.5882
   62SAPC  H16S 4922   2.871   2.772   5.097  0.3203 -0.8121  0.2094
   62SAPC  C217 4923   2.673   2.755   5.006 -0.4987  0.1158 -0.4318
   62SAPC  H17R 4924   2.647   2.860   5.031 -1.2294  0.2057 -1.5212
   62SAPC  H17S 4925   2.632   2.684   5.081 -1.5974  1.5295  0.3354
   62SAPC  C218 4926   2.588   2.734   4.876  0.1617  0.7992  0.2239
   62SAPC  H18R 4927   2.621   2.633   4.844  1.9532  1.6913 -0.9105
   62SAPC  H18S 4928   2.630   2.809   4.806  0.9671 -1.9045 -2.4245
   62SAPC  C219 4929   2.438   2.742   4.896 -0.5398 -0.6917  0.5460
   62SAPC  H19R 4930   2.425   2.846   4.933 -1.2737 -0.4584 -0.3332
   62SAPC  H19S 4931   2.396   2.673   4.972 -1.2293 -0.7065  0.1589
   62SAPC  C220 4932   2.356   2.722   4.764 -0.4773  0.2200  0.7310
   62SAPC  H20R 4933   2.247   2.723   4.786 -0.6623  1.7367 -0.1378
   62SAPC  H20S 4934   2.388   2.628   4.713  0.7486  2.0552 -2.1379
   62SAPC  H20T 4935   2.387   2.801   4.692  1.5059 -0.2209  1.0567
   62SAPC   C33 4936   2.371   3.208   5.673 -0.2146  0.6759 -0.3430
   62SAPC   H3X 4937   2.279   3.258   5.636  0.5922  1.3414 -1.4909
   62SAPC   H3Y 4938   2.422   3.149   5.594 -0.8920 -1.4356  0.7152
   62SAPC   C34 4939   2.468   3.327   5.702  0.5950  0.9669  0.7591
   62SAPC   H4X 4940   2.572   3.290   5.691 -0.0595 -0.0719 -3.3694
   62SAPC   H4Y 4941   2.458   3.369   5.805  2.2619  4.3939 -0.3145
   62SAPC   C35 4942   2.456   3.445   5.602 -0.4789  0.5563 -0.2307
   62SAPC   H5X 4943   2.541   3.513   5.626  0.4298 -1.0346  1.3098
   62SAPC   H5Y 4944   2.362   3.501   5.622 -1.9647 -1.6158 -0.8302
   62SAPC   C36 4945   2.463   3.415   5.452  0.1088 -0.2048  0.2966
   62SAPC   H6X 4946   2.368   3.373   5.411  0.4349 -1.7070  1.0094
   62SAPC   H6Y 4947   2.534   3.332   5.436 -0.9113 -0.7331 -1.9046
   62SAPC   C37 4948   2.496   3.543   5.375 -0.1060 -0.1638  0.5828
   62SAPC   H7X 4949   2.587   3.597   5.407 -0.0740 -0.3824  0.8663
   62SAPC   H7Y 4950   2.416   3.619   5.382  0.3063  0.1578  2.4313
   62SAPC   C38 4951   2.514   3.506   5.222  0.5405 -0.4570  0.0018
   62SAPC   H8X 4952   2.414   3.477   5.183 -0.7538 -0.6932  3.2155
   62SAPC   H8Y 4953   2.571   3.411   5.220 -0.5455 -1.1872  1.6157
   62SAPC   C39 4954   2.574   3.623   5.143 -0.4371  0.8638 -0.4057
   62SAPC   H9X 4955   2.671   3.657   5.183 -0.4401 -0.3844  0.7255
   62SAPC   H9Y 4956   2.502   3.707   5.153 -0.6505  0.6812 -0.3696
   62SAPC  C310 4957   2.592   3.594   4.987  0.2502  0.5496 -0.3602
   62SAPC  H10X 4958   2.494   3.551   4.958 -0.0430  0.9556  0.0236
   62SAPC  H10Y 4959   2.673   3.523   4.958  2.6855  1.9966  2.2812
   62SAPC  C311 4960   2.631   3.716   4.910  0.3277  0.4759  0.1112
   62SAPC  H11X 4961   2.702   3.786   4.958  2.0527 -0.5990 -0.7896
   62SAPC  H11Y 4962   2.540   3.777   4.889 -0.3437 -1.0453 -1.6125
   62SAPC  C312 4963   2.682   3.684   4.767 -0.5102  1.0326 -0.0874
   62SAPC  H12X 4964   2.627   3.601   4.718 -1.5952  2.0257 -0.6104
   62SAPC  H12Y 4965   2.789   3.657   4.778 -1.1724 -1.0058  2.1917
   62SAPC  C313 4966   2.660   3.797   4.669  0.0075  0.5520  0.3674
   62SAPC  H13X 4967   2.699   3.891   4.714 -0.3059  0.6523  0.4316
   62SAPC  H13Y 4968   2.550   3.814   4.658  0.3993  3.7717  0.4388
   62SAPC  C314 4969   2.722   3.771   4.533  0.2809  0.2137  0.1938
   62SAPC  H14X 4970   2.682   3.675   4.495  1.0558  0.4841 -1.3790
   62SAPC  H14Y 4971   2.831   3.763   4.555  0.3843 -1.9754 -0.8569
   62SAPC  C315 4972   2.696   3.880   4.432 -0.5948 -0.5238 -0.0884
   62SAPC  H15X 4973   2.763   3.845   4.350  0.7062  1.8688 -0.1435
   62SAPC  H15Y 4974   2.738   3.975   4.473 -1.7361 -0.9037  2.1480
   62SAPC  C316 4975   2.555   3.901   4.372 -0.6913 -0.7047  0.1295
   62SAPC  H16X 4976   2.489   3.942   4.452  0.5883  2.3026 -0.2385
   62SAPC  H16Y 4977   2.519   3.810   4.320  1.7637 -0.0150 -3.1321
   62SAPC  C317 4978   2.553   3.998   4.255  0.3162 -0.1635 -0.0875
   62SAPC  H17X 4979   2.601   4.092   4.292  3.8283 -1.4979 -0.9235
   62SAPC  H17Y 4980   2.448   4.018   4.222 -0.1866 -2.2475  0.1108
   62SAPC  C318 4981   2.640   3.951   4.133  0.1626 -0.7205 -0.0419
   62SAPC  H18X 4982   2.745   3.956   4.170  0.0989  0.6988 -0.0088
   62SAPC  H18Y 4983   2.632   4.023   4.050  0.4311 -1.5228 -0.7783
   62SAPC  H18Z 4984   2.617   3.851   4.090 -0.1429 -0.1246 -1.2785
   63SAPC     N 4985   3.121   0.619   6.771 -0.0541  0.5718 -0.1641
   63SAPC   C12 4986   3.058   0.687   6.889  0.6436  0.3610  0.0284
   63SAPC  H12A 4987   3.131   0.759   6.924  0.4968 -0.5711  2.4232
   63SAPC  H12B 4988   3.038   0.614   6.967 -0.8302  0.9078  0.1917
   63SAPC   C13 4989   3.256   0.567   6.809  0.2836 -1.0273  0.3012
   63SAPC  H13A 4990   3.322   0.651   6.822 -2.7603  1.5938  0.2051
   63SAPC  H13B 4991   3.250   0.510   6.901  0.3244 -1.3880  0.0789
   63SAPC  H13C 4992   3.290   0.502   6.731  0.9319 -1.1030  0.6422
   63SAPC   C14 4993   3.039   0.503   6.729 -0.2703  0.7672 -0.5171
   63SAPC  H14A 4994   3.074   0.452   6.640 -2.1931  1.6728 -1.8728
   63SAPC  H14B 4995   3.036   0.431   6.809  1.1846  0.7361 -0.4794
   63SAPC  H14C 4996   2.941   0.546   6.711  0.4164  1.4665 -3.1371
   63SAPC   C15 4997   3.133   0.707   6.652 -0.4968  0.0642 -0.0622
   63SAPC  H15A 4998   3.038   0.732   6.608 -0.4656 -1.3989 -1.0350
   63SAPC  H15B 4999   3.186   0.797   6.678 -1.9111  1.4473 -1.7421
   63SAPC  H15C 5000   3.173   0.652   6.568 -1.4822  0.9158 -1.1190
   63SAPC   C11 5001   2.924   0.760   6.873  0.1765 -0.1080  0.0739
   63SAPC  H11A 5002   2.953   0.862   6.838  0.9039  0.5242  2.3667
   63SAPC  H11B 5003   2.896   0.777   6.979 -0.9136  2.9501 -0.5876
   63SAPC     P 5004   2.720   0.783   6.713 -0.4168 -0.1825  0.4211
   63SAPC   O13 5005   2.630   0.682   6.645 -0.0924 -0.8862 -0.5992
   63SAPC   O14 5006   2.664   0.881   6.807  0.1399 -0.6818 -0.6682
   63SAPC   O12 5007   2.828   0.696   6.788  0.0774 -0.4686  0.1159
   63SAPC   O11 5008   2.811   0.843   6.599 -0.4426 -0.1536 -0.6053
   63SAPC    C1 5009   2.768   0.954   6.518  0.2834  0.7521 -0.6618
   63SAPC    HA 5010   2.677   0.926   6.461 -0.4177  1.3178  0.1448
   63SAPC    HB 5011   2.743   1.039   6.586 -0.4699 -0.5054  0.6945
   63SAPC    C2 5012   2.889   1.004   6.435 -0.1788  0.6155 -1.2389
   63SAPC    HS 5013   2.851   1.087   6.372 -0.1273  0.5855 -1.3093
   63SAPC   O21 5014   2.946   0.898   6.349 -0.2391 -0.4293 -0.1318
   63SAPC   C21 5015   3.019   0.944   6.247 -0.4147 -0.0907 -0.0564
   63SAPC   O22 5016   3.019   1.059   6.206  0.3847 -0.3481 -0.3630
   63SAPC   C22 5017   3.106   0.825   6.194 -0.4787  0.1780  0.2505
   63SAPC   H2R 5018   3.179   0.804   6.275 -1.0899  0.5875  0.9285
   63SAPC   H2S 5019   3.045   0.732   6.197 -0.2437  0.0398  1.5617
   63SAPC    C3 5020   2.989   1.058   6.542  0.3585 -0.4884  0.0118
   63SAPC    HX 5021   3.013   0.975   6.612 -0.2014 -1.7509 -1.2469
   63SAPC    HY 5022   2.941   1.142   6.595  0.8116  1.6843 -2.7836
   63SAPC   O31 5023   3.107   1.100   6.475 -0.2418 -0.2416 -0.1663
   63SAPC   C31 5024   3.177   1.198   6.528  0.0399 -0.4929 -0.0157
   63SAPC   O32 5025   3.138   1.268   6.623  0.0809 -0.0842 -0.1380
   63SAPC   C32 5026   3.303   1.217   6.440  0.0547  0.8029  0.9129
   63SAPC   H2X 5027   3.342   1.319   6.458  2.4909  0.7794 -3.0603
   63SAPC   H2Y 5028   3.264   1.218   6.336  0.1430 -1.6691  0.7969
   63SAPC   C23 5029   3.174   0.856   6.058 -0.4546 -0.0160 -0.2792
   63SAPC   H3R 5030   3.240   0.945   6.059 -1.4663  0.7330  0.3015
   63SAPC   H3S 5031   3.098   0.882   5.982  0.7080  0.0558 -1.4713
   63SAPC   C24 5032   3.242   0.726   6.011  0.0524  0.6217  0.5127
   63SAPC   H4R 5033   3.252   0.729   5.900  0.1741 -2.0714  0.3838
   63SAPC   H4S 5034   3.177   0.638   6.033 -0.0220  0.8669  1.2848
   63SAPC   C25 5035   3.368   0.711   6.090  0.5257 -0.5813 -0.3467
   63SAPC   H5R 5036   3.370   0.681   6.195  1.7547 -0.9770 -0.4653
   63SAPC   C26 5037   3.484   0.746   6.039 -0.8906 -0.2559 -0.5251
   63SAPC   H6R 5038   3.566   0.727   6.109 -1.9696 -0.3298  0.7641
   63SAPC   C27 5039   3.508   0.805   5.898  0.1198  0.8091 -0.0800
   63SAPC   H7R 5040   3.444   0.734   5.842 -1.8105 -0.2095  3.1552
   63SAPC   H7S 5041   3.615   0.796   5.869  0.8344  1.5388  2.0809
   63SAPC   C28 5042   3.466   0.943   5.859  1.0937  0.1383 -0.1235
   63SAPC   H8R 5043   3.473   1.018   5.940 -1.1707 -0.9884  1.2256
   63SAPC   C29 5044   3.446   0.991   5.736 -0.1320 -0.6201 -0.2187
   63SAPC   H9R 5045   3.437   1.101   5.731 -2.1678 -0.7267  0.1013
   63SAPC  C210 5046   3.426   0.925   5.605  0.5987 -0.0570  0.3059
   63SAPC  H10R 5047   3.489   0.836   5.584  0.0458 -0.7981  1.6840
   63SAPC  H10S 5048   3.468   0.996   5.530 -0.4251  0.8477  0.5538
   63SAPC  C211 5049   3.275   0.896   5.579 -0.1438  0.1080 -1.2906
   63SAPC  H11R 5050   3.232   0.848   5.668  1.1242 -3.3700 -2.3987
   63SAPC  C212 5051   3.210   0.891   5.459 -0.0769  0.4216 -0.0235
   63SAPC  H12R 5052   3.101   0.874   5.468  0.3530 -1.4856  3.0874
   63SAPC  C213 5053   3.272   0.924   5.326 -0.3334  0.3774 -0.1471
   63SAPC  H13R 5054   3.361   0.989   5.339  0.4020 -0.6311 -0.0180
   63SAPC  H13S 5055   3.198   0.976   5.261 -0.6855 -1.0696 -0.9538
   63SAPC  C214 5056   3.319   0.799   5.250 -0.3126 -0.1803  1.3782
   63SAPC  H14R 5057   3.378   0.731   5.313 -0.3613  1.8538  3.7839
   63SAPC  C215 5058   3.295   0.770   5.118  0.0002 -0.5922 -0.6332
   63SAPC  H15R 5059   3.338   0.680   5.071 -0.1961 -0.6759 -0.6506
   63SAPC  C216 5060   3.218   0.866   5.033 -0.1713  0.2786 -0.1126
   63SAPC  H16R 5061   3.274   0.954   4.996 -1.9769  0.6823 -2.0927
   63SAPC  H16S 5062   3.123   0.878   5.090  0.0076  0.8688  0.0627
   63SAPC  C217 5063   3.185   0.784   4.903  0.4199 -0.0846 -0.4086
   63SAPC  H17R 5064   3.079   0.808   4.880 -0.7157 -2.1938  2.0984
   63SAPC  H17S 5065   3.181   0.673   4.911  0.3224 -0.0808 -0.4093
   63SAPC  C218 5066   3.282   0.808   4.784 -0.1152 -0.5095 -0.0210
   63SAPC  H18R 5067   3.307   0.916   4.774  0.9299 -0.6154  1.1517
   63SAPC  H18S 5068   3.225   0.770   4.697  0.2272 -2.6639  0.6295
   63SAPC  C219 5069   3.415   0.731   4.777 -0.2306  0.6061 -0.6304
   63SAPC  H19R 5070   3.476   0.742   4.869 -0.5795 -0.1797 -0.2951
   63SAPC  H19S 5071   3.465   0.765   4.684 -0.5703 -1.4088 -1.6250
   63SAPC  C220 5072   3.406   0.568   4.759  0.2364  0.0731  0.5563
   63SAPC  H20R 5073   3.504   0.540   4.715 -0.8658  0.2384 -2.2193
   63SAPC  H20S 5074   3.316   0.543   4.699  0.1410 -1.1995  1.1835
   63SAPC  H20T 5075   3.392   0.521   4.859  1.3020 -2.4369 -0.4065
   63SAPC   C33 5076   3.404   1.100   6.444  1.1151  0.0512 -0.4242
   63SAPC   H3X 5077   3.356   1.014   6.393 -0.5953  0.5265  0.3307
   63SAPC   H3Y 5078   3.430   1.066   6.546 -1.7711 -1.1398  0.0050
   63SAPC   C34 5079   3.535   1.152   6.384  0.0468  0.4754 -0.1875
   63SAPC   H4X 5080   3.608   1.071   6.406 -2.3932 -1.4937  1.0901
   63SAPC   H4Y 5081   3.572   1.240   6.441  2.2396  0.0841 -0.8879
   63SAPC   C35 5082   3.533   1.171   6.231  0.0221 -0.3944  0.1044
   63SAPC   H5X 5083   3.444   1.125   6.185 -1.8265  0.8022  2.2385
   63SAPC   H5Y 5084   3.624   1.128   6.185 -0.7502 -3.0467  0.8730
   63SAPC   C36 5085   3.508   1.316   6.181 -0.3385 -0.3108 -0.0042
   63SAPC   H6X 5086   3.593   1.386   6.201  1.5791 -2.4315 -0.2518
   63SAPC   H6Y 5087   3.417   1.362   6.226 -0.6029  0.1344 -0.9707
   63SAPC   C37 5088   3.480   1.330   6.030 -0.0506  0.5805  0.4210
   63SAPC   H7X 5089   3.374   1.301   6.013  0.9038 -2.8170 -0.5655
   63SAPC   H7Y 5090   3.548   1.270   5.967 -1.2067  0.5284 -0.8314
   63SAPC   C38 5091   3.494   1.478   5.980  0.2698  0.0781 -0.0873
   63SAPC   H8X 5092   3.594   1.488   5.934  0.0815  0.7036 -0.3712
   63SAPC   H8Y 5093   3.484   1.547   6.066 -2.2337 -2.1336  1.5573
   63SAPC   C39 5094   3.382   1.516   5.872  0.5656 -0.2368 -0.8332
   63SAPC   H9X 5095   3.393   1.626   5.857  0.6217 -0.3408 -1.5886
   63SAPC   H9Y 5096   3.282   1.497   5.916  0.5139  0.0103 -0.8397
   63SAPC  C310 5097   3.385   1.444   5.742 -0.0462 -0.6251  0.3075
   63SAPC  H10X 5098   3.386   1.334   5.763  0.9239 -0.8990 -1.0908
   63SAPC  H10Y 5099   3.483   1.461   5.693  0.1218  1.1010  1.1841
   63SAPC  C311 5100   3.282   1.494   5.635 -0.0275  0.1065  0.0365
   63SAPC  H11X 5101   3.293   1.601   5.607 -2.4594  0.0193 -1.5189
   63SAPC  H11Y 5102   3.176   1.488   5.668 -0.2163  0.9685 -0.4080
   63SAPC  C312 5103   3.289   1.417   5.498  0.3765 -0.1049 -0.5720
   63SAPC  H12X 5104   3.198   1.440   5.438  0.4728  0.2994 -0.5684
   63SAPC  H12Y 5105   3.297   1.309   5.518 -0.4649 -0.5367 -2.3149
   63SAPC  C313 5106   3.402   1.462   5.411 -0.7365  0.0678  0.6767
   63SAPC  H13X 5107   3.498   1.472   5.466 -1.6522  2.0302  2.0253
   63SAPC  H13Y 5108   3.376   1.563   5.372  0.2404 -0.4522 -1.5149
   63SAPC  C314 5109   3.413   1.380   5.277 -0.3517 -0.0560 -0.8261
   63SAPC  H14X 5110   3.465   1.287   5.306  0.9136  1.2298  1.3349
   63SAPC  H14Y 5111   3.473   1.438   5.204 -1.0923  2.6731  0.5589
   63SAPC  C315 5112   3.275   1.346   5.215  0.4111 -0.5449  0.0411
   63SAPC  H15X 5113   3.213   1.437   5.199 -1.6822 -2.0955 -1.1487
   63SAPC  H15Y 5114   3.218   1.278   5.281 -1.2357  2.4083  1.8948
   63SAPC  C316 5115   3.276   1.288   5.075  0.1612  0.6636 -0.2135
   63SAPC  H16X 5116   3.345   1.200   5.077  0.9188  1.2469  0.5999
   63SAPC  H16Y 5117   3.327   1.362   5.010  0.4563  1.0207  0.4059
   63SAPC  C317 5118   3.144   1.257   5.009  0.0207  0.5144 -0.5681
   63SAPC  H17X 5119   3.111   1.157   5.047  2.5128 -0.3721 -0.5375
   63SAPC  H17Y 5120   3.157   1.241   4.900  0.7412 -2.6551 -0.1224
   63SAPC  C318 5121   3.045   1.367   5.018 -0.2731  0.8660  0.2138
   63SAPC  H18X 5122   3.039   1.406   5.121 -0.9619  2.3132 -0.3391
   63SAPC  H18Y 5123   2.942   1.329   4.999 -0.0956 -0.5313  1.7932
   63SAPC  H18Z 5124   3.070   1.444   4.942 -0.9817  0.4863 -0.4157
   64SAPC     N 5125   4.023   1.153   6.583  0.4326  0.7749 -0.7477
   64SAPC   C12 5126   3.971   1.241   6.473  0.1348  0.0198 -0.4216
   64SAPC  H12A 5127   3.968   1.181   6.383 -2.1198 -0.6225  0.0201
   64SAPC  H12B 5128   4.034   1.326   6.455 -1.6102  1.3518 -0.5489
   64SAPC   C13 5129   3.929   1.040   6.611  0.0162  0.4096  0.3126
   64SAPC  H13A 5130   3.831   1.081   6.626  0.1008  0.8987 -0.4469
   64SAPC  H13B 5131   3.918   0.978   6.524  1.3861 -1.8201  1.6171
   64SAPC  H13C 5132   3.964   0.973   6.689  2.0550 -2.2992 -2.6596
   64SAPC   C14 5133   4.155   1.096   6.538 -0.7844 -0.2293 -0.2917
   64SAPC  H14A 5134   4.233   1.168   6.522 -0.0749 -0.3545  2.2204
   64SAPC  H14B 5135   4.199   1.045   6.623  2.4079 -0.2565 -1.8185
   64SAPC  H14C 5136   4.149   1.023   6.458 -0.0069 -1.6749  0.9164
   64SAPC   C15 5137   4.045   1.224   6.709  0.2608 -0.3078  0.6617
   64SAPC  H15A 5138   4.131   1.289   6.699 -0.5111  0.6731  0.2607
   64SAPC  H15B 5139   3.959   1.284   6.736 -0.1199 -0.8366  0.6233
   64SAPC  H15C 5140   4.070   1.157   6.790  0.1353  0.2583  1.1843
   64SAPC   C11 5141   3.827   1.305   6.492  0.3117  0.2260  0.3609
   64SAPC  H11A 5142   3.755   1.221   6.500 -2.7302  2.7272  1.0088
   64SAPC  H11B 5143   3.798   1.367   6.405 -0.2346  0.0426  0.4092
   64SAPC     P 5144   3.860   1.519   6.622 -0.2584  0.0498  0.3855
   64SAPC   O13 5145   3.750   1.614   6.587 -0.5955  0.1696  0.3307
   64SAPC   O14 5146   3.924   1.518   6.757 -0.3216 -0.1996 -0.0506
   64SAPC   O12 5147   3.808   1.376   6.611  0.3251  0.2480  1.0444
   64SAPC   O11 5148   3.984   1.522   6.525  0.0313 -0.7748  0.6767
   64SAPC    C1 5149   4.038   1.645   6.492 -0.6781 -0.7555  0.1105
   64SAPC    HA 5150   4.015   1.733   6.556  0.0816 -0.0004 -0.6307
   64SAPC    HB 5151   4.145   1.614   6.492 -1.0288 -2.4069 -3.0490
   64SAPC    C2 5152   3.985   1.695   6.348  0.5724 -0.4492 -0.3357
   64SAPC    HS 5153   3.877   1.711   6.365  0.8863  1.2636  0.2943
   64SAPC   O21 5154   4.020   1.597   6.254 -0.1965  0.1400  0.0966
   64SAPC   C21 5155   3.921   1.519   6.212 -0.1738  0.4081 -0.3377
   64SAPC   O22 5156   3.805   1.530   6.247  0.6417  0.1838 -0.4099
   64SAPC   C22 5157   3.979   1.399   6.136 -0.7423  0.1769 -0.1641
   64SAPC   H2R 5158   4.042   1.443   6.055 -2.3428  0.9783 -1.0339
   64SAPC   H2S 5159   4.045   1.346   6.208  0.1391  0.8157 -0.4778
   64SAPC    C3 5160   4.027   1.839   6.301  0.2215 -0.4368  0.8751
   64SAPC    HX 5161   4.134   1.864   6.317  0.0526  0.4483  0.6977
   64SAPC    HY 5162   3.986   1.919   6.366 -1.4962 -2.1937  2.0315
   64SAPC   O31 5163   3.987   1.854   6.168  0.0740 -0.1053 -0.5160
   64SAPC   C31 5164   3.871   1.919   6.153 -0.1861  1.0679  0.4491
   64SAPC   O32 5165   3.808   1.977   6.235  0.1574 -0.8010  0.0861
   64SAPC   C32 5166   3.831   1.905   6.004  0.1191 -0.1343  0.2819
   64SAPC   H2X 5167   3.924   1.938   5.952 -0.6481 -0.6817 -1.5081
   64SAPC   H2Y 5168   3.755   1.985   5.993  0.9657  0.4582 -1.6484
   64SAPC   C23 5169   3.871   1.301   6.085  0.2973 -0.0398  0.5460
   64SAPC   H3R 5170   3.785   1.354   6.038  1.4466 -0.3412 -2.0809
   64SAPC   H3S 5171   3.815   1.253   6.168 -0.7477 -0.5966 -0.4583
   64SAPC   C24 5172   3.912   1.180   5.998 -0.1769  0.2809  0.7279
   64SAPC   H4R 5173   3.838   1.097   5.993  1.1751 -1.0169  1.3619
   64SAPC   H4S 5174   3.996   1.132   6.053 -0.0621 -0.3760  0.0138
   64SAPC   C25 5175   3.973   1.203   5.862 -0.0735 -0.8511 -0.3202
   64SAPC   H5R 5176   4.083   1.201   5.867 -0.0710 -0.8767 -0.3850
   64SAPC   C26 5177   3.910   1.193   5.745 -0.1033  0.2017  1.4492
   64SAPC   H6R 5178   3.963   1.209   5.650 -1.5561 -0.9376  0.3878
   64SAPC   C27 5179   3.760   1.171   5.734 -0.1025  0.0157 -0.1707
   64SAPC   H7R 5180   3.706   1.192   5.829 -0.5082 -1.6369  0.0092
   64SAPC   H7S 5181   3.748   1.060   5.730  2.4502 -0.3588  0.8263
   64SAPC   C28 5182   3.706   1.248   5.613 -0.4217 -0.1258 -0.4398
   64SAPC   H8R 5183   3.643   1.335   5.639  1.4589  0.9835  0.5759
   64SAPC   C29 5184   3.724   1.229   5.479 -0.3730  0.8646 -1.3967
   64SAPC   H9R 5185   3.678   1.287   5.397  0.0500 -0.1713 -2.3848
   64SAPC  C210 5186   3.799   1.110   5.419 -0.0372 -0.3469  0.1465
   64SAPC  H10R 5187   3.836   1.047   5.503 -0.4730 -2.0671 -0.8951
   64SAPC  H10S 5188   3.887   1.136   5.358 -0.4978 -1.9673 -1.3053
   64SAPC  C211 5189   3.701   1.014   5.352  0.7249  0.0439 -0.9571
   64SAPC  H11R 5190   3.658   0.941   5.421  0.1480  1.1364 -0.1229
   64SAPC  C212 5191   3.664   1.022   5.221 -0.0070  0.7869  0.1361
   64SAPC  H12R 5192   3.611   0.936   5.177  1.0960  0.0980  0.1258
   64SAPC  C213 5193   3.707   1.129   5.117  0.3146  0.0687 -0.8020
   64SAPC  H13R 5194   3.800   1.175   5.156  0.9234 -2.3712  0.8771
   64SAPC  H13S 5195   3.634   1.212   5.113 -0.4076 -0.2998  2.1470
   64SAPC  C214 5196   3.753   1.073   4.989  0.1448  0.6455 -0.1113
   64SAPC  H14R 5197   3.837   1.001   4.988 -0.9311 -0.8269  2.9812
   64SAPC  C215 5198   3.675   1.077   4.879  0.2300 -0.4367  0.2892
   64SAPC  H15R 5199   3.696   1.017   4.790 -2.1578 -0.2077 -0.5055
   64SAPC  C216 5200   3.537   1.138   4.856  0.0856  0.3491 -0.6383
   64SAPC  H16R 5201   3.539   1.245   4.888  1.0011  0.5870 -1.4441
   64SAPC  H16S 5202   3.467   1.086   4.925  0.3761 -0.3699 -0.8749
   64SAPC  C217 5203   3.489   1.115   4.709  0.7685 -0.6272  0.2544
   64SAPC  H17R 5204   3.382   1.141   4.693  0.7541 -1.6133 -1.4592
   64SAPC  H17S 5205   3.504   1.010   4.676 -1.0269 -0.3437 -1.6656
   64SAPC  C218 5206   3.557   1.206   4.605 -0.4256  0.1490  0.6149
   64SAPC  H18R 5207   3.663   1.216   4.639 -0.0531 -1.0710 -0.0876
   64SAPC  H18S 5208   3.502   1.302   4.601 -2.9379 -1.2161  0.3273
   64SAPC  C219 5209   3.554   1.157   4.459 -0.5860  0.0564 -0.5543
   64SAPC  H19R 5210   3.458   1.106   4.436  0.6083 -2.9859  0.6196
   64SAPC  H19S 5211   3.631   1.077   4.446  2.4139  2.5975  0.2916
   64SAPC  C220 5212   3.591   1.265   4.365  0.6455  0.2910 -0.0896
   64SAPC  H20R 5213   3.599   1.223   4.263 -2.6545  1.2297 -0.8551
   64SAPC  H20S 5214   3.686   1.311   4.399  0.2786 -0.6586  2.4350
   64SAPC  H20T 5215   3.509   1.339   4.352  0.7315  0.5515  0.7521
   64SAPC   C33 5216   3.772   1.767   5.967 -0.0011 -0.8641  0.1087
   64SAPC   H3X 5217   3.687   1.741   6.035 -1.6155  1.4541 -0.8773
   64SAPC   H3Y 5218   3.844   1.685   5.985 -0.2701 -0.4877  3.8606
   64SAPC   C34 5219   3.718   1.765   5.829  0.4549  0.2412  0.6955
   64SAPC   H4X 5220   3.666   1.860   5.807 -1.9035 -1.4896 -1.9541
   64SAPC   H4Y 5221   3.649   1.679   5.818  0.5901  0.1973  0.1768
   64SAPC   C35 5222   3.834   1.737   5.730 -0.6230 -0.0230  0.0492
   64SAPC   H5X 5223   3.915   1.812   5.743  1.0559 -1.3594 -2.0333
   64SAPC   H5Y 5224   3.795   1.745   5.626  0.0395  0.9311 -0.1296
   64SAPC   C36 5225   3.893   1.593   5.732 -0.6717  0.5884  0.2278
   64SAPC   H6X 5226   3.809   1.534   5.690 -1.2638 -0.2998  2.5456
   64SAPC   H6Y 5227   3.913   1.551   5.833 -1.6403 -2.2467 -0.6723
   64SAPC   C37 5228   4.030   1.588   5.650 -0.0514 -0.1496  0.2088
   64SAPC   H7X 5229   4.068   1.484   5.661 -0.5948 -0.0918  3.5703
   64SAPC   H7Y 5230   4.092   1.664   5.700 -1.1828 -0.3108  1.9360
   64SAPC   C38 5231   4.009   1.622   5.498 -0.2122  0.5643 -0.0318
   64SAPC   H8X 5232   4.104   1.592   5.449 -0.8775  0.0758 -1.0480
   64SAPC   H8Y 5233   3.985   1.729   5.480  0.1068  0.0624 -4.8277
   64SAPC   C39 5234   3.911   1.528   5.423  0.1523 -0.3451 -0.1380
   64SAPC   H9X 5235   3.812   1.539   5.472  0.1468  0.6840 -0.3675
   64SAPC   H9Y 5236   3.937   1.421   5.440 -1.0248 -0.5999  0.1551
   64SAPC  C310 5237   3.891   1.565   5.270 -0.2258  0.4662 -0.5155
   64SAPC  H10X 5238   3.995   1.544   5.234 -0.8813 -0.6453 -1.8727
   64SAPC  H10Y 5239   3.881   1.675   5.262  1.3506  0.6199 -0.7266
   64SAPC  C311 5240   3.774   1.500   5.189  0.4130  0.6287  0.7003
   64SAPC  H11X 5241   3.678   1.524   5.239  0.3225 -0.8882  1.2987
   64SAPC  H11Y 5242   3.792   1.391   5.198  3.3227  0.9670 -0.0118
   64SAPC  C312 5243   3.774   1.551   5.044 -0.2775  0.7848 -0.2190
   64SAPC  H12X 5244   3.871   1.521   4.998 -0.7414 -3.6733  1.1923
   64SAPC  H12Y 5245   3.774   1.662   5.049  1.7904  0.7607  3.5887
   64SAPC  C313 5246   3.668   1.484   4.969  0.2207 -0.5254 -0.4805
   64SAPC  H13X 5247   3.567   1.501   5.012  0.6675  1.2278 -0.0315
   64SAPC  H13Y 5248   3.697   1.377   4.962  0.1996 -0.4603 -1.8345
   64SAPC  C314 5249   3.669   1.533   4.826  0.7185  0.0763 -0.2018
   64SAPC  H14X 5250   3.612   1.460   4.765  0.1287 -0.1468  0.5921
   64SAPC  H14Y 5251   3.773   1.542   4.788  0.7111 -0.9779 -0.5058
   64SAPC  C315 5252   3.597   1.671   4.821 -0.6198 -0.4688  0.1300
   64SAPC  H15X 5253   3.640   1.738   4.898 -1.3968  1.2031 -0.8129
   64SAPC  H15Y 5254   3.492   1.651   4.853 -0.6575 -2.8385 -1.2185
   64SAPC  C316 5255   3.604   1.742   4.682 -0.7067 -0.1706 -0.8266
   64SAPC  H16X 5256   3.557   1.676   4.606  3.3018 -0.9753 -2.9112
   64SAPC  H16Y 5257   3.709   1.758   4.647 -0.5551  1.6238  0.3089
   64SAPC  C317 5258   3.539   1.874   4.691  0.1928 -0.3870 -0.0786
   64SAPC  H17X 5259   3.602   1.954   4.734  0.1247 -1.2390  1.6963
   64SAPC  H17Y 5260   3.446   1.871   4.751 -0.1065  0.2688 -0.5033
   64SAPC  C318 5261   3.507   1.928   4.553  0.7205  0.4531 -0.1286
   64SAPC  H18X 5262   3.447   1.857   4.493  0.4081  0.4973  0.1302
   64SAPC  H18Y 5263   3.598   1.947   4.493  0.3582  0.0191 -0.8195
   64SAPC  H18Z 5264   3.448   2.022   4.561 -0.9602 -0.4723 -1.1093
   65SAPC     N 5265   5.665   3.125   2.565  0.2782  0.2720 -0.3616
   65SAPC   C12 5266   5.566   3.099   2.675 -0.6837 -0.0999 -0.4992
   65SAPC  H12A 5267   5.470   3.136   2.640 -1.2383 -1.8806 -0.9504
   65SAPC  H12B 5268   5.595   3.154   2.763 -0.9477 -2.5502  1.2086
   65SAPC   C13 5269   5.803   3.062   2.596  0.7979 -0.5001 -0.7232
   65SAPC  H13A 5270   5.868   3.100   2.519 -0.1079  0.4634 -1.0454
   65SAPC  H13B 5271   5.838   3.109   2.687 -0.7739 -3.9161  1.8954
   65SAPC  H13C 5272   5.795   2.954   2.591 -0.0042 -0.3943 -2.5292
   65SAPC   C14 5273   5.619   3.074   2.433  0.2222 -1.0599  0.2409
   65SAPC  H14A 5274   5.543   3.141   2.395 -0.1879 -2.2501 -1.1141
   65SAPC  H14B 5275   5.696   3.086   2.358 -0.0308  1.4111  0.2858
   65SAPC  H14C 5276   5.584   2.972   2.438 -2.9868 -0.0419  1.3359
   65SAPC   C15 5277   5.683   3.275   2.559  0.5962  0.6312 -0.2561
   65SAPC  H15A 5278   5.592   3.327   2.532  0.1509  0.2571  0.4866
   65SAPC  H15B 5279   5.694   3.313   2.660 -0.5098  0.6608 -0.1320
   65SAPC  H15C 5280   5.759   3.313   2.493  2.1151  1.9751  2.1317
   65SAPC   C11 5281   5.548   2.947   2.707 -0.6523 -0.2692  0.1118
   65SAPC  H11A 5282   5.486   2.942   2.799 -1.4998  0.6792 -0.3817
   65SAPC  H11B 5283   5.652   2.909   2.717 -0.0477  1.3862  0.5337
   65SAPC     P 5284   5.328   2.877   2.588  0.1527  0.0380 -0.0504
   65SAPC   O13 5285   5.286   3.014   2.544  0.0774 -0.5065 -0.0108
   65SAPC   O14 5286   5.301   2.773   2.483  0.0780  0.2102 -0.4990
   65SAPC   O12 5287   5.486   2.882   2.603  0.1991 -0.2493  0.8019
   65SAPC   O11 5288   5.268   2.838   2.722 -0.5138 -0.3814  0.1014
   65SAPC    C1 5289   5.303   2.718   2.798 -0.3838 -0.1082  0.4201
   65SAPC    HA 5290   5.393   2.663   2.761  0.0908  0.2673  1.0012
   65SAPC    HB 5291   5.343   2.761   2.892  0.2310 -0.5736  0.3830
   65SAPC    C2 5292   5.174   2.635   2.816 -0.0164 -0.1357  0.4063
   65SAPC    HS 5293   5.128   2.607   2.719  1.2268 -1.2862  0.1220
   65SAPC   O21 5294   5.078   2.709   2.896  1.0325 -0.1559  0.3109
   65SAPC   C21 5295   4.952   2.671   2.870  0.1040 -0.9629  0.6461
   65SAPC   O22 5296   4.919   2.572   2.803  0.4373  0.0748  0.5213
   65SAPC   C22 5297   4.864   2.766   2.951  0.2230 -0.1336 -0.4982
   65SAPC   H2R 5298   4.921   2.861   2.955 -1.5723  0.9721 -0.0053
   65SAPC   H2S 5299   4.769   2.770   2.894 -0.6336 -1.6708  0.7047
   65SAPC    C3 5300   5.217   2.496   2.887 -0.7367 -0.4199  0.3287
   65SAPC    HX 5301   5.258   2.444   2.798  0.1001  0.6869  0.0419
   65SAPC    HY 5302   5.120   2.449   2.913 -1.1682  1.2502  1.9029
   65SAPC   O31 5303   5.302   2.509   3.002 -0.6919 -0.4257  0.7425
   65SAPC   C31 5304   5.380   2.409   3.028  0.6612 -0.2671 -0.2190
   65SAPC   O32 5305   5.364   2.301   2.974  0.1765 -0.1094 -0.6223
   65SAPC   C32 5306   5.454   2.447   3.162  0.1463 -0.3770 -0.1197
   65SAPC   H2X 5307   5.438   2.361   3.230  1.3169 -1.0599 -0.6773
   65SAPC   H2Y 5308   5.418   2.547   3.192  0.7216 -0.0063 -0.6279
   65SAPC   C23 5309   4.825   2.702   3.088 -0.8276 -0.7470 -0.5120
   65SAPC   H3R 5310   4.917   2.700   3.151 -0.2841  6.0005 -0.4001
   65SAPC   H3S 5311   4.776   2.603   3.074  0.1246 -1.5286  1.2980
   65SAPC   C24 5312   4.729   2.793   3.171 -1.0124  0.5072 -0.2339
   65SAPC   H4R 5313   4.677   2.725   3.242 -1.0438  0.5056 -0.2587
   65SAPC   H4S 5314   4.653   2.843   3.107 -1.1587 -1.7108 -1.9045
   65SAPC   C25 5315   4.814   2.901   3.244  0.1378 -0.1908 -0.5361
   65SAPC   H5R 5316   4.865   2.975   3.181 -0.5069  1.0707  0.3868
   65SAPC   C26 5317   4.830   2.910   3.376 -0.8435  0.4152 -0.8078
   65SAPC   H6R 5318   4.878   3.004   3.406  1.2491 -0.8674  0.1169
   65SAPC   C27 5319   4.768   2.824   3.482 -0.5694 -0.2678  0.0386
   65SAPC   H7R 5320   4.753   2.723   3.438  2.4876  0.0345 -2.0449
   65SAPC   H7S 5321   4.666   2.860   3.507 -0.6565 -0.6144  0.1923
   65SAPC   C28 5322   4.876   2.821   3.590  0.4573  0.1655 -0.1703
   65SAPC   H8R 5323   4.979   2.798   3.559  0.4493  1.4022 -1.1969
   65SAPC   C29 5324   4.842   2.835   3.720  0.5751 -0.0528  0.1240
   65SAPC   H9R 5325   4.915   2.813   3.799 -2.5612 -0.7869  3.1058
   65SAPC  C210 5326   4.709   2.858   3.783 -0.4426 -0.6278 -0.8508
   65SAPC  H10R 5327   4.625   2.854   3.711  1.1116  2.0538 -3.0127
   65SAPC  H10S 5328   4.702   2.959   3.830 -1.2988 -1.7496  1.6283
   65SAPC  C211 5329   4.684   2.758   3.895 -0.1241 -0.3788  0.5480
   65SAPC  H11R 5330   4.647   2.659   3.864 -0.6153 -0.2132  0.5847
   65SAPC  C212 5331   4.701   2.787   4.025  0.2222 -0.8094  0.2281
   65SAPC  H12R 5332   4.678   2.712   4.101 -0.5599 -0.6964  0.1049
   65SAPC  C213 5333   4.745   2.924   4.074 -0.5840 -0.8223  0.2553
   65SAPC  H13R 5334   4.682   3.008   4.036 -2.6659 -2.4047  0.0236
   65SAPC  H13S 5335   4.843   2.952   4.030 -0.2522 -0.5276  1.1616
   65SAPC  C214 5336   4.769   2.920   4.226 -0.0335 -0.6995  0.3576
   65SAPC  H14R 5337   4.767   2.822   4.275  0.6640 -0.3490  1.1184
   65SAPC  C215 5338   4.755   3.027   4.311  0.5998 -0.0866 -0.1171
   65SAPC  H15R 5339   4.769   3.016   4.420  2.2175 -0.0691 -0.3057
   65SAPC  C216 5340   4.750   3.168   4.257  0.5937 -0.2659  0.3558
   65SAPC  H16R 5341   4.726   3.231   4.346  2.3584  0.7818  0.1377
   65SAPC  H16S 5342   4.670   3.175   4.181  0.5807  0.5168  0.4293
   65SAPC  C217 5343   4.886   3.216   4.205 -0.4306 -0.0655  0.2763
   65SAPC  H17R 5344   4.868   3.321   4.173 -0.2531  0.3906  1.5997
   65SAPC  H17S 5345   4.923   3.161   4.115  0.9819 -0.4990  1.0982
   65SAPC  C218 5346   4.998   3.219   4.317  0.4004 -0.5277  0.0915
   65SAPC  H18R 5347   5.047   3.120   4.316  1.5896  0.0547 -0.8159
   65SAPC  H18S 5348   4.952   3.228   4.418 -2.1913  0.4619 -1.0871
   65SAPC  C219 5349   5.102   3.335   4.298  0.1352  0.4532 -0.3988
   65SAPC  H19R 5350   5.039   3.425   4.286 -0.4737  0.1935  0.6721
   65SAPC  H19S 5351   5.166   3.323   4.208 -1.4417 -3.7774 -1.1922
   65SAPC  C220 5352   5.192   3.348   4.416  0.3876 -0.0515  0.2814
   65SAPC  H20R 5353   5.138   3.367   4.511  3.5076  1.3141  1.9311
   65SAPC  H20S 5354   5.265   3.429   4.395  1.6382 -1.1699  0.1661
   65SAPC  H20T 5355   5.242   3.249   4.426  1.6537  0.5200 -0.1979
   65SAPC   C33 5356   5.608   2.449   3.142  0.1732 -0.6634  0.3758
   65SAPC   H3X 5357   5.646   2.549   3.110  1.5026 -0.9355  1.0157
   65SAPC   H3Y 5358   5.640   2.387   3.055 -2.9528 -0.7897 -0.8191
   65SAPC   C34 5359   5.687   2.427   3.273  0.2383  0.6111  0.1127
   65SAPC   H4X 5360   5.668   2.321   3.302  1.0742  0.5309  0.3786
   65SAPC   H4Y 5361   5.652   2.491   3.357 -2.2460 -1.6745  0.9666
   65SAPC   C35 5362   5.834   2.444   3.256 -0.3841  0.2145 -0.0688
   65SAPC   H5X 5363   5.849   2.550   3.225 -2.8313  0.2256 -1.4893
   65SAPC   H5Y 5364   5.882   2.390   3.171 -1.8517  0.9772 -1.4337
   65SAPC   C36 5365   5.908   2.409   3.388 -0.1088  0.1572 -0.3886
   65SAPC   H6X 5366   5.875   2.469   3.476  1.1095 -1.2707  1.1095
   65SAPC   H6Y 5367   6.014   2.440   3.386  0.0407 -0.3478 -0.2561
   65SAPC   C37 5368   5.898   2.262   3.430  0.4487 -0.0746  0.7087
   65SAPC   H7X 5369   5.925   2.187   3.352 -2.2557 -2.3005  1.7447
   65SAPC   H7Y 5370   5.791   2.243   3.454  0.2326  1.3330  0.9837
   65SAPC   C38 5371   5.971   2.237   3.559  0.0492  0.3645  0.4478
   65SAPC   H8X 5372   6.035   2.324   3.586  1.7546 -0.2342 -1.4016
   65SAPC   H8Y 5373   6.039   2.155   3.528 -1.3555 -0.8915  0.5724
   65SAPC   C39 5374   5.881   2.190   3.670 -0.1602 -0.1193  0.3209
   65SAPC   H9X 5375   5.814   2.112   3.629  1.3180 -0.9662 -0.5910
   65SAPC   H9Y 5376   5.817   2.276   3.697  0.9033  1.4498 -1.7912
   65SAPC  C310 5377   5.955   2.135   3.788  0.2427  0.2812 -0.1244
   65SAPC  H10X 5378   6.025   2.210   3.830  0.9534 -0.8372  0.7511
   65SAPC  H10Y 5379   6.015   2.050   3.751  0.3258 -0.2492  1.1630
   65SAPC  C311 5380   5.853   2.094   3.895 -0.2391  0.4020 -0.0650
   65SAPC  H11X 5381   5.802   2.018   3.833 -1.8173  2.9372 -2.0899
   65SAPC  H11Y 5382   5.783   2.178   3.916 -0.3964  0.5392 -1.1303
   65SAPC  C312 5383   5.922   2.048   4.019 -0.3984 -0.5488 -0.3983
   65SAPC  H12X 5384   5.973   2.126   4.080  0.5190 -1.4650  0.0473
   65SAPC  H12Y 5385   5.999   1.972   3.990  0.6947  0.3236  0.1328
   65SAPC  C313 5386   5.824   1.986   4.120  0.0932  0.0484 -0.0862
   65SAPC  H13X 5387   5.768   1.916   4.055 -0.7147  0.9345 -0.3726
   65SAPC  H13Y 5388   5.746   2.057   4.155  0.5547  1.0608 -1.0731
   65SAPC  C314 5389   5.896   1.904   4.233 -0.2254  0.3747  0.1319
   65SAPC  H14X 5390   5.967   1.960   4.298 -1.0596 -0.8359  2.2180
   65SAPC  H14Y 5391   5.944   1.819   4.179 -2.5374  0.3669 -2.0805
   65SAPC  C315 5392   5.792   1.865   4.337 -0.1265  0.0794 -1.0461
   65SAPC  H15X 5393   5.716   1.802   4.287  1.2471  0.7524 -4.1768
   65SAPC  H15Y 5394   5.754   1.960   4.380 -0.2968  0.8972 -2.9298
   65SAPC  C316 5395   5.859   1.781   4.457 -0.2190 -0.5999  0.1264
   65SAPC  H16X 5396   5.920   1.856   4.512 -0.2567 -1.1395  0.9205
   65SAPC  H16Y 5397   5.923   1.708   4.403  0.0068  2.2655 -3.8419
   65SAPC  C317 5398   5.761   1.715   4.556 -0.2101 -0.0887  0.5560
   65SAPC  H17X 5399   5.699   1.794   4.603  2.5017  0.8566  2.8453
   65SAPC  H17Y 5400   5.823   1.660   4.631 -0.2710  0.2396  0.8509
   65SAPC  C318 5401   5.674   1.609   4.491 -0.2719  0.5439  0.6441
   65SAPC  H18X 5402   5.606   1.556   4.561  0.1344 -0.3167  0.3953
   65SAPC  H18Y 5403   5.727   1.530   4.435  0.3470  0.6961  1.0079
   65SAPC  H18Z 5404   5.610   1.661   4.416 -1.6011 -1.3609  0.3939
   66SAPC     N 5405   1.819   2.660   2.097  0.4270  0.1665 -0.9979
   66SAPC   C12 5406   1.745   2.795   2.064 -0.7020 -0.5513 -0.0584
   66SAPC  H12A 5407   1.660   2.808   2.130  1.3650  1.1839  2.4859
   66SAPC  H12B 5408   1.707   2.782   1.965 -1.4263 -1.7379  0.3559
   66SAPC   C13 5409   1.919   2.639   1.987  0.9717  0.0606 -0.2835
   66SAPC  H13A 5410   1.973   2.732   1.975 -0.3178  0.8406 -0.2926
   66SAPC  H13B 5411   1.982   2.556   2.012  0.1783  0.0562  1.8304
   66SAPC  H13C 5412   1.870   2.624   1.892 -0.1948  0.7118  0.1851
   66SAPC   C14 5413   1.884   2.678   2.233 -0.0786 -0.3292  0.4561
   66SAPC  H14A 5414   1.944   2.595   2.270  3.0290  2.2151  1.6082
   66SAPC  H14B 5415   1.946   2.766   2.228 -1.5604  1.0560  3.4319
   66SAPC  H14C 5416   1.807   2.683   2.309 -0.9429 -0.7118 -0.3852
   66SAPC   C15 5417   1.725   2.546   2.097  0.0818  0.8012  0.2820
   66SAPC  H15A 5418   1.667   2.539   2.006  0.3507 -1.0978  0.2178
   66SAPC  H15B 5419   1.779   2.452   2.095 -1.2609  0.0072 -1.3197
   66SAPC  H15C 5420   1.667   2.542   2.189  0.6552 -1.1429  0.6097
   66SAPC   C11 5421   1.821   2.927   2.086 -0.3507 -0.9406 -0.2719
   66SAPC  H11A 5422   1.810   2.971   2.187 -2.2896 -1.4900 -0.2087
   66SAPC  H11B 5423   1.766   3.004   2.027  0.8555  0.3155  0.1899
   66SAPC     P 5424   2.020   3.006   1.938 -0.3818  0.2158  0.5324
   66SAPC   O13 5425   2.161   2.976   1.919 -0.3463 -0.1001 -0.3141
   66SAPC   O14 5426   1.936   2.985   1.819 -0.1967  0.7516  0.4884
   66SAPC   O12 5427   1.960   2.921   2.054 -0.6227 -0.5617  0.3276
   66SAPC   O11 5428   2.004   3.155   1.988  0.4329 -0.8871 -0.2291
   66SAPC    C1 5429   2.098   3.244   2.044 -0.3338  0.6033  0.2275
   66SAPC    HA 5430   2.184   3.244   1.974 -0.6876 -1.4262 -0.2722
   66SAPC    HB 5431   2.071   3.349   2.065 -2.2441 -0.1443  1.8324
   66SAPC    C2 5432   2.156   3.187   2.176  0.7790 -0.2708 -0.4649
   66SAPC    HS 5433   2.198   3.091   2.139 -1.7713 -0.8582 -2.0422
   66SAPC   O21 5434   2.053   3.162   2.274 -0.6361 -0.1482  0.2736
   66SAPC   C21 5435   2.078   3.057   2.348 -0.1943  0.0106  0.8364
   66SAPC   O22 5436   2.167   2.977   2.342  0.3062 -0.0061 -0.2206
   66SAPC   C22 5437   1.968   3.046   2.458 -0.3950 -0.2089 -0.1525
   66SAPC   H2R 5438   1.878   3.031   2.395  0.4696  1.4694 -1.8549
   66SAPC   H2S 5439   1.994   2.960   2.524  2.1373  0.1335 -0.5938
   66SAPC    C3 5440   2.262   3.279   2.236 -0.3198  0.3230 -0.1275
   66SAPC    HX 5441   2.205   3.365   2.276 -1.2758 -0.0045 -0.7464
   66SAPC    HY 5442   2.324   3.328   2.158  1.9326 -1.6818  0.3030
   66SAPC   O31 5443   2.344   3.206   2.328  0.1168 -0.2780  0.6522
   66SAPC   C31 5444   2.442   3.147   2.267  0.6530  0.2754  0.7737
   66SAPC   O32 5445   2.471   3.164   2.147  0.2714  0.0138 -0.5395
   66SAPC   C32 5446   2.507   3.033   2.348  0.2866  0.1576  0.2955
   66SAPC   H2X 5447   2.614   3.021   2.319 -0.2614  0.1011 -1.8185
   66SAPC   H2Y 5448   2.453   2.937   2.335  0.5732  0.2501 -2.0537
   66SAPC   C23 5449   1.961   3.174   2.547 -0.1656  0.3820  0.2713
   66SAPC   H3R 5450   1.914   3.249   2.480  2.1367  1.0664 -0.6880
   66SAPC   H3S 5451   2.052   3.225   2.584  0.2071  0.4320 -0.6846
   66SAPC   C24 5452   1.868   3.162   2.669 -0.5154 -0.0260  0.0198
   66SAPC   H4R 5453   1.885   3.242   2.744  1.7578  1.0826 -1.5799
   66SAPC   H4S 5454   1.904   3.082   2.738 -1.9163  0.5000  1.4134
   66SAPC   C25 5455   1.723   3.132   2.644  0.3175 -0.8441  0.7661
   66SAPC   H5R 5456   1.678   3.209   2.580  3.1876 -0.2120 -0.6106
   66SAPC   C26 5457   1.637   3.043   2.699 -0.3003  0.5043 -0.3050
   66SAPC   H6R 5458   1.531   3.033   2.671 -0.2967 -2.4987  0.4085
   66SAPC   C27 5459   1.681   2.929   2.789  0.2940 -0.5862 -0.3021
   66SAPC   H7R 5460   1.647   2.962   2.890  1.2567  2.1645 -0.7751
   66SAPC   H7S 5461   1.790   2.932   2.810  0.1958 -2.4982  0.7366
   66SAPC   C28 5462   1.639   2.791   2.752 -0.5755  0.3731  0.4292
   66SAPC   H8R 5463   1.580   2.785   2.659 -0.0765 -1.5875  0.1857
   66SAPC   C29 5464   1.679   2.679   2.813 -0.1513 -0.1720  0.3082
   66SAPC   H9R 5465   1.637   2.583   2.777 -0.3908 -0.2033  0.6587
   66SAPC  C210 5466   1.779   2.670   2.919  0.5782 -0.0285 -0.6618
   66SAPC  H10R 5467   1.816   2.774   2.933 -1.0969  0.5604 -0.3748
   66SAPC  H10S 5468   1.865   2.604   2.899 -0.7206 -2.2636  0.6678
   66SAPC  C211 5469   1.735   2.617   3.055 -0.3241  0.8978 -0.2306
   66SAPC  H11R 5470   1.627   2.606   3.068 -0.3489 -0.7816 -1.5394
   66SAPC  C212 5471   1.820   2.586   3.156 -0.2760  1.3900  0.2843
   66SAPC  H12R 5472   1.769   2.562   3.250  1.1380 -0.6340  0.5920
   66SAPC  C213 5473   1.970   2.596   3.143  0.2389 -0.2726 -0.7789
   66SAPC  H13R 5474   1.994   2.700   3.110 -2.3985  0.8343  0.4532
   66SAPC  H13S 5475   1.990   2.520   3.066  0.8765  0.7843 -1.6842
   66SAPC  C214 5476   2.034   2.566   3.274  0.5313  0.0643  0.8238
   66SAPC  H14R 5477   1.973   2.608   3.355 -0.5840  2.6441 -1.1993
   66SAPC  C215 5478   2.148   2.507   3.280  0.6123 -0.4979 -0.5997
   66SAPC  H15R 5479   2.192   2.489   3.379  0.0764 -0.2784 -0.3108
   66SAPC  C216 5480   2.244   2.480   3.166 -0.2440 -0.1310 -0.4678
   66SAPC  H16R 5481   2.253   2.574   3.107  1.8701  1.2394  1.7997
   66SAPC  H16S 5482   2.196   2.401   3.105 -0.1091 -0.0118 -0.7306
   66SAPC  C217 5483   2.379   2.417   3.206 -0.4667  0.0445 -0.2954
   66SAPC  H17R 5484   2.424   2.386   3.110 -3.3426 -0.0486 -1.7089
   66SAPC  H17S 5485   2.352   2.332   3.272 -0.0838  2.0801  2.6813
   66SAPC  C218 5486   2.460   2.517   3.289  0.3316  0.0746  0.1652
   66SAPC  H18R 5487   2.403   2.545   3.380 -0.6423  0.2733 -0.4857
   66SAPC  H18S 5488   2.459   2.613   3.232  0.3067 -0.0349 -0.0206
   66SAPC  C219 5489   2.608   2.482   3.327  0.3925  0.5684  0.6812
   66SAPC  H19R 5490   2.654   2.578   3.357 -1.3566  2.2877 -1.7378
   66SAPC  H19S 5491   2.664   2.457   3.234 -0.8750 -0.6558  0.2209
   66SAPC  C220 5492   2.625   2.369   3.437 -0.4499 -0.5554 -0.0073
   66SAPC  H20R 5493   2.593   2.413   3.534  2.8575 -0.1249  1.0101
   66SAPC  H20S 5494   2.733   2.350   3.448 -0.3173 -0.6269 -1.2506
   66SAPC  H20T 5495   2.572   2.277   3.404  0.3819 -0.5302 -1.5017
   66SAPC   C33 5496   2.516   3.068   2.500 -0.0457  0.0710 -0.5069
   66SAPC   H3X 5497   2.434   3.024   2.561 -0.8465  0.7311 -1.0941
   66SAPC   H3Y 5498   2.505   3.178   2.510 -1.3576 -0.0872 -0.0554
   66SAPC   C34 5499   2.655   3.029   2.552  0.2757 -0.4519  0.1998
   66SAPC   H4X 5500   2.724   3.110   2.521  0.3780 -1.8330 -3.7883
   66SAPC   H4Y 5501   2.706   2.943   2.505 -1.4155  0.2052 -3.1169
   66SAPC   C35 5502   2.656   3.029   2.706  0.0362 -0.4566 -0.3772
   66SAPC   H5X 5503   2.758   2.995   2.735  0.1222 -1.5236 -1.8152
   66SAPC   H5Y 5504   2.586   2.947   2.730 -1.1848  0.1672 -1.6965
   66SAPC   C36 5505   2.624   3.168   2.764  0.3291 -0.0700  0.0242
   66SAPC   H6X 5506   2.513   3.179   2.767  0.4089  1.4435 -1.1513
   66SAPC   H6Y 5507   2.668   3.247   2.699 -0.9978 -0.6022 -1.5842
   66SAPC   C37 5508   2.667   3.180   2.910  0.8975  0.1954  0.3247
   66SAPC   H7X 5509   2.775   3.168   2.931  0.9926  1.8624  1.0185
   66SAPC   H7Y 5510   2.608   3.105   2.967 -1.3030  2.3409  1.0807
   66SAPC   C38 5511   2.606   3.302   2.982 -0.2147 -0.5008  0.1871
   66SAPC   H8X 5512   2.496   3.298   2.969 -0.1350 -2.0308 -0.2822
   66SAPC   H8Y 5513   2.627   3.395   2.926 -1.0934  0.1760  0.9477
   66SAPC   C39 5514   2.659   3.314   3.117  0.0899  0.0439 -0.0688
   66SAPC   H9X 5515   2.762   3.356   3.120  0.0640  0.1827 -0.9343
   66SAPC   H9Y 5516   2.666   3.213   3.161 -1.0235 -0.5149 -1.1315
   66SAPC  C310 5517   2.570   3.408   3.205  0.2760 -0.3707 -0.3792
   66SAPC  H10X 5518   2.471   3.419   3.155  0.4583  2.8487 -0.2424
   66SAPC  H10Y 5519   2.625   3.503   3.225 -2.4817  1.2198  0.1357
   66SAPC  C311 5520   2.542   3.341   3.340 -0.3499 -0.3316  0.2213
   66SAPC  H11X 5521   2.636   3.300   3.382  0.7693 -1.4878 -3.1177
   66SAPC  H11Y 5522   2.483   3.248   3.325 -0.1982 -0.2517 -0.9055
   66SAPC  C312 5523   2.480   3.435   3.441  0.4228  0.1411  0.4625
   66SAPC  H12X 5524   2.388   3.476   3.395 -0.6131 -0.8980  1.5274
   66SAPC  H12Y 5525   2.535   3.529   3.464 -1.9874  1.6084  0.5554
   66SAPC  C313 5526   2.435   3.367   3.564  0.3050 -0.0606  0.1839
   66SAPC  H13X 5527   2.522   3.310   3.605  0.7033  0.8282  0.6021
   66SAPC  H13Y 5528   2.359   3.289   3.541  1.5577 -1.0447 -0.8166
   66SAPC  C314 5529   2.399   3.460   3.674  0.2367 -0.6933 -0.7079
   66SAPC  H14X 5530   2.316   3.527   3.641  0.8951  0.5317  0.0692
   66SAPC  H14Y 5531   2.481   3.527   3.707  0.1082 -0.9857  0.2457
   66SAPC  C315 5532   2.351   3.372   3.795 -0.2253 -0.7211 -0.0888
   66SAPC  H15X 5533   2.428   3.295   3.814 -0.1291 -0.3147  1.2428
   66SAPC  H15Y 5534   2.260   3.313   3.772  0.3832 -2.2404  1.1952
   66SAPC  C316 5535   2.338   3.450   3.927 -0.1609  0.6310 -0.5185
   66SAPC  H16X 5536   2.261   3.529   3.919 -3.9928 -2.4447  1.9167
   66SAPC  H16Y 5537   2.439   3.486   3.954  0.5938 -1.6039 -0.0975
   66SAPC  C317 5538   2.274   3.356   4.032 -1.2775  0.1271  0.1206
   66SAPC  H17X 5539   2.208   3.291   3.971  0.3916 -1.2759 -0.2599
   66SAPC  H17Y 5540   2.220   3.402   4.117  0.7414  1.9866  0.4946
   66SAPC  C318 5541   2.386   3.260   4.097 -0.2056 -0.5586 -0.7361
   66SAPC  H18X 5542   2.451   3.323   4.160 -1.0910 -0.5529  0.1859
   66SAPC  H18Y 5543   2.452   3.214   4.020  0.8458  0.2464 -0.3417
   66SAPC  H18Z 5544   2.338   3.184   4.162 -1.3687  0.8607  0.1167
   67SAPC     N 5545   6.778   2.684   2.617 -0.3151  0.4526  0.2059
   67SAPC   C12 5546   6.731   2.769   2.733 -0.7649 -1.2481  0.5378
   67SAPC  H12A 5547   6.784   2.729   2.819  0.4776  1.4013  1.0966
   67SAPC  H12B 5548   6.628   2.755   2.761  0.1264 -2.5999  3.5381
   67SAPC   C13 5549   6.734   2.540   2.626 -0.1179 -0.1121  0.4492
   67SAPC  H13A 5550   6.768   2.469   2.553 -0.5676  0.8020 -0.6965
   67SAPC  H13B 5551   6.760   2.483   2.713 -2.6925 -2.5017 -0.2040
   67SAPC  H13C 5552   6.627   2.540   2.612 -0.0543 -0.7533 -0.0888
   67SAPC   C14 5553   6.728   2.747   2.494 -0.0398  0.3616  0.0185
   67SAPC  H14A 5554   6.734   2.855   2.497  1.3207  0.4322 -2.4963
   67SAPC  H14B 5555   6.782   2.726   2.403  0.2706  2.7580 -0.3948
   67SAPC  H14C 5556   6.625   2.722   2.478  0.1386 -0.9414  0.7077
   67SAPC   C15 5557   6.927   2.689   2.603 -0.3440  0.3196 -1.0740
   67SAPC  H15A 5558   6.964   2.653   2.698 -2.1494  1.0200 -0.0688
   67SAPC  H15B 5559   6.964   2.625   2.525 -2.8361  1.2593 -3.1734
   67SAPC  H15C 5560   6.971   2.787   2.590 -0.4888  0.6261  0.5604
   67SAPC   C11 5561   6.743   2.929   2.721 -0.2346 -0.5255  0.4979
   67SAPC  H11A 5562   6.714   2.963   2.822 -1.8860  0.4568 -0.2701
   67SAPC  H11B 5563   6.659   2.935   2.649  1.1533 -0.2956 -1.1635
   67SAPC     P 5564   6.895   3.134   2.669 -0.0435  0.2975  0.1897
   67SAPC   O13 5565   7.013   3.159   2.585 -0.3803 -0.1590 -0.4668
   67SAPC   O14 5566   6.771   3.210   2.650  0.2429  0.5708  0.4216
   67SAPC   O12 5567   6.867   2.978   2.664 -0.4887 -0.0084 -0.5975
   67SAPC   O11 5568   6.935   3.156   2.820 -0.7184  0.0959  0.3631
   67SAPC    C1 5569   7.009   3.052   2.889 -0.6562 -1.0311 -0.1655
   67SAPC    HA 5570   6.954   2.957   2.871 -1.2326 -0.6273 -0.6081
   67SAPC    HB 5571   7.106   3.034   2.839  0.6074  2.5572  0.6701
   67SAPC    C2 5572   7.018   3.082   3.041  0.2968  0.1022  0.2850
   67SAPC    HS 5573   7.029   2.983   3.090 -0.6915 -1.0763 -1.7371
   67SAPC   O21 5574   6.899   3.155   3.082  0.3574  0.4420 -0.0217
   67SAPC   C21 5575   6.786   3.084   3.092 -0.7744 -0.1165 -0.0167
   67SAPC   O22 5576   6.785   2.964   3.104  0.4219 -0.0638 -0.3676
   67SAPC   C22 5577   6.662   3.171   3.074 -0.2925  0.0185 -0.2673
   67SAPC   H2R 5578   6.640   3.171   2.965 -0.7369  0.7966 -0.1890
   67SAPC   H2S 5579   6.579   3.123   3.129 -0.2575  0.9907  0.6575
   67SAPC    C3 5580   7.150   3.158   3.071 -0.7106 -0.3925  0.2964
   67SAPC    HX 5581   7.158   3.207   3.170 -0.9397  0.7750 -0.2438
   67SAPC    HY 5582   7.138   3.248   3.006 -0.1267 -0.0502  0.6540
   67SAPC   O31 5583   7.267   3.095   3.022  0.1345  0.1649  0.3059
   67SAPC   C31 5584   7.336   3.033   3.118 -0.4090  0.8728 -0.2484
   67SAPC   O32 5585   7.294   3.003   3.230  0.4207 -0.1844 -0.6383
   67SAPC   C32 5586   7.475   2.996   3.075 -0.1600  0.4873  0.3092
   67SAPC   H2X 5587   7.517   3.082   3.017  1.3055  0.8732  1.8688
   67SAPC   H2Y 5588   7.472   2.902   3.017 -0.1852 -1.1595  2.8643
   67SAPC   C23 5589   6.681   3.315   3.132 -0.2848  0.4097 -0.0727
   67SAPC   H3R 5590   6.764   3.363   3.076 -0.7518  1.1957 -0.1097
   67SAPC   H3S 5591   6.718   3.303   3.236  2.0359 -0.4091 -0.9266
   67SAPC   C24 5592   6.553   3.404   3.129 -0.6766  0.2294 -0.0247
   67SAPC   H4R 5593   6.464   3.357   3.177  0.3709 -0.5703  1.1761
   67SAPC   H4S 5594   6.514   3.416   3.025  0.5777 -0.6131 -0.6200
   67SAPC   C25 5595   6.571   3.535   3.202 -0.1284 -0.3370  0.0035
   67SAPC   H5R 5596   6.637   3.526   3.290  2.0181 -1.7205 -1.6671
   67SAPC   C26 5597   6.509   3.653   3.189  0.1880  0.9923 -0.4195
   67SAPC   H6R 5598   6.543   3.730   3.258  1.0672  1.2034 -1.0794
   67SAPC   C27 5599   6.399   3.690   3.092  0.4070  0.5384 -0.2664
   67SAPC   H7R 5600   6.300   3.692   3.141 -0.7021  2.9151 -2.4123
   67SAPC   H7S 5601   6.409   3.614   3.012  1.1861  0.2223  0.1131
   67SAPC   C28 5602   6.415   3.823   3.029  0.1575  0.0778  0.9461
   67SAPC   H8R 5603   6.447   3.821   2.924  0.5144 -0.6892  1.0606
   67SAPC   C29 5604   6.386   3.944   3.078 -0.1439 -0.4211 -0.3878
   67SAPC   H9R 5605   6.403   4.028   3.009 -0.5801 -2.3745 -3.0249
   67SAPC  C210 5606   6.343   3.997   3.215 -0.4877  0.8240 -0.0396
   67SAPC  H10R 5607   6.272   4.076   3.183 -1.9136 -0.1851  0.5609
   67SAPC  H10S 5608   6.433   4.050   3.254  0.3143  1.2730 -2.3003
   67SAPC  C211 5609   6.260   3.914   3.311  1.2108  0.4730 -0.1097
   67SAPC  H11R 5610   6.172   3.868   3.265  1.7893 -1.3328  0.4647
   67SAPC  C212 5611   6.293   3.877   3.436 -0.2550  0.6251  0.2800
   67SAPC  H12R 5612   6.225   3.813   3.493 -1.1379 -0.1320 -1.5149
   67SAPC  C213 5613   6.411   3.937   3.507 -0.2164 -0.5099 -0.8369
   67SAPC  H13R 5614   6.363   4.029   3.547 -1.3900 -2.2458  2.0907
   67SAPC  H13S 5615   6.502   3.966   3.451 -0.7769  1.6747 -0.6868
   67SAPC  C214 5616   6.459   3.857   3.623 -0.2372 -0.2777  0.8619
   67SAPC  H14R 5617   6.524   3.773   3.593 -2.0337 -1.6722  0.6816
   67SAPC  C215 5618   6.423   3.862   3.749  0.2824 -0.4993 -1.0300
   67SAPC  H15R 5619   6.478   3.798   3.821  0.9006  0.3788 -0.7022
   67SAPC  C216 5620   6.323   3.956   3.807 -0.0960  0.0745 -0.2659
   67SAPC  H16R 5621   6.251   3.892   3.864 -0.8406  0.6661 -0.5221
   67SAPC  H16S 5622   6.267   4.023   3.738  0.6113 -1.2951 -2.2629
   67SAPC  C217 5623   6.378   4.049   3.920  0.2737  0.5131  0.5713
   67SAPC  H17R 5624   6.405   3.986   4.007  0.9267  0.4486  0.3279
   67SAPC  H17S 5625   6.296   4.115   3.954 -0.7060 -0.8458  0.9244
   67SAPC  C218 5626   6.503   4.134   3.889  0.0064  0.6013  0.8983
   67SAPC  H18R 5627   6.510   4.161   3.781 -4.1657 -0.3314  0.2060
   67SAPC  H18S 5628   6.600   4.080   3.894  0.9477  1.8734 -1.7663
   67SAPC  C219 5629   6.518   4.261   3.980  0.3614 -0.8526  0.0825
   67SAPC  H19R 5630   6.439   4.337   3.960  2.1828  1.1019 -0.0810
   67SAPC  H19S 5631   6.612   4.315   3.957 -0.8237  0.9401 -0.7891
   67SAPC  C220 5632   6.515   4.228   4.129 -0.3193 -0.5528  0.1439
   67SAPC  H20R 5633   6.423   4.181   4.168 -0.1174 -0.5670  0.6163
   67SAPC  H20S 5634   6.542   4.322   4.183 -1.2587  0.6384 -1.3869
   67SAPC  H20T 5635   6.603   4.163   4.150 -1.5269 -2.5873 -0.8038
   67SAPC   C33 5636   7.574   2.952   3.190 -0.2046  0.0196 -0.8239
   67SAPC   H3X 5637   7.658   2.891   3.147  0.1483  0.5016 -0.8262
   67SAPC   H3Y 5638   7.523   2.880   3.257 -0.7979 -0.1775 -1.4759
   67SAPC   C34 5639   7.626   3.079   3.265  0.1173  0.8923 -0.0588
   67SAPC   H4X 5640   7.537   3.124   3.315 -0.0695 -1.0859  1.5045
   67SAPC   H4Y 5641   7.671   3.153   3.196  1.5517  3.1549  3.0590
   67SAPC   C35 5642   7.712   3.051   3.388 -0.3082 -0.1280  0.2512
   67SAPC   H5X 5643   7.762   3.147   3.415  0.2184 -0.7184  1.4352
   67SAPC   H5Y 5644   7.803   2.996   3.355  0.7166  1.9365 -0.5763
   67SAPC   C36 5645   7.635   2.988   3.504 -0.2538  0.1904 -0.7721
   67SAPC   H6X 5646   7.631   2.879   3.479  0.2095 -0.0937  0.3167
   67SAPC   H6Y 5647   7.534   3.032   3.519 -1.3369 -1.8665 -1.5475
   67SAPC   C37 5648   7.714   3.001   3.635  0.8551  0.3378 -0.4544
   67SAPC   H7X 5649   7.746   3.107   3.643 -1.8498  1.2086 -0.0720
   67SAPC   H7Y 5650   7.805   2.938   3.636  0.5461 -0.1912 -2.2155
   67SAPC   C38 5651   7.623   2.957   3.749 -0.2676  0.0322 -0.6472
   67SAPC   H8X 5652   7.576   2.860   3.720 -1.6299 -0.3144  2.4303
   67SAPC   H8Y 5653   7.543   3.029   3.775  0.3295  0.1822  0.8850
   67SAPC   C39 5654   7.707   2.915   3.875  0.5536 -0.1628 -0.9310
   67SAPC   H9X 5655   7.777   2.997   3.902  2.2764 -1.7339 -0.4691
   67SAPC   H9Y 5656   7.779   2.837   3.843  0.7738  0.1549 -1.2167
   67SAPC  C310 5657   7.620   2.859   3.991 -0.3735 -0.2431  0.1786
   67SAPC  H10X 5658   7.527   2.812   3.953 -2.0862  1.8060  1.6322
   67SAPC  H10Y 5659   7.579   2.951   4.037 -0.2317  0.9759 -1.9574
   67SAPC  C311 5660   7.703   2.760   4.080 -0.1683  0.2044  0.2871
   67SAPC  H11X 5661   7.795   2.818   4.100  1.4649 -2.2579  0.3698
   67SAPC  H11Y 5662   7.726   2.665   4.027 -0.2400  0.0149  0.5869
   67SAPC  C312 5663   7.628   2.726   4.207  0.0245 -0.4236 -0.3612
   67SAPC  H12X 5664   7.674   2.641   4.262  1.1100  1.5561  1.9793
   67SAPC  H12Y 5665   7.528   2.688   4.177  0.4506 -0.5658 -1.6688
   67SAPC  C313 5666   7.617   2.843   4.306  0.0421  0.4743 -0.1552
   67SAPC  H13X 5667   7.640   2.938   4.254 -0.2584  0.9543  0.5757
   67SAPC  H13Y 5668   7.691   2.845   4.389 -0.3173  0.6045  0.1654
   67SAPC  C314 5669   7.469   2.872   4.341 -0.0715 -0.1413 -0.3994
   67SAPC  H14X 5670   7.398   2.787   4.344 -1.4307  0.9046 -1.5985
   67SAPC  H14Y 5671   7.417   2.954   4.287  1.3951  1.1297  0.0403
   67SAPC  C315 5672   7.463   2.937   4.484 -0.3555  0.0394 -1.0070
   67SAPC  H15X 5673   7.499   2.866   4.562  0.2181 -0.0312 -1.3306
   67SAPC  H15Y 5674   7.357   2.949   4.514  0.3630  0.9662  1.4130
   67SAPC  C316 5675   7.526   3.073   4.514  0.1950 -0.2103 -0.5158
   67SAPC  H16X 5676   7.505   3.137   4.426  0.7258 -1.1747 -1.3650
   67SAPC  H16Y 5677   7.636   3.061   4.523  0.1522 -1.1548 -1.1122
   67SAPC  C317 5678   7.473   3.142   4.641  0.1707 -0.1757  0.1581
   67SAPC  H17X 5679   7.540   3.226   4.672 -4.0816  3.1215  1.4974
   67SAPC  H17Y 5680   7.479   3.065   4.720  2.7594 -0.6833 -0.4581
   67SAPC  C318 5681   7.334   3.203   4.640  1.0056 -0.3939  0.1232
   67SAPC  H18X 5682   7.322   3.287   4.567 -0.4745 -2.4107 -2.1350
   67SAPC  H18Y 5683   7.298   3.237   4.739 -1.3116 -1.0078 -0.4463
   67SAPC  H18Z 5684   7.259   3.133   4.598 -0.1689  0.6854  0.3520
   68SAPC     N 5685   3.127   1.061   1.660  0.6415 -0.8479 -0.2038
   68SAPC   C12 5686   3.113   0.943   1.747 -0.0965  0.5599 -0.3049
   68SAPC  H12A 5687   3.199   0.878   1.736  0.5040  0.8394  2.1866
   68SAPC  H12B 5688   3.036   0.884   1.700  0.3538  0.2958 -0.7151
   68SAPC   C13 5689   3.269   1.114   1.675  0.2115 -0.0406  0.5497
   68SAPC  H13A 5690   3.282   1.204   1.617 -0.0202 -0.3001  0.0929
   68SAPC  H13B 5691   3.280   1.133   1.781 -0.1635  0.0418  0.5725
   68SAPC  H13C 5692   3.333   1.034   1.642 -0.0835 -0.0308 -0.0426
   68SAPC   C14 5693   3.105   1.023   1.516 -0.5411 -0.0664 -0.0876
   68SAPC  H14A 5694   3.001   0.997   1.510 -1.0116  1.3111  1.4733
   68SAPC  H14B 5695   3.131   1.105   1.450 -0.2365 -0.0082  0.0982
   68SAPC  H14C 5696   3.175   0.945   1.490  2.7208  1.9092  2.0265
   68SAPC   C15 5697   3.042   1.185   1.695  0.1438  0.2070 -0.0831
   68SAPC  H15A 5698   3.045   1.260   1.617 -1.1665 -0.4648 -0.8145
   68SAPC  H15B 5699   2.936   1.168   1.706 -0.3097  1.7489 -1.5932
   68SAPC  H15C 5700   3.074   1.222   1.791 -1.1273  0.8218  0.1183
   68SAPC   C11 5701   3.079   0.963   1.897 -0.0893  0.4716 -0.2525
   68SAPC  H11A 5702   3.158   1.017   1.954 -0.0625 -0.4163  0.5835
   68SAPC  H11B 5703   3.086   0.864   1.946 -1.9011 -0.1338 -1.1334
   68SAPC     P 5704   2.823   0.957   1.895  0.0010  0.1593 -0.0144
   68SAPC   O13 5705   2.729   1.059   1.848  0.5048  0.1036 -0.0833
   68SAPC   O14 5706   2.838   0.838   1.811 -0.4224  0.4325  0.1327
   68SAPC   O12 5707   2.960   1.030   1.913  0.3721 -0.6506  0.3100
   68SAPC   O11 5708   2.785   0.914   2.042 -0.2263 -0.6646 -0.1714
   68SAPC    C1 5709   2.780   1.023   2.138 -0.9444 -0.7961 -0.3992
   68SAPC    HA 5710   2.860   1.100   2.134 -1.5878 -0.0925  0.0864
   68SAPC    HB 5711   2.681   1.074   2.139  0.4566  2.1335  0.0305
   68SAPC    C2 5712   2.787   0.961   2.278 -0.0494 -0.0339  0.2406
   68SAPC    HS 5713   2.862   0.880   2.261  0.3908 -0.0487  2.0494
   68SAPC   O21 5714   2.658   0.907   2.314  0.4108  0.4562 -0.0646
   68SAPC   C21 5715   2.655   0.805   2.401  0.5650 -0.2316 -0.0601
   68SAPC   O22 5716   2.747   0.748   2.451 -0.5441 -0.5213 -0.2385
   68SAPC   C22 5717   2.510   0.749   2.402 -0.4549  0.5194  0.7186
   68SAPC   H2R 5718   2.447   0.801   2.326  2.6098 -0.4493 -2.7720
   68SAPC   H2S 5719   2.528   0.643   2.373  1.0341  0.6178  1.2112
   68SAPC    C3 5720   2.843   1.061   2.388  0.3384 -0.2137  0.1282
   68SAPC    HX 5721   2.778   1.151   2.395 -0.1201 -0.6675  2.4528
   68SAPC    HY 5722   2.934   1.118   2.360 -1.8644  2.4555 -2.2234
   68SAPC   O31 5723   2.852   1.003   2.525 -0.1700  0.5490 -0.1862
   68SAPC   C31 5724   2.968   0.949   2.557 -0.6388 -0.6645 -0.0369
   68SAPC   O32 5725   3.060   0.959   2.477  0.3519 -0.0234 -0.6947
   68SAPC   C32 5726   2.973   0.898   2.701 -0.0186  0.6286  0.0934
   68SAPC   H2X 5727   2.939   0.792   2.701 -0.3607  0.7368  0.4191
   68SAPC   H2Y 5728   2.915   0.960   2.773  1.2967  1.6655  0.3021
   68SAPC   C23 5729   2.456   0.759   2.544  0.0826 -0.3560  0.4718
   68SAPC   H3R 5730   2.351   0.723   2.549  0.1199 -0.4156  0.8725
   68SAPC   H3S 5731   2.448   0.869   2.553  0.1197 -0.5159  2.9657
   68SAPC   C24 5732   2.545   0.692   2.646 -0.0589 -0.4652 -0.3685
   68SAPC   H4R 5733   2.636   0.753   2.667  0.7349 -1.8066  0.2544
   68SAPC   H4S 5734   2.576   0.590   2.612 -1.0507 -1.1712  0.7845
   68SAPC   C25 5735   2.463   0.678   2.771 -0.5976  0.0657 -0.5343
   68SAPC   H5R 5736   2.361   0.641   2.755 -0.2415 -0.8173 -0.7837
   68SAPC   C26 5737   2.494   0.710   2.898  0.3171  0.2715 -0.3671
   68SAPC   H6R 5738   2.421   0.707   2.979 -0.6391 -1.1330 -1.2366
   68SAPC   C27 5739   2.632   0.759   2.935  0.2816  0.4757 -0.2010
   68SAPC   H7R 5740   2.639   0.854   2.992  3.2465  0.1208  0.2082
   68SAPC   H7S 5741   2.693   0.790   2.846 -1.1989 -2.5872 -2.4827
   68SAPC   C28 5742   2.727   0.660   3.003  0.7920  0.4101  0.3126
   68SAPC   H8R 5743   2.779   0.595   2.931  2.2187  2.1202 -0.2649
   68SAPC   C29 5744   2.739   0.625   3.136 -0.2363  0.3025  0.5325
   68SAPC   H9R 5745   2.802   0.537   3.155  0.2212  0.4428 -0.2697
   68SAPC  C210 5746   2.667   0.673   3.257 -0.0370  0.1776 -0.1600
   68SAPC  H10R 5747   2.623   0.586   3.310 -0.6713  0.0359 -0.9045
   68SAPC  H10S 5748   2.581   0.736   3.226  0.3035  1.1398  0.7784
   68SAPC  C211 5749   2.758   0.739   3.348 -0.0192 -0.1092 -0.7036
   68SAPC  H11R 5750   2.794   0.833   3.302 -0.6731  0.0149 -0.9739
   68SAPC  C212 5751   2.784   0.703   3.476 -0.2399  0.0117 -0.1548
   68SAPC  H12R 5752   2.857   0.768   3.526  0.3990 -1.5900  1.0996
   68SAPC  C213 5753   2.755   0.576   3.550  0.1289 -0.0393  0.5280
   68SAPC  H13R 5754   2.855   0.530   3.569  0.4701  0.1612 -0.6866
   68SAPC  H13S 5755   2.706   0.500   3.485  0.5654  0.3782 -0.3056
   68SAPC  C214 5756   2.673   0.596   3.672  0.3664  0.1100  0.4455
   68SAPC  H14R 5757   2.566   0.577   3.660  0.5590  0.2300 -1.6998
   68SAPC  C215 5758   2.716   0.594   3.800 -0.2718  0.1492  0.3252
   68SAPC  H15R 5759   2.649   0.620   3.884  0.6283 -0.5457  1.2825
   68SAPC  C216 5760   2.863   0.599   3.852  0.1230  0.1333  0.2812
   68SAPC  H16R 5761   2.879   0.704   3.883  1.1737  0.2742 -0.6900
   68SAPC  H16S 5762   2.939   0.575   3.775 -0.7313  1.2119 -0.9423
   68SAPC  C217 5763   2.886   0.516   3.978 -0.0184 -0.5434  0.2732
   68SAPC  H17R 5764   2.992   0.524   4.010 -0.4552  1.4262  1.4219
   68SAPC  H17S 5765   2.874   0.409   3.953 -0.3620 -0.2567 -0.8943
   68SAPC  C218 5766   2.804   0.554   4.100  0.4267  0.4103 -0.4592
   68SAPC  H18R 5767   2.694   0.545   4.088  0.3208  1.1481 -0.1522
   68SAPC  H18S 5768   2.822   0.660   4.128  0.9875 -0.2234  1.7956
   68SAPC  C219 5769   2.865   0.470   4.216  0.3430  0.0260  0.4673
   68SAPC  H19R 5770   2.975   0.487   4.218  0.3642  0.1463 -0.7270
   68SAPC  H19S 5771   2.857   0.363   4.185 -0.2200  0.6351 -1.6770
   68SAPC  C220 5772   2.802   0.503   4.349  0.3789  0.0613  0.1350
   68SAPC  H20R 5773   2.831   0.600   4.395  1.7233 -0.2794  0.0211
   68SAPC  H20S 5774   2.838   0.430   4.425  1.4215  1.4663  1.0462
   68SAPC  H20T 5775   2.692   0.486   4.356  0.3535  0.7436  2.9673
   68SAPC   C33 5776   3.120   0.889   2.744 -0.1576  0.5040  0.4141
   68SAPC   H3X 5777   3.173   0.987   2.753  0.1996  0.5287 -1.5497
   68SAPC   H3Y 5778   3.186   0.832   2.676 -0.1648  2.7763 -1.6176
   68SAPC   C34 5779   3.125   0.819   2.880  0.1615 -0.1085 -0.7541
   68SAPC   H4X 5780   3.233   0.803   2.901 -0.0692  0.2768  0.8311
   68SAPC   H4Y 5781   3.079   0.719   2.865 -0.1696  0.1051 -1.2020
   68SAPC   C35 5782   3.069   0.899   2.995 -0.5865  0.5249 -0.2772
   68SAPC   H5X 5783   2.963   0.867   2.988 -0.8433  0.8212  1.7178
   68SAPC   H5Y 5784   3.075   1.010   2.987 -1.6212  0.5767 -0.4188
   68SAPC   C36 5785   3.138   0.881   3.131  0.3595  0.8534 -0.0142
   68SAPC   H6X 5786   3.163   0.774   3.148 -0.9634  0.7413  1.5273
   68SAPC   H6Y 5787   3.062   0.917   3.204 -0.8913  0.1246 -0.9313
   68SAPC   C37 5788   3.267   0.960   3.137 -0.5719 -0.5016 -0.2449
   68SAPC   H7X 5789   3.232   1.058   3.175  0.7543 -0.4431  0.9030
   68SAPC   H7Y 5790   3.312   0.965   3.036 -0.1861  0.4582 -0.0320
   68SAPC   C38 5791   3.372   0.916   3.240  0.0152  0.5607 -0.0261
   68SAPC   H8X 5792   3.436   0.837   3.197  2.2580  2.1748  0.1915
   68SAPC   H8Y 5793   3.324   0.871   3.330  2.1493 -0.8697  0.4535
   68SAPC   C39 5794   3.468   1.023   3.284  0.1664 -0.0978 -0.5293
   68SAPC   H9X 5795   3.417   1.121   3.268  1.3754  0.3461 -1.8693
   68SAPC   H9Y 5796   3.545   1.023   3.204  1.7454  0.0056  0.9203
   68SAPC  C310 5797   3.530   0.999   3.419 -0.3936  0.5397  0.2219
   68SAPC  H10X 5798   3.633   1.038   3.406 -0.1852 -0.1999 -0.4194
   68SAPC  H10Y 5799   3.548   0.890   3.427 -2.2996 -0.0497 -2.2826
   68SAPC  C311 5800   3.472   1.074   3.540  0.0589 -0.8666 -0.5217
   68SAPC  H11X 5801   3.452   1.178   3.509  2.6867 -0.3300 -0.6124
   68SAPC  H11Y 5802   3.546   1.084   3.622 -0.1301  1.0599 -0.5485
   68SAPC  C312 5803   3.343   1.028   3.603  0.2699  0.1963 -0.2386
   68SAPC  H12X 5804   3.259   1.038   3.530 -2.3164 -0.9806  2.3886
   68SAPC  H12Y 5805   3.314   1.093   3.688  1.4057  1.2411 -0.6277
   68SAPC  C313 5806   3.331   0.879   3.643  0.2610  0.3941  0.3491
   68SAPC  H13X 5807   3.367   0.830   3.550 -0.2906  0.4127  0.1197
   68SAPC  H13Y 5808   3.226   0.845   3.658 -0.0188  1.2060  0.2554
   68SAPC  C314 5809   3.408   0.847   3.766 -0.8862  0.4523  0.1701
   68SAPC  H14X 5810   3.496   0.915   3.765  0.3176 -1.0204 -2.0785
   68SAPC  H14Y 5811   3.445   0.744   3.779 -0.2666  0.6573  0.0490
   68SAPC  C315 5812   3.320   0.876   3.891 -0.6683  0.4629 -0.2929
   68SAPC  H15X 5813   3.226   0.820   3.875 -1.1695  1.7272 -2.0914
   68SAPC  H15Y 5814   3.299   0.985   3.896  0.2968  0.7562 -1.8847
   68SAPC  C316 5815   3.388   0.836   4.021 -0.3740 -0.2801 -0.7952
   68SAPC  H16X 5816   3.448   0.744   4.006 -1.3717 -1.0218 -0.3955
   68SAPC  H16Y 5817   3.310   0.825   4.100  0.2871 -2.3751 -0.3973
   68SAPC  C317 5818   3.494   0.938   4.061  0.0462  0.0828 -0.3187
   68SAPC  H17X 5819   3.441   1.035   4.077 -0.5390 -0.0250 -1.4637
   68SAPC  H17Y 5820   3.564   0.959   3.977 -1.1047  0.7020 -1.1549
   68SAPC  C318 5821   3.553   0.901   4.195 -0.8758  0.1122  0.2696
   68SAPC  H18X 5822   3.619   0.981   4.235 -1.0474  0.5776 -0.3545
   68SAPC  H18Y 5823   3.609   0.805   4.193 -0.4626  0.3554 -0.2563
   68SAPC  H18Z 5824   3.476   0.875   4.271 -0.0067  0.5409  1.3253
   69SAPC     N 5825   0.055   1.668   2.009 -0.6114  0.1875  0.1995
   69SAPC   C12 5826   0.049   1.712   2.160 -0.2777 -0.0770  0.3142
   69SAPC  H12A 5827  -0.026   1.662   2.218 -0.7293  0.8818  0.5843
   69SAPC  H12B 5828   0.014   1.813   2.142  2.9736  0.5621 -3.9702
   69SAPC   C13 5829  -0.085   1.677   1.944  0.2315 -0.6817 -0.7584
   69SAPC  H13A 5830  -0.080   1.655   1.839 -0.8155  1.4597 -1.3106
   69SAPC  H13B 5831  -0.155   1.627   2.009  0.8433 -0.4294  0.1165
   69SAPC  H13C 5832  -0.122   1.778   1.949 -1.3759 -1.2837  0.2949
   69SAPC   C14 5833   0.155   1.746   1.929  0.5047  0.3446 -0.3747
   69SAPC  H14A 5834   0.123   1.848   1.916 -1.1491 -0.1441 -0.4071
   69SAPC  H14B 5835   0.250   1.759   1.979  0.6088  0.5150 -0.6149
   69SAPC  H14C 5836   0.197   1.705   1.838  0.7496  0.6583 -0.4058
   69SAPC   C15 5837   0.094   1.516   1.992 -0.3767 -0.1473  0.7400
   69SAPC  H15A 5838   0.194   1.505   2.031 -0.8624 -0.2767  1.9669
   69SAPC  H15B 5839   0.035   1.454   2.057 -1.9745  0.3975 -0.1282
   69SAPC  H15C 5840   0.099   1.480   1.890 -1.1484  0.2780  0.5454
   69SAPC   C11 5841   0.174   1.713   2.254 -0.5297 -0.2176  0.1167
   69SAPC  H11A 5842   0.137   1.715   2.358  2.5847  2.6029  1.3500
   69SAPC  H11B 5843   0.225   1.809   2.229 -1.0829  0.2449  0.7546
   69SAPC     P 5844   0.421   1.619   2.244  0.1583  0.2329  0.3998
   69SAPC   O13 5845   0.499   1.493   2.274  0.3613 -0.3836 -0.0357
   69SAPC   O14 5846   0.473   1.697   2.130  0.3761 -0.1278  0.4673
   69SAPC   O12 5847   0.263   1.598   2.224  0.0871 -0.4007 -1.1418
   69SAPC   O11 5848   0.422   1.703   2.380  0.1331 -0.0976  0.1984
   69SAPC    C1 5849   0.361   1.650   2.497  0.3236 -0.2749 -0.1803
   69SAPC    HA 5850   0.290   1.722   2.543  1.7560  0.6981  0.5536
   69SAPC    HB 5851   0.316   1.549   2.486  1.3289 -0.8855  1.0825
   69SAPC    C2 5852   0.472   1.626   2.607  0.1113  0.3237  0.3098
   69SAPC    HS 5853   0.541   1.547   2.569  2.2225  2.2710 -0.1756
   69SAPC   O21 5854   0.415   1.606   2.738 -0.3819  0.2935 -0.0352
   69SAPC   C21 5855   0.386   1.487   2.772  0.3973  0.8533  0.1920
   69SAPC   O22 5856   0.405   1.385   2.708  0.2732  0.2397 -0.5714
   69SAPC   C22 5857   0.308   1.480   2.902  0.6746  0.0986  0.2740
   69SAPC   H2R 5858   0.288   1.373   2.926 -1.8412  0.5602  0.4888
   69SAPC   H2S 5859   0.380   1.520   2.976  0.1592  0.5889  0.5182
   69SAPC    C3 5860   0.567   1.752   2.617 -0.3162 -0.1133  0.4762
   69SAPC    HX 5861   0.510   1.847   2.610 -3.0193 -1.7116 -0.3753
   69SAPC    HY 5862   0.626   1.741   2.524  0.7679 -0.2765  1.1524
   69SAPC   O31 5863   0.659   1.751   2.729 -0.3648  0.1143 -0.7032
   69SAPC   C31 5864   0.766   1.828   2.713  0.4191  0.0151 -0.0222
   69SAPC   O32 5865   0.781   1.912   2.625  0.3787 -0.0806 -0.1544
   69SAPC   C32 5866   0.860   1.815   2.833 -0.4880  0.3032  0.3613
   69SAPC   H2X 5867   0.923   1.723   2.832  0.2950  0.8411 -0.3507
   69SAPC   H2Y 5868   0.798   1.800   2.924  0.0933 -1.2743  0.5385
   69SAPC   C23 5869   0.167   1.553   2.897 -0.0055  0.3776  0.1659
   69SAPC   H3R 5870   0.089   1.493   2.846  1.0532 -0.6025 -0.3301
   69SAPC   H3S 5871   0.176   1.646   2.836 -0.0182  1.1819  1.3566
   69SAPC   C24 5872   0.113   1.570   3.039 -1.1052 -0.4525  0.4087
   69SAPC   H4R 5873   0.149   1.481   3.096  2.9160  0.7732  0.0790
   69SAPC   H4S 5874   0.002   1.558   3.035 -1.0672 -1.5541  1.6414
   69SAPC   C25 5875   0.143   1.705   3.102 -1.3849  0.6092  0.7423
   69SAPC   H5R 5876   0.152   1.786   3.029  0.4284 -2.4034 -2.7213
   69SAPC   C26 5877   0.146   1.732   3.232 -0.2173 -0.9162  0.5773
   69SAPC   H6R 5878   0.167   1.837   3.255  2.6005 -1.1514 -0.5172
   69SAPC   C27 5879   0.127   1.645   3.349 -0.5809 -0.1036  0.3618
   69SAPC   H7R 5880   0.051   1.567   3.327  0.4565 -0.6911 -1.4086
   69SAPC   H7S 5881   0.089   1.712   3.429 -1.2029  1.3134 -1.0671
   69SAPC   C28 5882   0.254   1.567   3.378  0.2462  0.0453 -0.6546
   69SAPC   H8R 5883   0.326   1.560   3.295  1.5945 -1.1909  0.5678
   69SAPC   C29 5884   0.288   1.531   3.502  0.3003 -0.3500  0.2304
   69SAPC   H9R 5885   0.365   1.455   3.520 -1.2255 -2.0769 -0.2075
   69SAPC  C210 5886   0.190   1.538   3.623  0.3683  0.5882  0.6219
   69SAPC  H10R 5887   0.087   1.517   3.587  1.3572 -1.3315 -1.3285
   69SAPC  H10S 5888   0.178   1.639   3.666 -0.3819  0.0646  1.6784
   69SAPC  C211 5889   0.199   1.442   3.737  0.6762 -0.0598 -0.0329
   69SAPC  H11R 5890   0.245   1.343   3.726  0.2103 -0.5631  2.0714
   69SAPC  C212 5891   0.183   1.479   3.870 -0.1828  0.2659  0.5173
   69SAPC  H12R 5892   0.205   1.400   3.944  2.2966  0.9329  0.5834
   69SAPC  C213 5893   0.148   1.605   3.934  0.1006  0.1887 -1.0593
   69SAPC  H13R 5894   0.063   1.592   4.004  1.0882  0.1563  0.1811
   69SAPC  H13S 5895   0.126   1.681   3.857  4.2095  0.5935 -2.0806
   69SAPC  C214 5896   0.263   1.639   4.015  0.2012 -0.3277  0.2750
   69SAPC  H14R 5897   0.299   1.567   4.091  1.6385  0.7357  0.6523
   69SAPC  C215 5898   0.325   1.755   4.009 -0.3303 -0.0487  0.1306
   69SAPC  H15R 5899   0.400   1.778   4.086 -0.3092 -1.0902  0.4311
   69SAPC  C216 5900   0.306   1.868   3.911 -0.6887  0.6788  0.2982
   69SAPC  H16R 5901   0.261   1.817   3.823 -0.9003  0.4823  0.5181
   69SAPC  H16S 5902   0.402   1.920   3.890 -0.9334  1.9232  1.9690
   69SAPC  C217 5903   0.221   1.984   3.954 -0.2373 -0.1074  0.0642
   69SAPC  H17R 5904   0.262   2.020   4.050 -1.2549  0.6667  0.2263
   69SAPC  H17S 5905   0.128   1.932   3.985 -0.7213  1.8783  2.1983
   69SAPC  C218 5906   0.193   2.085   3.845  0.4407 -0.2536 -0.0879
   69SAPC  H18R 5907   0.289   2.113   3.797 -0.9913  1.8052 -1.9304
   69SAPC  H18S 5908   0.156   2.178   3.893 -1.3379 -0.8220 -0.2893
   69SAPC  C219 5909   0.099   2.035   3.731  0.0741  0.0963 -0.0443
   69SAPC  H19R 5910   0.009   1.988   3.777  0.2700 -0.3132 -0.0707
   69SAPC  H19S 5911   0.149   1.952   3.677  1.2031  0.5410  0.3044
   69SAPC  C220 5912   0.052   2.139   3.618 -0.0170 -0.8053  0.2757
   69SAPC  H20R 5913   0.000   2.227   3.662 -1.8149 -1.2402 -0.8609
   69SAPC  H20S 5914  -0.022   2.094   3.548  0.1207 -4.0521  1.9865
   69SAPC  H20T 5915   0.136   2.178   3.557 -1.0743  0.0925 -0.6418
   69SAPC   C33 5916   0.939   1.946   2.854  0.0619  0.1449  0.5935
   69SAPC   H3X 5917   0.876   2.035   2.875  0.5725  0.2985  1.5455
   69SAPC   H3Y 5918   0.984   1.965   2.754  0.1532 -0.5501  0.5002
   69SAPC   C34 5919   1.047   1.936   2.956  0.0343  1.1185 -0.5711
   69SAPC   H4X 5920   1.125   2.001   2.910  0.6508 -0.4249 -1.8177
   69SAPC   H4Y 5921   1.089   1.834   2.964 -0.8348  0.9339  3.0589
   69SAPC   C35 5922   1.020   1.969   3.105  0.1118 -0.2408 -0.4129
   69SAPC   H5X 5923   0.945   1.896   3.143 -2.3782  3.2002  1.9764
   69SAPC   H5Y 5924   0.978   2.072   3.107  0.1002 -0.2524  0.3041
   69SAPC   C36 5925   1.146   1.959   3.191  0.6144  0.4232 -0.2805
   69SAPC   H6X 5926   1.201   2.052   3.166 -1.6157  1.9498  0.2095
   69SAPC   H6Y 5927   1.202   1.865   3.171 -0.2489 -0.6034  1.8143
   69SAPC   C37 5928   1.100   1.956   3.339 -0.3377  0.5591 -0.4087
   69SAPC   H7X 5929   1.034   1.867   3.344  0.0243  0.1984 -1.7892
   69SAPC   H7Y 5930   1.054   2.055   3.359 -0.1397  0.5746 -0.0267
   69SAPC   C38 5931   1.231   1.940   3.431  0.3088  0.2183 -0.6767
   69SAPC   H8X 5932   1.277   2.041   3.439 -0.6766  0.6099  0.5382
   69SAPC   H8Y 5933   1.301   1.877   3.373  1.2267 -0.9949  1.6138
   69SAPC   C39 5934   1.208   1.895   3.576 -0.4953 -0.2744 -0.4603
   69SAPC   H9X 5935   1.130   1.816   3.577 -0.2871 -0.4838  0.1061
   69SAPC   H9Y 5936   1.161   1.983   3.624  1.2470  0.8739 -0.7645
   69SAPC  C310 5937   1.337   1.858   3.655 -0.0141 -0.9014 -0.5376
   69SAPC  H10X 5938   1.396   1.951   3.668 -1.3261 -0.2699  1.2611
   69SAPC  H10Y 5939   1.393   1.786   3.591  0.8434  0.1552 -1.0143
   69SAPC  C311 5940   1.307   1.799   3.796 -0.4659  0.1409 -0.1242
   69SAPC  H11X 5941   1.400   1.772   3.849  1.0922  2.3858 -1.5464
   69SAPC  H11Y 5942   1.249   1.704   3.798  0.0645 -0.3417 -3.1569
   69SAPC  C312 5943   1.249   1.897   3.896  0.3843  0.1045  0.1638
   69SAPC  H12X 5944   1.141   1.898   3.868  0.7655  0.7543 -1.3638
   69SAPC  H12Y 5945   1.288   2.001   3.890 -0.1201  0.5341  2.8561
   69SAPC  C313 5946   1.247   1.841   4.035 -0.5006  0.1824  0.3603
   69SAPC  H13X 5947   1.346   1.805   4.070 -1.4305 -1.6824  1.2087
   69SAPC  H13Y 5948   1.180   1.755   4.058  1.7626 -1.1196  2.6103
   69SAPC  C314 5949   1.201   1.954   4.126 -0.5840 -0.7897  0.0522
   69SAPC  H14X 5950   1.105   2.003   4.100  1.0102  2.5807 -0.0630
   69SAPC  H14Y 5951   1.272   2.040   4.120 -1.7072  0.1125 -0.6546
   69SAPC  C315 5952   1.194   1.908   4.273 -0.1915  0.0297  0.3307
   69SAPC  H15X 5953   1.168   1.802   4.291  0.3295 -0.0720  0.4894
   69SAPC  H15Y 5954   1.123   1.968   4.335 -0.6377  0.7140 -0.8207
   69SAPC  C316 5955   1.338   1.918   4.339  0.0576  0.3462 -0.2358
   69SAPC  H16X 5956   1.359   2.026   4.353 -0.9779  0.2452  2.9337
   69SAPC  H16Y 5957   1.413   1.858   4.283 -2.1018 -1.8865 -0.9004
   69SAPC  C317 5958   1.326   1.866   4.487  0.5209  0.0677 -0.9460
   69SAPC  H17X 5959   1.273   1.768   4.487  2.1829 -0.8985  0.1561
   69SAPC  H17Y 5960   1.261   1.930   4.551  1.4090  0.0383  0.0189
   69SAPC  C318 5961   1.462   1.854   4.554  0.3972  0.2999 -0.4664
   69SAPC  H18X 5962   1.453   1.827   4.661  0.8865  1.1328 -0.2081
   69SAPC  H18Y 5963   1.528   1.943   4.549  1.2838 -0.1502  1.9940
   69SAPC  H18Z 5964   1.513   1.769   4.502 -1.8381 -0.9796 -0.6983
   70SAPC     N 5965   2.425   6.551   2.123  0.7714  0.2684 -0.0649
   70SAPC   C12 5966   2.567   6.561   2.162 -0.4989 -0.6354  0.0454
   70SAPC  H12A 5967   2.593   6.518   2.257 -1.5245 -0.9194  0.2048
   70SAPC  H12B 5968   2.602   6.663   2.174 -0.8781 -0.7171  2.2444
   70SAPC   C13 5969   2.375   6.415   2.102  0.5524 -0.7461  0.0761
   70SAPC  H13A 5970   2.438   6.361   2.032  0.5497 -0.5206 -0.1011
   70SAPC  H13B 5971   2.383   6.365   2.198 -0.6149 -0.4376  0.3448
   70SAPC  H13C 5972   2.276   6.415   2.061  0.5425 -1.2305  0.0930
   70SAPC   C14 5973   2.341   6.623   2.226 -1.0059  0.1314 -0.1933
   70SAPC  H14A 5974   2.243   6.634   2.182 -0.6519  2.7949 -0.4585
   70SAPC  H14B 5975   2.329   6.574   2.322 -2.7333 -1.5173 -1.1709
   70SAPC  H14C 5976   2.380   6.723   2.240 -0.4432  0.0567 -1.1907
   70SAPC   C15 5977   2.416   6.629   1.997 -0.2346  0.0765  0.3946
   70SAPC  H15A 5978   2.314   6.646   1.965 -0.1005 -0.0515 -0.1091
   70SAPC  H15B 5979   2.461   6.727   2.000 -4.0673  2.3394 -3.3598
   70SAPC  H15C 5980   2.458   6.562   1.923 -0.5522 -0.3079  0.5623
   70SAPC   C11 5981   2.679   6.513   2.064 -0.4473  1.1433  0.3682
   70SAPC  H11A 5982   2.781   6.536   2.102 -0.1035  1.5141 -0.7342
   70SAPC  H11B 5983   2.675   6.571   1.969 -0.7237 -0.6453 -0.7539
   70SAPC     P 5984   2.702   6.267   2.142 -0.2624 -0.0974  0.2033
   70SAPC   O13 5985   2.591   6.164   2.151  0.1227 -0.2755  0.4738
   70SAPC   O14 5986   2.843   6.222   2.104  0.3096 -0.6037  0.5768
   70SAPC   O12 5987   2.663   6.373   2.032  0.2088 -0.7731  0.3256
   70SAPC   O11 5988   2.701   6.332   2.294 -0.2733  0.1778  0.4279
   70SAPC    C1 5989   2.829   6.357   2.350 -0.3440 -0.2265 -0.6523
   70SAPC    HA 5990   2.903   6.399   2.279 -0.8324 -1.1002 -1.7023
   70SAPC    HB 5991   2.806   6.445   2.415  2.6851 -0.1903  0.4994
   70SAPC    C2 5992   2.887   6.238   2.431  0.0520 -0.2530 -0.1001
   70SAPC    HS 5993   2.926   6.156   2.367  0.2725  0.1576 -0.4976
   70SAPC   O21 5994   2.774   6.194   2.509 -0.0576  0.6622  0.0180
   70SAPC   C21 5995   2.798   6.095   2.592 -0.3698  0.4130 -0.0269
   70SAPC   O22 5996   2.906   6.030   2.603  0.5013 -0.1707  0.0482
   70SAPC   C22 5997   2.674   6.073   2.683 -0.2352 -0.8392 -0.4010
   70SAPC   H2R 5998   2.579   6.092   2.630 -0.7867 -1.1841  0.4402
   70SAPC   H2S 5999   2.663   5.969   2.720 -0.4409 -1.3711 -1.8975
   70SAPC    C3 6000   3.012   6.283   2.516  0.0997  0.0297  0.0376
   70SAPC    HX 6001   3.075   6.341   2.445 -0.8149  0.7415 -0.2049
   70SAPC    HY 6002   3.074   6.205   2.566  0.2908  0.9729  1.3038
   70SAPC   O31 6003   2.966   6.376   2.614 -0.2132 -0.6721 -0.7664
   70SAPC   C31 6004   3.061   6.438   2.676 -0.0068 -0.7091  0.7686
   70SAPC   O32 6005   3.178   6.419   2.651 -0.3841  0.0514 -0.5317
   70SAPC   C32 6006   3.016   6.519   2.797 -0.0114  0.3758 -0.1994
   70SAPC   H2X 6007   2.906   6.526   2.791 -0.0332  1.6102  0.9427
   70SAPC   H2Y 6008   3.059   6.622   2.798  0.3860  0.2894 -2.5222
   70SAPC   C23 6009   2.681   6.188   2.791  0.4128  0.1188 -0.1583
   70SAPC   H3R 6010   2.592   6.170   2.856 -0.3126  1.5778 -0.6932
   70SAPC   H3S 6011   2.668   6.289   2.746 -1.8759 -0.6989 -1.5143
   70SAPC   C24 6012   2.805   6.188   2.883 -0.1795  0.2743  0.1258
   70SAPC   H4R 6013   2.796   6.285   2.936 -1.0183  0.4800 -0.3692
   70SAPC   H4S 6014   2.897   6.197   2.823  0.3150 -2.6466  0.3027
   70SAPC   C25 6015   2.819   6.070   2.974 -0.4539 -0.0022 -0.2079
   70SAPC   H5R 6016   2.860   5.979   2.929  1.9893 -0.0232  1.8331
   70SAPC   C26 6017   2.786   6.051   3.101 -0.1182 -0.9408 -0.1126
   70SAPC   H6R 6018   2.820   5.961   3.155 -1.7612 -1.0428  0.8107
   70SAPC   C27 6019   2.723   6.152   3.198 -0.5569  0.1215  0.1980
   70SAPC   H7R 6020   2.635   6.106   3.247 -0.8341 -0.3438 -0.7022
   70SAPC   H7S 6021   2.674   6.233   3.139 -0.2455 -0.3346 -0.7150
   70SAPC   C28 6022   2.816   6.213   3.300  0.4171 -0.1593 -1.1129
   70SAPC   H8R 6023   2.844   6.318   3.287  2.0799 -0.3784  0.3319
   70SAPC   C29 6024   2.858   6.158   3.418 -0.6274 -0.4915 -0.0914
   70SAPC   H9R 6025   2.932   6.208   3.483 -0.6116  1.1268 -1.2973
   70SAPC  C210 6026   2.831   6.027   3.477 -0.0455  0.8629  0.0478
   70SAPC  H10R 6027   2.905   6.013   3.559 -1.7537 -0.5118  1.4248
   70SAPC  H10S 6028   2.843   5.951   3.397 -2.2433  1.9448 -1.3894
   70SAPC  C211 6029   2.692   6.014   3.529 -0.3056  0.4302  0.0536
   70SAPC  H11R 6030   2.665   6.087   3.606  1.6465  0.3427  0.8809
   70SAPC  C212 6031   2.598   5.925   3.490  0.3682 -0.2301  0.5838
   70SAPC  H12R 6032   2.495   5.935   3.529  0.3377 -0.4401  0.5561
   70SAPC  C213 6033   2.611   5.810   3.391 -0.5555 -0.0023  0.9035
   70SAPC  H13R 6034   2.680   5.735   3.436  2.8111  1.7872 -0.9074
   70SAPC  H13S 6035   2.663   5.851   3.302  0.9366 -1.6896  0.9410
   70SAPC  C214 6036   2.481   5.731   3.347 -0.3946  0.3569  0.6412
   70SAPC  H14R 6037   2.420   5.696   3.432 -0.4782 -3.4548 -0.8097
   70SAPC  C215 6038   2.425   5.727   3.226 -0.4467  0.4694  0.2769
   70SAPC  H15R 6039   2.337   5.664   3.208 -0.1458  0.3522 -0.8724
   70SAPC  C216 6040   2.475   5.789   3.093 -0.2991  0.0815 -0.7060
   70SAPC  H16R 6041   2.550   5.866   3.120 -0.5736 -0.5426  2.1216
   70SAPC  H16S 6042   2.386   5.839   3.048 -0.0736  2.7533  1.5961
   70SAPC  C217 6043   2.533   5.685   2.999  0.0773  0.6071 -0.1705
   70SAPC  H17R 6044   2.445   5.634   2.955 -0.6715  0.3569  1.5230
   70SAPC  H17S 6045   2.591   5.608   3.056  0.2550  0.0012 -1.1479
   70SAPC  C218 6046   2.611   5.742   2.880 -0.0949 -0.3348  0.4605
   70SAPC  H18R 6047   2.691   5.810   2.916  2.3950 -1.8455 -1.8141
   70SAPC  H18S 6048   2.534   5.784   2.811  0.4295 -0.7541 -0.4024
   70SAPC  C219 6049   2.694   5.631   2.805 -0.0684 -0.5535 -0.1340
   70SAPC  H19R 6050   2.647   5.530   2.812  1.6452 -1.4524 -0.9144
   70SAPC  H19S 6051   2.795   5.617   2.849  0.3776 -0.7800 -1.2008
   70SAPC  C220 6052   2.716   5.671   2.660 -0.4882  0.2071  0.6647
   70SAPC  H20R 6053   2.629   5.674   2.592 -0.3768 -1.8534  0.3761
   70SAPC  H20S 6054   2.794   5.602   2.620 -1.0641 -0.6636  1.0143
   70SAPC  H20T 6055   2.762   5.771   2.642  1.7911 -1.4822 -5.0429
   70SAPC   C33 6056   3.062   6.457   2.928 -0.4063 -0.4948 -0.6410
   70SAPC   H3X 6057   3.164   6.413   2.917 -0.6953 -1.6868  1.0434
   70SAPC   H3Y 6058   2.993   6.378   2.964 -0.6071 -0.4376 -0.8976
   70SAPC   C34 6059   3.072   6.568   3.047 -0.3742 -0.4750  0.0482
   70SAPC   H4X 6060   2.967   6.580   3.081  0.7403  0.7214  3.3772
   70SAPC   H4Y 6061   3.115   6.663   3.008 -2.1627 -0.6232 -2.5452
   70SAPC   C35 6062   3.172   6.519   3.154  0.8287  0.3557 -0.4148
   70SAPC   H5X 6063   3.265   6.493   3.099  0.5327  0.3618 -0.9175
   70SAPC   H5Y 6064   3.130   6.425   3.198 -1.9373  1.7989  0.2433
   70SAPC   C36 6065   3.188   6.631   3.256 -0.5172  0.3556 -0.3064
   70SAPC   H6X 6066   3.088   6.675   3.274  0.2920  1.9313  0.5517
   70SAPC   H6Y 6067   3.250   6.715   3.218 -0.5315  0.1887 -0.7074
   70SAPC   C37 6068   3.262   6.570   3.383  0.5151 -0.1712 -0.4803
   70SAPC   H7X 6069   3.208   6.479   3.415 -1.0086  0.9624  0.2873
   70SAPC   H7Y 6070   3.365   6.538   3.355  1.0528 -0.3705  1.5632
   70SAPC   C38 6071   3.265   6.679   3.492  0.4947  0.4526  0.0825
   70SAPC   H8X 6072   3.165   6.721   3.516 -0.4075 -1.3808 -0.3753
   70SAPC   H8Y 6073   3.336   6.762   3.468  1.5685 -0.6798 -0.8384
   70SAPC   C39 6074   3.317   6.631   3.632 -0.5667  0.2032  0.7916
   70SAPC   H9X 6075   3.426   6.612   3.631 -0.4933  0.6314  0.3007
   70SAPC   H9Y 6076   3.269   6.533   3.654 -1.2089  0.5667  1.0587
   70SAPC  C310 6077   3.280   6.735   3.739 -0.1556  0.0994  0.6770
   70SAPC  H10X 6078   3.175   6.770   3.733 -0.7944 -1.7432  0.5369
   70SAPC  H10Y 6079   3.320   6.834   3.708 -2.3841 -0.1238 -3.8035
   70SAPC  C311 6080   3.321   6.689   3.880 -0.0847  0.3204  0.2268
   70SAPC  H11X 6081   3.297   6.771   3.951  0.5560  0.7663 -0.0684
   70SAPC  H11Y 6082   3.431   6.679   3.880  0.0572  1.2879 -2.0397
   70SAPC  C312 6083   3.283   6.555   3.937 -0.2478  0.3402  0.4059
   70SAPC  H12X 6084   3.328   6.478   3.870  1.0263  0.2524  1.3228
   70SAPC  H12Y 6085   3.175   6.535   3.920 -0.3483  0.9161  0.3575
   70SAPC  C313 6086   3.315   6.524   4.080  0.5930  0.1690  0.0825
   70SAPC  H13X 6087   3.233   6.578   4.133 -1.8922  0.6837 -3.8909
   70SAPC  H13Y 6088   3.413   6.561   4.118  0.6839  0.5253 -0.4842
   70SAPC  C314 6089   3.307   6.378   4.128  0.9324  0.1812 -0.3123
   70SAPC  H14X 6090   3.352   6.385   4.229 -0.0065  0.7870  0.0824
   70SAPC  H14Y 6091   3.363   6.311   4.060  1.5542 -0.3539  0.6953
   70SAPC  C315 6092   3.163   6.331   4.148 -0.5930  0.7893  0.2274
   70SAPC  H15X 6093   3.113   6.323   4.049 -2.3370  0.2527  1.1088
   70SAPC  H15Y 6094   3.109   6.395   4.220  0.5006  0.2569  1.5765
   70SAPC  C316 6095   3.144   6.186   4.199  0.2994  0.1186  0.2511
   70SAPC  H16X 6096   3.200   6.180   4.294  1.7922 -1.0851 -0.6605
   70SAPC  H16Y 6097   3.194   6.120   4.125 -1.7019  2.0526 -3.0850
   70SAPC  C317 6098   2.996   6.135   4.218  0.5559 -0.4558 -0.1873
   70SAPC  H17X 6099   2.940   6.161   4.126  2.2160 -3.5969 -2.2852
   70SAPC  H17Y 6100   2.953   6.171   4.314 -0.5224 -0.4832 -0.6485
   70SAPC  C318 6101   2.983   5.984   4.229 -0.6470 -0.0469 -0.6758
   70SAPC  H18X 6102   2.880   5.951   4.256 -0.3239  0.1731  0.9111
   70SAPC  H18Y 6103   3.064   5.947   4.296 -0.2193  1.7784 -0.1285
   70SAPC  H18Z 6104   2.996   5.944   4.126 -1.5397 -1.4585 -0.2805
   71SAPC     N 6105   4.272   5.377   1.968 -0.9651  0.2492 -0.3692
   71SAPC   C12 6106   4.311   5.256   2.055  0.2350  0.0045  0.7860
   71SAPC  H12A 6107   4.402   5.280   2.109  1.4686 -0.6313 -0.9171
   71SAPC  H12B 6108   4.336   5.176   1.988  0.2376 -0.3270  1.1815
   71SAPC   C13 6109   4.378   5.421   1.875  1.2461 -0.5544 -0.2319
   71SAPC  H13A 6110   4.396   5.344   1.801  1.7580 -0.6205 -0.0487
   71SAPC  H13B 6111   4.343   5.514   1.832 -0.1208 -1.2361 -0.6359
   71SAPC  H13C 6112   4.472   5.438   1.926  0.3814  0.8677  0.9575
   71SAPC   C14 6113   4.153   5.349   1.888 -0.5112  0.2050  0.9289
   71SAPC  H14A 6114   4.120   5.439   1.839 -0.7686  0.4753  1.5891
   71SAPC  H14B 6115   4.170   5.266   1.821  1.1871  1.9884 -0.9833
   71SAPC  H14C 6116   4.071   5.319   1.952 -0.8081 -0.0821  0.4263
   71SAPC   C15 6117   4.245   5.493   2.062  0.7583  0.1435  0.0102
   71SAPC  H15A 6118   4.166   5.464   2.129  0.9145 -1.0839 -0.3211
   71SAPC  H15B 6119   4.338   5.522   2.110  1.7279 -1.3222 -0.9069
   71SAPC  H15C 6120   4.200   5.576   2.010  3.4419  0.7635 -1.5635
   71SAPC   C11 6121   4.206   5.207   2.153  0.0318 -0.3756  0.1633
   71SAPC  H11A 6122   4.164   5.295   2.207 -1.6042 -1.9759  1.6533
   71SAPC  H11B 6123   4.251   5.150   2.237  2.0161  1.4165  0.3770
   71SAPC     P 6124   4.084   4.978   2.110  0.2355 -0.2151  0.2762
   71SAPC   O13 6125   3.974   4.929   2.023 -0.4044  0.6110  0.3135
   71SAPC   O14 6126   4.218   4.921   2.088 -0.2390  0.0359  0.1765
   71SAPC   O12 6127   4.106   5.129   2.082  0.0415 -0.5032  0.3244
   71SAPC   O11 6128   4.053   4.970   2.267  0.6553  0.4215  0.3021
   71SAPC    C1 6129   3.929   5.034   2.316 -0.3199 -0.1819 -0.7543
   71SAPC    HA 6130   3.904   5.138   2.286 -2.7834 -1.0827 -2.0627
   71SAPC    HB 6131   3.836   4.980   2.289 -0.5326 -0.1531 -0.1030
   71SAPC    C2 6132   3.947   5.041   2.469 -0.5917  0.0315  0.0085
   71SAPC    HS 6133   4.029   5.114   2.489 -0.1519 -0.0370 -1.4400
   71SAPC   O21 6134   3.987   4.909   2.515 -0.1280 -0.0378  0.3032
   71SAPC   C21 6135   4.047   4.888   2.632 -0.2422 -0.6117 -0.2915
   71SAPC   O22 6136   4.078   4.977   2.713 -0.1222  0.2313 -0.3464
   71SAPC   C22 6137   4.048   4.740   2.660  0.3739 -0.1508 -0.4425
   71SAPC   H2R 6138   3.956   4.699   2.612  0.3288  1.7269 -2.1206
   71SAPC   H2S 6139   4.120   4.684   2.596 -0.4756  0.1546 -1.7037
   71SAPC    C3 6140   3.810   5.087   2.538  0.7622  0.1499  0.9528
   71SAPC    HX 6141   3.736   5.015   2.496  0.3819  0.4549  1.0918
   71SAPC    HY 6142   3.797   5.190   2.499 -0.9127  0.6832  2.7368
   71SAPC   O31 6143   3.808   5.067   2.679 -0.0046 -0.1503 -0.0038
   71SAPC   C31 6144   3.871   5.166   2.746 -0.0146 -0.4614 -0.8626
   71SAPC   O32 6145   3.932   5.256   2.697  0.2159 -0.6190 -0.1673
   71SAPC   C32 6146   3.877   5.151   2.901 -0.8694  1.0037 -0.1867
   71SAPC   H2X 6147   3.892   5.243   2.961 -0.5343 -0.1941  1.6625
   71SAPC   H2Y 6148   3.956   5.077   2.927 -1.2404  1.1878  1.6179
   71SAPC   C23 6149   4.075   4.695   2.800 -0.6143  0.0661  0.1243
   71SAPC   H3R 6150   4.165   4.744   2.842 -0.0265  0.2632 -1.3257
   71SAPC   H3S 6151   4.083   4.585   2.796 -4.4096 -0.3307 -0.9865
   71SAPC   C24 6152   3.943   4.725   2.883 -0.4670 -0.3028 -0.6287
   71SAPC   H4R 6153   3.855   4.670   2.842 -1.6909  0.1972  1.2057
   71SAPC   H4S 6154   3.926   4.834   2.870 -0.2663 -0.1564  0.2580
   71SAPC   C25 6155   3.950   4.681   3.029 -0.3579 -0.6683 -0.2384
   71SAPC   H5R 6156   4.044   4.710   3.079  1.0422 -3.6457 -0.9216
   71SAPC   C26 6157   3.866   4.599   3.090  0.0323 -0.4797  0.2790
   71SAPC   H6R 6158   3.874   4.592   3.199  1.1008 -0.4352  0.2085
   71SAPC   C27 6159   3.735   4.543   3.027  0.3778 -0.2809 -1.2240
   71SAPC   H7R 6160   3.760   4.473   2.944  1.0641  1.0152 -2.1464
   71SAPC   H7S 6161   3.680   4.631   2.987  1.4677  0.5553 -0.9351
   71SAPC   C28 6162   3.642   4.465   3.119 -0.0496  0.0345  0.2767
   71SAPC   H8R 6163   3.695   4.394   3.184 -0.4948  0.5333  1.2047
   71SAPC   C29 6164   3.508   4.480   3.136  0.7196 -0.4349  0.1980
   71SAPC   H9R 6165   3.452   4.405   3.193 -2.1708  0.2628 -1.5488
   71SAPC  C210 6166   3.407   4.571   3.074  0.0300  0.2095  1.0135
   71SAPC  H10R 6167   3.317   4.511   3.048  0.1604  0.6772 -0.6261
   71SAPC  H10S 6168   3.441   4.603   2.973  0.9970  0.4093  1.3919
   71SAPC  C211 6169   3.374   4.701   3.144 -0.3448  0.9595 -0.3943
   71SAPC  H11R 6170   3.375   4.779   3.067 -0.7508 -1.5852 -3.1724
   71SAPC  C212 6171   3.324   4.719   3.267 -0.1762 -0.2288  0.4674
   71SAPC  H12R 6172   3.323   4.824   3.300  4.1929  0.8203 -1.8415
   71SAPC  C213 6173   3.285   4.612   3.366  0.2084 -0.1269  0.3119
   71SAPC  H13R 6174   3.382   4.601   3.421  1.3657  1.9619 -1.1444
   71SAPC  H13S 6175   3.265   4.516   3.315 -0.1360  1.0098 -1.8159
   71SAPC  C214 6176   3.177   4.666   3.454 -0.2290  0.2459  0.8872
   71SAPC  H14R 6177   3.075   4.651   3.414 -0.9127  0.1922  2.5755
   71SAPC  C215 6178   3.182   4.701   3.586 -0.8161 -0.4128  0.7210
   71SAPC  H15R 6179   3.091   4.742   3.633 -0.4667  2.8595 -1.1538
   71SAPC  C216 6180   3.308   4.728   3.667 -0.0718 -0.1899  0.1682
   71SAPC  H16R 6181   3.347   4.832   3.668 -0.0389 -0.1988  1.4673
   71SAPC  H16S 6182   3.392   4.675   3.616 -0.4834 -1.8489  1.1360
   71SAPC  C217 6183   3.300   4.660   3.809 -0.5865  0.0046  0.4693
   71SAPC  H17R 6184   3.401   4.644   3.851  0.3189  2.5991 -0.5314
   71SAPC  H17S 6185   3.245   4.564   3.799  0.8904 -0.8252  0.0444
   71SAPC  C218 6186   3.223   4.740   3.911  0.4987  0.5530  0.0205
   71SAPC  H18R 6187   3.178   4.667   3.982  4.0799 -0.5074  1.4071
   71SAPC  H18S 6188   3.144   4.795   3.855 -0.3548  0.2134  0.8608
   71SAPC  C219 6189   3.300   4.852   3.982 -0.4011 -0.2766  0.3463
   71SAPC  H19R 6190   3.356   4.925   3.919 -0.6282 -1.4594 -1.2748
   71SAPC  H19S 6191   3.363   4.802   4.058  0.9024  2.9490  1.5798
   71SAPC  C220 6192   3.208   4.941   4.065  0.4136  0.8530 -0.1094
   71SAPC  H20R 6193   3.171   4.897   4.161 -1.4502 -0.6212 -1.4277
   71SAPC  H20S 6194   3.115   4.969   4.010  0.0235  0.2075  0.1981
   71SAPC  H20T 6195   3.259   5.036   4.090 -0.6493  1.0056  1.7078
   71SAPC   C33 6196   3.738   5.090   2.947  0.0456 -0.3366 -0.2389
   71SAPC   H3X 6197   3.716   4.998   2.889  0.3880 -1.6665  1.6390
   71SAPC   H3Y 6198   3.675   5.180   2.935  0.2077 -0.4236 -1.9825
   71SAPC   C34 6199   3.730   5.048   3.096  0.8301 -0.2039 -0.5607
   71SAPC   H4X 6200   3.780   5.124   3.160 -0.7104  0.2687  0.1283
   71SAPC   H4Y 6201   3.789   4.961   3.132 -0.8323 -0.3389  2.1167
   71SAPC   C35 6202   3.592   5.022   3.148 -0.7889  0.0281 -0.0592
   71SAPC   H5X 6203   3.538   4.948   3.085  0.2735 -2.0082  1.3117
   71SAPC   H5Y 6204   3.530   5.114   3.138  0.9221  1.4313  1.4319
   71SAPC   C36 6205   3.593   4.992   3.291 -0.2564 -0.1177 -0.6400
   71SAPC   H6X 6206   3.670   4.913   3.304 -0.4583  0.0897  2.5514
   71SAPC   H6Y 6207   3.498   4.944   3.320 -1.1619  1.5065 -0.8101
   71SAPC   C37 6208   3.634   5.108   3.387  0.0088 -0.5782  0.9556
   71SAPC   H7X 6209   3.546   5.177   3.394  0.5986  0.2312  0.5785
   71SAPC   H7Y 6210   3.716   5.170   3.345  0.5282 -1.1032  1.1838
   71SAPC   C38 6211   3.675   5.047   3.527  0.1661 -0.0757  0.6050
   71SAPC   H8X 6212   3.774   4.996   3.523  1.2896  2.0474 -0.4897
   71SAPC   H8Y 6213   3.586   4.985   3.548 -2.2576  2.0702 -2.4154
   71SAPC   C39 6214   3.697   5.152   3.634  0.0170  0.1676  0.5521
   71SAPC   H9X 6215   3.624   5.233   3.614 -0.6242 -0.5860 -0.2054
   71SAPC   H9Y 6216   3.797   5.197   3.618  0.0419  1.2199  3.0857
   71SAPC  C310 6217   3.667   5.093   3.773 -0.2453 -0.1881 -0.0717
   71SAPC  H10X 6218   3.559   5.069   3.785  0.3561 -2.6317  1.0239
   71SAPC  H10Y 6219   3.685   5.166   3.854 -1.5606  0.7081 -0.5461
   71SAPC  C311 6220   3.761   4.976   3.810 -0.8713  0.0626 -0.2162
   71SAPC  H11X 6221   3.869   5.002   3.810 -0.8093  0.0432  2.0683
   71SAPC  H11Y 6222   3.758   4.888   3.741  1.3137  0.2725 -0.6459
   71SAPC  C312 6223   3.718   4.919   3.945  0.1602  0.0475  0.4613
   71SAPC  H12X 6224   3.617   4.874   3.944  0.4636 -0.6464 -0.1702
   71SAPC  H12Y 6225   3.714   4.993   4.027  0.7155  1.0168 -0.3658
   71SAPC  C313 6226   3.815   4.810   3.998 -0.1805  0.2339  0.1673
   71SAPC  H13X 6227   3.924   4.832   3.997 -0.2498  0.9052 -2.9236
   71SAPC  H13Y 6228   3.799   4.727   3.926  3.4721 -2.6215  2.2474
   71SAPC  C314 6229   3.779   4.760   4.140 -0.0335 -0.4656  0.0264
   71SAPC  H14X 6230   3.669   4.746   4.136  0.1152 -1.4705 -1.3497
   71SAPC  H14Y 6231   3.806   4.830   4.222  0.7070 -1.7882  0.9617
   71SAPC  C315 6232   3.839   4.624   4.168  0.0452 -0.2730  0.6154
   71SAPC  H15X 6233   3.796   4.579   4.260 -3.5240  0.8133 -0.3440
   71SAPC  H15Y 6234   3.949   4.630   4.185 -0.1494  0.1962  1.8050
   71SAPC  C316 6235   3.818   4.522   4.054 -0.0268 -0.1555  0.0502
   71SAPC  H16X 6236   3.892   4.548   3.975  0.6627 -2.3616 -0.1018
   71SAPC  H16Y 6237   3.715   4.526   4.014 -0.5732 -3.8772  0.6865
   71SAPC  C317 6238   3.829   4.378   4.093 -0.0285  0.3129 -0.5824
   71SAPC  H17X 6239   3.760   4.363   4.179  1.0458  0.4399  0.3239
   71SAPC  H17Y 6240   3.932   4.362   4.131  0.0370  3.1828  0.6633
   71SAPC  C318 6241   3.793   4.295   3.973  0.8510 -0.1644 -0.9104
   71SAPC  H18X 6242   3.871   4.300   3.894  1.1835 -2.0617 -0.7476
   71SAPC  H18Y 6243   3.693   4.326   3.937  0.0014  0.4116  1.6769
   71SAPC  H18Z 6244   3.789   4.188   4.003  0.3626  0.6294  2.1892
   72SAPC     N 6245   0.180   2.708   2.095 -0.0172 -0.0022 -0.1789
   72SAPC   C12 6246   0.286   2.675   2.202  0.2210  0.2642 -0.0068
   72SAPC  H12A 6247   0.378   2.700   2.152  0.4919 -2.1645 -0.8936
   72SAPC  H12B 6248   0.278   2.569   2.224 -0.4192  0.5211  1.0854
   72SAPC   C13 6249   0.205   2.841   2.047 -0.4074  0.1012  0.2639
   72SAPC  H13A 6250   0.203   2.910   2.129 -1.4757  0.8736 -0.3792
   72SAPC  H13B 6251   0.296   2.847   1.990 -0.9759 -2.1028 -1.0059
   72SAPC  H13C 6252   0.130   2.876   1.977 -0.4615  0.4117  0.4785
   72SAPC   C14 6253   0.185   2.606   1.988 -0.8309 -0.0921  0.1184
   72SAPC  H14A 6254   0.135   2.518   2.026 -1.2599 -0.1818 -0.6243
   72SAPC  H14B 6255   0.129   2.630   1.898 -0.2624 -2.4120 -0.9475
   72SAPC  H14C 6256   0.283   2.563   1.969 -1.0977 -0.8423  0.4017
   72SAPC   C15 6257   0.044   2.703   2.156 -0.0641 -0.3221 -0.4455
   72SAPC  H15A 6258   0.015   2.606   2.194  0.6921 -0.6516 -0.6903
   72SAPC  H15B 6259   0.045   2.777   2.234 -1.2524  0.4531 -1.1288
   72SAPC  H15C 6260  -0.031   2.738   2.086 -1.2525 -0.4831  0.6931
   72SAPC   C11 6261   0.295   2.747   2.341  0.8691  0.2586  0.3595
   72SAPC  H11A 6262   0.372   2.694   2.401  0.0946 -1.6479 -0.2657
   72SAPC  H11B 6263   0.201   2.723   2.394  0.4849  0.1875 -0.3408
   72SAPC     P 6264   0.476   2.944   2.320  0.2345 -0.2864  0.2352
   72SAPC   O13 6265   0.560   2.838   2.258  0.0026 -0.4125 -0.2903
   72SAPC   O14 6266   0.480   3.080   2.254 -0.0879  0.1319 -0.6904
   72SAPC   O12 6267   0.320   2.886   2.327  0.2049  0.0203 -0.4075
   72SAPC   O11 6268   0.505   2.949   2.479 -0.3863  0.2213 -0.6410
   72SAPC    C1 6269   0.416   3.020   2.564 -0.4447  0.2275 -0.2043
   72SAPC    HA 6270   0.444   3.127   2.567  0.1777  0.0677 -0.0716
   72SAPC    HB 6271   0.310   3.023   2.532 -0.0324  0.2995 -1.6282
   72SAPC    C2 6272   0.433   2.970   2.711  0.4619 -0.0163  0.3832
   72SAPC    HS 6273   0.407   3.048   2.785  1.9838  1.4957 -0.5875
   72SAPC   O21 6274   0.568   2.911   2.727 -0.2965 -0.0170 -0.8897
   72SAPC   C21 6275   0.653   3.014   2.746  0.0176 -0.3904  0.2897
   72SAPC   O22 6276   0.620   3.135   2.755 -0.1368  0.2003 -0.6190
   72SAPC   C22 6277   0.797   2.962   2.758 -0.2864 -0.5195 -0.0582
   72SAPC   H2R 6278   0.796   2.892   2.844  0.7408  1.8596  2.0483
   72SAPC   H2S 6279   0.824   2.906   2.666 -1.5444  0.0769 -0.8227
   72SAPC    C3 6280   0.318   2.858   2.731 -0.2368 -0.0449  0.0225
   72SAPC    HX 6281   0.330   2.769   2.665 -0.6952 -1.2426  1.4738
   72SAPC    HY 6282   0.223   2.901   2.695 -1.3431 -3.9158 -2.3232
   72SAPC   O31 6283   0.323   2.803   2.871  0.5658 -0.1869 -0.4795
   72SAPC   C31 6284   0.241   2.705   2.893  0.1009 -0.0889  0.8193
   72SAPC   O32 6285   0.159   2.671   2.809  0.0023  0.0029 -0.3097
   72SAPC   C32 6286   0.246   2.662   3.038 -0.0188 -0.2949 -0.7724
   72SAPC   H2X 6287   0.156   2.703   3.089 -0.0877  0.3591 -1.4107
   72SAPC   H2Y 6288   0.327   2.713   3.093  1.1799 -2.4563 -0.4026
   72SAPC   C23 6289   0.903   3.076   2.775  0.0870  0.7412  0.3456
   72SAPC   H3R 6290   0.899   3.119   2.672 -0.9075  0.6008  0.3077
   72SAPC   H3S 6291   1.002   3.028   2.788 -0.2643 -0.1321 -0.1203
   72SAPC   C24 6292   0.883   3.155   2.907 -0.4140 -0.5545  0.7406
   72SAPC   H4R 6293   0.780   3.195   2.909  0.0234  0.5852  1.9206
   72SAPC   H4S 6294   0.936   3.253   2.907 -1.2001 -0.0854 -0.8080
   72SAPC   C25 6295   0.905   3.088   3.038 -0.4969 -0.1503  0.7614
   72SAPC   H5R 6296   0.839   3.003   3.062 -0.8500 -0.5289 -1.2920
   72SAPC   C26 6297   1.007   3.107   3.126  0.4407 -0.9015  0.2010
   72SAPC   H6R 6298   1.011   3.040   3.213 -1.2847 -1.6484 -0.2619
   72SAPC   C27 6299   1.119   3.209   3.110  0.1216  0.3572 -0.3000
   72SAPC   H7R 6300   1.072   3.309   3.126  0.2334 -0.0208  2.9225
   72SAPC   H7S 6301   1.152   3.199   3.004 -1.2195  1.8404 -0.9108
   72SAPC   C28 6302   1.235   3.183   3.201  0.4214 -0.0464 -0.0020
   72SAPC   H8R 6303   1.328   3.147   3.155  0.7201 -0.4360  0.8834
   72SAPC   C29 6304   1.234   3.184   3.337 -0.7413  0.7850  0.0401
   72SAPC   H9R 6305   1.327   3.158   3.389  0.2365  3.9794  0.0547
   72SAPC  C210 6306   1.114   3.205   3.435  0.0213  0.8775 -0.1748
   72SAPC  H10R 6307   1.023   3.237   3.379 -0.8549  0.2814  0.8685
   72SAPC  H10S 6308   1.129   3.292   3.503  0.6089  0.1190  0.6955
   72SAPC  C211 6309   1.086   3.081   3.512 -0.2355 -0.2238 -0.1285
   72SAPC  H11R 6310   1.007   3.015   3.475 -0.8403 -2.5958  4.6381
   72SAPC  C212 6311   1.154   3.039   3.623  0.7697 -0.1850 -0.4651
   72SAPC  H12R 6312   1.118   2.959   3.689 -1.3300  0.6795 -0.4739
   72SAPC  C213 6313   1.275   3.116   3.683 -0.4831 -0.2866 -0.0771
   72SAPC  H13R 6314   1.233   3.213   3.720 -2.0830 -0.8624 -0.2997
   72SAPC  H13S 6315   1.350   3.133   3.603  0.2146 -0.4115  0.5393
   72SAPC  C214 6316   1.353   3.052   3.795  0.4086 -0.2682  0.6762
   72SAPC  H14R 6317   1.392   2.957   3.755 -0.9528 -0.4794 -0.2251
   72SAPC  C215 6318   1.364   3.094   3.920 -0.4443 -0.9735 -0.2294
   72SAPC  H15R 6319   1.441   3.055   3.988 -1.6976 -1.1079  1.1443
   72SAPC  C216 6320   1.311   3.228   3.961  0.1974  0.0162  0.2702
   72SAPC  H16R 6321   1.328   3.305   3.882 -0.5777 -0.6470 -0.5685
   72SAPC  H16S 6322   1.368   3.264   4.050 -1.7267 -1.4496  2.2047
   72SAPC  C217 6323   1.163   3.234   3.980  0.0487 -0.0880  0.4290
   72SAPC  H17R 6324   1.109   3.181   3.898  2.1772  0.4330 -1.4017
   72SAPC  H17S 6325   1.138   3.342   3.977  0.5537  0.0789  1.8035
   72SAPC  C218 6326   1.115   3.179   4.118  0.0894 -0.0757 -0.3787
   72SAPC  H18R 6327   1.183   3.229   4.191  1.7605 -3.1320  0.3638
   72SAPC  H18S 6328   1.132   3.071   4.137 -0.5678 -0.2525 -0.7737
   72SAPC  C219 6329   0.969   3.198   4.136 -0.2973 -0.4339 -0.1450
   72SAPC  H19R 6330   0.902   3.145   4.064  0.1073  0.3590 -1.1257
   72SAPC  H19S 6331   0.945   3.306   4.126 -0.1493 -0.5214 -1.8699
   72SAPC  C220 6332   0.931   3.150   4.274 -0.0920 -0.2810 -0.3107
   72SAPC  H20R 6333   0.822   3.160   4.292 -0.1032  0.0773 -0.5688
   72SAPC  H20S 6334   0.981   3.195   4.362 -0.8084  0.4853 -0.2861
   72SAPC  H20T 6335   0.967   3.045   4.284 -0.2131 -0.2568  0.4633
   72SAPC   C33 6336   0.260   2.510   3.069  0.0299  0.0220  0.3482
   72SAPC   H3X 6337   0.359   2.463   3.051  0.5438  0.8260  0.9807
   72SAPC   H3Y 6338   0.192   2.459   2.998 -1.5449  0.2037  1.6827
   72SAPC   C34 6339   0.208   2.492   3.217 -0.3823  1.0975  0.0682
   72SAPC   H4X 6340   0.164   2.389   3.221  0.3583  0.7662 -0.1171
   72SAPC   H4Y 6341   0.126   2.562   3.243  0.2866  1.7647  0.4139
   72SAPC   C35 6342   0.319   2.496   3.329  0.5725 -0.0402 -0.1087
   72SAPC   H5X 6343   0.365   2.597   3.323 -0.1262  0.3354  0.6268
   72SAPC   H5Y 6344   0.395   2.424   3.291  0.5151  1.0457 -2.4234
   72SAPC   C36 6345   0.275   2.455   3.467 -0.5393  0.7225 -0.3594
   72SAPC   H6X 6346   0.240   2.349   3.470 -0.8493  0.7437  4.1071
   72SAPC   H6Y 6347   0.185   2.517   3.487 -0.6469  0.3427  0.3666
   72SAPC   C37 6348   0.390   2.482   3.574 -0.3278  0.6525 -0.1248
   72SAPC   H7X 6349   0.415   2.589   3.563 -1.8496  0.8870 -1.8820
   72SAPC   H7Y 6350   0.475   2.413   3.555 -0.6521  0.9972 -3.3704
   72SAPC   C38 6351   0.335   2.471   3.713  0.4741  0.4046  0.2272
   72SAPC   H8X 6352   0.329   2.363   3.741  0.3926  0.4745  0.4816
   72SAPC   H8Y 6353   0.235   2.517   3.722 -0.8516 -2.2960  0.4248
   72SAPC   C39 6354   0.431   2.541   3.814 -0.7834  0.6583 -0.0779
   72SAPC   H9X 6355   0.417   2.651   3.808 -1.2008  1.0242  4.4384
   72SAPC   H9Y 6356   0.537   2.518   3.789  0.0288  0.9073  2.8450
   72SAPC  C310 6357   0.405   2.500   3.960 -1.0860 -0.5197  0.2367
   72SAPC  H10X 6358   0.294   2.512   3.963 -0.9465  1.7944 -1.5237
   72SAPC  H10Y 6359   0.454   2.566   4.034 -0.1417 -0.3926 -0.4866
   72SAPC  C311 6360   0.442   2.350   3.993  0.4523 -0.2628  0.1446
   72SAPC  H11X 6361   0.549   2.340   3.964  1.0947  1.6155  1.6371
   72SAPC  H11Y 6362   0.390   2.278   3.926  1.2027 -0.0713 -0.6688
   72SAPC  C312 6363   0.415   2.310   4.138 -0.2777  0.6524  0.2201
   72SAPC  H12X 6364   0.482   2.364   4.207  0.7972 -0.2115 -0.1274
   72SAPC  H12Y 6365   0.416   2.199   4.143 -0.4287  0.5764 -1.0565
   72SAPC  C313 6366   0.272   2.338   4.180  0.6183 -0.4645 -0.1204
   72SAPC  H13X 6367   0.202   2.306   4.101  0.7722 -1.8086  0.2668
   72SAPC  H13Y 6368   0.265   2.449   4.178  0.2112 -0.4707  0.7046
   72SAPC  C314 6369   0.242   2.281   4.318  0.4199  0.3467 -0.1484
   72SAPC  H14X 6370   0.324   2.311   4.386  0.4165 -2.1246  1.0349
   72SAPC  H14Y 6371   0.229   2.172   4.331 -1.0650  0.5882  0.6253
   72SAPC  C315 6372   0.098   2.337   4.369 -0.2783 -0.5118  0.5630
   72SAPC  H15X 6373   0.095   2.446   4.346 -0.6023 -0.9701 -1.7801
   72SAPC  H15Y 6374   0.089   2.316   4.478  2.0579  0.2113  0.9508
   72SAPC  C316 6375  -0.013   2.276   4.282  0.2134 -0.1136  0.9072
   72SAPC  H16X 6376   0.007   2.169   4.256 -4.0916 -0.6395 -1.1877
   72SAPC  H16Y 6377  -0.014   2.329   4.184  0.9987  2.4286  2.2097
   72SAPC  C317 6378  -0.151   2.293   4.349  0.0555  0.8630 -0.2925
   72SAPC  H17X 6379  -0.144   2.253   4.453 -2.4968  0.7078 -0.1138
   72SAPC  H17Y 6380  -0.229   2.227   4.306  0.3944  0.9380 -1.0351
   72SAPC  C318 6381  -0.196   2.442   4.348 -0.0384 -0.1892 -0.2015
   72SAPC  H18X 6382  -0.159   2.503   4.432 -3.0759  2.7328 -0.8066
   72SAPC  H18Y 6383  -0.306   2.456   4.345 -0.0659 -0.1119  0.9513
   72SAPC  H18Z 6384  -0.162   2.502   4.261 -3.0759  1.5218 -0.3433
   73SLPC     N 6385   6.513   2.233   6.868 -0.1531  0.2926 -0.4866
   73SLPC   C13 6386   6.533   2.297   7.004 -0.1880  0.3844 -0.6302
   73SLPC  H13A 6387   6.505   2.401   7.002  4.0152  1.7052 -1.3639
   73SLPC  H13B 6388   6.477   2.241   7.077  0.9021  0.6237  0.4222
   73SLPC  H13C 6389   6.636   2.301   7.036 -0.2755 -1.1859 -0.0929
   73SLPC   C14 6390   6.366   2.215   6.839 -0.3601  0.4384  0.2018
   73SLPC  H14A 6391   6.328   2.312   6.810  0.2842  1.1949  1.7691
   73SLPC  H14B 6392   6.347   2.142   6.762  0.4063  1.2108 -0.7495
   73SLPC  H14C 6393   6.302   2.188   6.922 -2.1885 -0.8367 -1.5184
   73SLPC   C15 6394   6.570   2.093   6.882  0.2458  0.1996  0.5553
   73SLPC  H15A 6395   6.678   2.098   6.886  0.3371  0.4898 -1.4640
   73SLPC  H15B 6396   6.522   2.034   6.958 -0.0529  1.7061  1.5702
   73SLPC  H15C 6397   6.560   2.037   6.790  1.5166  1.0525 -0.1429
   73SLPC   C12 6398   6.585   2.317   6.763  0.0337 -0.0631  0.1052
   73SLPC  H12A 6399   6.596   2.262   6.671  0.9861 -0.2915  0.3416
   73SLPC  H12B 6400   6.685   2.326   6.802 -0.4009 -0.6098  1.4128
   73SLPC   C11 6401   6.528   2.459   6.724  0.2805 -0.9223  0.4930
   73SLPC  H11A 6402   6.421   2.445   6.699  0.4171 -1.7217  0.3097
   73SLPC  H11B 6403   6.586   2.489   6.634  1.8247 -1.8335  1.1425
   73SLPC     P 6404   6.463   2.677   6.850  0.3124 -0.0773  0.2313
   73SLPC   O13 6405   6.320   2.638   6.840  0.4484 -0.6393 -0.1067
   73SLPC   O14 6406   6.504   2.731   6.978 -0.2389 -0.0231 -0.3736
   73SLPC   O12 6407   6.558   2.557   6.819 -0.5353 -0.3222  0.1896
   73SLPC   O11 6408   6.501   2.783   6.741  0.4787 -0.1931  0.3535
   73SLPC    C1 6409   6.636   2.786   6.703  0.5069 -0.1445  0.4585
   73SLPC    HA 6410   6.694   2.810   6.795 -1.2813 -1.7733  2.1038
   73SLPC    HB 6411   6.657   2.687   6.658  0.1415  1.1860 -2.9016
   73SLPC    C2 6412   6.660   2.889   6.594  0.7327  1.1102 -0.1054
   73SLPC    HS 6413   6.627   2.990   6.625  0.9870  0.7874  1.3141
   73SLPC   O21 6414   6.585   2.858   6.469  0.0443  0.0663 -0.6014
   73SLPC   C21 6415   6.459   2.887   6.456 -0.6229  0.3543 -0.6061
   73SLPC   O22 6416   6.397   2.966   6.528 -0.0794 -0.2600  0.0173
   73SLPC   C22 6417   6.400   2.779   6.357 -0.0273 -0.0543  0.3103
   73SLPC   H2R 6418   6.480   2.726   6.301  0.7468 -0.4994  1.7836
   73SLPC   H2S 6419   6.353   2.701   6.421 -0.0614 -1.4884 -1.3708
   73SLPC    C3 6420   6.812   2.909   6.563  0.5107 -0.9516 -0.2671
   73SLPC    HX 6421   6.851   2.808   6.539  2.8948  0.0941 -1.0380
   73SLPC    HY 6422   6.873   2.954   6.643  0.6585 -1.1059 -0.2908
   73SLPC   O31 6423   6.834   2.986   6.441  0.1649  0.1755 -0.5233
   73SLPC   C31 6424   6.820   3.116   6.461 -0.0111 -0.6206 -0.2343
   73SLPC   O32 6425   6.817   3.174   6.573  0.5248 -0.6592  0.1346
   73SLPC   C32 6426   6.823   3.205   6.337  0.0749 -0.0507 -0.6405
   73SLPC   H2X 6427   6.893   3.163   6.262 -0.6555  0.0717 -1.4029
   73SLPC   H2Y 6428   6.869   3.300   6.372  0.0101 -0.3178  0.1928
   73SLPC   C23 6429   6.290   2.839   6.261 -0.3008 -0.0366 -0.1821
   73SLPC   H3R 6430   6.322   2.940   6.225 -0.4681  0.6849  1.5722
   73SLPC   H3S 6431   6.194   2.860   6.313  0.0200 -0.5670  0.6567
   73SLPC   C24 6432   6.259   2.761   6.129 -0.8408  0.0136 -0.7276
   73SLPC   H4R 6433   6.204   2.668   6.156 -1.0334  0.6362  1.2217
   73SLPC   H4S 6434   6.352   2.737   6.075  0.6326 -2.1982  2.4314
   73SLPC   C25 6435   6.168   2.843   6.030 -0.0166 -0.3315  0.0101
   73SLPC   H5R 6436   6.206   2.947   6.034  0.3137 -0.4831  1.3152
   73SLPC   H5S 6437   6.062   2.852   6.064 -0.1275  2.0846 -0.8003
   73SLPC   C26 6438   6.181   2.807   5.880  0.0888 -0.7075 -0.2086
   73SLPC   H6R 6439   6.146   2.703   5.862  1.8552 -1.9263  2.7029
   73SLPC   H6S 6440   6.287   2.818   5.847 -0.0738 -0.1199 -0.5547
   73SLPC   C27 6441   6.100   2.905   5.792 -0.3254 -0.7631  0.3213
   73SLPC   H7R 6442   6.140   3.008   5.800 -0.3734 -0.6887 -0.3390
   73SLPC   H7S 6443   5.997   2.902   5.832 -0.4706 -0.9434 -0.0668
   73SLPC   C28 6444   6.098   2.859   5.643  0.0063 -0.2533  0.0426
   73SLPC   H8R 6445   6.053   2.758   5.639 -1.7977  0.5599 -1.5331
   73SLPC   H8S 6446   6.202   2.835   5.612 -0.4014 -1.9610 -0.0910
   73SLPC   C29 6447   6.043   2.954   5.533  0.7853 -0.0189  0.2280
   73SLPC   H9R 6448   5.991   3.038   5.581  0.1661 -0.5184  0.4535
   73SLPC  C210 6449   6.038   2.943   5.398  0.0986 -0.2518  0.4320
   73SLPC  H10R 6450   5.979   3.010   5.334 -0.9130 -0.8337  0.7379
   73SLPC  C211 6451   6.100   2.831   5.322 -0.1804  0.0024 -0.3410
   73SLPC  H11R 6452   6.175   2.780   5.386  2.0385  1.5769 -1.5931
   73SLPC  H11S 6453   6.148   2.864   5.227  1.1358  0.9167  0.6076
   73SLPC  C212 6454   5.986   2.732   5.295 -0.2368 -0.5444 -0.1971
   73SLPC  H12R 6455   5.910   2.739   5.374  1.7641  0.6565  1.7122
   73SLPC  C213 6456   5.988   2.636   5.201  0.1417 -0.1397 -0.3538
   73SLPC  H13R 6457   5.907   2.563   5.208 -0.2078  0.3578  4.1892
   73SLPC  C214 6458   6.093   2.614   5.097  0.0365 -0.1057 -0.9607
   73SLPC  H14R 6459   6.152   2.523   5.122 -0.5854 -0.5335 -1.0353
   73SLPC  H14S 6460   6.175   2.689   5.095  0.3070 -0.2711  1.3901
   73SLPC  C215 6461   6.046   2.605   4.950 -0.7280  0.5709 -0.2734
   73SLPC  H15R 6462   5.970   2.683   4.928 -0.9750  1.2391  2.6287
   73SLPC  H15S 6463   5.992   2.508   4.947 -1.7353  1.0506  1.1514
   73SLPC  C216 6464   6.169   2.620   4.853  0.3286  0.0395 -0.7236
   73SLPC  H16R 6465   6.249   2.547   4.880 -0.0246 -0.5533 -1.2459
   73SLPC  H16S 6466   6.215   2.718   4.880  0.9427 -0.5417  0.4488
   73SLPC  C217 6467   6.138   2.599   4.705  0.2065 -0.2072 -0.4633
   73SLPC  H17R 6468   6.033   2.566   4.690  0.9880 -3.6830  0.9222
   73SLPC  H17S 6469   6.204   2.526   4.653  0.5178  0.0975 -0.5051
   73SLPC  C218 6470   6.160   2.730   4.630  0.9437 -0.7364  0.4014
   73SLPC  H18R 6471   6.264   2.769   4.623  0.7274  0.2800  2.1362
   73SLPC  H18S 6472   6.121   2.820   4.682  0.6760  2.0553 -4.1103
   73SLPC  H18T 6473   6.121   2.721   4.526  0.9462  0.7134  0.2611
   73SLPC   C33 6474   6.674   3.236   6.295  0.8978  0.0355  0.4183
   73SLPC   H3X 6475   6.689   3.335   6.246  2.7475 -1.6667 -2.7435
   73SLPC   H3Y 6476   6.601   3.240   6.379 -0.2814  2.1002 -0.6293
   73SLPC   C34 6477   6.624   3.139   6.189 -0.4897  0.3937  0.6710
   73SLPC   H4X 6478   6.585   3.047   6.236  2.2251 -0.5417  1.2246
   73SLPC   H4Y 6479   6.711   3.101   6.132  0.4450 -1.5774  3.2527
   73SLPC   C35 6480   6.512   3.198   6.099 -0.5244 -0.0518 -0.6825
   73SLPC   H5X 6481   6.540   3.305   6.089  0.2992  0.0630  2.0896
   73SLPC   H5Y 6482   6.426   3.189   6.168  0.2003 -1.5660  0.0939
   73SLPC   C36 6483   6.487   3.137   5.963 -0.2752  0.3480 -0.0557
   73SLPC   H6X 6484   6.456   3.031   5.959 -0.7595  0.5229 -1.8931
   73SLPC   H6Y 6485   6.586   3.132   5.912  1.2023  3.0274  2.2775
   73SLPC   C37 6486   6.376   3.205   5.884 -0.0262  0.2520  0.0919
   73SLPC   H7X 6487   6.374   3.311   5.917  0.7267  0.4096 -0.3545
   73SLPC   H7Y 6488   6.275   3.172   5.917 -0.3800 -0.8493 -1.8807
   73SLPC   C38 6489   6.384   3.197   5.735 -0.0868  0.5346  0.8502
   73SLPC   H8X 6490   6.384   3.093   5.698  1.5586  0.7072  0.2620
   73SLPC   H8Y 6491   6.477   3.249   5.703  0.1140 -0.7111 -0.7292
   73SLPC   C39 6492   6.274   3.275   5.664  0.5239  0.4409  0.3580
   73SLPC   H9X 6493   6.282   3.383   5.686  2.5327  0.9612 -2.3686
   73SLPC   H9Y 6494   6.175   3.239   5.701  0.2709  0.7569 -0.0114
   73SLPC  C310 6495   6.277   3.260   5.510  0.5261  0.0754  0.0617
   73SLPC  H10X 6496   6.173   3.257   5.470  0.8499  1.3853 -0.9688
   73SLPC  H10Y 6497   6.302   3.153   5.494 -0.4430 -0.3349  1.1398
   73SLPC  C311 6498   6.367   3.346   5.424  1.4956 -0.2327 -0.0596
   73SLPC  H11X 6499   6.474   3.331   5.450  0.7181 -1.0447  3.0286
   73SLPC  H11Y 6500   6.347   3.450   5.459  1.9352 -0.0464 -0.3437
   73SLPC  C312 6501   6.331   3.350   5.276  0.1077 -0.6559  0.3326
   73SLPC  H12X 6502   6.407   3.406   5.217  0.7111  1.0497  2.5932
   73SLPC  H12Y 6503   6.235   3.404   5.262 -0.6613 -2.2539 -0.7830
   73SLPC  C313 6504   6.302   3.210   5.209  0.4059  0.1477  0.8798
   73SLPC  H13X 6505   6.216   3.160   5.257  0.7280  0.1873  1.5001
   73SLPC  H13Y 6506   6.398   3.154   5.211  0.7832  0.5944 -1.2630
   73SLPC  C314 6507   6.277   3.224   5.055  0.3403  0.0366 -0.7933
   73SLPC  H14X 6508   6.291   3.120   5.019 -0.7203  0.4301 -2.4676
   73SLPC  H14Y 6509   6.368   3.274   5.015  0.3389  1.1706  0.5340
   73SLPC  C315 6510   6.142   3.289   5.018 -0.5341 -0.4991  0.0931
   73SLPC  H15X 6511   6.157   3.399   5.008  0.1097 -0.6702 -1.0207
   73SLPC  H15Y 6512   6.054   3.276   5.083 -1.0279 -0.1091 -0.4853
   73SLPC  C316 6513   6.106   3.255   4.876  0.4468 -0.5252  0.2947
   73SLPC  H16X 6514   6.102   3.146   4.858  2.7199 -0.5074 -0.5552
   73SLPC  H16Y 6515   6.180   3.291   4.802 -0.2244  2.0453  0.7529
   73SLPC  C317 6516   5.969   3.322   4.836 -0.7552 -0.4967  0.1351
   73SLPC  H17X 6517   5.964   3.430   4.859  0.5585 -0.3547 -0.1731
   73SLPC  H17Y 6518   5.877   3.278   4.880 -2.0054  1.6531 -0.2064
   73SLPC  C318 6519   5.957   3.334   4.680  0.6150 -0.1998 -0.1786
   73SLPC  H18X 6520   5.966   3.230   4.644  1.7423 -0.0917 -0.2387
   73SLPC  H18Y 6521   6.027   3.399   4.624 -0.2013 -1.4543 -2.8003
   73SLPC  H18Z 6522   5.854   3.365   4.653  0.6390  0.7376  0.7394
   74SLPC     N 6523   4.361   5.117   6.861 -0.2003  0.0114 -0.0082
   74SLPC   C13 6524   4.279   5.241   6.853 -0.1620 -0.3266  0.8924
   74SLPC  H13A 6525   4.321   5.333   6.889 -0.6146  1.0307 -1.7824
   74SLPC  H13B 6526   4.248   5.260   6.751 -1.2750 -0.4128  1.1974
   74SLPC  H13C 6527   4.184   5.227   6.903 -1.1011  0.7676 -0.4997
   74SLPC   C14 6528   4.433   5.113   6.991 -0.0827 -0.0431 -0.8052
   74SLPC  H14A 6529   4.487   5.205   7.005  0.8453 -0.7540  0.4538
   74SLPC  H14B 6530   4.361   5.119   7.071  0.2860  0.4651 -0.5083
   74SLPC  H14C 6531   4.494   5.025   7.007  1.0238  0.5422 -1.6865
   74SLPC   C15 6532   4.478   5.132   6.765  0.2776  0.0734 -0.7132
   74SLPC  H15A 6533   4.543   5.214   6.794  1.2359 -1.4579  1.7643
   74SLPC  H15B 6534   4.542   5.046   6.761  0.2520  0.0545 -0.7178
   74SLPC  H15C 6535   4.440   5.151   6.665 -0.6211 -2.0153 -0.8113
   74SLPC   C12 6536   4.291   4.978   6.831  0.1652 -0.4357  0.0192
   74SLPC  H12A 6537   4.254   4.982   6.729 -0.5698 -1.2438  0.2412
   74SLPC  H12B 6538   4.203   4.969   6.892  0.8063 -0.5903  0.9296
   74SLPC   C11 6539   4.368   4.851   6.848  0.3014  0.3221 -0.2496
   74SLPC  H11A 6540   4.297   4.766   6.855  0.0861  0.5349  0.2209
   74SLPC  H11B 6541   4.426   4.853   6.943 -1.5671 -0.3893  0.9564
   74SLPC     P 6542   4.516   4.699   6.699 -0.2070 -0.0182  0.3776
   74SLPC   O13 6543   4.660   4.708   6.683 -0.1478 -1.1317  0.1506
   74SLPC   O14 6544   4.469   4.588   6.784  0.5493  0.4636 -0.3893
   74SLPC   O12 6545   4.458   4.837   6.743 -0.5931 -0.2376 -0.4732
   74SLPC   O11 6546   4.457   4.677   6.553 -0.0306  0.0952  0.0661
   74SLPC    C1 6547   4.342   4.742   6.499 -1.0698 -0.5953  0.5058
   74SLPC    HA 6548   4.250   4.691   6.533 -1.8690  0.9966  0.8099
   74SLPC    HB 6549   4.329   4.845   6.538  1.2821  0.1532 -0.5009
   74SLPC    C2 6550   4.328   4.753   6.344  0.6863  0.0280 -0.1617
   74SLPC    HS 6551   4.408   4.823   6.310  0.4573  0.6854  0.6485
   74SLPC   O21 6552   4.197   4.798   6.308 -0.4333 -0.1738  0.1333
   74SLPC   C21 6553   4.175   4.924   6.335 -0.5499 -0.4704 -0.5930
   74SLPC   O22 6554   4.257   5.009   6.370  0.3520  0.0252 -0.1025
   74SLPC   C22 6555   4.037   4.967   6.293  0.8644 -0.1426 -0.7929
   74SLPC   H2R 6556   3.970   4.881   6.271 -1.1741  1.4667 -1.2159
   74SLPC   H2S 6557   4.007   5.028   6.381  2.4518 -1.0287  0.4080
   74SLPC    C3 6558   4.377   4.612   6.294 -0.3547 -0.3805 -0.0610
   74SLPC    HX 6559   4.319   4.534   6.348 -0.4983 -0.0246  0.3014
   74SLPC    HY 6560   4.488   4.610   6.304 -0.1712  1.0071 -1.4947
   74SLPC   O31 6561   4.340   4.598   6.153  0.3391 -0.6548 -0.0029
   74SLPC   C31 6562   4.424   4.540   6.068  0.1275  0.3782 -0.0705
   74SLPC   O32 6563   4.531   4.495   6.100  0.3852 -0.1230 -0.2324
   74SLPC   C32 6564   4.360   4.544   5.929 -0.3195 -0.4103  0.3908
   74SLPC   H2X 6565   4.256   4.581   5.925  0.0334  0.6035  0.2685
   74SLPC   H2Y 6566   4.345   4.434   5.918  0.6083 -0.6082  0.9670
   74SLPC   C23 6567   4.029   5.054   6.163  0.4644 -0.4369  0.7033
   74SLPC   H3R 6568   4.099   5.139   6.174 -0.9606  0.9249 -0.2099
   74SLPC   H3S 6569   3.928   5.100   6.150  0.3786 -0.3367  1.6729
   74SLPC   C24 6570   4.065   4.963   6.038  0.4677  0.2656  0.0872
   74SLPC   H4R 6571   4.013   4.864   6.037  2.3136 -0.7362 -0.3042
   74SLPC   H4S 6572   4.172   4.935   6.040 -0.0421 -2.0509 -1.0704
   74SLPC   C25 6573   4.056   5.036   5.897  0.2845  0.5092 -0.3036
   74SLPC   H5R 6574   4.111   5.130   5.920 -0.8188  0.9955  0.4565
   74SLPC   H5S 6575   3.948   5.057   5.880  0.4910  2.8536  0.8116
   74SLPC   C26 6576   4.119   4.942   5.789 -0.2510 -0.6592  0.4191
   74SLPC   H6R 6577   4.041   4.872   5.752  1.7763 -1.3737 -2.9666
   74SLPC   H6S 6578   4.213   4.895   5.825 -0.5686 -0.7031  1.2180
   74SLPC   C27 6579   4.154   5.033   5.673 -0.0163  0.0131 -0.7187
   74SLPC   H7R 6580   4.220   5.116   5.709 -0.5417 -0.4871  1.5781
   74SLPC   H7S 6581   4.057   5.082   5.649 -1.6849 -1.9457  1.5498
   74SLPC   C28 6582   4.198   4.956   5.547  0.1267  1.1424  0.7030
   74SLPC   H8R 6583   4.105   4.928   5.493  0.6415 -1.1281  0.9082
   74SLPC   H8S 6584   4.242   4.861   5.585 -0.8294  1.3274  2.3649
   74SLPC   C29 6585   4.283   5.049   5.457 -0.6312 -0.2864 -0.2675
   74SLPC   H9R 6586   4.385   5.065   5.495 -0.2349 -1.1401 -0.9342
   74SLPC  C210 6587   4.247   5.113   5.337  0.2438 -0.3711  0.3134
   74SLPC  H10R 6588   4.329   5.163   5.283 -0.0423  0.2056  0.3951
   74SLPC  C211 6589   4.121   5.114   5.256 -0.3297 -0.0688  0.3239
   74SLPC  H11R 6590   4.112   5.202   5.188 -0.9150  0.2058  0.7598
   74SLPC  H11S 6591   4.028   5.099   5.313 -0.1286 -1.2500  0.3790
   74SLPC  C212 6592   4.132   4.992   5.164 -0.2238 -0.1272 -0.5004
   74SLPC  H12R 6593   4.079   4.903   5.201 -1.1650 -0.2233 -2.0257
   74SLPC  C213 6594   4.185   4.990   5.040  0.9825 -0.1460 -0.8814
   74SLPC  H13R 6595   4.201   4.891   4.994  1.4752  0.0818 -1.2061
   74SLPC  C214 6596   4.253   5.101   4.971  0.2631 -0.2258  0.0014
   74SLPC  H14R 6597   4.358   5.072   4.947  1.1771  1.8788  1.1470
   74SLPC  H14S 6598   4.269   5.183   5.044  0.8891 -0.9720  0.7207
   74SLPC  C215 6599   4.171   5.141   4.854  0.6920  0.5769  0.0511
   74SLPC  H15R 6600   4.244   5.191   4.786  0.7212  0.1805 -0.2149
   74SLPC  H15S 6601   4.091   5.214   4.879  0.2193  0.0592  0.0661
   74SLPC  C216 6602   4.111   5.021   4.777  0.4323 -1.1292  0.1521
   74SLPC  H16R 6603   4.027   4.980   4.838  1.4730 -1.5542  1.3400
   74SLPC  H16S 6604   4.195   4.951   4.761  0.8868 -0.2344 -1.6881
   74SLPC  C217 6605   4.066   5.072   4.637  0.0793  0.6407  0.2304
   74SLPC  H17R 6606   4.154   5.128   4.600  0.8377  0.0548  1.0918
   74SLPC  H17S 6607   3.990   5.153   4.641  0.4892  1.1459 -1.4189
   74SLPC  C218 6608   4.025   4.950   4.549 -0.1092 -0.8315 -0.0760
   74SLPC  H18R 6609   4.013   4.985   4.445  1.6346  0.4051  0.1086
   74SLPC  H18S 6610   3.929   4.905   4.585 -0.3593 -0.5554 -0.3899
   74SLPC  H18T 6611   4.100   4.869   4.552 -0.8417 -1.5010  1.0118
   74SLPC   C33 6612   4.451   4.595   5.815  0.0316  0.2499  0.8426
   74SLPC   H3X 6613   4.544   4.536   5.830 -0.5708 -1.2795 -1.0737
   74SLPC   H3Y 6614   4.481   4.697   5.849 -0.4598 -0.3208  3.1595
   74SLPC   C34 6615   4.395   4.587   5.678 -0.2048  0.2346  0.0797
   74SLPC   H4X 6616   4.305   4.653   5.687 -0.6233 -0.2127 -0.7194
   74SLPC   H4Y 6617   4.350   4.489   5.651 -0.5635  0.5016 -0.3015
   74SLPC   C35 6618   4.485   4.631   5.559  0.1326 -0.2489  0.2680
   74SLPC   H5X 6619   4.569   4.560   5.540 -0.9297 -1.6189  0.5694
   74SLPC   H5Y 6620   4.534   4.722   5.600  0.4434 -1.1571  2.0036
   74SLPC   C36 6621   4.415   4.638   5.423  0.3049 -0.9200 -0.4310
   74SLPC   H6X 6622   4.305   4.648   5.438 -0.0449  1.0025 -3.3364
   74SLPC   H6Y 6623   4.419   4.541   5.368 -0.2522 -0.2197 -1.7545
   74SLPC   C37 6624   4.472   4.745   5.328  0.7144 -0.2812  0.2277
   74SLPC   H7X 6625   4.578   4.721   5.308  0.9458 -0.3363  1.4461
   74SLPC   H7Y 6626   4.464   4.844   5.380 -0.5018  0.5723 -1.4674
   74SLPC   C38 6627   4.394   4.762   5.200 -0.4966 -0.9099  0.5183
   74SLPC   H8X 6628   4.417   4.865   5.164  0.0422 -0.0013  3.2227
   74SLPC   H8Y 6629   4.289   4.758   5.236 -0.3873 -0.1893  0.9413
   74SLPC   C39 6630   4.438   4.651   5.103  0.9447 -0.5089  0.0308
   74SLPC   H9X 6631   4.387   4.560   5.141 -1.1136  0.0021 -1.3058
   74SLPC   H9Y 6632   4.547   4.631   5.117  1.3437  2.4972  2.3366
   74SLPC  C310 6633   4.393   4.675   4.960  0.1645 -0.1795 -0.3648
   74SLPC  H10X 6634   4.433   4.771   4.921  2.1902 -0.7094  0.3052
   74SLPC  H10Y 6635   4.284   4.695   4.956 -0.2888 -1.7873  1.7003
   74SLPC  C311 6636   4.437   4.563   4.864  0.0300 -0.5859  0.1880
   74SLPC  H11X 6637   4.426   4.464   4.913 -0.2886 -0.4068  0.4776
   74SLPC  H11Y 6638   4.546   4.578   4.844 -0.1634  0.2057 -0.2881
   74SLPC  C312 6639   4.364   4.556   4.731  0.3425  0.3511  0.9508
   74SLPC  H12X 6640   4.268   4.504   4.712  1.5145 -1.1374 -1.5007
   74SLPC  H12Y 6641   4.429   4.499   4.660  1.2654  2.5081 -0.0333
   74SLPC  C313 6642   4.343   4.698   4.658  0.0825  0.0748  0.3209
   74SLPC  H13X 6643   4.278   4.764   4.720 -1.2024  1.9441 -2.8058
   74SLPC  H13Y 6644   4.283   4.665   4.572 -1.5121  0.7990  1.1135
   74SLPC  C314 6645   4.464   4.774   4.614 -0.4498  0.1830  0.7018
   74SLPC  H14X 6646   4.536   4.704   4.567  1.4762  0.9286  2.3842
   74SLPC  H14Y 6647   4.515   4.796   4.710  1.1186  1.0281 -0.2729
   74SLPC  C315 6648   4.434   4.885   4.517 -0.3718  0.1099 -0.3977
   74SLPC  H15X 6649   4.531   4.939   4.510 -0.2967  0.2918  1.4305
   74SLPC  H15Y 6650   4.365   4.954   4.570 -1.3612 -2.6666  2.2260
   74SLPC  C316 6651   4.370   4.843   4.383  0.1253  1.4032 -0.2457
   74SLPC  H16X 6652   4.272   4.798   4.409  0.1251  1.5099 -0.0580
   74SLPC  H16Y 6653   4.431   4.764   4.335  0.6432  2.0453 -0.6775
   74SLPC  C317 6654   4.340   4.948   4.279 -0.3837 -0.0556 -0.1034
   74SLPC  H17X 6655   4.422   5.022   4.288 -2.6009  2.4513  1.2060
   74SLPC  H17Y 6656   4.247   5.003   4.307  1.0424  1.1531  2.5922
   74SLPC  C318 6657   4.335   4.892   4.130 -0.2842  0.2763 -0.2621
   74SLPC  H18X 6658   4.409   4.810   4.119 -1.9897 -1.4247  0.5121
   74SLPC  H18Y 6659   4.329   4.969   4.050 -0.9906 -2.5121 -3.1222
   74SLPC  H18Z 6660   4.241   4.836   4.111 -1.7015  2.2568  0.5879
   75SLPC     N 6661   5.641   3.810   7.070  0.1938  0.2504  0.2385
   75SLPC   C13 6662   5.544   3.720   7.135 -0.3446 -0.2970  0.7113
   75SLPC  H13A 6663   5.558   3.623   7.089  2.3762  0.5594 -0.4988
   75SLPC  H13B 6664   5.550   3.717   7.243 -0.6829 -0.6183  0.7245
   75SLPC  H13C 6665   5.443   3.750   7.113  0.2704  0.7519 -0.8668
   75SLPC   C14 6666   5.775   3.790   7.130 -0.2389  0.0621  0.3747
   75SLPC  H14A 6667   5.771   3.804   7.237 -0.2820  0.5204  0.3131
   75SLPC  H14B 6668   5.800   3.686   7.115 -2.6648 -0.5002 -0.2673
   75SLPC  H14C 6669   5.844   3.855   7.079 -0.1820 -0.4387 -0.2125
   75SLPC   C15 6670   5.611   3.957   7.097  0.0631 -0.1537  0.3423
   75SLPC  H15A 6671   5.665   4.007   7.018 -0.2220  0.1320  0.3284
   75SLPC  H15B 6672   5.506   3.981   7.086 -0.5912 -3.3691 -1.6477
   75SLPC  H15C 6673   5.635   3.989   7.198 -0.6617 -1.5857  0.9992
   75SLPC   C12 6674   5.637   3.788   6.925 -0.1422  0.0204  0.4689
   75SLPC  H12A 6675   5.693   3.871   6.885  1.9951 -2.1409 -1.3291
   75SLPC  H12B 6676   5.535   3.796   6.892 -0.6044 -3.7881  0.4992
   75SLPC   C11 6677   5.697   3.665   6.865  0.5184  0.6641 -0.3161
   75SLPC  H11A 6678   5.805   3.650   6.888  0.6316 -0.3930 -1.4380
   75SLPC  H11B 6679   5.698   3.681   6.756  1.1201 -0.2656 -0.4600
   75SLPC     P 6680   5.482   3.516   6.849 -0.0879 -0.1571  0.0739
   75SLPC   O13 6681   5.430   3.399   6.924 -0.1875 -0.5739  0.0117
   75SLPC   O14 6682   5.389   3.629   6.854  0.6028  0.1918  0.3025
   75SLPC   O12 6683   5.615   3.559   6.917  0.6356 -0.6831  0.0526
   75SLPC   O11 6684   5.524   3.475   6.703  0.4042 -0.2883 -0.0636
   75SLPC    C1 6685   5.619   3.367   6.687 -0.2330  0.2766  0.2105
   75SLPC    HA 6686   5.714   3.382   6.744  1.2291 -0.5691 -1.8818
   75SLPC    HB 6687   5.571   3.274   6.723  0.3283 -1.0149 -2.1703
   75SLPC    C2 6688   5.651   3.358   6.538  0.6121  0.3191 -0.6602
   75SLPC    HS 6689   5.724   3.275   6.523  1.2716  0.8779 -0.5679
   75SLPC   O21 6690   5.697   3.481   6.491 -0.2450 -0.5536  0.5255
   75SLPC   C21 6691   5.832   3.501   6.501 -0.1087 -0.4402 -0.5539
   75SLPC   O22 6692   5.910   3.418   6.540 -0.1143  0.3207 -0.8914
   75SLPC   C22 6693   5.873   3.635   6.445 -0.1313 -0.1716  0.0154
   75SLPC   H2R 6694   5.869   3.706   6.530 -1.1261 -0.5533  0.3007
   75SLPC   H2S 6695   5.977   3.617   6.409  1.0909  0.7580  2.7670
   75SLPC    C3 6696   5.525   3.304   6.457 -0.3608 -0.8154 -0.0323
   75SLPC    HX 6697   5.442   3.367   6.495 -0.0708 -0.0385 -0.6621
   75SLPC    HY 6698   5.513   3.200   6.494  0.6788 -1.3917 -1.2242
   75SLPC   O31 6699   5.538   3.309   6.312 -0.6658 -0.4685 -0.2980
   75SLPC   C31 6700   5.502   3.433   6.260 -0.2555  0.0247 -0.3722
   75SLPC   O32 6701   5.436   3.518   6.319 -0.2485  1.1267 -0.1608
   75SLPC   C32 6702   5.545   3.445   6.110  0.2069 -0.4246  0.0776
   75SLPC   H2X 6703   5.517   3.354   6.053  1.2634 -0.2502 -0.7528
   75SLPC   H2Y 6704   5.656   3.445   6.116  0.2602 -0.0999 -0.8496
   75SLPC   C23 6705   5.792   3.692   6.332 -1.1311  0.7547  0.5636
   75SLPC   H3R 6706   5.689   3.714   6.368 -1.1299 -0.4349  1.3270
   75SLPC   H3S 6707   5.770   3.618   6.252  2.0964  2.0763 -1.7869
   75SLPC   C24 6708   5.849   3.816   6.273 -0.1368 -0.0810  0.1282
   75SLPC   H4R 6709   5.954   3.796   6.244  0.3088  0.1576  1.4654
   75SLPC   H4S 6710   5.842   3.910   6.333  0.8227  1.2191 -1.7022
   75SLPC   C25 6711   5.770   3.846   6.142  0.3928 -0.0849 -0.4727
   75SLPC   H5R 6712   5.661   3.857   6.163 -0.3253 -2.1110 -2.6596
   75SLPC   H5S 6713   5.776   3.762   6.069 -0.1903 -1.8492  1.3962
   75SLPC   C26 6714   5.818   3.978   6.085  0.3552 -0.1462  0.0531
   75SLPC   H6R 6715   5.928   3.964   6.075  0.2677 -1.2087  0.4967
   75SLPC   H6S 6716   5.808   4.063   6.157 -0.4575  1.1555 -1.5175
   75SLPC   C27 6717   5.743   3.992   5.947 -0.5134  0.4007 -0.8235
   75SLPC   H7R 6718   5.633   3.993   5.964 -0.5478 -0.5327 -0.9623
   75SLPC   H7S 6719   5.756   3.899   5.888 -0.2222  1.1848 -2.0169
   75SLPC   C28 6720   5.786   4.112   5.863 -0.3329 -0.4309 -0.2520
   75SLPC   H8R 6721   5.769   4.211   5.911 -2.6902  0.2675 -2.3219
   75SLPC   H8S 6722   5.708   4.121   5.785 -0.8754  1.7355  0.4683
   75SLPC   C29 6723   5.920   4.079   5.805  0.8619 -0.4211  0.3108
   75SLPC   H9R 6724   5.988   4.040   5.882 -0.7657  0.1009  2.0911
   75SLPC  C210 6725   5.948   4.072   5.674  0.3275 -0.4841 -0.5941
   75SLPC  H10R 6726   6.050   4.040   5.648  2.2526  3.5979  1.0382
   75SLPC  C211 6727   5.871   4.115   5.555  0.6179  0.7011 -0.4427
   75SLPC  H11R 6728   5.919   4.211   5.526  1.0442  0.3436 -0.9507
   75SLPC  H11S 6729   5.765   4.127   5.586  0.5386 -0.5457 -0.1906
   75SLPC  C212 6730   5.878   4.009   5.446 -0.3630 -0.6587  1.1802
   75SLPC  H12R 6731   5.888   3.905   5.480 -1.3199 -0.7525  1.2196
   75SLPC  C213 6732   5.885   4.034   5.312  0.1066 -0.2083 -0.2503
   75SLPC  H13R 6733   5.915   3.952   5.245  1.9565  0.7296 -0.6241
   75SLPC  C214 6734   5.878   4.174   5.258  0.2907  0.0949 -0.0870
   75SLPC  H14R 6735   5.955   4.239   5.305 -1.8348  2.5666  0.2454
   75SLPC  H14S 6736   5.784   4.230   5.282 -0.3876 -1.0145 -0.1198
   75SLPC  C215 6737   5.888   4.177   5.101 -0.7228 -0.3402  0.6301
   75SLPC  H15R 6738   5.992   4.140   5.089 -1.3703 -2.9861  2.2307
   75SLPC  H15S 6739   5.893   4.284   5.073 -1.2478  0.6067  3.7435
   75SLPC  C216 6740   5.783   4.105   5.025 -0.1044  0.2056  0.9632
   75SLPC  H16R 6741   5.683   4.134   5.065 -1.0589  0.7743 -1.6335
   75SLPC  H16S 6742   5.789   3.996   5.046 -2.0011  0.0729  1.0230
   75SLPC  C217 6743   5.797   4.122   4.871  0.1514 -0.1912 -0.2306
   75SLPC  H17R 6744   5.904   4.115   4.843  0.3830 -2.3506  0.9736
   75SLPC  H17S 6745   5.768   4.226   4.844  0.2861 -0.0949 -0.0030
   75SLPC  C218 6746   5.723   4.019   4.775 -0.1223 -0.1170  0.8070
   75SLPC  H18R 6747   5.756   4.053   4.675 -0.5502  3.2480  1.6699
   75SLPC  H18S 6748   5.613   4.027   4.782 -0.1069  1.1083  0.0370
   75SLPC  H18T 6749   5.768   3.919   4.788  0.5828  0.1942  0.8123
   75SLPC   C33 6750   5.490   3.568   6.032 -0.5661  0.1843  0.2604
   75SLPC   H3X 6751   5.505   3.657   6.096  0.1552 -0.7898  1.4726
   75SLPC   H3Y 6752   5.379   3.569   6.022 -0.4579  0.1840 -1.1711
   75SLPC   C34 6753   5.551   3.584   5.891 -0.5415  0.1023  0.0846
   75SLPC   H4X 6754   5.528   3.489   5.838  0.8501  0.8991 -2.0777
   75SLPC   H4Y 6755   5.661   3.596   5.886 -0.6235  1.2725  0.6701
   75SLPC   C35 6756   5.491   3.704   5.797 -0.1719  0.5231  0.1831
   75SLPC   H5X 6757   5.512   3.801   5.848  1.9889  0.0978  0.1918
   75SLPC   H5Y 6758   5.381   3.688   5.799  0.1661 -2.4349 -0.9064
   75SLPC   C36 6759   5.564   3.715   5.665  0.6085 -0.3920 -1.0769
   75SLPC   H6X 6760   5.551   3.618   5.613 -1.7442 -0.3793 -0.6194
   75SLPC   H6Y 6761   5.671   3.745   5.671 -0.6249  5.3439 -1.6483
   75SLPC   C37 6762   5.498   3.829   5.594 -0.4851  0.0390 -0.1581
   75SLPC   H7X 6763   5.534   3.925   5.637 -2.2301  0.7830 -0.3059
   75SLPC   H7Y 6764   5.388   3.830   5.609 -0.4481  1.2557  0.1194
   75SLPC   C38 6765   5.516   3.830   5.446 -0.3193 -0.2431 -0.0026
   75SLPC   H8X 6766   5.454   3.759   5.387  0.3199 -1.0721  0.3098
   75SLPC   H8Y 6767   5.623   3.814   5.419 -1.2366 -3.2148 -2.5267
   75SLPC   C39 6768   5.463   3.969   5.396  0.1231  0.8012 -0.2039
   75SLPC   H9X 6769   5.531   4.046   5.439  0.1375  0.6399  0.0658
   75SLPC   H9Y 6770   5.358   3.992   5.425 -0.1829  0.2810 -0.8813
   75SLPC  C310 6771   5.472   3.991   5.251  0.4383 -0.5132  0.1952
   75SLPC  H10X 6772   5.396   3.929   5.199  1.4173  0.1520 -2.1538
   75SLPC  H10Y 6773   5.567   3.968   5.199 -0.6364 -1.0616 -1.6027
   75SLPC  C311 6774   5.433   4.132   5.205  0.1132 -0.0428  0.2041
   75SLPC  H11X 6775   5.516   4.206   5.213 -2.2632  2.9614 -1.1421
   75SLPC  H11Y 6776   5.348   4.171   5.264 -1.0996 -0.4844 -1.1946
   75SLPC  C312 6777   5.389   4.137   5.055  0.1862  0.8010 -0.7935
   75SLPC  H12X 6778   5.301   4.069   5.056 -0.4818  1.6117 -1.8873
   75SLPC  H12Y 6779   5.468   4.095   4.990 -0.2713 -2.4448  0.5618
   75SLPC  C313 6780   5.330   4.279   5.024  0.2355 -0.1013 -0.1321
   75SLPC  H13X 6781   5.396   4.358   5.066 -1.2778  1.0146  0.2223
   75SLPC  H13Y 6782   5.230   4.298   5.068  1.6256  3.9746  1.7914
   75SLPC  C314 6783   5.308   4.308   4.872 -0.0277 -0.9610  0.1915
   75SLPC  H14X 6784   5.237   4.392   4.856  1.5976  0.7620  1.5381
   75SLPC  H14Y 6785   5.260   4.217   4.830 -2.5961  0.4855 -0.2168
   75SLPC  C315 6786   5.440   4.342   4.784  0.6142 -0.1529 -1.0309
   75SLPC  H15X 6787   5.522   4.271   4.808  1.2050  0.2521 -1.7972
   75SLPC  H15Y 6788   5.476   4.446   4.799 -0.3173  0.4744 -2.8923
   75SLPC  C316 6789   5.397   4.333   4.640  0.5269 -0.0506  0.3573
   75SLPC  H16X 6790   5.305   4.394   4.629  0.4122 -0.6297 -2.7926
   75SLPC  H16Y 6791   5.359   4.233   4.608  0.9887 -0.5051  1.1960
   75SLPC  C317 6792   5.497   4.377   4.531 -0.1219 -0.0151  0.2761
   75SLPC  H17X 6793   5.526   4.483   4.552  3.3581 -0.8333  0.1536
   75SLPC  H17Y 6794   5.452   4.367   4.430 -0.9702  0.6256  0.5734
   75SLPC  C318 6795   5.632   4.296   4.532  0.6172  0.2655 -1.0241
   75SLPC  H18X 6796   5.673   4.287   4.635  0.1088 -0.3201 -0.8658
   75SLPC  H18Y 6797   5.701   4.345   4.460  0.1046  0.3222 -1.4822
   75SLPC  H18Z 6798   5.612   4.193   4.495  2.5564  0.2420 -2.1420
   76SLPC     N 6799   2.234   5.031   6.153  0.7519 -0.5580 -1.3376
   76SLPC   C13 6800   2.250   5.121   6.038 -0.0521 -0.5095  0.3392
   76SLPC  H13A 6801   2.330   5.194   6.045  0.7617 -1.3578  0.1764
   76SLPC  H13B 6802   2.269   5.060   5.950 -2.5917 -0.6221 -0.1833
   76SLPC  H13C 6803   2.167   5.185   6.016  2.0505  1.5986 -2.2480
   76SLPC   C14 6804   2.197   5.132   6.264  0.2108  0.8761  0.5481
   76SLPC  H14A 6805   2.274   5.207   6.273  0.9004  0.3504 -0.8028
   76SLPC  H14B 6806   2.105   5.175   6.227 -0.3037 -1.0615 -0.5819
   76SLPC  H14C 6807   2.193   5.082   6.360  0.2243  1.4677  0.8609
   76SLPC   C15 6808   2.370   4.973   6.197  0.1334 -0.9089 -0.1425
   76SLPC  H15A 6809   2.444   5.046   6.226 -0.7512 -0.1700  0.3148
   76SLPC  H15B 6810   2.355   4.906   6.280 -1.5244 -0.3900  0.0055
   76SLPC  H15C 6811   2.407   4.921   6.109 -1.2224 -2.0767 -0.0718
   76SLPC   C12 6812   2.120   4.931   6.129 -0.3571 -0.1099 -0.0425
   76SLPC  H12A 6813   2.151   4.859   6.055 -0.8397 -1.8065  1.3164
   76SLPC  H12B 6814   2.034   4.990   6.100  1.3945  1.9139 -1.4016
   76SLPC   C11 6815   2.087   4.835   6.242  0.0592  0.0893  0.1164
   76SLPC  H11A 6816   2.003   4.769   6.210  0.4171 -1.1258  1.6104
   76SLPC  H11B 6817   2.061   4.884   6.338  1.9145 -1.4137  1.4453
   76SLPC     P 6818   2.225   4.622   6.210  0.2997  0.7510 -0.5182
   76SLPC   O13 6819   2.364   4.583   6.222  0.2532  0.2819 -0.5957
   76SLPC   O14 6820   2.124   4.527   6.268 -0.3166  0.9590 -0.1329
   76SLPC   O12 6821   2.206   4.760   6.273 -0.8246 -0.0997  0.6468
   76SLPC   O11 6822   2.186   4.648   6.055  0.1395 -0.0650 -0.6929
   76SLPC    C1 6823   2.257   4.572   5.962  0.1672 -0.1802 -0.5005
   76SLPC    HA 6824   2.368   4.582   5.973  0.2719 -1.4331 -0.3038
   76SLPC    HB 6825   2.231   4.464   5.967  0.5421 -0.2494  0.1729
   76SLPC    C2 6826   2.233   4.616   5.816  0.3379  0.2125 -0.3369
   76SLPC    HS 6827   2.128   4.652   5.810  0.0620 -0.7558 -1.8372
   76SLPC   O21 6828   2.259   4.509   5.725 -0.0476  0.3204 -0.0582
   76SLPC   C21 6829   2.158   4.435   5.693  0.0890 -0.2689 -0.1052
   76SLPC   O22 6830   2.047   4.453   5.738  0.5507 -0.0029  0.3933
   76SLPC   C22 6831   2.181   4.321   5.593  0.5444 -0.0177  0.2580
   76SLPC   H2R 6832   2.184   4.228   5.654  0.1269 -0.9637 -1.1388
   76SLPC   H2S 6833   2.085   4.297   5.542  0.2493 -0.1017  0.8428
   76SLPC    C3 6834   2.331   4.727   5.774  0.0634  0.1969  0.3226
   76SLPC    HX 6835   2.424   4.677   5.739 -1.2511 -0.6214 -2.2851
   76SLPC    HY 6836   2.350   4.793   5.861  1.7818 -1.5103  1.3215
   76SLPC   O31 6837   2.274   4.804   5.664 -0.1950 -0.2571  0.3699
   76SLPC   C31 6838   2.288   4.937   5.670  0.6330 -0.0267 -0.0484
   76SLPC   O32 6839   2.345   4.997   5.760  0.0315 -0.6935  0.0443
   76SLPC   C32 6840   2.247   5.001   5.535  0.0123  0.5186 -0.0029
   76SLPC   H2X 6841   2.302   5.097   5.528 -0.7905  0.9937  0.0513
   76SLPC   H2Y 6842   2.137   5.015   5.544 -0.0254  0.1583  0.1124
   76SLPC   C23 6843   2.300   4.350   5.501 -0.2150 -0.0777  0.4008
   76SLPC   H3R 6844   2.310   4.266   5.430 -0.6795  2.2136 -2.5616
   76SLPC   H3S 6845   2.391   4.361   5.564 -0.1882  1.1126  0.1823
   76SLPC   C24 6846   2.286   4.480   5.422  0.3054 -0.1655 -0.4319
   76SLPC   H4R 6847   2.294   4.571   5.486 -3.5668  0.2617 -0.3542
   76SLPC   H4S 6848   2.187   4.475   5.372  0.2645  0.6226 -0.4433
   76SLPC   C25 6849   2.380   4.499   5.304  0.1304  0.1415 -0.2002
   76SLPC   H5R 6850   2.397   4.404   5.250  1.5542  1.2446 -1.7947
   76SLPC   H5S 6851   2.480   4.528   5.343 -0.4072  0.3078  1.1068
   76SLPC   C26 6852   2.331   4.608   5.202 -0.5275  0.6317  0.2678
   76SLPC   H6R 6853   2.419   4.664   5.162 -0.4772  0.5156  0.2154
   76SLPC   H6S 6854   2.262   4.674   5.259  1.4239  2.6733  0.4110
   76SLPC   C27 6855   2.270   4.544   5.075  0.7936 -0.7760 -0.4618
   76SLPC   H7R 6856   2.176   4.492   5.101  0.2454 -0.5915 -1.9835
   76SLPC   H7S 6857   2.341   4.472   5.030  1.9763 -1.0493  1.6950
   76SLPC   C28 6858   2.242   4.656   4.971  0.2676 -0.2037  0.9173
   76SLPC   H8R 6859   2.207   4.745   5.026 -1.5475  0.0633 -0.5464
   76SLPC   H8S 6860   2.157   4.624   4.906 -1.5525  2.7093  1.6981
   76SLPC   C29 6861   2.362   4.697   4.887  0.3707  0.3262  0.0051
   76SLPC   H9R 6862   2.435   4.763   4.936 -0.1525  0.1544  1.0429
   76SLPC  C210 6863   2.386   4.680   4.751 -0.1468  0.7891 -0.2785
   76SLPC  H10R 6864   2.479   4.713   4.703  0.7292 -2.6219 -1.1890
   76SLPC  C211 6865   2.286   4.625   4.650  0.7493 -0.0822 -0.4508
   76SLPC  H11R 6866   2.200   4.576   4.701  0.3284 -1.0039 -2.0089
   76SLPC  H11S 6867   2.326   4.544   4.586 -1.9851 -2.5432  0.7091
   76SLPC  C212 6868   2.242   4.743   4.558  0.4952 -1.0784  0.2626
   76SLPC  H12R 6869   2.296   4.839   4.554 -0.2327 -0.6477  0.4264
   76SLPC  C213 6870   2.126   4.754   4.482  0.7329 -0.8738  0.4061
   76SLPC  H13R 6871   2.117   4.842   4.417  1.5863 -0.6659  0.5538
   76SLPC  C214 6872   2.011   4.657   4.468 -0.0398 -0.0555  0.2719
   76SLPC  H14R 6873   1.954   4.665   4.563 -1.6420 -0.8429 -0.5899
   76SLPC  H14S 6874   2.053   4.554   4.469 -0.9891 -0.4709 -0.8023
   76SLPC  C215 6875   1.925   4.666   4.349  0.1836  0.2227  0.3581
   76SLPC  H15R 6876   1.835   4.601   4.357  1.4919 -1.6588  0.5237
   76SLPC  H15S 6877   1.978   4.634   4.257  0.4527 -0.8989  0.8833
   76SLPC  C216 6878   1.870   4.807   4.310  0.1340  0.5002 -0.0629
   76SLPC  H16R 6879   1.951   4.883   4.306 -0.6647  1.3979  0.4024
   76SLPC  H16S 6880   1.807   4.846   4.393  2.5633  0.6278  1.8656
   76SLPC  C217 6881   1.798   4.797   4.178 -0.5247 -0.3891 -0.0568
   76SLPC  H17R 6882   1.722   4.717   4.189  0.1416 -0.8881  1.2778
   76SLPC  H17S 6883   1.870   4.775   4.097 -1.8656 -0.0656 -1.3805
   76SLPC  C218 6884   1.734   4.926   4.139 -0.0557 -0.4691  0.3789
   76SLPC  H18R 6885   1.805   5.010   4.141 -1.1883  0.5595  3.2512
   76SLPC  H18S 6886   1.652   4.956   4.209  1.0718  3.1090  0.3641
   76SLPC  H18T 6887   1.688   4.930   4.038 -1.8798  0.6463  1.1839
   76SLPC   C33 6888   2.279   4.907   5.420  0.8800 -0.3553 -0.5121
   76SLPC   H3X 6889   2.196   4.833   5.420  0.3882  0.1924 -0.6091
   76SLPC   H3Y 6890   2.374   4.853   5.441  0.0835 -0.8242  2.3006
   76SLPC   C34 6891   2.293   4.977   5.286 -0.4704  0.6777 -0.6683
   76SLPC   H4X 6892   2.300   4.891   5.216  0.6694 -0.4664  0.7734
   76SLPC   H4Y 6893   2.383   5.042   5.284 -0.0348  0.2131  1.4694
   76SLPC   C35 6894   2.178   5.081   5.260 -0.2613  0.2042 -0.6947
   76SLPC   H5X 6895   2.226   5.181   5.252 -0.2154  0.3668  1.1441
   76SLPC   H5Y 6896   2.093   5.077   5.331 -1.9582  2.2889 -2.4455
   76SLPC   C36 6897   2.133   5.070   5.104 -0.6685 -0.6739  0.3932
   76SLPC   H6X 6898   2.056   5.149   5.088 -0.5180 -0.6904 -0.4801
   76SLPC   H6Y 6899   2.067   4.983   5.085 -1.7943 -0.1277  1.6562
   76SLPC   C37 6900   2.248   5.094   5.010  0.0043 -0.0086  0.1598
   76SLPC   H7X 6901   2.286   4.991   4.993 -0.3503  0.0819 -1.2971
   76SLPC   H7Y 6902   2.324   5.160   5.058  1.5469 -2.4146  1.2138
   76SLPC   C38 6903   2.205   5.151   4.878 -0.2411 -0.0616 -0.1630
   76SLPC   H8X 6904   2.300   5.166   4.821 -0.3882  2.0475  0.0794
   76SLPC   H8Y 6905   2.159   5.250   4.895 -0.9590 -0.7914  2.6080
   76SLPC   C39 6906   2.096   5.073   4.807 -0.1065  1.2753  0.3028
   76SLPC   H9X 6907   2.010   5.064   4.876  0.7576 -0.2656  1.2439
   76SLPC   H9Y 6908   2.140   4.973   4.783 -0.4739  1.4037 -1.0001
   76SLPC  C310 6909   2.045   5.141   4.678 -0.3574  0.4559 -0.0883
   76SLPC  H10X 6910   2.127   5.176   4.612 -0.7354  2.6772  0.5622
   76SLPC  H10Y 6911   1.990   5.232   4.710  0.3690  1.2395 -0.9906
   76SLPC  C311 6912   1.947   5.063   4.592  0.2848  0.1731 -0.5794
   76SLPC  H11X 6913   1.889   5.007   4.668  0.7743 -0.1631 -0.4432
   76SLPC  H11Y 6914   2.007   4.993   4.529  2.3229  2.8906 -1.8358
   76SLPC  C312 6915   1.838   5.150   4.528  0.4580  0.3417 -0.4188
   76SLPC  H12X 6916   1.772   5.180   4.613  0.3683  0.9191 -0.6827
   76SLPC  H12Y 6917   1.767   5.092   4.465  1.4320 -2.3337  0.8386
   76SLPC  C313 6918   1.888   5.273   4.450 -0.4522  0.3832  0.0358
   76SLPC  H13X 6919   1.951   5.343   4.510 -1.5008  1.1720  0.2576
   76SLPC  H13Y 6920   1.800   5.334   4.418 -1.0625 -0.2997  0.3749
   76SLPC  C314 6921   1.960   5.228   4.321  0.1445 -0.0567  0.1972
   76SLPC  H14X 6922   1.882   5.189   4.253 -0.5032  1.3518  0.1007
   76SLPC  H14Y 6923   2.036   5.149   4.340  1.3077  0.6482 -1.3382
   76SLPC  C315 6924   2.033   5.346   4.240  0.0159  0.5959 -0.3243
   76SLPC  H15X 6925   1.949   5.415   4.220 -1.1772 -0.2392  1.5194
   76SLPC  H15Y 6926   2.068   5.308   4.141 -1.4251 -1.5311 -0.0907
   76SLPC  C316 6927   2.150   5.416   4.317  0.8251  0.4857  0.4678
   76SLPC  H16X 6928   2.112   5.436   4.419 -2.2875 -3.0027  0.1981
   76SLPC  H16Y 6929   2.178   5.513   4.270  1.0032  0.4882  0.5748
   76SLPC  C317 6930   2.266   5.330   4.336 -0.2304 -0.2363 -0.3741
   76SLPC  H17X 6931   2.323   5.322   4.241  1.3725  0.2339  0.5176
   76SLPC  H17Y 6932   2.233   5.226   4.361 -1.0364 -0.3185 -1.6875
   76SLPC  C318 6933   2.360   5.370   4.456 -0.8187 -0.2411  0.1666
   76SLPC  H18X 6934   2.455   5.312   4.460 -1.7012 -1.7945 -0.5324
   76SLPC  H18Y 6935   2.309   5.358   4.554  1.0319 -1.0934  1.0872
   76SLPC  H18Z 6936   2.387   5.477   4.443 -1.1242 -0.0644  0.9399
   77SLPC     N 6937   1.502   4.721   6.266  0.9173  0.2191  0.3077
   77SLPC   C13 6938   1.652   4.689   6.263 -0.0802 -0.1286 -0.1410
   77SLPC  H13A 6939   1.670   4.621   6.182 -2.9510  0.4639 -1.4213
   77SLPC  H13B 6940   1.710   4.780   6.254 -2.3597  1.1701 -3.5076
   77SLPC  H13C 6941   1.673   4.644   6.359 -0.7916 -0.0248  0.0694
   77SLPC   C14 6942   1.467   4.774   6.131 -0.3953 -0.3935  0.4713
   77SLPC  H14A 6943   1.545   4.841   6.098  0.7435 -1.0851  1.6386
   77SLPC  H14B 6944   1.457   4.690   6.064  1.1610 -1.2152  1.2260
   77SLPC  H14C 6945   1.377   4.834   6.126 -0.2472 -0.0357  1.6373
   77SLPC   C15 6946   1.477   4.831   6.366  0.1884  0.3514  0.4411
   77SLPC  H15A 6947   1.505   4.785   6.460 -0.9085 -2.5061 -0.5168
   77SLPC  H15B 6948   1.545   4.909   6.335 -0.1604  1.0756  1.4514
   77SLPC  H15C 6949   1.378   4.871   6.376  0.0522  0.2169 -0.3089
   77SLPC   C12 6950   1.406   4.607   6.306 -0.4143  0.0029  0.1575
   77SLPC  H12A 6951   1.305   4.644   6.320 -0.6574  0.6611 -2.7049
   77SLPC  H12B 6952   1.433   4.582   6.407  0.0035 -0.3264 -0.0334
   77SLPC   C11 6953   1.394   4.483   6.220 -0.4225  0.6652 -0.2300
   77SLPC  H11A 6954   1.342   4.509   6.125  0.0681  0.7256 -0.4865
   77SLPC  H11B 6955   1.318   4.415   6.263  0.3359  0.9066  1.5986
   77SLPC     P 6956   1.591   4.333   6.272  0.1135  0.0159  0.1991
   77SLPC   O13 6957   1.725   4.387   6.303 -0.2897 -0.3268 -0.2505
   77SLPC   O14 6958   1.505   4.289   6.381  0.5326 -0.6471  0.9141
   77SLPC   O12 6959   1.517   4.434   6.173  0.1589  0.7925  0.4901
   77SLPC   O11 6960   1.605   4.208   6.179  0.7945 -0.2200  0.0224
   77SLPC    C1 6961   1.660   4.207   6.043  0.5712  0.2445 -0.4314
   77SLPC    HA 6962   1.744   4.280   6.035 -0.4509  1.4761 -0.1382
   77SLPC    HB 6963   1.691   4.102   6.021 -0.3256 -0.6761  2.3107
   77SLPC    C2 6964   1.549   4.237   5.933 -0.4351 -0.2694  0.6731
   77SLPC    HS 6965   1.522   4.343   5.956  0.9797  0.1121  0.6505
   77SLPC   O21 6966   1.450   4.145   5.945 -0.0694  0.0509 -0.1622
   77SLPC   C21 6967   1.321   4.175   5.929 -0.7320  0.0880 -0.1996
   77SLPC   O22 6968   1.281   4.284   5.897 -0.0866 -0.0113 -0.3784
   77SLPC   C22 6969   1.241   4.042   5.943 -0.2367  0.1387 -0.5991
   77SLPC   H2R 6970   1.315   3.968   5.980  0.7956 -0.4293 -3.5145
   77SLPC   H2S 6971   1.168   4.055   6.026 -0.5658 -0.6873 -0.7509
   77SLPC    C3 6972   1.618   4.231   5.796 -0.1047 -1.1502 -0.5541
   77SLPC    HX 6973   1.665   4.130   5.797  0.8946 -0.7232 -1.7533
   77SLPC    HY 6974   1.699   4.307   5.805 -1.3210 -0.0738  2.9495
   77SLPC   O31 6975   1.537   4.248   5.679 -0.4291 -0.3972 -0.3022
   77SLPC   C31 6976   1.523   4.370   5.629 -0.0733  0.6915 -0.2796
   77SLPC   O32 6977   1.589   4.468   5.662  0.5801 -0.1602  0.0512
   77SLPC   C32 6978   1.403   4.376   5.533  0.4645  0.1431  0.2862
   77SLPC   H2X 6979   1.312   4.356   5.593 -0.2648  1.3784 -0.3654
   77SLPC   H2Y 6980   1.407   4.297   5.455 -0.1396  0.9513 -0.6005
   77SLPC   C23 6981   1.169   3.995   5.814 -0.4577 -0.2837  0.1284
   77SLPC   H3R 6982   1.144   4.083   5.751 -1.0689 -0.3337  0.3013
   77SLPC   H3S 6983   1.067   3.960   5.836 -1.9863  2.4886 -1.8754
   77SLPC   C24 6984   1.250   3.894   5.730  0.7545 -0.0389 -0.0503
   77SLPC   H4R 6985   1.204   3.877   5.631  0.1303  0.5936  0.1261
   77SLPC   H4S 6986   1.263   3.796   5.780  1.3132  0.7467  1.4146
   77SLPC   C25 6987   1.395   3.945   5.699 -0.0603 -0.0652 -0.3468
   77SLPC   H5R 6988   1.451   3.963   5.793 -1.9135 -0.6727  0.9508
   77SLPC   H5S 6989   1.387   4.038   5.639 -0.4993  0.1559  0.0492
   77SLPC   C26 6990   1.463   3.846   5.602  0.0117  0.0266  0.0859
   77SLPC   H6R 6991   1.391   3.811   5.525  0.4461  0.7607 -0.6778
   77SLPC   H6S 6992   1.498   3.759   5.662 -0.2197  1.5432  2.5341
   77SLPC   C27 6993   1.580   3.918   5.528  0.7733 -0.3959  0.1078
   77SLPC   H7R 6994   1.611   4.007   5.587  0.9178 -0.7078  0.5042
   77SLPC   H7S 6995   1.544   3.945   5.426  0.1130 -0.1285  0.4057
   77SLPC   C28 6996   1.708   3.834   5.525 -0.3177  0.2085 -0.1084
   77SLPC   H8R 6997   1.683   3.737   5.479  1.8965 -0.0544 -0.8753
   77SLPC   H8S 6998   1.731   3.806   5.630 -0.2481  1.4919  0.2441
   77SLPC   C29 6999   1.830   3.905   5.468 -0.1906 -0.3464 -0.7745
   77SLPC   H9R 7000   1.848   4.005   5.512  0.2896 -1.9932  3.1363
   77SLPC  C210 7001   1.910   3.859   5.373  0.6393 -0.8994 -0.8993
   77SLPC  H10R 7002   1.998   3.919   5.346  0.4755 -0.3691 -0.2877
   77SLPC  C211 7003   1.897   3.725   5.312 -0.3629 -0.6072  0.3155
   77SLPC  H11R 7004   1.901   3.741   5.202 -2.1529 -1.8281  0.0367
   77SLPC  H11S 7005   1.794   3.692   5.335 -0.4674 -1.2757 -1.0196
   77SLPC  C212 7006   2.000   3.633   5.360  0.5722  0.7316  0.3149
   77SLPC  H12R 7007   1.979   3.588   5.458  0.4309 -0.9601 -0.4544
   77SLPC  C213 7008   2.114   3.592   5.299 -0.1835 -0.3329  0.7746
   77SLPC  H13R 7009   2.167   3.500   5.325 -0.6163 -1.3944 -1.7518
   77SLPC  C214 7010   2.162   3.653   5.171  0.4652 -0.0996 -0.0716
   77SLPC  H14R 7011   2.272   3.637   5.170  0.7776  0.6840  4.2508
   77SLPC  H14S 7012   2.141   3.761   5.164  0.0805 -0.1440  0.3664
   77SLPC  C215 7013   2.119   3.587   5.043  0.0725  0.4995  0.7997
   77SLPC  H15R 7014   2.008   3.592   5.037 -0.0079  1.7713  2.6247
   77SLPC  H15S 7015   2.158   3.484   5.057  0.5856  0.7286  1.0793
   77SLPC  C216 7016   2.189   3.637   4.910 -0.6740 -0.3781 -0.3442
   77SLPC  H16R 7017   2.158   3.568   4.829 -0.8374 -1.1773  0.3807
   77SLPC  H16S 7018   2.290   3.596   4.930 -0.5327  0.0161 -0.2286
   77SLPC  C217 7019   2.190   3.788   4.880 -0.8875  0.1672 -0.3508
   77SLPC  H17R 7020   2.256   3.827   4.960  0.3625 -0.2199 -1.1666
   77SLPC  H17S 7021   2.090   3.827   4.907 -0.8940 -0.6899  0.9517
   77SLPC  C218 7022   2.228   3.833   4.742  0.6141  0.1599  1.0881
   77SLPC  H18R 7023   2.322   3.791   4.699 -0.6338 -0.7756 -0.8823
   77SLPC  H18S 7024   2.252   3.941   4.748  0.8116  0.0222  3.8931
   77SLPC  H18T 7025   2.145   3.815   4.671  0.7048  1.1796  0.7062
   77SLPC   C33 7026   1.395   4.514   5.467  0.5616 -0.3021  0.1344
   77SLPC   H3X 7027   1.481   4.569   5.424 -0.1472  1.6131  1.0158
   77SLPC   H3Y 7028   1.357   4.578   5.550 -0.9237  1.3413 -1.6966
   77SLPC   C34 7029   1.284   4.520   5.360 -0.1110  0.4340  0.4084
   77SLPC   H4X 7030   1.231   4.423   5.360  1.1632 -0.2883 -0.4263
   77SLPC   H4Y 7031   1.318   4.524   5.254 -1.1965 -0.5984 -0.0057
   77SLPC   C35 7032   1.174   4.624   5.372 -0.5653 -0.3758 -0.8184
   77SLPC   H5X 7033   1.218   4.721   5.340  0.4124 -1.3621 -2.6250
   77SLPC   H5Y 7034   1.150   4.645   5.479 -0.4438  2.0648 -1.2207
   77SLPC   C36 7035   1.052   4.601   5.285  0.0586  0.0500  0.4127
   77SLPC   H6X 7036   0.999   4.697   5.301 -1.6872 -0.5729 -1.2174
   77SLPC   H6Y 7037   0.983   4.520   5.316  0.3512 -0.5632 -0.4794
   77SLPC   C37 7038   1.085   4.582   5.141  0.2985  0.2068 -0.1256
   77SLPC   H7X 7039   1.102   4.473   5.131 -0.7678  0.1645 -1.6886
   77SLPC   H7Y 7040   1.178   4.629   5.100 -0.7360  1.6479 -0.9140
   77SLPC   C38 7041   0.978   4.631   5.041  0.1013  0.5171  0.1119
   77SLPC   H8X 7042   0.964   4.740   5.062 -0.5043  0.1051  2.0651
   77SLPC   H8Y 7043   0.884   4.579   5.069  0.7234  1.0706  3.8087
   77SLPC   C39 7044   1.022   4.599   4.900  0.6030  0.3606 -0.1382
   77SLPC   H9X 7045   0.940   4.598   4.824 -0.8196 -1.7945  1.3125
   77SLPC   H9Y 7046   1.062   4.496   4.889 -0.8003 -0.3817  1.2920
   77SLPC  C310 7047   1.129   4.689   4.835  0.9886 -0.2668  0.8454
   77SLPC  H10X 7048   1.223   4.669   4.891  2.7392 -0.7322 -2.0375
   77SLPC  H10Y 7049   1.111   4.797   4.850  0.2050 -0.5336  1.9785
   77SLPC  C311 7050   1.135   4.668   4.679  0.2496 -0.3485  0.0407
   77SLPC  H11X 7051   1.032   4.696   4.646  0.0645 -0.1657  0.7663
   77SLPC  H11Y 7052   1.140   4.558   4.661 -1.1005 -0.6452  1.2513
   77SLPC  C312 7053   1.248   4.746   4.601 -0.0182 -0.6802 -0.5605
   77SLPC  H12X 7054   1.252   4.854   4.626  4.9212 -1.1238  1.7853
   77SLPC  H12Y 7055   1.236   4.734   4.491  3.5654  0.9281 -1.2510
   77SLPC  C313 7056   1.385   4.690   4.633  0.1653 -0.0464  0.7407
   77SLPC  H13X 7057   1.398   4.581   4.616 -1.0664 -0.1120  0.1326
   77SLPC  H13Y 7058   1.398   4.709   4.742 -2.0663  2.1508  0.6979
   77SLPC  C314 7059   1.517   4.758   4.576  0.4853 -0.7676 -0.2717
   77SLPC  H14X 7060   1.509   4.869   4.576  0.2361 -0.7801 -1.2858
   77SLPC  H14Y 7061   1.537   4.732   4.470  0.6611  1.1467 -0.7415
   77SLPC  C315 7062   1.648   4.714   4.648  0.3762 -0.9624  0.6102
   77SLPC  H15X 7063   1.732   4.772   4.604 -0.4448  0.8913  1.4015
   77SLPC  H15Y 7064   1.653   4.607   4.618  0.8897 -0.7435 -0.1148
   77SLPC  C316 7065   1.647   4.737   4.799 -0.1424  0.1498  0.1091
   77SLPC  H16X 7066   1.564   4.680   4.846 -0.2826 -0.0446 -0.3592
   77SLPC  H16Y 7067   1.630   4.843   4.825  1.7727  0.0844  1.8976
   77SLPC  C317 7068   1.779   4.708   4.867 -0.3630 -0.2757  0.2784
   77SLPC  H17X 7069   1.854   4.788   4.849  0.4052 -0.9360  0.4508
   77SLPC  H17Y 7070   1.817   4.614   4.821 -1.3809 -0.2158 -0.7249
   77SLPC  C318 7071   1.776   4.699   5.016  0.2034  0.1495  0.4581
   77SLPC  H18X 7072   1.719   4.611   5.052  1.2164 -0.0145  1.7566
   77SLPC  H18Y 7073   1.725   4.783   5.067  0.6443 -0.1350  1.3949
   77SLPC  H18Z 7074   1.882   4.698   5.049  1.1293 -2.6336 -2.1716
   78SLPC     N 7075   3.443   1.498   6.783  0.2919 -0.0431 -0.0975
   78SLPC   C13 7076   3.485   1.435   6.650 -0.5883  0.0177 -0.3737
   78SLPC  H13A 7077   3.522   1.333   6.649 -2.1452 -0.6981  2.6194
   78SLPC  H13B 7078   3.405   1.439   6.578  1.0134 -0.3001 -2.2543
   78SLPC  H13C 7079   3.550   1.506   6.601  0.9544 -2.2822 -1.8629
   78SLPC   C14 7080   3.561   1.506   6.876 -0.2971 -0.0332  0.1371
   78SLPC  H14A 7081   3.597   1.406   6.895 -1.1450 -0.2257  0.7866
   78SLPC  H14B 7082   3.636   1.571   6.833 -2.8948  1.9749 -1.7098
   78SLPC  H14C 7083   3.531   1.536   6.975  0.8447 -0.9472  0.7789
   78SLPC   C15 7084   3.340   1.413   6.849 -0.1297  0.2403 -0.1756
   78SLPC  H15A 7085   3.377   1.314   6.872 -0.7776 -0.0336 -0.2973
   78SLPC  H15B 7086   3.318   1.463   6.942  2.5230 -1.2498  1.3678
   78SLPC  H15C 7087   3.257   1.384   6.785  0.4008 -3.1709  0.4935
   78SLPC   C12 7088   3.375   1.638   6.757 -0.9810  0.8706 -0.0289
   78SLPC  H12A 7089   3.329   1.659   6.853  1.4220 -0.0319  1.4118
   78SLPC  H12B 7090   3.303   1.638   6.676  0.8871  2.5540 -1.8088
   78SLPC   C11 7091   3.462   1.758   6.727 -0.1005  0.1728 -0.3301
   78SLPC  H11A 7092   3.512   1.742   6.629 -1.2508  1.9580 -1.2503
   78SLPC  H11B 7093   3.542   1.758   6.804 -1.0360  0.1404  0.6680
   78SLPC     P 7094   3.252   1.892   6.636  0.3624 -0.0763  0.3537
   78SLPC   O13 7095   3.144   1.800   6.684  0.1144 -0.1006 -0.5230
   78SLPC   O14 7096   3.224   2.036   6.624 -0.5541 -0.3937 -0.6123
   78SLPC   O12 7097   3.382   1.876   6.730 -0.5442 -0.3552 -0.2159
   78SLPC   O11 7098   3.310   1.837   6.494 -0.3874 -0.2000  0.2718
   78SLPC    C1 7099   3.405   1.921   6.418 -0.2262  0.2698 -0.3981
   78SLPC    HA 7100   3.488   1.968   6.475  0.5860  0.7703 -1.9192
   78SLPC    HB 7101   3.461   1.845   6.359 -1.1792 -0.6235 -0.1783
   78SLPC    C2 7102   3.329   2.016   6.320 -0.7402  0.1764 -0.1825
   78SLPC    HS 7103   3.275   2.077   6.394 -0.5475 -0.3976  0.4438
   78SLPC   O21 7104   3.239   1.938   6.238 -1.0989 -0.1167  0.2374
   78SLPC   C21 7105   3.130   2.000   6.194  0.1120  0.2012 -0.6203
   78SLPC   O22 7106   3.090   2.106   6.245  0.0257  0.0698  0.1358
   78SLPC   C22 7107   3.061   1.918   6.084 -1.1597 -0.3639  0.2639
   78SLPC   H2R 7108   3.045   1.826   6.144 -0.1926 -0.0775  0.9989
   78SLPC   H2S 7109   2.963   1.961   6.056 -0.4577  1.3853  0.2897
   78SLPC    C3 7110   3.428   2.103   6.223 -0.1167  0.8398  0.1184
   78SLPC    HX 7111   3.464   2.024   6.154  0.2107 -1.3491  2.6479
   78SLPC    HY 7112   3.515   2.139   6.282  0.5851  1.3375 -1.1898
   78SLPC   O31 7113   3.362   2.210   6.155  0.2286 -0.4238  0.2767
   78SLPC   C31 7114   3.372   2.330   6.205 -0.5272  0.3333 -0.1483
   78SLPC   O32 7115   3.422   2.361   6.310  0.3199  0.4544  0.3864
   78SLPC   C32 7116   3.302   2.426   6.113  0.2732  0.7255 -0.1046
   78SLPC   H2X 7117   3.325   2.522   6.163 -1.7591  0.4731  1.4135
   78SLPC   H2Y 7118   3.195   2.397   6.118  0.2679  0.4927 -1.2345
   78SLPC   C23 7119   3.162   1.870   5.972  0.3674 -0.3490  0.2240
   78SLPC   H3R 7120   3.137   1.764   5.950 -1.4586 -0.5733  2.9095
   78SLPC   H3S 7121   3.267   1.872   6.011 -0.5150  0.1935  2.7726
   78SLPC   C24 7122   3.170   1.957   5.845  0.4215  0.8309 -0.3686
   78SLPC   H4R 7123   3.220   2.052   5.872  0.4747 -0.1363  3.5315
   78SLPC   H4S 7124   3.069   1.984   5.807  0.3427  1.7032  0.4255
   78SLPC   C25 7125   3.237   1.886   5.722  1.0446 -0.5232 -0.0660
   78SLPC   H5R 7126   3.163   1.849   5.649  0.2381 -0.1206  0.5343
   78SLPC   H5S 7127   3.289   1.792   5.750  2.0888 -0.2802 -1.0997
   78SLPC   C26 7128   3.331   1.976   5.644 -0.6173 -0.1214  0.4452
   78SLPC   H6R 7129   3.408   2.020   5.711 -0.6305  2.2651 -0.9673
   78SLPC   H6S 7130   3.274   2.063   5.604 -0.1194  0.2885  0.6202
   78SLPC   C27 7131   3.406   1.899   5.525 -0.3653 -0.2152 -0.0337
   78SLPC   H7R 7132   3.322   1.874   5.457  0.0965 -1.3049 -0.2122
   78SLPC   H7S 7133   3.454   1.810   5.570 -0.5706  0.0815  0.7949
   78SLPC   C28 7134   3.515   1.986   5.456 -0.0833 -1.0184  0.1337
   78SLPC   H8R 7135   3.575   2.036   5.534 -1.6697  0.4429  0.4775
   78SLPC   H8S 7136   3.456   2.065   5.405 -1.0159 -1.6325  0.2339
   78SLPC   C29 7137   3.616   1.919   5.363 -0.3208  0.2505  0.4575
   78SLPC   H9R 7138   3.695   1.864   5.417 -0.1611  0.1613  0.1336
   78SLPC  C210 7139   3.607   1.914   5.231 -0.4285  0.1834 -0.6621
   78SLPC  H10R 7140   3.690   1.860   5.184  0.3251  0.4606  0.3112
   78SLPC  C211 7141   3.504   1.962   5.134 -0.2702  0.0985 -0.2861
   78SLPC  H11R 7142   3.426   2.016   5.191 -2.3245  1.0845 -3.7441
   78SLPC  H11S 7143   3.448   1.875   5.094 -2.1344  1.1350 -0.0226
   78SLPC  C212 7144   3.570   2.047   5.029 -0.0539  0.1697  0.6278
   78SLPC  H12R 7145   3.679   2.038   5.017 -0.0939 -0.9674  0.9719
   78SLPC  C213 7146   3.511   2.145   4.954  0.4369 -0.6844 -0.2922
   78SLPC  H13R 7147   3.562   2.206   4.878 -1.2545 -0.3301 -1.1903
   78SLPC  C214 7148   3.361   2.165   4.952  0.3553 -1.2701  0.5110
   78SLPC  H14R 7149   3.334   2.240   5.029  3.0289 -0.2575  0.5722
   78SLPC  H14S 7150   3.297   2.076   4.972  0.6199 -0.9103  3.3901
   78SLPC  C215 7151   3.315   2.209   4.815  0.7615  0.8185 -0.5217
   78SLPC  H15R 7152   3.338   2.128   4.742 -1.1997 -0.8597  0.6544
   78SLPC  H15S 7153   3.365   2.305   4.787 -1.8042  2.4973  0.3018
   78SLPC  C216 7154   3.164   2.225   4.804  0.0592 -0.2517  0.1206
   78SLPC  H16R 7155   3.136   2.316   4.862 -0.4426  0.0559 -0.5839
   78SLPC  H16S 7156   3.109   2.140   4.849  0.2828 -0.1401  0.6099
   78SLPC  C217 7157   3.126   2.255   4.657  0.0118 -0.8060  0.0215
   78SLPC  H17R 7158   3.160   2.163   4.605 -1.2061 -0.1905 -1.9940
   78SLPC  H17S 7159   3.190   2.337   4.618 -1.6337 -0.3998 -2.0201
   78SLPC  C218 7160   2.980   2.271   4.623  0.5580  0.3297  0.8932
   78SLPC  H18R 7161   2.943   2.363   4.675  2.6749  0.4895  2.1996
   78SLPC  H18S 7162   2.927   2.184   4.668  0.3140 -0.1747 -0.3286
   78SLPC  H18T 7163   2.964   2.276   4.513 -2.8566  2.3338  1.3253
   78SLPC   C33 7164   3.347   2.418   5.965  0.5631 -0.0983  0.4601
   78SLPC   H3X 7165   3.292   2.339   5.908  1.6410 -1.0481  0.7004
   78SLPC   H3Y 7166   3.453   2.403   5.935 -0.1769 -2.1160 -1.4177
   78SLPC   C34 7167   3.313   2.552   5.908  0.8100  0.4764  0.2557
   78SLPC   H4X 7168   3.391   2.627   5.934  1.5156  0.2199 -1.0104
   78SLPC   H4Y 7169   3.210   2.588   5.928  1.1831  2.2954 -0.7667
   78SLPC   C35 7170   3.328   2.559   5.750 -0.2298  0.0727 -0.0928
   78SLPC   H5X 7171   3.286   2.463   5.714 -1.9312  1.1983 -1.2785
   78SLPC   H5Y 7172   3.437   2.564   5.730 -0.1827 -0.1027  0.1241
   78SLPC   C36 7173   3.257   2.671   5.687  0.2195  0.8175  0.2717
   78SLPC   H6X 7174   3.296   2.759   5.744  0.4243  1.3151 -0.6238
   78SLPC   H6Y 7175   3.150   2.662   5.714  0.2973  0.4841  0.4745
   78SLPC   C37 7176   3.284   2.688   5.536  0.0784 -0.2449  0.3622
   78SLPC   H7X 7177   3.268   2.593   5.480 -3.7808 -0.8754  2.1663
   78SLPC   H7Y 7178   3.393   2.707   5.527  0.0622  2.1089  3.5273
   78SLPC   C38 7179   3.219   2.805   5.463 -0.2727  0.0930  0.3283
   78SLPC   H8X 7180   3.265   2.895   5.509  0.6842 -0.2788  0.1149
   78SLPC   H8Y 7181   3.109   2.810   5.481 -1.2157  1.3964 -4.4298
   78SLPC   C39 7182   3.234   2.790   5.309  0.2856 -0.4515  0.2053
   78SLPC   H9X 7183   3.243   2.681   5.291  0.8697 -0.3588 -0.1030
   78SLPC   H9Y 7184   3.332   2.827   5.271  0.4310  0.1864  1.1681
   78SLPC  C310 7185   3.120   2.870   5.238 -0.5029 -0.7075  0.4708
   78SLPC  H10X 7186   3.099   2.960   5.300 -0.5690 -0.5110  0.1604
   78SLPC  H10Y 7187   3.024   2.816   5.222 -0.5411 -0.6884  0.6299
   78SLPC  C311 7188   3.164   2.921   5.096 -0.6075  0.1359  0.8581
   78SLPC  H11X 7189   3.255   2.981   5.113  2.5467 -3.4058 -1.7839
   78SLPC  H11Y 7190   3.083   2.986   5.057 -0.1690  0.6065  0.7282
   78SLPC  C312 7191   3.204   2.814   4.993 -0.3181  0.1893 -0.1905
   78SLPC  H12X 7192   3.133   2.729   4.998 -0.2495  0.0764 -0.9983
   78SLPC  H12Y 7193   3.305   2.773   5.016 -0.0047  1.2025  0.3041
   78SLPC  C313 7194   3.202   2.875   4.858 -0.3399 -0.5699  0.1025
   78SLPC  H13X 7195   3.107   2.933   4.847  0.6110  0.6572 -2.3734
   78SLPC  H13Y 7196   3.195   2.790   4.788  1.7212 -1.6744  1.1530
   78SLPC  C314 7197   3.326   2.958   4.821  0.0847  0.1317 -0.6263
   78SLPC  H14X 7198   3.358   2.918   4.723 -1.7617 -1.0411 -0.7934
   78SLPC  H14Y 7199   3.399   2.941   4.903 -0.9443  0.0028  0.2924
   78SLPC  C315 7200   3.304   3.111   4.829  0.4740  0.2649 -0.9599
   78SLPC  H15X 7201   3.259   3.128   4.929 -1.9221  0.6804 -2.0365
   78SLPC  H15Y 7202   3.228   3.145   4.755  0.9513 -0.0246 -1.5926
   78SLPC  C316 7203   3.426   3.195   4.799 -0.1807  0.6396 -0.1877
   78SLPC  H16X 7204   3.450   3.156   4.697 -0.3175 -2.6427  0.9382
   78SLPC  H16Y 7205   3.519   3.183   4.859  1.9356  0.1107 -3.3167
   78SLPC  C317 7206   3.398   3.343   4.805  0.3282 -0.3799  0.3570
   78SLPC  H17X 7207   3.359   3.378   4.903  1.2066 -1.7480  1.2432
   78SLPC  H17Y 7208   3.308   3.354   4.741  0.3496 -0.1733  0.3629
   78SLPC  C318 7209   3.513   3.432   4.751  0.2821  0.1894  0.3412
   78SLPC  H18X 7210   3.539   3.402   4.648  0.8569  0.4290  0.4111
   78SLPC  H18Y 7211   3.603   3.423   4.816  0.3322  0.5881  0.3322
   78SLPC  H18Z 7212   3.481   3.539   4.750 -1.3455 -0.1917  2.8768
   79SLPC     N 7213   1.833   5.387   6.400  0.9163  0.2357 -0.1267
   79SLPC   C13 7214   1.841   5.349   6.539 -0.3767 -0.9032 -0.9797
   79SLPC  H13A 7215   1.932   5.384   6.586 -1.0180  0.7714 -0.9323
   79SLPC  H13B 7216   1.758   5.373   6.603 -1.2322 -1.4335 -1.8649
   79SLPC  H13C 7217   1.832   5.242   6.553 -1.9414 -0.6284  0.4209
   79SLPC   C14 7218   1.949   5.317   6.344  0.1860 -0.4105  0.0550
   79SLPC  H14A 7219   1.932   5.296   6.239 -2.4015  0.4272  0.2301
   79SLPC  H14B 7220   2.033   5.383   6.354 -1.1016  1.8826 -2.6876
   79SLPC  H14C 7221   1.954   5.225   6.401  1.2840 -1.3510 -1.4729
   79SLPC   C15 7222   1.857   5.537   6.370  0.7129  0.4249 -0.0267
   79SLPC  H15A 7223   1.947   5.575   6.417 -0.7333  0.5833  2.8801
   79SLPC  H15B 7224   1.854   5.563   6.266 -2.1811  0.7709  0.0504
   79SLPC  H15C 7225   1.784   5.599   6.421 -0.3742  0.8373 -1.9943
   79SLPC   C12 7226   1.702   5.359   6.338 -0.0030  0.6616 -0.1930
   79SLPC  H12A 7227   1.633   5.431   6.379 -0.4818 -0.2891  0.7156
   79SLPC  H12B 7228   1.675   5.263   6.381 -0.5361  0.2127 -1.5003
   79SLPC   C11 7229   1.683   5.350   6.184  0.4536  0.0144 -0.0056
   79SLPC  H11A 7230   1.732   5.445   6.156  2.3880 -0.8914  0.1436
   79SLPC  H11B 7231   1.574   5.339   6.167  0.3327  0.0230  0.7348
   79SLPC     P 7232   1.720   5.090   6.137 -0.2481 -0.0080  0.1225
   79SLPC   O13 7233   1.821   4.996   6.082  0.1330 -0.4584  0.0511
   79SLPC   O14 7234   1.661   5.065   6.268 -0.4321  0.8426 -0.1056
   79SLPC   O12 7235   1.764   5.243   6.128 -0.1439  0.3853 -0.3854
   79SLPC   O11 7236   1.603   5.081   6.044 -1.0326 -0.2032  0.0121
   79SLPC    C1 7237   1.606   5.125   5.906 -0.2834 -0.5245  0.3763
   79SLPC    HA 7238   1.650   5.227   5.905 -2.1748  0.3622 -1.8439
   79SLPC    HB 7239   1.663   5.051   5.846  0.5228  0.4916 -0.1428
   79SLPC    C2 7240   1.456   5.135   5.845 -0.2666 -0.0637  0.8775
   79SLPC    HS 7241   1.405   5.049   5.894  0.8619 -1.8112 -0.9211
   79SLPC   O21 7242   1.459   5.125   5.704 -1.0640  0.3119 -0.9825
   79SLPC   C21 7243   1.349   5.070   5.660  1.3178 -0.8552  0.3010
   79SLPC   O22 7244   1.241   5.058   5.722  0.5372  0.2070 -0.5228
   79SLPC   C22 7245   1.364   5.022   5.521 -0.4878  0.0177 -0.1528
   79SLPC   H2R 7246   1.323   4.919   5.524  0.5633 -0.5157 -2.2529
   79SLPC   H2S 7247   1.296   5.084   5.458 -1.2269 -2.3239 -1.7642
   79SLPC    C3 7248   1.390   5.263   5.904 -0.3139  0.1237  0.7642
   79SLPC    HX 7249   1.428   5.272   6.009  0.0962  0.0680  0.6238
   79SLPC    HY 7250   1.280   5.256   5.914 -0.4391  1.8017  0.9326
   79SLPC   O31 7251   1.411   5.385   5.823  0.2453  0.4704  0.0300
   79SLPC   C31 7252   1.380   5.496   5.887 -0.8307  0.3040 -0.1674
   79SLPC   O32 7253   1.310   5.502   5.986 -0.2540 -0.5898 -0.5249
   79SLPC   C32 7254   1.413   5.611   5.795  0.3067  0.7036  0.4147
   79SLPC   H2X 7255   1.367   5.704   5.837 -0.9503  0.8798 -1.2243
   79SLPC   H2Y 7256   1.352   5.595   5.703  0.4180  0.9626  0.2928
   79SLPC   C23 7257   1.505   5.006   5.463 -0.2466  0.3814  0.4056
   79SLPC   H3R 7258   1.573   5.094   5.468 -0.4791  0.6535 -0.8399
   79SLPC   H3S 7259   1.482   4.993   5.355  0.0569  2.2636  0.0717
   79SLPC   C24 7260   1.580   4.883   5.511  0.2585  0.5400 -0.0780
   79SLPC   H4R 7261   1.527   4.788   5.489 -0.4720  0.3618  2.1324
   79SLPC   H4S 7262   1.573   4.897   5.622 -0.9533  3.6196 -0.4395
   79SLPC   C25 7263   1.723   4.886   5.465  0.0149 -0.3528  0.2076
   79SLPC   H5R 7264   1.781   4.968   5.511  0.1168 -0.4174  0.1947
   79SLPC   H5S 7265   1.715   4.902   5.355 -0.6391 -1.0763  0.1365
   79SLPC   C26 7266   1.790   4.754   5.495 -0.7884  0.3105  0.9473
   79SLPC   H6R 7267   1.751   4.690   5.578 -1.5538  0.5537  0.7868
   79SLPC   H6S 7268   1.894   4.775   5.525 -0.1511 -0.4707 -0.5623
   79SLPC   C27 7269   1.805   4.668   5.370 -0.6169  0.7253  0.9769
   79SLPC   H7R 7270   1.854   4.734   5.295 -0.1430 -0.0411  0.5931
   79SLPC   H7S 7271   1.715   4.639   5.312  0.6907 -0.6240 -0.4961
   79SLPC   C28 7272   1.909   4.553   5.369  0.1654 -0.2201 -0.0722
   79SLPC   H8R 7273   2.002   4.598   5.409 -1.4055  0.6557  2.8632
   79SLPC   H8S 7274   1.930   4.514   5.266 -1.5650 -0.1531 -0.4721
   79SLPC   C29 7275   1.855   4.439   5.452 -0.0599  0.2722 -0.1606
   79SLPC   H9R 7276   1.833   4.466   5.557  0.2185 -0.7984  0.1869
   79SLPC  C210 7277   1.831   4.315   5.420  0.7378  0.1490  1.6583
   79SLPC  H10R 7278   1.786   4.242   5.490 -0.1940  0.8455  1.8053
   79SLPC  C211 7279   1.840   4.268   5.276 -0.7664 -0.4861 -0.0122
   79SLPC  H11R 7280   1.814   4.348   5.203 -2.8452 -2.6426 -1.8112
   79SLPC  H11S 7281   1.759   4.195   5.256 -0.7553  0.0651 -2.3785
   79SLPC  C212 7282   1.981   4.204   5.251 -0.3227 -0.1107  0.6161
   79SLPC  H12R 7283   2.019   4.153   5.341 -1.9487  0.9764  1.9950
   79SLPC  C213 7284   2.053   4.197   5.137  0.3518 -0.2631  0.2302
   79SLPC  H13R 7285   2.157   4.165   5.154  0.4179  0.8119  2.0973
   79SLPC  C214 7286   2.013   4.260   5.005  0.1140  0.1178 -0.5949
   79SLPC  H14R 7287   2.086   4.340   4.980  0.5593 -0.1888 -0.3061
   79SLPC  H14S 7288   1.908   4.294   5.011 -0.1900 -0.8277 -0.4770
   79SLPC  C215 7289   2.008   4.154   4.899 -0.1717  1.0068  0.6448
   79SLPC  H15R 7290   1.935   4.075   4.924 -0.6364  1.3748  0.4608
   79SLPC  H15S 7291   2.110   4.109   4.893 -1.2218 -1.4239 -0.9799
   79SLPC  C216 7292   1.979   4.213   4.758  0.0821 -0.8460  0.5650
   79SLPC  H16R 7293   2.013   4.144   4.678  0.3695  1.0187 -0.9942
   79SLPC  H16S 7294   2.051   4.297   4.750  0.1104 -0.6838  2.2219
   79SLPC  C217 7295   1.829   4.254   4.729  0.2869  0.0186 -0.4074
   79SLPC  H17R 7296   1.806   4.320   4.815 -0.8033 -1.4447  0.4805
   79SLPC  H17S 7297   1.770   4.160   4.728  1.5607 -0.8023 -0.0515
   79SLPC  C218 7298   1.807   4.336   4.606 -0.3881  1.4434 -0.8340
   79SLPC  H18R 7299   1.714   4.395   4.607  0.0111  2.1156 -1.8091
   79SLPC  H18S 7300   1.832   4.286   4.510  2.5285 -1.4747  1.1993
   79SLPC  H18T 7301   1.890   4.409   4.615  0.8319  0.0942 -0.6436
   79SLPC   C33 7302   1.561   5.629   5.764 -0.1402  0.3744 -0.0972
   79SLPC   H3X 7303   1.594   5.544   5.701  4.2752  1.8774 -0.0981
   79SLPC   H3Y 7304   1.617   5.630   5.860 -2.7203  3.2739  1.5931
   79SLPC   C34 7305   1.592   5.754   5.686 -0.3229 -0.1470 -0.6150
   79SLPC   H4X 7306   1.700   5.757   5.660 -0.5378  0.1588 -1.4852
   79SLPC   H4Y 7307   1.569   5.843   5.747  2.4825 -0.2859  0.8218
   79SLPC   C35 7308   1.516   5.762   5.553 -0.4498  0.6307  0.0806
   79SLPC   H5X 7309   1.410   5.789   5.574 -1.1325 -2.0748  0.4711
   79SLPC   H5Y 7310   1.517   5.662   5.506 -0.4833  1.8061 -2.5935
   79SLPC   C36 7311   1.577   5.854   5.444  0.1334 -0.4720 -0.0573
   79SLPC   H6X 7312   1.687   5.843   5.444  0.3849  1.3012 -2.0697
   79SLPC   H6Y 7313   1.540   5.956   5.469  0.4709 -0.0499 -1.1854
   79SLPC   C37 7314   1.522   5.824   5.302 -0.3525 -0.0299 -0.3436
   79SLPC   H7X 7315   1.414   5.844   5.292 -0.0415  0.8496 -2.3245
   79SLPC   H7Y 7316   1.546   5.715   5.296  2.1658  0.4914 -0.9256
   79SLPC   C38 7317   1.604   5.881   5.188 -0.3101  0.3878  0.8109
   79SLPC   H8X 7318   1.707   5.841   5.191 -0.5332 -0.1413  2.5887
   79SLPC   H8Y 7319   1.613   5.990   5.207  1.8622  0.4677 -0.3330
   79SLPC   C39 7320   1.554   5.846   5.048 -0.1464  0.5786 -0.0086
   79SLPC   H9X 7321   1.444   5.866   5.052 -0.5982 -1.6376 -0.3239
   79SLPC   H9Y 7322   1.564   5.736   5.047 -0.9469  0.4925 -0.9120
   79SLPC  C310 7323   1.627   5.912   4.931 -0.3586  0.4192  0.0951
   79SLPC  H10X 7324   1.734   5.883   4.939  0.0584  1.7632 -0.3927
   79SLPC  H10Y 7325   1.622   6.023   4.928 -1.3015  0.3785 -0.1936
   79SLPC  C311 7326   1.575   5.847   4.805  0.2464  0.0204  0.2672
   79SLPC  H11X 7327   1.464   5.852   4.811  0.2493 -0.0772  0.4300
   79SLPC  H11Y 7328   1.602   5.739   4.811 -1.3110 -0.3924  0.2009
   79SLPC  C312 7329   1.615   5.920   4.676  0.0992 -0.3371  1.3809
   79SLPC  H12X 7330   1.726   5.929   4.682 -0.0311  2.2024  1.0732
   79SLPC  H12Y 7331   1.567   6.020   4.674 -0.7495 -0.7581 -0.1829
   79SLPC  C313 7332   1.567   5.860   4.534  0.0514  0.5442 -0.4759
   79SLPC  H13X 7333   1.631   5.772   4.511 -1.5581 -0.7134 -0.3342
   79SLPC  H13Y 7334   1.589   5.937   4.458 -1.1544  0.4997 -0.8904
   79SLPC  C314 7335   1.427   5.816   4.506 -0.4697  0.2245  0.3933
   79SLPC  H14X 7336   1.361   5.904   4.488 -1.1267 -0.5621 -1.2011
   79SLPC  H14Y 7337   1.397   5.772   4.604 -1.6651  0.3271  0.0813
   79SLPC  C315 7338   1.416   5.734   4.375 -0.2730  1.1699 -0.4117
   79SLPC  H15X 7339   1.486   5.647   4.380 -1.9799 -0.1990  1.0075
   79SLPC  H15Y 7340   1.442   5.803   4.292 -0.9706  2.1494  0.1610
   79SLPC  C316 7341   1.275   5.682   4.341 -0.0178 -0.0374  0.1765
   79SLPC  H16X 7342   1.205   5.768   4.344 -1.0293 -0.7762 -1.1703
   79SLPC  H16Y 7343   1.246   5.598   4.408  1.0532  0.9039  1.8974
   79SLPC  C317 7344   1.270   5.642   4.188  0.1963 -0.1863 -0.6758
   79SLPC  H17X 7345   1.347   5.701   4.132  1.7924 -1.3996  0.1539
   79SLPC  H17Y 7346   1.167   5.653   4.147 -0.3473  0.2972  0.7807
   79SLPC  C318 7347   1.301   5.497   4.172 -0.1369 -0.4710  0.4653
   79SLPC  H18X 7348   1.399   5.467   4.217  0.7172  1.2570 -0.1795
   79SLPC  H18Y 7349   1.300   5.468   4.065 -2.3722 -1.1953  0.6217
   79SLPC  H18Z 7350   1.236   5.424   4.225  0.4254 -0.9295  0.5353
   80SLPC     N 7351   1.398   1.125   6.752  0.4026  0.3896  0.2771
   80SLPC   C13 7352   1.279   1.072   6.827 -0.1409 -0.2382  0.2110
   80SLPC  H13A 7353   1.296   1.051   6.932  4.9870 -0.2961 -0.4087
   80SLPC  H13B 7354   1.196   1.141   6.832  1.4580  2.0886 -2.4467
   80SLPC  H13C 7355   1.240   0.992   6.766 -0.1464  1.0160 -1.5011
   80SLPC   C14 7356   1.517   1.025   6.758 -0.3517  0.7755 -0.0582
   80SLPC  H14A 7357   1.600   1.056   6.696  0.3001  0.8573  0.8502
   80SLPC  H14B 7358   1.543   1.011   6.862 -0.9405  1.5521  0.2030
   80SLPC  H14C 7359   1.488   0.928   6.722  0.4730  0.3430  0.4296
   80SLPC   C15 7360   1.443   1.257   6.803 -0.4991  0.0348 -1.1387
   80SLPC  H15A 7361   1.540   1.285   6.765  0.2258 -0.0693  0.5514
   80SLPC  H15B 7362   1.376   1.330   6.760 -1.0081 -0.7763 -1.7257
   80SLPC  H15C 7363   1.443   1.263   6.911 -3.2337 -0.8747 -1.0260
   80SLPC   C12 7364   1.350   1.134   6.607 -0.6596 -0.2684  0.3311
   80SLPC  H12A 7365   1.408   1.202   6.547 -1.1450  0.5244  0.7524
   80SLPC  H12B 7366   1.256   1.186   6.606 -1.5233 -1.7699  0.6778
   80SLPC   C11 7367   1.331   1.009   6.523  0.2554  0.2056 -0.0303
   80SLPC  H11A 7368   1.432   0.962   6.521  0.5223  0.7881 -0.8851
   80SLPC  H11B 7369   1.312   1.036   6.417  0.0841 -0.3794 -0.1482
   80SLPC     P 7370   1.075   0.957   6.556 -0.1792  0.1849  0.1779
   80SLPC   O13 7371   0.998   0.857   6.630 -0.4585 -0.2500  0.3025
   80SLPC   O14 7372   1.049   1.100   6.592  0.1029  0.2881  0.4309
   80SLPC   O12 7373   1.230   0.923   6.576 -0.4847  0.3004 -0.5300
   80SLPC   O11 7374   1.058   0.948   6.402 -0.0645 -0.5628  0.2985
   80SLPC    C1 7375   0.927   0.949   6.337 -0.6394  0.3149 -0.2110
   80SLPC    HA 7376   0.869   0.854   6.341  0.0394 -0.3057 -2.8731
   80SLPC    HB 7377   0.861   1.022   6.389  0.7028  0.8720  0.7690
   80SLPC    C2 7378   0.937   0.988   6.183  0.4642  0.5503 -0.9209
   80SLPC    HS 7379   0.839   1.015   6.140  0.9279  0.6564 -1.9210
   80SLPC   O21 7380   1.005   0.881   6.113 -0.1346 -0.7419 -0.2761
   80SLPC   C21 7381   0.924   0.796   6.054 -0.4281  0.6316 -0.3942
   80SLPC   O22 7382   0.804   0.803   6.043 -0.9754  0.0596 -0.0614
   80SLPC   C22 7383   1.017   0.683   6.009  0.5547 -0.0582 -1.0395
   80SLPC   H2R 7384   1.098   0.672   6.085 -1.0270  3.0276  1.3686
   80SLPC   H2S 7385   0.958   0.590   6.003 -1.2708  0.9039  0.6957
   80SLPC    C3 7386   1.021   1.117   6.168  0.5185  0.5952  0.4804
   80SLPC    HX 7387   1.122   1.090   6.206 -0.3405 -1.9774  1.1476
   80SLPC    HY 7388   0.961   1.185   6.232  0.8815 -0.3948  1.9093
   80SLPC   O31 7389   1.018   1.169   6.034  0.6426  0.1583 -0.1565
   80SLPC   C31 7390   1.113   1.137   5.942  0.5996 -0.5052  0.0346
   80SLPC   O32 7391   1.213   1.071   5.957  0.0312  0.1003 -0.1803
   80SLPC   C32 7392   1.059   1.194   5.815 -0.3862  0.2668  1.0860
   80SLPC   H2X 7393   1.082   1.303   5.817 -0.3267  0.2726  0.3413
   80SLPC   H2Y 7394   0.948   1.193   5.814 -0.4275  1.5569 -0.1641
   80SLPC   C23 7395   1.092   0.717   5.878  0.2299  0.2258 -0.9380
   80SLPC   H3R 7396   1.142   0.623   5.845 -2.1292 -0.7777 -1.8889
   80SLPC   H3S 7397   1.171   0.794   5.892  1.9720 -1.3225 -1.8036
   80SLPC   C24 7398   1.007   0.753   5.758  0.2433  0.4096  0.1335
   80SLPC   H4R 7399   0.943   0.838   5.791 -2.9164 -1.6780 -0.1711
   80SLPC   H4S 7400   0.933   0.673   5.740  0.4855  0.4020 -0.8712
   80SLPC   C25 7401   1.094   0.780   5.636  0.5181 -0.0843  0.5200
   80SLPC   H5R 7402   1.197   0.815   5.659  0.7899  0.2464 -1.0992
   80SLPC   H5S 7403   1.040   0.857   5.577  2.6225  0.3581 -0.9264
   80SLPC   C26 7404   1.110   0.653   5.549 -1.4053 -0.2760 -0.2033
   80SLPC   H6R 7405   1.009   0.622   5.515 -0.2661 -1.0816 -3.2293
   80SLPC   H6S 7406   1.144   0.574   5.619 -0.3367  0.5562  0.2592
   80SLPC   C27 7407   1.219   0.661   5.444 -0.1532 -0.0727  0.1878
   80SLPC   H7R 7408   1.260   0.561   5.422 -1.4802 -0.3490 -1.1886
   80SLPC   H7S 7409   1.293   0.730   5.490 -0.7275  0.6870  0.0122
   80SLPC   C28 7410   1.163   0.720   5.318 -0.5757 -0.4448  0.1086
   80SLPC   H8R 7411   1.084   0.793   5.346 -1.2307 -1.8384  2.0561
   80SLPC   H8S 7412   1.112   0.639   5.263 -0.0649  0.1855 -1.3565
   80SLPC   C29 7413   1.266   0.791   5.237 -0.2778 -0.3640 -0.5656
   80SLPC   H9R 7414   1.342   0.850   5.290 -0.0607 -0.0276 -1.2349
   80SLPC  C210 7415   1.279   0.783   5.102 -0.0608 -0.3652  0.5607
   80SLPC  H10R 7416   1.355   0.841   5.048 -0.5605 -0.6599 -0.4904
   80SLPC  C211 7417   1.191   0.697   5.015 -0.4097 -0.4477 -0.3207
   80SLPC  H11R 7418   1.142   0.609   5.060  1.4528 -1.1226  0.4815
   80SLPC  H11S 7419   1.252   0.650   4.934  0.8438 -1.7659  1.3277
   80SLPC  C212 7420   1.098   0.780   4.937  0.7266 -0.4837  0.5271
   80SLPC  H12R 7421   0.997   0.780   4.981  1.1557 -1.5743  1.5515
   80SLPC  C213 7422   1.125   0.855   4.821  0.3460 -0.1902 -0.8658
   80SLPC  H13R 7423   1.041   0.912   4.778 -0.6390 -0.3097  0.8164
   80SLPC  C214 7424   1.252   0.847   4.745 -0.3730  0.0101  0.4678
   80SLPC  H14R 7425   1.261   0.750   4.693 -2.0391  0.8012 -1.4297
   80SLPC  H14S 7426   1.345   0.859   4.804  0.0468 -0.0808 -0.1606
   80SLPC  C215 7427   1.265   0.953   4.633  0.6528 -0.0283 -0.3700
   80SLPC  H15R 7428   1.286   1.049   4.684  0.8387 -0.0200 -0.4606
   80SLPC  H15S 7429   1.178   0.967   4.565  0.4654 -5.0310 -1.5468
   80SLPC  C216 7430   1.379   0.923   4.538 -0.0079  0.6733 -0.2985
   80SLPC  H16R 7431   1.374   0.818   4.500  1.3029 -0.0427  1.3656
   80SLPC  H16S 7432   1.471   0.944   4.596  0.3433  0.7191 -0.8707
   80SLPC  C217 7433   1.373   1.031   4.434 -0.0007 -0.8367  0.6050
   80SLPC  H17R 7434   1.271   1.025   4.390  0.4097 -0.5740 -0.4106
   80SLPC  H17S 7435   1.434   1.004   4.345  0.0263  1.0051  0.0280
   80SLPC  C218 7436   1.415   1.168   4.493 -0.2796  0.1536  0.6176
   80SLPC  H18R 7437   1.500   1.146   4.561 -0.1347 -0.1937  0.3299
   80SLPC  H18S 7438   1.336   1.211   4.558  0.4826  1.4960  0.6865
   80SLPC  H18T 7439   1.444   1.232   4.407  3.2200 -0.0549  1.5059
   80SLPC   C33 7440   1.122   1.125   5.689 -0.6029  0.0209  0.6307
   80SLPC   H3X 7441   1.101   1.016   5.690 -1.8206  0.2349  0.5209
   80SLPC   H3Y 7442   1.233   1.130   5.687 -0.6056  0.2680 -1.7948
   80SLPC   C34 7443   1.060   1.191   5.557 -0.2190  0.0550 -0.1813
   80SLPC   H4X 7444   1.060   1.302   5.563 -1.6332  0.0672  0.0140
   80SLPC   H4Y 7445   0.958   1.149   5.548 -0.3974  0.6594 -1.0338
   80SLPC   C35 7446   1.145   1.162   5.426 -0.0720 -0.3024 -1.2315
   80SLPC   H5X 7447   1.128   1.059   5.390 -1.5530 -0.7387  0.5311
   80SLPC   H5Y 7448   1.252   1.168   5.457 -0.2898 -1.9273 -0.0386
   80SLPC   C36 7449   1.124   1.259   5.313 -0.4492  0.2386  0.2946
   80SLPC   H6X 7450   1.112   1.362   5.353 -0.7849  0.2417  0.1879
   80SLPC   H6Y 7451   1.030   1.228   5.264 -0.1952  0.1272 -0.1212
   80SLPC   C37 7452   1.235   1.271   5.204  0.6788 -1.3257  0.4567
   80SLPC   H7X 7453   1.314   1.343   5.235 -0.6134 -0.0884  0.9717
   80SLPC   H7Y 7454   1.185   1.328   5.123  3.1247  0.7746  0.2862
   80SLPC   C38 7455   1.277   1.142   5.134  0.2537  0.0803  0.6999
   80SLPC   H8X 7456   1.194   1.069   5.126 -1.1801  1.8322 -1.3662
   80SLPC   H8Y 7457   1.356   1.090   5.193  0.2257  0.4182  1.0397
   80SLPC   C39 7458   1.335   1.159   4.994 -0.4846 -1.0268  0.6791
   80SLPC   H9X 7459   1.257   1.175   4.916  1.9131  2.5092 -1.2497
   80SLPC   H9Y 7460   1.389   1.067   4.963  1.2568  0.1809 -0.0094
   80SLPC  C310 7461   1.439   1.275   4.984  0.6218  0.4300 -0.6385
   80SLPC  H10X 7462   1.474   1.297   5.087 -1.4869 -3.2202  1.0476
   80SLPC  H10Y 7463   1.388   1.362   4.938  2.5353  2.5843  1.0851
   80SLPC  C311 7464   1.552   1.231   4.882 -0.2497 -0.1365 -0.0347
   80SLPC  H11X 7465   1.518   1.205   4.779 -1.0040 -2.7064  0.7889
   80SLPC  H11Y 7466   1.594   1.140   4.929 -0.0325 -0.5827 -1.0741
   80SLPC  C312 7467   1.659   1.338   4.869  0.3391  0.5487  0.6057
   80SLPC  H12X 7468   1.746   1.283   4.826 -1.8911  0.1075 -3.8228
   80SLPC  H12Y 7469   1.685   1.372   4.972  0.8342 -0.8518  0.9715
   80SLPC  C313 7470   1.626   1.453   4.774 -0.0189 -0.2244  0.6056
   80SLPC  H13X 7471   1.538   1.510   4.809  0.0272  0.8858 -0.9658
   80SLPC  H13Y 7472   1.603   1.416   4.671  0.3248 -1.8048  1.0601
   80SLPC  C314 7473   1.746   1.546   4.761 -0.6319  0.4024  0.3907
   80SLPC  H14X 7474   1.732   1.613   4.673 -0.7910 -2.3489 -1.8228
   80SLPC  H14Y 7475   1.838   1.489   4.735 -0.6581 -0.0236  1.2239
   80SLPC  C315 7476   1.789   1.621   4.885  0.0687 -0.0526 -0.5539
   80SLPC  H15X 7477   1.878   1.676   4.849 -0.3092 -0.9258 -2.9700
   80SLPC  H15Y 7478   1.831   1.558   4.966  2.4459 -0.2146 -1.8141
   80SLPC  C316 7479   1.670   1.709   4.924  0.7197 -0.5934  0.9570
   80SLPC  H16X 7480   1.591   1.642   4.964 -0.9896 -0.4085 -1.8532
   80SLPC  H16Y 7481   1.621   1.757   4.837  1.9276 -0.9684  0.0321
   80SLPC  C317 7482   1.701   1.813   5.031  0.2953 -0.0380  0.1921
   80SLPC  H17X 7483   1.778   1.879   4.986 -1.3247  1.4433 -0.5385
   80SLPC  H17Y 7484   1.749   1.757   5.113  0.2498 -1.3652 -0.6586
   80SLPC  C318 7485   1.584   1.898   5.075  0.7023  0.0892 -0.0109
   80SLPC  H18X 7486   1.498   1.831   5.099 -0.0357  0.6960 -0.8828
   80SLPC  H18Y 7487   1.550   1.966   4.993 -0.2227 -1.1467 -0.6946
   80SLPC  H18Z 7488   1.611   1.957   5.165 -2.8898 -0.6263  1.6989
   81SLPC     N 7489   1.124   1.051   1.959 -0.3001 -0.8269 -0.1227
   81SLPC   C13 7490   1.185   0.910   1.938 -0.3374 -0.8160  0.2149
   81SLPC  H13A 7491   1.104   0.841   1.922 -0.4585 -0.7974  0.7282
   81SLPC  H13B 7492   1.243   0.909   1.847 -1.0631  2.5752 -0.4109
   81SLPC  H13C 7493   1.256   0.890   2.017 -0.9411  0.1059  1.0113
   81SLPC   C14 7494   1.032   1.084   1.849  0.0895 -0.2703  0.2746
   81SLPC  H14A 7495   0.966   1.002   1.823 -0.1091  0.0188 -0.1389
   81SLPC  H14B 7496   0.960   1.162   1.866 -1.3511 -1.4253 -0.2403
   81SLPC  H14C 7497   1.082   1.104   1.755 -2.2226 -1.9600 -1.4524
   81SLPC   C15 7498   1.233   1.153   1.969 -0.3268 -0.2816  0.2091
   81SLPC  H15A 7499   1.290   1.149   1.878 -1.3347 -0.4499 -0.4410
   81SLPC  H15B 7500   1.186   1.249   1.984  1.0296  0.6055 -1.0548
   81SLPC  H15C 7501   1.295   1.141   2.056  1.0744 -0.7538 -0.8314
   81SLPC   C12 7502   1.046   1.036   2.088 -0.3322 -0.4248  0.6918
   81SLPC  H12A 7503   1.099   0.967   2.152  0.3664 -0.4325  0.1264
   81SLPC  H12B 7504   0.954   0.987   2.061 -1.3008  1.5001  0.2766
   81SLPC   C11 7505   1.027   1.164   2.178 -0.4679  0.3617  0.4669
   81SLPC  H11A 7506   1.127   1.179   2.223  0.1419  0.0080 -0.7408
   81SLPC  H11B 7507   0.970   1.133   2.269  0.8159 -3.2171  0.1898
   81SLPC     P 7508   0.833   1.325   2.083  0.2701 -0.5911  0.1645
   81SLPC   O13 7509   0.821   1.347   1.939  0.0471 -0.0016  0.3031
   81SLPC   O14 7510   0.744   1.228   2.145 -0.0360  0.0389 -0.2125
   81SLPC   O12 7511   0.988   1.276   2.102 -0.1798 -0.8524 -0.0855
   81SLPC   O11 7512   0.827   1.461   2.156 -0.5645 -0.4196  0.3134
   81SLPC    C1 7513   0.792   1.483   2.293  0.0461  0.2262  1.2749
   81SLPC    HA 7514   0.714   1.561   2.292 -1.2817 -0.9846 -1.6935
   81SLPC    HB 7515   0.746   1.389   2.329 -1.5677  0.5634  0.2013
   81SLPC    C2 7516   0.930   1.519   2.364 -0.1088  0.3635 -0.3844
   81SLPC    HS 7517   1.006   1.447   2.329 -0.6035 -0.7518  0.7628
   81SLPC   O21 7518   0.915   1.513   2.508 -0.3546  0.1363 -0.0612
   81SLPC   C21 7519   0.882   1.396   2.560  1.0199  0.4371 -0.1253
   81SLPC   O22 7520   0.878   1.285   2.511  0.3218 -0.0163 -0.1497
   81SLPC   C22 7521   0.833   1.415   2.712 -0.4053  0.2368  0.0199
   81SLPC   H2R 7522   0.920   1.454   2.769 -0.5207 -0.6987  0.8748
   81SLPC   H2S 7523   0.752   1.491   2.711 -0.5963  0.2598  3.4521
   81SLPC    C3 7524   0.969   1.664   2.328  0.1491  0.1291 -0.8168
   81SLPC    HX 7525   0.882   1.727   2.354  0.5828  0.8398 -1.0706
   81SLPC    HY 7526   0.985   1.667   2.218 -0.3593  1.2316 -0.8686
   81SLPC   O31 7527   1.072   1.708   2.418 -0.3487  0.2414 -0.4447
   81SLPC   C31 7528   1.193   1.658   2.391 -0.4323  0.4839  0.2302
   81SLPC   O32 7529   1.228   1.604   2.287 -0.3232 -0.4124 -0.0285
   81SLPC   C32 7530   1.285   1.691   2.506  0.3784  0.5497 -0.5724
   81SLPC   H2X 7531   1.231   1.730   2.595  1.4579 -2.9980  1.8464
   81SLPC   H2Y 7532   1.360   1.768   2.477  1.6893 -0.1558  0.7954
   81SLPC   C23 7533   0.788   1.288   2.778  0.0224  0.0442 -0.0194
   81SLPC   H3R 7534   0.865   1.209   2.785 -0.7700 -0.6106  2.5388
   81SLPC   H3S 7535   0.708   1.252   2.710 -1.0605 -1.8515  2.0990
   81SLPC   C24 7536   0.718   1.307   2.917  0.4489  0.2490 -0.3213
   81SLPC   H4R 7537   0.655   1.222   2.949 -2.2842  2.0785 -0.4857
   81SLPC   H4S 7538   0.640   1.385   2.904 -1.2409 -1.1237  1.0488
   81SLPC   C25 7539   0.812   1.337   3.032  0.1356 -0.3900 -0.3222
   81SLPC   H5R 7540   0.883   1.418   3.006 -0.2402  0.4505  1.1224
   81SLPC   H5S 7541   0.881   1.252   3.049  3.3772  2.4366  2.3144
   81SLPC   C26 7542   0.751   1.383   3.167  0.1409  0.3752  0.3753
   81SLPC   H6R 7543   0.671   1.457   3.148  0.8079  1.4110  1.4235
   81SLPC   H6S 7544   0.835   1.435   3.218  0.2049  0.9428 -0.2903
   81SLPC   C27 7545   0.697   1.257   3.241  0.3632  0.1290  0.0364
   81SLPC   H7R 7546   0.775   1.177   3.243 -0.1920 -0.4253 -0.0436
   81SLPC   H7S 7547   0.608   1.216   3.188 -0.2312  3.1002 -1.4812
   81SLPC   C28 7548   0.661   1.285   3.390  0.3439  0.4201 -1.1257
   81SLPC   H8R 7549   0.620   1.389   3.396  1.0846  0.6428  0.9993
   81SLPC   H8S 7550   0.755   1.293   3.449  1.6023 -0.0126 -3.0037
   81SLPC   C29 7551   0.556   1.188   3.434 -0.6993 -0.7749  0.2143
   81SLPC   H9R 7552   0.461   1.185   3.378  0.0771 -0.7180 -1.1522
   81SLPC  C210 7553   0.567   1.111   3.542  0.0894 -0.4844  0.4836
   81SLPC  H10R 7554   0.491   1.034   3.560  0.6066 -1.1197  0.0171
   81SLPC  C211 7555   0.690   1.113   3.630 -0.3001  0.0769 -0.2777
   81SLPC  H11R 7556   0.694   1.201   3.697 -0.2917 -0.1669  0.0451
   81SLPC  H11S 7557   0.785   1.120   3.572 -0.5185  1.5034 -0.5015
   81SLPC  C212 7558   0.688   0.992   3.719  0.5130  0.1559 -0.0799
   81SLPC  H12R 7559   0.636   1.014   3.813 -0.3753 -1.6782 -0.1105
   81SLPC  C213 7560   0.741   0.872   3.699 -0.8227 -0.1819  0.1563
   81SLPC  H13R 7561   0.746   0.797   3.780  1.7355 -0.1617  0.1038
   81SLPC  C214 7562   0.820   0.822   3.577 -0.4444  0.5747 -0.0873
   81SLPC  H14R 7563   0.881   0.734   3.604 -0.6554 -0.1542 -1.8264
   81SLPC  H14S 7564   0.909   0.885   3.556 -0.6105  0.4204 -1.3357
   81SLPC  C215 7565   0.759   0.794   3.438  0.3347  0.0010 -0.1641
   81SLPC  H15R 7566   0.686   0.872   3.407  2.3349  1.7417 -0.7383
   81SLPC  H15S 7567   0.705   0.698   3.450 -0.2147 -0.0342 -2.4305
   81SLPC  C216 7568   0.858   0.780   3.327 -0.5749  0.2813  0.6929
   81SLPC  H16R 7569   0.927   0.693   3.335 -2.1011 -0.9774  0.6724
   81SLPC  H16S 7570   0.924   0.869   3.323 -0.6670  0.4334  2.1368
   81SLPC  C217 7571   0.781   0.754   3.199 -0.3348  1.2751  0.2185
   81SLPC  H17R 7572   0.721   0.661   3.209 -0.5218  1.4146  0.3910
   81SLPC  H17S 7573   0.850   0.728   3.115 -1.2165 -1.9289  0.3442
   81SLPC  C218 7574   0.705   0.880   3.154 -0.5608  0.0763 -0.0284
   81SLPC  H18R 7575   0.690   0.859   3.046 -2.6087 -1.7498  0.5393
   81SLPC  H18S 7576   0.747   0.982   3.169 -1.8564  0.5242  0.6694
   81SLPC  H18T 7577   0.604   0.875   3.200 -1.0442  0.3687 -1.0375
   81SLPC   C33 7578   1.362   1.570   2.566 -0.1535  0.8732  0.0063
   81SLPC   H3X 7579   1.446   1.599   2.633  0.2236 -4.2965  2.2474
   81SLPC   H3Y 7580   1.409   1.503   2.491 -0.0959 -1.8406  2.2931
   81SLPC   C34 7581   1.274   1.477   2.651 -0.1405  0.3850 -0.6136
   81SLPC   H4X 7582   1.323   1.381   2.680  1.5431  1.9349  2.1219
   81SLPC   H4Y 7583   1.180   1.454   2.595 -0.0553  1.5518 -1.2858
   81SLPC   C35 7584   1.238   1.548   2.788  0.5461 -0.4414 -0.1725
   81SLPC   H5X 7585   1.147   1.610   2.769 -0.0040 -0.9546  0.7348
   81SLPC   H5Y 7586   1.322   1.612   2.823  0.3302 -0.8153  1.0513
   81SLPC   C36 7587   1.211   1.449   2.904 -0.5401 -0.0563  1.0394
   81SLPC   H6X 7588   1.304   1.391   2.925  0.6439  2.0942  2.0697
   81SLPC   H6Y 7589   1.128   1.378   2.884  0.7081 -2.1432  2.7421
   81SLPC   C37 7590   1.173   1.530   3.027  0.2936 -0.2289 -0.4321
   81SLPC   H7X 7591   1.075   1.583   3.026  0.6254  0.3997 -0.1911
   81SLPC   H7Y 7592   1.249   1.605   3.056  0.9505 -0.8196 -0.5929
   81SLPC   C38 7593   1.158   1.434   3.145 -0.2615  0.1917 -0.3724
   81SLPC   H8X 7594   1.250   1.371   3.153 -1.1305 -0.9875  0.6707
   81SLPC   H8Y 7595   1.086   1.358   3.111  0.4483 -1.6632  1.9860
   81SLPC   C39 7596   1.100   1.494   3.273  0.2832  0.5682  0.4243
   81SLPC   H9X 7597   1.000   1.541   3.260  0.4470  0.6220 -0.6708
   81SLPC   H9Y 7598   1.168   1.574   3.311  1.3177 -0.7528  1.4563
   81SLPC  C310 7599   1.094   1.392   3.384 -0.0699  0.4942  0.1738
   81SLPC  H10X 7600   1.202   1.379   3.406 -0.2205 -0.9405  0.1502
   81SLPC  H10Y 7601   1.052   1.292   3.362  0.3843  0.4281 -0.4343
   81SLPC  C311 7602   1.014   1.443   3.508 -0.4719 -0.5885  1.0835
   81SLPC  H11X 7603   0.909   1.475   3.494  0.7593  3.1313 -0.8975
   81SLPC  H11Y 7604   1.053   1.544   3.531 -1.0000 -0.7098  2.6439
   81SLPC  C312 7605   1.020   1.353   3.630  0.2126 -0.6343 -0.0648
   81SLPC  H12X 7606   1.117   1.301   3.644  0.4061 -0.8774 -2.0086
   81SLPC  H12Y 7607   0.943   1.273   3.631 -1.1186  0.6074  0.3274
   81SLPC  C313 7608   1.000   1.429   3.764 -0.7899 -0.3137  0.1687
   81SLPC  H13X 7609   0.892   1.456   3.770 -1.5940 -2.9002 -0.9736
   81SLPC  H13Y 7610   1.062   1.521   3.770  0.6791 -1.0715 -2.0884
   81SLPC  C314 7611   1.022   1.334   3.875  0.2329  0.1937  0.2469
   81SLPC  H14X 7612   1.114   1.277   3.854  0.3940  0.5314  0.0288
   81SLPC  H14Y 7613   0.936   1.265   3.890  0.9608 -0.2603  2.8676
   81SLPC  C315 7614   1.029   1.398   4.016 -0.4022 -0.3120 -0.3161
   81SLPC  H15X 7615   0.940   1.452   4.055  0.1662  0.8216 -0.5339
   81SLPC  H15Y 7616   1.107   1.477   4.015 -2.2496  1.7559  2.6701
   81SLPC  C316 7617   1.066   1.291   4.120  0.3937 -0.1213  0.1924
   81SLPC  H16X 7618   1.171   1.256   4.108  0.4735  0.7277 -2.3277
   81SLPC  H16Y 7619   1.004   1.203   4.096  1.5762 -0.6696 -0.9882
   81SLPC  C317 7620   1.030   1.323   4.262  0.2740  0.0366 -1.0606
   81SLPC  H17X 7621   1.057   1.235   4.323  1.2725  1.3763  0.5145
   81SLPC  H17Y 7622   0.920   1.338   4.274  0.6506  3.2381 -0.8627
   81SLPC  C318 7623   1.086   1.446   4.338 -0.5333 -0.8625 -0.8412
   81SLPC  H18X 7624   1.059   1.537   4.279 -0.0100 -0.1635 -0.0284
   81SLPC  H18Y 7625   1.197   1.446   4.348 -0.7259 -2.0126  2.6781
   81SLPC  H18Z 7626   1.044   1.451   4.441  1.1704  0.8379 -0.1561
   82SLPC     N 7627   5.516   2.096   2.541 -0.4567 -0.2265  0.2950
   82SLPC   C13 7628   5.571   2.222   2.474  0.0066  0.4573  1.1364
   82SLPC  H13A 7629   5.678   2.240   2.481  0.3933 -1.4138  0.6484
   82SLPC  H13B 7630   5.558   2.214   2.367 -1.6895 -2.0604  1.4528
   82SLPC  H13C 7631   5.513   2.304   2.511  0.0667  0.1901  1.8417
   82SLPC   C14 7632   5.371   2.089   2.519 -0.2651  0.3576  1.0441
   82SLPC  H14A 7633   5.330   2.011   2.581 -1.5265  0.0533 -0.1409
   82SLPC  H14B 7634   5.316   2.181   2.535 -0.4331  0.6189 -0.8387
   82SLPC  H14C 7635   5.348   2.054   2.419 -1.9965 -2.2259  2.2442
   82SLPC   C15 7636   5.557   2.110   2.685 -0.9974  0.3535  0.4337
   82SLPC  H15A 7637   5.499   2.187   2.734 -3.0062 -0.3067 -0.7869
   82SLPC  H15B 7638   5.522   2.021   2.736  1.0436 -1.4334 -1.1054
   82SLPC  H15C 7639   5.662   2.125   2.705 -1.3892  1.7688  1.6134
   82SLPC   C12 7640   5.598   1.980   2.490 -0.8359 -0.3127 -0.0609
   82SLPC  H12A 7641   5.541   1.895   2.525  1.0454 -1.3515  0.6165
   82SLPC  H12B 7642   5.690   1.989   2.544 -0.4425  2.9236 -1.0264
   82SLPC   C11 7643   5.607   1.964   2.337  0.0712  0.0206 -0.8686
   82SLPC  H11A 7644   5.671   1.875   2.318  0.3215 -0.2680  1.1141
   82SLPC  H11B 7645   5.667   2.042   2.286 -1.5088  0.9502 -1.3885
   82SLPC     P 7646   5.405   1.816   2.283  0.2277 -0.3128  0.2256
   82SLPC   O13 7647   5.257   1.829   2.293 -0.1702 -0.4445 -0.2461
   82SLPC   O14 7648   5.457   1.739   2.169  0.2916 -0.3121 -0.1675
   82SLPC   O12 7649   5.474   1.961   2.284 -0.3413 -0.1248  0.1044
   82SLPC   O11 7650   5.463   1.741   2.412 -0.0527 -0.1628 -0.2032
   82SLPC    C1 7651   5.421   1.610   2.448  0.3417  0.3212  0.0406
   82SLPC    HA 7652   5.312   1.607   2.468  0.1008 -1.2334 -1.3607
   82SLPC    HB 7653   5.442   1.533   2.371 -1.9253  0.5027 -0.8197
   82SLPC    C2 7654   5.509   1.551   2.568  0.6321 -0.3870 -0.7978
   82SLPC    HS 7655   5.453   1.463   2.606 -1.2965  0.5614 -1.3216
   82SLPC   O21 7656   5.511   1.650   2.685  0.0338  0.4152  0.4769
   82SLPC   C21 7657   5.390   1.673   2.738  0.0812 -0.3639 -0.4333
   82SLPC   O22 7658   5.282   1.615   2.716  0.1235 -0.5745 -0.2032
   82SLPC   C22 7659   5.411   1.766   2.861  0.3998  0.4547  0.5777
   82SLPC   H2R 7660   5.491   1.732   2.930  4.2893  2.8514 -2.3211
   82SLPC   H2S 7661   5.464   1.859   2.829 -1.6793  1.4589 -0.0961
   82SLPC    C3 7662   5.648   1.516   2.527 -0.8509 -0.0338 -0.1497
   82SLPC    HX 7663   5.709   1.608   2.512  0.8924 -1.1276 -0.0334
   82SLPC    HY 7664   5.648   1.449   2.438  0.1441 -0.6138  0.2682
   82SLPC   O31 7665   5.706   1.442   2.632  0.2089  0.9862 -0.1981
   82SLPC   C31 7666   5.790   1.499   2.719  0.1223  0.0198  0.3169
   82SLPC   O32 7667   5.831   1.613   2.709 -0.9279 -0.9549  0.2647
   82SLPC   C32 7668   5.821   1.405   2.832 -0.3397 -0.4284  0.0931
   82SLPC   H2X 7669   5.813   1.299   2.799 -0.0943 -0.1822 -0.7727
   82SLPC   H2Y 7670   5.753   1.404   2.920  2.4809 -1.9324  2.4189
   82SLPC   C23 7671   5.281   1.809   2.937  0.0976  0.7249  0.0508
   82SLPC   H3R 7672   5.248   1.710   2.976 -1.4512  0.6620 -1.3112
   82SLPC   H3S 7673   5.195   1.850   2.879 -1.0231  0.3799  1.4172
   82SLPC   C24 7674   5.324   1.901   3.061  0.3248  1.0444 -0.5679
   82SLPC   H4R 7675   5.380   1.988   3.020  1.6130  0.6847  0.3806
   82SLPC   H4S 7676   5.399   1.845   3.120 -1.1320  0.8750  1.2110
   82SLPC   C25 7677   5.209   1.946   3.148  0.4302  0.0844 -0.2625
   82SLPC   H5R 7678   5.159   1.855   3.186  0.6496  0.0461 -0.0637
   82SLPC   H5S 7679   5.138   2.001   3.083  0.0332 -3.2536 -2.9217
   82SLPC   C26 7680   5.250   2.038   3.265 -0.3532 -0.0241  0.4314
   82SLPC   H6R 7681   5.160   2.065   3.324  0.6179 -1.3941  2.6504
   82SLPC   H6S 7682   5.285   2.131   3.213 -2.6201  1.2982  1.1155
   82SLPC   C27 7683   5.352   1.984   3.366 -0.5036  0.6492 -0.4921
   82SLPC   H7R 7684   5.454   2.017   3.337 -1.5348  2.2305 -2.5156
   82SLPC   H7S 7685   5.351   1.873   3.361  0.1209  0.6997 -2.7653
   82SLPC   C28 7686   5.324   2.047   3.505 -0.0138  0.1280 -0.0867
   82SLPC   H8R 7687   5.224   2.007   3.532 -0.2546  0.5030 -0.4052
   82SLPC   H8S 7688   5.311   2.156   3.484 -0.0874 -0.0491 -1.0055
   82SLPC   C29 7689   5.417   1.995   3.607 -0.6159  0.6601  0.4455
   82SLPC   H9R 7690   5.452   1.892   3.591 -0.1218  1.0814 -1.5125
   82SLPC  C210 7691   5.455   2.051   3.725  0.7177  0.4601  0.0453
   82SLPC  H10R 7692   5.529   1.999   3.787 -0.1842 -1.3663 -0.3620
   82SLPC  C211 7693   5.404   2.185   3.777 -0.4753 -0.4558 -0.8541
   82SLPC  H11R 7694   5.329   2.179   3.859 -0.0845  0.1897 -0.4388
   82SLPC  H11S 7695   5.351   2.244   3.699 -0.4092  0.9183  0.0950
   82SLPC  C212 7696   5.522   2.275   3.806  0.5407  0.0225  0.0567
   82SLPC  H12R 7697   5.600   2.267   3.729  0.2042  0.5209 -0.3441
   82SLPC  C213 7698   5.543   2.333   3.923 -0.3363  0.3293 -0.6153
   82SLPC  H13R 7699   5.644   2.374   3.939 -0.8082  0.7263  1.7128
   82SLPC  C214 7700   5.440   2.352   4.036 -0.3359 -0.7966  0.3932
   82SLPC  H14R 7701   5.336   2.337   4.000 -0.1380 -0.8505 -0.1749
   82SLPC  H14S 7702   5.435   2.459   4.065  0.2523 -0.4576 -0.7029
   82SLPC  C215 7703   5.482   2.286   4.165  0.2766  0.2693 -0.2396
   82SLPC  H15R 7704   5.421   2.342   4.240 -2.2651 -0.9899 -1.2425
   82SLPC  H15S 7705   5.587   2.304   4.195 -0.2124  1.2728  0.9797
   82SLPC  C216 7706   5.454   2.133   4.160  0.3163 -0.6658  0.0025
   82SLPC  H16R 7707   5.476   2.091   4.261 -1.5051 -1.3180  0.1641
   82SLPC  H16S 7708   5.517   2.085   4.083  0.2513  1.9016 -1.7917
   82SLPC  C217 7709   5.309   2.084   4.139  0.2558  0.7207  0.1388
   82SLPC  H17R 7710   5.308   1.973   4.131 -0.5544  0.7772 -0.6664
   82SLPC  H17S 7711   5.276   2.126   4.042  1.2102 -1.3046 -1.1277
   82SLPC  C218 7712   5.225   2.135   4.256  0.5379  0.4379 -0.2002
   82SLPC  H18R 7713   5.133   2.073   4.263  0.7070 -0.2851 -3.0432
   82SLPC  H18S 7714   5.197   2.242   4.250  0.6907  0.5535  0.9186
   82SLPC  H18T 7715   5.287   2.118   4.347  1.6296  2.0111 -0.6077
   82SLPC   C33 7716   5.962   1.431   2.898  0.6419 -0.5601 -0.1640
   82SLPC   H3X 7717   5.996   1.536   2.887  0.1151 -0.2823  0.7598
   82SLPC   H3Y 7718   6.044   1.379   2.843  0.8136 -0.5134  0.0494
   82SLPC   C34 7719   5.960   1.395   3.049 -0.1612  0.0636 -0.7049
   82SLPC   H4X 7720   5.939   1.287   3.066  1.2178  0.0197  0.9759
   82SLPC   H4Y 7721   5.881   1.443   3.111  0.8822 -0.3749  1.0260
   82SLPC   C35 7722   6.095   1.418   3.107 -0.1323 -0.1131 -0.9770
   82SLPC   H5X 7723   6.110   1.528   3.111 -1.9693  0.1395  1.7288
   82SLPC   H5Y 7724   6.173   1.379   3.038  3.0855  0.8605  1.8075
   82SLPC   C36 7725   6.113   1.361   3.246  0.6382 -0.1388  0.2358
   82SLPC   H6X 7726   6.073   1.259   3.229 -1.4558  0.8542 -1.4493
   82SLPC   H6Y 7727   6.033   1.419   3.297  0.2184  0.3681 -0.9559
   82SLPC   C37 7728   6.246   1.366   3.314 -0.4855  0.3949  0.5955
   82SLPC   H7X 7729   6.255   1.472   3.346 -2.8955  1.5518 -2.1368
   82SLPC   H7Y 7730   6.330   1.337   3.249 -2.1282 -0.1084 -1.4009
   82SLPC   C38 7731   6.255   1.284   3.443  0.8493  0.5602  0.8796
   82SLPC   H8X 7732   6.249   1.178   3.409 -3.0713  1.2527 -1.1739
   82SLPC   H8Y 7733   6.176   1.298   3.520  0.8766  2.3488  0.6136
   82SLPC   C39 7734   6.380   1.312   3.525  0.2592  0.4740  0.1676
   82SLPC   H9X 7735   6.355   1.406   3.578  2.1831  0.3303  1.4087
   82SLPC   H9Y 7736   6.461   1.333   3.452 -0.0491  0.5799 -0.1461
   82SLPC  C310 7737   6.423   1.210   3.626  0.4061  0.6857 -1.2508
   82SLPC  H10X 7738   6.533   1.217   3.641  0.5720 -0.7241 -1.6290
   82SLPC  H10Y 7739   6.400   1.105   3.597  1.1670  0.0544  0.3205
   82SLPC  C311 7740   6.350   1.237   3.759  0.2034 -0.1530  0.0519
   82SLPC  H11X 7741   6.242   1.227   3.734  0.3085  1.2400 -1.0790
   82SLPC  H11Y 7742   6.375   1.341   3.790  0.2368 -0.4807  1.1614
   82SLPC  C312 7743   6.395   1.145   3.869  0.1059 -0.4017 -0.4401
   82SLPC  H12X 7744   6.500   1.160   3.902 -0.5517 -1.2967  2.3275
   82SLPC  H12Y 7745   6.382   1.040   3.832 -2.5180 -0.1458 -0.3811
   82SLPC  C313 7746   6.320   1.151   3.998 -0.7696  0.3527  0.0194
   82SLPC  H13X 7747   6.212   1.146   3.977 -0.5594  3.3295 -2.4534
   82SLPC  H13Y 7748   6.331   1.248   4.051 -0.2653 -0.7510  2.0189
   82SLPC  C314 7749   6.365   1.034   4.090 -0.1867  0.0542  0.2526
   82SLPC  H14X 7750   6.476   1.028   4.082 -0.3340 -0.7379 -1.6061
   82SLPC  H14Y 7751   6.341   0.934   4.050  1.4788 -0.4155  0.3278
   82SLPC  C315 7752   6.305   1.057   4.232 -0.3264 -0.4236 -0.3783
   82SLPC  H15X 7753   6.195   1.042   4.230 -0.2179 -1.7430  1.3753
   82SLPC  H15Y 7754   6.341   1.161   4.248  0.9241 -0.3358 -3.1630
   82SLPC  C316 7755   6.341   0.972   4.354 -0.3340  0.3800  0.0507
   82SLPC  H16X 7756   6.449   0.989   4.373 -0.3605 -0.6878  1.3318
   82SLPC  H16Y 7757   6.327   0.863   4.332  0.7649 -0.4882  3.1328
   82SLPC  C317 7758   6.271   1.000   4.487 -0.2791 -0.2218  0.5260
   82SLPC  H17X 7759   6.164   0.972   4.483 -0.9862  2.3232 -0.7101
   82SLPC  H17Y 7760   6.279   1.111   4.488  0.2517 -0.2232 -0.7807
   82SLPC  C318 7761   6.347   0.947   4.612 -0.0584  1.1146  0.6697
   82SLPC  H18X 7762   6.308   0.994   4.705 -2.9383 -0.1686  0.2076
   82SLPC  H18Y 7763   6.451   0.982   4.594  0.7077 -1.1437  0.3655
   82SLPC  H18Z 7764   6.344   0.836   4.616  1.2501  1.0671  0.9387
   83SLPC     N 7765   2.503   0.338   1.887  0.2430  0.3911  0.0313
   83SLPC   C13 7766   2.481   0.476   1.831  0.2155  0.2261  0.7502
   83SLPC  H13A 7767   2.572   0.524   1.799  0.5595 -0.3294  0.8716
   83SLPC  H13B 7768   2.410   0.464   1.750  0.4324 -1.1882  0.7440
   83SLPC  H13C 7769   2.426   0.535   1.902 -0.7652 -1.0507  1.0941
   83SLPC   C14 7770   2.535   0.248   1.765  0.4386  0.3856 -0.9605
   83SLPC  H14A 7771   2.574   0.161   1.815 -0.5510 -0.6685 -1.9495
   83SLPC  H14B 7772   2.445   0.227   1.709  2.0369 -1.7639 -2.8939
   83SLPC  H14C 7773   2.621   0.279   1.707  2.3415  0.1597  1.6076
   83SLPC   C15 7774   2.379   0.293   1.958 -0.1287 -0.2921  0.5136
   83SLPC  H15A 7775   2.341   0.372   2.021  1.1655 -0.4578  1.5328
   83SLPC  H15B 7776   2.299   0.266   1.889 -0.1374 -1.4239  0.9485
   83SLPC  H15C 7777   2.412   0.202   2.006  1.1023 -1.3205 -2.1050
   83SLPC   C12 7778   2.623   0.345   1.980 -0.0229 -0.8644  0.0798
   83SLPC  H12A 7779   2.605   0.419   2.056 -2.9179 -1.4796  0.0975
   83SLPC  H12B 7780   2.708   0.378   1.923 -0.4357 -1.1943 -0.7450
   83SLPC   C11 7781   2.663   0.217   2.055 -0.4202 -0.0614  0.2061
   83SLPC  H11A 7782   2.580   0.202   2.127  0.8667 -0.4209  1.6822
   83SLPC  H11B 7783   2.758   0.237   2.111  0.9581  0.8664 -2.3184
   83SLPC     P 7784   2.616  -0.034   2.014 -0.4578 -0.7629 -0.1095
   83SLPC   O13 7785   2.468  -0.026   2.026  0.0904 -0.3081 -0.3783
   83SLPC   O14 7786   2.676  -0.136   1.927 -0.4598 -0.0842  0.4948
   83SLPC   O12 7787   2.678   0.103   1.971  0.6779 -0.5310  0.5384
   83SLPC   O11 7788   2.685  -0.056   2.158 -0.6713 -0.3914  0.3161
   83SLPC    C1 7789   2.809  -0.127   2.157  0.3394  0.3867  0.1841
   83SLPC    HA 7790   2.804  -0.232   2.123  1.0649  0.4834 -0.2371
   83SLPC    HB 7791   2.889  -0.077   2.099  0.2380  0.1211 -0.1885
   83SLPC    C2 7792   2.856  -0.143   2.306  0.2763  0.1001  0.2516
   83SLPC    HS 7793   2.936  -0.219   2.292 -0.2422 -0.2451 -1.0181
   83SLPC   O21 7794   2.744  -0.202   2.377 -0.3412  0.1559  0.4222
   83SLPC   C21 7795   2.766  -0.252   2.491  0.2676  0.2396 -0.5925
   83SLPC   O22 7796   2.868  -0.257   2.558  0.3590  0.0000 -0.6464
   83SLPC   C22 7797   2.629  -0.291   2.536  0.7385  0.1160 -0.6112
   83SLPC   H2R 7798   2.560  -0.206   2.557 -1.8553 -2.2468  1.1519
   83SLPC   H2S 7799   2.576  -0.360   2.467 -0.5651 -1.6940  1.9807
   83SLPC    C3 7800   2.917  -0.010   2.372  0.1344 -0.1069  0.7628
   83SLPC    HX 7801   2.843   0.072   2.385 -0.4991 -0.5211 -0.1344
   83SLPC    HY 7802   2.979   0.034   2.291  0.3418 -2.3335 -0.3815
   83SLPC   O31 7803   2.993  -0.024   2.485 -0.8069  0.5302 -0.1133
   83SLPC   C31 7804   3.114  -0.082   2.475 -0.0116  0.3742 -0.2380
   83SLPC   O32 7805   3.173  -0.108   2.369  0.4949 -0.1412  0.3718
   83SLPC   C32 7806   3.170  -0.100   2.611  0.2828 -0.3852 -0.5005
   83SLPC   H2X 7807   3.094  -0.159   2.667  2.4190 -1.4089  1.4849
   83SLPC   H2Y 7808   3.185   0.000   2.657  1.0463 -0.3656 -0.7680
   83SLPC   C23 7809   2.623  -0.381   2.664  0.2247 -0.3775 -0.2139
   83SLPC   H3R 7810   2.692  -0.468   2.670  0.3720 -0.1965  0.8511
   83SLPC   H3S 7811   2.517  -0.414   2.676  0.0999 -0.1122 -0.5792
   83SLPC   C24 7812   2.644  -0.294   2.792 -0.0418 -0.0596  0.3012
   83SLPC   H4R 7813   2.563  -0.219   2.783 -0.8371 -1.0609 -1.3448
   83SLPC   H4S 7814   2.746  -0.252   2.805 -0.1173 -0.3828  2.2641
   83SLPC   C25 7815   2.626  -0.375   2.920  0.1356  0.2901 -0.6647
   83SLPC   H5R 7816   2.684  -0.470   2.911 -0.4935  0.0595 -2.8158
   83SLPC   H5S 7817   2.518  -0.396   2.935 -0.2770  2.2484 -0.6279
   83SLPC   C26 7818   2.677  -0.310   3.053  0.1438  0.0255 -0.1117
   83SLPC   H6R 7819   2.632  -0.209   3.063  0.5119 -0.0458  3.9534
   83SLPC   H6S 7820   2.786  -0.295   3.045 -0.0766  1.5240 -0.7135
   83SLPC   C27 7821   2.632  -0.401   3.170  0.0713  0.2199  0.5788
   83SLPC   H7R 7822   2.691  -0.494   3.170  1.3587  1.0186  0.8048
   83SLPC   H7S 7823   2.524  -0.427   3.156 -0.2527  1.1851  1.1900
   83SLPC   C28 7824   2.659  -0.325   3.303  0.3585  0.0233 -0.0693
   83SLPC   H8R 7825   2.588  -0.241   3.314 -0.9789 -1.0279 -0.3364
   83SLPC   H8S 7826   2.766  -0.304   3.286  0.2643 -0.3598 -1.2089
   83SLPC   C29 7827   2.626  -0.414   3.423 -0.4895  0.2759  0.5733
   83SLPC   H9R 7828   2.526  -0.460   3.415  0.8447 -2.8918  0.6996
   83SLPC  C210 7829   2.701  -0.432   3.532 -0.0638 -0.6096 -0.1490
   83SLPC  H10R 7830   2.664  -0.509   3.601  1.5470 -0.6568  0.7117
   83SLPC  C211 7831   2.833  -0.372   3.571 -0.4789  0.5222  0.2210
   83SLPC  H11R 7832   2.818  -0.306   3.659  0.9970  1.7376 -0.3969
   83SLPC  H11S 7833   2.865  -0.299   3.494 -1.0956  2.0727  1.3897
   83SLPC  C212 7834   2.943  -0.462   3.609  0.4057  0.1594 -0.0997
   83SLPC  H12R 7835   3.040  -0.439   3.564  0.5674  1.8597  1.0299
   83SLPC  C213 7836   2.949  -0.534   3.724  0.1404 -0.3739  0.0920
   83SLPC  H13R 7837   3.045  -0.588   3.720  0.2358 -0.2149 -3.6679
   83SLPC  C214 7838   2.845  -0.573   3.823  0.4662  0.1671 -0.0947
   83SLPC  H14R 7839   2.871  -0.675   3.857 -2.3036  0.2795  2.8087
   83SLPC  H14S 7840   2.744  -0.575   3.776  0.5611  0.1721 -0.2969
   83SLPC  C215 7841   2.848  -0.472   3.948  0.0318  0.4796 -0.3227
   83SLPC  H15R 7842   2.856  -0.372   3.900 -0.0848  0.4187 -0.4688
   83SLPC  H15S 7843   2.941  -0.477   4.010 -0.5048  2.4412  0.7279
   83SLPC  C216 7844   2.726  -0.487   4.048 -0.4026 -0.8300  0.2340
   83SLPC  H16R 7845   2.717  -0.408   4.125 -0.4429  1.1904 -1.7518
   83SLPC  H16S 7846   2.738  -0.588   4.094 -2.4615 -1.1086  0.2729
   83SLPC  C217 7847   2.590  -0.465   3.985 -0.3124  0.5039 -0.0078
   83SLPC  H17R 7848   2.559  -0.550   3.920  1.5089 -0.7161  0.6559
   83SLPC  H17S 7849   2.601  -0.369   3.930  1.9355  0.8995  1.0384
   83SLPC  C218 7850   2.486  -0.434   4.092 -0.7040 -0.4369 -0.2540
   83SLPC  H18R 7851   2.401  -0.380   4.044 -1.6860 -0.7647  1.0614
   83SLPC  H18S 7852   2.522  -0.353   4.159  0.5497 -1.5158  0.4222
   83SLPC  H18T 7853   2.451  -0.518   4.155 -1.4173  1.1346  1.5722
   83SLPC   C33 7854   3.304  -0.179   2.617 -0.1231  0.4239 -0.3412
   83SLPC   H3X 7855   3.378  -0.113   2.567 -0.4184  2.8282  2.1141
   83SLPC   H3Y 7856   3.308  -0.274   2.561 -0.4681  0.7168 -0.8765
   83SLPC   C34 7857   3.350  -0.211   2.759  0.6061 -0.4043  0.3331
   83SLPC   H4X 7858   3.268  -0.256   2.819  0.4917 -1.0648 -0.3020
   83SLPC   H4Y 7859   3.377  -0.112   2.802  0.3669  0.0009 -0.4349
   83SLPC   C35 7860   3.486  -0.296   2.761  0.7953 -0.5190 -0.8282
   83SLPC   H5X 7861   3.569  -0.255   2.699  1.9893 -0.1419  0.9572
   83SLPC   H5Y 7862   3.460  -0.393   2.713 -0.2153 -1.7076  1.9153
   83SLPC   C36 7863   3.535  -0.331   2.906  0.3453  0.0696  1.3354
   83SLPC   H6X 7864   3.643  -0.355   2.899  0.1351 -0.8714  1.2316
   83SLPC   H6Y 7865   3.470  -0.411   2.946  0.1423 -1.1527 -1.2753
   83SLPC   C37 7866   3.546  -0.211   2.995  0.5836 -0.3733 -0.0863
   83SLPC   H7X 7867   3.446  -0.165   3.002  0.1945 -1.0337 -1.1231
   83SLPC   H7Y 7868   3.630  -0.148   2.957  1.1489 -1.2995 -0.4160
   83SLPC   C38 7869   3.600  -0.256   3.130 -0.0077 -0.5863  0.0190
   83SLPC   H8X 7870   3.694  -0.312   3.113 -0.3608 -0.5793 -2.3714
   83SLPC   H8Y 7871   3.528  -0.324   3.181 -2.0787  1.0301 -0.5933
   83SLPC   C39 7872   3.611  -0.128   3.229  0.5178  1.2298  0.3306
   83SLPC   H9X 7873   3.509  -0.083   3.219 -0.4243 -0.9351 -0.3635
   83SLPC   H9Y 7874   3.679  -0.061   3.171  0.0006  1.0814 -0.4702
   83SLPC  C310 7875   3.649  -0.158   3.372 -0.3987  0.4915  0.4918
   83SLPC  H10X 7876   3.750  -0.203   3.374  0.0457  1.4901  0.8548
   83SLPC  H10Y 7877   3.583  -0.243   3.399  0.5998 -0.2577  0.5980
   83SLPC  C311 7878   3.607  -0.069   3.492 -0.2092 -0.1754  0.3182
   83SLPC  H11X 7879   3.498  -0.048   3.493 -0.4383 -1.2721  0.1585
   83SLPC  H11Y 7880   3.650   0.031   3.470 -1.4284  0.1129 -0.9076
   83SLPC  C312 7881   3.657  -0.118   3.626  0.2912  0.0041 -0.3282
   83SLPC  H12X 7882   3.765  -0.143   3.618  0.0543 -1.2364  0.1475
   83SLPC  H12Y 7883   3.607  -0.216   3.645 -0.7654  0.5840  0.0030
   83SLPC  C313 7884   3.619  -0.020   3.731  0.0455  0.3062 -0.0046
   83SLPC  H13X 7885   3.513   0.011   3.724 -1.1460 -2.5995  2.7899
   83SLPC  H13Y 7886   3.681   0.072   3.731 -0.2765  0.5239 -0.2132
   83SLPC  C314 7887   3.637  -0.081   3.872 -0.2628 -0.8847 -0.1395
   83SLPC  H14X 7888   3.747  -0.073   3.884 -0.3358  1.4502 -0.6734
   83SLPC  H14Y 7889   3.621  -0.189   3.893 -0.6358 -1.1139 -1.5156
   83SLPC  C315 7890   3.583  -0.002   3.993  0.1630  0.9617 -0.3073
   83SLPC  H15X 7891   3.567  -0.082   4.068 -1.8509  1.7528  0.1843
   83SLPC  H15Y 7892   3.486   0.048   3.972  0.1796  1.5286  0.8439
   83SLPC  C316 7893   3.696   0.094   4.041 -0.5744  0.4788 -0.2543
   83SLPC  H16X 7894   3.691   0.183   3.974 -0.5781  1.5883  1.1690
   83SLPC  H16Y 7895   3.795   0.045   4.033 -0.6688  0.5582 -3.2463
   83SLPC  C317 7896   3.692   0.132   4.189 -0.4474 -0.7433 -0.1934
   83SLPC  H17X 7897   3.712   0.039   4.245  0.5263  0.1616  1.0159
   83SLPC  H17Y 7898   3.593   0.174   4.219 -0.4312  0.3500 -1.5625
   83SLPC  C318 7899   3.795   0.245   4.231  1.0954 -0.5234  0.0882
   83SLPC  H18X 7900   3.754   0.285   4.326  1.5868  2.8371 -0.9689
   83SLPC  H18Y 7901   3.802   0.340   4.173  0.3861  0.1468  1.0678
   83SLPC  H18Z 7902   3.894   0.199   4.251  2.0240  0.3786 -2.0596
   84SLPC     N 7903   6.910   0.240   2.159 -0.2626 -0.5221 -0.8389
   84SLPC   C13 7904   6.922   0.382   2.177  0.9751 -0.6745 -0.1455
   84SLPC  H13A 7905   7.015   0.416   2.220  1.0784 -1.0445 -0.0665
   84SLPC  H13B 7906   6.917   0.439   2.085  1.4669  0.1149  0.3084
   84SLPC  H13C 7907   6.839   0.424   2.231  0.6171  2.0442 -2.5759
   84SLPC   C14 7908   6.770   0.219   2.121  0.2358  0.1559  0.2599
   84SLPC  H14A 7909   6.696   0.283   2.168  0.5006  2.4742 -2.2443
   84SLPC  H14B 7910   6.743   0.239   2.019 -0.5026  0.3146  0.4775
   84SLPC  H14C 7911   6.742   0.117   2.139  1.0272  0.2039  2.0410
   84SLPC   C15 7912   6.931   0.172   2.292  0.1045  0.8393  0.0106
   84SLPC  H15A 7913   6.954   0.069   2.266 -2.0699  0.5001 -0.7890
   84SLPC  H15B 7914   7.015   0.210   2.348  1.6481  0.2782 -1.8284
   84SLPC  H15C 7915   6.845   0.184   2.356  0.4695  1.2446  0.4297
   84SLPC   C12 7916   7.007   0.186   2.055 -0.1743  0.3312 -0.3187
   84SLPC  H12A 7917   7.103   0.191   2.104 -0.3748  0.7626  0.0372
   84SLPC  H12B 7918   7.014   0.257   1.974  2.3241  0.0922 -0.3824
   84SLPC   C11 7919   6.994   0.041   1.996 -0.1443 -0.2454  0.5770
   84SLPC  H11A 7920   7.079   0.024   1.927 -2.6424 -0.7580 -2.6140
   84SLPC  H11B 7921   6.895   0.034   1.945 -0.7352  1.4209  1.4173
   84SLPC     P 7922   7.118  -0.134   2.153 -0.2400 -0.3218  0.1146
   84SLPC   O13 7923   7.067  -0.266   2.206  0.6328 -0.1248  0.4132
   84SLPC   O14 7924   7.216  -0.141   2.043  0.2611  0.4448  0.3294
   84SLPC   O12 7925   6.989  -0.057   2.098 -0.5176 -0.3599 -0.7886
   84SLPC   O11 7926   7.164  -0.041   2.270 -0.4480  0.4006 -0.0901
   84SLPC    C1 7927   7.297  -0.047   2.326  0.4200  0.1479 -0.9401
   84SLPC    HA 7928   7.329  -0.153   2.328  0.8682  0.2862  0.1495
   84SLPC    HB 7929   7.361   0.019   2.264 -1.2168  3.1455  0.3541
   84SLPC    C2 7930   7.300   0.005   2.474  0.0386 -0.1324 -0.7221
   84SLPC    HS 7931   7.397  -0.014   2.523  0.1960  1.8384 -0.1729
   84SLPC   O21 7932   7.211  -0.064   2.557 -0.5610  0.6977 -0.3504
   84SLPC   C21 7933   7.226  -0.197   2.577  0.6043 -0.0701 -0.9669
   84SLPC   O22 7934   7.314  -0.266   2.538 -0.0909 -0.3347 -0.1792
   84SLPC   C22 7935   7.106  -0.255   2.656  0.4163 -0.0297 -0.5729
   84SLPC   H2R 7936   7.021  -0.274   2.586  0.6421 -0.5626 -0.7048
   84SLPC   H2S 7937   7.142  -0.351   2.697 -1.9940  0.2382  2.5880
   84SLPC    C3 7938   7.261   0.160   2.475  0.7723 -0.2096  0.2245
   84SLPC    HX 7939   7.160   0.145   2.430  0.2693 -0.9772  1.5497
   84SLPC    HY 7940   7.318   0.226   2.407 -0.3601  0.1733 -0.3773
   84SLPC   O31 7941   7.263   0.218   2.605  0.2168 -0.6109  0.0862
   84SLPC   C31 7942   7.386   0.232   2.648  0.7502 -0.2866  0.0713
   84SLPC   O32 7943   7.483   0.196   2.589  0.6010  0.4499 -0.1364
   84SLPC   C32 7944   7.383   0.275   2.798 -0.3204 -0.0065  0.1117
   84SLPC   H2X 7945   7.447   0.202   2.852 -0.3514  0.0143  0.1775
   84SLPC   H2Y 7946   7.279   0.273   2.837 -0.2902  4.0817  0.9377
   84SLPC   C23 7947   7.065  -0.174   2.778 -0.4117 -0.2328 -0.9652
   84SLPC   H3R 7948   6.961  -0.207   2.801 -0.6834  0.4151 -1.2305
   84SLPC   H3S 7949   7.058  -0.064   2.760  4.9961  0.6689  0.6119
   84SLPC   C24 7950   7.153  -0.202   2.900 -0.1310 -0.7143  0.0725
   84SLPC   H4R 7951   7.251  -0.149   2.895 -0.5809  0.1935  0.6316
   84SLPC   H4S 7952   7.155  -0.313   2.908  2.6079 -1.0435 -3.1223
   84SLPC   C25 7953   7.088  -0.148   3.023 -0.1412 -0.4073 -0.0872
   84SLPC   H5R 7954   7.148  -0.164   3.115 -0.1440  2.4141  0.4866
   84SLPC   H5S 7955   6.994  -0.204   3.044  0.8471 -1.6131  1.3408
   84SLPC   C26 7956   7.071   0.003   3.038  0.6927 -0.0240 -0.0144
   84SLPC   H6R 7957   7.009   0.058   2.964 -1.4125 -2.1966 -0.0127
   84SLPC   H6S 7958   7.169   0.054   3.040 -0.1300  1.6896  2.4402
   84SLPC   C27 7959   6.994   0.023   3.175  0.0427 -0.0722  0.8734
   84SLPC   H7R 7960   7.032  -0.057   3.243  0.8666  0.2139  0.7690
   84SLPC   H7S 7961   6.886   0.017   3.151  0.1835  0.5797  0.0474
   84SLPC   C28 7962   6.998   0.169   3.232 -0.2135 -0.2522  0.1489
   84SLPC   H8R 7963   6.934   0.181   3.322  0.0587 -0.9604  0.4501
   84SLPC   H8S 7964   6.971   0.231   3.144  3.6386 -0.2611 -1.2663
   84SLPC   C29 7965   7.145   0.190   3.262 -0.7178 -0.7572 -0.8123
   84SLPC   H9R 7966   7.221   0.199   3.183  0.9150 -1.5056  0.5904
   84SLPC  C210 7967   7.196   0.200   3.392  0.3101 -0.2496  0.4242
   84SLPC  H10R 7968   7.302   0.222   3.410 -0.3714  1.9718  2.2486
   84SLPC  C211 7969   7.129   0.197   3.526 -0.0664  0.4097  0.6128
   84SLPC  H11R 7970   7.142   0.103   3.584  2.9752  0.4209  0.0676
   84SLPC  H11S 7971   7.019   0.203   3.511 -0.1086  1.3095  1.1583
   84SLPC  C212 7972   7.160   0.321   3.606 -0.4401  1.2387 -0.2761
   84SLPC  H12R 7973   7.163   0.413   3.547 -3.4542  2.4406  1.2241
   84SLPC  C213 7974   7.196   0.341   3.734 -0.7372 -0.7252 -1.0548
   84SLPC  H13R 7975   7.205   0.447   3.762 -1.0008 -0.8863 -0.3266
   84SLPC  C214 7976   7.213   0.249   3.849 -0.5891 -0.0469 -0.7198
   84SLPC  H14R 7977   7.315   0.259   3.893 -0.6256  0.1845 -0.6858
   84SLPC  H14S 7978   7.189   0.143   3.823 -0.6713 -1.0138  2.7969
   84SLPC  C215 7979   7.109   0.285   3.955 -0.3169 -0.2810  0.1841
   84SLPC  H15R 7980   7.005   0.288   3.917 -0.1686 -2.2704 -0.5181
   84SLPC  H15S 7981   7.130   0.391   3.977  4.4147 -0.0778 -3.6181
   84SLPC  C216 7982   7.117   0.210   4.088  0.6835  0.3400 -0.4916
   84SLPC  H16R 7983   7.213   0.233   4.140 -0.7388  3.8858  0.8593
   84SLPC  H16S 7984   7.127   0.101   4.071 -0.2892  0.2184 -0.3184
   84SLPC  C217 7985   6.994   0.238   4.174  0.4559 -0.4627 -0.2462
   84SLPC  H17R 7986   6.985   0.163   4.256 -0.0059 -0.2778 -0.1230
   84SLPC  H17S 7987   6.904   0.222   4.111 -1.0012 -0.9471  1.8696
   84SLPC  C218 7988   6.996   0.373   4.248 -0.1472  0.2520  0.5904
   84SLPC  H18R 7989   6.904   0.392   4.308 -1.3673 -0.3389 -1.0285
   84SLPC  H18S 7990   7.008   0.462   4.183 -1.6466 -1.2652 -1.9458
   84SLPC  H18T 7991   7.074   0.365   4.327 -0.6874 -1.6765  0.9976
   84SLPC   C33 7992   7.445   0.419   2.811  0.3864 -0.7649 -0.3620
   84SLPC   H3X 7993   7.367   0.494   2.784 -0.1372  0.1752  3.2064
   84SLPC   H3Y 7994   7.527   0.442   2.740 -1.3291  1.5929 -1.7553
   84SLPC   C34 7995   7.492   0.453   2.950 -0.1474  0.3825 -0.0908
   84SLPC   H4X 7996   7.567   0.535   2.941 -0.1808  0.5060  0.6691
   84SLPC   H4Y 7997   7.537   0.363   2.998 -2.1178 -2.1287 -2.6264
   84SLPC   C35 7998   7.376   0.490   3.039  0.2230 -0.0119 -0.3221
   84SLPC   H5X 7999   7.308   0.402   3.031  1.3211 -1.1505  1.8994
   84SLPC   H5Y 8000   7.329   0.582   2.998  1.9644  0.4668 -1.3174
   84SLPC   C36 8001   7.420   0.518   3.182  0.7134 -0.6313 -0.3199
   84SLPC   H6X 8002   7.332   0.524   3.250 -0.0957  0.3078 -1.4060
   84SLPC   H6Y 8003   7.466   0.619   3.185  0.5472 -0.4293 -2.5001
   84SLPC   C37 8004   7.512   0.417   3.248 -0.7478 -0.4355  1.2984
   84SLPC   H7X 8005   7.605   0.432   3.190 -1.4839 -1.9407 -0.3614
   84SLPC   H7Y 8006   7.498   0.308   3.232  1.0483 -0.7337  1.5205
   84SLPC   C38 8007   7.532   0.439   3.395 -0.1739 -0.5513 -0.5928
   84SLPC   H8X 8008   7.436   0.472   3.442  0.7820  1.2329  0.1934
   84SLPC   H8Y 8009   7.590   0.533   3.406 -1.6943  0.7485 -2.8672
   84SLPC   C39 8010   7.592   0.327   3.482  0.3164  0.4297 -0.1982
   84SLPC   H9X 8011   7.691   0.295   3.444  0.4229 -0.9720  1.1736
   84SLPC   H9Y 8012   7.537   0.231   3.480  1.2817 -0.1376 -0.2932
   84SLPC  C310 8013   7.609   0.361   3.633 -0.5551  0.4380 -0.5723
   84SLPC  H10X 8014   7.648   0.273   3.689 -1.2053  0.8043  0.4595
   84SLPC  H10Y 8015   7.513   0.388   3.681 -0.9543 -0.5282 -0.8048
   84SLPC  C311 8016   7.713   0.475   3.668 -0.2734  0.7824  0.3994
   84SLPC  H11X 8017   7.665   0.575   3.657 -0.9913  0.3605 -0.3723
   84SLPC  H11Y 8018   7.806   0.465   3.607  0.1012  1.3903  0.8551
   84SLPC  C312 8019   7.762   0.465   3.814 -0.2432 -1.3240  0.1218
   84SLPC  H12X 8020   7.852   0.530   3.820 -0.2787 -1.2529 -0.1263
   84SLPC  H12Y 8021   7.800   0.367   3.850  2.1534  0.1554  1.9862
   84SLPC  C313 8022   7.647   0.518   3.910  0.4279  0.1100 -0.0371
   84SLPC  H13X 8023   7.557   0.453   3.900 -0.9512  1.4738  2.5306
   84SLPC  H13Y 8024   7.610   0.617   3.876 -0.3612  0.2819  1.2583
   84SLPC  C314 8025   7.679   0.524   4.060  0.0553  0.1985 -0.8242
   84SLPC  H14X 8026   7.731   0.429   4.084 -2.5459 -1.3982 -1.1121
   84SLPC  H14Y 8027   7.591   0.532   4.127 -0.0886  1.6652 -1.1464
   84SLPC  C315 8028   7.747   0.660   4.094  0.0847 -0.3889 -0.3181
   84SLPC  H15X 8029   7.678   0.740   4.059  0.7255  0.5626  0.5109
   84SLPC  H15Y 8030   7.845   0.667   4.042  0.7627  0.3590  0.9877
   84SLPC  C316 8031   7.778   0.691   4.246  0.1043  0.2735 -0.2003
   84SLPC  H16X 8032   7.841   0.607   4.283  1.0672  0.4862 -1.2707
   84SLPC  H16Y 8033   7.685   0.677   4.304  1.0439 -1.3106  1.0036
   84SLPC  C317 8034   7.848   0.831   4.266 -0.0785 -0.3759  0.4062
   84SLPC  H17X 8035   7.785   0.898   4.204 -2.8499 -2.7403  0.4574
   84SLPC  H17Y 8036   7.953   0.835   4.229 -0.0472  0.4358  0.5634
   84SLPC  C318 8037   7.866   0.874   4.409 -0.3991  0.0857 -0.6378
   84SLPC  H18X 8038   7.911   0.975   4.414 -2.1602  0.9065 -0.4786
   84SLPC  H18Y 8039   7.915   0.787   4.458  1.2499  1.5562  0.4470
   84SLPC  H18Z 8040   7.766   0.872   4.458 -0.5562 -2.3697 -0.9376
   85SLPC     N 8041   1.263   6.471   1.756  0.5859  0.4478 -0.0544
   85SLPC   C13 8042   1.363   6.429   1.860  0.3580  0.5172  0.7440
   85SLPC  H13A 8043   1.432   6.511   1.868  2.4242 -0.8782 -1.3368
   85SLPC  H13B 8044   1.307   6.415   1.951 -1.5448 -1.3555 -0.6124
   85SLPC  H13C 8045   1.408   6.331   1.849 -2.9849 -1.0602 -0.5101
   85SLPC   C14 8046   1.154   6.371   1.763 -0.5700 -0.3478 -0.1516
   85SLPC  H14A 8047   1.121   6.354   1.865 -1.3110  0.8491 -0.1668
   85SLPC  H14B 8048   1.069   6.401   1.704 -0.7875 -1.5757 -0.4898
   85SLPC  H14C 8049   1.187   6.271   1.739 -1.8865 -0.9450  0.4120
   85SLPC   C15 8050   1.321   6.479   1.622  0.0900  0.0824  0.8555
   85SLPC  H15A 8051   1.402   6.551   1.614  0.1139 -0.1686 -2.2901
   85SLPC  H15B 8052   1.357   6.383   1.589 -0.4884 -0.3746  1.5357
   85SLPC  H15C 8053   1.245   6.517   1.556 -1.5873  1.6984  3.5208
   85SLPC   C12 8054   1.202   6.602   1.787 -0.3199  0.6926 -0.2649
   85SLPC  H12A 8055   1.148   6.598   1.880  0.5271 -0.1664  0.2138
   85SLPC  H12B 8056   1.125   6.629   1.717 -1.4318 -0.4811  0.4653
   85SLPC   C11 8057   1.303   6.721   1.820  0.5862  0.7067  0.7119
   85SLPC  H11A 8058   1.242   6.813   1.827 -1.6337 -0.1501 -4.0190
   85SLPC  H11B 8059   1.367   6.742   1.732  0.7696  1.8595  1.0939
   85SLPC     P 8060   1.332   6.758   2.084 -0.3844  0.3649 -0.1447
   85SLPC   O13 8061   1.456   6.766   2.167 -0.5404 -0.3480 -0.0016
   85SLPC   O14 8062   1.252   6.879   2.070 -0.4898 -0.0472  0.3983
   85SLPC   O12 8063   1.388   6.704   1.941  0.4905  0.3880 -0.2191
   85SLPC   O11 8064   1.244   6.642   2.150 -0.4672  0.1144  0.0863
   85SLPC    C1 8065   1.243   6.625   2.289  0.2596 -0.7606  0.1691
   85SLPC    HA 8066   1.198   6.527   2.316 -1.3224  0.4359  2.1515
   85SLPC    HB 8067   1.346   6.617   2.330  0.3421 -0.0803  0.1114
   85SLPC    C2 8068   1.152   6.724   2.372  0.0613  0.5705 -0.1442
   85SLPC    HS 8069   1.191   6.825   2.347 -0.3453  0.5272 -1.0105
   85SLPC   O21 8070   1.164   6.704   2.512 -0.1993  0.4945  0.4449
   85SLPC   C21 8071   1.118   6.802   2.585  0.3551 -0.7990  0.0943
   85SLPC   O22 8072   1.057   6.899   2.541  0.1835 -0.1043  0.0725
   85SLPC   C22 8073   1.160   6.776   2.734 -0.1734 -0.2345  0.6471
   85SLPC   H2R 8074   1.087   6.700   2.771 -0.6911 -0.4514 -0.7514
   85SLPC   H2S 8075   1.259   6.725   2.742 -0.4297 -0.9121 -0.3554
   85SLPC    C3 8076   1.010   6.701   2.313  0.7843 -1.2880 -0.2361
   85SLPC    HX 8077   0.995   6.594   2.288 -0.9863 -1.1109 -0.0898
   85SLPC    HY 8078   1.002   6.750   2.213 -1.0752 -1.7154 -0.3371
   85SLPC   O31 8079   0.902   6.738   2.403  0.5789 -0.2918  0.4530
   85SLPC   C31 8080   0.808   6.815   2.359 -0.4263  0.1558 -0.0804
   85SLPC   O32 8081   0.807   6.871   2.249  0.1893  0.2343  0.2454
   85SLPC   C32 8082   0.694   6.814   2.456 -0.5338  0.2059  0.0618
   85SLPC   H2X 8083   0.637   6.719   2.451 -0.5992  0.2189  0.5551
   85SLPC   H2Y 8084   0.634   6.907   2.441  2.0630  1.8596 -0.8655
   85SLPC   C23 8085   1.170   6.899   2.817  0.6064 -0.2130 -0.0096
   85SLPC   H3R 8086   1.080   6.963   2.804  1.4635  1.3435  1.3232
   85SLPC   H3S 8087   1.253   6.962   2.778  1.4270 -0.5686  1.1100
   85SLPC   C24 8088   1.197   6.864   2.962 -0.0525 -0.7345  0.5628
   85SLPC   H4R 8089   1.236   6.958   3.007 -2.3212  0.6490 -0.1900
   85SLPC   H4S 8090   1.273   6.784   2.971  0.3903 -0.1567  2.4969
   85SLPC   C25 8091   1.071   6.838   3.047  0.4331  0.1300  0.3897
   85SLPC   H5R 8092   1.027   6.940   3.040 -0.3291 -0.2402 -0.4203
   85SLPC   H5S 8093   1.010   6.763   2.993  0.0278  1.5150 -1.1758
   85SLPC   C26 8094   1.127   6.798   3.182 -0.4862 -0.3041  0.3167
   85SLPC   H6R 8095   1.216   6.859   3.209 -0.9436  0.2465  0.6007
   85SLPC   H6S 8096   1.170   6.695   3.183  1.5590  0.4875  1.4376
   85SLPC   C27 8097   1.029   6.814   3.289  0.2748 -0.2793 -0.2960
   85SLPC   H7R 8098   0.933   6.773   3.250 -1.0620 -0.5085  2.9557
   85SLPC   H7S 8099   1.020   6.920   3.322 -0.5350 -0.5159  0.2863
   85SLPC   C28 8100   1.056   6.731   3.419 -0.4038  0.4016 -0.5092
   85SLPC   H8R 8101   1.164   6.734   3.444  0.0362 -2.5138 -1.5999
   85SLPC   H8S 8102   1.033   6.623   3.404  0.2024 -0.3318  3.0388
   85SLPC   C29 8103   0.975   6.779   3.533  0.5050  0.1712 -0.5029
   85SLPC   H9R 8104   0.870   6.747   3.531  0.2002  1.1188  0.0053
   85SLPC  C210 8105   1.025   6.857   3.639  0.2167 -0.0431  0.3216
   85SLPC  H10R 8106   0.954   6.878   3.721 -2.4680 -1.7708 -1.3910
   85SLPC  C211 8107   1.178   6.882   3.659  0.8130 -0.5034 -0.8372
   85SLPC  H11R 8108   1.194   6.983   3.702 -1.9912 -1.1043  2.0135
   85SLPC  H11S 8109   1.221   6.894   3.558  0.6532 -2.7151 -1.2198
   85SLPC  C212 8110   1.262   6.783   3.733 -0.0530  0.2661 -0.0109
   85SLPC  H12R 8111   1.292   6.697   3.671 -0.9226  0.8957 -1.3580
   85SLPC  C213 8112   1.302   6.796   3.865 -0.2525 -0.2456  0.3315
   85SLPC  H13R 8113   1.355   6.715   3.918  1.8050  0.0644 -1.1041
   85SLPC  C214 8114   1.274   6.914   3.955  0.4009  0.0394  0.2189
   85SLPC  H14R 8115   1.288   7.009   3.900  0.0478 -0.8650 -1.5191
   85SLPC  H14S 8116   1.346   6.924   4.039  0.2152 -0.0617  0.3939
   85SLPC  C215 8117   1.143   6.908   4.026  0.0404  0.3137 -0.7044
   85SLPC  H15R 8118   1.081   6.850   3.954  1.5341 -1.1798 -0.8441
   85SLPC  H15S 8119   1.097   7.008   4.035  1.4673  1.0664 -1.4783
   85SLPC  C216 8120   1.161   6.838   4.157 -0.3348  0.0921  0.5808
   85SLPC  H16R 8121   1.213   6.909   4.225 -0.2993  1.5533 -0.9067
   85SLPC  H16S 8122   1.225   6.748   4.142 -2.0809 -1.3004  1.1254
   85SLPC  C217 8123   1.033   6.790   4.220  0.4231  0.4618 -0.1657
   85SLPC  H17R 8124   1.063   6.740   4.315  0.8500  0.6563 -0.1972
   85SLPC  H17S 8125   0.990   6.711   4.155 -0.8329  1.0774 -0.1007
   85SLPC  C218 8126   0.937   6.907   4.243 -0.3194 -0.1282  0.3887
   85SLPC  H18R 8127   0.869   6.937   4.160  0.3523  1.2502  0.3176
   85SLPC  H18S 8128   0.994   7.001   4.259  2.3812 -1.2416 -1.7919
   85SLPC  H18T 8129   0.870   6.880   4.327  0.1721 -2.6763  0.0340
   85SLPC   C33 8130   0.745   6.850   2.604  0.0958 -0.1931 -0.1765
   85SLPC   H3X 8131   0.793   6.950   2.597 -2.3792  0.9882 -1.5633
   85SLPC   H3Y 8132   0.824   6.781   2.641 -0.3524  0.4102  2.0908
   85SLPC   C34 8133   0.631   6.855   2.700 -0.2932 -0.3813 -0.5669
   85SLPC   H4X 8134   0.571   6.764   2.683  2.0656 -1.9571 -1.0008
   85SLPC   H4Y 8135   0.572   6.944   2.671 -0.6618 -1.0503 -1.9251
   85SLPC   C35 8136   0.682   6.863   2.848 -0.2658 -0.0483  0.7857
   85SLPC   H5X 8137   0.738   6.958   2.854 -0.7776  0.7377 -3.4809
   85SLPC   H5Y 8138   0.758   6.782   2.857  1.8285  1.3119 -2.6818
   85SLPC   C36 8139   0.575   6.850   2.951  0.0878  0.1958  0.3575
   85SLPC   H6X 8140   0.522   6.754   2.931  1.3094 -0.1597 -1.4350
   85SLPC   H6Y 8141   0.485   6.913   2.940 -0.2603 -0.6226 -2.1288
   85SLPC   C37 8142   0.628   6.866   3.097  0.7084 -0.2517 -0.3689
   85SLPC   H7X 8143   0.658   6.973   3.107 -0.2796  0.0506 -0.5329
   85SLPC   H7Y 8144   0.721   6.806   3.095  1.6262  1.1194 -2.7725
   85SLPC   C38 8145   0.528   6.832   3.210 -0.8028 -0.7378  0.3101
   85SLPC   H8X 8146   0.489   6.729   3.200  0.1018 -1.2249  1.5973
   85SLPC   H8Y 8147   0.438   6.897   3.222 -1.0106 -0.6275 -1.5696
   85SLPC   C39 8148   0.608   6.852   3.341  1.0039  1.2297  0.0269
   85SLPC   H9X 8149   0.674   6.942   3.340  1.5295  0.8906  1.4920
   85SLPC   H9Y 8150   0.669   6.760   3.355  1.7294  1.6062 -0.6043
   85SLPC  C310 8151   0.528   6.880   3.461  0.1910  0.4478 -0.4377
   85SLPC  H10X 8152   0.485   6.783   3.491  1.2745  0.2611  0.5796
   85SLPC  H10Y 8153   0.441   6.945   3.436  0.0869  0.7842  0.7480
   85SLPC  C311 8154   0.606   6.938   3.575  0.5569  1.3994  0.0658
   85SLPC  H11X 8155   0.672   7.026   3.558  1.8905  0.3904 -0.0826
   85SLPC  H11Y 8156   0.681   6.862   3.604  0.0342  0.3423 -1.2325
   85SLPC  C312 8157   0.519   6.974   3.697  0.5902 -0.0786  0.3141
   85SLPC  H12X 8158   0.432   7.039   3.673 -0.1857 -0.3833  2.0613
   85SLPC  H12Y 8159   0.572   7.029   3.777  1.7040 -1.6081  0.6877
   85SLPC  C313 8160   0.463   6.838   3.766  0.2600 -0.5626  0.2008
   85SLPC  H13X 8161   0.410   6.781   3.686  0.2290 -1.6236  0.9571
   85SLPC  H13Y 8162   0.388   6.863   3.844 -2.0087 -2.4825 -1.2157
   85SLPC  C314 8163   0.563   6.730   3.809 -0.1484 -0.4848 -0.8154
   85SLPC  H14X 8164   0.629   6.684   3.733 -0.3509 -0.5306 -0.9644
   85SLPC  H14Y 8165   0.498   6.643   3.833 -1.2218  0.3559 -0.5979
   85SLPC  C315 8166   0.643   6.777   3.932  0.6763  0.2596 -0.0799
   85SLPC  H15X 8167   0.567   6.801   4.010 -0.5305 -3.0051 -0.1206
   85SLPC  H15Y 8168   0.705   6.868   3.915 -0.2299  0.9015 -0.0017
   85SLPC  C316 8169   0.725   6.661   3.989  0.0327  0.7012 -0.2693
   85SLPC  H16X 8170   0.647   6.586   4.013 -1.2068  2.2503  0.7508
   85SLPC  H16Y 8171   0.770   6.688   4.087  0.6220  4.4914 -1.4347
   85SLPC  C317 8172   0.833   6.609   3.893  0.1514 -0.1575  0.3346
   85SLPC  H17X 8173   0.923   6.674   3.895  0.7666 -1.0012  1.5631
   85SLPC  H17Y 8174   0.795   6.595   3.789 -1.0019  0.7834  0.6098
   85SLPC  C318 8175   0.874   6.469   3.936  0.0832  0.3850 -0.6898
   85SLPC  H18X 8176   0.980   6.440   3.917  0.5022 -1.4721  3.4986
   85SLPC  H18Y 8177   0.806   6.398   3.884  3.1634 -1.9177 -1.8816
   85SLPC  H18Z 8178   0.872   6.456   4.046  0.2231 -0.0602 -0.7365
   86SLPC     N 8179   3.636   4.130   1.912  0.5111  0.4368  0.1391
   86SLPC   C13 8180   3.782   4.111   1.927 -0.5282 -0.3522 -0.9604
   86SLPC  H13A 8181   3.821   4.136   2.025  2.2962  2.0053 -2.5299
   86SLPC  H13B 8182   3.811   4.016   1.887 -0.8418 -0.8126 -0.1140
   86SLPC  H13C 8183   3.833   4.173   1.855  1.3914 -0.7021  0.0239
   86SLPC   C14 8184   3.604   4.109   1.771 -0.3697 -0.4204  0.3804
   86SLPC  H14A 8185   3.498   4.123   1.758 -0.0617  1.0518 -0.7558
   86SLPC  H14B 8186   3.653   4.184   1.711 -1.4381  1.4601  1.7505
   86SLPC  H14C 8187   3.630   4.008   1.742 -1.0572  0.0491 -2.0825
   86SLPC   C15 8188   3.608   4.281   1.951 -0.2342  0.3358 -0.1731
   86SLPC  H15A 8189   3.643   4.301   2.052  1.1449  1.4035 -0.8317
   86SLPC  H15B 8190   3.663   4.348   1.887 -0.0681  0.1959 -0.1766
   86SLPC  H15C 8191   3.502   4.305   1.951 -0.6043 -1.0414  1.7897
   86SLPC   C12 8192   3.551   4.044   2.001 -0.0134  0.4103  0.3614
   86SLPC  H12A 8193   3.450   4.083   1.996 -0.4389 -0.7353 -0.2546
   86SLPC  H12B 8194   3.583   4.059   2.103  0.7424  0.5135  0.1148
   86SLPC   C11 8195   3.542   3.895   1.974 -0.0611  0.8488  0.2752
   86SLPC  H11A 8196   3.505   3.878   1.871  2.0520  0.3137 -0.4316
   86SLPC  H11B 8197   3.471   3.856   2.051 -0.3115  2.6702  1.0168
   86SLPC     P 8198   3.748   3.796   2.102 -0.3828 -0.1160  0.2019
   86SLPC   O13 8199   3.696   3.674   2.164  0.1221 -0.0986 -0.0486
   86SLPC   O14 8200   3.888   3.792   2.057  0.2634 -0.2265 -0.1408
   86SLPC   O12 8201   3.675   3.838   1.969  0.2210  0.8577  0.9203
   86SLPC   O11 8202   3.727   3.914   2.206 -0.5624  0.6629  0.3137
   86SLPC    C1 8203   3.841   3.975   2.273  1.2138 -0.2034 -0.4114
   86SLPC    HA 8204   3.921   3.991   2.198  2.0438  0.4485  0.5907
   86SLPC    HB 8205   3.792   4.068   2.312  0.3051 -0.5416 -0.7137
   86SLPC    C2 8206   3.900   3.894   2.390  0.2133  0.1034  0.0694
   86SLPC    HS 8207   3.960   3.810   2.348  1.2371  1.2803 -0.8725
   86SLPC   O21 8208   3.795   3.863   2.480 -0.0511  0.7541  0.8815
   86SLPC   C21 8209   3.806   3.743   2.535  0.5165  0.3388 -0.1886
   86SLPC   O22 8210   3.887   3.655   2.505  0.6062  0.2348  0.5672
   86SLPC   C22 8211   3.699   3.725   2.640  0.7147  0.4474 -0.4990
   86SLPC   H2R 8212   3.636   3.816   2.648 -2.2892 -1.5891  1.2225
   86SLPC   H2S 8213   3.633   3.637   2.623  0.3206  0.1357  2.1266
   86SLPC    C3 8214   4.005   3.981   2.468  0.6969  0.9568  0.2098
   86SLPC    HX 8215   3.938   4.064   2.501 -0.9358 -0.5057  0.7429
   86SLPC    HY 8216   4.078   4.031   2.401  1.5181 -1.3542 -0.7081
   86SLPC   O31 8217   4.072   3.908   2.573 -0.3835  0.6441  0.2921
   86SLPC   C31 8218   4.154   3.815   2.530 -0.1224 -0.3985 -0.2645
   86SLPC   O32 8219   4.208   3.819   2.419  0.2888  0.0712  0.4753
   86SLPC   C32 8220   4.194   3.725   2.644  0.0402  0.2213  0.7551
   86SLPC   H2X 8221   4.275   3.654   2.617  1.6687  3.0860 -2.8272
   86SLPC   H2Y 8222   4.104   3.662   2.657  0.8442 -0.8520  1.2253
   86SLPC   C23 8223   3.760   3.708   2.777 -0.7078 -0.8785 -0.3411
   86SLPC   H3R 8224   3.842   3.632   2.777 -1.5822 -1.8591 -1.5598
   86SLPC   H3S 8225   3.681   3.688   2.853 -2.0656  4.6282  0.1251
   86SLPC   C24 8226   3.819   3.839   2.835  0.8746 -0.1873  0.1832
   86SLPC   H4R 8227   3.774   3.926   2.782  2.4263 -0.1319 -1.1437
   86SLPC   H4S 8228   3.924   3.869   2.811  1.1950 -0.3662  1.3372
   86SLPC   C25 8229   3.795   3.857   2.987  0.0804  0.7900 -0.1881
   86SLPC   H5R 8230   3.687   3.862   3.013 -0.7074  0.6358 -3.1576
   86SLPC   H5S 8231   3.842   3.949   3.028  1.0432 -0.9082  2.8785
   86SLPC   C26 8232   3.853   3.739   3.069  0.4010 -0.3575 -0.3058
   86SLPC   H6R 8233   3.946   3.716   3.012  0.0655  0.5891 -1.2814
   86SLPC   H6S 8234   3.779   3.657   3.070 -0.6026  0.5323 -0.1972
   86SLPC   C27 8235   3.894   3.769   3.215 -0.2019 -0.2722 -0.1533
   86SLPC   H7R 8236   3.991   3.822   3.200 -1.0503  1.3558 -0.1280
   86SLPC   H7S 8237   3.933   3.679   3.266  3.1150  2.0227  1.7844
   86SLPC   C28 8238   3.806   3.853   3.300  0.1326 -0.0158 -0.0915
   86SLPC   H8R 8239   3.774   3.951   3.261  0.0304  0.3578  0.8990
   86SLPC   H8S 8240   3.872   3.894   3.380 -0.8117  0.0991  0.6464
   86SLPC   C29 8241   3.688   3.795   3.372 -0.5542 -0.0603  0.0348
   86SLPC   H9R 8242   3.671   3.688   3.356 -1.1687  0.0935 -0.3775
   86SLPC  C210 8243   3.587   3.872   3.417 -0.3075 -0.1069  0.4281
   86SLPC  H10R 8244   3.497   3.825   3.459  0.3732 -0.4862  1.4997
   86SLPC  C211 8245   3.588   4.020   3.434  0.1344  0.1590 -0.2955
   86SLPC  H11R 8246   3.559   4.070   3.340  1.8499  0.2083 -0.8293
   86SLPC  H11S 8247   3.696   4.046   3.444  0.1881 -0.3581  0.5380
   86SLPC  C212 8248   3.509   4.078   3.552  0.1396  0.8332  0.0426
   86SLPC  H12R 8249   3.410   4.033   3.573  0.9214 -0.4894  1.0423
   86SLPC  C213 8250   3.534   4.191   3.623  0.7322  0.0466  0.4065
   86SLPC  H13R 8251   3.462   4.221   3.700 -0.1946 -0.4634 -0.2502
   86SLPC  C214 8252   3.649   4.289   3.602  0.5297  0.1542 -0.5670
   86SLPC  H14R 8253   3.717   4.263   3.518  0.4523  1.0640 -0.9207
   86SLPC  H14S 8254   3.718   4.280   3.689  1.1605 -1.4462 -1.1967
   86SLPC  C215 8255   3.597   4.439   3.602 -0.6898  0.0316 -0.1482
   86SLPC  H15R 8256   3.526   4.470   3.681 -0.4802  0.8710 -0.2766
   86SLPC  H15S 8257   3.545   4.460   3.506  0.7303  5.6326 -0.0235
   86SLPC  C216 8258   3.722   4.535   3.609  0.1339 -0.2823 -0.0472
   86SLPC  H16R 8259   3.804   4.496   3.672 -0.9440 -2.3283  0.1435
   86SLPC  H16S 8260   3.691   4.630   3.657  1.1297  0.8997 -1.6274
   86SLPC  C217 8261   3.788   4.587   3.473  1.0256  0.2579  0.1039
   86SLPC  H17R 8262   3.709   4.640   3.416 -1.0177 -3.0231 -0.3265
   86SLPC  H17S 8263   3.819   4.497   3.416  1.0876  0.2739  0.1126
   86SLPC  C218 8264   3.915   4.669   3.497  0.3809 -0.4718  0.0951
   86SLPC  H18R 8265   3.957   4.704   3.401 -0.5850  2.4068  0.6096
   86SLPC  H18S 8266   3.988   4.608   3.554  1.0614  0.8160  0.6516
   86SLPC  H18T 8267   3.899   4.770   3.542  3.8415 -0.0435  0.6552
   86SLPC   C33 8268   4.231   3.810   2.767 -0.4086  0.1280 -0.2786
   86SLPC   H3X 8269   4.142   3.858   2.812  1.1258  2.0319  0.8893
   86SLPC   H3Y 8270   4.315   3.881   2.752 -1.9171  1.8589 -0.8833
   86SLPC   C34 8271   4.299   3.726   2.872 -0.2348  0.4230 -0.1831
   86SLPC   H4X 8272   4.376   3.654   2.837  1.6136  1.8508  0.8072
   86SLPC   H4Y 8273   4.220   3.657   2.909 -0.9897 -0.0900 -2.5918
   86SLPC   C35 8274   4.349   3.797   2.998  0.1110  0.1742 -0.8151
   86SLPC   H5X 8275   4.279   3.870   3.044 -1.2265 -2.1153  1.0345
   86SLPC   H5Y 8276   4.433   3.861   2.964  1.0206 -0.3359  0.3976
   86SLPC   C36 8277   4.401   3.696   3.108  0.6539 -0.2393 -0.1489
   86SLPC   H6X 8278   4.450   3.603   3.073  0.2685 -1.1483  1.6121
   86SLPC   H6Y 8279   4.315   3.657   3.166  2.0597 -1.0127  1.5327
   86SLPC   C37 8280   4.483   3.763   3.218 -0.1099  0.2240 -0.1313
   86SLPC   H7X 8281   4.469   3.873   3.231 -0.2740 -0.0342  2.4698
   86SLPC   H7Y 8282   4.591   3.762   3.192  0.0902  0.5406  0.6626
   86SLPC   C38 8283   4.468   3.704   3.356  0.2844 -0.0079  0.0242
   86SLPC   H8X 8284   4.481   3.594   3.346 -1.7405 -0.4935  1.8849
   86SLPC   H8Y 8285   4.367   3.721   3.399  0.6005  0.4702  0.5990
   86SLPC   C39 8286   4.568   3.773   3.458 -0.3185  0.3934 -0.6215
   86SLPC   H9X 8287   4.544   3.882   3.464  0.9940  0.6828 -0.1517
   86SLPC   H9Y 8288   4.674   3.774   3.423  0.1175 -0.7773  0.5805
   86SLPC  C310 8289   4.555   3.717   3.597  0.4195 -0.1822 -0.5046
   86SLPC  H10X 8290   4.640   3.748   3.662 -3.5307  1.7477  4.4609
   86SLPC  H10Y 8291   4.551   3.607   3.589  1.3103 -0.2544 -0.0795
   86SLPC  C311 8292   4.444   3.781   3.679  0.2928  0.1355 -0.6683
   86SLPC  H11X 8293   4.350   3.789   3.619 -0.1133  1.0046  0.0506
   86SLPC  H11Y 8294   4.465   3.888   3.702 -0.2353 -0.1514  1.3919
   86SLPC  C312 8295   4.413   3.700   3.806  1.0504  0.4920  0.4770
   86SLPC  H12X 8296   4.499   3.700   3.876  3.6521 -0.3998 -2.4778
   86SLPC  H12Y 8297   4.410   3.591   3.782  2.7539  0.5661 -0.2325
   86SLPC  C313 8298   4.280   3.740   3.878  0.3109  0.2620  0.5763
   86SLPC  H13X 8299   4.248   3.673   3.961 -1.7954 -1.6998 -1.6530
   86SLPC  H13Y 8300   4.200   3.729   3.803  0.8601  0.1462 -0.0054
   86SLPC  C314 8301   4.283   3.887   3.940 -0.0987 -0.3951  0.3491
   86SLPC  H14X 8302   4.182   3.911   3.980 -0.8160 -1.1908 -0.9188
   86SLPC  H14Y 8303   4.307   3.955   3.855 -0.0020 -0.3215  0.4354
   86SLPC  C315 8304   4.392   3.902   4.049 -0.1313 -0.2520 -0.1249
   86SLPC  H15X 8305   4.480   3.854   4.001 -0.8305  0.6515 -2.4512
   86SLPC  H15Y 8306   4.365   3.835   4.133 -0.6771 -0.4439 -0.4450
   86SLPC  C316 8307   4.415   4.041   4.105  0.5978  0.7053  0.5457
   86SLPC  H16X 8308   4.325   4.072   4.162  0.7489  0.4726  0.9178
   86SLPC  H16Y 8309   4.413   4.108   4.016 -0.4937  0.9492  0.7399
   86SLPC  C317 8310   4.542   4.048   4.192 -0.2215  0.4110  0.3578
   86SLPC  H17X 8311   4.632   4.007   4.140  0.4027  0.2766  1.4983
   86SLPC  H17Y 8312   4.528   3.982   4.280 -0.7953 -0.6339 -0.4888
   86SLPC  C318 8313   4.576   4.185   4.243 -0.2184 -0.8069  0.0617
   86SLPC  H18X 8314   4.492   4.220   4.307  0.2950 -0.9831  0.8548
   86SLPC  H18Y 8315   4.588   4.259   4.161  0.3418  1.6009  2.1748
   86SLPC  H18Z 8316   4.667   4.183   4.307  0.4593  0.1053 -0.8442
   87SLPC     N 8317   2.762   5.449   1.744 -0.3334  0.1891 -0.0033
   87SLPC   C13 8318   2.698   5.422   1.612 -0.0014  0.7347 -0.4906
   87SLPC  H13A 8319   2.726   5.325   1.574  0.2487  0.8537 -0.6220
   87SLPC  H13B 8320   2.591   5.430   1.620 -0.1731  2.0949 -2.9394
   87SLPC  H13C 8321   2.727   5.490   1.532 -1.8156 -0.8688 -2.6193
   87SLPC   C14 8322   2.708   5.576   1.798 -0.6436  0.6661 -0.0454
   87SLPC  H14A 8323   2.739   5.655   1.731  0.8550 -1.0482 -1.4759
   87SLPC  H14B 8324   2.601   5.582   1.812 -0.5118  3.8975  0.3613
   87SLPC  H14C 8325   2.744   5.603   1.896 -1.3460  2.1051 -0.1529
   87SLPC   C15 8326   2.903   5.449   1.713 -0.9564 -0.6404 -0.2245
   87SLPC  H15A 8327   2.925   5.536   1.654 -2.0498 -0.8765 -1.0135
   87SLPC  H15B 8328   2.980   5.445   1.789  1.4721  2.1816 -2.3212
   87SLPC  H15C 8329   2.927   5.363   1.651  0.9760  0.8985 -1.7646
   87SLPC   C12 8330   2.728   5.334   1.842  0.9445  0.4570 -1.1929
   87SLPC  H12A 8331   2.620   5.330   1.852  0.8653  2.7940 -0.6314
   87SLPC  H12B 8332   2.761   5.363   1.941  0.4651  1.1080 -1.2141
   87SLPC   C11 8333   2.784   5.190   1.830  0.1861 -0.5512 -0.6799
   87SLPC  H11A 8334   2.751   5.144   1.926 -0.3182  0.2854 -0.4378
   87SLPC  H11B 8335   2.894   5.198   1.840  0.1221 -1.1468  0.8488
   87SLPC     P 8336   2.587   5.061   1.723  0.3762 -0.2549  0.5952
   87SLPC   O13 8337   2.528   5.095   1.590  0.3410  0.2862  0.1625
   87SLPC   O14 8338   2.593   4.918   1.761 -0.6549 -0.1839  0.5677
   87SLPC   O12 8339   2.731   5.114   1.726  0.4313 -0.5562  0.6788
   87SLPC   O11 8340   2.511   5.140   1.837  0.8691  0.5368  0.5613
   87SLPC    C1 8341   2.368   5.159   1.823 -0.4310 -0.0780 -0.1888
   87SLPC    HA 8342   2.349   5.245   1.755 -1.1263 -1.5418 -1.9150
   87SLPC    HB 8343   2.311   5.073   1.783 -0.7615  0.0669 -0.0337
   87SLPC    C2 8344   2.292   5.199   1.950  0.1188 -0.2531 -0.5954
   87SLPC    HS 8345   2.187   5.218   1.921  0.1217  0.3017 -0.2584
   87SLPC   O21 8346   2.364   5.306   2.008  0.3603 -0.1776  0.1402
   87SLPC   C21 8347   2.293   5.373   2.096 -0.2849  0.1954  0.6745
   87SLPC   O22 8348   2.175   5.350   2.121 -0.1004 -0.4245  0.3909
   87SLPC   C22 8349   2.379   5.487   2.160  0.0494  0.2149  0.2462
   87SLPC   H2R 8350   2.480   5.452   2.131 -0.3288 -1.1848  0.5820
   87SLPC   H2S 8351   2.356   5.588   2.118  3.8051  0.4056 -1.8106
   87SLPC    C3 8352   2.290   5.077   2.055 -0.3300  0.3340 -0.1741
   87SLPC    HX 8353   2.398   5.050   2.063 -0.6320 -0.7353  0.2983
   87SLPC    HY 8354   2.237   4.986   2.021  0.5386 -0.2017 -0.1177
   87SLPC   O31 8355   2.245   5.119   2.190 -0.2667 -0.0603  0.0718
   87SLPC   C31 8356   2.118   5.103   2.219 -0.4795  0.7520 -0.0035
   87SLPC   O32 8357   2.029   5.057   2.148  0.4624 -0.1954  0.4906
   87SLPC   C32 8358   2.092   5.144   2.358 -0.0770 -0.0669 -0.2805
   87SLPC   H2X 8359   2.120   5.252   2.362 -1.2742  0.3046 -1.2013
   87SLPC   H2Y 8360   2.165   5.098   2.428  0.4120  1.7113  0.4482
   87SLPC   C23 8361   2.360   5.491   2.308 -0.6216  0.0239 -0.9070
   87SLPC   H3R 8362   2.256   5.472   2.340  0.3199  0.0362  2.5905
   87SLPC   H3S 8363   2.373   5.597   2.340  0.1639 -0.0307 -1.0090
   87SLPC   C24 8364   2.465   5.412   2.380  0.4546 -0.4943  0.1470
   87SLPC   H4R 8365   2.558   5.458   2.342  1.2854 -2.5437 -0.4609
   87SLPC   H4S 8366   2.457   5.307   2.344 -0.5936 -0.1237 -0.7533
   87SLPC   C25 8367   2.461   5.428   2.531  0.4907 -0.1797 -0.0734
   87SLPC   H5R 8368   2.434   5.533   2.553  0.2229  0.0951 -1.6533
   87SLPC   H5S 8369   2.556   5.397   2.580 -0.5771 -2.8672  0.4769
   87SLPC   C26 8370   2.350   5.354   2.607  0.5750  0.2260 -0.1217
   87SLPC   H6R 8371   2.385   5.248   2.609  0.7888  0.2962 -0.1838
   87SLPC   H6S 8372   2.255   5.379   2.554 -0.8841  0.2531  2.3341
   87SLPC   C27 8373   2.326   5.385   2.750 -0.6480  0.2769  0.4322
   87SLPC   H7R 8374   2.317   5.495   2.764  0.5471  0.2398  1.7139
   87SLPC   H7S 8375   2.419   5.351   2.801  0.3431  0.5726 -1.1411
   87SLPC   C28 8376   2.208   5.328   2.824  0.1756 -1.2151 -0.4894
   87SLPC   H8R 8377   2.204   5.219   2.805  0.9380 -1.1997 -0.7516
   87SLPC   H8S 8378   2.114   5.366   2.778  0.2972 -1.3447 -0.8440
   87SLPC   C29 8379   2.218   5.363   2.975 -0.6843 -0.0851  0.6834
   87SLPC   H9R 8380   2.319   5.401   2.995  0.7961 -1.5542 -2.9793
   87SLPC  C210 8381   2.128   5.342   3.067  0.5947 -0.1735 -0.0853
   87SLPC  H10R 8382   2.161   5.349   3.171 -2.2292  0.9040  0.8169
   87SLPC  C211 8383   1.998   5.267   3.036  0.0207  0.0875 -0.0275
   87SLPC  H11R 8384   2.013   5.157   3.042  1.2816  0.2920  0.7148
   87SLPC  H11S 8385   1.964   5.286   2.931 -3.5654 -0.8777  0.7963
   87SLPC  C212 8386   1.879   5.297   3.127  0.6834  0.1450 -0.0809
   87SLPC  H12R 8387   1.795   5.346   3.075  2.3432  0.9227 -2.2009
   87SLPC  C213 8388   1.856   5.236   3.244 -0.2782 -0.3701 -0.5988
   87SLPC  H13R 8389   1.758   5.250   3.292 -1.4005 -1.9800 -2.3002
   87SLPC  C214 8390   1.951   5.160   3.329  0.2065 -0.6190  0.1790
   87SLPC  H14R 8391   2.048   5.154   3.274 -0.1928  0.5338 -0.6692
   87SLPC  H14S 8392   1.911   5.057   3.343 -2.4311  0.4580  1.0607
   87SLPC  C215 8393   1.968   5.215   3.469 -1.0632  0.3880 -0.1171
   87SLPC  H15R 8394   1.869   5.213   3.520  0.1331 -2.5037  2.3651
   87SLPC  H15S 8395   1.993   5.322   3.452 -1.0915  0.5289  0.6864
   87SLPC  C216 8396   2.072   5.149   3.558  0.2831 -0.1500 -1.1989
   87SLPC  H16R 8397   2.170   5.142   3.507  0.0647 -2.4986 -1.3918
   87SLPC  H16S 8398   2.051   5.050   3.605 -0.3416  1.6676  2.7399
   87SLPC  C217 8399   2.098   5.227   3.693  0.2475 -0.4214 -0.4085
   87SLPC  H17R 8400   2.138   5.328   3.670  2.0069 -0.7546  0.9234
   87SLPC  H17S 8401   2.181   5.174   3.745 -1.7168 -1.8047  1.4949
   87SLPC  C218 8402   1.983   5.220   3.792 -0.9731 -0.3252 -0.1082
   87SLPC  H18R 8403   1.903   5.290   3.758 -0.0010  0.9768  0.1974
   87SLPC  H18S 8404   2.008   5.235   3.899  2.4232 -1.5660 -0.5955
   87SLPC  H18T 8405   1.931   5.122   3.793 -1.0270 -0.3176 -1.1574
   87SLPC   C33 8406   1.946   5.124   2.400 -0.8456 -0.2656 -0.7770
   87SLPC   H3X 8407   1.920   5.016   2.402 -1.4854 -0.1153 -0.2732
   87SLPC   H3Y 8408   1.874   5.178   2.334 -1.9185  0.5304  0.9670
   87SLPC   C34 8409   1.927   5.181   2.540 -0.8154  0.0532  0.8878
   87SLPC   H4X 8410   1.936   5.290   2.525  1.3110 -0.2643 -0.5588
   87SLPC   H4Y 8411   2.006   5.158   2.614  2.4372  1.2771 -1.9404
   87SLPC   C35 8412   1.788   5.174   2.599  0.8223 -0.3778  0.4240
   87SLPC   H5X 8413   1.722   5.162   2.510  0.6078  3.6603 -0.1756
   87SLPC   H5Y 8414   1.764   5.274   2.642  0.0497 -0.3071 -0.1564
   87SLPC   C36 8415   1.765   5.062   2.697  0.5162 -0.2374  0.0145
   87SLPC   H6X 8416   1.863   5.048   2.748 -0.8430  0.3761  2.9981
   87SLPC   H6Y 8417   1.759   4.965   2.644 -2.7200 -0.9650  1.4874
   87SLPC   C37 8418   1.650   5.087   2.800 -0.3587 -0.5371  0.2649
   87SLPC   H7X 8419   1.553   5.063   2.752  0.4782 -0.9011 -1.3353
   87SLPC   H7Y 8420   1.644   5.196   2.820 -2.0235 -0.6275  0.3904
   87SLPC   C38 8421   1.680   5.002   2.920 -0.2350  0.2079  0.2411
   87SLPC   H8X 8422   1.785   5.018   2.953  0.1140 -0.3798 -0.5471
   87SLPC   H8Y 8423   1.669   4.896   2.888  1.0469  0.1887 -0.2032
   87SLPC   C39 8424   1.600   5.018   3.043  0.2198 -0.7734 -0.6555
   87SLPC   H9X 8425   1.491   5.002   3.025 -0.1398  0.6537  0.1189
   87SLPC   H9Y 8426   1.607   5.124   3.074  0.5609 -1.1811  0.7552
   87SLPC  C310 8427   1.642   4.937   3.167  0.4182 -0.4215 -0.2642
   87SLPC  H10X 8428   1.749   4.964   3.176  0.9540 -1.7976 -1.9987
   87SLPC  H10Y 8429   1.642   4.829   3.139  0.3883 -0.0042 -1.9374
   87SLPC  C311 8430   1.556   4.970   3.287 -0.4183  0.2373 -0.3119
   87SLPC  H11X 8431   1.446   4.960   3.272  0.0536 -0.6413 -3.9780
   87SLPC  H11Y 8432   1.592   5.068   3.325  0.7396 -0.9662  1.9514
   87SLPC  C312 8433   1.583   4.879   3.408  0.2096 -0.0374 -0.0219
   87SLPC  H12X 8434   1.675   4.924   3.451 -0.2176  0.0099  0.8550
   87SLPC  H12Y 8435   1.597   4.773   3.377 -0.6382 -0.8285  2.1514
   87SLPC  C313 8436   1.479   4.882   3.519  0.2480  0.0096 -0.6500
   87SLPC  H13X 8437   1.382   4.847   3.479 -0.1851 -0.0725  0.4232
   87SLPC  H13Y 8438   1.467   4.981   3.567 -0.4346 -0.3948  0.0450
   87SLPC  C314 8439   1.500   4.794   3.650 -0.2654 -0.1262 -0.4906
   87SLPC  H14X 8440   1.603   4.807   3.691  0.3283 -0.4345 -1.8198
   87SLPC  H14Y 8441   1.504   4.686   3.622  0.2909 -0.6556  1.4428
   87SLPC  C315 8442   1.390   4.814   3.760  0.5354  0.4358  0.0910
   87SLPC  H15X 8443   1.303   4.752   3.730  0.4274  0.8840 -0.5549
   87SLPC  H15Y 8444   1.361   4.921   3.747 -1.8655  0.1174  2.0051
   87SLPC  C316 8445   1.430   4.791   3.909 -0.2339 -0.1337 -0.0617
   87SLPC  H16X 8446   1.509   4.864   3.937  0.6305 -1.7404  1.9835
   87SLPC  H16Y 8447   1.481   4.693   3.919  1.2279  0.6971  1.0019
   87SLPC  C317 8448   1.311   4.827   3.991  0.2335 -0.1505 -1.2854
   87SLPC  H17X 8449   1.222   4.767   3.964  1.0305 -1.0863 -1.8660
   87SLPC  H17Y 8450   1.286   4.934   3.970 -0.2361 -0.1432 -0.7260
   87SLPC  C318 8451   1.349   4.823   4.136  0.1165 -0.5726  0.3451
   87SLPC  H18X 8452   1.264   4.860   4.198  1.0052  0.3283  1.0733
   87SLPC  H18Y 8453   1.436   4.889   4.153  0.3807 -0.5390 -1.0158
   87SLPC  H18Z 8454   1.371   4.719   4.169  1.7171  0.1055  1.5301
   88SLPC     N 8455   3.265   3.194   2.214  0.1361 -0.8724  0.3054
   88SLPC   C13 8456   3.174   3.321   2.217 -0.3973  0.1110 -0.6161
   88SLPC  H13A 8457   3.154   3.366   2.120 -1.0268  1.5404  0.1433
   88SLPC  H13B 8458   3.074   3.294   2.248 -0.2358  3.0056  3.1629
   88SLPC  H13C 8459   3.214   3.396   2.284 -1.8519 -1.2194  1.8892
   88SLPC   C14 8460   3.391   3.230   2.148 -0.1024 -0.1219 -0.0112
   88SLPC  H14A 8461   3.374   3.293   2.062 -1.4019  0.6648  0.7844
   88SLPC  H14B 8462   3.471   3.272   2.207  0.3934  0.6757 -1.2172
   88SLPC  H14C 8463   3.437   3.137   2.118  1.6988  1.3034 -1.9045
   88SLPC   C15 8464   3.181   3.098   2.135  0.4521 -0.4231  0.2043
   88SLPC  H15A 8465   3.158   3.137   2.037 -0.4833 -0.8016  0.2649
   88SLPC  H15B 8466   3.226   3.001   2.121  1.7191  0.2856 -0.8899
   88SLPC  H15C 8467   3.089   3.083   2.189  0.3505  1.0228  0.4665
   88SLPC   C12 8468   3.276   3.133   2.351  0.3568  0.8748  0.0118
   88SLPC  H12A 8469   3.320   3.034   2.348 -0.8329  0.2481  1.5818
   88SLPC  H12B 8470   3.178   3.115   2.394  1.1250  0.6468  1.7513
   88SLPC   C11 8471   3.353   3.222   2.448  0.4386 -0.4145 -0.8283
   88SLPC  H11A 8472   3.336   3.208   2.557  3.0953  4.0297  0.3654
   88SLPC  H11B 8473   3.313   3.325   2.451  0.2335 -0.5061  1.0255
   88SLPC     P 8474   3.588   3.112   2.469 -0.0889 -0.1470  0.1370
   88SLPC   O13 8475   3.529   2.983   2.427 -0.5455  0.4007 -0.5101
   88SLPC   O14 8476   3.729   3.133   2.425  0.2503  0.2385 -0.0395
   88SLPC   O12 8477   3.497   3.230   2.419  0.8567  0.0240 -0.5002
   88SLPC   O11 8478   3.575   3.141   2.621 -0.4270  0.1744 -0.8204
   88SLPC    C1 8479   3.603   3.270   2.676  0.2377 -0.1491 -0.3049
   88SLPC    HA 8480   3.713   3.282   2.664  0.1542 -0.8279 -2.1180
   88SLPC    HB 8481   3.570   3.364   2.628  2.8254  1.8784  1.6057
   88SLPC    C2 8482   3.565   3.288   2.826  0.1269  0.0101  0.2594
   88SLPC    HS 8483   3.598   3.193   2.874 -2.0887 -0.2852  1.3123
   88SLPC   O21 8484   3.425   3.314   2.844 -0.3510 -0.5556 -0.8578
   88SLPC   C21 8485   3.352   3.205   2.853 -0.0903 -0.0579 -0.4252
   88SLPC   O22 8486   3.394   3.091   2.853  0.2390  0.1150 -0.4310
   88SLPC   C22 8487   3.210   3.252   2.897  0.2930 -0.2984  0.0290
   88SLPC   H2R 8488   3.215   3.361   2.921  1.6422 -0.3829  0.2405
   88SLPC   H2S 8489   3.139   3.227   2.817 -0.7110  0.1889  0.7449
   88SLPC    C3 8490   3.653   3.396   2.899 -0.4623  0.1099  0.0667
   88SLPC    HX 8491   3.640   3.380   3.008  0.9773  3.4866  0.8640
   88SLPC    HY 8492   3.609   3.496   2.881 -1.3783 -0.3072 -0.0828
   88SLPC   O31 8493   3.790   3.397   2.873 -0.5439  0.0712  0.0035
   88SLPC   C31 8494   3.865   3.299   2.909 -0.2741 -0.0403 -0.0384
   88SLPC   O32 8495   3.835   3.199   2.972 -0.1447 -0.7325 -0.0524
   88SLPC   C32 8496   4.010   3.326   2.859  0.4304  0.7457  0.1421
   88SLPC   H2X 8497   4.013   3.383   2.764  0.8390 -0.4456 -0.5729
   88SLPC   H2Y 8498   4.064   3.230   2.848 -0.0488  0.5905 -1.0143
   88SLPC   C23 8499   3.160   3.181   3.023  0.1183  0.3296  0.0410
   88SLPC   H3R 8500   3.172   3.071   3.017 -0.1296  0.3442 -0.9022
   88SLPC   H3S 8501   3.052   3.207   3.026  0.5289  2.1158  2.2411
   88SLPC   C24 8502   3.230   3.211   3.151 -0.4511 -0.4849  0.3095
   88SLPC   H4R 8503   3.277   3.312   3.146 -0.7773 -0.3471  0.0193
   88SLPC   H4S 8504   3.315   3.141   3.164  1.6052  1.7022 -0.5497
   88SLPC   C25 8505   3.143   3.199   3.279 -0.1461 -0.0740 -0.3034
   88SLPC   H5R 8506   3.214   3.200   3.365 -0.6929  0.3021  0.1499
   88SLPC   H5S 8507   3.074   3.112   3.269  1.2772 -1.0781 -2.3505
   88SLPC   C26 8508   3.052   3.316   3.305 -0.5377  0.2116  0.4193
   88SLPC   H6R 8509   2.970   3.319   3.230  0.5248 -3.6691 -1.1504
   88SLPC   H6S 8510   3.112   3.409   3.292 -0.1553 -0.0864  0.0198
   88SLPC   C27 8511   3.003   3.323   3.457 -0.0886  0.2588 -0.3095
   88SLPC   H7R 8512   3.078   3.327   3.539 -3.3840  0.5802  2.9264
   88SLPC   H7S 8513   2.953   3.225   3.472 -0.8087  0.7797  0.8430
   88SLPC   C28 8514   2.888   3.421   3.476 -0.0736  0.9456 -0.1000
   88SLPC   H8R 8515   2.813   3.403   3.396  0.1172 -1.1837  0.1298
   88SLPC   H8S 8516   2.920   3.526   3.464  0.0057  1.1062  1.3782
   88SLPC   C29 8517   2.829   3.393   3.610 -0.3014 -0.3179 -0.3769
   88SLPC   H9R 8518   2.739   3.330   3.603 -2.6534  2.7057  0.3649
   88SLPC  C210 8519   2.868   3.440   3.732 -0.0871 -0.5875  0.7355
   88SLPC  H10R 8520   2.812   3.399   3.818  0.1297 -0.2705  1.0329
   88SLPC  C211 8521   2.986   3.534   3.749  0.1243  0.9480  0.1961
   88SLPC  H11R 8522   3.011   3.593   3.658  0.2361  1.1885  0.3814
   88SLPC  H11S 8523   3.074   3.468   3.759 -0.8643 -0.6392 -0.9968
   88SLPC  C212 8524   2.989   3.624   3.870  0.0970 -1.1387  0.3375
   88SLPC  H12R 8525   2.996   3.566   3.964 -1.4793 -0.2895  1.0180
   88SLPC  C213 8526   2.978   3.756   3.880  0.2568 -0.6391  0.4573
   88SLPC  H13R 8527   2.991   3.802   3.979  2.2005 -1.2678  0.5303
   88SLPC  C214 8528   2.976   3.855   3.767 -0.3286 -0.0425 -0.1374
   88SLPC  H14R 8529   2.885   3.919   3.777 -1.1198 -1.4378  2.3913
   88SLPC  H14S 8530   2.975   3.813   3.664  1.3110  1.4647 -0.8135
   88SLPC  C215 8531   3.082   3.968   3.752 -0.1353  0.2960 -0.4576
   88SLPC  H15R 8532   3.056   4.045   3.677  0.5640 -2.0499 -3.2589
   88SLPC  H15S 8533   3.178   3.921   3.722 -0.5310 -1.4742  0.8722
   88SLPC  C216 8534   3.105   4.050   3.887  0.0042  0.4784  0.4770
   88SLPC  H16R 8535   3.122   3.972   3.964 -0.3806 -0.7726 -0.6566
   88SLPC  H16S 8536   3.006   4.093   3.916  0.2570  2.1522 -0.9769
   88SLPC  C217 8537   3.214   4.152   3.891  0.0405  0.3714 -0.6407
   88SLPC  H17R 8538   3.185   4.227   3.814 -0.2652  0.5688 -0.3411
   88SLPC  H17S 8539   3.309   4.102   3.865  1.3092  2.5857 -0.5094
   88SLPC  C218 8540   3.238   4.209   4.029  0.0485  0.2453  0.8470
   88SLPC  H18R 8541   3.260   4.122   4.095 -0.2386  1.4143  2.5506
   88SLPC  H18S 8542   3.147   4.263   4.062 -0.4545  1.8251 -2.7230
   88SLPC  H18T 8543   3.315   4.289   4.038 -0.6777  0.8641  1.7890
   88SLPC   C33 8544   4.077   3.413   2.969  0.8741  0.2208 -0.4400
   88SLPC   H3X 8545   4.054   3.522   2.960 -0.9055  0.2630  2.9900
   88SLPC   H3Y 8546   4.187   3.407   2.950  1.3987  3.6889  0.7332
   88SLPC   C34 8547   4.067   3.368   3.119 -0.1568  0.2614  1.0893
   88SLPC   H4X 8548   4.058   3.258   3.120 -3.7135  0.4513  0.9674
   88SLPC   H4Y 8549   3.973   3.407   3.164 -0.8341 -0.1863  0.0773
   88SLPC   C35 8550   4.179   3.410   3.209 -0.0819  0.1601 -0.5795
   88SLPC   H5X 8551   4.186   3.518   3.185 -0.5595 -0.2555 -2.8690
   88SLPC   H5Y 8552   4.274   3.360   3.178  0.0212 -0.7708  1.1295
   88SLPC   C36 8553   4.141   3.375   3.353  0.1938  0.6246 -0.0443
   88SLPC   H6X 8554   4.154   3.265   3.367 -1.0150  0.4560 -0.1160
   88SLPC   H6Y 8555   4.038   3.408   3.378 -0.5798 -2.1432  0.8439
   88SLPC   C37 8556   4.240   3.439   3.459  0.3684 -0.0600  0.3325
   88SLPC   H7X 8557   4.233   3.550   3.458 -0.5878 -0.0297  2.5703
   88SLPC   H7Y 8558   4.347   3.419   3.437  0.1746  0.9098 -1.6731
   88SLPC   C38 8559   4.225   3.387   3.600  0.3237  0.5127  0.6075
   88SLPC   H8X 8560   4.319   3.406   3.658  0.0568 -0.4239  1.3703
   88SLPC   H8Y 8561   4.221   3.277   3.593 -0.4879  0.6222 -0.9439
   88SLPC   C39 8562   4.101   3.435   3.671  0.1414  0.1665  0.1025
   88SLPC   H9X 8563   4.016   3.429   3.600  0.6396 -0.4558 -0.4497
   88SLPC   H9Y 8564   4.109   3.542   3.700  0.3214  0.5322 -1.2270
   88SLPC  C310 8565   4.090   3.339   3.792 -0.1011 -0.7865 -0.5517
   88SLPC  H10X 8566   4.192   3.348   3.835  1.2580  0.4682 -3.7400
   88SLPC  H10Y 8567   4.076   3.240   3.742  1.1492  0.3436 -3.3729
   88SLPC  C311 8568   3.981   3.368   3.894  0.1965  0.4861  0.5938
   88SLPC  H11X 8569   3.885   3.324   3.859  0.2173 -0.8495  2.0908
   88SLPC  H11Y 8570   3.978   3.479   3.908  0.6523  0.7788 -1.4095
   88SLPC  C312 8571   4.003   3.295   4.031 -0.0887  0.7373  0.4404
   88SLPC  H12X 8572   3.925   3.316   4.107 -2.3049  1.2074 -1.8579
   88SLPC  H12Y 8573   4.099   3.329   4.075 -0.1541  0.8441  0.4993
   88SLPC  C313 8574   4.001   3.138   4.018  0.4807  0.1525 -0.4436
   88SLPC  H13X 8575   4.053   3.093   4.105  0.5600 -0.6121 -0.8792
   88SLPC  H13Y 8576   4.045   3.106   3.921 -0.1571 -1.1694 -0.3159
   88SLPC  C314 8577   3.862   3.074   4.015  0.3225  0.4560  0.0560
   88SLPC  H14X 8578   3.808   3.126   3.933 -0.6770  0.4413  0.7015
   88SLPC  H14Y 8579   3.811   3.091   4.112 -0.2488  1.0539 -0.3476
   88SLPC  C315 8580   3.862   2.917   4.003  0.2613  0.1605 -0.3438
   88SLPC  H15X 8581   3.757   2.886   4.022  0.6075 -0.1044  1.2214
   88SLPC  H15Y 8582   3.926   2.884   4.087  0.3989 -1.3985 -1.0325
   88SLPC  C316 8583   3.930   2.873   3.869 -0.0072 -0.3341  0.9388
   88SLPC  H16X 8584   4.037   2.901   3.855  0.3311 -1.7583  0.5143
   88SLPC  H16Y 8585   3.878   2.924   3.785 -2.3281 -1.2001  1.7640
   88SLPC  C317 8586   3.924   2.728   3.833  0.4471  0.1488  0.6079
   88SLPC  H17X 8587   3.825   2.684   3.856  0.2952  0.5864  0.7967
   88SLPC  H17Y 8588   4.012   2.674   3.876  1.3096 -1.0319 -2.3599
   88SLPC  C318 8589   3.946   2.709   3.686  0.2949 -0.1639 -0.0053
   88SLPC  H18X 8590   3.878   2.764   3.616 -2.0179 -2.7570  0.0441
   88SLPC  H18Y 8591   3.932   2.603   3.657  0.9315 -0.2379 -0.0544
   88SLPC  H18Z 8592   4.050   2.739   3.660 -0.1790  1.1216 -0.4999
   89SAPE     N 8593   4.378   3.622   6.657 -0.1403 -0.1170 -0.7611
   89SAPE   HN1 8594   4.449   3.616   6.733 -0.3894  1.0589 -0.4189
   89SAPE   HN2 8595   4.399   3.708   6.603  4.2426  1.6433  3.0433
   89SAPE   HN3 8596   4.290   3.626   6.710 -0.2694 -2.7531 -0.6455
   89SAPE   C12 8597   4.386   3.507   6.558  0.4107 -0.4209 -0.1267
   89SAPE  H12A 8598   4.492   3.498   6.525  0.6510  1.7943 -0.1417
   89SAPE  H12B 8599   4.321   3.518   6.468  0.6379 -2.2796 -0.5540
   89SAPE   C11 8600   4.328   3.383   6.631 -0.0084  0.2851  0.2993
   89SAPE  H11A 8601   4.400   3.362   6.712  0.6384 -1.2273 -0.6212
   89SAPE  H11B 8602   4.329   3.287   6.575  1.6611  0.0176  0.7312
   89SAPE     P 8603   4.068   3.413   6.605 -0.3201  0.3879  0.1983
   89SAPE   O13 8604   3.998   3.279   6.625  1.0830  0.3333 -0.7181
   89SAPE   O14 8605   3.994   3.535   6.633 -0.6841 -0.0541 -0.3417
   89SAPE   O12 8606   4.202   3.406   6.685 -0.3790 -0.0060  0.0409
   89SAPE   O11 8607   4.125   3.415   6.454  0.0479 -0.1882  0.5539
   89SAPE    C1 8608   4.042   3.355   6.351  0.0416  0.2963 -0.0233
   89SAPE    HA 8609   3.995   3.259   6.382  4.4039 -2.7157 -1.7264
   89SAPE    HB 8610   3.965   3.433   6.336  1.1083  1.6116  1.0562
   89SAPE    C2 8611   4.120   3.328   6.224  0.2119 -0.5965 -0.0477
   89SAPE    HS 8612   4.204   3.258   6.242 -0.7447 -1.7277  0.0948
   89SAPE   O21 8613   4.147   3.457   6.161 -0.2817  0.3785 -0.4986
   89SAPE   C21 8614   4.268   3.472   6.115 -0.0801  0.2051  0.0997
   89SAPE   O22 8615   4.363   3.394   6.131  0.0808 -0.1802  0.0220
   89SAPE   C22 8616   4.270   3.602   6.034  0.1798 -0.6500 -0.2692
   89SAPE   H2R 8617   4.170   3.618   5.988 -0.0265  1.0032  0.6543
   89SAPE   H2S 8618   4.286   3.680   6.112  0.0841  2.2799 -2.9559
   89SAPE    C3 8619   4.003   3.265   6.133  0.4335  0.0299  0.2034
   89SAPE    HX 8620   3.911   3.328   6.127 -0.7380 -1.7197 -1.3277
   89SAPE    HY 8621   3.962   3.174   6.181  0.6210 -0.0152  0.2764
   89SAPE   O31 8622   4.032   3.233   6.001  0.0040  0.3445  0.3688
   89SAPE   C31 8623   4.106   3.127   5.983  0.1045  1.4896  0.2164
   89SAPE   O32 8624   4.121   3.036   6.065 -0.4273  0.2537 -0.2649
   89SAPE   C32 8625   4.165   3.126   5.843 -0.2815  0.4351 -0.8411
   89SAPE   H2X 8626   4.176   3.234   5.819  0.8519  0.6276  0.4195
   89SAPE   H2Y 8627   4.081   3.084   5.783 -0.9146  0.4548  0.0226
   89SAPE   C23 8628   4.386   3.600   5.928 -0.0442  0.6599 -0.0740
   89SAPE   H3R 8629   4.359   3.536   5.841 -0.0551 -2.3797  1.9806
   89SAPE   H3S 8630   4.481   3.560   5.969 -0.5139 -1.9978 -1.2892
   89SAPE   C24 8631   4.420   3.738   5.873  0.0887 -0.3087  0.9195
   89SAPE   H4R 8632   4.482   3.723   5.782 -2.0485 -2.6074 -0.2589
   89SAPE   H4S 8633   4.472   3.799   5.950  1.6911  0.1414 -0.4532
   89SAPE   C25 8634   4.299   3.821   5.837  0.4736  0.4287  0.4982
   89SAPE   H5R 8635   4.244   3.863   5.923 -2.2734  0.5568 -1.1985
   89SAPE   C26 8636   4.257   3.851   5.711 -0.2389 -0.3549 -0.3026
   89SAPE   H6R 8637   4.154   3.887   5.700 -0.5668 -1.0162  0.5231
   89SAPE   C27 8638   4.314   3.812   5.583 -0.0528  0.0633 -0.0661
   89SAPE   H7R 8639   4.406   3.753   5.603  0.1409 -0.3371 -1.9933
   89SAPE   H7S 8640   4.367   3.899   5.539 -1.3177  0.0859 -1.6202
   89SAPE   C28 8641   4.235   3.732   5.484 -0.0378 -0.3430  0.7724
   89SAPE   H8R 8642   4.238   3.622   5.476 -2.1247 -0.4326  0.8243
   89SAPE   C29 8643   4.156   3.793   5.395 -0.0670  0.4041 -0.1951
   89SAPE   H9R 8644   4.097   3.722   5.334  2.6382 -2.1156 -0.1243
   89SAPE  C210 8645   4.126   3.939   5.378  0.4620 -0.2197 -0.4363
   89SAPE  H10R 8646   4.188   3.986   5.299  2.9221  0.4814  1.8033
   89SAPE  H10S 8647   4.147   3.997   5.470 -1.4341  1.7672 -1.1546
   89SAPE  C211 8648   3.979   3.965   5.341 -0.1673 -0.3284 -0.2360
   89SAPE  H11R 8649   3.911   3.995   5.422 -0.0865  0.7001 -0.5384
   89SAPE  C212 8650   3.929   3.949   5.217  0.1818  0.2425  0.1820
   89SAPE  H12R 8651   3.820   3.969   5.212  0.0052 -0.1628  1.8414
   89SAPE  C213 8652   3.992   3.890   5.092 -0.3597 -0.2634 -0.4088
   89SAPE  H13R 8653   4.103   3.885   5.100 -0.4581 -1.0970  0.5932
   89SAPE  H13S 8654   3.970   3.957   5.006 -0.1585 -0.8471 -0.9194
   89SAPE  C214 8655   3.945   3.748   5.063 -0.2409 -0.3923 -0.1687
   89SAPE  H14R 8656   3.880   3.700   5.137 -1.8520 -0.3028 -1.4826
   89SAPE  C215 8657   3.963   3.683   4.945  0.7459  0.1400  0.0631
   89SAPE  H15R 8658   3.921   3.584   4.919  0.4316  0.1325  0.5670
   89SAPE  C216 8659   4.033   3.741   4.832  0.7388 -0.1566  0.6840
   89SAPE  H16R 8660   4.051   3.849   4.849 -2.9975  0.7531 -0.3111
   89SAPE  H16S 8661   3.972   3.753   4.740  0.6393 -0.2117  0.7433
   89SAPE  C217 8662   4.162   3.648   4.803  0.2108 -1.5342  0.3594
   89SAPE  H17R 8663   4.227   3.675   4.889 -0.1915 -0.0590  0.2375
   89SAPE  H17S 8664   4.203   3.685   4.706  0.8981 -0.6484  0.9724
   89SAPE  C218 8665   4.154   3.498   4.776  0.3789  0.7638  1.1361
   89SAPE  H18R 8666   4.055   3.485   4.727 -0.6478 -1.4132  3.6044
   89SAPE  H18S 8667   4.137   3.441   4.869 -0.0514 -0.2182  0.4716
   89SAPE  C219 8668   4.266   3.430   4.690  0.4384 -0.5151  0.0198
   89SAPE  H19R 8669   4.257   3.321   4.708 -1.1103 -1.0956 -3.4825
   89SAPE  H19S 8670   4.369   3.462   4.719  0.4796  0.0434 -0.7225
   89SAPE  C220 8671   4.253   3.464   4.542  0.3326 -0.3701  0.1806
   89SAPE  H20R 8672   4.157   3.432   4.496 -0.0499  1.9646 -0.7795
   89SAPE  H20S 8673   4.333   3.414   4.484 -0.1025 -2.7798  1.5360
   89SAPE  H20T 8674   4.263   3.573   4.524  2.5929 -0.2196  1.9884
   89SAPE   C33 8675   4.293   3.049   5.827  0.3302 -0.0648  0.1614
   89SAPE   H3X 8676   4.281   2.939   5.826 -2.5782  0.1066 -3.2339
   89SAPE   H3Y 8677   4.368   3.097   5.895 -0.7268 -1.1773  2.2298
   89SAPE   C34 8678   4.336   3.074   5.682 -0.3747 -0.5447  0.0071
   89SAPE   H4X 8679   4.444   3.051   5.695 -0.5303 -0.3787  1.9494
   89SAPE   H4Y 8680   4.320   3.180   5.652 -1.2723 -1.4812 -3.2012
   89SAPE   C35 8681   4.273   2.987   5.575 -0.5795 -0.5768  0.0085
   89SAPE   H5X 8682   4.170   3.026   5.560  0.2690  2.0249  0.3980
   89SAPE   H5Y 8683   4.270   2.877   5.595 -1.0135 -0.2378  2.0982
   89SAPE   C36 8684   4.338   3.013   5.441 -0.0325 -0.1486  0.7625
   89SAPE   H6X 8685   4.443   2.980   5.431 -0.1646 -0.0031 -1.6797
   89SAPE   H6Y 8686   4.345   3.123   5.425  2.7583 -0.3281  0.3256
   89SAPE   C37 8687   4.235   2.962   5.334 -0.9032  0.1614  0.6088
   89SAPE   H7X 8688   4.144   3.026   5.332  0.4294  2.1298 -1.2829
   89SAPE   H7Y 8689   4.217   2.857   5.365 -0.4956  0.4095  1.7479
   89SAPE   C38 8690   4.286   2.981   5.190 -0.1040  0.0596 -0.0265
   89SAPE   H8X 8691   4.340   3.077   5.175 -0.9777  0.7994  1.3014
   89SAPE   H8Y 8692   4.207   2.973   5.113  1.0000 -2.7720 -1.0111
   89SAPE   C39 8693   4.382   2.870   5.143  0.6820  0.2997 -0.1727
   89SAPE   H9X 8694   4.345   2.776   5.189  2.4221 -0.6714 -0.6826
   89SAPE   H9Y 8695   4.476   2.898   5.194  0.3789  0.7520  0.1450
   89SAPE  C310 8696   4.384   2.870   4.997 -0.0212 -0.3671  0.5131
   89SAPE  H10X 8697   4.400   2.969   4.948  0.7929 -0.6646  0.1624
   89SAPE  H10Y 8698   4.292   2.822   4.958  0.9005 -1.3824 -0.4754
   89SAPE  C311 8699   4.496   2.784   4.943  0.2513  0.2324 -0.1337
   89SAPE  H11X 8700   4.499   2.688   4.999 -0.8956 -2.6918 -4.5736
   89SAPE  H11Y 8701   4.588   2.846   4.947  0.8926 -0.6320 -1.2430
   89SAPE  C312 8702   4.484   2.747   4.793  0.4859  0.7366  0.9617
   89SAPE  H12X 8703   4.478   2.842   4.735 -0.2583 -0.5498 -1.2060
   89SAPE  H12Y 8704   4.390   2.698   4.758  2.0248 -1.6589 -0.0729
   89SAPE  C313 8705   4.601   2.672   4.728  0.5398 -0.3696 -0.0366
   89SAPE  H13X 8706   4.589   2.563   4.748 -1.5263 -0.2374 -0.3059
   89SAPE  H13Y 8707   4.696   2.709   4.771  0.5446  0.5183 -0.7715
   89SAPE  C314 8708   4.604   2.679   4.577 -0.2632  0.2785 -0.1704
   89SAPE  H14X 8709   4.701   2.633   4.548 -0.3602  1.5043 -2.6138
   89SAPE  H14Y 8710   4.610   2.786   4.547  0.0376  0.4457  0.4668
   89SAPE  C315 8711   4.492   2.598   4.506  0.1212  0.6250 -0.2557
   89SAPE  H15X 8712   4.398   2.651   4.532 -0.2623  1.2860 -2.7584
   89SAPE  H15Y 8713   4.481   2.499   4.555 -0.8839  1.3518  1.0576
   89SAPE  C316 8714   4.479   2.585   4.357  0.0104  0.1905 -0.1182
   89SAPE  H16X 8715   4.554   2.511   4.322 -0.5317  0.0252 -0.9632
   89SAPE  H16Y 8716   4.519   2.678   4.313  0.3676  0.3693  0.5814
   89SAPE  C317 8717   4.341   2.534   4.305  0.6196 -0.2600  0.0859
   89SAPE  H17X 8718   4.263   2.576   4.372  0.1090 -1.3399  0.1879
   89SAPE  H17Y 8719   4.339   2.427   4.336 -0.9066  0.2397  1.9490
   89SAPE  C318 8720   4.309   2.565   4.160 -0.0967  0.4583  0.2349
   89SAPE  H18X 8721   4.301   2.676   4.157 -0.1215  0.4510  0.0227
   89SAPE  H18Y 8722   4.211   2.528   4.124  0.1869 -0.4434  0.3646
   89SAPE  H18Z 8723   4.393   2.528   4.098 -0.1237 -2.4029  1.7478
   90SAPE     N 8724   0.222   3.926   6.267 -0.0263  0.6999 -0.7350
   90SAPE   HN1 8725   0.251   4.024   6.247  1.4478  0.3260 -0.6178
   90SAPE   HN2 8726   0.305   3.878   6.307  0.3418  1.6386 -0.3409
   90SAPE   HN3 8727   0.202   3.882   6.175  1.8008 -0.9317 -0.4122
   90SAPE   C12 8728   0.090   3.921   6.351 -0.1986 -0.1452  0.1204
   90SAPE  H12A 8729   0.010   3.968   6.291 -1.2798 -1.4751  0.4701
   90SAPE  H12B 8730   0.112   3.974   6.446 -1.0139 -1.7390  1.2422
   90SAPE   C11 8731   0.044   3.775   6.382  0.3035 -0.2486 -0.9353
   90SAPE  H11A 8732   0.012   3.722   6.290 -0.9968 -1.0766 -0.0484
   90SAPE  H11B 8733  -0.053   3.777   6.438  0.0613 -2.8616 -1.1359
   90SAPE     P 8734   0.116   3.548   6.485  0.4539  0.3304 -0.4048
   90SAPE   O13 8735   0.250   3.496   6.526  0.2766 -0.2616  0.4000
   90SAPE   O14 8736   0.006   3.538   6.577  0.7725  0.0401 -0.3258
   90SAPE   O12 8737   0.139   3.705   6.457  0.0449  0.3970  0.1467
   90SAPE   O11 8738   0.079   3.486   6.342 -0.2793 -0.0154 -0.1350
   90SAPE    C1 8739   0.175   3.478   6.240 -0.7469 -0.3016 -0.3234
   90SAPE    HA 8740   0.235   3.571   6.224  1.5483 -1.7371 -0.5273
   90SAPE    HB 8741   0.240   3.391   6.265 -1.9376 -1.5605 -1.5108
   90SAPE    C2 8742   0.100   3.440   6.113  0.3738  0.1969 -0.5028
   90SAPE    HS 8743   0.076   3.334   6.135 -0.1972  0.6167  1.0127
   90SAPE   O21 8744   0.173   3.455   5.990 -0.4845  0.7301 -0.1150
   90SAPE   C21 8745   0.269   3.358   5.970  0.2632 -0.3064  0.1069
   90SAPE   O22 8746   0.292   3.275   6.057  0.0544 -0.0476  0.7351
   90SAPE   C22 8747   0.364   3.397   5.854  0.7219 -0.3325 -0.3491
   90SAPE   H2R 8748   0.339   3.501   5.824  2.6911 -0.0251 -1.0816
   90SAPE   H2S 8749   0.468   3.402   5.895  1.5357  3.3607 -2.4720
   90SAPE    C3 8750  -0.040   3.506   6.089 -0.1918 -0.1756 -0.0376
   90SAPE    HX 8751  -0.005   3.605   6.053  2.4243 -1.7771 -2.2869
   90SAPE    HY 8752  -0.104   3.507   6.180 -1.5687 -0.6040 -0.9653
   90SAPE   O31 8753  -0.117   3.440   5.991  0.0091  0.3292  0.5238
   90SAPE   C31 8754  -0.232   3.505   5.953 -0.0177 -1.0458  0.8029
   90SAPE   O32 8755  -0.268   3.610   5.996  0.2905  0.2303 -0.6526
   90SAPE   C32 8756  -0.297   3.428   5.831 -0.2844  0.1333  0.3620
   90SAPE   H2X 8757  -0.405   3.453   5.837 -0.8419 -2.2204  1.1018
   90SAPE   H2Y 8758  -0.277   3.319   5.844 -2.0329 -0.7577 -3.0877
   90SAPE   C23 8759   0.366   3.289   5.743  0.0671 -0.0272 -1.0071
   90SAPE   H3R 8760   0.264   3.249   5.721  0.3175 -0.8481 -0.7124
   90SAPE   H3S 8761   0.429   3.204   5.780  0.4521  1.0498  0.9671
   90SAPE   C24 8762   0.417   3.361   5.621 -0.2674 -0.2624 -0.1019
   90SAPE   H4R 8763   0.431   3.280   5.546 -0.2117 -1.5108  1.2208
   90SAPE   H4S 8764   0.516   3.410   5.620  0.9412 -2.5736 -0.8695
   90SAPE   C25 8765   0.325   3.457   5.556  0.2943 -0.0855 -0.0024
   90SAPE   H5R 8766   0.282   3.537   5.619 -0.3866 -1.4453  1.3310
   90SAPE   C26 8767   0.292   3.465   5.422  0.2158  0.0407 -0.4011
   90SAPE   H6R 8768   0.232   3.554   5.398 -1.1638 -0.3237  1.4270
   90SAPE   C27 8769   0.338   3.373   5.308  0.4274  0.2891 -0.2256
   90SAPE   H7R 8770   0.266   3.289   5.302  0.4643  0.0805  1.6818
   90SAPE   H7S 8771   0.436   3.329   5.337  0.5088  0.2315 -0.5811
   90SAPE   C28 8772   0.350   3.435   5.172 -0.4049  0.4226 -0.3543
   90SAPE   H8R 8773   0.284   3.523   5.168 -0.0057  0.6918 -2.0368
   90SAPE   C29 8774   0.420   3.386   5.070  0.2033  0.6061  0.5806
   90SAPE   H9R 8775   0.411   3.430   4.970  1.3438 -0.0611  0.1609
   90SAPE  C210 8776   0.518   3.268   5.071  0.2645  0.6354 -0.5902
   90SAPE  H10R 8777   0.497   3.209   4.979 -0.2161  0.8299 -0.6097
   90SAPE  H10S 8778   0.486   3.199   5.151  1.5460 -0.7031 -1.1911
   90SAPE  C211 8779   0.666   3.297   5.098  0.5038 -0.0523 -0.1648
   90SAPE  H11R 8780   0.687   3.316   5.204  2.4545 -0.8206 -0.3708
   90SAPE  C212 8781   0.766   3.285   5.009 -0.6057 -0.0180 -0.0495
   90SAPE  H12R 8782   0.865   3.327   5.030 -0.3519 -0.8540  0.4569
   90SAPE  C213 8783   0.744   3.229   4.867  0.3627 -0.6172 -0.5148
   90SAPE  H13R 8784   0.697   3.308   4.804  1.6075  0.4730 -0.1444
   90SAPE  H13S 8785   0.680   3.140   4.881  0.8536 -0.6585  1.7604
   90SAPE  C214 8786   0.869   3.180   4.802  0.3441 -0.2259  0.0044
   90SAPE  H14R 8787   0.921   3.093   4.846  1.5013  0.3699 -0.1707
   90SAPE  C215 8788   0.917   3.232   4.697 -0.3747  0.2411 -0.0359
   90SAPE  H15R 8789   1.010   3.186   4.661  0.3436  0.5556  1.3443
   90SAPE  C216 8790   0.866   3.356   4.624  0.2099 -0.8024 -0.2154
   90SAPE  H16R 8791   0.758   3.350   4.601 -0.1147  0.4761  0.8844
   90SAPE  H16S 8792   0.918   3.351   4.526 -3.0209 -1.9697 -2.0015
   90SAPE  C217 8793   0.904   3.498   4.679  0.7680 -0.3283 -0.5394
   90SAPE  H17R 8794   0.839   3.510   4.769  0.5216 -1.8129 -0.4992
   90SAPE  H17S 8795   0.876   3.589   4.621  0.2106  0.7809  1.3338
   90SAPE  C218 8796   1.055   3.511   4.713  0.9669 -0.2185  0.8308
   90SAPE  H18R 8797   1.121   3.502   4.625  1.2189  0.3517  0.9550
   90SAPE  H18S 8798   1.088   3.419   4.764  0.8357  0.3853  2.0442
   90SAPE  C219 8799   1.089   3.634   4.793 -0.4210  0.1728  0.4596
   90SAPE  H19R 8800   1.039   3.722   4.748 -1.5996 -0.4937  0.3921
   90SAPE  H19S 8801   1.199   3.647   4.797 -0.4505  0.1382  1.8394
   90SAPE  C220 8802   1.046   3.618   4.937 -0.8660  0.0857  0.7096
   90SAPE  H20R 8803   0.950   3.563   4.949 -0.5834 -0.5976 -0.0719
   90SAPE  H20S 8804   1.043   3.719   4.985 -0.1966 -0.1375  1.2389
   90SAPE  H20T 8805   1.120   3.556   4.991  1.9659  1.4127 -1.4054
   90SAPE   C33 8806  -0.215   3.470   5.700  0.4934  0.3746 -0.0074
   90SAPE   H3X 8807  -0.238   3.394   5.622 -3.6833  1.9236 -0.5400
   90SAPE   H3Y 8808  -0.105   3.461   5.713  0.1461 -2.2016  1.9632
   90SAPE   C34 8809  -0.258   3.604   5.642 -0.1612  0.1365 -0.0312
   90SAPE   H4X 8810  -0.205   3.616   5.545  2.2873 -1.1588  1.0532
   90SAPE   H4Y 8811  -0.217   3.667   5.724 -0.0589 -0.5582  0.4537
   90SAPE   C35 8812  -0.410   3.621   5.608 -0.2594 -1.2803 -0.6307
   90SAPE   H5X 8813  -0.465   3.554   5.678  1.1482 -0.8112  1.0176
   90SAPE   H5Y 8814  -0.413   3.563   5.514 -0.1219 -2.1286 -0.1295
   90SAPE   C36 8815  -0.459   3.770   5.593  0.6604 -0.5143 -0.2195
   90SAPE   H6X 8816  -0.445   3.825   5.689 -1.0866  1.7243 -1.1518
   90SAPE   H6Y 8817  -0.564   3.777   5.558  0.7261  1.4920 -0.1573
   90SAPE   C37 8818  -0.373   3.852   5.493  0.0424 -0.0204 -0.3610
   90SAPE   H7X 8819  -0.271   3.853   5.536 -0.1518 -0.1698  0.1153
   90SAPE   H7Y 8820  -0.407   3.958   5.494  0.0500 -0.0177 -0.3674
   90SAPE   C38 8821  -0.359   3.793   5.347  0.0753  0.0480 -0.3174
   90SAPE   H8X 8822  -0.461   3.781   5.304  0.0155  1.3393 -0.5795
   90SAPE   H8Y 8823  -0.304   3.697   5.345 -2.1234 -1.2645 -0.8875
   90SAPE   C39 8824  -0.278   3.892   5.255  0.3647  0.4320 -0.3103
   90SAPE   H9X 8825  -0.172   3.897   5.290  0.4850 -0.6941 -0.4831
   90SAPE   H9Y 8826  -0.321   3.994   5.246 -0.8228 -0.1619 -1.7393
   90SAPE  C310 8827  -0.275   3.834   5.117 -0.2578 -0.3446  0.1477
   90SAPE  H10X 8828  -0.378   3.802   5.092  0.5336 -1.6373 -1.6583
   90SAPE  H10Y 8829  -0.210   3.744   5.107  0.5901  0.3033 -0.2465
   90SAPE  C311 8830  -0.239   3.931   5.006  0.9632  0.1222 -0.3925
   90SAPE  H11X 8831  -0.309   4.016   4.989  0.6680  0.4611  2.1918
   90SAPE  H11Y 8832  -0.238   3.881   4.907  0.5848  0.2741 -0.4779
   90SAPE  C312 8833  -0.095   3.994   5.030  0.4996  0.1097  0.6666
   90SAPE  H12X 8834  -0.015   3.916   5.035 -2.6601 -3.5121 -0.2139
   90SAPE  H12Y 8835  -0.094   4.042   5.130 -2.0368  0.0100  0.7896
   90SAPE  C313 8836  -0.073   4.109   4.924 -0.4042 -0.5082 -0.4047
   90SAPE  H13X 8837   0.033   4.142   4.927 -0.0409 -1.4223 -2.0278
   90SAPE  H13Y 8838  -0.128   4.198   4.960  1.2723  0.3210  0.1872
   90SAPE  C314 8839  -0.104   4.088   4.781 -0.0280  0.5015  0.6393
   90SAPE  H14X 8840  -0.214   4.073   4.769  0.1857 -0.7884  0.2247
   90SAPE  H14Y 8841  -0.061   3.993   4.744 -2.1008  0.9652 -3.5314
   90SAPE  C315 8842  -0.061   4.189   4.680  0.0258  0.2071 -0.4168
   90SAPE  H15X 8843   0.046   4.185   4.650  0.8227  3.3129  1.5439
   90SAPE  H15Y 8844  -0.080   4.290   4.722  1.6092 -0.3248  1.7495
   90SAPE  C316 8845  -0.162   4.196   4.559 -0.4429  0.5422 -0.0126
   90SAPE  H16X 8846  -0.263   4.213   4.602 -0.0467  0.8175  0.8358
   90SAPE  H16Y 8847  -0.162   4.099   4.505  0.2246  0.8032 -0.5008
   90SAPE  C317 8848  -0.105   4.302   4.459 -0.1592 -0.9470  0.3781
   90SAPE  H17X 8849  -0.006   4.267   4.422  0.2906 -0.3562  0.9750
   90SAPE  H17Y 8850  -0.089   4.398   4.514  2.1587  0.3842 -2.3417
   90SAPE  C318 8851  -0.195   4.322   4.338 -0.2505 -0.0936  0.5836
   90SAPE  H18X 8852  -0.146   4.388   4.264 -1.0788 -0.1826 -0.0633
   90SAPE  H18Y 8853  -0.294   4.368   4.362 -0.6627 -1.0009  0.6679
   90SAPE  H18Z 8854  -0.194   4.229   4.278  0.1334  1.7467 -2.4649
   91SAPE     N 8855   4.929   6.284   6.895  0.3005 -0.1283 -0.0422
   91SAPE   HN1 8856   4.961   6.383   6.897  1.7715 -0.5851  0.7632
   91SAPE   HN2 8857   4.835   6.280   6.851 -1.0605 -0.6043  2.7198
   91SAPE   HN3 8858   4.919   6.245   6.991 -1.2841 -1.2542 -0.6211
   91SAPE   C12 8859   5.024   6.205   6.808  0.1075 -0.0059 -0.1359
   91SAPE  H12A 8860   5.024   6.237   6.702 -0.1310 -1.0308 -0.4583
   91SAPE  H12B 8861   4.988   6.100   6.797  0.1335 -0.0411  0.1078
   91SAPE   C11 8862   5.160   6.212   6.868  0.2163  0.4203  0.0717
   91SAPE  H11A 8863   5.227   6.152   6.802 -0.2665 -0.2932  0.2299
   91SAPE  H11B 8864   5.147   6.151   6.959 -1.0938  2.2762  1.2089
   91SAPE     P 8865   5.288   6.430   6.784 -0.0398  0.0244 -0.1761
   91SAPE   O13 8866   5.221   6.562   6.798 -0.1709 -0.1393 -0.2401
   91SAPE   O14 8867   5.426   6.422   6.818 -0.1232 -0.0335 -0.0985
   91SAPE   O12 8868   5.205   6.342   6.894 -0.8242 -0.2902 -0.3426
   91SAPE   O11 8869   5.265   6.359   6.644  0.2185  0.1717 -0.2108
   91SAPE    C1 8870   5.374   6.284   6.591 -0.2175  0.4949  0.0528
   91SAPE    HA 8871   5.416   6.220   6.672 -0.4708  1.1552  0.7113
   91SAPE    HB 8872   5.335   6.210   6.518  3.5177 -1.6118 -0.0930
   91SAPE    C2 8873   5.487   6.364   6.512 -0.1993 -0.4973  0.8243
   91SAPE    HS 8874   5.534   6.427   6.590 -1.5109  0.9448  0.4814
   91SAPE   O21 8875   5.427   6.442   6.403 -0.2575  0.1692 -0.1781
   91SAPE   C21 8876   5.517   6.516   6.345  0.0234 -0.5590 -0.1077
   91SAPE   O22 8877   5.632   6.536   6.385  0.1282  0.3461  0.1247
   91SAPE   C22 8878   5.451   6.598   6.231 -0.0923  0.0236  0.6199
   91SAPE   H2R 8879   5.382   6.530   6.177  2.2065 -0.8166 -1.4461
   91SAPE   H2S 8880   5.398   6.682   6.282 -0.7205  0.3983 -0.6256
   91SAPE    C3 8881   5.598   6.271   6.447 -0.4505  1.4497 -0.1119
   91SAPE    HX 8882   5.621   6.188   6.517  0.7313  1.1547 -0.8328
   91SAPE    HY 8883   5.695   6.325   6.450  0.7643 -0.5872  3.3759
   91SAPE   O31 8884   5.567   6.233   6.312 -0.3602  0.3748 -0.2380
   91SAPE   C31 8885   5.476   6.132   6.300  0.4225 -1.1930  0.5774
   91SAPE   O32 8886   5.448   6.042   6.376 -0.2455 -0.4588  0.7446
   91SAPE   C32 8887   5.412   6.132   6.167  0.9224 -0.4049 -0.0947
   91SAPE   H2X 8888   5.368   6.234   6.158  0.2381 -0.5083  1.6218
   91SAPE   H2Y 8889   5.316   6.079   6.184 -0.8895  2.6355 -0.0519
   91SAPE   C23 8890   5.545   6.652   6.129  0.2686 -0.6065  0.3107
   91SAPE   H3R 8891   5.633   6.693   6.183  2.2524 -2.4462 -1.3386
   91SAPE   H3S 8892   5.499   6.726   6.060  2.3693 -1.1390 -1.8285
   91SAPE   C24 8893   5.585   6.549   6.020 -1.0614 -0.0513  0.0005
   91SAPE   H4R 8894   5.487   6.514   5.980 -0.7173 -0.3047 -0.6353
   91SAPE   H4S 8895   5.637   6.463   6.066 -1.3693  1.0888  2.7012
   91SAPE   C25 8896   5.667   6.616   5.916 -0.1549 -0.6547  0.1819
   91SAPE   H5R 8897   5.770   6.638   5.948 -0.1599 -0.0678 -0.1850
   91SAPE   C26 8898   5.630   6.639   5.792  0.0784 -0.0396 -0.5800
   91SAPE   H6R 8899   5.708   6.686   5.730 -0.6019  0.9432 -0.7148
   91SAPE   C27 8900   5.502   6.601   5.726  0.0061  0.1622  0.3384
   91SAPE   H7R 8901   5.499   6.657   5.630  2.3288  0.6985  0.5106
   91SAPE   H7S 8902   5.436   6.665   5.788  1.1446  0.8248  0.9196
   91SAPE   C28 8903   5.455   6.460   5.702  0.2431 -0.4709 -0.1045
   91SAPE   H8R 8904   5.470   6.385   5.781  1.2626 -0.9308 -0.7187
   91SAPE   C29 8905   5.394   6.409   5.592 -0.6153  0.1870  0.6276
   91SAPE   H9R 8906   5.371   6.302   5.597  1.5131 -0.4975 -1.9768
   91SAPE  C210 8907   5.385   6.483   5.457 -0.1592 -0.2650  0.3503
   91SAPE  H10R 8908   5.392   6.594   5.458 -0.7407 -0.2046 -0.4578
   91SAPE  H10S 8909   5.283   6.458   5.420 -0.2796 -0.1549  0.6091
   91SAPE  C211 8910   5.483   6.431   5.355 -0.7830  0.3993  0.0172
   91SAPE  H11R 8911   5.573   6.390   5.403 -0.3739  0.5395 -0.6082
   91SAPE  C212 8912   5.480   6.456   5.229 -0.5551  0.0753 -0.2940
   91SAPE  H12R 8913   5.557   6.409   5.166  0.2599 -0.1254  0.8124
   91SAPE  C213 8914   5.376   6.529   5.152 -0.5440 -0.0150 -1.2287
   91SAPE  H13R 8915   5.314   6.599   5.212 -1.9407 -1.8029 -0.4732
   91SAPE  H13S 8916   5.308   6.454   5.107 -0.6943  1.3494 -3.4285
   91SAPE  C214 8917   5.439   6.579   5.027  0.7818 -0.0437  0.4220
   91SAPE  H14R 8918   5.475   6.497   4.964  0.0782 -0.7611  0.9459
   91SAPE  C215 8919   5.455   6.708   4.981 -0.7063  0.8162  0.1063
   91SAPE  H15R 8920   5.502   6.727   4.884 -1.6235 -1.2133 -0.8026
   91SAPE  C216 8921   5.414   6.837   5.054  0.5227  1.0534  0.2160
   91SAPE  H16R 8922   5.347   6.806   5.138  0.1194 -0.6271 -0.6809
   91SAPE  H16S 8923   5.368   6.919   4.995  0.2839 -0.8520 -2.3968
   91SAPE  C217 8924   5.532   6.910   5.124 -0.0023 -0.4888 -0.1720
   91SAPE  H17R 8925   5.490   6.998   5.177 -0.0477  1.6742 -3.4535
   91SAPE  H17S 8926   5.598   6.955   5.046 -1.1540  0.3399 -0.7145
   91SAPE  C218 8927   5.610   6.833   5.228  0.0774 -0.6511 -0.0396
   91SAPE  H18R 8928   5.670   6.752   5.182  1.7652  1.8383 -2.6289
   91SAPE  H18S 8929   5.531   6.787   5.290 -1.1623  1.6607  0.2244
   91SAPE  C219 8930   5.691   6.922   5.326  0.2652  0.7387 -0.4739
   91SAPE  H19R 8931   5.702   7.020   5.275  0.4400  1.6539  1.2423
   91SAPE  H19S 8932   5.791   6.880   5.349  0.1472  0.8106  0.1879
   91SAPE  C220 8933   5.615   6.950   5.451 -0.4141  0.1564  0.7465
   91SAPE  H20R 8934   5.575   6.862   5.505 -0.2411  0.1430  0.8542
   91SAPE  H20S 8935   5.533   7.020   5.423  0.0148  0.2021 -0.4619
   91SAPE  H20T 8936   5.683   7.010   5.516 -0.0258 -0.0137  0.5043
   91SAPE   C33 8937   5.501   6.070   6.058  0.2696 -0.7359 -0.6064
   91SAPE   H3X 8938   5.526   5.963   6.074  0.4521 -0.5687  0.3148
   91SAPE   H3Y 8939   5.599   6.123   6.050  1.1348 -2.4170 -1.5970
   91SAPE   C34 8940   5.429   6.076   5.925 -0.8605  0.1647 -0.3911
   91SAPE   H4X 8941   5.394   6.177   5.897 -1.8346 -0.1558 -0.3672
   91SAPE   H4Y 8942   5.332   6.022   5.931 -1.9041  2.0684  0.5987
   91SAPE   C35 8943   5.503   6.022   5.801 -0.9342 -0.8892  0.6497
   91SAPE   H5X 8944   5.447   6.041   5.707  1.4239  0.3764 -0.5973
   91SAPE   H5Y 8945   5.528   5.914   5.811  1.8468 -0.1007  4.8647
   91SAPE   C36 8946   5.640   6.081   5.778  0.6007 -0.5194 -0.0125
   91SAPE   H6X 8947   5.715   6.065   5.858  1.1896  2.5276  0.1612
   91SAPE   H6Y 8948   5.622   6.190   5.769 -0.7173 -0.8010 -1.0539
   91SAPE   C37 8949   5.707   6.032   5.646  0.0383  0.1479  0.5629
   91SAPE   H7X 8950   5.705   5.921   5.654 -2.4711 -0.0906 -1.7770
   91SAPE   H7Y 8951   5.814   6.062   5.650  0.9591 -2.7435 -0.0775
   91SAPE   C38 8952   5.651   6.093   5.511 -0.1117  1.1999 -0.4067
   91SAPE   H8X 8953   5.636   6.202   5.529 -0.3348  1.1859 -0.5049
   91SAPE   H8Y 8954   5.555   6.050   5.476 -1.4186  3.2872  0.4217
   91SAPE   C39 8955   5.749   6.091   5.394 -0.1976  0.0209 -0.2513
   91SAPE   H9X 8956   5.837   6.153   5.421 -0.9864  0.3476  1.7385
   91SAPE   H9Y 8957   5.693   6.139   5.310  3.5728  0.8514 -2.5595
   91SAPE  C310 8958   5.792   5.944   5.350 -0.4604  0.5863  0.7312
   91SAPE  H10X 8959   5.699   5.884   5.336  0.8466 -0.9237 -2.4121
   91SAPE  H10Y 8960   5.846   5.891   5.432  0.7813  0.5416 -0.1074
   91SAPE  C311 8961   5.877   5.930   5.224  0.9395  0.1847  0.0788
   91SAPE  H11X 8962   5.919   5.827   5.229  2.1926  0.7002  0.7644
   91SAPE  H11Y 8963   5.966   5.993   5.244 -0.7750  2.5436  0.6305
   91SAPE  C312 8964   5.797   5.965   5.097  0.6629 -0.3171 -0.0764
   91SAPE  H12X 8965   5.786   6.075   5.085 -0.8728 -0.3335  0.8848
   91SAPE  H12Y 8966   5.695   5.922   5.103  0.8258 -0.6806  0.0876
   91SAPE  C313 8967   5.853   5.900   4.969  0.1156  0.2941  0.7429
   91SAPE  H13X 8968   5.860   5.791   4.993 -2.6810 -0.2447 -0.4527
   91SAPE  H13Y 8969   5.948   5.948   4.940 -0.7187  2.5588  1.5660
   91SAPE  C314 8970   5.751   5.912   4.846 -0.8644  0.2935 -0.1857
   91SAPE  H14X 8971   5.698   6.010   4.847  0.6674  1.1447  0.7377
   91SAPE  H14Y 8972   5.673   5.836   4.869 -3.1039  2.5203  0.0844
   91SAPE  C315 8973   5.821   5.883   4.714  0.5714 -0.3226 -0.1271
   91SAPE  H15X 8974   5.921   5.930   4.716  0.3072  0.3100 -1.0793
   91SAPE  H15Y 8975   5.771   5.922   4.622 -1.6918 -0.0853  1.1238
   91SAPE  C316 8976   5.837   5.731   4.692  0.1725 -0.3030 -0.1263
   91SAPE  H16X 8977   5.742   5.677   4.676  1.1902 -2.7096  1.3739
   91SAPE  H16Y 8978   5.866   5.687   4.790 -0.7653 -1.1300 -0.2102
   91SAPE  C317 8979   5.953   5.704   4.592  0.2810 -0.3418  0.1991
   91SAPE  H17X 8980   6.037   5.759   4.638 -1.7419  3.4186 -0.2524
   91SAPE  H17Y 8981   5.927   5.748   4.494  0.3166 -0.1224  0.2888
   91SAPE  C318 8982   5.987   5.550   4.596 -0.1410  0.6719  0.2537
   91SAPE  H18X 8983   6.027   5.534   4.699  1.7557  1.1989 -0.3641
   91SAPE  H18Y 8984   6.067   5.524   4.524 -1.0895 -0.3466 -0.4640
   91SAPE  H18Z 8985   5.891   5.494   4.584  0.4204  0.0134 -1.3282
   92SAPE     N 8986   0.368   6.614   6.593 -0.0372  0.3695 -0.0085
   92SAPE   HN1 8987   0.268   6.638   6.605  0.0318 -0.1599  1.9377
   92SAPE   HN2 8988   0.370   6.560   6.504  0.7614  0.4762 -0.0586
   92SAPE   HN3 8989   0.407   6.553   6.668  2.0873  1.0345 -0.5184
   92SAPE   C12 8990   0.450   6.736   6.567  0.1596 -0.6761  0.1864
   92SAPE  H12A 8991   0.556   6.708   6.554 -0.0100 -0.9741 -0.6020
   92SAPE  H12B 8992   0.437   6.798   6.659 -0.6891  1.7710 -1.4695
   92SAPE   C11 8993   0.406   6.790   6.433 -0.5065 -0.6904  0.3475
   92SAPE  H11A 8994   0.430   6.723   6.347 -3.4952  0.0830 -1.2330
   92SAPE  H11B 8995   0.479   6.874   6.434  1.1216 -1.9460 -1.9105
   92SAPE     P 8996   0.222   6.972   6.396 -0.1638  0.1949 -0.2492
   92SAPE   O13 8997   0.144   7.015   6.517 -0.0721 -0.1903 -0.2785
   92SAPE   O14 8998   0.334   7.065   6.353  0.0477 -0.4048 -0.2130
   92SAPE   O12 8999   0.270   6.826   6.438  0.3465 -0.5424  0.6916
   92SAPE   O11 9000   0.126   6.945   6.271 -0.2661 -0.8124 -0.0591
   92SAPE    C1 9001   0.168   6.831   6.199 -0.0368  0.0154  0.3070
   92SAPE    HA 9002   0.169   6.736   6.256  2.8470  0.0264  0.4115
   92SAPE    HB 9003   0.087   6.820   6.124  0.4228  0.4427 -0.2610
   92SAPE    C2 9004   0.295   6.853   6.101  0.0853  0.7279  0.1256
   92SAPE    HS 9005   0.384   6.885   6.159  1.7799 -1.2830 -1.1798
   92SAPE   O21 9006   0.268   6.956   6.005 -0.0551 -0.6393 -0.6503
   92SAPE   C21 9007   0.356   6.977   5.913  0.6919 -0.0297 -0.5245
   92SAPE   O22 9008   0.472   6.942   5.910  1.2661 -0.2254  0.0258
   92SAPE   C22 9009   0.290   7.058   5.805  0.8401 -0.2929 -0.3661
   92SAPE   H2R 9010   0.222   6.991   5.749 -0.2045  0.8350 -0.4650
   92SAPE   H2S 9011   0.233   7.141   5.851  1.5078  0.6813 -1.2449
   92SAPE    C3 9012   0.336   6.714   6.040 -0.2715 -0.3649  0.2462
   92SAPE    HX 9013   0.343   6.635   6.118 -1.9959  0.0508  0.8692
   92SAPE    HY 9014   0.439   6.729   6.001 -0.5313  1.0928  0.0495
   92SAPE   O31 9015   0.256   6.665   5.924 -0.3620 -0.2417 -1.1514
   92SAPE   C31 9016   0.154   6.585   5.956 -0.1631  0.1925 -0.0242
   92SAPE   O32 9017   0.114   6.564   6.069  0.1250 -0.1219 -0.3474
   92SAPE   C32 9018   0.107   6.506   5.837  0.0517  0.0075  0.2092
   92SAPE   H2X 9019   0.105   6.402   5.875 -0.8738  0.6927  2.1972
   92SAPE   H2Y 9020   0.180   6.519   5.755  1.1392  1.2894  1.3225
   92SAPE   C23 9021   0.399   7.130   5.724 -0.1676  0.2884 -0.6434
   92SAPE   H3R 9022   0.487   7.066   5.703 -1.7063 -2.8607  1.8081
   92SAPE   H3S 9023   0.446   7.214   5.780 -1.9971  1.0005 -0.1086
   92SAPE   C24 9024   0.343   7.187   5.596 -1.1921 -0.1224  0.0422
   92SAPE   H4R 9025   0.429   7.234   5.544 -2.3020  2.5543  0.4341
   92SAPE   H4S 9026   0.282   7.275   5.627 -1.0053  0.3175 -0.8055
   92SAPE   C25 9027   0.283   7.074   5.513  1.0110 -0.4197 -0.0894
   92SAPE   H5R 9028   0.291   6.973   5.557  2.9311 -0.8988 -1.4061
   92SAPE   C26 9029   0.233   7.104   5.392 -0.2614  0.2022 -0.1555
   92SAPE   H6R 9030   0.197   7.022   5.328  1.2132  0.0205 -0.7921
   92SAPE   C27 9031   0.205   7.246   5.346  0.1736  0.2778 -0.2902
   92SAPE   H7R 9032   0.238   7.253   5.240  0.3271 -1.5024 -0.3847
   92SAPE   H7S 9033   0.275   7.316   5.397  0.3562 -0.2133  0.1457
   92SAPE   C28 9034   0.067   7.294   5.356  0.1845  0.1136  0.1269
   92SAPE   H8R 9035  -0.009   7.220   5.384 -1.6613  1.6493 -0.6082
   92SAPE   C29 9036   0.022   7.415   5.322  0.5018  0.3794  0.1200
   92SAPE   H9R 9037  -0.087   7.425   5.312  0.1838 -1.8703  0.8143
   92SAPE  C210 9038   0.108   7.531   5.268  0.2713 -0.8529 -0.1268
   92SAPE  H10R 9039   0.202   7.497   5.220  0.4781 -0.2314 -0.1696
   92SAPE  H10S 9040   0.136   7.578   5.365 -1.3160 -0.5358  0.2046
   92SAPE  C211 9041   0.031   7.627   5.172  0.0957  0.3535  0.5278
   92SAPE  H11R 9042  -0.007   7.721   5.215 -2.3608 -0.8117  1.1090
   92SAPE  C212 9043  -0.008   7.595   5.050  0.0799  0.3232 -0.0764
   92SAPE  H12R 9044  -0.060   7.678   4.999 -2.5245 -0.3668  1.2630
   92SAPE  C213 9045   0.006   7.464   4.983  0.5280  0.9121  0.0232
   92SAPE  H13R 9046  -0.053   7.384   5.032  0.6725 -0.7541 -2.3376
   92SAPE  H13S 9047   0.105   7.418   5.006 -1.0483 -2.2668  1.0861
   92SAPE  C214 9048  -0.009   7.476   4.828 -0.1391  0.2800  0.4265
   92SAPE  H14R 9049  -0.117   7.479   4.811 -0.4313 -0.5257  1.9738
   92SAPE  C215 9050   0.072   7.479   4.723  0.0959 -0.8930  0.1085
   92SAPE  H15R 9051   0.028   7.471   4.623 -1.2922  0.1691  0.5927
   92SAPE  C216 9052   0.216   7.490   4.724  0.2368 -0.5464  0.1093
   92SAPE  H16R 9053   0.253   7.540   4.817 -0.9919 -1.4234  1.1053
   92SAPE  H16S 9054   0.241   7.565   4.646 -0.4447 -0.9207 -0.4739
   92SAPE  C217 9055   0.290   7.357   4.685  0.1269  0.0041 -0.2624
   92SAPE  H17R 9056   0.397   7.373   4.662 -0.0008 -0.7071 -1.4560
   92SAPE  H17S 9057   0.239   7.312   4.597  0.4175  0.7063 -0.7946
   92SAPE  C218 9058   0.286   7.253   4.804  1.0950  0.3434 -0.4810
   92SAPE  H18R 9059   0.181   7.234   4.833  0.1472  0.4987 -3.4452
   92SAPE  H18S 9060   0.337   7.304   4.888  1.0765  0.4680 -0.5446
   92SAPE  C219 9061   0.362   7.123   4.783 -0.0600  0.9067  0.0780
   92SAPE  H19R 9062   0.342   7.067   4.876 -1.6069  1.6346  0.2146
   92SAPE  H19S 9063   0.473   7.135   4.775  0.4714 -1.8233  1.9284
   92SAPE  C220 9064   0.296   7.039   4.673 -0.4700  0.3961 -0.4556
   92SAPE  H20R 9065   0.189   7.026   4.699  0.4804 -0.5491  3.6200
   92SAPE  H20S 9066   0.343   6.938   4.675 -0.9089  0.1904 -0.4224
   92SAPE  H20T 9067   0.309   7.090   4.575 -1.0733 -1.0098 -1.3083
   92SAPE   C33 9068  -0.036   6.546   5.786  0.2853  0.6845  0.5675
   92SAPE   H3X 9069  -0.111   6.511   5.859 -0.6919 -0.9679 -1.1370
   92SAPE   H3Y 9070  -0.056   6.489   5.692  2.2531  0.9100 -0.0298
   92SAPE   C34 9071  -0.056   6.688   5.758  0.1028 -0.1749  0.2361
   92SAPE   H4X 9072  -0.031   6.751   5.846  2.1186  1.0401 -1.1209
   92SAPE   H4Y 9073  -0.163   6.696   5.730  0.4141  0.3505 -0.8573
   92SAPE   C35 9074   0.032   6.745   5.647  0.6003 -0.5295  0.3941
   92SAPE   H5X 9075   0.135   6.706   5.659  0.1250 -2.6240 -1.6132
   92SAPE   H5Y 9076   0.029   6.856   5.657 -1.5190 -0.6669  2.1260
   92SAPE   C36 9077  -0.020   6.711   5.504  0.1037 -0.0419 -0.2411
   92SAPE   H6X 9078  -0.120   6.753   5.482 -0.5859 -1.4438  0.0528
   92SAPE   H6Y 9079  -0.022   6.600   5.496  1.6043 -0.0740 -0.4232
   92SAPE   C37 9080   0.082   6.755   5.395  0.3773  0.0838  0.6906
   92SAPE   H7X 9081   0.168   6.685   5.383 -0.7811 -1.2680 -0.1006
   92SAPE   H7Y 9082   0.124   6.853   5.427  1.3690 -0.3832  0.8671
   92SAPE   C38 9083   0.034   6.773   5.249 -0.2689  0.2275 -0.8995
   92SAPE   H8X 9084  -0.035   6.689   5.224  0.9489 -1.2379  0.4696
   92SAPE   H8Y 9085   0.122   6.745   5.187  1.1108 -0.5344  1.2961
   92SAPE   C39 9086  -0.033   6.901   5.205  0.2738  0.0374  0.1697
   92SAPE   H9X 9087   0.043   6.982   5.203  0.7148 -0.3526 -2.1830
   92SAPE   H9Y 9088  -0.117   6.922   5.275 -0.6866  0.9180 -1.2040
   92SAPE  C310 9089  -0.091   6.885   5.060 -0.3688 -0.2628 -0.1213
   92SAPE  H10X 9090  -0.197   6.850   5.067 -0.1633 -0.5832  1.7086
   92SAPE  H10Y 9091  -0.020   6.813   5.014  0.6280  0.2854  0.5305
   92SAPE  C311 9092  -0.085   7.014   4.978 -0.0708 -0.9942 -0.5794
   92SAPE  H11X 9093   0.015   7.060   4.967 -1.5452  2.7159  0.0335
   92SAPE  H11Y 9094  -0.151   7.088   5.028  2.1472  1.2805 -0.8076
   92SAPE  C312 9095  -0.141   6.992   4.834 -0.5070 -0.7503  0.5399
   92SAPE  H12X 9096  -0.247   6.958   4.831 -1.5414  2.1735  0.0498
   92SAPE  H12Y 9097  -0.083   6.916   4.778 -0.7727 -0.3131 -0.3483
   92SAPE  C313 9098  -0.137   7.127   4.760 -0.3660 -0.6241  0.2722
   92SAPE  H13X 9099  -0.032   7.164   4.754 -0.2531 -0.9312  0.3322
   92SAPE  H13Y 9100  -0.198   7.191   4.827 -1.9473 -2.7735  1.0097
   92SAPE  C314 9101  -0.212   7.125   4.624  0.1477  0.4815 -0.1366
   92SAPE  H14X 9102  -0.299   7.057   4.641  1.2189 -0.1867  3.4204
   92SAPE  H14Y 9103  -0.162   7.073   4.539  0.9253  0.8341  0.1016
   92SAPE  C315 9104  -0.261   7.258   4.581 -0.5544 -0.1921  0.0355
   92SAPE  H15X 9105  -0.168   7.316   4.564 -0.9169  1.1891  2.3201
   92SAPE  H15Y 9106  -0.309   7.317   4.661 -1.4564 -0.9783  0.1005
   92SAPE  C316 9107  -0.352   7.258   4.458  0.4552  0.1281 -0.3499
   92SAPE  H16X 9108  -0.454   7.227   4.492  1.2291 -0.8193  1.2390
   92SAPE  H16Y 9109  -0.303   7.186   4.390  2.8401  0.3095  1.0624
   92SAPE  C317 9110  -0.358   7.396   4.394 -0.4340 -0.8535 -0.3276
   92SAPE  H17X 9111  -0.253   7.421   4.366 -1.0566 -0.8664 -2.9975
   92SAPE  H17Y 9112  -0.388   7.471   4.470 -1.3426  1.3075 -2.6703
   92SAPE  C318 9113  -0.442   7.400   4.271 -0.1754 -0.0390  0.6229
   92SAPE  H18X 9114  -0.410   7.334   4.187 -0.7127 -0.0615  0.4310
   92SAPE  H18Y 9115  -0.448   7.499   4.220 -2.2318 -0.8853 -0.9612
   92SAPE  H18Z 9116  -0.546   7.369   4.297 -0.3778  0.2546  0.1846
   93SAPE     N 9117   6.746   3.649   6.624 -0.3000  0.0185  0.1690
   93SAPE   HN1 9118   6.836   3.599   6.608 -0.5686 -0.0830 -1.0389
   93SAPE   HN2 9119   6.775   3.747   6.647  2.4082 -0.1901 -1.8610
   93SAPE   HN3 9120   6.696   3.599   6.700  0.3662  2.2981  2.2651
   93SAPE   C12 9121   6.651   3.634   6.515  1.4407 -0.8253  0.1376
   93SAPE  H12A 9122   6.555   3.674   6.556  0.3315 -0.9280 -2.1938
   93SAPE  H12B 9123   6.631   3.529   6.485 -0.9038 -0.8334  1.4126
   93SAPE   C11 9124   6.683   3.720   6.399  0.7601  0.2287 -0.2847
   93SAPE  H11A 9125   6.593   3.714   6.335  1.0077  1.0486 -0.7219
   93SAPE  H11B 9126   6.761   3.682   6.330 -0.8653 -1.5384 -1.2462
   93SAPE     P 9127   6.643   3.981   6.380 -0.3430 -0.7027 -0.0184
   93SAPE   O13 9128   6.499   3.960   6.375 -0.3885  0.1715  0.3972
   93SAPE   O14 9129   6.688   4.093   6.460  0.0566  0.0753 -0.5811
   93SAPE   O12 9130   6.709   3.856   6.443 -0.3529 -0.0146 -0.0069
   93SAPE   O11 9131   6.709   3.993   6.241  0.2578 -0.0043  0.3693
   93SAPE    C1 9132   6.739   3.900   6.130  0.4434 -0.9791  0.1230
   93SAPE    HA 9133   6.848   3.882   6.129  0.4639 -0.8544  0.0639
   93SAPE    HB 9134   6.690   3.803   6.150 -1.6157 -0.0079  0.1115
   93SAPE    C2 9135   6.671   3.942   5.993  0.2056  0.0950  0.1547
   93SAPE    HS 9136   6.661   3.859   5.920 -2.9205  0.8207 -0.4006
   93SAPE   O21 9137   6.743   4.052   5.929  0.5988  0.3095 -0.5693
   93SAPE   C21 9138   6.861   4.028   5.877 -0.0668 -0.0763 -0.6526
   93SAPE   O22 9139   6.922   3.918   5.889 -0.2486 -1.0257 -0.3886
   93SAPE   C22 9140   6.917   4.151   5.806 -0.3852 -0.0033  0.0106
   93SAPE   H2R 9141   6.948   4.231   5.877  0.4147 -0.2740 -0.0276
   93SAPE   H2S 9142   7.011   4.134   5.749  0.2947 -2.0376  1.6336
   93SAPE    C3 9143   6.532   3.998   6.033 -0.5373 -0.1829  0.3229
   93SAPE    HX 9144   6.543   4.101   6.074  0.1030 -0.2139  0.2414
   93SAPE    HY 9145   6.488   3.928   6.107 -2.3037  2.0615  1.5516
   93SAPE   O31 9146   6.448   4.008   5.913  0.5889 -0.3733 -0.2405
   93SAPE   C31 9147   6.375   4.118   5.904 -0.9992  0.3845  0.4448
   93SAPE   O32 9148   6.348   4.190   5.998 -0.4835  0.2522  0.2630
   93SAPE   C32 9149   6.329   4.129   5.767  0.3900  0.6788 -0.7592
   93SAPE   H2X 9150   6.227   4.173   5.766  0.3059  0.6244  1.1416
   93SAPE   H2Y 9151   6.309   4.025   5.734 -0.8025 -0.3710  2.7971
   93SAPE   C23 9152   6.803   4.220   5.714  0.4067 -0.2391 -0.1671
   93SAPE   H3R 9153   6.825   4.329   5.705 -2.7788  0.8305  2.6093
   93SAPE   H3S 9154   6.701   4.215   5.759 -0.0749 -0.5016 -1.2583
   93SAPE   C24 9155   6.799   4.184   5.565  0.5436 -0.1794  0.4207
   93SAPE   H4R 9156   6.706   4.233   5.527 -1.4233 -3.2757  0.8663
   93SAPE   H4S 9157   6.775   4.076   5.552 -1.8834  0.3873 -0.4085
   93SAPE   C25 9158   6.910   4.233   5.473 -0.2825  0.1129 -0.8183
   93SAPE   H5R 9159   7.003   4.262   5.525 -1.4168 -0.3942  1.6430
   93SAPE   C26 9160   6.898   4.267   5.344 -1.1076  0.1678  0.2708
   93SAPE   H6R 9161   6.993   4.289   5.293 -1.3212 -0.8285 -0.5815
   93SAPE   C27 9162   6.772   4.282   5.270  0.3304  0.1713  0.4924
   93SAPE   H7R 9163   6.690   4.214   5.300 -0.0452  0.7737  0.8653
   93SAPE   H7S 9164   6.781   4.264   5.161 -2.6662 -1.1619  0.3729
   93SAPE   C28 9165   6.696   4.416   5.291 -0.4341 -0.0053 -0.2217
   93SAPE   H8R 9166   6.653   4.438   5.389 -1.0380  0.7400 -0.6489
   93SAPE   C29 9167   6.673   4.510   5.194 -0.2317 -0.0691  0.2577
   93SAPE   H9R 9168   6.604   4.592   5.216 -3.7714 -2.0745 -2.1840
   93SAPE  C210 9169   6.717   4.499   5.050  0.2643  0.7704 -0.5142
   93SAPE  H10R 9170   6.808   4.437   5.039  1.6339  1.9984  2.6366
   93SAPE  H10S 9171   6.769   4.594   5.024  1.1234  0.1019 -1.3162
   93SAPE  C211 9172   6.603   4.453   4.959 -0.3745  0.2405 -0.2438
   93SAPE  H11R 9173   6.533   4.383   5.007 -2.8949  1.9786 -1.1580
   93SAPE  C212 9174   6.568   4.496   4.837 -0.3094  0.2520  0.1020
   93SAPE  H12R 9175   6.478   4.448   4.796 -1.2770  1.5937  0.5978
   93SAPE  C213 9176   6.645   4.586   4.742  0.4304  0.1553 -0.3827
   93SAPE  H13R 9177   6.612   4.560   4.639  1.0129  0.0177 -0.5397
   93SAPE  H13S 9178   6.751   4.554   4.735 -0.7940 -4.1092 -4.2965
   93SAPE  C214 9179   6.625   4.732   4.768  0.3469  0.5083  1.1009
   93SAPE  H14R 9180   6.531   4.769   4.811  0.8961  2.2701  0.8655
   93SAPE  C215 9181   6.720   4.827   4.749  0.4435  0.1343 -0.1833
   93SAPE  H15R 9182   6.692   4.933   4.761 -2.5668 -0.4881 -0.8884
   93SAPE  C216 9183   6.858   4.796   4.681  0.1989  0.4294  0.0279
   93SAPE  H16R 9184   6.875   4.876   4.605 -0.2029 -1.2361 -1.8874
   93SAPE  H16S 9185   6.865   4.705   4.619  0.8909  2.2195 -2.6785
   93SAPE  C217 9186   6.983   4.809   4.773 -0.1318 -0.9774 -0.3542
   93SAPE  H17R 9187   6.985   4.917   4.800 -1.1735 -1.2512  0.9255
   93SAPE  H17S 9188   7.074   4.786   4.715  1.7811 -0.2109  2.1654
   93SAPE  C218 9189   6.974   4.731   4.907  0.0631  0.0810 -0.4733
   93SAPE  H18R 9190   6.993   4.622   4.899 -1.5552 -0.4194  1.5857
   93SAPE  H18S 9191   6.869   4.739   4.941  0.7314  0.6811  1.5602
   93SAPE  C219 9192   7.059   4.782   5.019 -0.1587  0.0289 -0.4174
   93SAPE  H19R 9193   7.028   4.889   5.019 -1.0578 -0.2232 -0.6371
   93SAPE  H19S 9194   7.169   4.782   5.001 -0.1036 -1.3061 -0.1817
   93SAPE  C220 9195   7.039   4.709   5.154  0.2988  0.3690 -0.3676
   93SAPE  H20R 9196   7.087   4.761   5.239 -1.6943 -0.6023  1.4471
   93SAPE  H20S 9197   7.083   4.609   5.136  0.8904  0.4112  0.7566
   93SAPE  H20T 9198   6.931   4.705   5.181  0.4333  0.5861  0.2212
   93SAPE   C33 9199   6.411   4.224   5.676 -0.7974 -0.3779  0.0598
   93SAPE   H3X 9200   6.509   4.178   5.649 -0.1982  1.3038 -0.8035
   93SAPE   H3Y 9201   6.431   4.317   5.734 -1.8071 -1.7595  2.7372
   93SAPE   C34 9202   6.333   4.263   5.551  0.9006  0.8263 -0.1287
   93SAPE   H4X 9203   6.398   4.325   5.485  2.9301 -2.2077 -1.2314
   93SAPE   H4Y 9204   6.238   4.315   5.574  1.2157  1.0771  0.6749
   93SAPE   C35 9205   6.300   4.135   5.470  0.1794  0.8563 -0.2833
   93SAPE   H5X 9206   6.219   4.085   5.528  0.0343  1.8872  0.4314
   93SAPE   H5Y 9207   6.387   4.067   5.462  0.6885  1.5368 -0.5408
   93SAPE   C36 9208   6.247   4.155   5.329 -0.2644  0.5187 -0.5560
   93SAPE   H6X 9209   6.189   4.249   5.340 -0.1723  0.3026  2.6790
   93SAPE   H6Y 9210   6.186   4.071   5.292 -0.6245 -0.7654  2.6715
   93SAPE   C37 9211   6.362   4.164   5.229  0.0350 -0.2894  0.0531
   93SAPE   H7X 9212   6.433   4.083   5.256 -0.9612 -0.6660  1.6591
   93SAPE   H7Y 9213   6.415   4.262   5.230  0.0421 -0.2886 -0.2120
   93SAPE   C38 9214   6.304   4.159   5.088 -0.0858 -0.2020  0.2364
   93SAPE   H8X 9215   6.287   4.264   5.058  2.5054  0.1122 -0.3742
   93SAPE   H8Y 9216   6.208   4.102   5.089  0.6186 -1.5002  2.9496
   93SAPE   C39 9217   6.397   4.087   4.995  0.0890 -0.5684  0.0492
   93SAPE   H9X 9218   6.423   3.981   5.016 -2.5573 -0.9352  1.9112
   93SAPE   H9Y 9219   6.490   4.147   4.997 -1.2166  1.5902 -0.5563
   93SAPE  C310 9220   6.353   4.100   4.850 -0.4137  0.5006 -0.1521
   93SAPE  H10X 9221   6.336   4.206   4.822  0.8170  0.3781 -1.4853
   93SAPE  H10Y 9222   6.257   4.045   4.833  2.0151 -4.2814 -0.1171
   93SAPE  C311 9223   6.440   4.039   4.739 -0.0423  0.0343  0.5225
   93SAPE  H11X 9224   6.456   3.933   4.770  0.0454 -0.0255  0.2757
   93SAPE  H11Y 9225   6.540   4.086   4.735  0.6328 -1.4037 -1.6822
   93SAPE  C312 9226   6.372   4.014   4.606  0.1545 -0.4076  0.2856
   93SAPE  H12X 9227   6.334   4.112   4.568 -0.8132  0.2845  2.8214
   93SAPE  H12Y 9228   6.276   3.960   4.622 -0.7264  0.2449 -2.2895
   93SAPE  C313 9229   6.462   3.953   4.498 -0.5747 -0.4953 -0.4567
   93SAPE  H13X 9230   6.504   3.858   4.538  1.0209 -0.1709 -1.3019
   93SAPE  H13Y 9231   6.542   4.027   4.478 -0.9638  0.0618  0.0448
   93SAPE  C314 9232   6.395   3.930   4.358 -0.2455 -0.3195  0.6169
   93SAPE  H14X 9233   6.400   4.023   4.298  3.1640 -0.6909  0.1084
   93SAPE  H14Y 9234   6.294   3.887   4.376 -0.4040 -0.0437  0.3746
   93SAPE  C315 9235   6.470   3.821   4.284  0.3696  0.0152  0.5989
   93SAPE  H15X 9236   6.423   3.821   4.184  5.5689  2.6600 -2.2845
   93SAPE  H15Y 9237   6.460   3.724   4.337  3.1226  0.5478  2.3070
   93SAPE  C316 9238   6.619   3.841   4.273 -1.1330 -0.5772  0.3726
   93SAPE  H16X 9239   6.672   3.804   4.363 -1.1920 -1.0179  0.2264
   93SAPE  H16Y 9240   6.643   3.948   4.256  1.6577 -1.4418 -1.8904
   93SAPE  C317 9241   6.677   3.774   4.147 -0.0929 -0.5321  0.1921
   93SAPE  H17X 9242   6.781   3.809   4.131  0.6035 -1.7088  1.8805
   93SAPE  H17Y 9243   6.627   3.809   4.054 -0.1779  0.0228  0.4388
   93SAPE  C318 9244   6.673   3.623   4.149 -0.0189 -0.6781 -0.4200
   93SAPE  H18X 9245   6.711   3.575   4.056  1.6225  1.3896 -0.8878
   93SAPE  H18Y 9246   6.566   3.597   4.163 -1.1354  3.1443 -0.6166
   93SAPE  H18Z 9247   6.726   3.583   4.238  0.3168  2.9281  1.1800
   94SAPE     N 9248   5.261   4.296   6.760  0.0859  0.3521 -0.4625
   94SAPE   HN1 9249   5.335   4.224   6.745  0.9612  0.2208  3.5100
   94SAPE   HN2 9250   5.278   4.341   6.852  0.5356 -4.2556  2.0030
   94SAPE   HN3 9251   5.165   4.257   6.767  0.0514  0.4604 -0.3314
   94SAPE   C12 9252   5.254   4.399   6.649 -0.7973  0.9148 -0.4703
   94SAPE  H12A 9253   5.172   4.468   6.677 -0.0790  2.1370 -1.3048
   94SAPE  H12B 9254   5.227   4.346   6.555 -1.1889  3.2292 -1.7488
   94SAPE   C11 9255   5.397   4.466   6.631 -0.4666  0.7658  1.1573
   94SAPE  H11A 9256   5.391   4.524   6.536  1.9883  0.4958  0.7716
   94SAPE  H11B 9257   5.471   4.386   6.608 -1.1279  0.2939  0.6091
   94SAPE     P 9258   5.401   4.697   6.776 -0.0053 -0.1226 -0.2935
   94SAPE   O13 9259   5.261   4.702   6.821  0.2522  0.1820 -0.3575
   94SAPE   O14 9260   5.504   4.741   6.875 -0.1036  0.3299 -0.9373
   94SAPE   O12 9261   5.439   4.546   6.741 -0.4627 -0.6634 -0.0177
   94SAPE   O11 9262   5.420   4.787   6.653 -0.3317 -1.0034 -0.0526
   94SAPE    C1 9263   5.528   4.781   6.558  0.4083  0.8162 -0.0500
   94SAPE    HA 9264   5.608   4.848   6.597 -0.7193  2.4489 -0.4183
   94SAPE    HB 9265   5.558   4.677   6.536 -1.3128  0.0470  1.0683
   94SAPE    C2 9266   5.487   4.850   6.425 -1.8968 -0.2937  0.5552
   94SAPE    HS 9267   5.440   4.949   6.447 -1.9144 -0.5929  1.9353
   94SAPE   O21 9268   5.392   4.769   6.353  0.1748 -0.2472  0.4885
   94SAPE   C21 9269   5.262   4.785   6.382  0.2400  0.3244 -0.0700
   94SAPE   O22 9270   5.217   4.853   6.468  0.3089 -0.0212  0.4817
   94SAPE   C22 9271   5.176   4.711   6.284  0.1029 -0.9125  0.6273
   94SAPE   H2R 9272   5.071   4.733   6.312  0.1555 -2.1293  1.8861
   94SAPE   H2S 9273   5.192   4.756   6.184 -1.7953 -1.7798 -0.1164
   94SAPE    C3 9274   5.611   4.877   6.335  0.2099  0.4397 -0.3419
   94SAPE    HX 9275   5.678   4.788   6.330  1.2994  1.1676  0.8502
   94SAPE    HY 9276   5.681   4.946   6.386 -0.1390  1.5002 -1.2487
   94SAPE   O31 9277   5.565   4.926   6.210 -0.2518  0.4146  0.4855
   94SAPE   C31 9278   5.563   4.844   6.107 -0.2564  0.7989 -0.1547
   94SAPE   O32 9279   5.608   4.728   6.114  0.7816  0.3362 -0.1320
   94SAPE   C32 9280   5.513   4.908   5.983  0.2764  0.4961 -0.2142
   94SAPE   H2X 9281   5.576   4.993   5.950  0.7721  0.3682  0.3981
   94SAPE   H2Y 9282   5.411   4.950   6.002  0.3368 -0.1051  1.6329
   94SAPE   C23 9283   5.203   4.563   6.279 -0.1929 -0.1968 -0.1436
   94SAPE   H3R 9284   5.185   4.516   6.378 -0.1568  0.2714  0.0879
   94SAPE   H3S 9285   5.312   4.551   6.259  0.0829  1.0048  0.5038
   94SAPE   C24 9286   5.145   4.481   6.169  0.7505 -0.4380  0.0901
   94SAPE   H4R 9287   5.169   4.375   6.189 -1.2972 -0.9403  0.0805
   94SAPE   H4S 9288   5.197   4.509   6.074  0.6510 -0.5915 -0.0092
   94SAPE   C25 9289   4.997   4.504   6.154  0.6988  0.5223 -0.0620
   94SAPE   H5R 9290   4.948   4.510   6.252 -0.0244  1.0462 -0.4413
   94SAPE   C26 9291   4.912   4.515   6.045 -0.4747  0.4449 -0.5548
   94SAPE   H6R 9292   4.806   4.536   6.069 -0.0327 -0.2788  2.5791
   94SAPE   C27 9293   4.965   4.513   5.900  0.6109  0.9022 -0.0023
   94SAPE   H7R 9294   4.876   4.523   5.835  1.1767  1.9449 -0.6512
   94SAPE   H7S 9295   5.012   4.416   5.873  0.9087  1.5433 -1.9406
   94SAPE   C28 9296   5.054   4.626   5.853  0.0590  0.4384  0.4577
   94SAPE   H8R 9297   5.108   4.675   5.936  1.4652  0.0477 -0.1948
   94SAPE   C29 9298   5.076   4.666   5.727 -0.1610  0.2411 -0.1728
   94SAPE   H9R 9299   5.155   4.740   5.707  0.1931 -0.8051 -3.2630
   94SAPE  C210 9300   5.023   4.598   5.606 -0.2681  0.7308 -0.5439
   94SAPE  H10R 9301   5.007   4.490   5.624 -1.8109  0.1157 -4.5069
   94SAPE  H10S 9302   5.094   4.611   5.522  0.1436 -1.2354 -0.5388
   94SAPE  C211 9303   4.885   4.652   5.575 -0.6495  0.7191  1.1018
   94SAPE  H11R 9304   4.818   4.681   5.657 -1.3193  1.3677  0.3481
   94SAPE  C212 9305   4.845   4.687   5.448  0.2058  0.2881 -0.4543
   94SAPE  H12R 9306   4.736   4.691   5.438  0.0061  0.0903  1.3655
   94SAPE  C213 9307   4.928   4.674   5.323 -0.1600  0.8545 -0.1519
   94SAPE  H13R 9308   4.854   4.686   5.240  0.1859 -2.5344 -1.1047
   94SAPE  H13S 9309   4.971   4.572   5.314  0.3071  1.0400  0.0147
   94SAPE  C214 9310   5.043   4.768   5.304  0.6445 -0.0912  0.7037
   94SAPE  H14R 9311   5.040   4.850   5.377  0.2858 -0.1840  0.7951
   94SAPE  C215 9312   5.144   4.744   5.217 -0.3598  0.6328 -0.0616
   94SAPE  H15R 9313   5.237   4.802   5.226  1.2686 -1.7714 -0.5437
   94SAPE  C216 9314   5.170   4.649   5.099 -0.0703 -0.8676 -0.4190
   94SAPE  H16R 9315   5.077   4.599   5.065 -0.1908 -0.5415 -0.5734
   94SAPE  H16S 9316   5.251   4.575   5.115  0.6285 -0.2523 -1.0224
   94SAPE  C217 9317   5.200   4.748   4.979 -0.6217 -0.5585 -1.0551
   94SAPE  H17R 9318   5.289   4.809   5.008 -1.0703 -0.2509 -0.3218
   94SAPE  H17S 9319   5.111   4.811   4.959 -1.5899 -1.3456  0.6635
   94SAPE  C218 9320   5.251   4.676   4.854  0.8271  0.5665 -0.4284
   94SAPE  H18R 9321   5.168   4.614   4.813  0.5113 -0.3537  1.4998
   94SAPE  H18S 9322   5.341   4.616   4.880  0.9435  1.5333  1.5842
   94SAPE  C219 9323   5.307   4.776   4.750  0.1870  0.0357 -0.4373
   94SAPE  H19R 9324   5.379   4.843   4.801  0.7239 -1.3288  0.6467
   94SAPE  H19S 9325   5.222   4.834   4.706 -0.2014  0.6304  1.0497
   94SAPE  C220 9326   5.379   4.700   4.639 -0.7612 -0.0968 -0.1881
   94SAPE  H20R 9327   5.312   4.616   4.611  2.1061 -2.4732 -0.4321
   94SAPE  H20S 9328   5.471   4.649   4.674 -0.2795 -0.1902 -1.5270
   94SAPE  H20T 9329   5.414   4.754   4.548  0.5943  0.2362  0.5000
   94SAPE   C33 9330   5.498   4.817   5.858 -0.1414  0.1471  0.3670
   94SAPE   H3X 9331   5.421   4.740   5.881 -0.4878 -1.3785 -4.6955
   94SAPE   H3Y 9332   5.593   4.764   5.833 -0.5194 -0.2939 -0.1470
   94SAPE   C34 9333   5.443   4.883   5.735 -0.2819 -0.5648 -0.1078
   94SAPE   H4X 9334   5.354   4.940   5.768  0.2040  0.7929 -1.0191
   94SAPE   H4Y 9335   5.410   4.810   5.658  2.3053 -0.0822 -1.8190
   94SAPE   C35 9336   5.541   4.987   5.666  0.5719  0.2833 -0.6800
   94SAPE   H5X 9337   5.640   4.969   5.714  0.8815 -3.8819 -2.4827
   94SAPE   H5Y 9338   5.515   5.088   5.705 -0.8023 -0.0008 -0.8028
   94SAPE   C36 9339   5.561   4.982   5.514  0.4564 -0.5613  0.3946
   94SAPE   H6X 9340   5.549   4.874   5.496 -1.9188 -0.8746  3.1499
   94SAPE   H6Y 9341   5.667   5.007   5.494  1.1833 -2.9085  1.0897
   94SAPE   C37 9342   5.458   5.069   5.436  0.2606  0.8143 -0.3728
   94SAPE   H7X 9343   5.492   5.174   5.445  3.6205 -0.1850  0.3695
   94SAPE   H7Y 9344   5.357   5.048   5.477  0.0379  0.3359 -1.1427
   94SAPE   C38 9345   5.458   5.027   5.287  0.0121  0.2098  0.2941
   94SAPE   H8X 9346   5.441   4.918   5.287 -2.7195  0.5787 -0.1284
   94SAPE   H8Y 9347   5.552   5.054   5.234  2.0374 -2.5684  2.1792
   94SAPE   C39 9348   5.344   5.089   5.209 -0.8428 -0.3661  0.2347
   94SAPE   H9X 9349   5.353   5.194   5.246  0.0236 -0.0122 -0.9305
   94SAPE   H9Y 9350   5.240   5.058   5.234 -1.4308  1.7094  0.5514
   94SAPE  C310 9351   5.379   5.099   5.057  0.2922 -0.3181 -0.5280
   94SAPE  H10X 9352   5.415   5.000   5.023 -0.9004 -0.6395 -0.8983
   94SAPE  H10Y 9353   5.455   5.180   5.047  0.4156 -0.4588 -0.7465
   94SAPE  C311 9354   5.260   5.132   4.970  0.0754  0.4923 -0.1491
   94SAPE  H11X 9355   5.195   5.210   5.015 -2.3531 -1.1533 -0.5893
   94SAPE  H11Y 9356   5.196   5.041   4.962  1.1716 -0.2794 -0.2350
   94SAPE  C312 9357   5.296   5.186   4.830  0.7177  0.6065  0.1926
   94SAPE  H12X 9358   5.353   5.098   4.794  1.5330  0.1481  2.4408
   94SAPE  H12Y 9359   5.354   5.280   4.841  3.5784 -1.1180  0.6624
   94SAPE  C313 9360   5.173   5.214   4.736 -0.2016 -0.6172  0.9626
   94SAPE  H13X 9361   5.128   5.115   4.714  0.1764 -0.4206 -0.8388
   94SAPE  H13Y 9362   5.211   5.261   4.643 -0.7697 -1.3470  0.3504
   94SAPE  C314 9363   5.061   5.310   4.791  0.4454 -0.8216 -0.2344
   94SAPE  H14X 9364   5.108   5.394   4.846 -3.3642  0.1235  1.9262
   94SAPE  H14Y 9365   4.991   5.264   4.864  1.2466  0.2109  1.2168
   94SAPE  C315 9366   4.978   5.376   4.678  0.5048 -0.0254 -0.5445
   94SAPE  H15X 9367   5.053   5.429   4.616  2.6284 -1.5071  0.6331
   94SAPE  H15Y 9368   4.909   5.444   4.735  2.0714  0.8918  0.3223
   94SAPE  C316 9369   4.887   5.275   4.597 -0.2601 -0.2830  0.5902
   94SAPE  H16X 9370   4.932   5.176   4.573  0.9621  0.3618  0.1626
   94SAPE  H16Y 9371   4.870   5.318   4.496 -1.4907 -1.3707  0.2973
   94SAPE  C317 9372   4.741   5.263   4.652 -0.1425 -0.0705  0.1217
   94SAPE  H17X 9373   4.699   5.366   4.647  0.8125  0.3853  0.9507
   94SAPE  H17Y 9374   4.742   5.241   4.761 -0.3461 -0.2984  0.0780
   94SAPE  C318 9375   4.655   5.163   4.570  0.3389 -0.2375 -0.0514
   94SAPE  H18X 9376   4.684   5.060   4.600  0.9002  0.2287  1.0488
   94SAPE  H18Y 9377   4.670   5.174   4.460  2.2300 -1.0536  0.0972
   94SAPE  H18Z 9378   4.546   5.175   4.591  0.4714 -0.5697  0.8722
   95SAPE     N 9379   2.698   3.338   6.258  0.2640 -0.5249 -0.0674
   95SAPE   HN1 9380   2.654   3.306   6.346 -0.0314  0.7474  0.2648
   95SAPE   HN2 9381   2.712   3.265   6.185 -1.0330 -1.1938  0.3239
   95SAPE   HN3 9382   2.792   3.368   6.290 -0.1460  0.5082  0.1981
   95SAPE   C12 9383   2.635   3.466   6.207 -0.2138 -0.4962 -0.3431
   95SAPE  H12A 9384   2.676   3.490   6.107 -0.2448 -0.8780 -0.4497
   95SAPE  H12B 9385   2.645   3.547   6.283 -3.2654  0.2996 -0.6523
   95SAPE   C11 9386   2.491   3.431   6.177  0.4730  0.1207 -0.9434
   95SAPE  H11A 9387   2.479   3.348   6.105 -0.5099  0.7130 -1.4813
   95SAPE  H11B 9388   2.434   3.508   6.121  1.3465  1.7202  0.2655
   95SAPE     P 9389   2.364   3.504   6.388 -0.1771 -0.0773  0.0262
   95SAPE   O13 9390   2.227   3.526   6.342  0.2381  0.2625 -0.4191
   95SAPE   O14 9391   2.384   3.466   6.528  0.1041 -0.2071  0.2095
   95SAPE   O12 9392   2.423   3.389   6.301 -0.3801 -0.0926  0.3147
   95SAPE   O11 9393   2.450   3.630   6.358  0.3630 -0.4311  0.2816
   95SAPE    C1 9394   2.399   3.759   6.318 -0.0811  0.1099 -0.3586
   95SAPE    HA 9395   2.297   3.753   6.274 -0.3603 -1.1439  0.4137
   95SAPE    HB 9396   2.402   3.823   6.408  1.3957  0.8299 -0.8891
   95SAPE    C2 9397   2.488   3.829   6.212  0.6383 -0.1953 -0.4610
   95SAPE    HS 9398   2.451   3.933   6.199 -1.2976 -0.5287  1.7100
   95SAPE   O21 9399   2.495   3.763   6.084  1.0639  0.3889 -0.3060
   95SAPE   C21 9400   2.410   3.804   5.996  0.0604  0.0448  0.6142
   95SAPE   O22 9401   2.348   3.911   6.006 -0.0982  0.1312  0.3404
   95SAPE   C22 9402   2.388   3.712   5.876  0.3670  0.2410 -0.0548
   95SAPE   H2R 9403   2.490   3.689   5.837  0.0028 -2.8247  0.5593
   95SAPE   H2S 9404   2.343   3.618   5.913  1.8675 -1.3452 -2.0365
   95SAPE    C3 9405   2.626   3.850   6.270 -0.1824  0.3797 -0.5189
   95SAPE    HX 9406   2.654   3.753   6.316 -2.2162 -0.9447 -1.8963
   95SAPE    HY 9407   2.621   3.923   6.353 -0.4189  0.4572 -0.5994
   95SAPE   O31 9408   2.709   3.895   6.168  0.1968 -0.0863  0.2103
   95SAPE   C31 9409   2.799   3.811   6.124 -0.0022 -0.3317 -0.4390
   95SAPE   O32 9410   2.811   3.696   6.168 -0.0417 -0.5196 -0.1087
   95SAPE   C32 9411   2.882   3.876   6.009  0.3602 -0.3344 -0.2397
   95SAPE   H2X 9412   2.959   3.801   5.980  2.5672  0.7719  2.3504
   95SAPE   H2Y 9413   2.933   3.967   6.047 -1.8366  0.5764  0.6543
   95SAPE   C23 9414   2.298   3.775   5.763  0.4354  0.2388 -0.4516
   95SAPE   H3R 9415   2.200   3.805   5.806 -0.0664 -0.1752 -1.2862
   95SAPE   H3S 9416   2.260   3.695   5.696  0.1041  2.8974 -3.6649
   95SAPE   C24 9417   2.346   3.900   5.686 -0.0241  0.1408 -0.1077
   95SAPE   H4R 9418   2.449   3.877   5.652  0.1725  1.0945 -0.1739
   95SAPE   H4S 9419   2.345   3.985   5.757 -1.1361  2.3676 -2.6123
   95SAPE   C25 9420   2.257   3.960   5.581  0.0537  0.6778  0.1451
   95SAPE   H5R 9421   2.160   3.995   5.620 -0.6387  1.3428 -2.0030
   95SAPE   C26 9422   2.276   3.945   5.444 -0.0854 -0.1209  0.1364
   95SAPE   H6R 9423   2.212   4.002   5.375  0.8921  1.2198  0.2959
   95SAPE   C27 9424   2.402   3.886   5.384 -0.4755  0.0311 -0.3078
   95SAPE   H7R 9425   2.380   3.829   5.291 -0.1796  0.5364 -0.6879
   95SAPE   H7S 9426   2.445   3.818   5.461 -1.3274  1.4560  1.4814
   95SAPE   C28 9427   2.516   3.981   5.359  0.4249  0.1527  0.0844
   95SAPE   H8R 9428   2.588   3.975   5.442  0.5765  0.3871 -0.0296
   95SAPE   C29 9429   2.548   4.057   5.253 -0.1925 -0.2060  0.5348
   95SAPE   H9R 9430   2.645   4.109   5.245 -0.1517 -0.4572 -0.9381
   95SAPE  C210 9431   2.461   4.085   5.130  0.1140 -0.8113 -0.8706
   95SAPE  H10R 9432   2.456   4.196   5.124 -2.7605 -0.8218 -0.3574
   95SAPE  H10S 9433   2.356   4.050   5.142 -0.4432  1.3752  1.5837
   95SAPE  C211 9434   2.503   4.029   4.999 -0.2498 -0.5390  0.4525
   95SAPE  H11R 9435   2.490   3.920   4.992  1.2389 -0.6970 -0.4164
   95SAPE  C212 9436   2.513   4.095   4.881 -0.2903 -0.0850  0.5116
   95SAPE  H12R 9437   2.539   4.032   4.795  2.9746  2.9380 -0.9798
   95SAPE  C213 9438   2.512   4.237   4.849  0.4205 -0.7757  0.0471
   95SAPE  H13R 9439   2.592   4.247   4.772  0.8245 -0.4174  0.5046
   95SAPE  H13S 9440   2.543   4.302   4.934  1.7465  0.6793 -1.4745
   95SAPE  C214 9441   2.368   4.277   4.796 -0.6374  0.0801 -1.1888
   95SAPE  H14R 9442   2.298   4.289   4.880  2.4340 -1.6697  1.8911
   95SAPE  C215 9443   2.330   4.286   4.668 -0.4475 -0.1660 -0.0814
   95SAPE  H15R 9444   2.230   4.331   4.655  0.3179  1.1399 -2.0271
   95SAPE  C216 9445   2.407   4.258   4.540  0.5737  0.0034  1.4956
   95SAPE  H16R 9446   2.466   4.164   4.541  1.4447  0.4026 -1.5923
   95SAPE  H16S 9447   2.490   4.332   4.527  0.3061 -0.0024 -0.5641
   95SAPE  C217 9448   2.320   4.271   4.408  0.2212 -0.2048  0.4821
   95SAPE  H17R 9449   2.364   4.282   4.307  0.1664  0.8438  0.5568
   95SAPE  H17S 9450   2.266   4.368   4.419 -1.3765 -0.7774 -1.7087
   95SAPE  C218 9451   2.219   4.149   4.398 -0.9723  0.0687  0.3886
   95SAPE  H18R 9452   2.166   4.127   4.493  0.0070  0.3987  1.0224
   95SAPE  H18S 9453   2.296   4.071   4.378  1.2850  2.2471  0.1749
   95SAPE  C219 9454   2.123   4.160   4.275 -0.8963  0.3330  0.5412
   95SAPE  H19R 9455   2.064   4.066   4.287 -0.9634  0.4827  1.4631
   95SAPE  H19S 9456   2.174   4.150   4.177 -1.1791 -2.3821  0.5755
   95SAPE  C220 9457   2.040   4.286   4.267  0.4513  0.2086  0.0031
   95SAPE  H20R 9458   1.979   4.284   4.174 -0.7208  1.0520  0.7244
   95SAPE  H20S 9459   2.101   4.377   4.251  1.5589 -0.6500 -0.8186
   95SAPE  H20T 9460   1.968   4.298   4.351 -0.4337  0.2750 -0.7606
   95SAPE   C33 9461   2.787   3.928   5.902  0.6236  0.2429  0.1779
   95SAPE   H3X 9462   2.832   4.005   5.836 -0.2188 -0.5967 -1.4508
   95SAPE   H3Y 9463   2.704   3.979   5.957  0.5091 -0.3870  0.5953
   95SAPE   C34 9464   2.726   3.812   5.813 -0.2495  0.4153  0.1833
   95SAPE   H4X 9465   2.655   3.860   5.742  0.2655 -0.7102 -1.1484
   95SAPE   H4Y 9466   2.685   3.739   5.886  1.0236  0.0314  0.5400
   95SAPE   C35 9467   2.844   3.753   5.725 -0.0575 -0.3657 -0.5028
   95SAPE   H5X 9468   2.799   3.668   5.668  0.6651 -1.2572  0.2456
   95SAPE   H5Y 9469   2.926   3.713   5.787 -0.3879  0.3529  0.4100
   95SAPE   C36 9470   2.896   3.856   5.627  0.4375  0.3564  0.6620
   95SAPE   H6X 9471   2.949   3.940   5.676  0.6576 -0.1315  1.2804
   95SAPE   H6Y 9472   2.809   3.902   5.575  1.5888 -0.0767 -1.7906
   95SAPE   C37 9473   2.997   3.792   5.520  0.0208 -0.1222  0.3625
   95SAPE   H7X 9474   2.946   3.711   5.464  1.7539 -0.3347 -0.9827
   95SAPE   H7Y 9475   3.082   3.752   5.578  0.3660 -0.2138 -0.2041
   95SAPE   C38 9476   3.054   3.902   5.423  0.2351  0.5348  0.5213
   95SAPE   H8X 9477   3.116   3.845   5.349 -0.5651  0.9240 -0.4745
   95SAPE   H8Y 9478   3.112   3.971   5.487 -1.0309  0.9453  1.2304
   95SAPE   C39 9479   2.947   3.983   5.361  1.4031 -0.2263  0.5411
   95SAPE   H9X 9480   2.901   4.045   5.442  4.0521  1.2446  1.0235
   95SAPE   H9Y 9481   2.866   3.914   5.328  1.3382  0.1190 -0.0248
   95SAPE  C310 9482   3.005   4.074   5.249 -0.3110 -0.5235  0.4669
   95SAPE  H10X 9483   3.069   4.147   5.304 -1.1949 -0.1919  1.0827
   95SAPE  H10Y 9484   2.928   4.140   5.204 -2.3359 -1.7551  1.9207
   95SAPE  C311 9485   3.089   4.009   5.129  0.2084 -0.5126  0.4967
   95SAPE  H11X 9486   3.153   3.933   5.179  0.6307 -0.0438  0.6777
   95SAPE  H11Y 9487   3.143   4.089   5.074 -2.4145  0.9758 -0.1069
   95SAPE  C312 9488   2.993   3.926   5.047 -0.0586 -0.1807  0.0057
   95SAPE  H12X 9489   2.912   3.876   5.104  0.5839 -0.3750  0.7684
   95SAPE  H12Y 9490   3.052   3.849   4.992 -0.4542  0.0261 -0.7301
   95SAPE  C313 9491   2.931   4.014   4.939  0.6426 -0.6542  0.0001
   95SAPE  H13X 9492   2.920   4.122   4.963 -1.9084 -1.1615  1.5245
   95SAPE  H13Y 9493   2.824   3.984   4.932  0.3519 -0.4850  2.6936
   95SAPE  C314 9494   3.003   4.006   4.805 -0.7965  0.0092  0.0698
   95SAPE  H14X 9495   2.978   3.905   4.765  0.0094  0.2080 -0.9753
   95SAPE  H14Y 9496   3.113   4.007   4.820 -0.8078 -1.2656  0.3644
   95SAPE  C315 9497   2.967   4.103   4.694 -1.3449  0.1809 -0.2567
   95SAPE  H15X 9498   3.004   4.206   4.714  0.5363  0.0264 -2.4225
   95SAPE  H15Y 9499   2.857   4.105   4.689 -1.5753 -3.0035  0.9950
   95SAPE  C316 9500   3.029   4.046   4.572  0.1050 -0.3615  0.6241
   95SAPE  H16X 9501   2.991   3.942   4.559 -1.1505  0.2025 -0.5174
   95SAPE  H16Y 9502   3.140   4.043   4.579  0.2456 -2.3684 -1.3648
   95SAPE  C317 9503   3.006   4.149   4.462 -0.4354 -0.1254  0.4016
   95SAPE  H17X 9504   3.055   4.245   4.489 -1.9334  1.4492 -2.1591
   95SAPE  H17Y 9505   2.896   4.165   4.458 -0.0861  3.2989  1.5673
   95SAPE  C318 9506   3.050   4.107   4.325 -0.4191  0.6677  0.5821
   95SAPE  H18X 9507   2.994   4.013   4.305  0.0490  0.6849 -0.9996
   95SAPE  H18Y 9508   3.160   4.090   4.319 -0.2316  1.8172  0.6680
   95SAPE  H18Z 9509   3.021   4.178   4.245 -0.8949  0.6700  0.7586
   96SAPE     N 9510   5.899   1.051   7.106  0.4671  0.2339 -0.3358
   96SAPE   HN1 9511   5.808   1.006   7.127  1.7951 -1.7067  1.6566
   96SAPE   HN2 9512   5.919   1.121   7.181 -1.0696 -0.9458  1.2459
   96SAPE   HN3 9513   5.892   1.096   7.013  1.5254 -0.0996 -0.5954
   96SAPE   C12 9514   5.997   0.946   7.081  0.5296  0.7566 -0.0626
   96SAPE  H12A 9515   5.966   0.890   6.990  3.7028 -0.0104 -0.7929
   96SAPE  H12B 9516   5.999   0.876   7.168  0.2345 -1.4562 -1.7364
   96SAPE   C11 9517   6.133   1.017   7.039 -0.2073 -0.3402  0.2275
   96SAPE  H11A 9518   6.208   0.936   7.038  1.5816  1.2364 -1.3271
   96SAPE  H11B 9519   6.158   1.077   7.129 -0.5426 -1.9022  1.4021
   96SAPE     P 9520   6.245   1.201   6.882  0.3094  0.1115  0.1362
   96SAPE   O13 9521   6.207   1.332   6.931 -0.2718  0.6745  0.1901
   96SAPE   O14 9522   6.384   1.153   6.898  0.3523  0.5008 -0.3613
   96SAPE   O12 9523   6.138   1.088   6.915  0.2766  0.2640  0.6426
   96SAPE   O11 9524   6.228   1.197   6.729 -0.2135  0.1217 -0.4284
   96SAPE    C1 9525   6.239   1.091   6.638 -0.3438  0.3317  0.2813
   96SAPE    HA 9526   6.326   1.113   6.573 -1.1065 -0.0791 -0.9104
   96SAPE    HB 9527   6.260   0.993   6.685  0.3244  1.1511  1.7464
   96SAPE    C2 9528   6.116   1.076   6.544 -0.3328  0.1579 -0.7748
   96SAPE    HS 9529   6.120   0.989   6.475 -1.8987 -1.9466  1.5945
   96SAPE   O21 9530   6.108   1.204   6.471  0.6213 -0.0658 -1.4009
   96SAPE   C21 9531   6.175   1.205   6.360 -0.7776  0.2459 -0.2717
   96SAPE   O22 9532   6.260   1.128   6.314  0.1283  1.0572 -0.3273
   96SAPE   C22 9533   6.138   1.334   6.286 -0.0008  0.2004 -0.6147
   96SAPE   H2R 9534   6.030   1.351   6.306  1.1326  2.6515  6.1342
   96SAPE   H2S 9535   6.185   1.424   6.332 -2.0261  2.5452 -2.8252
   96SAPE    C3 9536   5.987   1.059   6.626 -0.4519  0.3546  1.0277
   96SAPE    HX 9537   5.975   1.133   6.709  0.3083  0.6075  0.9285
   96SAPE    HY 9538   5.998   0.962   6.679 -0.0245  0.2622  0.7760
   96SAPE   O31 9539   5.871   1.041   6.542 -0.3021  0.1526  0.7093
   96SAPE   C31 9540   5.812   1.159   6.526 -0.8536 -0.4246  0.2005
   96SAPE   O32 9541   5.849   1.268   6.575  0.0389 -0.2638 -0.2535
   96SAPE   C32 9542   5.695   1.140   6.435  0.1513  0.5652  0.6652
   96SAPE   H2X 9543   5.612   1.213   6.445  0.3246  1.3513 -2.5456
   96SAPE   H2Y 9544   5.657   1.038   6.462  0.2514  0.1459 -0.7268
   96SAPE   C23 9545   6.184   1.341   6.138  0.4048 -0.3911  0.2577
   96SAPE   H3R 9546   6.136   1.429   6.091 -0.7255 -0.5772  1.0273
   96SAPE   H3S 9547   6.153   1.252   6.080  2.7159 -0.0624 -1.6658
   96SAPE   C24 9548   6.338   1.356   6.118 -0.4904  0.1119  0.6817
   96SAPE   H4R 9549   6.373   1.323   6.018  1.1058 -0.0394  1.2514
   96SAPE   H4S 9550   6.393   1.286   6.185  1.3035  0.3716 -0.4555
   96SAPE   C25 9551   6.374   1.499   6.134 -0.1743 -0.1798  0.7217
   96SAPE   H5R 9552   6.400   1.526   6.237 -0.2741  1.8323  0.2469
   96SAPE   C26 9553   6.378   1.587   6.033 -0.6947 -0.1878 -0.0870
   96SAPE   H6R 9554   6.395   1.690   6.070 -1.0415 -0.0124 -0.4077
   96SAPE   C27 9555   6.345   1.573   5.886 -0.1446  0.7203  0.0014
   96SAPE   H7R 9556   6.286   1.660   5.850 -1.1636  0.9723  2.1180
   96SAPE   H7S 9557   6.269   1.494   5.872  0.2843  0.8161 -3.9158
   96SAPE   C28 9558   6.452   1.531   5.787  0.3616 -0.6927 -0.7521
   96SAPE   H8R 9559   6.532   1.468   5.828  1.9833  0.8029 -1.4602
   96SAPE   C29 9560   6.455   1.569   5.654  0.4604  0.0696 -0.1113
   96SAPE   H9R 9561   6.531   1.526   5.588 -1.1943 -1.5128 -1.0905
   96SAPE  C210 9562   6.340   1.649   5.585  0.5010  0.4637  0.1625
   96SAPE  H10R 9563   6.387   1.749   5.570 -2.8279  2.4245  1.5501
   96SAPE  H10S 9564   6.254   1.665   5.654 -0.4309  1.9191 -1.2740
   96SAPE  C211 9565   6.284   1.586   5.456 -0.1988  0.0803  0.5540
   96SAPE  H11R 9566   6.250   1.482   5.472 -1.5322  0.6364  1.5058
   96SAPE  C212 9567   6.278   1.640   5.335  0.1151  0.1218  0.1088
   96SAPE  H12R 9568   6.237   1.581   5.252 -2.7684  1.0560  0.7527
   96SAPE  C213 9569   6.328   1.779   5.308  0.7909 -0.1838  0.6885
   96SAPE  H13R 9570   6.437   1.787   5.330  1.0483 -2.3456  0.4000
   96SAPE  H13S 9571   6.275   1.838   5.387 -1.6299 -2.6345  1.0663
   96SAPE  C214 9572   6.290   1.830   5.172 -0.0182  0.4703  0.1876
   96SAPE  H14R 9573   6.189   1.868   5.154 -0.3591 -0.0796  0.9063
   96SAPE  C215 9574   6.379   1.835   5.065  0.1011 -0.8406  0.1665
   96SAPE  H15R 9575   6.338   1.847   4.964 -0.7604 -0.5582  0.5488
   96SAPE  C216 9576   6.524   1.788   5.063 -0.4553  0.0030 -0.7120
   96SAPE  H16R 9577   6.531   1.684   5.024 -0.9046  0.7245 -2.8538
   96SAPE  H16S 9578   6.564   1.779   5.166  0.4290  0.9938 -0.9496
   96SAPE  C217 9579   6.619   1.880   4.985  0.6205 -0.1012 -0.4150
   96SAPE  H17R 9580   6.725   1.847   4.986  1.5318  2.5096 -1.6863
   96SAPE  H17S 9581   6.610   1.987   5.012  2.2790  0.0208 -0.2814
   96SAPE  C218 9582   6.583   1.892   4.841 -0.2206  0.5398 -0.1472
   96SAPE  H18R 9583   6.496   1.962   4.837  1.6861  3.0014 -3.4444
   96SAPE  H18S 9584   6.540   1.799   4.799 -0.4192  0.9888 -0.9617
   96SAPE  C219 9585   6.695   1.934   4.752 -0.1075 -0.3185 -0.5803
   96SAPE  H19R 9586   6.767   1.851   4.735  0.0144 -0.2591 -0.3639
   96SAPE  H19S 9587   6.739   2.026   4.796 -0.2747 -0.8691  0.8066
   96SAPE  C220 9588   6.648   1.977   4.612 -0.7683  0.2863 -0.2093
   96SAPE  H20R 9589   6.596   2.075   4.605  1.7726  1.6343 -1.8114
   96SAPE  H20S 9590   6.586   1.896   4.566  0.8642 -0.1865 -1.6921
   96SAPE  H20T 9591   6.736   1.980   4.544 -0.1936 -4.9958 -0.1532
   96SAPE   C33 9592   5.734   1.120   6.288  0.3055  0.8172  0.5202
   96SAPE   H3X 9593   5.655   1.065   6.234  0.4840  0.9076  0.1679
   96SAPE   H3Y 9594   5.831   1.067   6.278  1.4444  2.5516  1.7110
   96SAPE   C34 9595   5.760   1.255   6.216  0.4426 -0.1389 -0.8911
   96SAPE   H4X 9596   5.813   1.329   6.279  0.6658 -1.4989  0.5657
   96SAPE   H4Y 9597   5.660   1.299   6.198  0.4478  0.5842  0.6612
   96SAPE   C35 9598   5.840   1.240   6.084  0.4595 -0.5727 -0.1225
   96SAPE   H5X 9599   5.908   1.152   6.091  0.3828 -0.5909  0.4551
   96SAPE   H5Y 9600   5.896   1.334   6.064 -1.0634  0.5991  0.8774
   96SAPE   C36 9601   5.739   1.222   5.967 -0.3078 -0.1737  0.1494
   96SAPE   H6X 9602   5.665   1.305   5.980 -1.6155 -1.3090  0.2340
   96SAPE   H6Y 9603   5.687   1.127   5.994  0.0104  0.5071  3.6125
   96SAPE   C37 9604   5.800   1.217   5.834 -0.5717 -0.4710 -0.0731
   96SAPE   H7X 9605   5.885   1.147   5.846  0.1997  0.7391  2.0966
   96SAPE   H7Y 9606   5.842   1.319   5.815  2.7520 -1.8365 -0.8687
   96SAPE   C38 9607   5.697   1.182   5.726  0.2164  0.0763 -0.6966
   96SAPE   H8X 9608   5.626   1.267   5.713 -0.2804 -0.3241 -0.6404
   96SAPE   H8Y 9609   5.652   1.087   5.761 -1.3752  0.9313 -0.3334
   96SAPE   C39 9610   5.750   1.145   5.588 -0.3137  0.3246 -0.2978
   96SAPE   H9X 9611   5.664   1.126   5.519 -0.1831  2.2401 -1.0398
   96SAPE   H9Y 9612   5.808   1.050   5.592 -1.2299 -0.2366  0.1961
   96SAPE  C310 9613   5.853   1.246   5.531  0.3432 -0.4540 -0.2475
   96SAPE  H10X 9614   5.937   1.256   5.602 -0.3566 -1.5198  0.7656
   96SAPE  H10Y 9615   5.806   1.346   5.527  2.3280  0.4960 -1.5231
   96SAPE  C311 9616   5.908   1.204   5.388  0.0123 -0.2671  1.2348
   96SAPE  H11X 9617   5.824   1.173   5.321  0.3697 -0.4524  0.8680
   96SAPE  H11Y 9618   5.979   1.119   5.394  1.2684  0.6452 -0.0360
   96SAPE  C312 9619   5.980   1.316   5.315 -0.3035  0.3648 -1.2038
   96SAPE  H12X 9620   6.069   1.347   5.375 -1.0030  0.4573 -0.1876
   96SAPE  H12Y 9621   5.912   1.402   5.301 -2.6660 -1.2040  0.0464
   96SAPE  C313 9622   6.031   1.273   5.173 -0.1570 -0.0063  0.2828
   96SAPE  H13X 9623   5.952   1.220   5.115 -0.5928  0.9336 -0.0072
   96SAPE  H13Y 9624   6.107   1.196   5.197 -0.6285 -0.8287 -0.7782
   96SAPE  C314 9625   6.086   1.391   5.095  0.4256 -0.2695 -0.1347
   96SAPE  H14X 9626   6.182   1.423   5.141  0.6689 -0.5675 -0.4331
   96SAPE  H14Y 9627   6.017   1.478   5.103 -0.2466 -0.6541 -1.5672
   96SAPE  C315 9628   6.082   1.374   4.942 -0.0438 -0.5192 -0.0531
   96SAPE  H15X 9629   5.992   1.311   4.928  0.1795 -0.7230 -0.5870
   96SAPE  H15Y 9630   6.170   1.324   4.897  0.7958 -1.2070  2.2296
   96SAPE  C316 9631   6.062   1.500   4.864 -0.4830  0.1277 -0.1932
   96SAPE  H16X 9632   5.984   1.566   4.909  1.3365  1.4515  1.1492
   96SAPE  H16Y 9633   6.018   1.468   4.767 -0.1429  1.7081 -0.9059
   96SAPE  C317 9634   6.191   1.589   4.848  0.1352  0.2310 -0.5521
   96SAPE  H17X 9635   6.263   1.519   4.799  1.1529 -0.6200  2.0229
   96SAPE  H17Y 9636   6.240   1.617   4.943 -0.2655 -0.7437 -0.0410
   96SAPE  C318 9637   6.166   1.718   4.776 -0.3379  0.2988 -0.1981
   96SAPE  H18X 9638   6.102   1.783   4.839 -1.4785  0.5261 -1.5296
   96SAPE  H18Y 9639   6.131   1.704   4.671  2.8204  0.2569 -1.3583
   96SAPE  H18Z 9640   6.264   1.768   4.758  0.1473 -0.9521 -1.2090
   97SAPE     N 9641   5.138   2.099   6.676  0.1688 -0.0163 -0.2966
   97SAPE   HN1 9642   5.085   2.179   6.638  0.7403  0.5463  0.0626
   97SAPE   HN2 9643   5.077   2.040   6.736  1.1666  0.9311  1.7566
   97SAPE   HN3 9644   5.211   2.133   6.742 -0.5900  1.3637 -0.1206
   97SAPE   C12 9645   5.190   2.007   6.568  0.0951  0.3213  0.2123
   97SAPE  H12A 9646   5.258   2.059   6.497 -0.1643 -1.2797 -1.2997
   97SAPE  H12B 9647   5.102   1.973   6.509 -0.5262  1.4604  0.4597
   97SAPE   C11 9648   5.246   1.885   6.642 -0.1307 -0.4047  0.8266
   97SAPE  H11A 9649   5.308   1.938   6.717 -1.8479  1.6386  0.9125
   97SAPE  H11B 9650   5.310   1.825   6.575  0.1038 -1.0624  1.6174
   97SAPE     P 9651   5.091   1.682   6.611  0.0090  0.3822 -0.1562
   97SAPE   O13 9652   5.173   1.567   6.660 -0.2445 -0.2985 -0.2077
   97SAPE   O14 9653   4.941   1.671   6.625 -0.4706  0.1793  0.1049
   97SAPE   O12 9654   5.137   1.805   6.698  0.3212 -0.5776  0.2095
   97SAPE   O11 9655   5.128   1.727   6.460  0.1686  0.5040 -0.2362
   97SAPE    C1 9656   5.137   1.615   6.373 -0.1107 -0.9271  0.9691
   97SAPE    HA 9657   5.215   1.543   6.404  1.7285  1.4106  2.1558
   97SAPE    HB 9658   5.044   1.554   6.374 -0.5593 -0.2745  0.2612
   97SAPE    C2 9659   5.169   1.650   6.227  0.1839 -0.0592  0.0505
   97SAPE    HS 9660   5.251   1.724   6.226 -0.3985  0.6233  1.1918
   97SAPE   O21 9661   5.044   1.699   6.172  0.1554  0.2481  0.2339
   97SAPE   C21 9662   5.035   1.832   6.168  0.1770 -0.5264 -0.4180
   97SAPE   O22 9663   5.122   1.911   6.180 -0.1988 -0.4700  0.3904
   97SAPE   C22 9664   4.891   1.865   6.129 -1.1491  0.7124 -0.3971
   97SAPE   H2R 9665   4.834   1.770   6.125 -2.0256  1.0720  1.8184
   97SAPE   H2S 9666   4.841   1.912   6.216 -0.4061  0.2419  0.2935
   97SAPE    C3 9667   5.207   1.522   6.138 -0.4829 -0.3572 -0.3076
   97SAPE    HX 9668   5.133   1.448   6.175  0.9785 -1.1728  1.1050
   97SAPE    HY 9669   5.306   1.477   6.159  0.2972  0.5335 -1.8873
   97SAPE   O31 9670   5.211   1.548   5.993  0.3625 -0.8556  0.0936
   97SAPE   C31 9671   5.323   1.607   5.955 -0.5218  0.2823  0.0001
   97SAPE   O32 9672   5.415   1.640   6.030  0.5477 -0.1875 -0.1209
   97SAPE   C32 9673   5.315   1.608   5.803  0.0748  0.7209 -0.9420
   97SAPE   H2X 9674   5.214   1.645   5.777 -0.5064  1.3520  1.8777
   97SAPE   H2Y 9675   5.326   1.508   5.756  0.4776  1.1956 -1.8712
   97SAPE   C23 9676   4.876   1.960   6.010 -0.0353 -0.4083  0.5827
   97SAPE   H3R 9677   4.932   2.055   6.025 -3.2732  1.7431  0.0162
   97SAPE   H3S 9678   4.768   1.986   5.999 -0.1391 -0.8350  0.5762
   97SAPE   C24 9679   4.909   1.894   5.869  0.7032  0.3218 -0.1160
   97SAPE   H4R 9680   4.835   1.926   5.793  1.4650 -2.1329 -2.0291
   97SAPE   H4S 9681   4.879   1.792   5.901  1.8233  0.5725  1.9374
   97SAPE   C25 9682   5.053   1.904   5.828 -0.3322  0.0869 -0.3139
   97SAPE   H5R 9683   5.122   1.875   5.908 -0.4333  1.3240  0.2387
   97SAPE   C26 9684   5.098   1.957   5.713  0.0809 -0.9926 -0.4203
   97SAPE   H6R 9685   5.208   1.954   5.704  0.0486 -0.4200 -1.0507
   97SAPE   C27 9686   5.010   2.003   5.592 -0.2129 -0.6847 -0.0041
   97SAPE   H7R 9687   4.936   2.080   5.623  1.8587  1.0365  0.9454
   97SAPE   H7S 9688   4.946   1.917   5.562 -0.7848 -0.6467  1.0719
   97SAPE   C28 9689   5.092   2.057   5.475  0.2495  0.4072  0.1254
   97SAPE   H8R 9690   5.198   2.069   5.499  0.2140 -0.5686  0.8134
   97SAPE   C29 9691   5.062   2.059   5.349  0.4074 -1.1950 -0.0022
   97SAPE   H9R 9692   5.138   2.085   5.274 -0.2107  0.5927 -0.0778
   97SAPE  C210 9693   4.925   2.015   5.291  0.0701 -0.1005  0.2033
   97SAPE  H10R 9694   4.908   1.914   5.334  1.2581 -0.9824 -1.3320
   97SAPE  H10S 9695   4.933   2.007   5.181 -0.7360 -0.4191  0.1605
   97SAPE  C211 9696   4.808   2.104   5.313  0.4737  0.0406 -0.4536
   97SAPE  H11R 9697   4.834   2.207   5.285  0.5864  0.6359  1.6974
   97SAPE  C212 9698   4.685   2.074   5.369 -0.0397 -0.1054 -0.9320
   97SAPE  H12R 9699   4.610   2.153   5.383  1.1355  0.9809 -0.6462
   97SAPE  C213 9700   4.642   1.931   5.399  0.3294 -0.0179  0.1136
   97SAPE  H13R 9701   4.569   1.926   5.483  0.9568  1.1758  0.7610
   97SAPE  H13S 9702   4.724   1.870   5.442  0.8842  0.4631 -0.2477
   97SAPE  C214 9703   4.594   1.865   5.274 -0.4377  0.3276 -0.7115
   97SAPE  H14R 9704   4.652   1.878   5.181 -1.8439 -2.1424 -2.0395
   97SAPE  C215 9705   4.479   1.794   5.259  0.3284  0.5557  0.0642
   97SAPE  H15R 9706   4.468   1.725   5.175  1.3788 -0.7345  0.9449
   97SAPE  C216 9707   4.370   1.761   5.362 -0.2910  0.6480 -0.2916
   97SAPE  H16R 9708   4.268   1.753   5.319 -1.0910  1.1207  1.4255
   97SAPE  H16S 9709   4.375   1.833   5.447  0.5763  0.9090 -0.5548
   97SAPE  C217 9710   4.399   1.616   5.415 -0.1948 -0.4933  0.2127
   97SAPE  H17R 9711   4.434   1.559   5.326  1.0300 -1.0173  1.0062
   97SAPE  H17S 9712   4.301   1.576   5.451 -0.2995 -0.5860 -0.1637
   97SAPE  C218 9713   4.508   1.608   5.526  0.7422  0.1765  0.6668
   97SAPE  H18R 9714   4.594   1.675   5.505  2.3622 -1.4728  1.7859
   97SAPE  H18S 9715   4.538   1.501   5.529  0.7431  0.1631  0.3061
   97SAPE  C219 9716   4.456   1.653   5.665  0.4692  0.0371 -0.0237
   97SAPE  H19R 9717   4.370   1.592   5.701  1.2973 -0.6462  0.8456
   97SAPE  H19S 9718   4.432   1.759   5.643  0.1197 -0.4687 -2.4108
   97SAPE  C220 9719   4.555   1.636   5.780 -0.2681 -0.6324  0.1945
   97SAPE  H20R 9720   4.580   1.528   5.790  0.7447 -0.4353 -0.1188
   97SAPE  H20S 9721   4.502   1.665   5.874 -0.7733  0.1972 -0.3359
   97SAPE  H20T 9722   4.646   1.700   5.782  0.2747 -1.2375  4.7119
   97SAPE   C33 9723   5.408   1.713   5.743  0.0837 -0.6623 -0.0925
   97SAPE   H3X 9724   5.509   1.693   5.785 -0.4086 -0.2864  1.3037
   97SAPE   H3Y 9725   5.392   1.816   5.781  2.2380 -0.1221 -0.4933
   97SAPE   C34 9726   5.397   1.718   5.583 -0.0393 -0.8174 -0.7829
   97SAPE   H4X 9727   5.290   1.703   5.555 -0.4931 -0.9108  0.8782
   97SAPE   H4Y 9728   5.444   1.632   5.532 -0.7344 -2.9805  1.9576
   97SAPE   C35 9729   5.447   1.842   5.513  0.4338  0.0568  0.3635
   97SAPE   H5X 9730   5.558   1.845   5.505  0.4186  0.5092  0.2759
   97SAPE   H5Y 9731   5.412   1.942   5.548 -0.2437 -0.2098  0.4477
   97SAPE   C36 9732   5.398   1.837   5.362  1.2046  0.2466  0.0651
   97SAPE   H6X 9733   5.291   1.809   5.354  1.0047  0.9934  0.0420
   97SAPE   H6Y 9734   5.449   1.758   5.304  1.4669  0.0198  0.5937
   97SAPE   C37 9735   5.432   1.958   5.274 -0.0978 -0.2350 -0.4775
   97SAPE   H7X 9736   5.540   1.978   5.292 -0.0537 -0.8087 -0.0739
   97SAPE   H7Y 9737   5.381   2.052   5.302  0.4425 -0.1491  0.2340
   97SAPE   C38 9738   5.402   1.941   5.121 -0.6886 -0.2556 -0.1893
   97SAPE   H8X 9739   5.292   1.928   5.107 -0.9499  0.2842  1.1597
   97SAPE   H8Y 9740   5.456   1.850   5.088  0.1498  0.5021 -0.9439
   97SAPE   C39 9741   5.448   2.065   5.050  0.2776  0.2886 -0.2947
   97SAPE   H9X 9742   5.559   2.051   5.048  0.1263 -2.2724  2.3507
   97SAPE   H9Y 9743   5.415   2.157   5.103  0.2708  0.6289 -0.8903
   97SAPE  C310 9744   5.391   2.070   4.907  0.2947  0.1103  0.3518
   97SAPE  H10X 9745   5.282   2.050   4.908 -0.0116  1.6877  0.7578
   97SAPE  H10Y 9746   5.438   1.994   4.840 -2.0819  2.2919 -4.2747
   97SAPE  C311 9747   5.425   2.199   4.836  0.3326 -0.5174  0.3304
   97SAPE  H11X 9748   5.534   2.216   4.827  0.4705 -1.7058 -0.4607
   97SAPE  H11Y 9749   5.377   2.281   4.894  0.1658  0.9713 -1.7878
   97SAPE  C312 9750   5.353   2.231   4.700  0.2576 -0.4105  0.2975
   97SAPE  H12X 9751   5.246   2.259   4.711 -0.0895 -1.9659  1.1129
   97SAPE  H12Y 9752   5.354   2.148   4.626 -0.7036 -0.2737  0.1226
   97SAPE  C313 9753   5.395   2.366   4.638  0.6574  0.1924  0.5567
   97SAPE  H13X 9754   5.500   2.357   4.603 -0.0771 -0.9048 -1.5872
   97SAPE  H13Y 9755   5.397   2.442   4.718 -1.1308 -0.2802  1.1173
   97SAPE  C314 9756   5.290   2.418   4.539  0.1920  0.5096  0.6261
   97SAPE  H14X 9757   5.195   2.431   4.593 -0.9868 -1.1976 -0.9195
   97SAPE  H14Y 9758   5.268   2.346   4.457  0.5448  1.6057 -0.4739
   97SAPE  C315 9759   5.347   2.549   4.467  0.7130  0.2392  0.2957
   97SAPE  H15X 9760   5.439   2.507   4.420  0.0296 -0.6686 -0.2880
   97SAPE  H15Y 9761   5.366   2.630   4.540  1.8778  1.2504 -1.0732
   97SAPE  C316 9762   5.262   2.598   4.347 -0.0165 -0.8008 -0.0236
   97SAPE  H16X 9763   5.174   2.655   4.383  0.8883 -0.1920  1.3250
   97SAPE  H16Y 9764   5.224   2.505   4.300  0.6158 -0.8830 -0.3820
   97SAPE  C317 9765   5.334   2.675   4.236  0.6859  0.3250  0.5586
   97SAPE  H17X 9766   5.432   2.625   4.216  0.4378  0.4463 -1.1398
   97SAPE  H17Y 9767   5.357   2.773   4.283  2.4619  0.4611 -0.4727
   97SAPE  C318 9768   5.249   2.680   4.107 -0.2976 -0.3325  0.0971
   97SAPE  H18X 9769   5.316   2.710   4.024 -0.1747  0.9937  0.6582
   97SAPE  H18Y 9770   5.169   2.756   4.105  0.0866  0.1386  1.4542
   97SAPE  H18Z 9771   5.205   2.583   4.075 -2.6525  1.2712 -1.9117
   98SAPE     N 9772   5.064   6.596   6.542 -0.5716 -0.1288 -0.3132
   98SAPE   HN1 9773   5.106   6.670   6.482  2.9950 -0.7285  1.1444
   98SAPE   HN2 9774   4.981   6.629   6.595 -0.0990  1.6022 -0.5834
   98SAPE   HN3 9775   5.136   6.567   6.612 -0.3614  1.2213  0.0540
   98SAPE   C12 9776   5.010   6.477   6.476  0.7197 -0.2640 -0.0073
   98SAPE  H12A 9777   4.998   6.400   6.555 -1.3530 -0.8710 -0.8320
   98SAPE  H12B 9778   5.084   6.436   6.404  0.9587 -2.9447  1.6468
   98SAPE   C11 9779   4.869   6.517   6.420  0.7081  0.4571  0.1409
   98SAPE  H11A 9780   4.828   6.429   6.365 -0.3513  1.8317 -1.3641
   98SAPE  H11B 9781   4.875   6.602   6.348 -2.7252  3.0638  2.5457
   98SAPE     P 9782   4.649   6.630   6.518  0.2445  0.0291 -0.0373
   98SAPE   O13 9783   4.589   6.660   6.652  0.3151  0.0891  0.2638
   98SAPE   O14 9784   4.658   6.745   6.431 -0.2578  0.2206  0.3656
   98SAPE   O12 9785   4.788   6.561   6.536  0.3122 -0.1630 -0.4543
   98SAPE   O11 9786   4.555   6.528   6.450 -0.0064 -0.0745 -0.4650
   98SAPE    C1 9787   4.452   6.561   6.355 -0.2068 -0.2926  0.1645
   98SAPE    HA 9788   4.369   6.488   6.348 -1.3565  0.9324  0.5237
   98SAPE    HB 9789   4.390   6.650   6.379 -0.3782  0.5520 -2.9395
   98SAPE    C2 9790   4.507   6.582   6.215 -0.1602  0.3527 -0.0266
   98SAPE    HS 9791   4.577   6.668   6.215  1.9483 -1.2376 -1.8627
   98SAPE   O21 9792   4.398   6.603   6.125 -0.0880 -0.0454 -0.6690
   98SAPE   C21 9793   4.339   6.717   6.138 -0.0050 -0.1613  0.7399
   98SAPE   O22 9794   4.375   6.808   6.213  0.5443 -0.0271  0.1380
   98SAPE   C22 9795   4.208   6.721   6.054 -0.9619  0.2585 -0.5721
   98SAPE   H2R 9796   4.200   6.622   6.003 -0.1022 -2.2735  3.6896
   98SAPE   H2S 9797   4.124   6.710   6.127 -0.3142  0.6736  0.2493
   98SAPE    C3 9798   4.577   6.455   6.167 -0.9124  0.3317 -0.4679
   98SAPE    HX 9799   4.497   6.379   6.156  1.5213 -2.7160  1.1438
   98SAPE    HY 9800   4.641   6.414   6.248 -1.6076 -0.8068 -0.4808
   98SAPE   O31 9801   4.658   6.492   6.049 -0.2970  1.0845 -0.0231
   98SAPE   C31 9802   4.722   6.384   6.001 -0.3212  0.2070 -0.4673
   98SAPE   O32 9803   4.711   6.269   6.053 -0.0886  0.0489  0.0415
   98SAPE   C32 9804   4.794   6.431   5.868 -0.0209  0.0798 -0.3237
   98SAPE   H2X 9805   4.858   6.521   5.882 -0.8445  0.7228 -0.5873
   98SAPE   H2Y 9806   4.715   6.468   5.800  0.3450  1.5817  0.0312
   98SAPE   C23 9807   4.181   6.844   5.962 -0.0656 -0.5623 -0.1668
   98SAPE   H3R 9808   4.219   6.938   6.007 -0.5727  0.0519 -0.9998
   98SAPE   H3S 9809   4.070   6.845   5.954 -0.0619 -0.0898 -0.1571
   98SAPE   C24 9810   4.259   6.829   5.833 -0.2234  0.0284 -0.9238
   98SAPE   H4R 9811   4.194   6.870   5.752 -1.3267  0.6557  0.2488
   98SAPE   H4S 9812   4.251   6.720   5.813  0.0748  0.0299 -1.0483
   98SAPE   C25 9813   4.394   6.883   5.818 -0.7800  0.3088  1.1227
   98SAPE   H5R 9814   4.416   6.950   5.903 -3.2781  0.8086  1.4409
   98SAPE   C26 9815   4.474   6.859   5.718 -0.5690  1.5527  0.1821
   98SAPE   H6R 9816   4.572   6.908   5.719 -0.4868  1.4045  1.9835
   98SAPE   C27 9817   4.430   6.787   5.588 -0.6719  0.7700 -0.0163
   98SAPE   H7R 9818   4.439   6.872   5.516  1.1748  1.4040  0.8908
   98SAPE   H7S 9819   4.328   6.745   5.598 -0.3532  0.3765  2.1760
   98SAPE   C28 9820   4.513   6.664   5.560 -0.3231  0.3843  0.0555
   98SAPE   H8R 9821   4.537   6.594   5.642 -0.0312 -0.1291 -0.4621
   98SAPE   C29 9822   4.555   6.622   5.442  0.0818  0.4337  0.6036
   98SAPE   H9R 9823   4.607   6.526   5.429  0.6195  0.8583 -0.5633
   98SAPE  C210 9824   4.532   6.697   5.312 -0.4835  0.0626 -0.5518
   98SAPE  H10R 9825   4.425   6.729   5.307 -0.7103 -0.6500 -0.3490
   98SAPE  H10S 9826   4.556   6.622   5.233  1.6749 -0.6661  0.7304
   98SAPE  C211 9827   4.600   6.826   5.300 -0.0360  0.8986  0.6791
   98SAPE  H11R 9828   4.651   6.859   5.392  0.3418 -0.3494  0.9451
   98SAPE  C212 9829   4.637   6.879   5.182 -0.3544  0.4305  0.2104
   98SAPE  H12R 9830   4.700   6.969   5.186 -0.4595  0.4652  2.5931
   98SAPE  C213 9831   4.604   6.828   5.043 -0.4433 -0.8515 -0.3331
   98SAPE  H13R 9832   4.509   6.769   5.045 -1.4756  0.7561  0.0766
   98SAPE  H13S 9833   4.687   6.762   5.009  0.6089  1.6171 -2.9395
   98SAPE  C214 9834   4.608   6.936   4.935 -0.0931 -1.0380  0.4216
   98SAPE  H14R 9835   4.697   6.999   4.944 -0.4623 -0.1548 -1.6160
   98SAPE  C215 9836   4.508   6.979   4.859  0.1173 -0.2006  0.5673
   98SAPE  H15R 9837   4.537   7.047   4.779  0.5811 -1.0031  0.0360
   98SAPE  C216 9838   4.383   6.896   4.832  0.5796 -0.5563  0.3856
   98SAPE  H16R 9839   4.299   6.949   4.880  0.3706  0.0879 -0.6522
   98SAPE  H16S 9840   4.386   6.795   4.877  1.2211 -0.8234 -0.2255
   98SAPE  C217 9841   4.348   6.865   4.689  0.1127  0.1024 -0.1040
   98SAPE  H17R 9842   4.327   6.953   4.624 -1.6075 -2.0959 -2.7697
   98SAPE  H17S 9843   4.255   6.805   4.679 -0.4300  1.0110 -0.6623
   98SAPE  C218 9844   4.441   6.777   4.602  0.4368 -0.0691 -0.0161
   98SAPE  H18R 9845   4.472   6.687   4.659  2.5783  0.1015 -0.8015
   98SAPE  H18S 9846   4.535   6.832   4.577 -0.6777  1.8882 -0.1376
   98SAPE  C219 9847   4.378   6.737   4.467  0.6426 -0.2383 -1.1127
   98SAPE  H19R 9848   4.374   6.827   4.401 -2.9984 -0.8608 -1.9870
   98SAPE  H19S 9849   4.270   6.712   4.458  0.8417 -0.7549 -2.3391
   98SAPE  C220 9850   4.454   6.620   4.409  0.2511 -0.2292 -0.3617
   98SAPE  H20R 9851   4.557   6.660   4.403 -0.2094  1.2768  1.1927
   98SAPE  H20S 9852   4.426   6.592   4.305  0.9198 -1.5112 -0.2196
   98SAPE  H20T 9853   4.472   6.540   4.484  3.8869 -0.9853 -1.8344
   98SAPE   C33 9854   4.883   6.316   5.810  0.4282  0.0422 -0.1630
   98SAPE   H3X 9855   4.814   6.241   5.764  1.1972  0.0478 -1.3816
   98SAPE   H3Y 9856   4.953   6.275   5.886 -1.6802 -0.7949  1.4270
   98SAPE   C34 9857   4.971   6.377   5.699  0.1855  0.1915  0.0584
   98SAPE   H4X 9858   5.037   6.295   5.663 -1.6112 -0.0535 -3.0213
   98SAPE   H4Y 9859   5.043   6.454   5.735  3.2716 -1.3174 -2.3614
   98SAPE   C35 9860   4.888   6.423   5.573  0.2278 -0.4472 -0.6771
   98SAPE   H5X 9861   4.824   6.513   5.586  0.0842 -0.7032  0.4922
   98SAPE   H5Y 9862   4.813   6.347   5.545  0.8916 -0.5529 -2.3341
   98SAPE   C36 9863   4.983   6.455   5.454  0.3871  0.2076  0.6428
   98SAPE   H6X 9864   5.057   6.373   5.441 -0.7317 -0.3501 -4.2451
   98SAPE   H6Y 9865   5.034   6.548   5.488  1.1157 -0.0405  0.2379
   98SAPE   C37 9866   4.923   6.474   5.317  1.6478 -0.2139 -0.0546
   98SAPE   H7X 9867   4.846   6.554   5.323  1.3109 -0.3679 -1.8793
   98SAPE   H7Y 9868   4.876   6.378   5.289 -0.8675 -0.1592  3.4135
   98SAPE   C38 9869   5.035   6.503   5.222  0.1540 -0.2610  0.0638
   98SAPE   H8X 9870   5.082   6.424   5.161  0.0806 -0.1464 -0.1417
   98SAPE   H8Y 9871   5.118   6.561   5.268  0.8126  0.9430 -2.4804
   98SAPE   C39 9872   4.981   6.607   5.122  0.0733 -0.6993  0.4312
   98SAPE   H9X 9873   4.935   6.689   5.181  0.0829 -0.8128  0.5967
   98SAPE   H9Y 9874   4.902   6.548   5.071  1.2023 -2.3063  0.5000
   98SAPE  C310 9875   5.084   6.670   5.031  0.1269  0.3073 -0.5285
   98SAPE  H10X 9876   5.160   6.593   5.005 -0.2633 -0.9393  1.7656
   98SAPE  H10Y 9877   5.138   6.746   5.091  1.0121 -1.0927  0.5183
   98SAPE  C311 9878   5.023   6.725   4.904  0.2158 -0.1418  0.2991
   98SAPE  H11X 9879   4.938   6.792   4.925  0.0229 -0.0248 -0.7793
   98SAPE  H11Y 9880   4.986   6.631   4.856 -0.0208  0.6722 -1.1763
   98SAPE  C312 9881   5.132   6.787   4.814  0.3792 -0.0846  0.6290
   98SAPE  H12X 9882   5.114   6.767   4.706  0.8892  0.5751  0.4127
   98SAPE  H12Y 9883   5.237   6.753   4.827  0.0683 -2.3468 -1.8700
   98SAPE  C313 9884   5.142   6.939   4.819 -0.0822 -0.0814  0.0584
   98SAPE  H13X 9885   5.129   6.978   4.922  1.4096 -1.1762  0.6930
   98SAPE  H13Y 9886   5.061   6.983   4.757  0.3561 -0.8310 -1.0782
   98SAPE  C314 9887   5.269   6.976   4.738 -0.2111  0.2012 -0.5262
   98SAPE  H14X 9888   5.297   6.897   4.664 -1.2319  0.0876 -0.8050
   98SAPE  H14Y 9889   5.353   6.977   4.810 -0.3598  0.9713 -0.3568
   98SAPE  C315 9890   5.258   7.103   4.655 -0.7648  0.7242  0.4742
   98SAPE  H15X 9891   5.246   7.192   4.721  1.6087  0.2875  1.5946
   98SAPE  H15Y 9892   5.168   7.099   4.589  0.4321  1.6335 -1.2741
   98SAPE  C316 9893   5.389   7.109   4.565  0.6370  0.0099 -0.1926
   98SAPE  H16X 9894   5.387   7.012   4.511  0.9271 -0.0251 -0.1389
   98SAPE  H16Y 9895   5.479   7.111   4.629 -0.8711 -1.9617  2.1475
   98SAPE  C317 9896   5.382   7.235   4.475 -0.0923  0.7717 -0.1084
   98SAPE  H17X 9897   5.392   7.318   4.549  1.1087 -0.6549  1.4101
   98SAPE  H17Y 9898   5.283   7.238   4.425  0.8758 -0.8685 -2.2646
   98SAPE  C318 9899   5.494   7.236   4.366 -0.2646 -0.3695 -0.0357
   98SAPE  H18X 9900   5.597   7.232   4.407 -0.0577  0.2247 -0.4762
   98SAPE  H18Y 9901   5.475   7.332   4.314 -0.5259  0.7427  2.0103
   98SAPE  H18Z 9902   5.472   7.159   4.289  0.3133 -0.9653  0.3773
   99SAPE     N 9903   4.719   5.914   6.732 -0.1137 -0.0765 -0.4963
   99SAPE   HN1 9904   4.814   5.881   6.704  0.3771  1.7729 -1.1530
   99SAPE   HN2 9905   4.649   5.876   6.666 -2.2356  1.2216  0.9126
   99SAPE   HN3 9906   4.717   6.017   6.725  1.5610  0.2379  2.1184
   99SAPE   C12 9907   4.693   5.879   6.875 -0.2858 -0.1114 -0.1192
   99SAPE  H12A 9908   4.592   5.921   6.895 -0.5893 -0.8138 -0.1113
   99SAPE  H12B 9909   4.774   5.916   6.941 -0.0545 -1.6091  0.4751
   99SAPE   C11 9910   4.695   5.725   6.902 -0.3727  0.2891  0.3699
   99SAPE  H11A 9911   4.661   5.716   7.008 -3.2149  0.3112 -0.4555
   99SAPE  H11B 9912   4.802   5.694   6.899  0.5905  3.1797  1.0985
   99SAPE     P 9913   4.461   5.648   6.833  0.3785 -0.1574 -0.0455
   99SAPE   O13 9914   4.421   5.530   6.911  0.2005  0.6844 -0.0670
   99SAPE   O14 9915   4.415   5.781   6.882 -0.7524 -0.1548 -0.4086
   99SAPE   O12 9916   4.618   5.648   6.807  0.0282  0.5191 -0.7025
   99SAPE   O11 9917   4.406   5.622   6.689 -0.1578 -0.2603  0.4504
   99SAPE    C1 9918   4.438   5.504   6.616 -0.1149 -0.1413 -0.0263
   99SAPE    HA 9919   4.479   5.424   6.680 -1.4489 -2.3799 -1.8036
   99SAPE    HB 9920   4.351   5.461   6.562 -1.1163 -1.4181  2.4896
   99SAPE    C2 9921   4.549   5.537   6.514 -0.9992  0.0662  0.2696
   99SAPE    HS 9922   4.634   5.587   6.565  0.7422 -0.2692 -2.1634
   99SAPE   O21 9923   4.490   5.626   6.415 -0.1351  0.0868  0.3545
   99SAPE   C21 9924   4.571   5.684   6.323  0.3190  0.5691 -0.8131
   99SAPE   O22 9925   4.696   5.682   6.331  0.2507  0.6961 -0.5037
   99SAPE   C22 9926   4.483   5.762   6.219 -0.4210  0.2301 -0.0357
   99SAPE   H2R 9927   4.472   5.699   6.128 -1.4278  1.6516 -0.9346
   99SAPE   H2S 9928   4.383   5.784   6.261 -0.5398 -0.7184  0.2114
   99SAPE    C3 9929   4.597   5.395   6.450 -0.2695 -0.3031 -0.1619
   99SAPE    HX 9930   4.500   5.346   6.424 -0.2997  0.1635 -0.9663
   99SAPE    HY 9931   4.648   5.333   6.526  0.6500 -0.9067 -1.2442
   99SAPE   O31 9932   4.675   5.388   6.327  0.1481 -0.0149  0.1821
   99SAPE   C31 9933   4.804   5.404   6.329  0.3305 -0.2058 -0.6485
   99SAPE   O32 9934   4.870   5.430   6.430  0.5406  0.4805 -0.0166
   99SAPE   C32 9935   4.863   5.380   6.188  0.8932 -0.4423 -0.0734
   99SAPE   H2X 9936   4.866   5.270   6.172 -1.2479 -0.8749  2.0563
   99SAPE   H2Y 9937   4.967   5.418   6.193  1.1099 -1.1091  0.5275
   99SAPE   C23 9938   4.557   5.888   6.168  0.2491 -0.5023 -0.0970
   99SAPE   H3R 9939   4.643   5.920   6.231 -0.5833  0.9106  0.3832
   99SAPE   H3S 9940   4.491   5.977   6.156  0.9928 -0.0820 -1.3031
   99SAPE   C24 9941   4.624   5.881   6.024 -0.1870 -0.2768 -0.3719
   99SAPE   H4R 9942   4.703   5.806   6.046 -0.3151 -0.1792  0.4606
   99SAPE   H4S 9943   4.674   5.981   6.018  0.7676 -0.6858  0.4167
   99SAPE   C25 9944   4.545   5.837   5.912  0.2827 -0.2766 -0.3720
   99SAPE   H5R 9945   4.452   5.781   5.927 -0.3460  0.5382 -1.0702
   99SAPE   C26 9946   4.557   5.866   5.780  0.5918 -0.4753 -0.2682
   99SAPE   H6R 9947   4.493   5.812   5.709 -0.0101 -0.6969  0.4292
   99SAPE   C27 9948   4.670   5.955   5.724 -0.2176  0.1429 -0.0221
   99SAPE   H7R 9949   4.723   5.891   5.651 -1.9860 -1.9628  0.4262
   99SAPE   H7S 9950   4.739   5.981   5.806 -0.5165 -0.5039  0.4410
   99SAPE   C28 9951   4.610   6.090   5.676 -0.3720 -0.1649  0.1158
   99SAPE   H8R 9952   4.550   6.139   5.755  1.2248 -1.1760  2.0629
   99SAPE   C29 9953   4.636   6.138   5.557  0.5235 -0.2272  0.3435
   99SAPE   H9R 9954   4.583   6.229   5.525  1.8968  0.1596 -0.9323
   99SAPE  C210 9955   4.721   6.075   5.449 -0.2014 -0.3782 -0.2973
   99SAPE  H10R 9956   4.807   6.024   5.497 -0.3488  1.3303  1.9442
   99SAPE  H10S 9957   4.762   6.152   5.379 -0.8645 -0.7701 -1.1331
   99SAPE  C211 9958   4.644   5.978   5.371  0.1649  0.1070  0.6052
   99SAPE  H11R 9959   4.599   5.900   5.434  0.3234  0.1292  0.7483
   99SAPE  C212 9960   4.643   5.952   5.238 -0.1065  0.1590 -0.0802
   99SAPE  H12R 9961   4.607   5.852   5.213  1.5353 -0.1578 -1.3800
   99SAPE  C213 9962   4.698   6.026   5.122 -0.1430 -0.4939  0.2469
   99SAPE  H13R 9963   4.672   5.973   5.028 -0.8511  1.1573 -0.5149
   99SAPE  H13S 9964   4.809   6.023   5.131 -0.2474  0.0934  2.1947
   99SAPE  C214 9965   4.653   6.168   5.099 -0.0404  0.2431  0.5063
   99SAPE  H14R 9966   4.556   6.198   5.141 -1.4674  0.0169 -2.3800
   99SAPE  C215 9967   4.725   6.258   5.036 -0.0813  0.5975 -0.3728
   99SAPE  H15R 9968   4.673   6.354   5.022 -2.4262 -0.4945  0.3259
   99SAPE  C216 9969   4.859   6.238   4.967 -0.8452 -0.3630  0.1917
   99SAPE  H16R 9970   4.899   6.135   4.964 -2.4598 -1.0231  0.2252
   99SAPE  H16S 9971   4.927   6.307   5.022  0.5866 -0.3275 -1.5493
   99SAPE  C217 9972   4.856   6.293   4.819 -0.0653 -0.0619 -0.3373
   99SAPE  H17R 9973   4.790   6.382   4.809 -2.5612 -1.7341  0.2280
   99SAPE  H17S 9974   4.795   6.221   4.760 -1.7999 -1.7795  3.2028
   99SAPE  C218 9975   4.981   6.302   4.733 -0.5005 -0.1821 -0.2548
   99SAPE  H18R 9976   5.010   6.197   4.711 -0.7913 -0.4841  0.7219
   99SAPE  H18S 9977   5.067   6.346   4.788  2.2653 -1.0671 -3.5788
   99SAPE  C219 9978   4.978   6.381   4.601  0.1668 -0.1795 -0.0631
   99SAPE  H19R 9979   4.968   6.490   4.617  0.1348  0.0129 -1.2679
   99SAPE  H19S 9980   4.880   6.351   4.557 -0.0676  0.2597  0.1509
   99SAPE  C220 9981   5.095   6.349   4.506  0.1214  0.4275 -0.0856
   99SAPE  H20R 9982   5.082   6.247   4.464  2.2836 -0.4937  1.3190
   99SAPE  H20S 9983   5.194   6.340   4.555 -0.5351  0.2936  1.2464
   99SAPE  H20T 9984   5.096   6.420   4.420  0.8058 -0.8826 -1.2051
   99SAPE   C33 9985   4.795   5.458   6.076  0.8793  0.2097  0.3000
   99SAPE   H3X 9986   4.776   5.565   6.099  4.1283  0.7801  0.8266
   99SAPE   H3Y 9987   4.698   5.413   6.046  1.2488 -0.2005 -0.3089
   99SAPE   C34 9988   4.889   5.442   5.949  0.0851 -0.4290 -0.8408
   99SAPE   H4X 9989   4.918   5.336   5.931  0.3076 -0.5719  0.2670
   99SAPE   H4Y 9990   4.982   5.498   5.973  0.2707 -0.6434 -1.0563
   99SAPE   C35 9991   4.812   5.503   5.830 -0.8595  0.1257 -0.5391
   99SAPE   H5X 9992   4.760   5.597   5.858 -3.5208 -1.0155 -1.3332
   99SAPE   H5Y 9993   4.730   5.434   5.800  0.0194 -1.0250 -0.3813
   99SAPE   C36 9994   4.907   5.523   5.707 -0.6880 -0.6058 -0.2576
   99SAPE   H6X 9995   4.961   5.427   5.691  2.2427  0.8679  0.1619
   99SAPE   H6Y 9996   4.996   5.583   5.734  1.0168 -2.4499 -1.4483
   99SAPE   C37 9997   4.839   5.573   5.589 -0.1638  0.4010 -0.1794
   99SAPE   H7X 9998   4.813   5.681   5.587  0.7099  0.6687  1.5770
   99SAPE   H7Y 9999   4.749   5.511   5.566  1.7249 -1.3545 -3.7589
   99SAPE   C3810000   4.926   5.558   5.465  0.3391  0.4056  0.3765
   99SAPE   H8X10001   4.947   5.452   5.442 -2.4115 -0.2811  0.7075
   99SAPE   H8Y10002   5.027   5.601   5.486  0.8845 -1.3575  1.5908
   99SAPE   C3910003   4.860   5.618   5.344 -0.3882 -0.5630  0.0528
   99SAPE   H9X10004   4.837   5.725   5.358  0.6773 -0.4838  1.4542
   99SAPE   H9Y10005   4.772   5.554   5.320 -1.7006  1.3098 -0.2791
   99SAPE  C31010006   4.968   5.626   5.237 -0.2501  0.1034  0.4422
   99SAPE  H10X10007   5.032   5.536   5.235 -0.9076 -0.6134  4.1326
   99SAPE  H10Y10008   5.034   5.711   5.266  0.2275  0.2895 -1.1023
   99SAPE  C31110009   4.903   5.661   5.101  0.5495 -0.2465 -0.1524
   99SAPE  H11X10010   4.871   5.768   5.099  0.6107 -0.2306 -0.2896
   99SAPE  H11Y10011   4.819   5.592   5.083  1.6101 -0.8596 -3.3038
   99SAPE  C31210012   4.994   5.635   4.977 -0.2774  0.3785 -0.0624
   99SAPE  H12X10013   4.939   5.666   4.885  0.8987  0.9792 -0.5955
   99SAPE  H12Y10014   5.023   5.528   4.980  0.8083  0.6636 -0.1375
   99SAPE  C31310015   5.123   5.719   4.968 -0.0281 -0.1223  0.4905
   99SAPE  H13X10016   5.168   5.714   5.069 -0.9776  0.5434  0.9647
   99SAPE  H13Y10017   5.082   5.823   4.967  1.1127  0.3426 -0.1893
   99SAPE  C31410018   5.209   5.680   4.840 -0.1796 -0.0394  0.5224
   99SAPE  H14X10019   5.137   5.632   4.770 -0.8204 -0.3219  1.3504
   99SAPE  H14Y10020   5.275   5.595   4.867 -0.0714 -0.9039 -2.1195
   99SAPE  C31510021   5.294   5.791   4.775  0.5632  0.7239 -0.7384
   99SAPE  H15X10022   5.352   5.847   4.851  2.3329  1.7951 -2.7556
   99SAPE  H15Y10023   5.228   5.859   4.718 -1.2948  0.1356  0.6171
   99SAPE  C31610024   5.412   5.730   4.689  0.1353 -0.4909  0.0899
   99SAPE  H16X10025   5.461   5.656   4.756 -0.0079  0.3210  1.1208
   99SAPE  H16Y10026   5.491   5.803   4.662 -0.2349  0.3202  1.1246
   99SAPE  C31710027   5.364   5.673   4.562  0.6875  0.2889  0.3990
   99SAPE  H17X10028   5.333   5.758   4.497 -0.8329 -1.2713 -1.0093
   99SAPE  H17Y10029   5.273   5.610   4.574  2.3756 -2.0863  1.5812
   99SAPE  C31810030   5.466   5.590   4.489  0.1706 -0.2883 -0.1122
   99SAPE  H18X10031   5.486   5.494   4.542 -0.0912  0.3140  1.0976
   99SAPE  H18Y10032   5.565   5.635   4.469 -0.0014 -0.0411 -0.4121
   99SAPE  H18Z10033   5.435   5.571   4.384  1.6729 -0.9373 -0.4641
  100SAPE     N10034   0.643   1.816   6.737  0.0705 -0.1425 -0.0942
  100SAPE   HN110035   0.541   1.810   6.718 -0.2270  3.2280 -0.0905
  100SAPE   HN210036   0.655   1.776   6.832  1.6620 -0.7943 -0.5296
  100SAPE   HN310037   0.668   1.917   6.732 -0.0211 -0.1653 -1.8591
  100SAPE   C1210038   0.723   1.733   6.638  0.0092 -0.6987  0.1683
  100SAPE  H12A10039   0.709   1.627   6.667 -0.3268 -0.4980  0.7613
  100SAPE  H12B10040   0.829   1.763   6.654 -0.6513  1.4934  0.8371
  100SAPE   C1110041   0.676   1.743   6.492  0.0301 -0.1491  0.2485
  100SAPE  H11A10042   0.598   1.667   6.470  1.5546 -1.3623 -1.2869
  100SAPE  H11B10043   0.772   1.719   6.441  0.9780 -0.1297  1.9547
  100SAPE     P10044   0.650   1.933   6.309  0.2439 -0.4237 -0.1052
  100SAPE   O1310045   0.601   2.066   6.334  0.1739  0.1465 -0.0929
  100SAPE   O1410046   0.791   1.926   6.259  0.6166 -0.5369  0.1428
  100SAPE   O1210047   0.636   1.873   6.450 -0.3939  0.4386  0.1854
  100SAPE   O1110048   0.543   1.855   6.211 -0.6678 -1.1017 -0.1872
  100SAPE    C110049   0.577   1.730   6.157 -0.6038 -0.7164 -0.1325
  100SAPE    HA10050   0.654   1.684   6.223  0.3989  0.5306 -0.3900
  100SAPE    HB10051   0.489   1.662   6.159 -1.4894  0.4004  0.1991
  100SAPE    C210052   0.613   1.728   6.006  0.2662 -0.4915  0.2254
  100SAPE    HS10053   0.718   1.762   5.997 -0.2076  1.2258  0.9034
  100SAPE   O2110054   0.537   1.825   5.930  0.4736 -0.0356  0.3087
  100SAPE   C2110055   0.577   1.856   5.804 -1.0419 -0.5268  0.2012
  100SAPE   O2210056   0.692   1.862   5.759 -0.4695  0.0969 -0.6621
  100SAPE   C2210057   0.456   1.908   5.728  0.0708 -0.1080 -0.0031
  100SAPE   H2R10058   0.378   1.951   5.795  0.5451  0.3063  0.2927
  100SAPE   H2S10059   0.480   1.991   5.657 -2.5618 -0.2268 -1.1547
  100SAPE    C310060   0.604   1.581   5.954  0.2237 -0.1569  0.2490
  100SAPE    HX10061   0.497   1.552   5.965 -0.4953  0.5534 -3.5095
  100SAPE    HY10062   0.661   1.517   6.025  1.0903 -0.9972 -1.1572
  100SAPE   O3110063   0.655   1.575   5.817  0.2515 -0.1475  0.5678
  100SAPE   C3110064   0.773   1.529   5.797 -0.4232  0.0566 -0.4593
  100SAPE   O3210065   0.843   1.486   5.890  0.0726  0.3665  0.3995
  100SAPE   C3210066   0.817   1.561   5.655 -0.3839  0.3324 -0.0791
  100SAPE   H2X10067   0.926   1.544   5.655 -0.2915  0.7893  1.6753
  100SAPE   H2Y10068   0.795   1.667   5.632 -2.6668  0.6105  2.8085
  100SAPE   C2310069   0.401   1.793   5.640 -0.2662 -0.5560 -0.0486
  100SAPE   H3R10070   0.382   1.709   5.711 -0.3549 -0.6390 -0.1691
  100SAPE   H3S10071   0.468   1.758   5.559 -0.5387 -1.4925  0.1078
  100SAPE   C2410072   0.271   1.827   5.575  0.0195  0.2434  0.0187
  100SAPE   H4R10073   0.199   1.831   5.659  1.8732 -0.3186  1.7128
  100SAPE   H4S10074   0.241   1.742   5.511 -0.7035  0.0220  0.6386
  100SAPE   C2510075   0.259   1.964   5.508 -0.0610 -0.7375  0.0261
  100SAPE   H5R10076   0.303   2.047   5.566 -0.6987  0.6069 -1.3521
  100SAPE   C2610077   0.221   1.980   5.381 -0.6338 -0.7249 -0.2031
  100SAPE   H6R10078   0.223   2.079   5.334 -0.7306 -1.2518 -1.3706
  100SAPE   C2710079   0.183   1.871   5.283 -0.6590 -0.0198  0.2560
  100SAPE   H7R10080   0.128   1.785   5.328 -0.8634 -0.3906 -0.6821
  100SAPE   H7S10081   0.275   1.826   5.239 -0.0765 -0.5298  1.9032
  100SAPE   C2810082   0.083   1.921   5.184 -0.5407 -0.1901 -0.7084
  100SAPE   H8R10083  -0.019   1.937   5.223 -0.6687 -2.8420  0.2531
  100SAPE   C2910084   0.097   1.949   5.056 -0.1290 -0.3333 -0.2913
  100SAPE   H9R10085   0.014   1.988   4.995 -0.9116 -0.5346  0.6198
  100SAPE  C21010086   0.222   1.935   4.971  0.0563  0.5627 -0.5094
  100SAPE  H10R10087   0.217   1.833   4.925 -0.8879  0.7805 -0.9271
  100SAPE  H10S10088   0.311   1.918   5.035 -0.8546 -2.0932  0.2087
  100SAPE  C21110089   0.242   2.050   4.878  0.1121  0.0829 -0.2118
  100SAPE  H11R10090   0.306   2.128   4.922 -1.3562  2.4904 -2.0278
  100SAPE  C21210091   0.188   2.075   4.756 -0.7037  0.2268 -0.1552
  100SAPE  H12R10092   0.216   2.170   4.709  1.9938  0.3030  1.4069
  100SAPE  C21310093   0.106   1.982   4.676  0.2231 -0.4804  1.0313
  100SAPE  H13R10094   0.033   2.043   4.617  0.8079 -0.9526 -0.2070
  100SAPE  H13S10095   0.045   1.903   4.725 -2.1837  0.7245  0.1547
  100SAPE  C21410096   0.198   1.905   4.581 -0.1278 -0.1557  0.1407
  100SAPE  H14R10097   0.301   1.941   4.570  0.2296 -1.3038 -0.4712
  100SAPE  C21510098   0.145   1.813   4.497 -0.6144 -0.5241 -0.6497
  100SAPE  H15R10099   0.210   1.761   4.425  0.7154 -1.1343  0.9367
  100SAPE  C21610100   0.001   1.768   4.498 -0.0500  0.1059 -0.5883
  100SAPE  H16R10101  -0.070   1.840   4.543  0.1162 -0.0355 -0.0927
  100SAPE  H16S10102  -0.012   1.678   4.563 -0.2242 -0.5996 -1.5702
  100SAPE  C21710103  -0.061   1.752   4.358 -0.6852 -0.1411  0.7155
  100SAPE  H17R10104  -0.154   1.693   4.357 -1.5378  1.1382 -1.2170
  100SAPE  H17S10105   0.006   1.689   4.295 -2.0108 -1.4158  0.5383
  100SAPE  C21810106  -0.082   1.886   4.291  0.0037 -0.1572 -0.3358
  100SAPE  H18R10107   0.017   1.910   4.246  0.7423 -0.9312  0.8146
  100SAPE  H18S10108  -0.111   1.963   4.365 -1.6728 -0.2837 -0.8229
  100SAPE  C21910109  -0.178   1.876   4.167  0.5442  0.3157 -0.1615
  100SAPE  H19R10110  -0.274   1.853   4.217  0.3617  0.0830 -0.6080
  100SAPE  H19S10111  -0.160   1.784   4.108 -1.7576 -0.1793 -0.2069
  100SAPE  C22010112  -0.186   2.003   4.076 -0.1536 -0.1986 -0.3009
  100SAPE  H20R10113  -0.187   2.096   4.138 -0.8125 -0.5376  0.2124
  100SAPE  H20S10114  -0.269   2.002   4.003  0.1043 -1.4907 -0.5940
  100SAPE  H20T10115  -0.096   2.007   4.011 -1.1182 -0.0413 -1.6552
  100SAPE   C3310116   0.771   1.464   5.546  0.7251 -0.0227  0.5601
  100SAPE   H3X10117   0.660   1.475   5.546  0.1771 -3.8479  0.4011
  100SAPE   H3Y10118   0.800   1.360   5.573  0.4463 -0.3472 -0.3500
  100SAPE   C3410119   0.829   1.497   5.404 -0.1990  0.3335 -0.2747
  100SAPE   H4X10120   0.832   1.403   5.345  0.0667 -1.1818  2.0254
  100SAPE   H4Y10121   0.926   1.541   5.434 -1.4974  4.8455 -1.8305
  100SAPE   C3510122   0.756   1.611   5.332  0.3516 -0.3525 -0.0518
  100SAPE   H5X10123   0.778   1.700   5.395 -0.1537 -0.0422 -0.3112
  100SAPE   H5Y10124   0.646   1.600   5.320  0.4028 -0.0477 -0.8144
  100SAPE   C3610125   0.800   1.624   5.186 -0.0368  0.2753 -0.2800
  100SAPE   H6X10126   0.782   1.531   5.128  1.0187 -0.6389  0.8270
  100SAPE   H6Y10127   0.909   1.643   5.189 -0.0705  0.5301 -0.6412
  100SAPE   C3710128   0.728   1.751   5.129 -1.1012  0.3974 -0.5408
  100SAPE   H7X10129   0.741   1.835   5.200 -0.1066  1.3231 -1.7648
  100SAPE   H7Y10130   0.619   1.734   5.114 -1.0300 -0.6023  0.0557
  100SAPE   C3810131   0.802   1.795   4.997  0.1124  0.1923 -0.3839
  100SAPE   H8X10132   0.800   1.717   4.918 -1.0671 -0.0646 -0.1188
  100SAPE   H8Y10133   0.903   1.824   5.034 -0.4933  1.6410  0.1914
  100SAPE   C3910134   0.748   1.930   4.946  0.1827 -0.5857 -0.1706
  100SAPE   H9X10135   0.833   2.001   4.935 -0.3888  0.1856  0.3092
  100SAPE   H9Y10136   0.679   1.959   5.028 -0.2614 -1.9638 -0.0371
  100SAPE  C31010137   0.669   1.918   4.811  0.3738  0.5462 -0.6388
  100SAPE  H10X10138   0.597   1.834   4.824  1.3300 -0.7206 -2.8459
  100SAPE  H10Y10139   0.744   1.893   4.733  0.5921  1.9029 -0.8887
  100SAPE  C31110140   0.585   2.042   4.773 -0.5216  0.2338 -0.4704
  100SAPE  H11X10141   0.516   2.074   4.854 -1.6503  0.6220 -1.5350
  100SAPE  H11Y10142   0.537   2.015   4.676 -0.0771  3.2057 -1.6345
  100SAPE  C31210143   0.673   2.158   4.747 -0.1199 -0.6094  0.1480
  100SAPE  H12X10144   0.638   2.204   4.653  1.9097 -0.0435 -0.3709
  100SAPE  H12Y10145   0.775   2.114   4.742 -0.8695 -2.3129 -1.0356
  100SAPE  C31310146   0.675   2.274   4.853  0.1533  0.2899  0.2818
  100SAPE  H13X10147   0.719   2.236   4.948 -1.4818  0.3021  1.0643
  100SAPE  H13Y10148   0.567   2.297   4.863  0.5830  2.1464  1.0735
  100SAPE  C31410149   0.760   2.388   4.797  0.4439  0.5682 -0.3817
  100SAPE  H14X10150   0.747   2.413   4.690  3.4712  1.8525 -0.5457
  100SAPE  H14Y10151   0.869   2.369   4.806  0.2073 -1.0133 -0.6704
  100SAPE  C31510152   0.722   2.507   4.884  0.4278 -0.4675  0.1339
  100SAPE  H15X10153   0.775   2.494   4.981  0.9693 -1.5558 -0.2828
  100SAPE  H15Y10154   0.614   2.498   4.909 -0.1131 -1.7332 -2.2938
  100SAPE  C31610155   0.742   2.640   4.805 -0.0333  1.1453 -0.4387
  100SAPE  H16X10156   0.670   2.651   4.721 -0.1416 -0.8686 -0.6513
  100SAPE  H16Y10157   0.842   2.650   4.757 -0.3397 -0.5446 -1.5153
  100SAPE  C31710158   0.723   2.760   4.898  0.2907 -0.2809 -0.0353
  100SAPE  H17X10159   0.615   2.773   4.923  0.1124 -0.3912 -0.7428
  100SAPE  H17Y10160   0.749   2.843   4.829  1.5863  0.3401  1.1415
  100SAPE  C31810161   0.814   2.769   5.013 -0.0151 -0.1598  1.1102
  100SAPE  H18X10162   0.922   2.754   4.994 -0.2306 -1.9316  1.0618
  100SAPE  H18Y10163   0.789   2.693   5.091 -1.7478 -0.1502  0.6154
  100SAPE  H18Z10164   0.807   2.866   5.066  0.8067  0.4795  0.0720
  101SAPE     N10165   1.036   2.322   6.246  0.2890 -0.1418  0.0384
  101SAPE   HN110166   1.111   2.369   6.301 -2.3568  1.3082  2.6796
  101SAPE   HN210167   1.056   2.227   6.210 -1.0679 -0.9266  1.2980
  101SAPE   HN310168   1.023   2.374   6.157 -0.2879 -0.3732 -0.0157
  101SAPE   C1210169   0.917   2.331   6.328  0.2167 -0.1393 -0.4403
  101SAPE  H12A10170   0.832   2.287   6.271 -0.1787 -0.9650  0.7482
  101SAPE  H12B10171   0.898   2.435   6.361  1.5532  0.5184 -1.6386
  101SAPE   C1110172   0.925   2.252   6.463  0.0171  0.4763  0.3195
  101SAPE  H11A10173   0.959   2.149   6.435 -1.9411  0.0729 -0.7712
  101SAPE  H11B10174   0.825   2.238   6.510  0.0655  2.4945  1.1111
  101SAPE     P10175   1.165   2.303   6.580 -0.2309 -0.0540  0.6679
  101SAPE   O1310176   1.240   2.425   6.610  0.4210  0.1842  0.0127
  101SAPE   O1410177   1.156   2.191   6.678 -0.1238  0.1046 -0.4042
  101SAPE   O1210178   1.009   2.333   6.549 -0.1339  0.0090  0.3079
  101SAPE   O1110179   1.211   2.248   6.438  0.6835  0.1225 -0.1815
  101SAPE    C110180   1.323   2.163   6.410 -0.1699  0.6875 -0.1150
  101SAPE    HA10181   1.418   2.221   6.414  0.1720  0.1680 -0.6243
  101SAPE    HB10182   1.323   2.073   6.476 -0.2795 -0.5714 -1.7888
  101SAPE    C210183   1.314   2.107   6.261 -0.0733  0.6567  0.0604
  101SAPE    HS10184   1.398   2.042   6.230 -1.0945 -0.4005 -0.5754
  101SAPE   O2110185   1.291   2.218   6.182 -0.5183  0.1060  0.1930
  101SAPE   C2110186   1.402   2.279   6.139  0.9038  0.3221 -0.0789
  101SAPE   O2210187   1.514   2.252   6.167 -0.2491 -0.0419  0.2785
  101SAPE   C2210188   1.360   2.395   6.054  0.3431 -0.1249 -0.0032
  101SAPE   H2R10189   1.249   2.401   6.065  0.2248 -0.0405 -1.1422
  101SAPE   H2S10190   1.401   2.490   6.094 -1.5754  1.8411 -2.4081
  101SAPE    C310191   1.184   2.023   6.258  0.2354  0.0768  0.3077
  101SAPE    HX10192   1.102   2.090   6.293 -0.4524  0.1847 -1.4207
  101SAPE    HY10193   1.205   1.939   6.327 -1.7901 -1.1516 -0.5034
  101SAPE   O3110194   1.166   1.979   6.119 -0.3298 -0.6659  0.4598
  101SAPE   C3110195   1.077   2.033   6.042 -0.0030  0.9007 -0.3161
  101SAPE   O3210196   1.022   2.139   6.065  0.5301  0.0746 -0.4808
  101SAPE   C3210197   1.044   1.936   5.927 -0.8158 -0.1912 -0.3211
  101SAPE   H2X10198   0.941   1.897   5.939 -0.3686 -0.8907  1.5866
  101SAPE   H2Y10199   1.111   1.849   5.943  0.1289  0.9375  2.6293
  101SAPE   C2310200   1.410   2.381   5.910 -0.1489 -0.8481 -0.6128
  101SAPE   H3R10201   1.519   2.362   5.905  0.3733  1.2670  1.0132
  101SAPE   H3S10202   1.395   2.479   5.859 -1.7405  0.1948  1.6811
  101SAPE   C2410203   1.333   2.287   5.815 -0.3152  0.5084 -0.2086
  101SAPE   H4R10204   1.345   2.185   5.858  2.7386  0.0684 -1.8498
  101SAPE   H4S10205   1.373   2.285   5.712  0.2426  2.8576 -0.0962
  101SAPE   C2510206   1.187   2.329   5.816  0.7290 -0.0158  0.3411
  101SAPE   H5R10207   1.116   2.291   5.891 -0.3271  1.1496 -0.0331
  101SAPE   C2610208   1.123   2.398   5.720  0.3288  0.7612 -0.7397
  101SAPE   H6R10209   1.016   2.422   5.733  0.7260  1.3752  1.7480
  101SAPE   C2710210   1.191   2.459   5.600  0.4142 -0.4649 -0.5803
  101SAPE   H7R10211   1.202   2.368   5.537  1.9486  0.6708 -2.0404
  101SAPE   H7S10212   1.292   2.496   5.628 -0.9537  2.1229  1.3019
  101SAPE   C2810213   1.110   2.564   5.529 -0.8942  0.3437 -0.3750
  101SAPE   H8R10214   1.108   2.662   5.579  3.0553  1.3326 -1.7665
  101SAPE   C2910215   1.084   2.570   5.390 -1.0806  0.2892 -0.1099
  101SAPE   H9R10216   1.026   2.647   5.336 -0.2192 -0.8492 -2.8133
  101SAPE  C21010217   1.113   2.454   5.287  0.7364 -0.2796  0.5417
  101SAPE  H10R10218   1.081   2.359   5.334 -1.6588  0.6026  0.8606
  101SAPE  H10S10219   1.222   2.458   5.265  0.5410  2.5956 -0.3812
  101SAPE  C21110220   1.034   2.470   5.158 -0.6014 -0.1161 -0.6353
  101SAPE  H11R10221   0.928   2.445   5.169 -0.7351  0.3252 -0.8892
  101SAPE  C21210222   1.085   2.497   5.031  0.1899 -0.3631 -0.0231
  101SAPE  H12R10223   1.013   2.502   4.948 -0.9463  2.9084  0.9775
  101SAPE  C21310224   1.232   2.508   4.996 -0.5087 -0.3378 -0.1002
  101SAPE  H13R10225   1.246   2.469   4.893  1.1689  0.3701 -0.1668
  101SAPE  H13S10226   1.295   2.440   5.058 -2.6781 -1.1917  1.3116
  101SAPE  C21410227   1.288   2.648   5.007 -0.5294  0.0595  0.2192
  101SAPE  H14R10228   1.295   2.673   5.113  2.3971 -0.4338  0.2112
  101SAPE  C21510229   1.332   2.734   4.910  0.1213  0.2516 -0.8860
  101SAPE  H15R10230   1.380   2.824   4.952  1.2774 -1.2318  1.2003
  101SAPE  C21610231   1.330   2.716   4.766 -0.0904 -0.3055 -0.2329
  101SAPE  H16R10232   1.380   2.618   4.746 -0.2141 -0.1736 -1.2470
  101SAPE  H16S10233   1.373   2.808   4.719 -1.6468  1.5616  1.8194
  101SAPE  C21710234   1.189   2.706   4.697 -0.3620 -0.3914 -0.5100
  101SAPE  H17R10235   1.119   2.773   4.752 -0.3309  0.4876 -1.4918
  101SAPE  H17S10236   1.152   2.603   4.715 -2.3125 -0.0098 -1.9369
  101SAPE  C21810237   1.181   2.729   4.552  0.2945 -0.0324  0.2438
  101SAPE  H18R10238   1.248   2.659   4.498 -0.8407 -1.7200  0.9678
  101SAPE  H18S10239   1.214   2.833   4.528 -1.1674  0.6196  0.9478
  101SAPE  C21910240   1.047   2.711   4.487 -0.7731  0.0821 -1.3139
  101SAPE  H19R10241   0.968   2.771   4.537 -0.4313  1.4044 -2.2827
  101SAPE  H19S10242   1.017   2.607   4.509 -0.9146 -0.0327 -2.0341
  101SAPE  C22010243   1.042   2.738   4.341 -0.0997 -0.2669  0.2503
  101SAPE  H20R10244   0.950   2.696   4.295  0.0641 -0.1192 -0.2076
  101SAPE  H20S10245   1.128   2.692   4.288  1.6219  2.8313  0.1288
  101SAPE  H20T10246   1.058   2.841   4.304  1.7260 -1.4289 -2.4540
  101SAPE   C3310247   1.071   2.004   5.797 -0.5694 -0.4071  0.4057
  101SAPE   H3X10248   1.180   2.024   5.790 -0.4417 -1.2127 -0.1585
  101SAPE   H3Y10249   1.000   2.089   5.788 -2.2025 -1.6522  1.0219
  101SAPE   C3410250   1.038   1.916   5.678  0.1916  0.2426 -0.0245
  101SAPE   H4X10251   0.932   1.884   5.687  0.8031 -1.8874  0.2995
  101SAPE   H4Y10252   1.080   1.814   5.696 -2.1907 -0.6476  0.8925
  101SAPE   C3510253   1.064   1.990   5.539 -0.6720  0.2476 -0.2723
  101SAPE   H5X10254   1.172   1.989   5.512 -1.0701 -2.5080 -2.2499
  101SAPE   H5Y10255   1.016   2.090   5.546  1.0886  1.0136  3.6120
  101SAPE   C3610256   0.998   1.908   5.419 -0.4641 -0.0512 -0.9649
  101SAPE   H6X10257   0.895   1.877   5.446  0.6069 -1.0305  2.5033
  101SAPE   H6Y10258   1.054   1.813   5.404  3.7429  1.5610  2.2943
  101SAPE   C3710259   1.009   1.995   5.291 -0.5413  0.0553 -0.1616
  101SAPE   H7X10260   0.978   2.099   5.314  0.2101  0.1535  0.4657
  101SAPE   H7Y10261   0.936   1.952   5.220  0.2692 -0.4023 -0.7312
  101SAPE   C3810262   1.150   1.993   5.241 -0.0942 -0.1092 -0.1001
  101SAPE   H8X10263   1.177   1.892   5.202 -0.3315  0.4891 -1.9177
  101SAPE   H8Y10264   1.222   2.024   5.320  0.1965  0.9327 -0.7609
  101SAPE   C3910265   1.181   2.093   5.125 -0.2473  0.5028  0.0445
  101SAPE   H9X10266   1.289   2.087   5.100 -0.6087  2.8690 -2.6044
  101SAPE   H9Y10267   1.167   2.196   5.166  1.2422  0.2178  1.3730
  101SAPE  C31010268   1.104   2.074   4.987 -0.3699  0.1200 -0.4415
  101SAPE  H10X10269   1.004   2.123   4.992 -1.2352 -1.6418  1.5282
  101SAPE  H10Y10270   1.090   1.964   4.975 -0.3062  0.2045 -1.3441
  101SAPE  C31110271   1.175   2.117   4.857  0.4596 -0.6695 -0.7801
  101SAPE  H11X10272   1.276   2.071   4.855  0.4833 -0.7706  1.2134
  101SAPE  H11Y10273   1.183   2.227   4.876  1.6717 -0.4278 -2.3922
  101SAPE  C31210274   1.090   2.113   4.737  0.3694  0.4820  0.5725
  101SAPE  H12X10275   0.980   2.115   4.753  0.4019 -0.8106  1.0663
  101SAPE  H12Y10276   1.105   2.009   4.700  0.0729  0.2502  1.0833
  101SAPE  C31310277   1.128   2.218   4.636  0.1352 -0.3819 -0.7291
  101SAPE  H13X10278   1.225   2.190   4.590  0.9328  0.1966  0.5468
  101SAPE  H13Y10279   1.143   2.308   4.700  0.6259  1.3468 -3.1461
  101SAPE  C31410280   1.017   2.258   4.537  0.4275  0.1571  0.3898
  101SAPE  H14X10281   0.939   2.304   4.601  0.9005  0.3546  0.8307
  101SAPE  H14Y10282   0.977   2.161   4.500 -1.3720  1.2846 -0.8121
  101SAPE  C31510283   1.063   2.343   4.415 -0.2693 -0.4030  0.1460
  101SAPE  H15X10284   1.127   2.279   4.351  1.7124  1.8045 -0.2512
  101SAPE  H15Y10285   1.129   2.417   4.465 -0.5340  1.0145 -1.4636
  101SAPE  C31610286   0.956   2.396   4.326 -0.1813  0.2137 -0.2495
  101SAPE  H16X10287   0.999   2.463   4.248  0.1776 -0.1248 -0.3425
  101SAPE  H16Y10288   0.887   2.470   4.372  1.3429  2.1496 -0.9543
  101SAPE  C31710289   0.875   2.282   4.259 -0.0159  0.3049  0.0066
  101SAPE  H17X10290   0.817   2.230   4.338  1.4401 -2.3609 -0.5715
  101SAPE  H17Y10291   0.939   2.198   4.223  0.4831  0.7370 -0.1298
  101SAPE  C31810292   0.782   2.340   4.149  0.2469  0.2998  0.6048
  101SAPE  H18X10293   0.725   2.257   4.102  0.5845  1.6094 -2.3931
  101SAPE  H18Y10294   0.843   2.391   4.071 -0.3231 -0.0293 -0.0695
  101SAPE  H18Z10295   0.705   2.408   4.191 -1.5146 -1.6875  0.7821
  102SAPE     N10296   2.380   0.604   6.734  0.6776  0.3555  0.1322
  102SAPE   HN110297   2.483   0.613   6.720  0.6024 -1.0326 -1.7114
  102SAPE   HN210298   2.338   0.696   6.760  1.0054  1.1234 -1.8605
  102SAPE   HN310299   2.364   0.532   6.807 -1.3765  2.0180  1.4770
  102SAPE   C1210300   2.329   0.584   6.597  0.3733  0.6501 -0.4897
  102SAPE  H12A10301   2.229   0.536   6.607  0.6600  0.0245 -0.5461
  102SAPE  H12B10302   2.398   0.515   6.543  0.4431  1.4364 -1.4412
  102SAPE   C1110303   2.324   0.717   6.522  0.1000 -0.5072  0.8225
  102SAPE  H11A10304   2.261   0.693   6.433 -0.4343 -1.3820  1.4162
  102SAPE  H11B10305   2.426   0.743   6.486 -0.7770  3.1090  0.5916
  102SAPE     P10306   2.219   0.961   6.561  0.0370  0.0935 -0.1854
  102SAPE   O1310307   2.075   0.933   6.563  0.2194 -0.2782  0.0277
  102SAPE   O1410308   2.273   1.064   6.651  0.2743 -0.0555  0.0564
  102SAPE   O1210309   2.291   0.827   6.601  0.1823  0.5338 -0.5985
  102SAPE   O1110310   2.262   0.984   6.415 -0.0889 -1.0667 -0.0079
  102SAPE    C110311   2.398   1.013   6.389  0.3351  0.2445 -0.3182
  102SAPE    HA10312   2.466   0.992   6.475 -1.1416 -1.0604  0.5801
  102SAPE    HB10313   2.443   0.943   6.315 -0.9443  1.5138 -2.3839
  102SAPE    C210314   2.412   1.158   6.342 -0.6881 -0.2567  0.6136
  102SAPE    HS10315   2.388   1.216   6.434 -0.4759  0.7271  0.0623
  102SAPE   O2110316   2.302   1.182   6.247  0.3854  0.1583 -0.2182
  102SAPE   C2110317   2.268   1.309   6.228  0.1461  1.0746  0.4111
  102SAPE   O2210318   2.323   1.405   6.279  0.4314 -0.3157  0.2827
  102SAPE   C2210319   2.148   1.319   6.133 -0.0354  0.0996 -0.4552
  102SAPE   H2R10320   2.148   1.227   6.070 -2.5607 -0.8049  0.6982
  102SAPE   H2S10321   2.051   1.314   6.186  0.4904  2.7253  0.9108
  102SAPE    C310322   2.561   1.194   6.294 -0.6661  0.5316  0.3906
  102SAPE    HX10323   2.619   1.171   6.386  0.6064 -0.9029 -0.7285
  102SAPE    HY10324   2.573   1.304   6.279 -0.0181  0.6524  1.6560
  102SAPE   O3110325   2.617   1.103   6.195  0.6737 -0.1874 -0.2078
  102SAPE   C3110326   2.572   1.126   6.070  0.2592  0.5254  0.1717
  102SAPE   O3210327   2.521   1.224   6.031 -0.6299  0.0847  0.0400
  102SAPE   C3210328   2.590   1.004   5.983  0.0455  0.4621  0.1356
  102SAPE   H2X10329   2.675   0.943   6.019 -0.2098  0.2592  0.3975
  102SAPE   H2Y10330   2.609   1.036   5.878  1.5185  1.5477  0.7024
  102SAPE   C2310331   2.140   1.442   6.039  0.0225  0.5649  0.3432
  102SAPE   H3R10332   2.135   1.527   6.110 -1.6789 -1.4949  2.8603
  102SAPE   H3S10333   2.054   1.431   5.970 -0.5468  0.4844  1.0569
  102SAPE   C2410334   2.267   1.453   5.954 -0.4099  0.3022  0.2538
  102SAPE   H4R10335   2.357   1.440   6.018  0.1279 -1.3601 -0.7602
  102SAPE   H4S10336   2.282   1.552   5.905 -1.6748  1.6655  2.4493
  102SAPE   C2510337   2.274   1.345   5.849 -0.0668  0.4562 -0.0716
  102SAPE   H5R10338   2.319   1.249   5.881  3.1676  1.7264 -0.3884
  102SAPE   C2610339   2.235   1.358   5.720  0.3035  0.4067  0.6417
  102SAPE   H6R10340   2.256   1.274   5.652  0.1585 -0.4413  1.6198
  102SAPE   C2710341   2.164   1.482   5.664 -0.5340 -0.3148  0.1650
  102SAPE   H7R10342   2.206   1.506   5.564  0.1548 -0.4257  0.4229
  102SAPE   H7S10343   2.193   1.569   5.727  2.5758 -1.9124  1.1598
  102SAPE   C2810344   2.009   1.464   5.673 -0.5320  0.0856 -0.5928
  102SAPE   H8R10345   1.969   1.418   5.764 -2.1203  1.6194 -0.4732
  102SAPE   C2910346   1.920   1.505   5.580  0.3733 -0.3884  0.2482
  102SAPE   H9R10347   1.815   1.494   5.611  0.0685  1.3593 -0.0530
  102SAPE  C21010348   1.940   1.573   5.444 -0.0848 -0.2659 -0.2240
  102SAPE  H10R10349   2.051   1.584   5.440  0.0082 -1.0521 -0.0621
  102SAPE  H10S10350   1.885   1.669   5.450 -0.4276 -0.1865 -3.2264
  102SAPE  C21110351   1.886   1.502   5.323  0.8247  0.2163  0.6123
  102SAPE  H11R10352   1.950   1.421   5.285  0.1921  0.9666 -2.3399
  102SAPE  C21210353   1.765   1.521   5.271 -0.7300 -0.2020 -0.2559
  102SAPE  H12R10354   1.734   1.456   5.188 -0.0214 -0.8016 -0.0651
  102SAPE  C21310355   1.658   1.613   5.338 -0.0877  0.3291  0.3490
  102SAPE  H13R10356   1.694   1.712   5.303 -0.1056  0.3110  0.2778
  102SAPE  H13S10357   1.668   1.594   5.447  0.0710 -1.3527  0.0680
  102SAPE  C21410358   1.518   1.582   5.292 -0.7374 -0.0586  0.0020
  102SAPE  H14R10359   1.508   1.498   5.222  1.5551 -1.4852  1.2396
  102SAPE  C21510360   1.408   1.644   5.331 -0.1525 -0.5015  0.1526
  102SAPE  H15R10361   1.317   1.600   5.290 -0.3489  0.8704 -0.9847
  102SAPE  C21610362   1.397   1.752   5.432  0.2285  0.0975  0.3896
  102SAPE  H16R10363   1.299   1.800   5.409  0.6074  0.3867 -0.6744
  102SAPE  H16S10364   1.482   1.822   5.420  1.6678 -1.6800 -0.1168
  102SAPE  C21710365   1.396   1.691   5.575 -0.4572 -0.3714  0.1091
  102SAPE  H17R10366   1.384   1.765   5.656  2.1702  0.1175  0.1275
  102SAPE  H17S10367   1.497   1.647   5.591  0.5459  2.1884  1.2687
  102SAPE  C21810368   1.290   1.584   5.593  0.2006  0.1972  0.3037
  102SAPE  H18R10369   1.319   1.500   5.525  0.8924  1.2241 -0.7098
  102SAPE  H18S10370   1.196   1.624   5.550  1.0303  2.6406  0.6320
  102SAPE  C21910371   1.279   1.532   5.739  0.5203  0.2376 -0.2331
  102SAPE  H19R10372   1.196   1.458   5.735  0.0377  0.7923 -0.7028
  102SAPE  H19S10373   1.241   1.612   5.806  0.7309  0.1428 -0.0007
  102SAPE  C22010374   1.402   1.473   5.788 -0.4644 -0.3049  0.6431
  102SAPE  H20R10375   1.493   1.534   5.770 -1.1459  0.6118  0.1908
  102SAPE  H20S10376   1.415   1.374   5.739  1.3451  0.0310  0.3667
  102SAPE  H20T10377   1.391   1.463   5.898  0.0766  2.3113  1.0201
  102SAPE   C3310378   2.468   0.912   5.982  0.4926  0.4384  0.3128
  102SAPE   H3X10379   2.439   0.891   6.087  1.2361  2.0120  0.8753
  102SAPE   H3Y10380   2.508   0.817   5.940 -0.6274  0.5274 -1.0188
  102SAPE   C3410381   2.337   0.935   5.903 -0.1504 -0.1810 -0.5525
  102SAPE   H4X10382   2.283   1.026   5.937  1.8944  0.7256  0.3868
  102SAPE   H4Y10383   2.280   0.839   5.910  2.4963 -1.8192 -0.0899
  102SAPE   C3510384   2.364   0.955   5.758 -0.0634  0.3287 -0.7735
  102SAPE   H5X10385   2.435   0.880   5.716  3.5576  3.5753 -0.9373
  102SAPE   H5Y10386   2.427   1.046   5.757  1.4904 -0.6873 -1.9957
  102SAPE   C3610387   2.251   0.964   5.663  0.0680 -0.8542  0.3088
  102SAPE   H6X10388   2.164   1.008   5.717  0.5663  0.8227 -0.1894
  102SAPE   H6Y10389   2.207   0.865   5.638  0.4459 -1.0059  0.2299
  102SAPE   C3710390   2.294   1.034   5.535 -0.7794 -0.1394 -0.4715
  102SAPE   H7X10391   2.365   0.971   5.478 -1.2440  1.0754 -2.4704
  102SAPE   H7Y10392   2.354   1.122   5.566 -0.6477 -0.3860 -0.0061
  102SAPE   C3810393   2.182   1.055   5.444 -0.5234 -0.3403  0.4695
  102SAPE   H8X10394   2.099   1.113   5.490  0.8466  1.2684  1.0191
  102SAPE   H8Y10395   2.147   0.954   5.417  2.5849 -1.6585  0.9192
  102SAPE   C3910396   2.220   1.122   5.313  0.6378  0.2725  0.2607
  102SAPE   H9X10397   2.286   1.054   5.254 -0.5579  0.3268 -1.2177
  102SAPE   H9Y10398   2.270   1.220   5.323 -0.9413  1.3812 -1.7635
  102SAPE  C31010399   2.099   1.148   5.220  0.0731  0.5708  0.4967
  102SAPE  H10X10400   2.017   1.192   5.280  0.5375  2.4013 -0.1464
  102SAPE  H10Y10401   2.066   1.053   5.174 -1.4831  0.9682  0.7555
  102SAPE  C31110402   2.130   1.252   5.108  0.3117 -0.3795 -0.5204
  102SAPE  H11X10403   2.157   1.337   5.174 -2.2431  0.3966 -0.3548
  102SAPE  H11Y10404   2.033   1.271   5.056  0.3769 -0.4133 -0.6552
  102SAPE  C31210405   2.222   1.214   4.995 -0.9218  0.2239  0.1337
  102SAPE  H12X10406   2.279   1.126   5.031  0.1556  1.0652  0.5690
  102SAPE  H12Y10407   2.293   1.299   4.980 -0.9522  0.1278 -0.6208
  102SAPE  C31310408   2.147   1.197   4.868 -0.0020 -0.4357 -0.1403
  102SAPE  H13X10409   2.064   1.271   4.868  1.5475  1.4339 -1.9483
  102SAPE  H13Y10410   2.092   1.101   4.881 -1.0416  0.1871  0.2130
  102SAPE  C31410411   2.223   1.217   4.737 -0.3281  0.4400  0.6531
  102SAPE  H14X10412   2.241   1.115   4.696  1.0429  0.2451  1.6721
  102SAPE  H14Y10413   2.326   1.258   4.748 -0.4361  1.7101 -2.0451
  102SAPE  C31510414   2.143   1.287   4.633  0.5377  0.7053 -0.1643
  102SAPE  H15X10415   2.061   1.347   4.677  1.0143  0.7278  0.7293
  102SAPE  H15Y10416   2.096   1.202   4.580  0.3485 -0.1868  1.3751
  102SAPE  C31610417   2.227   1.385   4.552 -0.1583  0.5093  0.0540
  102SAPE  H16X10418   2.178   1.407   4.455  1.1639  0.1136 -0.7226
  102SAPE  H16Y10419   2.326   1.342   4.524  0.2226  0.8096  0.9096
  102SAPE  C31710420   2.257   1.514   4.621  0.2056  0.4444 -0.3963
  102SAPE  H17X10421   2.305   1.492   4.719 -0.7991 -2.7821 -0.5429
  102SAPE  H17Y10422   2.164   1.567   4.649  0.0163 -0.7241  1.2595
  102SAPE  C31810423   2.344   1.613   4.542 -0.2363 -0.1642  0.1981
  102SAPE  H18X10424   2.298   1.628   4.442 -0.8406 -0.5774  0.4073
  102SAPE  H18Y10425   2.447   1.574   4.530 -0.6181 -0.7556 -1.3879
  102SAPE  H18Z10426   2.329   1.712   4.590 -2.6953 -0.8005  0.8838
  103SAPE     N10427   0.081   4.767   1.795 -0.1619 -0.9919 -0.1122
  103SAPE   HN110428   0.120   4.693   1.857 -0.5662 -0.0858  1.2625
  103SAPE   HN210429   0.058   4.727   1.702  1.5168 -1.0543 -0.5422
  103SAPE   HN310430   0.154   4.842   1.795 -2.1096  1.0187  1.0417
  103SAPE   C1210431  -0.035   4.818   1.873  0.1258 -0.3998 -0.7114
  103SAPE  H12A10432  -0.124   4.765   1.832 -0.7225 -0.0565  0.6247
  103SAPE  H12B10433  -0.047   4.926   1.853 -0.6385 -0.4810 -0.7206
  103SAPE   C1110434  -0.032   4.783   2.028 -0.2857 -0.1810 -0.1976
  103SAPE  H11A10435  -0.010   4.676   2.042  0.0067  0.0480  1.2751
  103SAPE  H11B10436  -0.132   4.805   2.070  0.3599  3.2857 -0.1493
  103SAPE     P10437   0.021   5.000   2.157  0.2096 -0.2697  0.3865
  103SAPE   O1310438   0.141   5.065   2.214 -0.0596  0.1333 -0.0671
  103SAPE   O1410439  -0.061   5.088   2.064  0.0566  0.5038 -0.2656
  103SAPE   O1210440   0.070   4.863   2.083  0.1713  0.0755 -0.2744
  103SAPE   O1110441  -0.076   4.952   2.273 -0.8984  0.0473 -0.6411
  103SAPE    C110442  -0.041   4.845   2.364  0.7892 -0.8599 -0.6708
  103SAPE    HA10443  -0.093   4.752   2.333 -0.0552  0.3314 -3.1000
  103SAPE    HB10444   0.067   4.819   2.368  0.9389 -0.4064 -1.5236
  103SAPE    C210445  -0.076   4.869   2.515  1.0761 -0.2880  0.3739
  103SAPE    HS10446  -0.184   4.889   2.529  0.7457 -1.1058 -0.8707
  103SAPE   O2110447  -0.003   4.981   2.567  0.0766 -0.3412 -0.4042
  103SAPE   C2110448  -0.067   5.095   2.583 -0.0618  0.0800  0.3140
  103SAPE   O2210449  -0.187   5.112   2.601 -0.2047  0.6411 -0.1206
  103SAPE   C2210450   0.030   5.209   2.597  0.5279 -0.3764  0.3445
  103SAPE   H2R10451   0.134   5.192   2.562  0.5125  0.7619 -0.3077
  103SAPE   H2S10452  -0.011   5.294   2.538  3.4700  0.7622 -0.2436
  103SAPE    C310453  -0.030   4.750   2.601  0.1529 -0.4285  0.3291
  103SAPE    HX10454   0.080   4.764   2.611  0.2053 -1.1188  0.7967
  103SAPE    HY10455  -0.052   4.655   2.547 -0.5024 -0.1766  0.1411
  103SAPE   O3110456  -0.084   4.762   2.732  0.2284 -0.1723  0.3202
  103SAPE   C3110457  -0.121   4.651   2.785 -0.3354 -0.6958  0.6646
  103SAPE   O3210458  -0.100   4.539   2.742 -0.2048 -0.4476  0.1808
  103SAPE   C3210459  -0.189   4.681   2.916  0.2581 -0.7804  0.7418
  103SAPE   H2X10460  -0.267   4.755   2.887  1.0953 -1.3473 -3.7262
  103SAPE   H2Y10461  -0.113   4.723   2.985  1.0607 -0.7475 -0.1451
  103SAPE   C2310462   0.049   5.260   2.738  0.3511  0.2035 -0.4955
  103SAPE   H3R10463  -0.042   5.244   2.799  0.7949  0.7473  0.3269
  103SAPE   H3S10464   0.049   5.371   2.741 -1.7158  0.2233  0.1484
  103SAPE   C2410465   0.163   5.194   2.806 -0.2037  0.2384 -0.5405
  103SAPE   H4R10466   0.265   5.212   2.766  0.3302 -0.5727  0.3938
  103SAPE   H4S10467   0.154   5.085   2.786  0.4061  0.2712 -1.0549
  103SAPE   C2510468   0.162   5.206   2.959 -0.3552 -0.2943 -0.8122
  103SAPE   H5R10469   0.212   5.299   2.989  0.1570 -0.8862  0.2145
  103SAPE   C2610470   0.110   5.119   3.053  0.5772  0.3212  0.4221
  103SAPE   H6R10471   0.120   5.146   3.159 -0.1886 -2.0102  1.1592
  103SAPE   C2710472   0.030   4.988   3.033 -0.0821  0.0707  0.5519
  103SAPE   H7R10473   0.003   4.962   2.928 -0.9883 -1.2417  1.0900
  103SAPE   H7S10474  -0.071   5.012   3.073  0.0213  0.5535  0.5327
  103SAPE   C2810475   0.093   4.864   3.093 -0.5017  0.1857 -0.4241
  103SAPE   H8R10476   0.163   4.814   3.023 -0.1357  0.6358 -0.3813
  103SAPE   C2910477   0.052   4.806   3.205 -0.6017 -0.0915 -0.3616
  103SAPE   H9R10478   0.101   4.716   3.245 -0.3438  0.4120  0.4730
  103SAPE  C21010479  -0.047   4.859   3.307  0.4003  0.3556 -0.5316
  103SAPE  H10R10480  -0.147   4.867   3.258 -0.1566  1.0947  0.6633
  103SAPE  H10S10481  -0.013   4.961   3.334  1.5074 -0.1199 -0.0939
  103SAPE  C21110482  -0.054   4.775   3.434  0.0590  0.1274  0.4410
  103SAPE  H11R10483  -0.085   4.673   3.409  2.4701 -0.4403 -0.4805
  103SAPE  C21210484  -0.019   4.808   3.561 -0.0000 -0.1833  0.2558
  103SAPE  H12R10485  -0.044   4.745   3.647 -1.3375  0.7817  0.6049
  103SAPE  C21310486   0.053   4.931   3.617  0.1120  0.1349 -0.1007
  103SAPE  H13R10487  -0.017   5.006   3.660  2.3624  2.2966  0.0215
  103SAPE  H13S10488   0.089   4.985   3.527 -2.3549 -0.2341 -1.4019
  103SAPE  C21410489   0.165   4.894   3.703  0.0258  0.5167  0.8730
  103SAPE  H14R10490   0.241   4.835   3.649  0.7951  0.3381  2.1139
  103SAPE  C21510491   0.178   4.899   3.835  0.0579 -0.2098  0.1365
  103SAPE  H15R10492   0.270   4.858   3.879 -0.9550 -1.3992  1.2190
  103SAPE  C21610493   0.075   4.962   3.923  0.5260  0.3399  0.5715
  103SAPE  H16R10494  -0.007   4.889   3.939 -0.7161  1.1574 -1.6518
  103SAPE  H16S10495   0.022   5.045   3.871  1.1962 -0.7018 -1.8844
  103SAPE  C21710496   0.139   5.017   4.056 -0.4664  0.2657  0.0731
  103SAPE  H17R10497   0.209   5.099   4.031 -2.3769  1.6117 -1.1564
  103SAPE  H17S10498   0.197   4.936   4.104 -1.5481  1.2377  3.3118
  103SAPE  C21810499   0.034   5.055   4.161  0.2483 -0.4293  0.0771
  103SAPE  H18R10500  -0.036   4.971   4.184 -1.2470  0.6115 -0.5024
  103SAPE  H18S10501  -0.040   5.127   4.120 -0.7303 -0.4966  1.6406
  103SAPE  C21910502   0.096   5.129   4.280 -0.5968 -0.1392  0.0195
  103SAPE  H19R10503   0.110   5.236   4.253 -0.1500  0.2481  1.7077
  103SAPE  H19S10504   0.196   5.087   4.305 -0.8292 -1.2899 -0.9224
  103SAPE  C22010505   0.004   5.139   4.405 -0.5293  0.3860 -0.1309
  103SAPE  H20R10506  -0.098   5.180   4.386 -1.0220 -1.1267 -0.9267
  103SAPE  H20S10507   0.056   5.205   4.478  0.4691  0.1400 -0.6094
  103SAPE  H20T10508  -0.019   5.043   4.455 -1.1248 -0.5023 -2.0189
  103SAPE   C3310509  -0.242   4.556   2.987  0.3910  0.5152 -0.5167
  103SAPE   H3X10510  -0.155   4.493   3.016  0.1930 -0.4574 -1.9415
  103SAPE   H3Y10511  -0.306   4.494   2.921  1.5021 -2.1473  0.7668
  103SAPE   C3410512  -0.322   4.590   3.118  0.2680  0.1717  0.0920
  103SAPE   H4X10513  -0.418   4.640   3.094  0.1129 -0.8750 -1.6833
  103SAPE   H4Y10514  -0.262   4.660   3.178  0.9922 -0.7967  0.5302
  103SAPE   C3510515  -0.354   4.470   3.205  0.3703  0.5851  0.0766
  103SAPE   H5X10516  -0.278   4.394   3.177 -0.2366 -0.3142  0.8464
  103SAPE   H5Y10517  -0.453   4.435   3.170  1.0238  1.3124 -2.7672
  103SAPE   C3610518  -0.349   4.519   3.355 -0.2361 -0.2663  0.2558
  103SAPE   H6X10519  -0.407   4.612   3.369 -0.5203 -0.2352 -1.0051
  103SAPE   H6Y10520  -0.244   4.532   3.386 -0.0366  2.6649 -1.3032
  103SAPE   C3710521  -0.424   4.419   3.439  0.1371  0.7444 -0.2899
  103SAPE   H7X10522  -0.397   4.316   3.407 -0.6181  1.3410 -3.0772
  103SAPE   H7Y10523  -0.533   4.430   3.423  0.3388  2.8082 -0.4392
  103SAPE   C3810524  -0.386   4.430   3.587  0.4693 -0.1486 -0.1674
  103SAPE   H8X10525  -0.279   4.400   3.592  0.3352 -1.1385 -2.1663
  103SAPE   H8Y10526  -0.447   4.354   3.640 -0.0925  0.4319  0.0140
  103SAPE   C3910527  -0.408   4.573   3.645 -0.1181 -0.5684  0.1163
  103SAPE   H9X10528  -0.515   4.588   3.621 -0.3068 -1.4667  0.3768
  103SAPE   H9Y10529  -0.355   4.656   3.592  1.0352 -1.7009 -0.5736
  103SAPE  C31010530  -0.388   4.584   3.802 -0.2793 -0.7874  0.9196
  103SAPE  H10X10531  -0.455   4.515   3.859 -1.4456  0.0580  0.6219
  103SAPE  H10Y10532  -0.418   4.690   3.819  2.4632  0.1536  0.3832
  103SAPE  C31110533  -0.247   4.558   3.847 -0.2715 -0.7633 -0.6725
  103SAPE  H11X10534  -0.183   4.632   3.796  0.1051 -1.7508 -1.6830
  103SAPE  H11Y10535  -0.215   4.452   3.845 -1.7609 -1.2491 -0.2937
  103SAPE  C31210536  -0.225   4.597   3.988  0.1465 -0.0321 -0.7694
  103SAPE  H12X10537  -0.277   4.539   4.068  0.8916 -0.2085 -0.3996
  103SAPE  H12Y10538  -0.271   4.697   4.008 -0.8811 -0.3520 -1.4615
  103SAPE  C31310539  -0.070   4.598   4.021  0.5519  0.6173 -0.3083
  103SAPE  H13X10540  -0.024   4.669   3.949  1.1268  2.7467  1.9955
  103SAPE  H13Y10541  -0.034   4.496   3.996  0.9999  1.1131 -1.7636
  103SAPE  C31410542  -0.038   4.643   4.162 -0.0243  0.1662 -0.2358
  103SAPE  H14X10543  -0.115   4.603   4.231 -0.6733  2.4167  0.4401
  103SAPE  H14Y10544  -0.054   4.753   4.168 -0.1903  0.1012  0.7485
  103SAPE  C31510545   0.108   4.610   4.201 -0.6122  0.2435 -0.7436
  103SAPE  H15X10546   0.171   4.640   4.115 -1.0959  0.3078 -1.0828
  103SAPE  H15Y10547   0.126   4.505   4.232 -1.1927  0.4735  0.4586
  103SAPE  C31610548   0.141   4.694   4.320 -0.5205 -0.5516  0.3337
  103SAPE  H16X10549   0.074   4.675   4.406 -0.0238 -1.7293  0.4840
  103SAPE  H16Y10550   0.128   4.802   4.296  0.1097 -0.3725  0.7546
  103SAPE  C31710551   0.290   4.685   4.361  0.2543  0.1298  0.4531
  103SAPE  H17X10552   0.360   4.719   4.282  1.1064 -2.0994  0.1823
  103SAPE  H17Y10553   0.328   4.582   4.379  0.9545 -0.0785 -1.8156
  103SAPE  C31810554   0.314   4.766   4.490  0.3196  0.6517 -0.0648
  103SAPE  H18X10555   0.267   4.867   4.484  1.1240  0.9164 -3.2858
  103SAPE  H18Y10556   0.419   4.779   4.523  0.0153 -0.2335  1.3252
  103SAPE  H18Z10557   0.271   4.697   4.567  0.8339 -1.1985 -1.3705
  104SAPE     N10558   0.012   3.285   2.325 -0.6506  0.5364  0.0289
  104SAPE   HN110559   0.021   3.223   2.408 -2.7091  0.4827  0.2876
  104SAPE   HN210560  -0.024   3.230   2.244  0.2072  0.5859 -0.3929
  104SAPE   HN310561   0.113   3.303   2.310  0.5188 -4.2399  0.5737
  104SAPE   C1210562  -0.068   3.408   2.358 -0.2741 -0.0666 -0.0143
  104SAPE  H12A10563  -0.159   3.359   2.400  0.2422 -0.8118  0.2607
  104SAPE  H12B10564  -0.083   3.471   2.269  1.0440 -0.6938 -0.7117
  104SAPE   C1110565  -0.007   3.512   2.453 -0.0443  1.1193 -0.0573
  104SAPE  H11A10566   0.007   3.457   2.549 -1.2042  0.9704  0.0430
  104SAPE  H11B10567  -0.087   3.587   2.473 -2.7401 -1.9360  1.5290
  104SAPE     P10568   0.129   3.702   2.335  0.4081 -0.0184 -0.1714
  104SAPE   O1310569   0.253   3.699   2.255  0.2153 -0.0123  0.8197
  104SAPE   O1410570  -0.000   3.748   2.272 -0.9461  0.3148  0.3363
  104SAPE   O1210571   0.110   3.560   2.389  0.1267  0.0920 -0.7417
  104SAPE   O1110572   0.160   3.783   2.464  0.7230  0.5380  0.1937
  104SAPE    C110573   0.271   3.757   2.552  0.4575  0.2629  0.2699
  104SAPE    HA10574   0.355   3.698   2.508  0.9330  0.9977  0.1832
  104SAPE    HB10575   0.300   3.854   2.598 -0.3453  0.1299  1.1057
  104SAPE    C210576   0.221   3.657   2.665 -0.0655 -0.0229 -0.2317
  104SAPE    HS10577   0.190   3.566   2.610 -0.8709 -1.3455  2.2439
  104SAPE   O2110578   0.101   3.714   2.731 -0.5389  0.7211  0.1626
  104SAPE   C2110579   0.050   3.636   2.828  0.1539 -0.1942 -0.1733
  104SAPE   O2210580   0.066   3.513   2.843 -0.1458 -0.2391 -0.8892
  104SAPE   C2210581  -0.035   3.724   2.917  0.4160  0.4058  0.2998
  104SAPE   H2R10582   0.012   3.820   2.947 -2.4884  1.8655  0.6054
  104SAPE   H2S10583  -0.126   3.742   2.855  1.0153  0.3926 -0.6038
  104SAPE    C310584   0.333   3.618   2.773  0.0834 -0.1883 -0.0296
  104SAPE    HX10585   0.424   3.594   2.714 -1.3991 -1.8359 -1.7825
  104SAPE    HY10586   0.297   3.528   2.827  1.2148 -0.6908 -0.0958
  104SAPE   O3110587   0.353   3.721   2.876 -0.1178 -0.3449  0.3556
  104SAPE   C3110588   0.441   3.821   2.848 -0.1703  0.1044  0.4961
  104SAPE   O3210589   0.526   3.825   2.758 -0.6347 -0.0272 -0.1775
  104SAPE   C3210590   0.441   3.916   2.964 -0.1839  0.1572  0.7520
  104SAPE   H2X10591   0.336   3.950   2.957  0.1841  1.0171 -2.1325
  104SAPE   H2Y10592   0.518   3.993   2.944 -0.1912  0.5457  2.1397
  104SAPE   C2310593  -0.073   3.645   3.046 -0.0856  0.1365  0.2993
  104SAPE   H3R10594  -0.101   3.541   3.018 -1.6279  0.9050 -1.2166
  104SAPE   H3S10595  -0.164   3.694   3.085  0.1265  1.8967 -1.3155
  104SAPE   C2410596   0.041   3.640   3.158 -0.2823 -0.0473 -0.6974
  104SAPE   H4R10597   0.064   3.740   3.201  0.6030 -0.4676 -0.1776
  104SAPE   H4S10598   0.128   3.593   3.108 -0.1513 -0.5398 -0.0117
  104SAPE   C2510599   0.001   3.551   3.265 -0.0818 -0.1755 -0.1660
  104SAPE   H5R10600  -0.053   3.462   3.231 -0.6088  1.3964 -3.9004
  104SAPE   C2610601  -0.001   3.571   3.402 -0.1791  0.4059  0.9056
  104SAPE   H6R10602  -0.034   3.488   3.465  1.9127 -1.2576 -0.0479
  104SAPE   C2710603   0.083   3.688   3.466  0.3825  0.2866  0.3055
  104SAPE   H7R10604   0.035   3.782   3.430 -0.2404 -0.0490  0.2632
  104SAPE   H7S10605   0.183   3.687   3.416 -0.3663 -0.4384 -1.2622
  104SAPE   C2810606   0.095   3.678   3.616 -0.4733 -0.1439 -0.3076
  104SAPE   H8R10607   0.199   3.664   3.650 -1.3642 -2.3058  1.7875
  104SAPE   C2910608  -0.007   3.685   3.705  0.1742 -0.0253  0.4025
  104SAPE   H9R10609  -0.004   3.650   3.809 -0.4436  3.1191  1.6207
  104SAPE  C21010610  -0.150   3.708   3.666  0.1618  0.5094 -0.0811
  104SAPE  H10R10611  -0.182   3.648   3.579 -2.2571 -0.1658  1.1866
  104SAPE  H10S10612  -0.169   3.815   3.641 -0.3604  0.7328  1.1483
  104SAPE  C21110613  -0.250   3.677   3.768 -0.1691 -0.5063  0.7115
  104SAPE  H11R10614  -0.280   3.766   3.826  0.6835  1.5621 -1.8095
  104SAPE  C21210615  -0.314   3.562   3.783 -0.2840 -0.4610 -0.2541
  104SAPE  H12R10616  -0.383   3.559   3.869  0.2376 -1.1835  0.1524
  104SAPE  C21310617  -0.299   3.429   3.713 -0.6141 -0.1670  0.2513
  104SAPE  H13R10618  -0.310   3.341   3.780 -0.8840 -0.6790 -0.4628
  104SAPE  H13S10619  -0.195   3.420   3.676 -1.1697 -0.7638 -1.2345
  104SAPE  C21410620  -0.401   3.430   3.601 -0.3684  0.2410  0.1592
  104SAPE  H14R10621  -0.457   3.524   3.584 -1.3821 -0.4185 -0.2268
  104SAPE  C21510622  -0.423   3.318   3.522  0.3265 -0.3882  0.4752
  104SAPE  H15R10623  -0.489   3.324   3.434  0.7864 -1.5417  0.0380
  104SAPE  C21610624  -0.366   3.179   3.531 -0.1879 -0.4205  0.3752
  104SAPE  H16R10625  -0.281   3.168   3.601  1.0351 -2.6340 -1.3316
  104SAPE  H16S10626  -0.319   3.152   3.434  0.2726 -0.9087  0.7282
  104SAPE  C21710627  -0.481   3.081   3.565  1.1120  0.3022 -0.0855
  104SAPE  H17R10628  -0.560   3.085   3.487  0.5263  1.1704  0.5323
  104SAPE  H17S10629  -0.528   3.102   3.664 -1.1919  0.6795 -1.1874
  104SAPE  C21810630  -0.446   2.928   3.579  0.8047  0.3336  0.4705
  104SAPE  H18R10631  -0.530   2.865   3.617  0.6967  0.8264  1.0597
  104SAPE  H18S10632  -0.360   2.910   3.648  2.1005  1.4236 -0.8119
  104SAPE  C21910633  -0.400   2.876   3.448  0.1003  0.2147  0.6052
  104SAPE  H19R10634  -0.321   2.939   3.403 -0.2481 -0.0071 -0.3397
  104SAPE  H19S10635  -0.481   2.888   3.373  1.5501 -0.2679 -1.0955
  104SAPE  C22010636  -0.356   2.730   3.445 -0.4549 -0.5929  0.1583
  104SAPE  H20R10637  -0.421   2.682   3.522 -0.0988  0.6105  1.2386
  104SAPE  H20S10638  -0.251   2.717   3.479  0.1162  0.3127 -1.1903
  104SAPE  H20T10639  -0.357   2.684   3.344 -0.9520 -1.3854  0.5155
  104SAPE   C3310640   0.454   3.852   3.101 -0.1882  0.2038  0.0657
  104SAPE   H3X10641   0.547   3.793   3.101  1.7268  3.0018 -0.9829
  104SAPE   H3Y10642   0.370   3.779   3.111 -1.5320  1.7339  0.3624
  104SAPE   C3410643   0.465   3.945   3.224  0.9165  0.4493  0.4358
  104SAPE   H4X10644   0.389   4.024   3.212  2.2040  1.4831 -1.3669
  104SAPE   H4Y10645   0.562   3.999   3.219  1.0364  0.2351  0.4424
  104SAPE   C3510646   0.460   3.864   3.351  0.4574  0.5791  0.0497
  104SAPE   H5X10647   0.526   3.776   3.338  0.1228  0.3647 -0.2194
  104SAPE   H5Y10648   0.363   3.814   3.366  0.7013  0.0866 -0.0131
  104SAPE   C3610649   0.508   3.937   3.475 -1.1489 -0.1584  0.1673
  104SAPE   H6X10650   0.427   4.010   3.498 -2.4442 -1.2200 -0.8673
  104SAPE   H6Y10651   0.605   3.982   3.448  0.0647 -1.3634  2.2061
  104SAPE   C3710652   0.527   3.851   3.604  0.5194 -0.1159 -0.2801
  104SAPE   H7X10653   0.618   3.789   3.591 -0.3808 -1.9580  1.7236
  104SAPE   H7Y10654   0.435   3.789   3.615  0.3534  0.4195  1.7641
  104SAPE   C3810655   0.537   3.931   3.732 -0.8016  0.8409 -0.4263
  104SAPE   H8X10656   0.546   3.865   3.821  1.5558  1.3891 -0.1865
  104SAPE   H8Y10657   0.454   4.003   3.749 -1.2268  0.0034  1.2280
  104SAPE   C3910658   0.658   4.030   3.734  0.2402  0.0285  0.0855
  104SAPE   H9X10659   0.660   4.088   3.639 -2.2259  0.6781  0.3690
  104SAPE   H9Y10660   0.749   3.966   3.736  0.7033  0.6812  1.2055
  104SAPE  C31010661   0.666   4.127   3.848 -0.2784  0.1756 -0.1571
  104SAPE  H10X10662   0.594   4.205   3.816 -0.2400  1.0951  1.8842
  104SAPE  H10Y10663   0.763   4.180   3.838  0.8291 -0.9352  3.3549
  104SAPE  C31110664   0.637   4.079   3.993 -0.2541 -0.2133  0.8528
  104SAPE  H11X10665   0.537   4.031   3.991 -1.1246  1.1729 -4.3803
  104SAPE  H11Y10666   0.640   4.161   4.068 -2.4267 -0.8925  1.7490
  104SAPE  C31210667   0.747   3.984   4.040  0.6970  0.3839  0.7525
  104SAPE  H12X10668   0.841   4.026   3.999 -0.3451  1.7414 -0.3111
  104SAPE  H12Y10669   0.723   3.889   3.987 -0.2786  0.2441  1.4022
  104SAPE  C31310670   0.746   3.968   4.191 -0.0410  0.2301  0.8855
  104SAPE  H13X10671   0.720   4.063   4.243  1.4026  2.3227 -1.9581
  104SAPE  H13Y10672   0.847   3.930   4.217 -0.1245 -0.8993 -0.3294
  104SAPE  C31410673   0.647   3.857   4.254 -1.0467 -0.3145 -0.4322
  104SAPE  H14X10674   0.652   3.775   4.180  2.0177 -0.5536 -0.0913
  104SAPE  H14Y10675   0.546   3.904   4.247 -2.1136 -2.1024  1.6266
  104SAPE  C31510676   0.694   3.825   4.394 -0.1868  0.2516 -0.3783
  104SAPE  H15X10677   0.803   3.808   4.410 -0.6148 -1.0905  1.4769
  104SAPE  H15Y10678   0.646   3.731   4.428  2.0468 -0.2527  1.6281
  104SAPE  C31610679   0.688   3.940   4.498  0.3085  0.7130 -0.0899
  104SAPE  H16X10680   0.582   3.972   4.493  0.5368  1.5532  0.2151
  104SAPE  H16Y10681   0.760   4.019   4.467  1.9359 -0.5945  0.1641
  104SAPE  C31710682   0.727   3.896   4.644 -0.2347 -0.1495  0.2132
  104SAPE  H17X10683   0.748   3.989   4.700  1.6476 -1.1009  1.2116
  104SAPE  H17Y10684   0.825   3.844   4.638 -0.6545 -0.8978 -0.3773
  104SAPE  C31810685   0.633   3.798   4.709  0.1688 -0.4736  0.2351
  104SAPE  H18X10686   0.538   3.847   4.739 -1.2349 -2.9274  0.0325
  104SAPE  H18Y10687   0.684   3.768   4.803  1.1163 -1.8998 -0.7023
  104SAPE  H18Z10688   0.614   3.712   4.642 -0.1954  0.9192 -1.5138
  105SAPE     N10689   3.071   1.610   2.361  0.5622  0.4707  0.1350
  105SAPE   HN110690   3.056   1.699   2.309 -0.5930 -0.6436 -1.5402
  105SAPE   HN210691   3.139   1.548   2.314  0.1294 -2.4544  3.0118
  105SAPE   HN310692   2.981   1.558   2.365  0.9189 -0.1028  1.0039
  105SAPE   C1210693   3.124   1.640   2.500  0.3777  0.6770  0.6689
  105SAPE  H12A10694   3.231   1.667   2.488  1.3288 -2.5979  0.7707
  105SAPE  H12B10695   3.119   1.553   2.568 -1.9493  0.0533 -0.2030
  105SAPE   C1110696   3.045   1.763   2.546 -0.4564 -0.3650 -0.1826
  105SAPE  H11A10697   3.100   1.799   2.635 -2.0173 -2.2791  1.6584
  105SAPE  H11B10698   2.944   1.727   2.577 -0.3484  0.2168  0.8808
  105SAPE     P10699   2.986   2.013   2.471 -0.0066 -0.4435  0.4407
  105SAPE   O1310700   3.105   2.098   2.471  0.0352  0.0093 -0.2295
  105SAPE   O1410701   2.880   2.045   2.370 -0.6499 -0.4758 -0.2500
  105SAPE   O1210702   3.025   1.863   2.447 -0.0187 -0.1547  0.0490
  105SAPE   O1110703   2.934   2.017   2.619 -0.4210  0.2389  0.9248
  105SAPE    C110704   2.798   2.017   2.655 -0.6953  0.0430 -0.2038
  105SAPE    HA10705   2.730   2.032   2.568  1.1746  2.2880 -1.4085
  105SAPE    HB10706   2.769   1.924   2.708  2.0480  0.1130  1.6722
  105SAPE    C210707   2.771   2.134   2.753 -0.3036  0.3509  0.0128
  105SAPE    HS10708   2.816   2.224   2.706 -0.5391 -0.0846 -1.0932
  105SAPE   O2110709   2.818   2.097   2.880  0.9289 -0.9968 -0.7311
  105SAPE   C2110710   2.934   2.161   2.922 -0.4960  0.2607  0.6755
  105SAPE   O2210711   3.006   2.221   2.846 -0.0871 -0.7192 -0.7831
  105SAPE   C2210712   2.955   2.127   3.069  0.4171 -0.3492 -0.0706
  105SAPE   H2R10713   3.001   2.026   3.065 -0.1317 -0.6029 -0.0808
  105SAPE   H2S10714   3.037   2.196   3.100 -0.3537  0.2704  0.6359
  105SAPE    C310715   2.620   2.169   2.764  0.0639 -0.0363 -0.0852
  105SAPE    HX10716   2.561   2.087   2.810 -2.6283  1.6851 -0.2151
  105SAPE    HY10717   2.564   2.171   2.668  0.3794  1.1679 -0.2667
  105SAPE   O3110718   2.592   2.290   2.832  0.2038 -0.0160  1.0286
  105SAPE   C3110719   2.607   2.400   2.758 -0.1112 -0.4818 -0.1071
  105SAPE   O3210720   2.657   2.403   2.648  0.3047 -0.0156 -0.5848
  105SAPE   C3210721   2.566   2.517   2.845 -0.7310  0.0703  0.5545
  105SAPE   H2X10722   2.609   2.501   2.947 -1.9002 -1.3022  0.8621
  105SAPE   H2Y10723   2.455   2.515   2.851 -0.8920  1.8448 -1.1045
  105SAPE   C2310724   2.827   2.137   3.152  0.0007  0.1834 -0.6751
  105SAPE   H3R10725   2.752   2.068   3.107  0.8269  0.7310 -3.0299
  105SAPE   H3S10726   2.786   2.239   3.143  1.6082  0.7615 -1.9501
  105SAPE   C2410727   2.841   2.099   3.303  0.4580  0.5307 -0.6035
  105SAPE   H4R10728   2.750   2.128   3.359  0.2300 -0.2054 -0.5980
  105SAPE   H4S10729   2.909   2.181   3.337  0.2646  0.1445  0.7538
  105SAPE   C2510730   2.907   1.960   3.320  0.2228 -0.8075  0.3144
  105SAPE   H5R10731   2.905   1.907   3.224 -0.0771  0.9414 -0.6841
  105SAPE   C2610732   2.947   1.906   3.441  0.5433 -0.3437 -0.2794
  105SAPE   H6R10733   3.009   1.815   3.441  0.7573 -0.1973 -0.3678
  105SAPE   C2710734   2.928   1.985   3.570  0.3412 -0.0266  0.2573
  105SAPE   H7R10735   2.882   1.927   3.654 -0.6447  0.3083 -0.0363
  105SAPE   H7S10736   2.852   2.066   3.557  1.2026  1.3948  3.1921
  105SAPE   C2810737   3.049   2.046   3.630 -0.4800  0.1361  0.4383
  105SAPE   H8R10738   3.123   1.981   3.678 -0.5455 -0.6737 -0.5197
  105SAPE   C2910739   3.076   2.180   3.622 -0.5828  0.2999  0.6680
  105SAPE   H9R10740   3.169   2.214   3.669  2.8521 -0.4819 -4.6227
  105SAPE  C21010741   2.995   2.297   3.560  0.6337 -0.0241  0.2744
  105SAPE  H10R10742   2.887   2.272   3.563  1.0839 -2.1272  0.4402
  105SAPE  H10S10743   3.023   2.304   3.452 -1.0407 -0.3811 -0.2090
  105SAPE  C21110744   3.022   2.431   3.625 -0.0636  0.1838 -0.4071
  105SAPE  H11R10745   3.123   2.473   3.613 -0.2060  0.9118  0.8365
  105SAPE  C21210746   2.945   2.504   3.708 -0.0863 -0.0858  0.6156
  105SAPE  H12R10747   2.982   2.603   3.736  2.3128 -0.3688 -1.1520
  105SAPE  C21310748   2.812   2.465   3.757  0.2662 -0.0811 -0.1809
  105SAPE  H13R10749   2.773   2.367   3.722  2.0100 -0.0799 -2.3030
  105SAPE  H13S10750   2.742   2.539   3.714  1.0243  1.6951  1.5035
  105SAPE  C21410751   2.790   2.468   3.906  0.0396 -0.0474  0.6767
  105SAPE  H14R10752   2.775   2.571   3.940  1.1856  0.2556  0.3083
  105SAPE  C21510753   2.824   2.372   3.996 -0.1812  0.7343  0.4752
  105SAPE  H15R10754   2.822   2.396   4.103 -0.2679  1.1795  0.3726
  105SAPE  C21610755   2.881   2.233   3.957  0.5055 -0.0101  0.4799
  105SAPE  H16R10756   2.873   2.198   3.852  2.1546 -1.6404  0.8400
  105SAPE  H16S10757   2.827   2.152   4.010 -0.5675 -0.5367 -1.3216
  105SAPE  C21710758   3.029   2.221   3.997 -0.2027 -0.3232  0.8600
  105SAPE  H17R10759   3.092   2.307   3.965  1.5997 -2.1927 -0.9591
  105SAPE  H17S10760   3.076   2.134   3.945  1.0786 -0.8415  2.7557
  105SAPE  C21810761   3.051   2.201   4.143  0.2331  0.1891  0.4697
  105SAPE  H18R10762   2.995   2.117   4.189  1.5275 -1.6124 -1.0746
  105SAPE  H18S10763   3.023   2.297   4.192  1.3128  1.0011 -0.4512
  105SAPE  C21910764   3.199   2.182   4.159 -0.3233 -0.4785 -0.4666
  105SAPE  H19R10765   3.257   2.266   4.114 -0.0524  0.1299  0.9495
  105SAPE  H19S10766   3.233   2.094   4.101  0.4460 -0.7033  0.3141
  105SAPE  C22010767   3.261   2.170   4.301 -0.4087  0.1986 -0.2017
  105SAPE  H20R10768   3.371   2.158   4.286 -0.2917 -0.2468  0.9168
  105SAPE  H20S10769   3.212   2.079   4.340  1.0029 -0.1012  0.9739
  105SAPE  H20T10770   3.248   2.252   4.374 -1.1789 -0.0606 -0.0474
  105SAPE   C3310771   2.608   2.652   2.792  0.5809  0.5000  0.2160
  105SAPE   H3X10772   2.531   2.728   2.819  1.3894  0.9266  1.3750
  105SAPE   H3Y10773   2.614   2.645   2.682 -2.0742  0.1703  0.0251
  105SAPE   C3410774   2.747   2.706   2.840 -0.1015 -0.7786 -0.2884
  105SAPE   H4X10775   2.784   2.774   2.759 -0.5580 -0.0432  0.1106
  105SAPE   H4Y10776   2.810   2.615   2.847 -1.1211 -1.6247 -1.6149
  105SAPE   C3510777   2.732   2.771   2.979  0.2946  0.2248  0.5674
  105SAPE   H5X10778   2.681   2.698   3.046  0.5857  0.5147  1.1167
  105SAPE   H5Y10779   2.653   2.846   2.957 -0.3365  0.4656  3.2861
  105SAPE   C3610780   2.862   2.833   3.027  0.0365  0.7053 -0.1540
  105SAPE   H6X10781   2.905   2.890   2.943 -1.7065  0.4995 -1.2324
  105SAPE   H6Y10782   2.931   2.749   3.053 -0.6841 -0.0632 -0.6643
  105SAPE   C3710783   2.839   2.924   3.149 -0.0427 -0.9524  0.3946
  105SAPE   H7X10784   2.766   3.004   3.126  1.7983  0.6978  0.0061
  105SAPE   H7Y10785   2.935   2.976   3.169 -0.3403 -0.2295  0.0062
  105SAPE   C3810786   2.817   2.847   3.283 -0.0231  0.2108  0.3921
  105SAPE   H8X10787   2.902   2.775   3.278  0.9034  1.3226 -2.7779
  105SAPE   H8Y10788   2.726   2.784   3.278  1.1069 -1.5236  0.6348
  105SAPE   C3910789   2.832   2.934   3.404 -0.9980 -0.8168 -0.3081
  105SAPE   H9X10790   2.775   3.029   3.401 -0.6507 -0.6273 -1.5210
  105SAPE   H9Y10791   2.935   2.973   3.422  0.0205 -3.3902 -0.1466
  105SAPE  C31010792   2.808   2.860   3.542  0.1963 -0.3432  0.1215
  105SAPE  H10X10793   2.867   2.766   3.538 -1.0227 -1.0917 -0.9583
  105SAPE  H10Y10794   2.701   2.832   3.544 -0.6417  2.1019 -2.5863
  105SAPE  C31110795   2.830   2.956   3.662  0.1485  0.2896  0.8692
  105SAPE  H11X10796   2.757   3.039   3.649  0.4831  0.4562 -0.0654
  105SAPE  H11Y10797   2.927   3.002   3.634 -0.4770 -0.9059 -4.2626
  105SAPE  C31210798   2.815   2.881   3.791  0.4930 -0.1501 -0.4438
  105SAPE  H12X10799   2.879   2.790   3.796 -0.4428 -0.7588  1.1698
  105SAPE  H12Y10800   2.712   2.841   3.800  0.7964 -0.7321  0.7715
  105SAPE  C31310801   2.854   2.981   3.909  0.6509 -0.2814 -0.4533
  105SAPE  H13X10802   2.787   3.069   3.894  1.2733  0.3189  0.1677
  105SAPE  H13Y10803   2.962   3.009   3.910  0.0274  2.4580 -0.8258
  105SAPE  C31410804   2.825   2.933   4.051 -0.0750 -0.2389  1.1162
  105SAPE  H14X10805   2.715   2.916   4.051 -0.8928  3.8910  0.2834
  105SAPE  H14Y10806   2.836   3.023   4.116 -1.7608  1.7311 -1.1320
  105SAPE  C31510807   2.910   2.812   4.102  0.2869  0.1827  0.6126
  105SAPE  H15X10808   2.895   2.726   4.033  1.6027 -1.8803  2.7341
  105SAPE  H15Y10809   2.878   2.777   4.203 -1.4964  0.1450  0.0669
  105SAPE  C31610810   3.058   2.845   4.104  0.4227  0.2784 -0.2265
  105SAPE  H16X10811   3.073   2.917   4.187 -1.7254 -0.5902  1.0239
  105SAPE  H16Y10812   3.096   2.887   4.009  4.0916  0.0138  0.9617
  105SAPE  C31710813   3.149   2.723   4.130  0.1044  0.0653 -0.1757
  105SAPE  H17X10814   3.125   2.683   4.231 -1.1080 -0.0737 -0.5054
  105SAPE  H17Y10815   3.255   2.757   4.125  0.2891 -0.4540  0.0795
  105SAPE  C31810816   3.131   2.600   4.032 -0.7129 -0.1468 -0.2917
  105SAPE  H18X10817   3.042   2.542   4.061 -0.7320  0.6914  1.4503
  105SAPE  H18Y10818   3.210   2.523   4.046  1.8489  2.1440 -1.0398
  105SAPE  H18Z10819   3.134   2.630   3.925  2.5337  0.0300 -0.2495
  106SAPE     N10820   3.900   6.972   2.301  0.2963 -0.5072  0.2837
  106SAPE   HN110821   3.901   7.047   2.373  1.1284 -2.2907  2.2290
  106SAPE   HN210822   3.886   6.880   2.346 -3.9722 -0.2268 -0.0210
  106SAPE   HN310823   3.995   6.982   2.260  0.0337  0.2675 -0.1753
  106SAPE   C1210824   3.793   6.972   2.192  0.1604 -0.0527 -0.5514
  106SAPE  H12A10825   3.789   7.077   2.156 -0.8155  0.0304 -0.2231
  106SAPE  H12B10826   3.706   6.943   2.255  1.7425 -0.5199  1.5269
  106SAPE   C1110827   3.803   6.863   2.090  0.0677 -0.3761 -0.3599
  106SAPE  H11A10828   3.885   6.890   2.020  0.3694  0.0072  0.1364
  106SAPE  H11B10829   3.709   6.860   2.030  0.4675  0.8346 -1.0798
  106SAPE     P10830   3.954   6.670   2.171 -0.3711 -0.2344 -0.1560
  106SAPE   O1310831   3.941   6.525   2.179  0.9043 -0.7199 -0.5245
  106SAPE   O1410832   4.066   6.724   2.079 -0.3768  0.5616  0.0657
  106SAPE   O1210833   3.812   6.734   2.138 -0.0332  0.2760 -0.1434
  106SAPE   O1110834   3.960   6.716   2.327 -0.1210  0.2352 -0.0183
  106SAPE    C110835   3.882   6.655   2.429  0.7313 -0.4322 -0.9387
  106SAPE    HA10836   3.781   6.700   2.443  0.4841 -0.2998 -2.9054
  106SAPE    HB10837   3.880   6.544   2.425  0.2822 -0.5076  0.5975
  106SAPE    C210838   3.963   6.683   2.573 -0.3864 -0.2710 -0.0040
  106SAPE    HS10839   3.902   6.616   2.637 -1.2357  0.0516 -0.4723
  106SAPE   O2110840   3.962   6.824   2.607  0.2313 -0.6676 -0.7919
  106SAPE   C2110841   3.964   6.856   2.735 -0.0855  0.3752 -0.0674
  106SAPE   O2210842   3.952   6.780   2.829 -0.1760  0.5298  0.1230
  106SAPE   C2210843   3.991   7.009   2.749 -0.7087 -0.0295 -0.0490
  106SAPE   H2R10844   4.072   7.030   2.676  0.6905 -0.8014  1.2061
  106SAPE   H2S10845   3.902   7.066   2.716  0.6335  2.3777  0.2435
  106SAPE    C310846   4.106   6.619   2.563  0.2954 -0.0092 -0.7620
  106SAPE    HX10847   4.175   6.678   2.499  1.7172 -0.8487 -0.0461
  106SAPE    HY10848   4.087   6.524   2.507  0.4286 -0.4568 -0.0578
  106SAPE   O3110849   4.166   6.589   2.694 -0.2558  0.9394 -0.7441
  106SAPE   C3110850   4.257   6.678   2.740 -0.1757  0.5214  0.3185
  106SAPE   O3210851   4.281   6.783   2.690 -0.2757 -1.0788 -0.4952
  106SAPE   C3210852   4.308   6.624   2.879 -0.4072  0.2416  0.2461
  106SAPE   H2X10853   4.408   6.581   2.860  0.4138  1.4149  1.7342
  106SAPE   H2Y10854   4.245   6.537   2.908 -1.7612  1.3565  0.7568
  106SAPE   C2310855   4.037   7.063   2.892  0.3904 -0.0319  0.5762
  106SAPE   H3R10856   4.066   7.168   2.872 -0.6611  0.0032 -0.9695
  106SAPE   H3S10857   4.124   7.000   2.918 -0.9735 -2.2993  0.0033
  106SAPE   C2410858   3.937   7.056   3.009  0.0950 -0.1559  0.6302
  106SAPE   H4R10859   3.989   7.098   3.097 -0.6763 -1.4674  1.7436
  106SAPE   H4S10860   3.916   6.950   3.035  3.1228 -1.6406 -2.2657
  106SAPE   C2510861   3.814   7.132   2.975  0.6439 -0.3825  0.5847
  106SAPE   H5R10862   3.756   7.090   2.891 -2.2484  1.6514  1.4054
  106SAPE   C2610863   3.764   7.230   3.051  0.3667 -0.3244  0.4711
  106SAPE   H6R10864   3.672   7.283   3.024  0.2039  0.3822  2.2945
  106SAPE   C2710865   3.818   7.296   3.178 -0.1066 -0.7056  0.2938
  106SAPE   H7R10866   3.780   7.399   3.198  0.3719 -0.5589  0.4620
  106SAPE   H7S10867   3.926   7.315   3.158  0.0149 -0.0700  1.4454
  106SAPE   C2810868   3.811   7.205   3.293  0.2467  0.8088 -0.5973
  106SAPE   H8R10869   3.829   7.098   3.276 -0.0186  0.5364  0.7219
  106SAPE   C2910870   3.789   7.242   3.416 -0.4498 -0.0263  0.1516
  106SAPE   H9R10871   3.796   7.164   3.493  1.8787 -0.9273 -0.8700
  106SAPE  C21010872   3.783   7.379   3.477 -0.1878 -0.3582  0.6032
  106SAPE  H10R10873   3.763   7.367   3.586 -1.4018 -1.4654  0.2809
  106SAPE  H10S10874   3.692   7.424   3.432  0.4366 -0.2510 -0.5877
  106SAPE  C21110875   3.900   7.472   3.449  0.5032  0.0745  0.4583
  106SAPE  H11R10876   3.953   7.449   3.356  0.3295  0.0631  0.3619
  106SAPE  C21210877   3.932   7.579   3.525  0.7174  0.5971  0.2954
  106SAPE  H12R10878   4.016   7.646   3.504  0.7186  0.3287 -0.5623
  106SAPE  C21310879   3.865   7.604   3.654  0.1800  0.1840 -0.6091
  106SAPE  H13R10880   3.944   7.629   3.728 -0.1556  1.7576 -0.7480
  106SAPE  H13S10881   3.821   7.520   3.713 -0.5942  1.4390  0.6719
  106SAPE  C21410882   3.756   7.708   3.650 -0.4320 -0.2360 -0.6780
  106SAPE  H14R10883   3.665   7.699   3.589 -1.4065 -0.1497  0.7043
  106SAPE  C21510884   3.776   7.826   3.705  0.2568  0.6400  0.0082
  106SAPE  H15R10885   3.688   7.892   3.698  1.2466  1.9447 -0.5294
  106SAPE  C21610886   3.895   7.888   3.768  0.0970 -0.4425 -0.2654
  106SAPE  H16R10887   3.913   7.987   3.721 -0.8769  0.0632  0.3823
  106SAPE  H16S10888   3.988   7.828   3.775  0.5495  0.3498  1.1677
  106SAPE  C21710889   3.856   7.908   3.912  0.3364  0.2204 -0.6977
  106SAPE  H17R10890   3.823   7.823   3.976  2.7931  0.1672  0.6159
  106SAPE  H17S10891   3.782   7.991   3.918  1.7727  1.4777  0.5873
  106SAPE  C21810892   3.969   7.971   3.992 -0.1671 -0.4572 -0.7156
  106SAPE  H18R10893   3.987   8.071   3.948  1.2700 -0.1973  0.3774
  106SAPE  H18S10894   4.063   7.912   3.983  0.3100  0.3908 -1.4316
  106SAPE  C21910895   3.925   7.991   4.130  0.3461  0.0650  0.5699
  106SAPE  H19R10896   3.887   7.895   4.172 -2.0152  0.4507 -0.5311
  106SAPE  H19S10897   3.845   8.067   4.138 -0.5227 -0.6651 -0.7730
  106SAPE  C22010898   4.041   8.048   4.213 -0.0541 -0.5306 -0.0645
  106SAPE  H20R10899   4.078   8.149   4.188  1.7828 -0.8682  1.1533
  106SAPE  H20S10900   4.124   7.974   4.205 -0.6927 -1.1657 -1.1264
  106SAPE  H20T10901   4.003   8.054   4.317  2.2314  0.4466  0.7627
  106SAPE   C3310902   4.325   6.723   3.005  0.0082  0.1959  0.2052
  106SAPE   H3X10903   4.346   6.828   2.974 -0.5372  1.0636  2.5203
  106SAPE   H3Y10904   4.415   6.684   3.057 -0.5239 -1.0798  0.1990
  106SAPE   C3410905   4.205   6.723   3.102  0.5969 -0.0748  0.2513
  106SAPE   H4X10906   4.215   6.622   3.148 -0.4513 -0.7158 -0.8928
  106SAPE   H4Y10907   4.107   6.741   3.054  0.3374  0.7847  1.0743
  106SAPE   C3510908   4.226   6.832   3.199  0.9349  0.1028 -0.7548
  106SAPE   H5X10909   4.241   6.931   3.152 -0.8543  0.9501  0.3464
  106SAPE   H5Y10910   4.318   6.800   3.251  1.0944 -0.3443 -1.2977
  106SAPE   C3610911   4.106   6.850   3.287  0.3220 -0.3043  0.3185
  106SAPE   H6X10912   4.096   6.747   3.328  0.4355 -0.4281  0.0320
  106SAPE   H6Y10913   4.007   6.866   3.239 -0.2157 -0.9402  1.1707
  106SAPE   C3710914   4.133   6.955   3.391  0.4096  0.0780  0.6069
  106SAPE   H7X10915   4.119   7.051   3.337  0.6300 -0.1347  0.1685
  106SAPE   H7Y10916   4.240   6.937   3.418  0.8565 -1.8451 -2.1081
  106SAPE   C3810917   4.038   6.960   3.516 -0.8368  0.2294  0.0454
  106SAPE   H8X10918   4.034   6.854   3.546  0.0128  0.5132  1.2065
  106SAPE   H8Y10919   3.936   6.996   3.490 -2.0610 -2.3251  1.0429
  106SAPE   C3910920   4.092   7.057   3.620 -0.9814 -0.4938  0.0582
  106SAPE   H9X10921   4.070   7.159   3.583 -1.0520 -0.6571 -0.3621
  106SAPE   H9Y10922   4.200   7.041   3.642 -1.5435 -2.2186  1.8520
  106SAPE  C31010923   4.005   7.017   3.738  0.1868  0.3742 -0.9577
  106SAPE  H10X10924   4.004   6.906   3.748 -0.1224  0.5822  2.8667
  106SAPE  H10Y10925   3.900   7.050   3.717  0.6221  0.8095 -2.5925
  106SAPE  C31110926   4.043   7.086   3.875 -0.5907  0.0877  0.2261
  106SAPE  H11X10927   4.151   7.062   3.889 -1.0428 -1.4234  1.4762
  106SAPE  H11Y10928   3.996   7.037   3.963 -3.4569  0.1073 -1.1658
  106SAPE  C31210929   4.021   7.235   3.873  0.7163  0.8518 -0.1849
  106SAPE  H12X10930   3.910   7.246   3.874  0.7347  1.0306 -0.1594
  106SAPE  H12Y10931   4.061   7.281   3.780  2.2177 -0.9529 -0.4936
  106SAPE  C31310932   4.078   7.309   3.995  0.3983  0.0802  0.6268
  106SAPE  H13X10933   4.173   7.258   4.021 -0.8122 -1.9357  1.3211
  106SAPE  H13Y10934   4.009   7.280   4.077  0.7850 -2.9848  0.0069
  106SAPE  C31410935   4.069   7.455   3.989 -0.2865 -0.2355  0.2473
  106SAPE  H14X10936   3.968   7.490   3.957  0.5021  2.2616  0.2421
  106SAPE  H14Y10937   4.129   7.486   3.901  0.9877 -0.1501  1.1247
  106SAPE  C31510938   4.098   7.529   4.118  0.1789 -0.3365  0.4876
  106SAPE  H15X10939   4.009   7.497   4.177 -0.8357  0.9378 -0.2831
  106SAPE  H15Y10940   4.086   7.638   4.104  0.5464 -0.3868 -0.2335
  106SAPE  C31610941   4.226   7.500   4.199  0.3659  0.2643 -0.1867
  106SAPE  H16X10942   4.245   7.394   4.226  2.1982  1.0057  1.6737
  106SAPE  H16Y10943   4.213   7.570   4.284 -0.7877 -0.3096  0.1287
  106SAPE  C31710944   4.358   7.540   4.121  0.7112  0.3761 -0.8442
  106SAPE  H17X10945   4.385   7.471   4.039  1.1252 -0.1077 -0.3014
  106SAPE  H17Y10946   4.442   7.526   4.192 -0.4031 -1.2715  0.2141
  106SAPE  C31810947   4.364   7.675   4.061  0.4241  0.1620  0.4131
  106SAPE  H18X10948   4.344   7.745   4.145 -0.0862 -0.7787  1.0866
  106SAPE  H18Y10949   4.283   7.687   3.985  1.7364  2.9401 -0.6844
  106SAPE  H18Z10950   4.464   7.697   4.017  1.8575 -1.4508  2.6894
  107SAPE     N10951   4.900   2.116   2.489  0.0133 -0.3537 -0.6156
  107SAPE   HN110952   4.802   2.146   2.472 -0.2279  0.3464  1.7130
  107SAPE   HN210953   4.941   2.097   2.395 -1.1909  0.8712 -1.4279
  107SAPE   HN310954   4.893   2.036   2.555  1.5444  1.8819  2.5420
  107SAPE   C1210955   4.970   2.241   2.554  0.3151 -0.3010 -0.7060
  107SAPE  H12A10956   5.077   2.247   2.523 -0.1016  1.8658 -1.9990
  107SAPE  H12B10957   4.958   2.229   2.663 -1.5542  0.1289 -0.8426
  107SAPE   C1110958   4.907   2.374   2.503 -0.1621  0.2011 -0.5941
  107SAPE  H11A10959   4.980   2.450   2.540 -1.9496  1.0753  1.3089
  107SAPE  H11B10960   4.810   2.396   2.551  0.1457  1.8865 -0.6589
  107SAPE     P10961   4.778   2.370   2.284 -0.1190 -0.0866 -0.3786
  107SAPE   O1310962   4.709   2.505   2.293 -0.2188  0.1892  0.2362
  107SAPE   O1410963   4.798   2.316   2.150 -0.1655 -0.3427 -0.1102
  107SAPE   O1210964   4.915   2.371   2.366  0.5928 -0.0207  0.5972
  107SAPE   O1110965   4.693   2.258   2.360  0.3228  0.3051  0.1697
  107SAPE    C110966   4.547   2.241   2.340  0.1576 -0.2941  0.4744
  107SAPE    HA10967   4.497   2.325   2.288  0.8543 -0.2182 -0.0920
  107SAPE    HB10968   4.529   2.145   2.286 -1.8003 -0.1050  0.7275
  107SAPE    C210969   4.479   2.239   2.482 -0.1152  0.1207  0.2050
  107SAPE    HS10970   4.369   2.255   2.480 -0.6384 -2.7391  1.0270
  107SAPE   O2110971   4.538   2.337   2.571 -0.4848  0.4638 -0.2230
  107SAPE   C2110972   4.491   2.458   2.576 -0.0758  0.9688 -0.9358
  107SAPE   O2210973   4.394   2.500   2.510  0.2794 -0.5440  0.1819
  107SAPE   C2210974   4.566   2.535   2.686 -0.2590  0.2307 -0.1817
  107SAPE   H2R10975   4.631   2.463   2.739 -0.1289  1.0109  0.7308
  107SAPE   H2S10976   4.633   2.604   2.629  0.2218  0.0712  0.1859
  107SAPE    C310977   4.499   2.101   2.556 -0.1630  0.3839  0.5955
  107SAPE    HX10978   4.592   2.055   2.518 -0.5169 -0.0647  0.2610
  107SAPE    HY10979   4.415   2.037   2.522 -0.5122  1.0941  0.0872
  107SAPE   O3110980   4.491   2.124   2.697 -0.0963  0.5218  0.1921
  107SAPE   C3110981   4.612   2.137   2.761 -0.5187  0.4572 -0.1428
  107SAPE   O3210982   4.724   2.126   2.708  0.2411  0.2021 -0.2729
  107SAPE   C3210983   4.588   2.175   2.912  0.0564 -0.3052 -0.3952
  107SAPE   H2X10984   4.579   2.080   2.968  1.3720  0.2950  0.9068
  107SAPE   H2Y10985   4.494   2.234   2.918  1.5591  2.4967 -2.1907
  107SAPE   C2310986   4.476   2.615   2.781  0.2170 -0.2856  0.3964
  107SAPE   H3R10987   4.389   2.658   2.728 -0.3404  0.0965  1.5913
  107SAPE   H3S10988   4.533   2.699   2.827  0.5906 -0.7675  0.8308
  107SAPE   C2410989   4.426   2.526   2.895  0.1257 -0.7904  0.2677
  107SAPE   H4R10990   4.506   2.505   2.969 -0.0338  2.0344  1.3925
  107SAPE   H4S10991   4.390   2.430   2.852  1.7300 -1.6175  0.7141
  107SAPE   C2510992   4.307   2.609   2.963 -1.0387  0.3028 -0.0134
  107SAPE   H5R10993   4.251   2.673   2.894 -0.6496  1.8322  1.0443
  107SAPE   C2610994   4.271   2.587   3.094  0.4443 -0.9280 -0.4759
  107SAPE   H6R10995   4.194   2.657   3.131  1.1837 -0.9353  1.1235
  107SAPE   C2710996   4.346   2.509   3.198 -0.1196  0.3063 -0.1521
  107SAPE   H7R10997   4.445   2.548   3.230  0.4458  0.6774 -2.2228
  107SAPE   H7S10998   4.357   2.403   3.166  0.1391  0.5662 -0.9415
  107SAPE   C2810999   4.255   2.514   3.319  1.1406  0.4102  1.5248
  107SAPE   H8R11000   4.177   2.439   3.302  2.6949 -0.5788 -1.9832
  107SAPE   C2911001   4.254   2.575   3.436  0.6748  0.0569  0.2057
  107SAPE   H9R11002   4.168   2.553   3.502 -1.4350  2.8371 -1.4078
  107SAPE  C21011003   4.361   2.669   3.484  0.8646 -0.3305 -0.8288
  107SAPE  H10R11004   4.315   2.769   3.497  1.3741 -0.0288 -1.3113
  107SAPE  H10S11005   4.449   2.677   3.418  1.7374  1.8508  0.4897
  107SAPE  C21111006   4.407   2.630   3.629  0.2436  0.2686  0.4728
  107SAPE  H11R11007   4.354   2.670   3.717 -0.4208  0.5895 -0.0608
  107SAPE  C21211008   4.506   2.543   3.657  0.5287 -0.8502  0.2248
  107SAPE  H12R11009   4.522   2.535   3.766 -2.5645 -1.7396  0.7279
  107SAPE  C21311010   4.603   2.475   3.563  0.5520  0.1855  0.6296
  107SAPE  H13R11011   4.705   2.468   3.605 -0.5457  1.1935  3.7966
  107SAPE  H13S11012   4.609   2.536   3.471 -2.1510  2.8004  1.9834
  107SAPE  C21411013   4.555   2.339   3.534  0.4038 -0.5507  0.3889
  107SAPE  H14R11014   4.495   2.332   3.442 -0.8927 -0.4400  1.2017
  107SAPE  C21511015   4.587   2.227   3.594 -0.5515 -0.1445 -0.2777
  107SAPE  H15R11016   4.552   2.128   3.561 -0.8047 -0.8091  1.7798
  107SAPE  C21611017   4.657   2.220   3.727 -0.0813 -0.0215  0.7952
  107SAPE  H16R11018   4.730   2.304   3.740  1.6239 -1.4745  1.0614
  107SAPE  H16S11019   4.727   2.133   3.729 -1.2042 -0.9626  0.1539
  107SAPE  C21711020   4.573   2.202   3.849 -0.0636  0.4242 -0.1619
  107SAPE  H17R11021   4.489   2.273   3.852 -0.7639 -0.3001 -1.7326
  107SAPE  H17S11022   4.646   2.218   3.932 -1.8555  0.1078  1.5372
  107SAPE  C21811023   4.504   2.068   3.865 -0.2538  0.0136 -0.6855
  107SAPE  H18R11024   4.575   1.985   3.841  0.9851  1.6466 -3.1752
  107SAPE  H18S11025   4.435   2.036   3.784  1.4191 -1.0505 -1.7695
  107SAPE  C21911026   4.428   2.067   3.993  0.3630 -0.4081 -0.6507
  107SAPE  H19R11027   4.359   2.154   3.991  2.3889  1.2441 -1.2515
  107SAPE  H19S11028   4.485   2.088   4.087  0.5317  0.2738 -0.9009
  107SAPE  C22011029   4.366   1.925   4.025  0.5798  0.0973  0.0662
  107SAPE  H20R11030   4.314   1.929   4.123  0.9068  0.2250  0.2366
  107SAPE  H20S11031   4.435   1.840   4.040 -2.3197 -2.0320  2.7698
  107SAPE  H20T11032   4.298   1.901   3.941 -2.6491  1.0457  2.2211
  107SAPE   C3311033   4.699   2.258   2.986  0.4481 -0.2281 -0.5616
  107SAPE   H3X11034   4.686   2.363   2.951  0.1941 -0.5180 -1.3659
  107SAPE   H3Y11035   4.799   2.228   2.948  0.4916 -1.8492  0.7194
  107SAPE   C3411036   4.687   2.248   3.133 -0.3762  0.3322 -0.6545
  107SAPE   H4X11037   4.706   2.145   3.169 -0.1534  0.5210 -0.2253
  107SAPE   H4Y11038   4.588   2.290   3.161 -0.7688 -0.2633 -1.1059
  107SAPE   C3511039   4.791   2.333   3.211 -0.4746 -0.3640 -0.5786
  107SAPE   H5X11040   4.776   2.322   3.320  2.5131 -1.6069 -0.2043
  107SAPE   H5Y11041   4.789   2.443   3.194  4.2184  0.1211  0.5951
  107SAPE   C3611042   4.939   2.288   3.185 -0.6480  0.1063  0.7253
  107SAPE   H6X11043   4.962   2.333   3.086  1.2062 -1.0670  0.5822
  107SAPE   H6Y11044   4.949   2.178   3.185  1.1698  0.2288  0.4382
  107SAPE   C3711045   5.041   2.344   3.286 -0.1675  0.4979 -1.0836
  107SAPE   H7X11046   5.139   2.312   3.246  0.2067 -1.3165  1.0764
  107SAPE   H7Y11047   5.026   2.298   3.386 -0.2531  0.3070 -1.1832
  107SAPE   C3811048   5.048   2.499   3.294 -0.5683 -0.4140 -0.6844
  107SAPE   H8X11049   4.957   2.546   3.336  1.0162  3.4416 -1.1568
  107SAPE   H8Y11050   5.085   2.527   3.193  2.5075 -0.3011  0.3647
  107SAPE   C3911051   5.170   2.551   3.371  0.1402  0.3167 -0.4807
  107SAPE   H9X11052   5.156   2.659   3.394 -0.0547  0.3412 -0.7108
  107SAPE   H9Y11053   5.269   2.549   3.321  0.5256  1.7259  0.1869
  107SAPE  C31011054   5.190   2.483   3.512  0.1893 -0.1452 -0.8999
  107SAPE  H10X11055   5.278   2.529   3.562 -1.5233  1.6172  0.6171
  107SAPE  H10Y11056   5.206   2.373   3.503  0.6569 -0.0661 -1.0504
  107SAPE  C31111057   5.073   2.519   3.603 -0.0456 -0.0413  0.2253
  107SAPE  H11X11058   4.979   2.516   3.544  0.5390  3.1439 -1.1363
  107SAPE  H11Y11059   5.091   2.625   3.633  0.2397 -0.1513  0.4483
  107SAPE  C31211060   5.066   2.434   3.734  0.3830 -0.5750  0.2141
  107SAPE  H12X11061   5.166   2.442   3.781  1.6308  1.6278 -2.5107
  107SAPE  H12Y11062   5.045   2.327   3.711  2.2009 -0.7008 -1.0791
  107SAPE  C31311063   4.964   2.475   3.833 -0.3299 -0.0291 -0.5137
  107SAPE  H13X11064   4.859   2.481   3.796 -0.6135 -0.1428  0.2597
  107SAPE  H13Y11065   4.982   2.581   3.864 -3.9179  1.2347 -2.1736
  107SAPE  C31411066   4.958   2.391   3.963 -0.3612  0.4464  0.4710
  107SAPE  H14X11067   5.062   2.370   3.995 -0.2408  1.3089  0.6653
  107SAPE  H14Y11068   4.917   2.291   3.934  0.2242  0.8442 -1.9203
  107SAPE  C31511069   4.890   2.461   4.082 -1.0448 -0.0105  0.2881
  107SAPE  H15X11070   4.791   2.496   4.047 -0.4157 -0.2424 -1.8213
  107SAPE  H15Y11071   4.957   2.542   4.118 -1.2193 -0.6982  2.2992
  107SAPE  C31611072   4.867   2.360   4.195 -0.4454  0.8635 -0.2267
  107SAPE  H16X11073   4.950   2.286   4.193 -2.1180 -1.1308  0.5345
  107SAPE  H16Y11074   4.775   2.300   4.185  0.2967 -0.1422 -1.2156
  107SAPE  C31711075   4.877   2.431   4.332 -0.4556 -0.0482  0.1390
  107SAPE  H17X11076   4.786   2.492   4.347  1.0767  2.0589  1.5526
  107SAPE  H17Y11077   4.963   2.499   4.317 -1.9947  1.6815 -1.3006
  107SAPE  C31811078   4.896   2.338   4.447  0.4500 -1.0788 -0.0139
  107SAPE  H18X11079   4.895   2.387   4.546 -0.1259 -1.6043  0.2461
  107SAPE  H18Y11080   4.987   2.274   4.447  0.6090 -0.8542 -0.0504
  107SAPE  H18Z11081   4.816   2.261   4.450 -1.5965  0.9445 -0.6145
  108SAPE     N11082   5.059   4.648   1.989  0.4167  0.5369  0.5071
  108SAPE   HN111083   5.097   4.711   1.915  0.6040  1.2861  1.2320
  108SAPE   HN211084   5.106   4.557   1.973 -0.5802 -0.4077  2.5727
  108SAPE   HN311085   4.961   4.616   1.975  0.6787  0.0380 -0.2604
  108SAPE   C1211086   5.098   4.696   2.128  0.1704  1.1258 -0.0139
  108SAPE  H12A11087   5.071   4.618   2.202 -2.8806  1.3141 -0.8174
  108SAPE  H12B11088   5.047   4.791   2.155 -0.1161  1.3654 -1.3642
  108SAPE   C1111089   5.254   4.715   2.133 -0.0389  0.3967 -0.4869
  108SAPE  H11A11090   5.284   4.754   2.232 -0.0240 -1.8875  0.4793
  108SAPE  H11B11091   5.280   4.792   2.058  2.1240  1.1189  0.9272
  108SAPE     P11092   5.468   4.568   2.104  0.1487 -0.3385  0.0500
  108SAPE   O1311093   5.516   4.462   2.014 -0.3906 -0.0674 -0.3525
  108SAPE   O1411094   5.537   4.699   2.098 -0.1480 -0.4564 -0.8251
  108SAPE   O1211095   5.316   4.585   2.101 -0.4684 -0.3115 -0.0691
  108SAPE   O1111096   5.475   4.517   2.253 -0.5213 -0.1140 -0.3698
  108SAPE    C111097   5.419   4.395   2.292 -0.3633 -0.2315 -1.6297
  108SAPE    HA11098   5.340   4.364   2.221 -2.4933  2.0933 -0.4632
  108SAPE    HB11099   5.498   4.318   2.286 -0.4663 -0.3344 -1.6757
  108SAPE    C211100   5.378   4.389   2.439  0.8260  0.0622  0.3939
  108SAPE    HS11101   5.284   4.448   2.444 -1.1752 -3.0261  1.7603
  108SAPE   O2111102   5.492   4.435   2.515  0.7658  0.8523  0.2914
  108SAPE   C2111103   5.453   4.494   2.625  0.4778 -0.3244 -0.3009
  108SAPE   O2211104   5.340   4.520   2.663 -0.0898  0.4585  0.0588
  108SAPE   C2211105   5.573   4.553   2.691 -0.9316 -0.1872 -0.0165
  108SAPE   H2R11106   5.599   4.654   2.652  0.4364  0.1570  1.7073
  108SAPE   H2S11107   5.547   4.584   2.794 -1.0809 -2.7425  0.7835
  108SAPE    C311108   5.343   4.243   2.486  0.3081 -0.5209  0.0195
  108SAPE    HX11109   5.442   4.197   2.466 -0.2273 -1.1135 -1.3512
  108SAPE    HY11110   5.270   4.198   2.416 -0.2740  1.3059 -0.6063
  108SAPE   O3111111   5.316   4.225   2.628 -0.2154 -0.4522 -0.4128
  108SAPE   C3111112   5.191   4.217   2.655  0.7181  0.1931 -0.1714
  108SAPE   O3211113   5.096   4.261   2.585  0.3055 -0.0719 -0.1350
  108SAPE   C3211114   5.165   4.163   2.798 -0.6981  0.2527  0.3707
  108SAPE   H2X11115   5.226   4.072   2.814  0.6279  1.3364  1.7302
  108SAPE   H2Y11116   5.058   4.135   2.807 -1.0984  1.7979  0.8661
  108SAPE   C2311117   5.697   4.456   2.707  0.3619 -0.9575  0.3306
  108SAPE   H3R11118   5.775   4.508   2.767  0.3924 -1.7885  1.0320
  108SAPE   H3S11119   5.743   4.442   2.607 -0.2926  2.1891 -0.4979
  108SAPE   C2411120   5.652   4.327   2.778 -0.3116 -0.1460  0.0563
  108SAPE   H4R11121   5.570   4.275   2.725 -0.4711  0.1418  0.0194
  108SAPE   H4S11122   5.608   4.361   2.874 -2.0407  0.3770 -0.8878
  108SAPE   C2511123   5.774   4.243   2.802 -0.2444 -0.3732  0.4619
  108SAPE   H5R11124   5.836   4.226   2.713  0.7778  0.6980  0.9368
  108SAPE   C2611125   5.831   4.209   2.920  0.2408 -0.4952  0.1092
  108SAPE   H6R11126   5.927   4.154   2.920  0.1880 -0.5894 -0.7377
  108SAPE   C2711127   5.773   4.222   3.058 -0.4195  0.2081 -0.3934
  108SAPE   H7R11128   5.790   4.129   3.116  2.5816  0.4422 -0.7413
  108SAPE   H7S11129   5.663   4.236   3.047 -0.2973  0.7545 -0.9781
  108SAPE   C2811130   5.820   4.342   3.142  0.0459 -0.0805  0.5131
  108SAPE   H8R11131   5.755   4.430   3.135 -0.3050 -0.4372 -1.1467
  108SAPE   C2911132   5.924   4.346   3.229 -0.0676  0.2015 -0.3408
  108SAPE   H9R11133   5.947   4.440   3.280 -2.5744  1.1039 -0.7361
  108SAPE  C21011134   6.033   4.243   3.247  1.4947 -0.4069  0.1609
  108SAPE  H10R11135   6.135   4.285   3.238  0.1463  2.7675 -2.1158
  108SAPE  H10S11136   6.021   4.153   3.182 -1.2541  0.7179 -1.0533
  108SAPE  C21111137   6.000   4.187   3.381 -0.6461 -0.0118 -0.4453
  108SAPE  H11R11138   5.910   4.125   3.394  0.3882 -1.1543  1.8453
  108SAPE  C21211139   6.076   4.206   3.491 -0.3619  0.4712 -0.1132
  108SAPE  H12R11140   6.038   4.170   3.588  0.3310 -0.6432 -0.2311
  108SAPE  C21311141   6.207   4.281   3.500 -0.3465 -0.9115  0.0223
  108SAPE  H13R11142   6.213   4.357   3.419 -0.5232  0.1262  0.9551
  108SAPE  H13S11143   6.283   4.202   3.482 -0.5073 -1.4257  1.4701
  108SAPE  C21411144   6.237   4.341   3.639  0.1276 -1.0474  0.3227
  108SAPE  H14R11145   6.323   4.293   3.687  1.2053 -0.8516 -1.3178
  108SAPE  C21511146   6.175   4.450   3.700 -0.4046 -0.0638 -0.3908
  108SAPE  H15R11147   6.208   4.462   3.804  1.8470  0.0817 -1.0677
  108SAPE  C21611148   6.067   4.540   3.648  0.3531  1.2776 -0.2183
  108SAPE  H16R11149   5.967   4.517   3.691  0.2684  1.5836 -0.2509
  108SAPE  H16S11150   6.062   4.514   3.540  0.6379 -1.3514  0.3457
  108SAPE  C21711151   6.097   4.693   3.663 -0.2909  0.2872 -0.1321
  108SAPE  H17R11152   6.012   4.745   3.613 -1.3953 -0.6718  0.6844
  108SAPE  H17S11153   6.191   4.706   3.606  0.5431  0.7913  1.2988
  108SAPE  C21811154   6.086   4.750   3.809 -0.0304 -0.0945  0.3045
  108SAPE  H18R11155   5.979   4.745   3.838 -0.7619 -0.6599 -2.2127
  108SAPE  H18S11156   6.113   4.857   3.794 -2.1841  0.2650 -1.4752
  108SAPE  C21911157   6.197   4.712   3.911 -0.2184 -0.6816 -0.2026
  108SAPE  H19R11158   6.286   4.666   3.862 -0.0075  1.0058 -1.4868
  108SAPE  H19S11159   6.160   4.639   3.986  0.0210 -0.6619 -0.0611
  108SAPE  C22011160   6.264   4.829   3.984 -0.2564  0.6491 -0.0268
  108SAPE  H20R11161   6.193   4.890   4.043  0.5652 -0.6135  2.4114
  108SAPE  H20S11162   6.307   4.900   3.910 -1.1495  1.4471  0.2037
  108SAPE  H20T11163   6.352   4.795   4.042 -0.1826  0.1748 -0.4096
  108SAPE   C3311164   5.188   4.262   2.913  0.8152  1.2538 -0.4676
  108SAPE   H3X11165   5.138   4.359   2.890 -1.6659 -0.2960 -2.0764
  108SAPE   H3Y11166   5.298   4.280   2.917  0.8876  0.6835  0.5169
  108SAPE   C3411167   5.143   4.203   3.046  0.2920 -0.1738 -0.6331
  108SAPE   H4X11168   5.174   4.098   3.063 -1.6301 -0.8641 -1.1330
  108SAPE   H4Y11169   5.032   4.198   3.040  0.1823  0.4125  0.6574
  108SAPE   C3511170   5.181   4.283   3.169  0.3940 -0.0631  0.2910
  108SAPE   H5X11171   5.152   4.222   3.257  0.3150  1.3357  1.2687
  108SAPE   H5Y11172   5.291   4.292   3.173  0.3833  0.8420 -0.8484
  108SAPE   C3611173   5.116   4.422   3.174 -0.7404 -0.2279 -0.1598
  108SAPE   H6X11174   5.006   4.409   3.179 -0.6983 -0.0703  1.4873
  108SAPE   H6Y11175   5.134   4.488   3.086 -2.0356 -0.7082 -0.8073
  108SAPE   C3711176   5.164   4.495   3.303 -0.5256  0.0066  0.7225
  108SAPE   H7X11177   5.275   4.484   3.308 -0.3415  0.2377 -1.5552
  108SAPE   H7Y11178   5.123   4.441   3.391 -0.4488 -0.1711  0.6518
  108SAPE   C3811179   5.123   4.641   3.319  0.5849  0.1915 -0.1416
  108SAPE   H8X11180   5.013   4.645   3.301  0.5380 -2.2399 -0.7558
  108SAPE   H8Y11181   5.173   4.709   3.248 -0.9164  0.3095 -1.1207
  108SAPE   C3911182   5.163   4.710   3.451 -0.4279  0.1948 -0.1566
  108SAPE   H9X11183   5.156   4.821   3.448 -0.8004  0.1927  0.4289
  108SAPE   H9Y11184   5.268   4.676   3.467 -0.1089 -0.0444 -2.4797
  108SAPE  C31011185   5.073   4.651   3.563 -1.0719  0.2712 -0.2334
  108SAPE  H10X11186   5.100   4.544   3.576  0.6997  0.8901  1.8745
  108SAPE  H10Y11187   4.971   4.665   3.521  0.2424  2.0788 -3.1027
  108SAPE  C31111188   5.079   4.716   3.700  0.3024 -0.5040 -0.1717
  108SAPE  H11X11189   4.980   4.714   3.750  1.0294  0.9879  1.4406
  108SAPE  H11Y11190   5.105   4.823   3.684 -0.0132 -0.2551  0.9521
  108SAPE  C31211191   5.171   4.658   3.807  0.0274  0.6600 -0.0983
  108SAPE  H12X11192   5.275   4.654   3.767 -0.6521 -2.8230 -1.8746
  108SAPE  H12Y11193   5.143   4.551   3.813  3.7891 -0.6038 -2.1046
  108SAPE  C31311194   5.169   4.738   3.936  0.0762 -0.1111  0.0962
  108SAPE  H13X11195   5.066   4.727   3.976  0.7467 -0.7168  1.7436
  108SAPE  H13Y11196   5.189   4.845   3.918  1.1431  0.0981  2.2438
  108SAPE  C31411197   5.275   4.696   4.037 -0.5307  0.3434  0.2965
  108SAPE  H14X11198   5.258   4.760   4.127  0.3672  1.4889 -0.3277
  108SAPE  H14Y11199   5.379   4.713   4.002 -0.4153 -1.2702 -0.2034
  108SAPE  C31511200   5.249   4.552   4.069 -0.5803  0.8857 -0.1061
  108SAPE  H15X11201   5.335   4.499   4.115 -0.2423  0.8316 -0.7978
  108SAPE  H15Y11202   5.232   4.491   3.978 -0.8896  3.7484 -2.0869
  108SAPE  C31611203   5.133   4.523   4.164  0.2607  0.1147 -0.3927
  108SAPE  H16X11204   5.039   4.554   4.113  1.7052  2.4696 -1.8491
  108SAPE  H16Y11205   5.140   4.585   4.256  0.0003 -1.3316  0.6174
  108SAPE  C31711206   5.122   4.377   4.218 -0.3316 -0.1197 -0.5403
  108SAPE  H17X11207   5.217   4.352   4.269 -0.8397  0.2154  0.6164
  108SAPE  H17Y11208   5.100   4.315   4.129 -1.5713  0.6078 -0.7687
  108SAPE  C31811209   5.017   4.363   4.332 -0.3423 -0.3201  0.3475
  108SAPE  H18X11210   5.053   4.398   4.430  0.9359  0.4154 -0.3571
  108SAPE  H18Y11211   5.002   4.253   4.344  1.1211 -0.5174  0.6004
  108SAPE  H18Z11212   4.919   4.411   4.311 -0.0827  0.5445  1.0779
  109SAPE     N11213   6.064   3.670   2.190 -0.2745 -0.4908 -0.2949
  109SAPE   HN111214   6.138   3.686   2.119 -1.3512 -1.4978 -1.6849
  109SAPE   HN211215   6.003   3.596   2.150  0.0546 -1.0645  0.2472
  109SAPE   HN311216   6.017   3.761   2.207  1.2349  0.2445  0.0831
  109SAPE   C1211217   6.128   3.613   2.316  0.2958 -0.8327 -0.6394
  109SAPE  H12A11218   6.052   3.608   2.397  0.3485  2.6589 -0.2286
  109SAPE  H12B11219   6.199   3.694   2.343  2.1295 -2.2082 -1.1020
  109SAPE   C1111220   6.195   3.479   2.286 -1.0511 -1.3273 -0.2187
  109SAPE  H11A11221   6.257   3.454   2.375 -1.8925 -1.2762  0.3925
  109SAPE  H11B11222   6.266   3.498   2.203 -1.0993 -0.5627 -0.0872
  109SAPE     P11223   6.018   3.296   2.362  0.7967  0.0095 -0.1122
  109SAPE   O1311224   5.909   3.384   2.407 -0.1264  0.4775 -0.1581
  109SAPE   O1411225   5.986   3.152   2.338 -0.1753  0.3316  0.0952
  109SAPE   O1211226   6.105   3.369   2.256 -0.7194 -0.0826 -0.3116
  109SAPE   O1111227   6.124   3.299   2.475  0.4661  0.6574  0.6087
  109SAPE    C111228   6.206   3.187   2.507 -0.2039 -0.3016 -0.1372
  109SAPE    HA11229   6.218   3.100   2.439  1.8972 -2.1380  2.3475
  109SAPE    HB11230   6.313   3.218   2.505  0.4592 -1.9503  2.8658
  109SAPE    C211231   6.168   3.129   2.644 -0.5695  0.5251 -0.0927
  109SAPE    HS11232   6.069   3.081   2.633 -0.8691  1.2353 -0.5859
  109SAPE   O2111233   6.170   3.233   2.741  0.4121 -0.2900 -0.0277
  109SAPE   C2111234   6.068   3.236   2.828  0.0272 -0.6254  0.3110
  109SAPE   O2211235   5.959   3.182   2.813 -0.1872  0.2102 -0.4843
  109SAPE   C2211236   6.101   3.327   2.941 -0.7508 -0.9331 -0.5102
  109SAPE   H2R11237   6.172   3.267   3.003 -0.6607  0.3228  0.6457
  109SAPE   H2S11238   6.150   3.420   2.905  0.6745 -1.9192 -1.1961
  109SAPE    C311239   6.271   3.014   2.687 -0.5738 -0.7196  0.1772
  109SAPE    HX11240   6.371   3.059   2.669 -1.4378  0.8500 -0.9091
  109SAPE    HY11241   6.254   2.923   2.625  0.5396 -0.7407 -0.1181
  109SAPE   O3111242   6.239   2.966   2.817  0.7678 -0.7612  0.4344
  109SAPE   C3111243   6.339   2.912   2.892  0.6558  0.5815  0.1664
  109SAPE   O3211244   6.460   2.927   2.872 -0.1488  0.5217  0.0833
  109SAPE   C3211245   6.276   2.830   3.015  0.2809  0.0197 -0.4674
  109SAPE   H2X11246   6.352   2.757   3.048 -2.0433 -3.1908 -1.6180
  109SAPE   H2Y11247   6.179   2.785   2.984 -0.9624  0.9242  1.8821
  109SAPE   C2311248   5.977   3.363   3.029  0.3655  0.3373 -0.3088
  109SAPE   H3R11249   5.907   3.277   3.038  1.8921 -1.0801 -1.3012
  109SAPE   H3S11250   5.918   3.437   2.972 -0.2945  0.1937  0.1766
  109SAPE   C2411251   6.015   3.399   3.169  0.5259 -0.1601  0.9056
  109SAPE   H4R11252   5.919   3.428   3.215 -0.0653 -2.2209  1.0848
  109SAPE   H4S11253   6.083   3.487   3.162 -1.1744  1.2193  0.9596
  109SAPE   C2511254   6.075   3.279   3.237 -0.1336  0.3822 -0.1364
  109SAPE   H5R11255   6.075   3.190   3.172 -2.6674  1.3886 -1.6749
  109SAPE   C2611256   6.117   3.275   3.364  0.2096 -0.0361  0.1093
  109SAPE   H6R11257   6.151   3.176   3.397  3.3542  0.5870 -0.9461
  109SAPE   C2711258   6.104   3.385   3.467  0.6345 -0.2586  0.2833
  109SAPE   H7R11259   6.078   3.343   3.567 -0.3708  2.1163  1.0762
  109SAPE   H7S11260   6.028   3.457   3.430  2.3262  0.9825 -0.8771
  109SAPE   C2811261   6.220   3.476   3.476  0.1884 -0.3109 -0.7600
  109SAPE   H8R11262   6.287   3.489   3.389 -2.4128  1.4722 -2.6582
  109SAPE   C2911263   6.246   3.540   3.595 -0.2702  0.2401 -0.6389
  109SAPE   H9R11264   6.331   3.609   3.607  0.0366  0.1998 -2.3359
  109SAPE  C21011265   6.165   3.535   3.724 -0.3423 -0.2697 -0.4438
  109SAPE  H10R11266   6.056   3.528   3.707 -1.0460  1.2318  2.6920
  109SAPE  H10S11267   6.176   3.634   3.773  1.1629  1.3744 -3.7606
  109SAPE  C21111268   6.216   3.421   3.814  1.1874  1.0532  0.1352
  109SAPE  H11R11269   6.247   3.324   3.771 -0.2019  0.5954  0.1057
  109SAPE  C21211270   6.177   3.414   3.946 -0.5592 -0.7097  0.5336
  109SAPE  H12R11271   6.215   3.331   4.008  0.9093  1.0314  2.0738
  109SAPE  C21311272   6.113   3.519   4.030  0.3041  0.9190 -0.3938
  109SAPE  H13R11273   6.085   3.607   3.969  1.5292  2.6947  1.4895
  109SAPE  H13S11274   6.185   3.542   4.112  0.0271  0.1685  0.0729
  109SAPE  C21411275   5.994   3.462   4.105  0.3597 -0.4098  0.2634
  109SAPE  H14R11276   5.898   3.459   4.052 -0.6018 -2.7937  1.9726
  109SAPE  C21511277   5.984   3.406   4.224 -0.2546 -0.1181  0.3106
  109SAPE  H15R11278   5.886   3.363   4.252 -0.7076  0.2995 -0.5534
  109SAPE  C21611279   6.096   3.394   4.321 -0.4490  0.7311 -1.0356
  109SAPE  H16R11280   6.092   3.473   4.400 -1.8182  1.3389 -1.6907
  109SAPE  H16S11281   6.190   3.398   4.262  0.4990  0.3282  0.3883
  109SAPE  C21711282   6.100   3.251   4.390  0.5321 -0.0561 -0.3835
  109SAPE  H17R11283   5.997   3.232   4.427  0.7484  0.4579  0.5240
  109SAPE  H17S11284   6.171   3.249   4.476 -0.4543 -2.1512  0.4264
  109SAPE  C21811285   6.129   3.140   4.291  0.8818  0.1126 -0.4260
  109SAPE  H18R11286   6.232   3.166   4.260  0.1569  2.5283 -0.9796
  109SAPE  H18S11287   6.047   3.145   4.215 -1.0237 -8.0467  0.0919
  109SAPE  C21911288   6.124   2.993   4.339 -0.2211  0.9620 -0.0329
  109SAPE  H19R11289   6.031   2.988   4.401  1.0734  1.9626  2.1252
  109SAPE  H19S11290   6.212   2.979   4.406  0.2452  1.5401 -0.5104
  109SAPE  C22011291   6.136   2.887   4.230  0.1750  0.1272  0.0552
  109SAPE  H20R11292   6.163   2.789   4.276  0.9892  0.5798  0.5555
  109SAPE  H20S11293   6.218   2.912   4.160 -1.1856  3.6598 -0.4408
  109SAPE  H20T11294   6.042   2.871   4.173  0.2669  0.7945 -0.2914
  109SAPE   C3311295   6.243   2.934   3.124  0.0145 -0.1360  0.3823
  109SAPE   H3X11296   6.155   2.997   3.100  2.3652  4.0056  1.6720
  109SAPE   H3Y11297   6.332   2.995   3.149 -0.2603  1.5029 -2.2744
  109SAPE   C3411298   6.215   2.875   3.264  0.1043  0.5987 -0.3064
  109SAPE   H4X11299   6.192   2.961   3.330 -1.5006  0.7693 -1.0326
  109SAPE   H4Y11300   6.312   2.828   3.290 -0.4764 -0.5615 -0.1678
  109SAPE   C3511301   6.097   2.771   3.276  0.0878 -0.0700 -0.5588
  109SAPE   H5X11302   6.115   2.680   3.214 -0.9838 -0.2924 -0.5623
  109SAPE   H5Y11303   6.011   2.828   3.234  0.9082  0.7677 -1.1295
  109SAPE   C3611304   6.073   2.744   3.425  0.7400 -0.0929  0.1878
  109SAPE   H6X11305   5.988   2.675   3.444 -0.2260  0.9647 -0.2093
  109SAPE   H6Y11306   6.049   2.845   3.463  0.2967  1.3353 -3.4885
  109SAPE   C3711307   6.191   2.671   3.494  0.2489 -0.3828  0.2903
  109SAPE   H7X11308   6.285   2.730   3.500 -0.2824  0.6469 -1.0795
  109SAPE   H7Y11309   6.212   2.581   3.433  2.7800  0.2855  0.0647
  109SAPE   C3811310   6.142   2.626   3.641 -0.5394 -0.3480  0.1789
  109SAPE   H8X11311   6.060   2.551   3.633 -0.9739 -0.1164  1.9935
  109SAPE   H8Y11312   6.103   2.718   3.690  0.3837 -0.1692  0.5915
  109SAPE   C3911313   6.251   2.541   3.705 -1.1115 -0.5506  0.7141
  109SAPE   H9X11314   6.329   2.609   3.745 -1.7321  0.6062  0.0131
  109SAPE   H9Y11315   6.295   2.480   3.623  2.0611  0.5508  1.4464
  109SAPE  C31011316   6.191   2.463   3.824 -0.2541  0.0526 -0.3423
  109SAPE  H10X11317   6.273   2.407   3.876  0.0328 -0.2031 -1.0544
  109SAPE  H10Y11318   6.117   2.388   3.790 -1.1308  0.8371 -0.1812
  109SAPE  C31111319   6.138   2.555   3.934 -0.9330  0.0261 -0.2986
  109SAPE  H11X11320   6.122   2.656   3.892  1.9067  0.2102 -1.1337
  109SAPE  H11Y11321   6.217   2.576   4.010  0.4596 -1.2851 -1.3104
  109SAPE  C31211322   6.007   2.502   3.987  0.9411  0.3153  0.2225
  109SAPE  H12X11323   6.012   2.391   3.995  0.3840  0.3995  2.1889
  109SAPE  H12Y11324   5.923   2.519   3.916  1.7720  3.4625 -0.1299
  109SAPE  C31311325   5.979   2.573   4.125 -0.2235 -0.4185  0.1811
  109SAPE  H13X11326   5.927   2.667   4.095  0.5216  0.1976  0.7732
  109SAPE  H13Y11327   6.075   2.600   4.173  0.4163  0.8152 -1.6891
  109SAPE  C31411328   5.882   2.493   4.221 -0.3310  0.4880 -0.0524
  109SAPE  H14X11329   5.931   2.401   4.257 -0.1666  1.4679  2.3696
  109SAPE  H14Y11330   5.785   2.462   4.175 -1.6076 -0.6890  3.1866
  109SAPE  C31511331   5.838   2.572   4.341  0.6068  0.0901  0.3074
  109SAPE  H15X11332   5.922   2.602   4.407  1.1906  1.6528 -1.0793
  109SAPE  H15Y11333   5.764   2.512   4.399  0.1622 -0.8315 -1.1645
  109SAPE  C31611334   5.762   2.696   4.287 -0.1184 -0.6664 -0.3664
  109SAPE  H16X11335   5.693   2.670   4.203 -0.2259  0.1479 -0.5386
  109SAPE  H16Y11336   5.839   2.768   4.253 -1.2776  0.8175  0.0489
  109SAPE  C31711337   5.664   2.761   4.384 -0.5906 -0.3275  0.3403
  109SAPE  H17X11338   5.598   2.683   4.427 -2.0496  0.0494 -1.1220
  109SAPE  H17Y11339   5.597   2.840   4.345 -1.0516  0.0026  1.7599
  109SAPE  C31811340   5.737   2.802   4.516  0.6503  0.2627 -0.6929
  109SAPE  H18X11341   5.827   2.864   4.499  1.7634 -0.6437  1.5232
  109SAPE  H18Y11342   5.766   2.708   4.567  2.6937  1.0819 -0.2572
  109SAPE  H18Z11343   5.657   2.855   4.572 -1.7357 -1.4682 -2.2680
  110SAPE     N11344   0.625   3.819   2.498 -0.2269  0.3594 -0.1900
  110SAPE   HN111345   0.566   3.837   2.582 -0.3897 -0.8668 -0.0237
  110SAPE   HN211346   0.572   3.769   2.424  0.4295  0.0966 -0.4882
  110SAPE   HN311347   0.700   3.751   2.523 -2.1403 -1.2647  1.5362
  110SAPE   C1211348   0.694   3.939   2.430 -0.1561  0.3195 -0.5430
  110SAPE  H12A11349   0.657   4.032   2.478  1.1601  1.0477 -0.8850
  110SAPE  H12B11350   0.672   3.947   2.321  3.8255 -0.0439 -1.5376
  110SAPE   C1111351   0.847   3.931   2.432  0.1610 -0.6229 -0.0075
  110SAPE  H11A11352   0.875   3.923   2.540  0.1526  0.9664  0.1375
  110SAPE  H11B11353   0.891   4.027   2.397  2.4002 -1.1715  1.1023
  110SAPE     P11354   1.034   3.813   2.279 -0.0803 -0.1061 -0.4586
  110SAPE   O1311355   1.050   3.679   2.212 -0.0370  0.5184 -0.7974
  110SAPE   O1411356   1.052   3.931   2.192  0.1901 -0.0835 -0.2499
  110SAPE   O1211357   0.893   3.820   2.355 -0.1350 -0.6029  0.1236
  110SAPE   O1111358   1.144   3.822   2.386  0.3233  0.5453  0.1122
  110SAPE    C111359   1.199   3.939   2.450  0.3839  0.7988  0.2058
  110SAPE    HA11360   1.306   3.957   2.428  1.0303 -0.8010  1.7232
  110SAPE    HB11361   1.139   4.026   2.417 -2.7637 -0.9982  0.6762
  110SAPE    C211362   1.167   3.930   2.602 -0.7526  0.0163 -0.4399
  110SAPE    HS11363   1.059   3.903   2.608 -0.4190 -1.5248 -1.0129
  110SAPE   O2111364   1.201   4.057   2.674  0.1236  0.4353  0.4972
  110SAPE   C2111365   1.100   4.114   2.744 -0.1756 -0.6137 -0.2147
  110SAPE   O2211366   0.983   4.077   2.730 -0.2366 -0.1993  0.2168
  110SAPE   C2211367   1.159   4.233   2.825  0.5368  0.7726 -0.2677
  110SAPE   H2R11368   1.250   4.193   2.876  0.4202  0.8054 -0.0334
  110SAPE   H2S11369   1.194   4.310   2.753 -0.6694  2.4303  0.8610
  110SAPE    C311370   1.237   3.803   2.659  0.3614 -0.6716 -0.2014
  110SAPE    HX11371   1.210   3.715   2.597 -0.7713 -1.0633  0.8087
  110SAPE    HY11372   1.345   3.826   2.648  0.2162  0.7154  0.9138
  110SAPE   O3111373   1.210   3.786   2.799  0.2498 -0.3292 -0.1727
  110SAPE   C3111374   1.105   3.706   2.824 -0.3089  0.1408 -0.4612
  110SAPE   O3211375   1.035   3.647   2.744  0.3257 -0.2669 -0.1735
  110SAPE   C3211376   1.090   3.692   2.977 -0.4924  0.0026 -0.0222
  110SAPE   H2X11377   1.156   3.766   3.026 -0.2252 -0.6139  0.5730
  110SAPE   H2Y11378   1.134   3.594   3.007  1.6429  1.1462  0.7487
  110SAPE   C2311379   1.058   4.301   2.916 -0.0475  0.2327 -0.2119
  110SAPE   H3R11380   0.965   4.323   2.859  0.5541 -0.2355 -1.4083
  110SAPE   H3S11381   1.101   4.398   2.947  0.9968 -0.2829 -0.0080
  110SAPE   C2411382   1.022   4.207   3.030 -0.4852 -0.0635  0.2093
  110SAPE   H4R11383   1.122   4.206   3.079 -0.8352  2.7596  1.1880
  110SAPE   H4S11384   0.984   4.107   3.001 -0.9388 -0.7025  2.7396
  110SAPE   C2511385   0.925   4.267   3.130 -0.0962  0.3047 -0.3510
  110SAPE   H5R11386   0.905   4.375   3.125 -2.0769  0.0487  0.8558
  110SAPE   C2611387   0.871   4.204   3.230  0.3910  0.1637  0.2529
  110SAPE   H6R11388   0.786   4.250   3.282 -1.8151 -1.2186 -1.9133
  110SAPE   C2711389   0.897   4.059   3.269 -0.4865  0.5882  0.0987
  110SAPE   H7R11390   0.988   4.023   3.216 -0.9406 -0.6523  0.1436
  110SAPE   H7S11391   0.822   3.989   3.226  1.9887 -2.7234  0.7786
  110SAPE   C2811392   0.921   4.023   3.409 -0.4562  0.1525  0.4590
  110SAPE   H8R11393   0.972   4.093   3.477  0.0275 -2.2184  2.7360
  110SAPE   C2911394   0.900   3.896   3.454 -1.2900 -0.1682 -0.6153
  110SAPE   H9R11395   0.930   3.872   3.557 -1.3702 -2.2071 -1.0188
  110SAPE  C21011396   0.849   3.769   3.389  0.0474  0.0046 -0.1668
  110SAPE  H10R11397   0.816   3.805   3.289 -3.1910 -0.4167  0.6360
  110SAPE  H10S11398   0.756   3.745   3.446 -0.9592  1.7706 -0.9639
  110SAPE  C21111399   0.940   3.649   3.385  0.2944  0.0355 -0.1179
  110SAPE  H11R11400   1.023   3.668   3.315 -1.0638  1.2133 -1.4667
  110SAPE  C21211401   0.948   3.539   3.467 -1.1432 -0.8253 -0.2944
  110SAPE  H12R11402   1.021   3.463   3.437 -1.8178 -1.0874 -1.3220
  110SAPE  C21311403   0.851   3.511   3.574  0.3314 -0.0906  0.1036
  110SAPE  H13R11404   0.758   3.460   3.539 -1.3502  0.9379  2.7424
  110SAPE  H13S11405   0.808   3.603   3.619 -0.7785 -0.0201 -1.0459
  110SAPE  C21411406   0.905   3.425   3.688 -0.7143  0.4545  1.1947
  110SAPE  H14R11407   0.946   3.325   3.665  0.4300  0.8360  1.4913
  110SAPE  C21511408   0.937   3.475   3.809 -1.0839  0.5437  0.7302
  110SAPE  H15R11409   0.968   3.409   3.892  3.1751 -1.5908 -2.1690
  110SAPE  C21611410   0.899   3.610   3.848 -0.1199 -0.2490 -0.2906
  110SAPE  H16R11411   0.789   3.608   3.837  0.0474 -1.7964 -2.5548
  110SAPE  H16S11412   0.943   3.687   3.781  0.8287  0.2631  0.8898
  110SAPE  C21711413   0.924   3.634   3.993 -0.2849  0.1161 -0.2278
  110SAPE  H17R11414   0.874   3.557   4.055  0.6990  0.6259  1.2466
  110SAPE  H17S11415   0.884   3.733   4.023 -0.3139 -0.5677  2.1922
  110SAPE  C21811416   1.075   3.632   4.027  0.6535  0.4956 -0.1098
  110SAPE  H18R11417   1.128   3.706   3.963 -0.2177  1.0889 -0.1702
  110SAPE  H18S11418   1.116   3.531   4.005  0.3557 -0.1663  2.1319
  110SAPE  C21911419   1.107   3.667   4.174 -0.2912 -0.1056  0.0100
  110SAPE  H19R11420   1.089   3.774   4.197  4.6863  1.1105 -0.5929
  110SAPE  H19S11421   1.217   3.666   4.188 -0.2941  0.1474  0.0578
  110SAPE  C22011422   1.036   3.584   4.280 -0.7755  0.5237  0.8374
  110SAPE  H20R11423   0.927   3.602   4.281 -1.0743 -0.5163 -2.1262
  110SAPE  H20S11424   1.082   3.611   4.377  0.0691  1.9960  0.0675
  110SAPE  H20T11425   1.057   3.480   4.247  0.9217  1.0349  0.1912
  110SAPE   C3311426   0.939   3.688   3.011  0.6369 -0.2008  0.4422
  110SAPE   H3X11427   0.885   3.759   2.943  1.5337  0.2223  0.1536
  110SAPE   H3Y11428   0.918   3.737   3.108  1.6709  1.5581 -0.1661
  110SAPE   C3411429   0.888   3.547   3.011  0.7167  0.7642 -0.0294
  110SAPE   H4X11430   0.939   3.485   3.088 -1.3393  0.0162  0.8021
  110SAPE   H4Y11431   0.892   3.495   2.914 -1.6265 -3.3432  1.7971
  110SAPE   C3511432   0.741   3.553   3.057  0.2245 -0.1456  0.3178
  110SAPE   H5X11433   0.684   3.634   3.006  0.1502 -1.8541 -2.5425
  110SAPE   H5Y11434   0.729   3.577   3.165 -0.5352  0.2198  0.1638
  110SAPE   C3611435   0.668   3.417   3.040 -0.4374 -0.2495 -0.3135
  110SAPE   H6X11436   0.732   3.346   3.095  0.2650  0.7160  0.1463
  110SAPE   H6Y11437   0.662   3.388   2.933  1.1452  0.5642 -0.6488
  110SAPE   C3711438   0.526   3.438   3.092  0.2238 -0.7989 -0.1484
  110SAPE   H7X11439   0.465   3.362   3.038  1.5661 -0.8484 -1.6624
  110SAPE   H7Y11440   0.486   3.531   3.048 -1.9115 -1.4186  0.3521
  110SAPE   C3811441   0.503   3.428   3.244  0.4392 -1.3403  0.0903
  110SAPE   H8X11442   0.563   3.506   3.296 -0.4278  1.7766 -3.1948
  110SAPE   H8Y11443   0.535   3.330   3.286  1.2671  0.0624  2.9844
  110SAPE   C3911444   0.352   3.451   3.292 -0.1562 -0.7061  0.3282
  110SAPE   H9X11445   0.283   3.419   3.212  0.4258  1.6460 -1.2191
  110SAPE   H9Y11446   0.348   3.561   3.309 -0.5072 -0.3361 -1.9157
  110SAPE  C31011447   0.315   3.380   3.428 -0.8420 -0.2001  0.0171
  110SAPE  H10X11448   0.331   3.271   3.411  0.0724 -0.3434  1.5430
  110SAPE  H10Y11449   0.212   3.413   3.451 -0.0935  0.4906  2.8303
  110SAPE  C31111450   0.394   3.444   3.545  0.0094  1.0524  0.1033
  110SAPE  H11X11451   0.373   3.554   3.549  0.2884  1.2071 -1.7977
  110SAPE  H11Y11452   0.501   3.436   3.518  0.4527  0.4715  1.8850
  110SAPE  C31211453   0.364   3.387   3.690 -0.5111  0.0539  0.4102
  110SAPE  H12X11454   0.357   3.278   3.672  0.1351  0.2652 -1.3641
  110SAPE  H12Y11455   0.258   3.417   3.706 -0.9904 -1.7078  0.6529
  110SAPE  C31311456   0.446   3.440   3.812  0.3931  0.0316  0.2172
  110SAPE  H13X11457   0.406   3.539   3.841  1.8650  1.5498 -2.5129
  110SAPE  H13Y11458   0.552   3.454   3.784  0.1992 -0.7593 -0.9761
  110SAPE  C31411459   0.450   3.348   3.932  0.1386  0.5758 -1.2690
  110SAPE  H14X11460   0.464   3.242   3.901 -2.0714 -0.3762  0.7035
  110SAPE  H14Y11461   0.354   3.357   3.988 -0.1761  0.7821 -1.8358
  110SAPE  C31511462   0.562   3.396   4.027 -0.2283  0.2450 -0.2626
  110SAPE  H15X11463   0.570   3.507   4.019  0.5460  0.2219  0.1170
  110SAPE  H15Y11464   0.655   3.354   3.984 -0.5766  1.4621 -2.3577
  110SAPE  C31611465   0.539   3.367   4.175 -0.5195  0.8906 -0.4262
  110SAPE  H16X11466   0.556   3.260   4.200  0.0735  0.6849 -1.6133
  110SAPE  H16Y11467   0.436   3.384   4.211  0.0549 -0.1399  1.8550
  110SAPE  C31711468   0.622   3.468   4.269 -0.5732 -0.3358 -0.3413
  110SAPE  H17X11469   0.589   3.571   4.246 -0.5425 -0.6831 -2.0986
  110SAPE  H17Y11470   0.728   3.458   4.238  0.0327 -0.3627  1.6024
  110SAPE  C31811471   0.601   3.431   4.413  0.1405  0.0960 -0.1691
  110SAPE  H18X11472   0.651   3.333   4.429 -0.1820 -0.1754 -0.7686
  110SAPE  H18Y11473   0.493   3.414   4.434  0.1606 -0.6939 -0.6554
  110SAPE  H18Z11474   0.643   3.496   4.492  2.9103  0.2544 -1.6224
  111SAPE     N11475   0.351   1.255   2.296  0.2604  0.2380  0.0354
  111SAPE   HN111476   0.308   1.232   2.204 -0.7930 -0.2005  0.6241
  111SAPE   HN211477   0.266   1.267   2.355 -3.6541  3.6932 -5.3633
  111SAPE   HN311478   0.408   1.341   2.284 -2.3550  2.0522 -0.1586
  111SAPE   C1211479   0.440   1.147   2.344  0.4909  0.0845 -0.7745
  111SAPE  H12A11480   0.485   1.185   2.437  0.5577 -0.1360 -0.7145
  111SAPE  H12B11481   0.530   1.149   2.278  2.9002  0.9047  2.3231
  111SAPE   C1111482   0.377   1.016   2.363 -0.3387  0.2220  0.6239
  111SAPE  H11A11483   0.290   1.030   2.431  1.7314  0.2913  3.4661
  111SAPE  H11B11484   0.454   0.948   2.407 -0.1700  0.1513  0.2237
  111SAPE     P11485   0.204   0.957   2.169  0.0014 -0.0365  0.4024
  111SAPE   O1311486   0.127   1.078   2.194 -0.1340 -0.9064  0.1076
  111SAPE   O1411487   0.209   0.927   2.026 -0.5287  0.3619 -0.5023
  111SAPE   O1211488   0.344   0.958   2.236  0.1714 -0.3183 -0.7241
  111SAPE   O1111489   0.135   0.839   2.238 -0.3329  0.2119  0.2778
  111SAPE    C111490   0.196   0.720   2.294  0.6133 -0.9995 -0.2211
  111SAPE    HA11491   0.167   0.630   2.236  0.2994 -2.6557  2.3617
  111SAPE    HB11492   0.307   0.722   2.295  0.6151  0.9097 -0.3150
  111SAPE    C211493   0.143   0.681   2.443 -0.3825 -0.1554  0.3794
  111SAPE    HS11494   0.042   0.634   2.436 -0.5773  0.1159  1.2887
  111SAPE   O2111495   0.148   0.799   2.522 -0.7125  0.5759  0.2276
  111SAPE   C2111496   0.038   0.860   2.551 -0.2234 -0.0730  0.3429
  111SAPE   O2211497  -0.069   0.824   2.510  0.0487 -0.7746 -0.1775
  111SAPE   C2211498   0.070   0.970   2.650 -0.3752  0.8950 -0.1829
  111SAPE   H2R11499   0.106   0.910   2.736  1.6024 -1.3037 -2.3756
  111SAPE   H2S11500   0.151   1.027   2.599 -0.1961  1.2156  0.4444
  111SAPE    C311501   0.229   0.563   2.493 -0.1112 -0.7693 -0.2672
  111SAPE    HX11502   0.333   0.603   2.496 -0.9055  1.4666 -1.0976
  111SAPE    HY11503   0.229   0.475   2.425 -0.2483 -1.0736  0.1168
  111SAPE   O3111504   0.199   0.525   2.632  0.7338  0.4637  0.3252
  111SAPE   C3111505   0.088   0.457   2.658 -0.4084  0.2399 -0.2625
  111SAPE   O3211506   0.013   0.410   2.574  0.3048  0.0697  0.5445
  111SAPE   C3211507   0.079   0.451   2.811  0.4497 -0.0880 -0.4700
  111SAPE   H2X11508   0.166   0.509   2.850  0.3366  0.3014 -0.7955
  111SAPE   H2Y11509   0.091   0.344   2.839 -0.4838  0.1616  1.0073
  111SAPE   C2311510  -0.050   1.062   2.671 -0.6960  0.1319  0.6384
  111SAPE   H3R11511  -0.124   1.001   2.727  1.2296 -3.6309 -0.5588
  111SAPE   H3S11512  -0.101   1.097   2.579 -3.2545 -0.1707  1.8654
  111SAPE   C2411513  -0.009   1.180   2.753 -0.0973 -0.2568  0.0679
  111SAPE   H4R11514   0.075   1.232   2.701  1.9066 -2.2066  1.1462
  111SAPE   H4S11515   0.028   1.145   2.852 -2.4437 -1.7930  0.4645
  111SAPE   C2511516  -0.130   1.267   2.771  0.9157 -0.6609  0.4060
  111SAPE   H5R11517  -0.152   1.342   2.694 -1.9341 -1.0055  0.7792
  111SAPE   C2611518  -0.200   1.277   2.885 -0.3419 -0.1429 -0.2254
  111SAPE   H6R11519  -0.286   1.345   2.896  0.7255  1.4403 -1.1135
  111SAPE   C2711520  -0.190   1.194   3.007  0.2506  0.0913  0.6525
  111SAPE   H7R11521  -0.084   1.179   3.038  0.6058 -1.1488 -1.0685
  111SAPE   H7S11522  -0.231   1.092   2.993  1.6339 -0.6984  2.0939
  111SAPE   C2811523  -0.260   1.245   3.130 -0.4033  0.4473  0.5003
  111SAPE   H8R11524  -0.298   1.348   3.117  0.8987  0.7385 -1.3385
  111SAPE   C2911525  -0.273   1.187   3.251  0.6841  0.2308  0.7031
  111SAPE   H9R11526  -0.325   1.246   3.328 -0.0626 -1.3117  1.4096
  111SAPE  C21011527  -0.210   1.056   3.292  0.1491  0.0462  0.0074
  111SAPE  H10R11528  -0.107   1.070   3.331  0.5897 -3.6504  0.5110
  111SAPE  H10S11529  -0.206   0.983   3.209  2.2542 -0.1498  0.2245
  111SAPE  C21111530  -0.284   0.990   3.413 -0.2840  0.3090  0.0601
  111SAPE  H11R11531  -0.389   0.965   3.389  0.2334 -4.6859  1.8852
  111SAPE  C21211532  -0.237   0.984   3.544 -0.4497 -0.4738  0.5052
  111SAPE  H12R11533  -0.299   0.934   3.620 -3.3869  1.0395 -0.7097
  111SAPE  C21311534  -0.096   1.026   3.578  0.2480 -1.1646  0.5268
  111SAPE  H13R11535  -0.025   0.991   3.499 -1.3167 -0.2863 -1.3515
  111SAPE  H13S11536  -0.062   0.966   3.665  2.5015  0.4705  0.8698
  111SAPE  C21411537  -0.071   1.178   3.610 -0.0526  0.6230 -0.2303
  111SAPE  H14R11538  -0.053   1.241   3.522 -1.4680 -1.1253 -1.8817
  111SAPE  C21511539  -0.099   1.242   3.724  0.3259  0.5671 -0.1907
  111SAPE  H15R11540  -0.073   1.349   3.722 -1.5888  1.0586 -1.8420
  111SAPE  C21611541  -0.146   1.174   3.853  0.2855 -0.4267 -0.4730
  111SAPE  H16R11542  -0.067   1.109   3.897 -0.0568 -0.1303  0.6268
  111SAPE  H16S11543  -0.230   1.104   3.833 -0.6475  0.2747  0.8429
  111SAPE  C21711544  -0.197   1.274   3.963 -0.0900 -0.5324 -0.5895
  111SAPE  H17R11545  -0.256   1.356   3.916  3.9248  2.0250 -1.6453
  111SAPE  H17S11546  -0.108   1.331   3.999 -1.2608  1.4898 -0.7568
  111SAPE  C21811547  -0.267   1.210   4.085 -0.2919 -0.8124 -0.3315
  111SAPE  H18R11548  -0.184   1.150   4.129  1.8142  0.5766 -2.1404
  111SAPE  H18S11549  -0.343   1.142   4.040 -2.0286 -0.0589  1.3490
  111SAPE  C21911550  -0.305   1.298   4.202  0.5042  0.8678  0.4010
  111SAPE  H19R11551  -0.390   1.367   4.188  0.7432  1.1526  0.3557
  111SAPE  H19S11552  -0.223   1.366   4.235 -0.1912  2.2011 -0.5600
  111SAPE  C22011553  -0.341   1.208   4.330  0.3315  0.1383  0.5311
  111SAPE  H20R11554  -0.285   1.243   4.419 -0.6146  4.3791 -0.3560
  111SAPE  H20S11555  -0.306   1.104   4.309  0.4740  0.0143  1.3391
  111SAPE  H20T11556  -0.446   1.199   4.366  0.2530 -2.2989 -0.1001
  111SAPE   C3311557  -0.058   0.492   2.871 -0.3418 -0.6265 -0.9346
  111SAPE   H3X11558  -0.068   0.438   2.967  1.3577  0.0793 -0.3314
  111SAPE   H3Y11559  -0.137   0.439   2.813 -0.6368 -0.9381 -0.2495
  111SAPE   C3411560  -0.084   0.643   2.897 -0.1649  0.4849 -0.4173
  111SAPE   H4X11561  -0.185   0.658   2.942  0.1979  2.5289 -0.2172
  111SAPE   H4Y11562  -0.093   0.695   2.800 -2.7933 -0.9727 -1.0360
  111SAPE   C3511563   0.024   0.711   2.984 -0.7778  0.2156 -0.3344
  111SAPE   H5X11564  -0.003   0.817   3.004 -0.8099  0.0577  0.4746
  111SAPE   H5Y11565   0.117   0.710   2.924  1.0988  1.3679  2.3368
  111SAPE   C3611566   0.048   0.638   3.115 -0.1601 -0.3462  0.3453
  111SAPE   H6X11567   0.140   0.677   3.165 -1.0785  0.3240  1.5698
  111SAPE   H6Y11568   0.072   0.534   3.084  3.5082  0.2265  0.7720
  111SAPE   C3711569  -0.065   0.645   3.218 -0.0582 -0.2444  0.3025
  111SAPE   H7X11570  -0.155   0.591   3.182  1.3087 -3.2668  1.0754
  111SAPE   H7Y11571  -0.082   0.749   3.251  0.8253 -0.5763  1.9471
  111SAPE   C3811572  -0.038   0.578   3.359  0.0444  0.1211  0.4619
  111SAPE   H8X11573   0.060   0.621   3.386  0.1841  0.0698  0.0458
  111SAPE   H8Y11574  -0.020   0.471   3.336  1.7455  0.0985  1.7114
  111SAPE   C3911575  -0.144   0.595   3.461 -0.5949  0.2335  0.0414
  111SAPE   H9X11576  -0.238   0.542   3.437 -1.0939  1.1804 -0.1143
  111SAPE   H9Y11577  -0.165   0.702   3.481 -1.1507  0.1437 -0.0696
  111SAPE  C31011578  -0.092   0.536   3.598  0.1048 -0.0426 -0.6309
  111SAPE  H10X11579   0.013   0.566   3.621 -0.6097  2.0707  0.0799
  111SAPE  H10Y11580  -0.093   0.425   3.605  1.6544  0.0150  1.4961
  111SAPE  C31111581  -0.178   0.585   3.718 -0.2352 -0.7443 -0.4462
  111SAPE  H11X11582  -0.282   0.557   3.689  0.3530 -2.7133 -0.8339
  111SAPE  H11Y11583  -0.177   0.696   3.724 -0.8792 -0.7869  0.8581
  111SAPE  C31211584  -0.146   0.527   3.856 -0.1880  0.5969 -0.0940
  111SAPE  H12X11585  -0.059   0.583   3.896 -0.1591  1.2513 -1.0415
  111SAPE  H12Y11586  -0.114   0.420   3.860 -1.8792  0.0704  0.2528
  111SAPE  C31311587  -0.258   0.526   3.958  0.0161 -0.3069  0.1109
  111SAPE  H13X11588  -0.221   0.466   4.044  0.3022  0.1336  0.2966
  111SAPE  H13Y11589  -0.348   0.474   3.919 -0.4031 -0.8677  1.7148
  111SAPE  C31411590  -0.303   0.666   3.996  0.5049  0.2957 -0.4729
  111SAPE  H14X11591  -0.383   0.666   4.073  1.1575 -1.9749  0.3044
  111SAPE  H14Y11592  -0.354   0.696   3.902 -0.3365 -1.3326 -0.5748
  111SAPE  C31511593  -0.205   0.775   4.027 -0.4095 -0.1184 -0.3263
  111SAPE  H15X11594  -0.248   0.874   4.055  3.3600  1.5611  0.2299
  111SAPE  H15Y11595  -0.147   0.796   3.935 -1.6114  0.9343 -0.8851
  111SAPE  C31611596  -0.114   0.739   4.147  0.3195 -0.5967  0.0952
  111SAPE  H16X11597  -0.057   0.645   4.126  1.5524 -0.3850  2.2222
  111SAPE  H16Y11598  -0.181   0.726   4.234  1.0467  1.9513  1.1162
  111SAPE  C31711599  -0.016   0.854   4.170 -0.1925 -0.1531  0.2657
  111SAPE  H17X11600  -0.076   0.946   4.190  0.2639 -0.1204  1.5683
  111SAPE  H17Y11601   0.040   0.880   4.077  0.3622  1.1708  0.9448
  111SAPE  C31811602   0.074   0.833   4.292  0.4011 -0.1845 -0.9337
  111SAPE  H18X11603   0.015   0.782   4.372  0.6342  2.4682  1.0446
  111SAPE  H18Y11604   0.121   0.927   4.327 -1.2419 -0.4030  2.2666
  111SAPE  H18Z11605   0.154   0.768   4.250 -1.0703 -3.9286  1.4842
  112SAPE     N11606   4.329   6.756   2.097 -0.6117  0.2479  0.7096
  112SAPE   HN111607   4.226   6.758   2.081 -0.1051  0.1710 -3.6639
  112SAPE   HN211608   4.376   6.814   2.025  0.3718  1.2051  2.0433
  112SAPE   HN311609   4.350   6.659   2.066  1.6262 -0.2227  3.2535
  112SAPE   C1211610   4.368   6.795   2.237  0.6224  0.2612 -0.3019
  112SAPE  H12A11611   4.303   6.739   2.308 -1.0083  1.4396 -0.7857
  112SAPE  H12B11612   4.326   6.897   2.247 -0.2419 -0.3164  2.9875
  112SAPE   C1111613   4.514   6.790   2.272 -0.4976 -0.2731  0.4402
  112SAPE  H11A11614   4.548   6.685   2.256  0.1752  0.2837 -2.1863
  112SAPE  H11B11615   4.537   6.804   2.380 -1.2230 -0.3080  0.6082
  112SAPE     P11616   4.644   7.017   2.203  0.1979 -0.0200  0.1111
  112SAPE   O1311617   4.750   7.032   2.100  0.8968  0.3598 -0.4424
  112SAPE   O1411618   4.536   7.121   2.214  0.1920 -0.9924 -0.4002
  112SAPE   O1211619   4.585   6.877   2.180  0.2248  0.5505  0.6211
  112SAPE   O1111620   4.723   7.007   2.348  0.1604 -0.2491 -0.6598
  112SAPE    C111621   4.850   6.950   2.340 -0.1495  0.6031 -0.1972
  112SAPE    HA11622   4.845   6.845   2.302  0.8262 -0.1045  1.5230
  112SAPE    HB11623   4.919   6.997   2.268 -1.1092  0.3800 -1.2970
  112SAPE    C211624   4.920   6.946   2.479  0.2626 -0.1653 -0.4077
  112SAPE    HS11625   5.001   6.871   2.478 -0.4752 -0.9807  0.1339
  112SAPE   O2111626   4.841   6.929   2.595  0.2284  0.4043 -0.0185
  112SAPE   C2111627   4.762   6.826   2.585 -0.4553 -0.1496 -0.5250
  112SAPE   O2211628   4.762   6.738   2.503 -0.5566  0.2185  0.5693
  112SAPE   C2211629   4.673   6.824   2.706  0.4165  0.2497 -0.4828
  112SAPE   H2R11630   4.578   6.878   2.684 -0.2394 -0.5535  0.2788
  112SAPE   H2S11631   4.655   6.716   2.726 -1.6125  0.5277 -0.5874
  112SAPE    C311632   4.994   7.083   2.492  0.0354 -0.3712 -0.1685
  112SAPE    HX11633   4.916   7.161   2.492  0.5693  0.2044  1.2975
  112SAPE    HY11634   5.065   7.089   2.407  0.0741 -0.9736 -0.1802
  112SAPE   O3111635   5.057   7.083   2.620 -0.2131  0.1123  0.9255
  112SAPE   C3111636   5.098   7.212   2.649  0.5423  0.5377  0.3067
  112SAPE   O3211637   5.096   7.304   2.569 -0.7869 -0.2232 -0.0098
  112SAPE   C3211638   5.140   7.224   2.790 -0.2729 -0.2703 -0.1623
  112SAPE   H2X11639   5.151   7.331   2.817 -3.3294 -0.1784  1.0995
  112SAPE   H2Y11640   5.238   7.177   2.812  0.0180  0.9611  1.2973
  112SAPE   C2311641   4.741   6.897   2.828  0.0200  0.0909 -0.6226
  112SAPE   H3R11642   4.771   7.003   2.809  1.0276 -0.3670 -1.7209
  112SAPE   H3S11643   4.841   6.854   2.853 -0.1480  1.1371  2.3491
  112SAPE   C2411644   4.662   6.890   2.959 -0.3594  0.6992  0.2374
  112SAPE   H4R11645   4.721   6.863   3.050 -1.0394  0.2531  0.5537
  112SAPE   H4S11646   4.604   6.796   2.963 -1.1924  1.1875 -0.1606
  112SAPE   C2511647   4.575   7.011   2.986  0.1345 -0.0844  0.4322
  112SAPE   H5R11648   4.531   7.057   2.896 -1.9506 -2.3463  0.2019
  112SAPE   C2611649   4.547   7.062   3.106 -0.3676 -0.7278  0.2475
  112SAPE   H6R11650   4.495   7.159   3.114 -0.6736 -0.5058 -3.1510
  112SAPE   C2711651   4.595   7.003   3.238 -0.2629 -0.4499  0.7460
  112SAPE   H7R11652   4.705   6.991   3.238  0.1912  2.7680  0.5033
  112SAPE   H7S11653   4.546   6.905   3.258 -0.0430 -0.9845 -1.1247
  112SAPE   C2811654   4.556   7.103   3.347 -0.6265 -0.2387  0.4359
  112SAPE   H8R11655   4.555   7.210   3.324  0.6895 -0.2706  0.1781
  112SAPE   C2911656   4.532   7.069   3.473 -0.4740 -0.6676  0.1195
  112SAPE   H9R11657   4.491   7.136   3.550 -0.2056 -0.1344 -0.1944
  112SAPE  C21011658   4.540   6.926   3.524  0.1820 -0.8481  0.1278
  112SAPE  H10R11659   4.605   6.862   3.461 -0.5357 -0.3167 -1.2153
  112SAPE  H10S11660   4.438   6.883   3.515 -0.3615 -0.1661  2.3736
  112SAPE  C21111661   4.579   6.919   3.667  0.3592  0.3811 -0.2889
  112SAPE  H11R11662   4.654   6.994   3.698  0.7134 -0.2409  0.3960
  112SAPE  C21211663   4.523   6.836   3.763  0.1768  0.2320  0.4206
  112SAPE  H12R11664   4.554   6.835   3.869 -0.0689  1.0816  0.5126
  112SAPE  C21311665   4.408   6.738   3.745 -0.1942  0.6789  0.1063
  112SAPE  H13R11666   4.444   6.638   3.776 -0.5833  0.4433 -0.1810
  112SAPE  H13S11667   4.374   6.715   3.642 -0.8921  0.9652  0.2664
  112SAPE  C21411668   4.283   6.776   3.823  0.5229 -0.2636  0.1077
  112SAPE  H14R11669   4.219   6.849   3.772  0.3053 -0.6838 -0.2324
  112SAPE  C21511670   4.240   6.720   3.942  0.2850 -0.5718  0.0523
  112SAPE  H15R11671   4.140   6.743   3.983  0.7977  0.6226  0.6614
  112SAPE  C21611672   4.306   6.604   4.014 -0.2617  0.0505  0.4355
  112SAPE  H16R11673   4.263   6.603   4.116  1.3039  1.2759  1.1644
  112SAPE  H16S11674   4.413   6.630   4.032  0.0289  0.2220 -1.2971
  112SAPE  C21711675   4.264   6.476   3.938  0.9936  0.1233 -0.6267
  112SAPE  H17R11676   4.305   6.481   3.834 -1.8239 -2.1398 -1.9803
  112SAPE  H17S11677   4.154   6.478   3.928  0.9799  0.6651 -0.4331
  112SAPE  C21811678   4.296   6.342   4.009  0.1561 -0.1065 -0.0557
  112SAPE  H18R11679   4.289   6.356   4.119  0.2926 -0.1553 -0.0403
  112SAPE  H18S11680   4.400   6.306   3.994 -0.5548 -1.6221 -1.6673
  112SAPE  C21911681   4.200   6.240   3.967  0.4560 -0.7241  1.0117
  112SAPE  H19R11682   4.096   6.272   3.985  0.0985 -1.2517 -0.0352
  112SAPE  H19S11683   4.221   6.149   4.028  2.1474 -0.1377  1.3501
  112SAPE  C22011684   4.208   6.195   3.819  0.8940  0.8069 -0.8558
  112SAPE  H20R11685   4.148   6.103   3.802  1.4116 -0.1442  1.8959
  112SAPE  H20S11686   4.312   6.179   3.783  1.8831  0.2524  2.0142
  112SAPE  H20T11687   4.160   6.277   3.760  2.3088  1.7019 -0.8044
  112SAPE   C3311688   5.048   7.155   2.886  0.3636 -0.5420  0.8200
  112SAPE   H3X11689   5.047   7.048   2.856  3.7467 -0.3443 -0.4667
  112SAPE   H3Y11690   4.943   7.184   2.867  0.1650 -0.2711  2.2470
  112SAPE   C3411691   5.092   7.182   3.028 -0.1734 -0.2297  1.0190
  112SAPE   H4X11692   5.009   7.137   3.087  1.3511 -3.0716  1.2047
  112SAPE   H4Y11693   5.098   7.290   3.053 -0.3251  0.4828 -1.6872
  112SAPE   C3511694   5.210   7.100   3.068 -0.0695 -0.9156 -0.6932
  112SAPE   H5X11695   5.304   7.133   3.020 -1.0470  1.0117 -1.3596
  112SAPE   H5Y11696   5.193   6.993   3.044 -2.4668 -0.8299  0.3356
  112SAPE   C3611697   5.237   7.117   3.212 -0.5410  0.1141  0.1595
  112SAPE   H6X11698   5.263   7.017   3.254 -0.4836  0.4791  1.0216
  112SAPE   H6Y11699   5.153   7.152   3.277  1.0352  3.5109  0.5853
  112SAPE   C3711700   5.349   7.216   3.241  0.4165  0.3468  0.2712
  112SAPE   H7X11701   5.311   7.318   3.262  1.2894  0.5305  1.0359
  112SAPE   H7Y11702   5.411   7.228   3.150  0.6497  0.9195  0.5019
  112SAPE   C3811703   5.456   7.169   3.352  0.3916  0.3018 -0.2444
  112SAPE   H8X11704   5.549   7.223   3.325  1.4233 -1.4924 -0.4788
  112SAPE   H8Y11705   5.462   7.058   3.352 -0.3027  0.2649 -0.3629
  112SAPE   C3911706   5.404   7.217   3.491  1.0488  0.3693 -0.6023
  112SAPE   H9X11707   5.311   7.162   3.518  1.9668  0.0915  2.3792
  112SAPE   H9Y11708   5.398   7.328   3.494  2.0775  0.4194 -0.1770
  112SAPE  C31011709   5.504   7.182   3.598  0.1097  0.7526 -1.3468
  112SAPE  H10X11710   5.586   7.257   3.595 -0.2878  1.5981  2.6701
  112SAPE  H10Y11711   5.544   7.079   3.585  2.2798  1.1278  1.3224
  112SAPE  C31111712   5.438   7.188   3.735 -0.6420  0.2349 -0.3385
  112SAPE  H11X11713   5.350   7.121   3.743 -0.9586  0.7407  0.6103
  112SAPE  H11Y11714   5.413   7.293   3.761  0.4625 -0.0663  2.3774
  112SAPE  C31211715   5.529   7.147   3.855 -0.2483 -0.3924  0.0360
  112SAPE  H12X11716   5.482   7.183   3.948 -0.4638 -0.0889 -0.1878
  112SAPE  H12Y11717   5.634   7.184   3.856 -0.1741 -0.5523 -0.7277
  112SAPE  C31311718   5.525   6.994   3.877  0.0768  0.1655  0.6499
  112SAPE  H13X11719   5.551   6.939   3.784  0.3851  1.1880  0.1129
  112SAPE  H13Y11720   5.417   6.970   3.886  0.2492 -0.7841  0.3436
  112SAPE  C31411721   5.587   6.957   4.008  0.1843  0.6464  0.5799
  112SAPE  H14X11722   5.506   6.906   4.065  0.3701  1.8986  2.0283
  112SAPE  H14Y11723   5.618   7.045   4.068 -0.8260  1.6920 -0.3895
  112SAPE  C31511724   5.714   6.860   3.994  0.3229 -0.6510 -0.8471
  112SAPE  H15X11725   5.692   6.760   3.950  2.0839 -1.0091 -0.9845
  112SAPE  H15Y11726   5.744   6.848   4.100  0.6737  0.3316 -0.8275
  112SAPE  C31611727   5.833   6.918   3.930 -0.4863  0.2833  0.5379
  112SAPE  H16X11728   5.861   7.019   3.966  3.0312  0.3061 -1.7186
  112SAPE  H16Y11729   5.811   6.926   3.821  1.2011 -1.6308 -0.0112
  112SAPE  C31711730   5.952   6.826   3.962 -0.4455 -0.6889 -0.0759
  112SAPE  H17X11731   5.923   6.722   3.934 -1.8683  0.6255 -4.3141
  112SAPE  H17Y11732   5.982   6.834   4.069 -1.2332  1.1838  0.0381
  112SAPE  C31811733   6.071   6.869   3.869 -1.2239  0.0251 -0.3697
  112SAPE  H18X11734   6.073   6.820   3.770  0.5493  0.5133 -0.6068
  112SAPE  H18Y11735   6.163   6.853   3.929 -2.4340  0.9714  1.8579
  112SAPE  H18Z11736   6.067   6.980   3.856  0.0642  0.1833  0.3921
  113SAPE     N11737   6.002   5.022   2.219 -0.6087 -0.0553  0.1122
  113SAPE   HN111738   6.042   5.041   2.125 -0.8697 -0.3838 -0.0654
  113SAPE   HN211739   6.063   4.952   2.267 -1.0414 -0.7560 -0.3416
  113SAPE   HN311740   5.910   4.977   2.201 -1.5934  1.4706  1.1064
  113SAPE   C1211741   5.976   5.146   2.299 -0.3715  0.3190 -0.9565
  113SAPE  H12A11742   5.930   5.208   2.219 -0.3669 -1.5940 -2.5041
  113SAPE  H12B11743   6.073   5.190   2.331 -1.1213  2.2979 -1.2400
  113SAPE   C1111744   5.896   5.117   2.424  0.5412 -0.2956  0.0033
  113SAPE  H11A11745   5.902   5.201   2.496 -1.8492 -0.2329  0.2015
  113SAPE  H11B11746   5.952   5.031   2.465  3.9445 -0.6335 -4.5298
  113SAPE     P11747   5.642   5.170   2.359  0.0447  0.0186  0.2624
  113SAPE   O1311748   5.677   5.246   2.238  0.3985  0.2803  0.4225
  113SAPE   O1411749   5.513   5.100   2.370 -0.2772 -0.0197  0.1622
  113SAPE   O1211750   5.760   5.064   2.395 -0.1824 -0.2255 -0.4421
  113SAPE   O1111751   5.655   5.270   2.478 -0.0182  0.3640 -0.1500
  113SAPE    C111752   5.542   5.276   2.569 -0.2587 -1.2077  0.1879
  113SAPE    HA11753   5.557   5.367   2.632  1.6938 -1.0669 -0.4117
  113SAPE    HB11754   5.443   5.303   2.528  0.3831  2.5903  0.7306
  113SAPE    C211755   5.537   5.166   2.670  0.1607  0.2623 -0.1543
  113SAPE    HS11756   5.512   5.072   2.617 -1.2097 -0.2573  1.3346
  113SAPE   O2111757   5.441   5.186   2.776  0.0813  0.1976 -0.1938
  113SAPE   C2111758   5.314   5.159   2.760  1.0657 -0.2971  0.4295
  113SAPE   O2211759   5.264   5.143   2.648 -0.5124  0.3330 -0.0664
  113SAPE   C2211760   5.240   5.165   2.903  0.2745  0.1770 -0.2277
  113SAPE   H2R11761   5.324   5.195   2.970  0.5530 -1.0188 -0.0120
  113SAPE   H2S11762   5.163   5.245   2.908  1.8798  1.7344  0.6230
  113SAPE    C311763   5.676   5.137   2.735  0.3763 -0.0893  0.4721
  113SAPE    HX11764   5.720   5.230   2.775  1.2097 -0.4231  0.3493
  113SAPE    HY11765   5.742   5.112   2.650 -0.6157 -0.8727 -0.0998
  113SAPE   O3111766   5.676   5.029   2.820 -0.0132 -0.4386 -0.2574
  113SAPE   C3111767   5.672   5.048   2.951 -0.3032 -0.0165 -0.7314
  113SAPE   O3211768   5.663   5.150   3.014  0.7293 -0.2006 -0.2927
  113SAPE   C3211769   5.672   4.910   3.007 -0.2140 -0.2967 -0.3061
  113SAPE   H2X11770   5.769   4.857   2.991  0.7087  1.0482  0.6487
  113SAPE   H2Y11771   5.606   4.839   2.952 -1.6210 -0.7568  1.8693
  113SAPE   C2311772   5.199   5.022   2.941  0.1977  0.0109 -0.3326
  113SAPE   H3R11773   5.276   4.949   2.908  1.1525  0.4844  0.7670
  113SAPE   H3S11774   5.099   4.988   2.905 -0.2227  1.1415 -0.2872
  113SAPE   C2411775   5.189   5.009   3.091 -0.0709  0.0854 -0.5089
  113SAPE   H4R11776   5.292   5.025   3.128  0.0208 -0.7718 -0.3714
  113SAPE   H4S11777   5.158   4.904   3.112 -0.3655  0.7710  3.0475
  113SAPE   C2511778   5.087   5.100   3.150  0.8061 -0.3035 -0.4276
  113SAPE   H5R11779   5.000   5.119   3.085  1.9688  2.1326 -1.4392
  113SAPE   C2611780   5.109   5.186   3.253 -0.6733 -0.3617  0.2288
  113SAPE   H6R11781   5.033   5.265   3.261 -1.5887 -1.0907 -0.9007
  113SAPE   C2711782   5.226   5.193   3.347  0.4674  0.4809  0.0660
  113SAPE   H7R11783   5.291   5.278   3.317 -3.4814  2.5820 -3.8095
  113SAPE   H7S11784   5.284   5.099   3.341 -1.6713 -1.0472  1.7060
  113SAPE   C2811785   5.176   5.223   3.486  0.5838  0.1188  0.0096
  113SAPE   H8R11786   5.082   5.278   3.500 -0.0272 -1.0465  0.7113
  113SAPE   C2911787   5.223   5.185   3.600 -0.1164 -0.0670 -0.4234
  113SAPE   H9R11788   5.164   5.211   3.689 -2.5831  0.7739 -2.1819
  113SAPE  C21011789   5.333   5.078   3.613 -0.2594 -0.7071 -0.3872
  113SAPE  H10R11790   5.427   5.121   3.572 -0.8885  1.2906  0.1510
  113SAPE  H10S11791   5.303   4.997   3.543 -1.9810 -1.9083  1.6318
  113SAPE  C21111792   5.367   5.027   3.749 -0.2400  0.2090 -0.2196
  113SAPE  H11R11793   5.274   4.993   3.797  1.5940 -2.3466  1.8566
  113SAPE  C21211794   5.486   4.993   3.796 -0.3455  0.1512  0.2385
  113SAPE  H12R11795   5.492   4.940   3.892  0.2668 -0.3633 -0.0791
  113SAPE  C21311796   5.628   5.008   3.728 -0.6346  0.0601  0.2838
  113SAPE  H13R11797   5.650   5.115   3.708 -1.6112  0.0395 -1.0831
  113SAPE  H13S11798   5.623   4.952   3.632 -0.0955 -1.0688  0.8962
  113SAPE  C21411799   5.740   4.959   3.808 -0.0305  0.3063  0.4808
  113SAPE  H14R11800   5.785   4.862   3.782 -1.8893  0.0493 -2.1056
  113SAPE  C21511801   5.785   5.017   3.923 -0.3542  0.0086 -0.2835
  113SAPE  H15R11802   5.873   4.970   3.970  0.6798  1.9659 -0.1190
  113SAPE  C21611803   5.741   5.146   3.988  0.2858  0.2294  0.4704
  113SAPE  H16R11804   5.634   5.162   3.966 -0.4262 -1.5783  2.3576
  113SAPE  H16S11805   5.803   5.229   3.948 -2.3436  1.1995 -1.9126
  113SAPE  C21711806   5.773   5.138   4.139  0.3361 -0.0361  0.1436
  113SAPE  H17R11807   5.747   5.239   4.179 -0.2323 -0.6369  1.3185
  113SAPE  H17S11808   5.883   5.126   4.149  0.9588  1.9227 -2.7801
  113SAPE  C21811809   5.709   5.020   4.225 -0.0353  0.6774  0.2904
  113SAPE  H18R11810   5.727   4.920   4.180 -2.3696 -0.5283  1.8017
  113SAPE  H18S11811   5.599   5.038   4.231 -0.1245  0.0391  0.7483
  113SAPE  C21911812   5.775   5.014   4.364  0.8837  0.1090 -0.2613
  113SAPE  H19R11813   5.783   5.113   4.414  2.7595 -0.5376  0.8251
  113SAPE  H19S11814   5.882   4.984   4.357  1.1123 -1.0259  4.4654
  113SAPE  C22011815   5.707   4.907   4.455  0.1218 -0.2053  0.1666
  113SAPE  H20R11816   5.740   4.900   4.561 -1.6357 -1.7257  0.6739
  113SAPE  H20S11817   5.722   4.814   4.397  1.6266  0.5268 -0.6763
  113SAPE  H20T11818   5.599   4.932   4.455  0.0349 -0.4543  2.0633
  113SAPE   C3311819   5.618   4.902   3.151 -0.2850 -0.1953  0.5749
  113SAPE   H3X11820   5.516   4.939   3.127  0.5757  3.4345  1.9037
  113SAPE   H3Y11821   5.673   4.971   3.218  2.6303 -3.7193  2.1110
  113SAPE   C3411822   5.609   4.763   3.215 -0.5193  0.3083  0.2575
  113SAPE   H4X11823   5.711   4.726   3.193 -1.5403 -0.6225 -3.6970
  113SAPE   H4Y11824   5.530   4.703   3.165 -0.1853 -0.9741  1.2356
  113SAPE   C3511825   5.582   4.767   3.365 -0.7145  0.4982 -0.2640
  113SAPE   H5X11826   5.496   4.835   3.386 -0.2051  0.9551  0.3635
  113SAPE   H5Y11827   5.664   4.823   3.414 -0.2249 -1.5449  1.3836
  113SAPE   C3611828   5.568   4.629   3.433 -0.2554 -0.4650 -0.6525
  113SAPE   H6X11829   5.631   4.555   3.379  0.2308  0.3735 -1.2538
  113SAPE   H6Y11830   5.459   4.607   3.434 -0.9529  2.5415  0.4204
  113SAPE   C3711831   5.611   4.628   3.582  0.3719 -0.4957 -0.4520
  113SAPE   H7X11832   5.538   4.699   3.626  0.0999 -1.5643  0.8873
  113SAPE   H7Y11833   5.710   4.677   3.590  0.7185 -1.4308  1.7422
  113SAPE   C3811834   5.612   4.484   3.636 -0.0077 -0.6714  0.8949
  113SAPE   H8X11835   5.517   4.430   3.617 -0.3215  0.8598 -2.8154
  113SAPE   H8Y11836   5.685   4.426   3.576  0.3558 -0.0167  0.6976
  113SAPE   C3911837   5.676   4.478   3.775 -0.2200 -0.2848 -0.5650
  113SAPE   H9X11838   5.779   4.518   3.759 -0.7619  1.4691  0.1206
  113SAPE   H9Y11839   5.688   4.374   3.811 -1.2918  1.1985  4.8828
  113SAPE  C31011840   5.594   4.551   3.887  0.2022  0.2130 -0.3120
  113SAPE  H10X11841   5.492   4.511   3.902  0.8735 -1.8555 -0.8999
  113SAPE  H10Y11842   5.578   4.659   3.867 -0.8167 -0.1038 -1.3013
  113SAPE  C31111843   5.655   4.544   4.031  0.1856 -0.0170 -0.1095
  113SAPE  H11X11844   5.680   4.438   4.050  0.8903 -0.5148 -3.1705
  113SAPE  H11Y11845   5.576   4.566   4.106  1.2531  1.4260  0.6223
  113SAPE  C31211846   5.787   4.622   4.038  0.1348 -0.0052 -0.6122
  113SAPE  H12X11847   5.765   4.731   4.036 -0.9536 -0.1309  1.6492
  113SAPE  H12Y11848   5.868   4.582   3.972  1.0950  2.7649 -1.2521
  113SAPE  C31311849   5.834   4.609   4.188 -0.9983 -0.0314  0.4417
  113SAPE  H13X11850   5.866   4.504   4.204  2.2473  0.4203 -2.1829
  113SAPE  H13Y11851   5.749   4.626   4.257 -1.6858 -0.9490 -0.1534
  113SAPE  C31411852   5.954   4.697   4.223 -0.0284  0.5271  0.1420
  113SAPE  H14X11853   5.929   4.800   4.189  0.2502  0.8609  0.9130
  113SAPE  H14Y11854   6.045   4.670   4.166  1.3141 -0.4872  2.6287
  113SAPE  C31511855   5.993   4.689   4.370  0.9828 -0.2198  0.6243
  113SAPE  H15X11856   5.969   4.586   4.405  0.3545  0.0269  0.9282
  113SAPE  H15Y11857   5.926   4.748   4.436  2.2416  0.9192  0.9389
  113SAPE  C31611858   6.132   4.714   4.421  0.0985 -0.6990  0.5437
  113SAPE  H16X11859   6.136   4.729   4.531 -1.0631 -0.9667  0.6313
  113SAPE  H16Y11860   6.170   4.807   4.372  0.2175  0.0961  2.0965
  113SAPE  C31711861   6.242   4.605   4.383  0.2845 -0.0905 -0.3016
  113SAPE  H17X11862   6.238   4.597   4.272  1.6285  0.7585 -0.4343
  113SAPE  H17Y11863   6.199   4.515   4.433  0.0048  0.6684  0.8420
  113SAPE  C31811864   6.383   4.640   4.432 -0.2287 -0.6764  0.6898
  113SAPE  H18X11865   6.390   4.660   4.541  2.6213 -1.9046  0.8148
  113SAPE  H18Y11866   6.426   4.726   4.375  4.0336 -2.4200  0.9340
  113SAPE  H18Z11867   6.459   4.560   4.427  1.3547  0.7630  0.8403
  114SAPE     N11868   0.899   5.433   2.283 -0.1479  0.2482  0.0176
  114SAPE   HN111869   0.965   5.373   2.230 -1.8343 -0.9338 -0.8151
  114SAPE   HN211870   0.957   5.494   2.344  0.0544  0.4088 -0.3279
  114SAPE   HN311871   0.841   5.367   2.339  2.0126 -2.4907 -0.7270
  114SAPE   C1211872   0.820   5.526   2.195  0.7481  0.4086 -0.0921
  114SAPE  H12A11873   0.741   5.573   2.258 -0.0355 -1.1622  0.1649
  114SAPE  H12B11874   0.768   5.475   2.111 -1.4051  1.8943  0.2239
  114SAPE   C1111875   0.905   5.641   2.153  0.0955 -0.1430  0.3303
  114SAPE  H11A11876   1.008   5.611   2.123  0.6515  2.1961 -0.3190
  114SAPE  H11B11877   0.922   5.715   2.234 -2.1844  0.7221  0.1079
  114SAPE     P11878   0.739   5.822   2.057  0.3119  0.3226  0.0601
  114SAPE   O1311879   0.817   5.928   2.003 -0.1706 -0.7122 -0.4243
  114SAPE   O1411880   0.602   5.789   1.993 -0.8849 -0.1943 -0.1671
  114SAPE   O1211881   0.836   5.701   2.044 -0.8562 -0.5003 -0.4949
  114SAPE   O1111882   0.719   5.843   2.203  0.0163 -0.0167 -0.2546
  114SAPE    C111883   0.599   5.874   2.264  0.3245 -0.1289  0.0228
  114SAPE    HA11884   0.536   5.936   2.196  1.1129  1.2727  0.5240
  114SAPE    HB11885   0.541   5.784   2.295 -1.3797  0.6944 -0.6292
  114SAPE    C211886   0.607   5.950   2.405  0.0084 -0.2712 -0.2737
  114SAPE    HS11887   0.508   5.950   2.456 -0.3829  0.9275 -1.0011
  114SAPE   O2111888   0.646   6.087   2.385 -0.4062  0.1498  0.1692
  114SAPE   C2111889   0.590   6.174   2.467 -0.0350  0.7794  0.1219
  114SAPE   O2211890   0.482   6.160   2.520  0.0503 -0.3182 -0.2736
  114SAPE   C2211891   0.680   6.297   2.487 -0.0174  0.2546 -0.5834
  114SAPE   H2R11892   0.782   6.254   2.487 -1.2864 -3.1687  1.3965
  114SAPE   H2S11893   0.660   6.371   2.407 -2.4296 -1.5527 -1.7738
  114SAPE    C311894   0.693   5.869   2.509 -0.2636 -0.0571  0.8944
  114SAPE    HX11895   0.793   5.844   2.466 -1.0412 -0.2009 -0.9309
  114SAPE    HY11896   0.651   5.768   2.523  0.5706 -0.7038 -0.9103
  114SAPE   O3111897   0.714   5.957   2.628  0.3908  0.2269  0.5551
  114SAPE   C3111898   0.792   5.894   2.714  0.5536  0.2027 -0.2697
  114SAPE   O3211899   0.834   5.781   2.705  0.1290 -0.0749 -0.2121
  114SAPE   C3211900   0.787   5.976   2.848 -0.6491 -0.0575  0.2972
  114SAPE   H2X11901   0.684   6.016   2.851 -0.9985 -0.9775  1.4989
  114SAPE   H2Y11902   0.862   6.056   2.865 -1.7212  0.5609  2.4214
  114SAPE   C2311903   0.650   6.351   2.631  0.8032  0.4562  0.3594
  114SAPE   H3R11904   0.702   6.289   2.707  3.7038  1.2221 -0.8964
  114SAPE   H3S11905   0.540   6.357   2.649  0.3452 -1.0056 -1.5983
  114SAPE   C2411906   0.706   6.496   2.659  0.5873  0.1539  0.1019
  114SAPE   H4R11907   0.694   6.529   2.764  0.0299  1.6684 -0.4164
  114SAPE   H4S11908   0.655   6.566   2.590  1.8361  0.1605 -0.8621
  114SAPE   C2511909   0.849   6.495   2.633  0.2555  0.3614  0.5988
  114SAPE   H5R11910   0.877   6.526   2.531  1.0930  1.7558  1.2204
  114SAPE   C2611911   0.948   6.462   2.714 -0.1372  0.5218 -0.2032
  114SAPE   H6R11912   1.048   6.452   2.669  0.6752 -1.2302  1.8160
  114SAPE   C2711913   0.928   6.399   2.852 -0.4290 -0.6944  0.0978
  114SAPE   H7R11914   0.950   6.290   2.853 -0.0369 -0.6168  0.9351
  114SAPE   H7S11915   0.826   6.413   2.894 -0.1673  1.2798  0.1847
  114SAPE   C2811916   1.024   6.459   2.949 -0.1455  0.5166  0.6223
  114SAPE   H8R11917   1.086   6.542   2.913 -1.3558  1.0919 -0.2059
  114SAPE   C2911918   1.013   6.439   3.079 -0.8318 -0.2947 -0.8324
  114SAPE   H9R11919   1.091   6.484   3.141 -0.8712  0.1328 -1.0922
  114SAPE  C21011920   0.916   6.347   3.151  0.0984  0.8854 -0.4125
  114SAPE  H10R11921   0.910   6.256   3.088  2.6073 -1.8036  2.8752
  114SAPE  H10S11922   0.816   6.394   3.158 -0.4868 -0.3961  0.0768
  114SAPE  C21111923   0.973   6.301   3.283  0.4369  0.1317  0.0267
  114SAPE  H11R11924   1.059   6.233   3.270  0.2380 -0.1014 -0.0645
  114SAPE  C21211925   0.935   6.340   3.407  0.1999 -0.9785  0.3085
  114SAPE  H12R11926   0.997   6.307   3.491  1.3894 -1.6816 -0.8223
  114SAPE  C21311927   0.813   6.433   3.431 -0.2054  0.4316  0.2270
  114SAPE  H13R11928   0.820   6.522   3.365  1.7099  0.1434 -0.0096
  114SAPE  H13S11929   0.830   6.460   3.538 -1.0955  0.6017  0.3372
  114SAPE  C21411930   0.675   6.372   3.411  0.1008 -0.1354  0.2343
  114SAPE  H14R11931   0.653   6.361   3.303  0.4630  2.1537 -0.1330
  114SAPE  C21511932   0.599   6.302   3.506 -0.2569  0.6383  0.2894
  114SAPE  H15R11933   0.507   6.249   3.477  1.1180 -1.2988 -0.8021
  114SAPE  C21611934   0.619   6.291   3.655  0.7331 -0.6111 -0.0969
  114SAPE  H16R11935   0.690   6.370   3.688  1.0671 -0.3327 -1.4382
  114SAPE  H16S11936   0.649   6.187   3.682 -1.0428 -1.6383 -1.8474
  114SAPE  C21711937   0.484   6.333   3.714 -0.0809  0.5523  0.2118
  114SAPE  H17R11938   0.411   6.251   3.693  2.7685 -1.7675 -1.4919
  114SAPE  H17S11939   0.448   6.424   3.661 -1.6615 -0.4365 -0.5089
  114SAPE  C21811940   0.468   6.354   3.868 -0.7616  0.0706  0.5202
  114SAPE  H18R11941   0.521   6.446   3.899 -1.4922  0.7307 -0.1231
  114SAPE  H18S11942   0.507   6.271   3.930  0.1685  1.2724  1.5768
  114SAPE  C21911943   0.326   6.362   3.912  0.4237 -0.3800 -0.0732
  114SAPE  H19R11944   0.270   6.273   3.874 -0.2867  0.1135 -0.2056
  114SAPE  H19S11945   0.283   6.444   3.850  0.0614 -0.2287  0.3676
  114SAPE  C22011946   0.296   6.387   4.063  0.1915 -0.0697 -0.8364
  114SAPE  H20R11947   0.261   6.491   4.079 -1.1443 -0.7838  1.3407
  114SAPE  H20S11948   0.390   6.370   4.121 -0.0350 -1.6417 -0.8840
  114SAPE  H20T11949   0.230   6.308   4.106 -0.3872 -0.1311 -1.8260
  114SAPE   C3311950   0.810   5.890   2.987  0.2143  0.1897  1.2056
  114SAPE   H3X11951   0.903   5.831   2.979  0.2972  0.3513  0.9700
  114SAPE   H3Y11952   0.731   5.812   2.994  0.6851 -0.6529 -1.6181
  114SAPE   C3411953   0.798   5.965   3.122 -0.5683 -0.1973 -0.3310
  114SAPE   H4X11954   0.702   6.022   3.126 -1.0103 -0.8981 -0.6759
  114SAPE   H4Y11955   0.880   6.039   3.134  1.5651 -2.5725  0.6463
  114SAPE   C3511956   0.807   5.873   3.242  0.5155  0.2136 -0.0099
  114SAPE   H5X11957   0.909   5.829   3.243  1.6765  2.6515 -1.2675
  114SAPE   H5Y11958   0.739   5.786   3.231 -1.6614  1.5552  1.9472
  114SAPE   C3611959   0.806   5.945   3.380  0.5423 -0.2536 -0.1538
  114SAPE   H6X11960   0.713   5.997   3.411 -0.1951  0.0826 -2.7030
  114SAPE   H6Y11961   0.890   6.016   3.369 -0.1152  0.5107 -0.3018
  114SAPE   C3711962   0.848   5.856   3.499 -0.5221 -0.9978 -0.2841
  114SAPE   H7X11963   0.936   5.793   3.471  0.1734 -0.3268  0.3600
  114SAPE   H7Y11964   0.762   5.788   3.517  0.6326 -2.2832  0.6631
  114SAPE   C3811965   0.875   5.936   3.630 -0.9306 -0.2889  0.1721
  114SAPE   H8X11966   0.791   6.004   3.655 -0.8049  0.0570 -0.3362
  114SAPE   H8Y11967   0.955   6.009   3.605 -1.4426  0.1242 -0.2774
  114SAPE   C3911968   0.927   5.847   3.739  0.4534 -0.5804 -0.9963
  114SAPE   H9X11969   1.028   5.818   3.703  0.8227 -2.8071  1.5350
  114SAPE   H9Y11970   0.851   5.767   3.751  0.5743 -0.5044  0.3954
  114SAPE  C31011971   0.954   5.922   3.860 -0.1915 -0.7435 -0.6301
  114SAPE  H10X11972   0.999   6.021   3.837 -1.5157  0.2397  0.8072
  114SAPE  H10Y11973   1.026   5.875   3.930  0.3729 -1.9027 -1.9298
  114SAPE  C31111974   0.824   5.943   3.940  0.1286 -0.2436  0.4345
  114SAPE  H11X11975   0.782   5.845   3.969  0.6973 -0.3029  1.1105
  114SAPE  H11Y11976   0.739   5.985   3.883  0.4896 -0.8270 -0.5539
  114SAPE  C31211977   0.838   6.030   4.061  0.9324 -0.3601  0.2801
  114SAPE  H12X11978   0.743   6.080   4.091  0.9165 -0.4098  0.3126
  114SAPE  H12Y11979   0.906   6.114   4.035  0.2583  1.0500  2.7224
  114SAPE  C31311980   0.912   5.969   4.180 -0.1492  0.5772 -0.0193
  114SAPE  H13X11981   0.998   6.034   4.208  1.7521 -1.9722  0.3377
  114SAPE  H13Y11982   0.959   5.873   4.152  0.4015  0.2044  1.9976
  114SAPE  C31411983   0.822   5.937   4.301  0.5578  0.4591  0.4724
  114SAPE  H14X11984   0.854   5.845   4.354  0.8046 -0.3749 -1.0685
  114SAPE  H14Y11985   0.723   5.914   4.257  2.4457 -1.8738 -3.0038
  114SAPE  C31511986   0.802   6.062   4.395 -0.0369  0.1948  0.5390
  114SAPE  H15X11987   0.760   6.138   4.325 -2.1302 -1.8973 -0.5909
  114SAPE  H15Y11988   0.898   6.106   4.433  1.0361 -0.0438 -1.7115
  114SAPE  C31611989   0.709   6.034   4.507 -0.5553  0.8032 -0.0590
  114SAPE  H16X11990   0.751   5.948   4.563  3.3103  2.2126 -0.5074
  114SAPE  H16Y11991   0.610   6.012   4.461 -0.5835  0.9409 -0.0651
  114SAPE  C31711992   0.693   6.165   4.585  0.2284 -0.3577  0.4684
  114SAPE  H17X11993   0.650   6.244   4.521 -0.7541 -1.0815  0.2108
  114SAPE  H17Y11994   0.790   6.210   4.616  0.0393  0.1790  0.2755
  114SAPE  C31811995   0.606   6.152   4.716 -0.1905 -0.7109 -0.7952
  114SAPE  H18X11996   0.644   6.070   4.782 -2.1264 -0.5866  0.5437
  114SAPE  H18Y11997   0.503   6.116   4.698  0.1362 -0.8204 -2.6027
  114SAPE  H18Z11998   0.613   6.241   4.781 -0.5486 -1.6143  0.5278
  115SAPE     N11999   6.034   6.274   2.413  0.5496  0.3364 -0.4448
  115SAPE   HN112000   5.962   6.228   2.472  0.3056  1.5039  0.1983
  115SAPE   HN212001   6.128   6.237   2.435  0.8886  1.7849  0.6552
  115SAPE   HN312002   6.016   6.373   2.440 -1.2932 -0.1223  0.1576
  115SAPE   C1212003   5.994   6.240   2.274 -0.1025  0.5326 -0.0888
  115SAPE  H12A12004   6.018   6.135   2.247 -2.4670 -0.0997  0.0114
  115SAPE  H12B12005   6.053   6.306   2.207 -1.7100  0.4712 -1.6467
  115SAPE   C1112006   5.850   6.285   2.248  0.6275 -0.2282 -0.2858
  115SAPE  H11A12007   5.772   6.233   2.307 -1.5519  2.2054 -0.8100
  115SAPE  H11B12008   5.825   6.273   2.140 -0.6306  0.2313 -0.0691
  115SAPE     P12009   5.726   6.516   2.256 -0.1876  0.1775 -0.1501
  115SAPE   O1312010   5.770   6.651   2.285 -0.5465 -0.5841 -0.2244
  115SAPE   O1412011   5.658   6.491   2.132 -0.4141 -0.0836  0.4686
  115SAPE   O1212012   5.854   6.425   2.269  0.1787  0.0020  0.1549
  115SAPE   O1112013   5.638   6.451   2.374 -0.1421  0.1874 -0.0949
  115SAPE    C112014   5.688   6.454   2.506 -0.2521  0.3440 -0.1374
  115SAPE    HA12015   5.679   6.358   2.561  2.1331  1.7505  3.0474
  115SAPE    HB12016   5.797   6.472   2.519  0.0870 -2.0288  0.9063
  115SAPE    C212017   5.614   6.562   2.598  0.1424 -0.6408  0.6456
  115SAPE    HS12018   5.622   6.663   2.552 -1.5521 -0.2746  1.0682
  115SAPE   O2112019   5.658   6.556   2.735 -0.3952  0.0961 -0.2338
  115SAPE   C2112020   5.779   6.608   2.760 -0.3604 -0.2695  0.1352
  115SAPE   O2212021   5.852   6.664   2.682  0.2651 -0.3286 -0.0990
  115SAPE   C2212022   5.810   6.575   2.906 -0.3919  0.8104 -0.4265
  115SAPE   H2R12023   5.729   6.617   2.970 -0.9113 -1.4507  0.4657
  115SAPE   H2S12024   5.804   6.465   2.920 -0.4308  0.9270  0.5392
  115SAPE    C312025   5.460   6.542   2.587 -0.2463  0.1446 -0.4185
  115SAPE    HX12026   5.456   6.435   2.617 -0.3597  0.4427  0.6490
  115SAPE    HY12027   5.440   6.552   2.478  1.6831  0.4471 -0.7838
  115SAPE   O3112028   5.380   6.635   2.665  0.2594  0.6457  0.1934
  115SAPE   C3112029   5.248   6.594   2.670 -0.5426  0.0524 -0.5221
  115SAPE   O3212030   5.197   6.508   2.598  0.2671 -0.4054 -0.3021
  115SAPE   C3212031   5.174   6.663   2.783 -1.2865 -0.2467 -0.4379
  115SAPE   H2X12032   5.066   6.668   2.757 -1.1550 -0.7569 -1.0929
  115SAPE   H2Y12033   5.211   6.767   2.800  0.4739 -0.7712 -0.8904
  115SAPE   C2312034   5.955   6.618   2.952  0.1493  0.2874 -0.4792
  115SAPE   H3R12035   5.952   6.729   2.945 -0.3325  0.2228 -1.5424
  115SAPE   H3S12036   6.035   6.582   2.883  1.8467  0.6123  1.2508
  115SAPE   C2412037   5.992   6.575   3.095 -0.6242  0.3828  0.4103
  115SAPE   H4R12038   5.917   6.606   3.170 -1.3458 -2.2179  0.8542
  115SAPE   H4S12039   6.082   6.632   3.128 -1.1804  1.2046  0.5064
  115SAPE   C2512040   6.021   6.427   3.122  0.2370 -0.6328  1.1330
  115SAPE   H5R12041   5.951   6.357   3.073  1.4956 -0.5086 -0.9551
  115SAPE   C2612042   6.112   6.376   3.200 -0.4761  0.0501 -0.3669
  115SAPE   H6R12043   6.114   6.267   3.207  1.0868  0.1418  1.6872
  115SAPE   C2712044   6.210   6.453   3.284 -0.0531  0.3365  0.2901
  115SAPE   H7R12045   6.241   6.543   3.225 -0.6711  0.3710  0.0117
  115SAPE   H7S12046   6.302   6.393   3.302  0.7354  1.5985  0.6043
  115SAPE   C2812047   6.157   6.498   3.424  0.0175 -0.2003  0.1617
  115SAPE   H8R12048   6.107   6.413   3.472 -0.9225 -0.6063 -1.4426
  115SAPE   C2912049   6.170   6.622   3.484  0.7929 -0.0222  0.9646
  115SAPE   H9R12050   6.123   6.633   3.582  1.2648 -0.4908  1.2481
  115SAPE  C21012051   6.244   6.742   3.423  0.0775 -0.0240 -0.3760
  115SAPE  H10R12052   6.167   6.812   3.384 -0.7463 -1.4976 -1.4755
  115SAPE  H10S12053   6.298   6.699   3.336 -0.0154 -1.2529  0.1511
  115SAPE  C21112054   6.326   6.807   3.535 -0.1133  0.0553 -0.4425
  115SAPE  H11R12055   6.386   6.741   3.600  0.9052  3.6262  2.6347
  115SAPE  C21212056   6.321   6.937   3.575 -0.0012 -0.0421 -0.8421
  115SAPE  H12R12057   6.396   6.963   3.651  2.7652 -1.1287 -3.0465
  115SAPE  C21312058   6.236   7.048   3.518 -0.0125  0.5879  0.5410
  115SAPE  H13R12059   6.162   7.001   3.450  1.5186 -0.5940 -0.3779
  115SAPE  H13S12060   6.302   7.106   3.450  0.4902 -0.6526 -0.0652
  115SAPE  C21412061   6.175   7.139   3.625  1.0970 -0.4441  0.4466
  115SAPE  H14R12062   6.239   7.151   3.713  0.4486 -1.3989  1.0685
  115SAPE  C21512063   6.049   7.181   3.616  0.2298  0.5449 -0.6075
  115SAPE  H15R12064   6.015   7.245   3.699 -1.1202 -2.2894  1.1570
  115SAPE  C21612065   5.956   7.157   3.502  0.9398 -0.0336 -0.2102
  115SAPE  H16R12066   6.014   7.116   3.416  0.2572  1.4066 -1.4129
  115SAPE  H16S12067   5.918   7.254   3.463 -0.2863 -0.1585  0.6128
  115SAPE  C21712068   5.829   7.060   3.523  0.0973  0.0172  0.3114
  115SAPE  H17R12069   5.761   7.085   3.439 -0.0315  1.4144  0.8139
  115SAPE  H17S12070   5.787   7.086   3.622  1.5074  0.8180  0.7359
  115SAPE  C21812071   5.866   6.920   3.525 -1.0377  0.4456 -0.2335
  115SAPE  H18R12072   5.937   6.904   3.609 -0.0482 -0.0456 -1.1371
  115SAPE  H18S12073   5.912   6.884   3.431 -0.1990  0.8142  0.0321
  115SAPE  C21912074   5.752   6.818   3.549  0.5060 -0.4285  0.2182
  115SAPE  H19R12075   5.671   6.837   3.475  1.2018 -1.3319 -0.8121
  115SAPE  H19S12076   5.697   6.854   3.639 -2.0588  1.1348 -1.8134
  115SAPE  C22012077   5.795   6.670   3.555  0.1807 -0.4873  0.4546
  115SAPE  H20R12078   5.848   6.641   3.462  0.3280  1.7248 -0.2271
  115SAPE  H20S12079   5.711   6.599   3.575  1.2779 -2.1200 -0.5268
  115SAPE  H20T12080   5.867   6.658   3.638 -0.4086 -0.0316  1.0493
  115SAPE   C3312081   5.188   6.584   2.910  0.6022  0.2836 -1.1746
  115SAPE   H3X12082   5.289   6.540   2.926  1.4312  1.9320 -1.6717
  115SAPE   H3Y12083   5.120   6.496   2.906 -0.8505  1.2209  0.9989
  115SAPE   C3412084   5.155   6.656   3.042  0.1061  0.4619  0.2382
  115SAPE   H4X12085   5.195   6.759   3.043  1.0197  0.1195  0.8717
  115SAPE   H4Y12086   5.217   6.606   3.121 -1.2886  2.4874  2.7734
  115SAPE   C3512087   5.003   6.668   3.079 -0.3718  0.1952 -0.2261
  115SAPE   H5X12088   4.963   6.566   3.063  0.4460  0.2085 -3.0144
  115SAPE   H5Y12089   4.950   6.735   3.008  1.5255  1.9159 -0.1124
  115SAPE   C3612090   4.962   6.717   3.217  0.2236 -0.1371  0.0988
  115SAPE   H6X12091   5.009   6.653   3.294 -0.8168 -2.5332 -1.1544
  115SAPE   H6Y12092   4.851   6.714   3.223  0.2256  0.2504  0.3884
  115SAPE   C3712093   5.022   6.858   3.248  0.2187  0.6682 -0.6930
  115SAPE   H7X12094   4.997   6.930   3.166  0.3945  0.3415 -1.0379
  115SAPE   H7Y12095   5.133   6.851   3.247  0.1655 -1.4503  1.2135
  115SAPE   C3812096   4.974   6.921   3.382 -0.5365 -0.5666  0.1940
  115SAPE   H8X12097   4.867   6.897   3.400 -0.4018 -1.3272  0.0065
  115SAPE   H8Y12098   4.979   7.032   3.371 -0.6003 -0.8121 -3.7175
  115SAPE   C3912099   5.039   6.861   3.514 -0.5889 -0.1525  0.3185
  115SAPE   H9X12100   5.141   6.905   3.518  1.0204 -3.3646 -1.1422
  115SAPE   H9Y12101   5.056   6.752   3.500 -1.3278 -0.3215  0.7225
  115SAPE  C31012102   4.947   6.891   3.634  0.5197  0.3074  0.1053
  115SAPE  H10X12103   4.850   6.838   3.624 -0.1817  1.5745  0.0024
  115SAPE  H10Y12104   4.903   6.993   3.631  0.9676  0.5836  1.8573
  115SAPE  C31112105   5.003   6.869   3.777 -0.2088 -0.6011  0.2205
  115SAPE  H11X12106   5.097   6.929   3.776 -0.3968 -0.2630 -1.7254
  115SAPE  H11Y12107   5.037   6.763   3.775 -0.4630 -0.7166 -2.5169
  115SAPE  C31212108   4.912   6.886   3.894 -0.0716 -0.1380 -0.5939
  115SAPE  H12X12109   4.808   6.852   3.872 -0.5225  1.9796 -2.0632
  115SAPE  H12Y12110   4.898   6.996   3.900 -0.5830 -0.0670 -2.2654
  115SAPE  C31312111   4.965   6.832   4.028 -0.1605  0.2370 -0.3651
  115SAPE  H13X12112   5.069   6.864   4.050 -0.4507  0.6410  0.4314
  115SAPE  H13Y12113   4.974   6.722   4.021 -0.9631  0.1106  0.4049
  115SAPE  C31412114   4.878   6.859   4.150 -0.1208 -0.4338  0.2454
  115SAPE  H14X12115   4.772   6.828   4.139  0.6269 -4.4487  2.3929
  115SAPE  H14Y12116   4.874   6.969   4.163 -1.1736 -0.3966 -0.2904
  115SAPE  C31512117   4.937   6.797   4.278  0.0868 -0.3522  0.6330
  115SAPE  H15X12118   5.043   6.765   4.269  0.4494  1.0553 -0.4454
  115SAPE  H15Y12119   4.877   6.707   4.304  0.0888  0.2599  3.0401
  115SAPE  C31612120   4.922   6.882   4.400  0.2549 -0.1430 -0.7716
  115SAPE  H16X12121   4.965   6.984   4.392 -0.9665  0.6110  1.3754
  115SAPE  H16Y12122   4.966   6.825   4.485 -1.5384  1.0304  1.0229
  115SAPE  C31712123   4.769   6.914   4.424 -1.0287 -0.9500 -0.6012
  115SAPE  H17X12124   4.712   6.820   4.435 -0.6554 -1.2762 -1.3869
  115SAPE  H17Y12125   4.731   6.969   4.335  1.3905  0.6982 -0.7249
  115SAPE  C31812126   4.755   6.997   4.558  0.6557 -0.0006  0.2899
  115SAPE  H18X12127   4.657   7.049   4.553  0.5501 -0.2168  0.1311
  115SAPE  H18Y12128   4.834   7.074   4.569 -2.8987  4.7394 -3.1080
  115SAPE  H18Z12129   4.745   6.941   4.653  0.4339  0.7429  0.7095
  116SAPE     N12130   5.867   6.894   2.146 -0.2279 -0.8896  0.0062
  116SAPE   HN112131   5.852   6.821   2.219 -3.2119 -0.5276 -0.1353
  116SAPE   HN212132   5.860   6.842   2.057  0.2943  3.4993 -2.8975
  116SAPE   HN312133   5.964   6.933   2.150 -0.8710  0.9469 -1.3758
  116SAPE   C1212134   5.767   7.006   2.151 -1.1576 -0.0837 -0.4028
  116SAPE  H12A12135   5.697   6.981   2.067  0.5073 -2.7887 -1.1214
  116SAPE  H12B12136   5.813   7.106   2.132  0.9406 -0.6673  1.2660
  116SAPE   C1112137   5.688   7.000   2.275 -0.5032  0.2608 -0.4295
  116SAPE  H11A12138   5.748   7.025   2.364  0.6857 -0.0685 -1.1108
  116SAPE  H11B12139   5.658   6.894   2.291  2.8820 -0.8940 -0.9535
  116SAPE     P12140   5.554   7.226   2.274 -0.1367  0.0558 -0.2787
  116SAPE   O1312141   5.665   7.288   2.203 -0.3759  0.0831  0.7691
  116SAPE   O1412142   5.421   7.261   2.226  0.1305  0.3054 -0.0249
  116SAPE   O1212143   5.557   7.065   2.260 -0.8033  0.5310  0.2922
  116SAPE   O1112144   5.561   7.238   2.432 -0.2444  0.2884 -0.0841
  116SAPE    C112145   5.675   7.285   2.500  0.3045  0.3868 -1.3736
  116SAPE    HA12146   5.765   7.220   2.496  0.2002 -0.1490  1.8456
  116SAPE    HB12147   5.700   7.390   2.476 -0.9085  1.3690  1.2186
  116SAPE    C212148   5.645   7.301   2.654 -0.2009 -0.7230  0.5866
  116SAPE    HS12149   5.718   7.364   2.709 -3.7519  1.8955  2.8079
  116SAPE   O2112150   5.624   7.175   2.713 -0.1906 -0.3414  0.1497
  116SAPE   C2112151   5.727   7.111   2.761  0.0974 -0.7329 -0.1478
  116SAPE   O2212152   5.836   7.163   2.763 -0.6970 -0.2399  0.3126
  116SAPE   C2212153   5.701   6.969   2.805  0.5703  0.0706  0.3087
  116SAPE   H2R12154   5.685   6.902   2.718 -0.1691  0.0785  0.4325
  116SAPE   H2S12155   5.789   6.926   2.858 -0.1605 -1.8817  0.0373
  116SAPE    C312156   5.520   7.390   2.666  0.3112 -0.0034 -0.4171
  116SAPE    HX12157   5.441   7.331   2.613 -1.5920  2.4398 -0.4860
  116SAPE    HY12158   5.536   7.476   2.597  0.3899  0.7484  0.5180
  116SAPE   O3112159   5.492   7.418   2.803 -0.4258  0.2121 -0.0669
  116SAPE   C3112160   5.491   7.548   2.834  0.3816 -0.2362  0.5796
  116SAPE   O3212161   5.496   7.636   2.752  0.0897  0.3482 -1.0602
  116SAPE   C3212162   5.474   7.567   2.985  0.4552  0.3497  0.4053
  116SAPE   H2X12163   5.578   7.554   3.022 -0.1023  0.2136  1.9851
  116SAPE   H2Y12164   5.406   7.482   3.012  0.3279 -0.2569 -1.6371
  116SAPE   C2312165   5.569   6.955   2.891 -0.8371  0.0806 -0.1062
  116SAPE   H3R12166   5.530   6.852   2.900  0.2595 -0.3264  0.0805
  116SAPE   H3S12167   5.489   7.006   2.833  1.5866  0.1486 -3.7370
  116SAPE   C2412168   5.587   7.007   3.041  0.4453 -0.1770 -0.8190
  116SAPE   H4R12169   5.485   7.025   3.082  0.8112  0.2160 -0.0667
  116SAPE   H4S12170   5.629   7.110   3.029  2.8978 -0.6945  2.0301
  116SAPE   C2512171   5.676   6.929   3.135 -0.1686  0.2540  0.4571
  116SAPE   H5R12172   5.781   6.957   3.123 -0.8182  3.0350  0.7075
  116SAPE   C2612173   5.633   6.819   3.206  0.0055 -0.6648  0.5784
  116SAPE   H6R12174   5.695   6.757   3.273  1.5510  0.7281  0.5279
  116SAPE   C2712175   5.488   6.782   3.211  0.0976  1.1662 -0.5491
  116SAPE   H7R12176   5.448   6.801   3.109 -0.5451 -1.5281 -0.8652
  116SAPE   H7S12177   5.430   6.847   3.280 -0.3811 -0.2131  0.3912
  116SAPE   C2812178   5.476   6.632   3.236  0.1776 -0.8371 -0.3367
  116SAPE   H8R12179   5.517   6.578   3.149 -2.8021  2.2882 -4.0477
  116SAPE   C2912180   5.411   6.567   3.330  0.2892 -0.2385 -0.0519
  116SAPE   H9R12181   5.414   6.457   3.328  0.9099 -0.2650  1.2375
  116SAPE  C21012182   5.340   6.639   3.440  0.2791 -0.2224  0.1156
  116SAPE  H10R12183   5.254   6.687   3.389 -1.2963 -0.7255  2.1520
  116SAPE  H10S12184   5.397   6.721   3.487 -1.4495  0.4577  1.1414
  116SAPE  C21112185   5.284   6.544   3.541 -0.4804  0.7409  0.3927
  116SAPE  H11R12186   5.240   6.459   3.487  2.0333  0.8396 -2.0549
  116SAPE  C21212187   5.295   6.541   3.677  0.7754  0.5696  0.4254
  116SAPE  H12R12188   5.243   6.468   3.741  0.3079 -0.0135 -0.5922
  116SAPE  C21312189   5.375   6.640   3.754 -0.2340 -0.7648  0.3108
  116SAPE  H13R12190   5.299   6.711   3.794 -1.0763  0.0823 -2.5483
  116SAPE  H13S12191   5.431   6.710   3.689 -0.6255 -1.4800 -0.8175
  116SAPE  C21412192   5.456   6.590   3.867  0.6827  0.2771 -0.0043
  116SAPE  H14R12193   5.562   6.614   3.854 -0.2199  5.0052 -0.3721
  116SAPE  C21512194   5.418   6.544   3.991  0.2765  0.0508  0.4963
  116SAPE  H15R12195   5.500   6.524   4.062  2.5373 -1.5026 -2.3412
  116SAPE  C21612196   5.277   6.523   4.047  0.3039 -0.2715 -0.3820
  116SAPE  H16R12197   5.250   6.419   4.075 -0.6093  1.0164  4.4199
  116SAPE  H16S12198   5.204   6.557   3.971  1.4598 -1.0335 -1.8857
  116SAPE  C21712199   5.257   6.611   4.176 -0.3728  0.7132  0.5602
  116SAPE  H17R12200   5.148   6.601   4.198 -0.4909 -0.6068 -0.5020
  116SAPE  H17S12201   5.284   6.716   4.154  0.3888  0.7983  1.8349
  116SAPE  C21812202   5.322   6.567   4.309 -0.3144  0.5780 -0.0379
  116SAPE  H18R12203   5.430   6.562   4.282 -0.1394  1.2767  0.5278
  116SAPE  H18S12204   5.291   6.463   4.334  0.6972  0.0733 -0.7916
  116SAPE  C21912205   5.284   6.671   4.413  0.3219  0.5697  0.0912
  116SAPE  H19R12206   5.175   6.688   4.423  0.3822  0.4129  1.1499
  116SAPE  H19S12207   5.326   6.769   4.383  0.6405  0.8392  1.3468
  116SAPE  C22012208   5.345   6.631   4.546 -0.1697  0.7536  0.6193
  116SAPE  H20R12209   5.292   6.682   4.629 -1.8082 -1.0946  0.7927
  116SAPE  H20S12210   5.455   6.639   4.553 -0.0672  0.5807 -0.6110
  116SAPE  H20T12211   5.310   6.528   4.568 -2.1726  1.7467  2.4110
  116SAPE   C3312212   5.421   7.704   3.015 -0.5554  0.1808 -0.2489
  116SAPE   H3X12213   5.313   7.712   2.990  0.1304  1.4172 -3.1584
  116SAPE   H3Y12214   5.458   7.784   2.948  1.3905  1.6734  2.4131
  116SAPE   C3412215   5.449   7.734   3.163  0.3493  0.8255  0.4760
  116SAPE   H4X12216   5.559   7.746   3.169  0.6164 -1.6884  1.7766
  116SAPE   H4Y12217   5.413   7.641   3.212  0.0177  1.0289  0.6282
  116SAPE   C3512218   5.359   7.838   3.224 -0.8376 -0.3238  0.1095
  116SAPE   H5X12219   5.254   7.817   3.193 -0.7159  0.5067 -0.9263
  116SAPE   H5Y12220   5.397   7.936   3.189  0.3301  1.1145  4.7272
  116SAPE   C3612221   5.369   7.850   3.379  0.1879 -0.5368 -0.1288
  116SAPE   H6X12222   5.475   7.875   3.401  0.2560 -1.7704  1.0975
  116SAPE   H6Y12223   5.328   7.753   3.414 -3.5287  0.1909 -1.9618
  116SAPE   C3712224   5.291   7.966   3.452  0.1411 -0.1520 -0.1149
  116SAPE   H7X12225   5.182   7.947   3.438  0.1397 -2.2712  2.1454
  116SAPE   H7Y12226   5.319   8.060   3.401  2.4098 -0.7965 -0.1664
  116SAPE   C3812227   5.329   7.973   3.597 -0.2365  0.6587 -0.1359
  116SAPE   H8X12228   5.433   8.001   3.623 -0.0893  0.1911 -0.2037
  116SAPE   H8Y12229   5.309   7.872   3.641  2.8289  1.1518  2.8350
  116SAPE   C3912230   5.238   8.058   3.686  0.5774 -0.0819 -0.1413
  116SAPE   H9X12231   5.133   8.045   3.652  0.9396 -1.9421 -0.6187
  116SAPE   H9Y12232   5.266   8.164   3.667 -1.0718  0.6501  1.2129
  116SAPE  C31012233   5.244   8.023   3.833  0.4077 -0.1134 -0.3115
  116SAPE  H10X12234   5.207   7.919   3.846  1.6860 -0.3996  1.4135
  116SAPE  H10Y12235   5.181   8.089   3.896  0.5758 -0.5078  0.2751
  116SAPE  C31112236   5.389   8.023   3.894 -0.2599  0.1453  0.3108
  116SAPE  H11X12237   5.441   8.117   3.863 -0.8187  0.6170  0.7776
  116SAPE  H11Y12238   5.445   7.940   3.845  0.0891  0.0906  0.7905
  116SAPE  C31212239   5.404   8.004   4.041 -0.4667  0.1639  0.1784
  116SAPE  H12X12240   5.410   8.103   4.089  1.1368  0.5421 -0.7341
  116SAPE  H12Y12241   5.501   7.951   4.052  0.3515  1.8548  1.4034
  116SAPE  C31312242   5.309   7.911   4.110  0.0852 -0.3171 -0.0769
  116SAPE  H13X12243   5.332   7.813   4.063  3.2847 -0.1089  0.8729
  116SAPE  H13Y12244   5.206   7.947   4.085  0.0148 -1.7424 -2.1354
  116SAPE  C31412245   5.327   7.885   4.260 -0.4926  0.6899 -0.1639
  116SAPE  H14X12246   5.282   7.977   4.304  0.8626  0.9868  0.6341
  116SAPE  H14Y12247   5.432   7.866   4.289 -0.2976  0.0869 -1.2276
  116SAPE  C31512248   5.259   7.755   4.311 -0.6518  0.5633  0.1707
  116SAPE  H15X12249   5.299   7.680   4.238 -0.2170  1.2889 -0.3510
  116SAPE  H15Y12250   5.149   7.747   4.301 -0.4583 -0.4134 -1.6516
  116SAPE  C31612251   5.314   7.712   4.451  0.0407  0.5862  0.7131
  116SAPE  H16X12252   5.422   7.739   4.457 -0.1539  1.0343  3.3214
  116SAPE  H16Y12253   5.315   7.603   4.471  1.4953  0.1538 -1.3802
  116SAPE  C31712254   5.226   7.764   4.574 -0.2138 -0.7670  0.1948
  116SAPE  H17X12255   5.120   7.733   4.564  0.1552 -1.7167 -1.0477
  116SAPE  H17Y12256   5.240   7.874   4.582  1.2623 -0.8416 -0.9275
  116SAPE  C31812257   5.290   7.707   4.699  0.6228  0.1865 -0.2112
  116SAPE  H18X12258   5.288   7.769   4.791  1.3647  0.3569 -0.2984
  116SAPE  H18Y12259   5.399   7.684   4.691  0.2719 -2.1180  0.9189
  116SAPE  H18Z12260   5.243   7.609   4.723 -0.0348  0.4465 -0.4288
  117SOPE     N12261   4.579   4.354   6.873  0.5142  0.0205  0.3838
  117SOPE   HN112262   4.535   4.440   6.834 -0.5996 -1.0539 -0.8118
  117SOPE   HN212263   4.611   4.295   6.794  1.5981  0.6987  0.2958
  117SOPE   HN312264   4.503   4.307   6.926  0.8845 -3.5062 -1.9077
  117SOPE   C1212265   4.699   4.396   6.954  0.2924  0.0731 -0.0858
  117SOPE  H12A12266   4.671   4.482   7.018  1.9847 -0.0837  0.9350
  117SOPE  H12B12267   4.772   4.435   6.880  1.8927  0.7897  1.7704
  117SOPE   C1112268   4.757   4.282   7.034  0.1791 -0.3399 -0.4586
  117SOPE  H11A12269   4.676   4.236   7.094 -0.7254  1.0899 -0.5527
  117SOPE  H11B12270   4.830   4.319   7.109  0.4173 -1.6234 -0.0256
  117SOPE     P12271   4.965   4.158   6.936 -0.2580  0.0825  0.3404
  117SOPE   O1312272   4.980   4.014   6.961  0.2798 -0.6029  0.3808
  117SOPE   O1412273   5.041   4.257   7.017  0.3421  0.4077 -0.7133
  117SOPE   O1212274   4.817   4.188   6.945 -0.1375  0.0111 -0.0961
  117SOPE   O1112275   5.020   4.187   6.784  0.2567  0.7867 -0.5228
  117SOPE    C112276   4.951   4.242   6.675 -0.2242  0.2361 -0.7249
  117SOPE    HA12277   4.994   4.344   6.661  0.4556 -0.0804 -0.9488
  117SOPE    HB12278   4.844   4.256   6.702  0.1945  1.9481  0.2143
  117SOPE    C212279   4.967   4.152   6.549  0.8491 -0.4173  0.6651
  117SOPE    HS12280   4.928   4.053   6.581 -0.3140  0.6253  2.6655
  117SOPE   O2112281   5.111   4.154   6.507  0.2565 -0.0379 -0.2129
  117SOPE   C2112282   5.150   4.040   6.442  0.2655 -0.3534  0.0818
  117SOPE   O2212283   5.080   3.947   6.410  0.9877 -0.2056 -0.0713
  117SOPE   C2212284   5.295   4.051   6.395  0.1224  0.5822  0.1089
  117SOPE   H2R12285   5.337   3.955   6.430  0.0565  0.0988 -1.1011
  117SOPE   H2S12286   5.358   4.128   6.446  0.7627 -0.2512  0.5935
  117SOPE    C312287   4.877   4.203   6.436  0.4178 -0.2486  0.0801
  117SOPE    HX12288   4.924   4.297   6.401 -0.7653 -0.2762 -1.7458
  117SOPE    HY12289   4.774   4.233   6.463  0.9589  0.9633  0.8829
  117SOPE   O3112290   4.866   4.112   6.324  0.3752 -0.3465  0.0741
  117SOPE   C3112291   4.781   4.008   6.346  0.3529 -0.1266 -0.0568
  117SOPE   O3212292   4.705   3.994   6.441 -0.4968  0.0307  0.1143
  117SOPE   C3212293   4.795   3.918   6.225 -0.0377  0.0012 -0.7846
  117SOPE   H2X12294   4.797   3.813   6.263 -0.2832  0.5104  0.6841
  117SOPE   H2Y12295   4.898   3.933   6.188 -0.1088  2.5331 -0.1179
  117SOPE   C2312296   5.308   4.073   6.243  0.2116 -0.4693 -0.7745
  117SOPE   H3R12297   5.409   4.118   6.234  0.3162 -0.2143  1.1794
  117SOPE   H3S12298   5.243   4.157   6.211 -1.3830 -1.2367  0.3317
  117SOPE   C2412299   5.294   3.954   6.151 -0.0636 -0.4050 -0.4484
  117SOPE   H4R12300   5.347   3.862   6.184  1.2101  0.0910 -1.0411
  117SOPE   H4S12301   5.186   3.932   6.136  0.0227 -0.0365 -1.7540
  117SOPE   C2512302   5.351   3.982   6.013 -0.2019 -0.6085  0.3762
  117SOPE   H5R12303   5.428   4.060   6.031 -2.7728  2.3757 -0.7027
  117SOPE   H5S12304   5.391   3.892   5.962 -2.6210 -0.9842 -1.0351
  117SOPE   C2612305   5.243   4.048   5.924  0.3020  0.1307 -1.2717
  117SOPE   H6R12306   5.159   3.976   5.934  1.7122 -1.5517 -0.9057
  117SOPE   H6S12307   5.215   4.144   5.971  0.7683 -0.0060 -0.7043
  117SOPE   C2712308   5.289   4.069   5.783 -0.0548 -0.1725 -0.2086
  117SOPE   H7R12309   5.295   4.180   5.775  0.1710  0.2945  4.1577
  117SOPE   H7S12310   5.392   4.029   5.772 -0.5111 -1.0671 -1.4952
  117SOPE   C2812311   5.190   4.032   5.674  0.0565  0.5174  0.7808
  117SOPE   H8R12312   5.241   4.062   5.579  0.8942 -1.5356  0.5213
  117SOPE   H8S12313   5.168   3.924   5.658  1.9475  0.3258 -0.9167
  117SOPE   C2912314   5.053   4.099   5.691 -0.5492 -0.9063 -0.3431
  117SOPE   H9112315   5.006   4.089   5.790 -1.0240 -0.2256 -0.4959
  117SOPE  C21012316   4.996   4.181   5.597 -0.0827 -0.7107  0.0180
  117SOPE  H10112317   4.896   4.227   5.599  1.7450  3.8812 -1.0803
  117SOPE  C21112318   5.055   4.194   5.457  0.7876 -0.3014  0.1067
  117SOPE  H11R12319   5.079   4.089   5.430  1.1826 -0.2213  0.1431
  117SOPE  H11S12320   5.143   4.262   5.454  0.8723 -0.3059  1.6477
  117SOPE  C21212321   4.944   4.232   5.364  1.0068 -0.2569  0.0768
  117SOPE  H12R12322   4.900   4.331   5.389  2.2415  0.5032 -0.6598
  117SOPE  H12S12323   4.865   4.153   5.360  1.1356 -0.4534  1.2560
  117SOPE  C21312324   4.992   4.250   5.217 -0.0995 -0.1736 -0.4899
  117SOPE  H13R12325   5.046   4.156   5.194 -1.8232 -0.6660 -2.9078
  117SOPE  H13S12326   5.070   4.329   5.220 -0.4815  0.2912 -2.0505
  117SOPE  C21412327   4.889   4.290   5.110 -0.2056  0.7743 -0.0982
  117SOPE  H14R12328   4.841   4.383   5.144 -0.7710  0.2478  0.5754
  117SOPE  H14S12329   4.807   4.215   5.111  1.4675 -1.1730  0.8656
  117SOPE  C21512330   4.953   4.305   4.972  0.2815 -0.3962  0.0629
  117SOPE  H15R12331   4.974   4.205   4.929 -0.3362  0.1869 -1.7097
  117SOPE  H15S12332   5.051   4.358   4.964  1.6735 -2.8920 -0.4180
  117SOPE  C21612333   4.860   4.381   4.876  0.1077 -0.2355 -0.2525
  117SOPE  H16R12334   4.882   4.489   4.885 -0.6894 -0.2024  2.0990
  117SOPE  H16S12335   4.754   4.360   4.901  0.4701  0.6609  2.3482
  117SOPE  C21712336   4.872   4.334   4.733  0.7489  0.2614 -0.3194
  117SOPE  H17R12337   4.835   4.231   4.716  1.5121  0.2545 -2.1316
  117SOPE  H17S12338   4.980   4.347   4.709  1.5763  0.6987  3.0663
  117SOPE  C21812339   4.780   4.426   4.643 -0.7311 -0.4560  0.6942
  117SOPE  H18R12340   4.778   4.402   4.535 -2.5176  1.2672  0.2750
  117SOPE  H18S12341   4.805   4.533   4.661 -0.0690 -0.4539 -0.1956
  117SOPE  H18T12342   4.683   4.415   4.696 -0.9064  4.6468  2.0232
  117SOPE   C3312343   4.685   3.931   6.120 -0.3068  0.6277 -0.3540
  117SOPE   H3X12344   4.586   3.923   6.169 -0.1775 -3.1466 -0.4080
  117SOPE   H3Y12345   4.683   3.844   6.051 -1.4286  0.2906  0.0908
  117SOPE   C3412346   4.708   4.058   6.032 -0.0395 -0.2893  0.0416
  117SOPE   H4X12347   4.809   4.049   5.987  1.3923  2.0726  2.4594
  117SOPE   H4Y12348   4.709   4.145   6.102 -1.9256 -0.6476  0.5910
  117SOPE   C3512349   4.596   4.058   5.926  0.2895  0.3033 -0.0745
  117SOPE   H5X12350   4.498   4.079   5.974  0.3646 -0.0601  0.2437
  117SOPE   H5Y12351   4.590   3.956   5.883  0.3855 -0.5652  1.8552
  117SOPE   C3612352   4.617   4.165   5.814  0.7008 -0.0137 -0.7712
  117SOPE   H6X12353   4.696   4.124   5.747  0.7215 -0.1240 -0.6792
  117SOPE   H6Y12354   4.643   4.266   5.852 -1.6463  0.0558  0.8569
  117SOPE   C3712355   4.491   4.192   5.725  0.1749  0.4353  0.2542
  117SOPE   H7X12356   4.416   4.243   5.789  0.0528  0.7517 -0.1373
  117SOPE   H7Y12357   4.443   4.093   5.707 -0.7859  0.8159  0.6693
  117SOPE   C3812358   4.525   4.275   5.600 -0.2314 -0.5966  0.2412
  117SOPE   H8X12359   4.584   4.360   5.641 -0.2105 -1.2868  1.6872
  117SOPE   H8Y12360   4.429   4.307   5.553 -0.9315 -0.1657  1.8855
  117SOPE   C3912361   4.603   4.213   5.482 -0.6823  0.0260 -0.5372
  117SOPE   H9X12362   4.676   4.146   5.533 -1.1249  0.0789  0.1845
  117SOPE   H9Y12363   4.659   4.289   5.423 -0.4583 -0.8821 -1.5179
  117SOPE  C31012364   4.514   4.133   5.393  0.6210  0.2032  0.2079
  117SOPE  H10X12365   4.416   4.101   5.434  0.9566 -0.8324  0.2331
  117SOPE  H10Y12366   4.566   4.041   5.360  0.7379  0.1544  0.5249
  117SOPE  C31112367   4.470   4.210   5.262  0.3441 -0.6423  0.3427
  117SOPE  H11X12368   4.542   4.290   5.235  1.1792 -1.4964 -0.0266
  117SOPE  H11Y12369   4.370   4.257   5.269  0.8060  0.4093  0.0086
  117SOPE  C31212370   4.465   4.102   5.151 -0.0304 -0.7158  0.7413
  117SOPE  H12X12371   4.387   4.024   5.167  1.3017 -2.2382  0.1122
  117SOPE  H12Y12372   4.561   4.046   5.140  0.0094 -0.6154  0.5629
  117SOPE  C31312373   4.443   4.171   5.011 -0.0897  0.6978 -0.0960
  117SOPE  H13X12374   4.543   4.212   4.987  0.2498  0.2217  0.4602
  117SOPE  H13Y12375   4.360   4.245   5.015 -1.8231 -1.1675  0.9082
  117SOPE  C31412376   4.415   4.067   4.904  1.0795  0.5288 -0.5854
  117SOPE  H14X12377   4.319   4.019   4.933  1.1584  0.8086  0.1570
  117SOPE  H14Y12378   4.494   3.989   4.911 -0.4247 -1.0571 -0.5661
  117SOPE  C31512379   4.408   4.108   4.755 -0.1405  0.0889  0.1414
  117SOPE  H15X12380   4.500   4.164   4.727  0.7493 -1.0354  0.7274
  117SOPE  H15Y12381   4.327   4.184   4.758  0.5207  1.0094 -2.5771
  117SOPE  C31612382   4.380   3.998   4.649  0.5403  0.1695 -0.2163
  117SOPE  H16X12383   4.394   4.042   4.548 -1.3807  0.0735 -0.5691
  117SOPE  H16Y12384   4.274   3.965   4.646  0.5439 -0.1826  1.7757
  117SOPE  C31712385   4.468   3.875   4.670  0.0708 -0.1708  1.3060
  117SOPE  H17X12386   4.462   3.808   4.581 -0.6567  0.1604  1.0957
  117SOPE  H17Y12387   4.437   3.824   4.763  0.2128 -0.6252  1.1103
  117SOPE  C31812388   4.620   3.898   4.680 -0.2335  0.1182 -0.0255
  117SOPE  H18X12389   4.686   3.809   4.671  0.3388  0.5698 -0.3721
  117SOPE  H18Y12390   4.648   3.950   4.774  1.5000 -2.6530  1.1194
  117SOPE  H18Z12391   4.642   3.953   4.586  0.2547 -3.3037 -2.1037
  118SOPE     N12392   0.601   0.257   6.698 -0.0283  0.0043 -0.0992
  118SOPE   HN112393   0.582   0.221   6.794 -0.1783  1.6088  0.5108
  118SOPE   HN212394   0.691   0.216   6.666  0.3917  1.8579 -1.4577
  118SOPE   HN312395   0.624   0.358   6.706 -0.1594 -0.0844  2.1512
  118SOPE   C1212396   0.483   0.223   6.605  0.4837 -0.3390 -0.1388
  118SOPE  H12A12397   0.493   0.113   6.599  1.0270 -0.3432  0.6617
  118SOPE  H12B12398   0.508   0.261   6.503 -1.6568  0.3115 -0.4671
  118SOPE   C1112399   0.354   0.255   6.659 -0.2777  0.0650  0.1843
  118SOPE  H11A12400   0.310   0.183   6.731 -1.1006 -1.0429 -1.3454
  118SOPE  H11B12401   0.281   0.250   6.575 -1.2353 -0.0558  1.0119
  118SOPE     P12402   0.321   0.517   6.646  0.1956 -0.5235 -0.0228
  118SOPE   O1312403   0.400   0.628   6.705  0.1136  0.0970 -0.3911
  118SOPE   O1412404   0.171   0.530   6.648 -0.3002  0.4016 -0.6252
  118SOPE   O1212405   0.350   0.381   6.731 -0.3503  0.3599  0.4582
  118SOPE   O1112406   0.371   0.475   6.506  0.5758 -0.4987  0.4263
  118SOPE    C112407   0.280   0.467   6.397 -1.0670  0.5241  0.9065
  118SOPE    HA12408   0.228   0.564   6.382  0.4082  1.4380  1.5368
  118SOPE    HB12409   0.204   0.390   6.423 -2.5638  0.1780 -3.6114
  118SOPE    C212410   0.340   0.410   6.273 -0.0429 -0.1890  0.2169
  118SOPE    HS12411   0.408   0.327   6.302 -1.1299 -0.5150  1.9847
  118SOPE   O2112412   0.415   0.510   6.205  0.2962 -0.0413 -0.4351
  118SOPE   C2112413   0.502   0.462   6.119  0.4839  0.6626 -0.4838
  118SOPE   O2212414   0.541   0.349   6.109 -0.2417  0.0750 -0.5087
  118SOPE   C2212415   0.537   0.566   6.015 -0.5034 -0.1249  1.1429
  118SOPE   H2R12416   0.627   0.626   6.039  0.0930 -0.1150 -0.9395
  118SOPE   H2S12417   0.452   0.637   6.012 -0.6561 -0.3439 -0.5130
  118SOPE    C312418   0.232   0.347   6.183 -0.1850  0.0792 -0.0797
  118SOPE    HX12419   0.166   0.285   6.247 -0.0910  0.1636  0.0972
  118SOPE    HY12420   0.281   0.276   6.113  1.1645  0.8444  0.0615
  118SOPE   O3112421   0.154   0.451   6.115 -0.1828  0.3405  0.4508
  118SOPE   C3112422   0.067   0.400   6.023  0.1929 -0.6494 -0.0636
  118SOPE   O3212423   0.065   0.282   5.997  0.2415  0.7708 -0.2319
  118SOPE   C3212424  -0.015   0.514   5.967 -0.0771 -0.0843  0.6417
  118SOPE   H2X12425   0.053   0.578   5.906 -1.6547  0.3470 -0.7377
  118SOPE   H2Y12426  -0.046   0.582   6.049  3.0629  1.0225  1.0573
  118SOPE   C2312427   0.552   0.496   5.884  0.1184  0.0275 -0.2364
  118SOPE   H3R12428   0.450   0.454   5.871 -0.3572 -0.8454  4.4721
  118SOPE   H3S12429   0.616   0.405   5.885  2.1049  1.3435  1.6742
  118SOPE   C2412430   0.598   0.585   5.762 -0.2590 -0.0724  0.4574
  118SOPE   H4R12431   0.550   0.685   5.759  2.8054  1.4957 -1.0674
  118SOPE   H4S12432   0.701   0.625   5.775 -0.7673  1.2758  0.4737
  118SOPE   C2512433   0.578   0.514   5.626  0.5661 -0.1743  0.1121
  118SOPE   H5R12434   0.602   0.407   5.641 -1.5291 -0.4440  2.1963
  118SOPE   H5S12435   0.471   0.502   5.597 -0.1205  2.4428  1.1942
  118SOPE   C2612436   0.665   0.567   5.512 -0.4423 -0.3716 -0.2553
  118SOPE   H6R12437   0.636   0.672   5.492 -0.6766 -0.4687 -0.4281
  118SOPE   H6S12438   0.770   0.573   5.547 -1.5130 -1.0157  3.6013
  118SOPE   C2712439   0.643   0.488   5.384  0.0766  0.1943  0.3669
  118SOPE   H7R12440   0.673   0.382   5.404  0.8299  0.4326  0.5324
  118SOPE   H7S12441   0.536   0.492   5.355  0.5655 -0.4624 -1.6795
  118SOPE   C2812442   0.730   0.536   5.267  0.7468 -0.0300  0.5540
  118SOPE   H8R12443   0.703   0.642   5.252 -0.2740 -0.3041  0.3776
  118SOPE   H8S12444   0.840   0.540   5.287  0.7610  0.0637  0.4577
  118SOPE   C2912445   0.699   0.441   5.151 -0.3769  0.5885 -0.9139
  118SOPE   H9112446   0.772   0.359   5.160 -0.2985  0.9115  2.0860
  118SOPE  C21012447   0.602   0.451   5.050 -0.2500  0.0122 -0.9544
  118SOPE  H10112448   0.570   0.365   4.989 -0.7484  0.8462 -1.8949
  118SOPE  C21112449   0.504   0.559   5.024  0.9856  0.1480  0.0223
  118SOPE  H11R12450   0.452   0.590   5.118  0.0606 -1.8005  0.2042
  118SOPE  H11S12451   0.428   0.538   4.945 -0.2072  0.8450  0.9392
  118SOPE  C21212452   0.584   0.685   4.979  0.5585 -0.3718 -0.0476
  118SOPE  H12R12453   0.666   0.714   5.048  0.6698  1.2134 -0.7942
  118SOPE  H12S12454   0.513   0.770   4.984  0.0006 -0.8704  0.6668
  118SOPE  C21312455   0.648   0.679   4.836  0.7177 -0.6407 -0.6056
  118SOPE  H13R12456   0.721   0.597   4.819  2.4412  0.4780  1.0007
  118SOPE  H13S12457   0.704   0.773   4.817 -1.2047  0.7803  0.3873
  118SOPE  C21412458   0.535   0.672   4.730  0.0826  0.6463 -0.2017
  118SOPE  H14R12459   0.463   0.756   4.738  0.7734  1.1689  0.8128
  118SOPE  H14S12460   0.485   0.574   4.739 -1.1499  1.0226 -2.3715
  118SOPE  C21512461   0.584   0.701   4.589  0.0540  0.5403  0.3876
  118SOPE  H15R12462   0.655   0.624   4.551 -0.6729 -0.2372  0.5544
  118SOPE  H15S12463   0.638   0.797   4.596  0.0481  0.5760 -0.0366
  118SOPE  C21612464   0.468   0.706   4.484 -0.2060 -0.1778 -0.6340
  118SOPE  H16R12465   0.488   0.787   4.410  0.1421  1.2890  0.9952
  118SOPE  H16S12466   0.379   0.740   4.541  0.5323  0.3851  0.2132
  118SOPE  C21712467   0.454   0.572   4.420 -0.4693  0.3174  0.1356
  118SOPE  H17R12468   0.438   0.491   4.495 -1.9529  1.2702  0.9008
  118SOPE  H17S12469   0.545   0.549   4.361 -0.9676  0.5287 -0.7176
  118SOPE  C21812470   0.341   0.562   4.316  0.2078 -0.4999  0.1537
  118SOPE  H18R12471   0.333   0.461   4.272 -0.5292  0.1511 -1.2780
  118SOPE  H18S12472   0.355   0.628   4.228 -0.2396 -0.8359 -0.1715
  118SOPE  H18T12473   0.247   0.595   4.365  0.7185  0.2214  0.6691
  118SOPE   C3312474  -0.120   0.483   5.857 -0.4088 -0.0360  0.0173
  118SOPE   H3X12475  -0.202   0.421   5.900  0.0612  0.4986  1.7835
  118SOPE   H3Y12476  -0.063   0.435   5.776  0.2305  2.4171 -1.0931
  118SOPE   C3412477  -0.191   0.608   5.799  0.0518  1.4510 -0.0041
  118SOPE   H4X12478  -0.132   0.701   5.812 -2.3690  3.3195 -1.4626
  118SOPE   H4Y12479  -0.287   0.631   5.851  0.9336  2.7191  1.1326
  118SOPE   C3512480  -0.222   0.590   5.649 -0.6055 -0.5214 -0.5818
  118SOPE   H5X12481  -0.291   0.505   5.631 -2.5211  0.5478  1.2989
  118SOPE   H5Y12482  -0.124   0.572   5.600  0.0412  0.4106  0.3146
  118SOPE   C3612483  -0.297   0.702   5.584  0.6973 -0.7655 -0.2780
  118SOPE   H6X12484  -0.248   0.800   5.602 -1.5650 -0.0413  2.7178
  118SOPE   H6Y12485  -0.395   0.699   5.636  1.0230 -0.2173  0.3920
  118SOPE   C3712486  -0.312   0.677   5.433  0.1511  0.2159 -0.4597
  118SOPE   H7X12487  -0.391   0.599   5.422  1.3205 -1.1795  0.6602
  118SOPE   H7Y12488  -0.223   0.642   5.376 -0.5425 -0.9953 -0.8372
  118SOPE   C3812489  -0.382   0.795   5.352 -0.0980 -0.2367 -0.8626
  118SOPE   H8X12490  -0.347   0.889   5.399 -1.8506  0.3035 -0.5711
  118SOPE   H8Y12491  -0.488   0.806   5.384  0.0335  3.3055 -1.2547
  118SOPE   C3912492  -0.375   0.791   5.197  0.1537  0.0369 -0.1502
  118SOPE   H9X12493  -0.270   0.792   5.162  0.4464 -0.0459  0.7148
  118SOPE   H9Y12494  -0.422   0.882   5.154  1.3217  0.7010 -0.0704
  118SOPE  C31012495  -0.446   0.669   5.143  0.4613 -0.0130  0.5619
  118SOPE  H10X12496  -0.549   0.668   5.184  0.5871 -2.7893  1.0471
  118SOPE  H10Y12497  -0.409   0.570   5.178  0.0457 -0.7385 -0.9658
  118SOPE  C31112498  -0.443   0.671   4.989 -0.1309 -0.1292  0.7768
  118SOPE  H11X12499  -0.335   0.673   4.962 -0.2387  2.1631  0.2792
  118SOPE  H11Y12500  -0.480   0.770   4.955 -0.5838 -0.7313 -0.5574
  118SOPE  C31212501  -0.511   0.555   4.924 -0.2313  0.0730  0.4851
  118SOPE  H12X12502  -0.598   0.531   4.989 -0.9925  0.6357 -0.2922
  118SOPE  H12Y12503  -0.448   0.464   4.911 -1.4196 -0.6871 -0.2468
  118SOPE  C31312504  -0.567   0.568   4.780  0.4409  0.0066 -0.2211
  118SOPE  H13X12505  -0.478   0.587   4.716  0.6418 -1.1063 -0.2939
  118SOPE  H13Y12506  -0.643   0.649   4.787 -0.4960 -0.9812  1.9952
  118SOPE  C31412507  -0.646   0.446   4.731  0.7908 -0.4186  0.3656
  118SOPE  H14X12508  -0.710   0.402   4.811  1.8568 -1.9850  0.4077
  118SOPE  H14Y12509  -0.570   0.367   4.710 -0.2398 -1.4626  0.4501
  118SOPE  C31512510  -0.729   0.481   4.608  0.8308 -1.0205  0.2405
  118SOPE  H15X12511  -0.778   0.382   4.598  1.6319 -1.6458  2.0150
  118SOPE  H15Y12512  -0.660   0.510   4.527 -0.7820  1.4056 -0.3753
  118SOPE  C31612513  -0.837   0.591   4.617 -0.3493 -0.2885 -0.1803
  118SOPE  H16X12514  -0.794   0.693   4.624 -0.2383 -0.3335 -0.2041
  118SOPE  H16Y12515  -0.902   0.569   4.704  2.0064 -1.2480  1.4453
  118SOPE  C31712516  -0.936   0.592   4.495 -0.2543 -0.3760  0.1911
  118SOPE  H17X12517  -1.016   0.665   4.520  1.6531  1.4310  1.3827
  118SOPE  H17Y12518  -0.984   0.492   4.486 -1.1445 -0.0715  1.3074
  118SOPE  C31812519  -0.884   0.654   4.365  0.1027 -0.4758  0.0008
  118SOPE  H18X12520  -0.871   0.763   4.384  1.1238 -0.3690 -1.1266
  118SOPE  H18Y12521  -0.955   0.646   4.280 -0.1894 -0.3362  0.2337
  118SOPE  H18Z12522  -0.791   0.598   4.342 -0.9473 -2.4181  0.3162
  119SOPE     N12523   6.407   5.146   6.916 -0.3329  0.5387 -0.3668
  119SOPE   HN112524   6.326   5.082   6.929  1.1080 -1.6683 -1.4497
  119SOPE   HN212525   6.449   5.139   6.821  0.3383 -1.1860  0.0186
  119SOPE   HN312526   6.475   5.104   6.983 -1.4722 -2.6201 -1.0032
  119SOPE   C1212527   6.384   5.289   6.952 -0.2711  0.5053  0.0358
  119SOPE  H12A12528   6.480   5.315   7.002  0.0722 -0.7508  0.0552
  119SOPE  H12B12529   6.305   5.300   7.028 -0.2304 -0.6115  0.2645
  119SOPE   C1112530   6.372   5.393   6.836 -0.4920 -0.3404  0.3913
  119SOPE  H11A12531   6.387   5.493   6.883 -0.8316  0.1342 -0.4670
  119SOPE  H11B12532   6.273   5.383   6.786 -0.9542  0.1256  1.1831
  119SOPE     P12533   6.473   5.461   6.611 -0.2204  0.5584 -0.3660
  119SOPE   O1312534   6.583   5.414   6.525  0.6621  0.1680  0.0193
  119SOPE   O1412535   6.477   5.603   6.655  0.3949  0.2234  0.3901
  119SOPE   O1212536   6.473   5.372   6.746 -0.5402  0.3504 -0.0633
  119SOPE   O1112537   6.338   5.430   6.546 -0.2552  0.5069 -0.2039
  119SOPE    C112538   6.308   5.293   6.512 -0.4620 -0.4742 -0.1896
  119SOPE    HA12539   6.305   5.233   6.605 -1.8440  1.8505  1.3686
  119SOPE    HB12540   6.388   5.250   6.447 -1.6208  0.5235 -2.3872
  119SOPE    C212541   6.181   5.288   6.435  1.1561  0.4598  0.1831
  119SOPE    HS12542   6.155   5.181   6.419  1.5080  0.2198  1.1261
  119SOPE   O2112543   6.186   5.360   6.313  0.0653  0.2503  0.7134
  119SOPE   C2112544   6.246   5.297   6.211  1.2125  0.0658  0.1023
  119SOPE   O2212545   6.285   5.179   6.216  0.2233  0.0259 -0.5344
  119SOPE   C2212546   6.262   5.395   6.096 -0.0673 -0.1030 -0.5386
  119SOPE   H2R12547   6.326   5.481   6.126 -1.0768  0.9250 -1.2662
  119SOPE   H2S12548   6.160   5.436   6.080 -1.4627 -2.6944  0.8976
  119SOPE    C312549   6.072   5.359   6.521 -0.5513  0.4383  0.0984
  119SOPE    HX12550   6.095   5.465   6.547 -1.5643  0.7192 -0.0686
  119SOPE    HY12551   6.045   5.308   6.616 -1.0181 -2.4100 -1.4603
  119SOPE   O3112552   5.947   5.364   6.446  0.1329 -0.1571  0.6457
  119SOPE   C3112553   5.888   5.252   6.431  0.0095 -0.0796  0.0304
  119SOPE   O3212554   5.923   5.146   6.482  0.2583  0.0227 -0.1064
  119SOPE   C3212555   5.774   5.272   6.330 -0.1579 -0.7012 -0.9249
  119SOPE   H2X12556   5.727   5.371   6.346  0.8664  0.1190 -2.6355
  119SOPE   H2Y12557   5.709   5.184   6.350 -1.7460  0.4405 -0.9264
  119SOPE   C2312558   6.330   5.326   5.979  0.1961  0.8359 -0.2769
  119SOPE   H3R12559   6.257   5.253   5.937  1.3638 -0.9755  0.6796
  119SOPE   H3S12560   6.418   5.266   6.010  0.5949  2.3458  1.6666
  119SOPE   C2412561   6.375   5.431   5.875  0.1282  0.6759 -0.4763
  119SOPE   H4R12562   6.377   5.374   5.779 -2.5388 -0.6474  0.1525
  119SOPE   H4S12563   6.295   5.508   5.866 -0.3304  0.0645 -2.1924
  119SOPE   C2512564   6.516   5.486   5.910 -0.8232  0.5062  0.5226
  119SOPE   H5R12565   6.515   5.543   6.006 -0.7056  2.0806 -0.3744
  119SOPE   H5S12566   6.591   5.405   5.911 -2.1923 -0.8342  2.7964
  119SOPE   C2612567   6.580   5.586   5.806  0.1310  0.2838 -0.0030
  119SOPE   H6R12568   6.524   5.681   5.820 -0.6080 -0.5896  4.4076
  119SOPE   H6S12569   6.690   5.598   5.818  0.2965 -0.6499 -0.5075
  119SOPE   C2712570   6.571   5.533   5.660 -0.0426  0.5320  0.1664
  119SOPE   H7R12571   6.466   5.503   5.641  0.0364 -1.3370  2.2650
  119SOPE   H7S12572   6.587   5.615   5.586 -0.3845  0.5064  0.0611
  119SOPE   C2812573   6.655   5.404   5.638 -0.3123  0.0826  0.2689
  119SOPE   H8R12574   6.620   5.316   5.696  0.6617 -0.6072 -0.1467
  119SOPE   H8S12575   6.634   5.382   5.531  3.3943  0.7487 -0.7494
  119SOPE   C2912576   6.806   5.417   5.645  0.4011  0.0157 -0.6771
  119SOPE   H9112577   6.857   5.363   5.726 -0.2940  3.0868  2.0339
  119SOPE  C21012578   6.878   5.509   5.581  0.1396 -0.2820  0.2524
  119SOPE  H10112579   6.987   5.512   5.595  0.2113  0.6429 -0.4494
  119SOPE  C21112580   6.834   5.610   5.475  0.3750 -0.0435  0.7406
  119SOPE  H11R12581   6.846   5.713   5.515  0.1219 -0.7473  2.7510
  119SOPE  H11S12582   6.729   5.592   5.444  0.8817 -1.9205 -0.0254
  119SOPE  C21212583   6.926   5.593   5.349 -0.3749  0.4886  0.1090
  119SOPE  H12R12584   7.033   5.581   5.377  0.2192 -0.1531 -2.2256
  119SOPE  H12S12585   6.927   5.689   5.292 -0.5830  0.6899  0.4415
  119SOPE  C21312586   6.879   5.487   5.248  0.2589 -0.4558  0.1271
  119SOPE  H13R12587   6.769   5.492   5.244  0.2726 -0.8915 -3.5600
  119SOPE  H13S12588   6.906   5.381   5.270 -2.4597 -1.0760  0.8283
  119SOPE  C21412589   6.923   5.533   5.111 -0.0659 -0.2032 -0.0119
  119SOPE  H14R12590   7.031   5.556   5.109  0.2982 -1.7563 -2.0152
  119SOPE  H14S12591   6.882   5.630   5.076  2.4814  0.5263 -1.1621
  119SOPE  C21512592   6.890   5.429   4.999  0.2764 -0.8880 -0.4167
  119SOPE  H15R12593   6.779   5.430   5.000  0.2206 -1.8709 -2.0552
  119SOPE  H15S12594   6.930   5.328   5.021  2.9210 -0.1331 -1.4230
  119SOPE  C21612595   6.943   5.491   4.869  0.8697  0.1464 -0.6724
  119SOPE  H16R12596   7.053   5.499   4.872  0.7922  0.9387  0.6048
  119SOPE  H16S12597   6.902   5.593   4.851  1.8557  1.2680  2.7418
  119SOPE  C21712598   6.901   5.401   4.746  0.2330 -0.5880 -0.0074
  119SOPE  H17R12599   6.790   5.398   4.758 -0.0025  2.8677 -0.4969
  119SOPE  H17S12600   6.935   5.299   4.776 -1.8473 -1.3472 -0.0468
  119SOPE  C21812601   6.952   5.444   4.612 -0.1627 -0.6576  0.0089
  119SOPE  H18R12602   6.949   5.552   4.589 -1.5899 -0.8773 -0.9553
  119SOPE  H18S12603   6.906   5.385   4.529  0.1667 -1.1127  0.1464
  119SOPE  H18T12604   7.059   5.416   4.612 -0.0585 -0.3137 -0.9338
  119SOPE   C3312605   5.824   5.282   6.185  0.1841 -0.7535  0.8077
  119SOPE   H3X12606   5.886   5.372   6.162  0.1678 -1.0447 -0.4439
  119SOPE   H3Y12607   5.735   5.282   6.118  0.0130  0.7310  0.9930
  119SOPE   C3412608   5.904   5.159   6.145 -0.2193 -0.1026  0.4818
  119SOPE   H4X12609   5.848   5.068   6.177 -2.0972  0.8351  0.0062
  119SOPE   H4Y12610   6.008   5.151   6.183  0.2145 -0.0100 -0.6291
  119SOPE   C3512611   5.927   5.155   5.988 -0.1613  0.0281  0.4713
  119SOPE   H5X12612   6.005   5.230   5.964 -1.2188  1.2831  0.8622
  119SOPE   H5Y12613   5.844   5.180   5.919 -0.9266 -1.0832  0.9477
  119SOPE   C3612614   5.978   5.017   5.953 -0.3099  0.1637  0.0755
  119SOPE   H6X12615   5.911   4.942   6.001 -1.4076  1.4075  0.5379
  119SOPE   H6Y12616   6.078   4.999   5.999 -0.6817 -1.4559  0.3129
  119SOPE   C3712617   5.989   4.988   5.804 -0.3522 -0.1769  0.4644
  119SOPE   H7X12618   5.890   4.970   5.756  0.5952  2.5675 -2.9561
  119SOPE   H7Y12619   6.044   4.894   5.779  0.0553 -0.1685  1.2956
  119SOPE   C3812620   6.060   5.093   5.721 -0.2223 -0.6223  0.2177
  119SOPE   H8X12621   6.159   5.112   5.767 -1.2345  0.0701  2.2434
  119SOPE   H8Y12622   6.002   5.188   5.733 -2.8568 -2.1842  0.6227
  119SOPE   C3912623   6.079   5.070   5.570 -0.0497  0.2913  0.6441
  119SOPE   H9X12624   6.128   4.971   5.562  1.9929  1.1621  1.8728
  119SOPE   H9Y12625   6.160   5.132   5.525  1.3557 -2.6121 -1.1557
  119SOPE  C31012626   5.953   5.086   5.490  0.2081  0.2091  0.4260
  119SOPE  H10X12627   5.915   5.191   5.493 -2.4130 -0.6710  0.2712
  119SOPE  H10Y12628   5.877   5.016   5.530  0.8577 -1.1351 -0.5993
  119SOPE  C31112629   5.976   5.049   5.341 -0.3762  0.3166 -0.4984
  119SOPE  H11X12630   6.019   4.947   5.347 -0.8063  0.2450  2.6742
  119SOPE  H11Y12631   6.054   5.120   5.305 -0.7992  0.7880 -0.4926
  119SOPE  C31212632   5.851   5.045   5.251 -0.7818  0.5463  0.1649
  119SOPE  H12X12633   5.825   5.149   5.223 -1.8142  0.4213  0.6240
  119SOPE  H12Y12634   5.763   5.002   5.303  0.0838  1.2105  2.2984
  119SOPE  C31312635   5.871   4.965   5.120 -0.0726  0.2620 -0.5617
  119SOPE  H13X12636   5.907   4.861   5.136  3.1361  1.4049  0.4778
  119SOPE  H13Y12637   5.954   5.018   5.068  0.0937  1.7223  1.1052
  119SOPE  C31412638   5.757   4.976   5.019 -0.3464  0.6877  0.7932
  119SOPE  H14X12639   5.663   4.948   5.072 -0.2651 -0.9081  0.1404
  119SOPE  H14Y12640   5.766   4.896   4.942  2.2393  1.7570 -0.1261
  119SOPE  C31512641   5.740   5.099   4.936  0.5116 -0.5467 -0.0488
  119SOPE  H15X12642   5.840   5.146   4.924 -0.0566  1.3161  1.9237
  119SOPE  H15Y12643   5.684   5.173   4.998  1.4336  0.6128 -0.5568
  119SOPE  C31612644   5.654   5.075   4.810 -0.0368  0.1199  0.1725
  119SOPE  H16X12645   5.563   5.016   4.833  0.8600 -1.1592  0.5965
  119SOPE  H16Y12646   5.721   5.008   4.752 -2.0354 -1.8220  0.0029
  119SOPE  C31712647   5.617   5.203   4.727 -0.4553 -0.0807 -0.4041
  119SOPE  H17X12648   5.548   5.262   4.790  1.2584  0.6604  0.8712
  119SOPE  H17Y12649   5.565   5.165   4.636 -1.2675  1.6754 -0.7000
  119SOPE  C31812650   5.739   5.291   4.691  0.6319 -0.0851 -0.3375
  119SOPE  H18X12651   5.763   5.357   4.777  1.2960  0.6031 -1.0359
  119SOPE  H18Y12652   5.708   5.358   4.608 -0.1876  2.6690  2.0306
  119SOPE  H18Z12653   5.825   5.223   4.668  0.0372 -0.5103 -1.3761
  120SOPE     N12654   6.114   2.389   6.525  0.3031  0.1536  0.3619
  120SOPE   HN112655   6.112   2.492   6.510 -3.4367  0.2590  0.6431
  120SOPE   HN212656   6.018   2.349   6.520 -0.1982  1.3947 -0.5432
  120SOPE   HN312657   6.140   2.375   6.625 -0.8023  1.3523  0.8427
  120SOPE   C1212658   6.209   2.321   6.429  0.1351  1.2467  0.8672
  120SOPE  H12A12659   6.299   2.386   6.436  0.4887  0.8342  0.2814
  120SOPE  H12B12660   6.164   2.331   6.327  1.3521  2.1939  0.4059
  120SOPE   C1112661   6.236   2.179   6.464  0.0267  0.1101  0.1567
  120SOPE  H11A12662   6.142   2.121   6.453 -2.3490  3.3627  1.6746
  120SOPE  H11B12663   6.256   2.177   6.573 -0.2261  3.0521  0.3237
  120SOPE     P12664   6.483   2.100   6.445 -0.0235 -0.2066  0.1788
  120SOPE   O1312665   6.454   1.999   6.553  0.0978  0.6062 -0.6594
  120SOPE   O1412666   6.549   2.226   6.471  0.3522 -0.3917 -0.1572
  120SOPE   O1212667   6.342   2.127   6.381 -0.1596 -0.5311  0.6538
  120SOPE   O1112668   6.557   2.027   6.329  0.7244 -0.3403 -0.0001
  120SOPE    C112669   6.690   1.986   6.332 -0.2041  0.0978  0.1537
  120SOPE    HA12670   6.740   2.004   6.430  0.5946  2.1437 -0.5689
  120SOPE    HB12671   6.747   2.041   6.255 -0.7236 -1.8697 -1.7312
  120SOPE    C212672   6.711   1.830   6.298  0.4104 -0.1603  0.0474
  120SOPE    HS12673   6.820   1.811   6.309  0.8403  1.8334 -0.2439
  120SOPE   O2112674   6.667   1.793   6.166  0.2738 -0.8082  0.2498
  120SOPE   C2112675   6.730   1.847   6.069 -0.2708  0.5555 -1.1508
  120SOPE   O2212676   6.826   1.926   6.071 -0.0737  0.1421  0.4714
  120SOPE   C2212677   6.673   1.783   5.941 -0.2397 -0.8553 -0.0203
  120SOPE   H2R12678   6.563   1.797   5.929 -0.6283 -3.2378  0.1929
  120SOPE   H2S12679   6.703   1.676   5.947 -0.2001 -0.8119  0.7065
  120SOPE    C312680   6.637   1.734   6.412  0.4793  0.0592  0.4630
  120SOPE    HX12681   6.533   1.771   6.425  0.1688 -1.2863  2.3017
  120SOPE    HY12682   6.692   1.746   6.508  0.2287  0.8498  0.5111
  120SOPE   O3112683   6.633   1.589   6.380  0.0171 -0.2535  0.3259
  120SOPE   C3112684   6.738   1.524   6.397  0.0871 -0.4295  0.6717
  120SOPE   O3212685   6.851   1.570   6.410 -0.4114 -0.0913 -0.4062
  120SOPE   C3212686   6.708   1.372   6.380 -0.4815  0.0771  0.2181
  120SOPE   H2X12687   6.604   1.347   6.349 -0.7878  1.1508  0.3390
  120SOPE   H2Y12688   6.725   1.324   6.479  2.9929  0.0586 -0.2627
  120SOPE   C2312689   6.750   1.853   5.832 -0.2053  0.1006 -0.8336
  120SOPE   H3R12690   6.860   1.835   5.830 -0.0242  0.6103  1.5690
  120SOPE   H3S12691   6.745   1.962   5.851  0.6821  0.4111 -2.2105
  120SOPE   C2412692   6.684   1.812   5.700 -0.0692 -0.4224 -0.0974
  120SOPE   H4R12693   6.672   1.701   5.699  1.5090 -0.6861  2.3316
  120SOPE   H4S12694   6.585   1.862   5.692  0.9528  1.9182  0.8591
  120SOPE   C2512695   6.762   1.864   5.574  0.0806  1.3160 -0.3533
  120SOPE   H5R12696   6.740   1.973   5.564 -0.4107  1.2103 -0.4387
  120SOPE   H5S12697   6.870   1.849   5.592 -0.1152 -1.1272 -0.8282
  120SOPE   C2612698   6.719   1.790   5.447  0.7484  0.4494 -0.4565
  120SOPE   H6R12699   6.610   1.769   5.446  0.7270  0.5515 -0.3405
  120SOPE   H6S12700   6.744   1.856   5.362 -1.9966 -1.6659 -3.1296
  120SOPE   C2712701   6.813   1.669   5.427 -0.4563  0.5863  0.0053
  120SOPE   H7R12702   6.920   1.699   5.425 -0.3766  0.4237  1.0873
  120SOPE   H7S12703   6.810   1.597   5.512  1.3435 -0.3255 -0.6393
  120SOPE   C2812704   6.765   1.592   5.299 -0.1137  0.1975 -0.0628
  120SOPE   H8R12705   6.662   1.553   5.313 -0.1643 -0.0634 -1.1164
  120SOPE   H8S12706   6.778   1.674   5.225  0.8058  0.2325  0.1273
  120SOPE   C2912707   6.869   1.487   5.257  0.4083 -0.0027 -0.5414
  120SOPE   H9112708   6.889   1.420   5.342 -2.2116  1.0832  1.0720
  120SOPE  C21012709   6.932   1.461   5.139 -0.1926 -0.3776 -0.3409
  120SOPE  H10112710   7.004   1.378   5.138  1.6381  1.1014  1.0323
  120SOPE  C21112711   6.924   1.535   5.016  0.1176  0.0319 -0.2150
  120SOPE  H11R12712   7.025   1.575   4.995  0.0840  0.6811  0.8140
  120SOPE  H11S12713   6.857   1.622   5.033  0.7310  0.0857  2.4436
  120SOPE  C21212714   6.873   1.464   4.886 -0.2851  0.1761 -0.1072
  120SOPE  H12R12715   6.828   1.534   4.812  0.5530  0.4852 -0.3420
  120SOPE  H12S12716   6.794   1.389   4.907 -0.7460  0.3526 -1.1661
  120SOPE  C21312717   6.988   1.386   4.813  0.0207 -0.2213  0.3234
  120SOPE  H13R12718   7.003   1.287   4.861 -0.5104  0.4460  1.9050
  120SOPE  H13S12719   7.087   1.434   4.830 -0.2251  0.4173 -0.0290
  120SOPE  C21412720   6.957   1.372   4.666  0.3332 -0.3717  0.4274
  120SOPE  H14R12721   6.925   1.474   4.635  2.4111  0.7369  1.7239
  120SOPE  H14S12722   6.886   1.288   4.647  0.8393 -0.7057 -0.0214
  120SOPE  C21512723   7.087   1.352   4.587 -0.5391  0.2003  0.4660
  120SOPE  H15R12724   7.138   1.258   4.616  0.6808  0.5238 -0.5209
  120SOPE  H15S12725   7.147   1.444   4.605 -1.0583  1.3456 -2.8384
  120SOPE  C21612726   7.056   1.344   4.438 -0.2905 -0.4780  0.2590
  120SOPE  H16R12727   7.036   1.442   4.389 -1.9578 -0.7930  0.2654
  120SOPE  H16S12728   6.963   1.285   4.426 -1.0893  1.1815 -3.2986
  120SOPE  C21712729   7.167   1.281   4.352 -0.2407 -0.2251 -0.3828
  120SOPE  H17R12730   7.178   1.173   4.375 -1.6435 -0.8098 -2.2455
  120SOPE  H17S12731   7.260   1.338   4.374  1.4453 -1.8429 -2.7732
  120SOPE  C21812732   7.139   1.293   4.203  0.5548  0.3024  0.4507
  120SOPE  H18R12733   7.070   1.214   4.169  0.9194  0.4870 -0.7590
  120SOPE  H18S12734   7.226   1.256   4.146  2.0580  1.7576  1.6896
  120SOPE  H18T12735   7.112   1.396   4.170 -1.4430 -0.1498  0.5466
  120SOPE   C3312736   6.784   1.303   6.270  0.9617  0.1515 -0.7622
  120SOPE   H3X12737   6.790   1.195   6.296 -1.3385 -0.3335 -2.0088
  120SOPE   H3Y12738   6.891   1.330   6.278  0.9283 -0.2158  2.4831
  120SOPE   C3412739   6.726   1.312   6.131 -0.1691  0.4615  0.1019
  120SOPE   H4X12740   6.706   1.414   6.091  0.3814  1.1783  1.5697
  120SOPE   H4Y12741   6.629   1.261   6.148  0.0851  0.3094  1.1745
  120SOPE   C3512742   6.799   1.225   6.018 -0.2945 -0.2270 -0.7521
  120SOPE   H5X12743   6.815   1.126   6.066  2.8809  0.3050 -0.5324
  120SOPE   H5Y12744   6.903   1.264   6.012 -0.7868  1.4574  0.6987
  120SOPE   C3612745   6.734   1.205   5.888  0.2499  0.2939 -1.0152
  120SOPE   H6X12746   6.698   1.306   5.858 -0.6656  0.5462  0.8046
  120SOPE   H6Y12747   6.651   1.131   5.889 -0.7309  1.3741 -0.3062
  120SOPE   C3712748   6.828   1.155   5.778  0.7122 -0.3674  0.0278
  120SOPE   H7X12749   6.833   1.046   5.795 -5.0737 -0.4426  4.3133
  120SOPE   H7Y12750   6.922   1.215   5.783  0.1524  0.6426 -0.9995
  120SOPE   C3812751   6.758   1.163   5.639  0.0536 -0.4792  0.4974
  120SOPE   H8X12752   6.726   1.269   5.626  3.1085  0.4029 -0.4344
  120SOPE   H8Y12753   6.669   1.096   5.635 -0.0223 -0.2982 -1.5039
  120SOPE   C3912754   6.859   1.127   5.525  0.0235 -0.1180  0.4826
  120SOPE   H9X12755   6.889   1.020   5.529 -2.0683 -0.7638  0.0749
  120SOPE   H9Y12756   6.952   1.187   5.525  0.8475 -1.3492  0.5303
  120SOPE  C31012757   6.814   1.143   5.386 -1.0897 -0.0995  0.0838
  120SOPE  H10X12758   6.768   1.244   5.381 -2.0249 -0.5105  0.2251
  120SOPE  H10Y12759   6.726   1.076   5.381 -0.5688 -0.7301 -0.8753
  120SOPE  C31112760   6.909   1.101   5.276 -0.0990 -0.0335  0.0329
  120SOPE  H11X12761   6.953   1.000   5.290 -0.8149 -0.1203  1.9341
  120SOPE  H11Y12762   6.987   1.176   5.251 -1.1610  1.0236 -0.1820
  120SOPE  C31212763   6.824   1.096   5.144  0.0843  0.6335  0.4509
  120SOPE  H12X12764   6.792   1.196   5.107  2.5471  0.1693 -3.5527
  120SOPE  H12Y12765   6.726   1.046   5.157 -0.3788  1.8219  1.7931
  120SOPE  C31312766   6.910   1.024   5.035  0.1263 -0.2388 -0.2956
  120SOPE  H13X12767   6.958   0.930   5.070 -2.6030 -1.2658  0.9756
  120SOPE  H13Y12768   6.987   1.097   5.000  0.5608 -0.4131  0.2811
  120SOPE  C31412769   6.821   0.993   4.907 -0.0868  0.5507  0.3152
  120SOPE  H14X12770   6.757   1.075   4.868  1.1298  1.2622 -0.2469
  120SOPE  H14Y12771   6.749   0.917   4.944  1.0350 -1.2548 -1.0393
  120SOPE  C31512772   6.909   0.962   4.790 -0.1769 -0.1962 -0.4475
  120SOPE  H15X12773   6.981   0.884   4.821 -0.5538 -0.5774 -0.5113
  120SOPE  H15Y12774   6.969   1.051   4.762  1.2814 -0.2822  2.1226
  120SOPE  C31612775   6.827   0.903   4.670 -0.5549 -0.0206 -1.1342
  120SOPE  H16X12776   6.894   0.829   4.620  1.2144 -0.7078  2.0010
  120SOPE  H16Y12777   6.804   0.985   4.599 -1.8162  0.5152 -0.1401
  120SOPE  C31712778   6.695   0.834   4.693  1.1104 -0.3427  0.3418
  120SOPE  H17X12779   6.618   0.909   4.719  1.2787 -0.2044  0.4455
  120SOPE  H17Y12780   6.697   0.754   4.769 -0.3745  1.0978  1.9654
  120SOPE  C31812781   6.663   0.764   4.558  0.9983 -0.1259  0.0305
  120SOPE  H18X12782   6.567   0.709   4.560 -0.1761  1.7606 -1.2496
  120SOPE  H18Y12783   6.730   0.679   4.531 -0.0973 -0.4663 -1.8361
  120SOPE  H18Z12784   6.666   0.834   4.472  0.0396 -0.9227 -0.6761
  121SOPE     N12785   5.436   6.734   6.910 -0.9373 -0.0457 -0.8219
  121SOPE   HN112786   5.437   6.681   7.000  0.7152  1.0899 -0.1190
  121SOPE   HN212787   5.415   6.833   6.930 -0.1398  0.2085 -1.2028
  121SOPE   HN312788   5.359   6.712   6.844 -2.4248 -2.1405  1.4183
  121SOPE   C1212789   5.560   6.712   6.838  0.0126  0.1791 -0.5477
  121SOPE  H12A12790   5.574   6.602   6.832  0.0346  0.0936  0.7857
  121SOPE  H12B12791   5.640   6.754   6.903 -0.6452  1.1502 -0.3315
  121SOPE   C1112792   5.555   6.782   6.700 -0.0904  0.1490  0.5864
  121SOPE  H11A12793   5.648   6.756   6.645 -0.3274  0.2499  0.1332
  121SOPE  H11B12794   5.559   6.893   6.711 -1.4126  0.4659 -1.6358
  121SOPE     P12795   5.328   6.830   6.561 -0.0418 -0.1242  0.2920
  121SOPE   O1312796   5.249   6.884   6.670  0.0359  0.3304  0.2836
  121SOPE   O1412797   5.256   6.745   6.464  0.2222  0.5206  0.1040
  121SOPE   O1212798   5.442   6.742   6.625 -0.5988 -0.3096  0.4017
  121SOPE   O1112799   5.393   6.956   6.497 -0.6204  0.4044  0.3978
  121SOPE    C112800   5.498   6.943   6.402  0.1087 -0.3891  0.2724
  121SOPE    HA12801   5.468   6.858   6.337 -1.3490 -1.3400  2.0681
  121SOPE    HB12802   5.593   6.917   6.454  1.2333 -1.5600 -2.1864
  121SOPE    C212803   5.520   7.077   6.322  0.7898  0.0030  0.8629
  121SOPE    HS12804   5.576   7.148   6.387 -0.4579  1.4346  0.4178
  121SOPE   O2112805   5.394   7.146   6.296 -0.2445  0.2961  0.3697
  121SOPE   C2112806   5.399   7.267   6.251 -0.2856 -0.5710  0.7309
  121SOPE   O2212807   5.499   7.337   6.252  0.2633 -0.5148  0.3445
  121SOPE   C2212808   5.268   7.309   6.199 -0.5729 -0.2190  0.4050
  121SOPE   H2R12809   5.256   7.413   6.235  1.1820 -0.1628  0.9046
  121SOPE   H2S12810   5.197   7.239   6.249  1.1653 -0.4194  2.7688
  121SOPE    C312811   5.601   7.059   6.193  0.4840 -0.2396  0.5414
  121SOPE    HX12812   5.639   7.154   6.151  0.8780 -0.1782  1.0214
  121SOPE    HY12813   5.541   7.020   6.109  1.4726  0.8450 -0.7058
  121SOPE   O3112814   5.712   6.966   6.200  0.0629 -0.0254 -0.1532
  121SOPE   C3112815   5.804   7.003   6.278 -0.4978 -0.5207  0.2562
  121SOPE   O3212816   5.811   7.106   6.339  0.1237 -0.3640  0.1501
  121SOPE   C3212817   5.906   6.888   6.281  0.2046  0.3181  0.2535
  121SOPE   H2X12818   5.862   6.790   6.254  0.5833  0.2469 -0.1166
  121SOPE   H2Y12819   5.942   6.893   6.386 -2.1199  1.6095  1.0559
  121SOPE   C2312820   5.260   7.308   6.048  0.3275 -0.4653  0.4089
  121SOPE   H3R12821   5.155   7.286   6.021  1.0745  0.7386 -4.5068
  121SOPE   H3S12822   5.318   7.221   6.010  1.8883 -0.5536  2.8040
  121SOPE   C2412823   5.291   7.435   5.977  0.4502  0.1822 -0.3080
  121SOPE   H4R12824   5.220   7.515   6.007  2.8743  2.0048  0.9634
  121SOPE   H4S12825   5.391   7.478   5.998 -1.3878  5.0220 -0.0048
  121SOPE   C2512826   5.288   7.420   5.821  0.0851 -0.0587 -0.0898
  121SOPE   H5R12827   5.226   7.329   5.812  0.1747 -0.3433  1.7646
  121SOPE   H5S12828   5.240   7.504   5.766  1.3583  0.6831 -0.1172
  121SOPE   C2612829   5.428   7.401   5.763 -0.0985 -0.6120 -0.1378
  121SOPE   H6R12830   5.435   7.383   5.654  0.5833 -0.4956 -0.1123
  121SOPE   H6S12831   5.475   7.494   5.799  0.1815 -0.4109 -0.9984
  121SOPE   C2712832   5.507   7.280   5.823 -0.6771  0.1265 -0.4706
  121SOPE   H7R12833   5.517   7.284   5.933 -1.5154  0.5537 -0.4026
  121SOPE   H7S12834   5.438   7.197   5.797 -0.0587 -0.6617  0.3565
  121SOPE   C2812835   5.635   7.231   5.752 -0.7616  0.1163 -0.7856
  121SOPE   H8R12836   5.673   7.128   5.771  2.1176  1.2250 -0.1415
  121SOPE   H8S12837   5.595   7.240   5.648 -2.3038  2.2407 -0.0671
  121SOPE   C2912838   5.738   7.339   5.760  0.0153 -0.0844  0.4421
  121SOPE   H9112839   5.735   7.420   5.835 -0.4943  0.9241 -0.6233
  121SOPE  C21012840   5.841   7.347   5.670 -0.2729  0.2766 -0.4382
  121SOPE  H10112841   5.909   7.429   5.693 -0.1577  0.0962 -0.1342
  121SOPE  C21112842   5.876   7.248   5.559  0.4005  0.7439  0.0654
  121SOPE  H11R12843   5.810   7.158   5.559 -0.6740  1.5063 -1.3288
  121SOPE  H11S12844   5.975   7.211   5.594  0.4731  2.3530  1.6959
  121SOPE  C21212845   5.887   7.317   5.421  0.7241 -0.3491  0.5141
  121SOPE  H12R12846   5.958   7.402   5.435  0.7056  0.0425 -1.4916
  121SOPE  H12S12847   5.782   7.342   5.396  1.0822 -1.2132 -2.0892
  121SOPE  C21312848   5.946   7.231   5.317 -0.2226  0.6420  0.1287
  121SOPE  H13R12849   5.867   7.172   5.266  2.2094 -0.8282 -2.2126
  121SOPE  H13S12850   6.010   7.148   5.353 -0.9435 -0.5939 -1.3372
  121SOPE  C21412851   6.017   7.322   5.212 -0.3253 -0.2024 -0.2453
  121SOPE  H14R12852   6.105   7.375   5.254  0.2584 -0.8254 -0.6606
  121SOPE  H14S12853   5.945   7.401   5.181  1.3351  1.3781 -0.2230
  121SOPE  C21512854   6.058   7.249   5.081 -0.4338 -0.4210 -1.0499
  121SOPE  H15R12855   6.119   7.158   5.101 -0.7407 -0.2067  1.1362
  121SOPE  H15S12856   6.130   7.311   5.024  1.1052 -2.4934 -1.4992
  121SOPE  C21612857   5.941   7.196   5.002  0.3911  0.0721  0.8314
  121SOPE  H16R12858   5.869   7.279   4.987 -0.4106 -0.5996  0.8603
  121SOPE  H16S12859   5.882   7.127   5.068 -1.7609 -0.1991 -1.2487
  121SOPE  C21712860   5.974   7.133   4.864 -0.6794  0.0895 -0.5742
  121SOPE  H17R12861   5.905   7.052   4.830 -0.1796 -1.1039  1.1499
  121SOPE  H17S12862   6.071   7.081   4.878 -0.0385  0.6048 -2.6955
  121SOPE  C21812863   5.974   7.229   4.751 -0.4704  0.5842 -1.0374
  121SOPE  H18R12864   6.021   7.198   4.655  2.0964 -2.7307  1.0733
  121SOPE  H18S12865   6.038   7.315   4.781 -0.5954 -0.0811  1.3591
  121SOPE  H18T12866   5.872   7.267   4.729 -0.0848  2.3800  0.0258
  121SOPE   C3312867   6.027   6.916   6.192  0.0362 -0.5307 -0.1622
  121SOPE   H3X12868   6.107   6.846   6.222 -0.1836 -0.6188  0.2237
  121SOPE   H3Y12869   6.065   7.019   6.208 -2.1871  0.4683 -0.7565
  121SOPE   C3412870   5.982   6.898   6.052 -0.4391 -0.2025  0.2133
  121SOPE   H4X12871   5.905   6.973   6.027 -0.5709 -0.7223 -0.9932
  121SOPE   H4Y12872   5.940   6.795   6.045 -2.1540  0.5500 -1.1371
  121SOPE   C3512873   6.089   6.929   5.945 -0.0458 -0.1925  0.4536
  121SOPE   H5X12874   6.173   6.863   5.975  0.4914  1.4022  2.6856
  121SOPE   H5Y12875   6.136   7.030   5.951  0.4213 -0.3630 -0.1263
  121SOPE   C3612876   6.042   6.898   5.799  0.2446 -0.1785  0.2436
  121SOPE   H6X12877   5.971   6.981   5.776 -1.0109 -1.2413  0.1438
  121SOPE   H6Y12878   5.986   6.802   5.796 -0.9145  0.4900 -0.0845
  121SOPE   C3712879   6.157   6.905   5.703  0.3241  0.2463  0.9537
  121SOPE   H7X12880   6.221   6.819   5.732  0.7199  0.9464  2.2084
  121SOPE   H7Y12881   6.217   6.997   5.720  0.1232  0.1362  2.3961
  121SOPE   C3812882   6.124   6.902   5.551 -0.0279  0.5690 -0.6798
  121SOPE   H8X12883   6.062   6.993   5.537 -1.2680  0.3111  2.4957
  121SOPE   H8Y12884   6.053   6.819   5.534 -0.9184  1.8352 -3.8116
  121SOPE   C3912885   6.245   6.901   5.466 -0.3139  0.8551  0.1295
  121SOPE   H9X12886   6.298   6.803   5.469 -0.9221  0.5300  0.4520
  121SOPE   H9Y12887   6.317   6.979   5.500  0.6351  0.3068 -0.5765
  121SOPE  C31012888   6.211   6.933   5.317 -0.6670  0.0176  0.6662
  121SOPE  H10X12889   6.297   6.898   5.255  0.0988  1.7315  0.6964
  121SOPE  H10Y12890   6.215   7.043   5.298  2.0952 -0.5458 -3.2957
  121SOPE  C31112891   6.086   6.864   5.264 -0.2103 -0.2536 -0.5412
  121SOPE  H11X12892   5.996   6.918   5.300  0.9107  2.1068 -1.0488
  121SOPE  H11Y12893   6.087   6.763   5.310 -2.6106 -0.6778 -1.3311
  121SOPE  C31212894   6.085   6.852   5.116 -0.5019  0.8729  0.4730
  121SOPE  H12X12895   6.164   6.781   5.084  1.7737  1.8854  3.3851
  121SOPE  H12Y12896   6.119   6.943   5.061 -0.6549  0.1877 -0.7773
  121SOPE  C31312897   5.947   6.821   5.050  0.2415 -0.0345 -0.4394
  121SOPE  H13X12898   5.873   6.897   5.082 -0.6370 -0.9063 -0.3400
  121SOPE  H13Y12899   5.907   6.725   5.091 -1.6689  0.7955 -0.2676
  121SOPE  C31412900   5.972   6.783   4.903  0.3896  0.2432  0.1377
  121SOPE  H14X12901   6.042   6.697   4.898 -0.3040 -0.4999  2.3251
  121SOPE  H14Y12902   6.025   6.874   4.866 -1.9838  0.8158 -2.1613
  121SOPE  C31512903   5.847   6.757   4.813  0.6602 -0.1545 -0.3279
  121SOPE  H15X12904   5.768   6.833   4.832  0.0882 -0.8822  0.2580
  121SOPE  H15Y12905   5.798   6.664   4.849  0.2825  0.5357  1.0121
  121SOPE  C31612906   5.886   6.738   4.670 -0.2697  0.2865  0.2129
  121SOPE  H16X12907   5.937   6.641   4.648  2.3130  1.5839  0.0583
  121SOPE  H16Y12908   5.970   6.808   4.650  0.7554 -0.4772  1.6255
  121SOPE  C31712909   5.767   6.752   4.575 -0.6721  0.2675  0.1249
  121SOPE  H17X12910   5.707   6.660   4.561 -1.0101  0.3665  0.8656
  121SOPE  H17Y12911   5.811   6.776   4.476  3.6803  1.9231  2.2252
  121SOPE  C31812912   5.667   6.870   4.608 -0.1796  0.4496 -0.2149
  121SOPE  H18X12913   5.590   6.895   4.532 -0.8487  0.4777  0.4556
  121SOPE  H18Y12914   5.715   6.968   4.631 -1.2848  1.3465 -1.5704
  121SOPE  H18Z12915   5.605   6.840   4.695 -0.6506 -1.4650 -1.1634
  122SOPE     N12916   6.848   0.077   6.455 -0.3618 -0.3317 -0.2740
  122SOPE   HN112917   6.935   0.021   6.446 -1.6908 -3.1033  2.3273
  122SOPE   HN212918   6.778   0.036   6.391  3.0230 -2.4798 -2.9640
  122SOPE   HN312919   6.864   0.180   6.451 -2.7096  0.1357  0.5299
  122SOPE   C1212920   6.818   0.045   6.600  0.5782 -0.0392  0.1879
  122SOPE  H12A12921   6.720   0.091   6.627 -0.3369 -0.8452 -1.6116
  122SOPE  H12B12922   6.906   0.077   6.659  1.3228 -0.6304 -0.5856
  122SOPE   C1112923   6.813  -0.109   6.611  0.5354  0.1776 -0.6117
  122SOPE  H11A12924   6.715  -0.141   6.567 -0.3993  0.9276  0.8442
  122SOPE  H11B12925   6.808  -0.148   6.715  0.1629  0.9365 -0.3351
  122SOPE     P12926   6.959  -0.326   6.565 -0.0153  0.2196 -0.2638
  122SOPE   O1312927   6.844  -0.386   6.632 -0.1968  0.8852 -0.4225
  122SOPE   O1412928   7.083  -0.340   6.638 -0.2338 -0.3392 -0.1817
  122SOPE   O1212929   6.919  -0.177   6.545  0.0226  0.4757  0.1811
  122SOPE   O1112930   6.977  -0.386   6.416 -0.1213  0.1548 -0.6522
  122SOPE    C112931   6.876  -0.469   6.363  0.1992  1.0022  0.1802
  122SOPE    HA12932   6.828  -0.539   6.434 -0.8699  0.4341 -1.0433
  122SOPE    HB12933   6.917  -0.526   6.277  1.5761  1.5521  0.4440
  122SOPE    C212934   6.754  -0.390   6.309 -0.5828 -1.2387 -0.5099
  122SOPE    HS12935   6.710  -0.338   6.397 -0.4682 -0.0090 -1.1692
  122SOPE   O2112936   6.665  -0.489   6.255 -0.4407 -0.3857  0.2146
  122SOPE   C2112937   6.533  -0.467   6.272 -0.0914  0.0081 -0.0070
  122SOPE   O2212938   6.483  -0.377   6.333  0.1809 -0.0977  0.1085
  122SOPE   C2212939   6.455  -0.588   6.221 -0.1254  0.2992  0.1188
  122SOPE   H2R12940   6.421  -0.637   6.315  0.9639 -2.7300 -0.9470
  122SOPE   H2S12941   6.525  -0.660   6.173 -3.2918 -1.5840 -2.0719
  122SOPE    C312942   6.797  -0.290   6.204  0.1861  0.3469  0.2417
  122SOPE    HX12943   6.856  -0.343   6.126  2.2285  2.0056  0.5770
  122SOPE    HY12944   6.867  -0.227   6.262  1.7468  0.2294 -1.4419
  122SOPE   O3112945   6.686  -0.223   6.140  0.1254  0.6894  1.0208
  122SOPE   C3112946   6.636  -0.124   6.199  0.5579 -0.5900 -0.5804
  122SOPE   O3212947   6.687  -0.065   6.294 -0.1468 -0.4534  0.4974
  122SOPE   C3212948   6.495  -0.087   6.141 -0.0713 -0.5342 -0.4103
  122SOPE   H2X12949   6.446  -0.013   6.208 -1.2393 -0.9824 -0.7299
  122SOPE   H2Y12950   6.425  -0.171   6.164 -1.7086  1.3349  2.0393
  122SOPE   C2312951   6.354  -0.543   6.120  0.8088 -0.8887 -0.4659
  122SOPE   H3R12952   6.261  -0.512   6.173  1.2999  1.9963 -1.1461
  122SOPE   H3S12953   6.302  -0.630   6.073  1.0291 -0.6524 -1.1659
  122SOPE   C2412954   6.396  -0.444   6.008  0.3450  0.6350 -0.3310
  122SOPE   H4R12955   6.308  -0.433   5.942  1.0459  1.2077 -1.1871
  122SOPE   H4S12956   6.415  -0.343   6.049 -0.9788  1.2949 -1.2968
  122SOPE   C2512957   6.524  -0.488   5.933 -0.1734 -0.4210  0.1135
  122SOPE   H5R12958   6.602  -0.480   6.011  1.4272 -1.4376 -1.3313
  122SOPE   H5S12959   6.520  -0.595   5.905  2.2645 -0.5942  0.2429
  122SOPE   C2612960   6.567  -0.409   5.809 -1.2159 -0.0888 -0.0205
  122SOPE   H6R12961   6.584  -0.300   5.823 -0.6127  0.2543 -2.8174
  122SOPE   H6S12962   6.663  -0.456   5.778 -0.7966  0.4150  0.4878
  122SOPE   C2712963   6.469  -0.425   5.695 -0.8513  0.1291  0.1457
  122SOPE   H7R12964   6.447  -0.533   5.680  1.2092 -0.2476 -0.5077
  122SOPE   H7S12965   6.378  -0.372   5.729  0.1838  2.2426 -0.2091
  122SOPE   C2812966   6.528  -0.365   5.563  0.4468  0.3058  0.0314
  122SOPE   H8R12967   6.445  -0.364   5.489 -0.4797  2.0545  1.0159
  122SOPE   H8S12968   6.567  -0.265   5.592 -0.5216  0.8787 -0.5831
  122SOPE   C2912969   6.627  -0.443   5.491  0.0575  0.2495 -0.0068
  122SOPE   H9112970   6.685  -0.505   5.561 -0.9243  0.9619  1.4814
  122SOPE  C21012971   6.646  -0.454   5.358 -0.0973 -0.3825 -0.0001
  122SOPE  H10112972   6.720  -0.528   5.328 -0.2129 -0.0407 -1.1687
  122SOPE  C21112973   6.579  -0.375   5.248 -0.1063 -0.6338 -0.9441
  122SOPE  H11R12974   6.641  -0.284   5.235 -0.8374  0.1027  0.4743
  122SOPE  H11S12975   6.482  -0.329   5.276  0.7102 -0.0484  1.1498
  122SOPE  C21212976   6.560  -0.466   5.124 -0.8037 -0.7317 -0.3569
  122SOPE  H12R12977   6.485  -0.418   5.057 -0.5655 -1.6172 -1.2803
  122SOPE  H12S12978   6.513  -0.558   5.164 -1.6695 -0.2618 -0.2734
  122SOPE  C21312979   6.686  -0.492   5.051  0.2944 -0.2062  1.0265
  122SOPE  H13R12980   6.745  -0.573   5.099  1.4561  0.4612  0.7573
  122SOPE  H13S12981   6.745  -0.398   5.048  0.2792 -0.2087  0.6311
  122SOPE  C21412982   6.647  -0.551   4.907 -1.0327 -0.3421  0.0413
  122SOPE  H14R12983   6.585  -0.477   4.854 -0.6799 -0.2057 -0.1844
  122SOPE  H14S12984   6.584  -0.642   4.923 -0.3711 -0.4360  2.6081
  122SOPE  C21512985   6.777  -0.580   4.830  0.1127  0.2595  0.7588
  122SOPE  H15R12986   6.841  -0.657   4.877  0.1573 -0.4103 -0.3572
  122SOPE  H15S12987   6.835  -0.486   4.814  0.3753 -0.0507 -0.1610
  122SOPE  C21612988   6.739  -0.668   4.710  0.1528 -0.6938 -0.1411
  122SOPE  H16R12989   6.660  -0.736   4.746  1.5976 -2.6677 -0.5669
  122SOPE  H16S12990   6.825  -0.727   4.671  1.1634  1.0908 -0.7601
  122SOPE  C21712991   6.676  -0.573   4.597  0.0838 -0.0046 -0.4601
  122SOPE  H17R12992   6.604  -0.503   4.643  2.9407  1.8450  1.4787
  122SOPE  H17S12993   6.617  -0.636   4.527 -0.2151 -1.2668  0.8783
  122SOPE  C21812994   6.783  -0.503   4.526  0.1314  0.7552  0.3151
  122SOPE  H18R12995   6.856  -0.461   4.599 -0.5927  0.6350  1.1310
  122SOPE  H18S12996   6.757  -0.419   4.458  0.3504  0.1758 -0.5012
  122SOPE  H18T12997   6.837  -0.579   4.467 -0.2960  0.0495  0.8163
  122SOPE   C3312998   6.495  -0.065   5.986 -0.1380  0.3925  0.2438
  122SOPE   H3X12999   6.386  -0.053   5.965 -0.1265  0.1283  0.0286
  122SOPE   H3Y13000   6.534  -0.162   5.948 -1.3175  0.1299 -0.3565
  122SOPE   C3413001   6.568   0.054   5.929  0.6013 -0.6899  0.4323
  122SOPE   H4X13002   6.677   0.050   5.950  1.3612 -2.6138 -3.1542
  122SOPE   H4Y13003   6.525   0.145   5.976 -0.1348 -0.1731 -1.1825
  122SOPE   C3513004   6.556   0.060   5.777 -0.5348 -0.2610  0.2011
  122SOPE   H5X13005   6.460   0.109   5.754 -2.3072 -2.4001  2.4568
  122SOPE   H5Y13006   6.552  -0.040   5.728 -1.0117  0.2744 -0.8782
  122SOPE   C3613007   6.664   0.150   5.709  0.6906 -0.1183 -0.1504
  122SOPE   H6X13008   6.762   0.112   5.745  0.6766  0.8598  0.9772
  122SOPE   H6Y13009   6.665   0.259   5.733  2.3046  0.0419 -0.7977
  122SOPE   C3713010   6.651   0.149   5.554 -0.7773 -0.6731  1.1299
  122SOPE   H7X13011   6.545   0.121   5.538 -1.3561  1.0059  1.8364
  122SOPE   H7Y13012   6.720   0.073   5.511  2.0212  2.0782  0.3465
  122SOPE   C3813013   6.656   0.293   5.494 -0.1909 -0.5909  0.3654
  122SOPE   H8X13014   6.759   0.332   5.500 -0.0027 -0.4739 -2.2719
  122SOPE   H8Y13015   6.576   0.363   5.526 -0.7716 -0.8842 -0.3884
  122SOPE   C3913016   6.618   0.286   5.336 -0.5763  0.3628 -1.6557
  122SOPE   H9X13017   6.664   0.191   5.302 -1.3526 -0.9793  0.8172
  122SOPE   H9Y13018   6.676   0.369   5.291 -0.8030  2.6152  1.8330
  122SOPE  C31013019   6.464   0.286   5.311 -0.3341 -0.0880  0.1007
  122SOPE  H10X13020   6.423   0.386   5.339  0.9280  0.2905  0.6894
  122SOPE  H10Y13021   6.428   0.205   5.377  1.4692 -1.5520 -0.6380
  122SOPE  C31113022   6.434   0.261   5.161 -0.2706  0.1256 -0.2956
  122SOPE  H11X13023   6.478   0.338   5.095 -0.4594  1.0407  0.6302
  122SOPE  H11Y13024   6.324   0.257   5.148 -0.5165  0.2755  1.5258
  122SOPE  C31213025   6.477   0.120   5.110  0.5291 -0.6335 -1.0415
  122SOPE  H12X13026   6.448   0.046   5.188  0.0876  0.6342  0.0413
  122SOPE  H12Y13027   6.588   0.126   5.108  0.5026  0.4264 -0.4512
  122SOPE  C31313028   6.412   0.102   4.971 -0.4420  0.1231  0.3388
  122SOPE  H13X13029   6.485   0.149   4.902  0.8511  0.4744  1.8939
  122SOPE  H13Y13030   6.304   0.126   4.957  0.0336  2.2711  0.0941
  122SOPE  C31413031   6.414  -0.053   4.948 -0.0191  0.2664  0.4072
  122SOPE  H14X13032   6.359  -0.107   5.028  1.2531  0.7956  1.6683
  122SOPE  H14Y13033   6.524  -0.066   4.952  0.1089  0.8742 -0.7726
  122SOPE  C31513034   6.361  -0.101   4.809 -0.3349  0.1526  0.2755
  122SOPE  H15X13035   6.420  -0.048   4.731 -0.5639 -1.9255 -1.4003
  122SOPE  H15Y13036   6.254  -0.077   4.791 -0.8774 -1.6210  0.9367
  122SOPE  C31613037   6.376  -0.253   4.797 -0.6856 -0.4807 -0.6262
  122SOPE  H16X13038   6.340  -0.290   4.895  3.4077  0.7194  1.5398
  122SOPE  H16Y13039   6.475  -0.296   4.769 -0.8044 -0.3126 -1.3367
  122SOPE  C31713040   6.285  -0.304   4.685 -0.1137 -0.4184  0.8165
  122SOPE  H17X13041   6.327  -0.268   4.589  0.2145 -1.1385  0.6845
  122SOPE  H17Y13042   6.180  -0.269   4.692 -0.2769 -0.2282 -1.6501
  122SOPE  C31813043   6.294  -0.450   4.678  0.7161 -0.6147  0.4881
  122SOPE  H18X13044   6.395  -0.471   4.636  0.2518  0.0120 -1.0067
  122SOPE  H18Y13045   6.222  -0.493   4.605  1.6606 -1.1925 -0.1308
  122SOPE  H18Z13046   6.271  -0.497   4.776 -0.6364  3.0878  2.1393
  123SOPE     N13047   2.809   4.800   1.912  0.2396  0.2349 -0.0959
  123SOPE   HN113048   2.773   4.718   1.860 -1.0995 -0.3571  1.6769
  123SOPE   HN213049   2.857   4.769   1.999  1.1818  1.6446 -0.0686
  123SOPE   HN313050   2.729   4.860   1.940 -1.3661 -0.2752 -3.2137
  123SOPE   C1213051   2.917   4.856   1.835  0.5050  0.0207 -0.2653
  123SOPE  H12A13052   2.966   4.941   1.887  2.5237 -0.7075 -0.8662
  123SOPE  H12B13053   2.876   4.907   1.745 -0.1943  0.5282  0.3294
  123SOPE   C1113054   3.007   4.747   1.783  0.6928 -0.7663  0.8789
  123SOPE  H11A13055   3.079   4.802   1.718 -1.6712 -1.0734 -2.2222
  123SOPE  H11B13056   2.971   4.671   1.710  1.1644 -0.1307 -0.0494
  123SOPE     P13057   3.064   4.555   1.957  0.0874 -0.1128  0.2000
  123SOPE   O1313058   3.181   4.502   2.027 -0.0440 -0.0769 -0.1115
  123SOPE   O1413059   2.984   4.455   1.872 -0.0888  0.0259  0.1540
  123SOPE   O1213060   3.098   4.688   1.873 -0.3114  0.4472 -0.5434
  123SOPE   O1113061   2.965   4.626   2.049 -0.3668 -0.1018  0.2159
  123SOPE    C113062   2.921   4.570   2.172  0.1092  0.6219  0.1048
  123SOPE    HA13063   2.901   4.460   2.168  0.1490  0.6617 -1.6056
  123SOPE    HB13064   2.821   4.617   2.185 -1.2264 -1.6701 -1.1730
  123SOPE    C213065   3.000   4.623   2.292  0.7660  1.0559 -0.3415
  123SOPE    HS13066   3.108   4.600   2.283  0.4704 -0.0002 -1.3846
  123SOPE   O2113067   2.939   4.571   2.419 -0.0816  0.3933  0.3224
  123SOPE   C2113068   3.018   4.593   2.524  1.0274 -0.3672  1.0507
  123SOPE   O2213069   3.135   4.631   2.515 -0.0380 -0.2520 -0.2116
  123SOPE   C2213070   2.936   4.564   2.657 -1.0166  0.3562 -0.2234
  123SOPE   H2R13071   2.907   4.457   2.660 -0.8931  0.3340  0.4712
  123SOPE   H2S13072   2.849   4.631   2.645 -1.4087 -0.2438 -0.7863
  123SOPE    C313073   2.987   4.785   2.299  0.0315  0.4076  0.1454
  123SOPE    HX13074   3.033   4.816   2.203 -1.5339  0.1337 -0.7297
  123SOPE    HY13075   3.060   4.820   2.376 -0.6795 -3.2570  2.7548
  123SOPE   O3113076   2.859   4.846   2.310 -0.4319 -1.0027 -0.1217
  123SOPE   C3113077   2.815   4.876   2.443  0.1751 -0.2852 -0.1157
  123SOPE   O3213078   2.886   4.859   2.541  0.6508 -0.3618  0.1765
  123SOPE   C3213079   2.675   4.932   2.440 -0.8553  0.2282  0.3756
  123SOPE   H2X13080   2.627   4.921   2.340  0.6129  1.2099 -0.4895
  123SOPE   H2Y13081   2.691   5.042   2.447  0.0647  0.2283 -1.0931
  123SOPE   C2313082   3.006   4.599   2.787 -0.2168 -0.7225 -0.9292
  123SOPE   H3R13083   3.064   4.694   2.782 -1.7831  0.3216 -0.2304
  123SOPE   H3S13084   3.078   4.522   2.821  0.7827  0.0381 -1.2716
  123SOPE   C2413085   2.900   4.618   2.905  0.2650  0.3966  0.9057
  123SOPE   H4R13086   2.836   4.705   2.882  0.3661  0.0878 -0.6117
  123SOPE   H4S13087   2.834   4.529   2.913 -1.4041  1.5864  0.8342
  123SOPE   C2513088   2.971   4.641   3.042  0.4553  0.0520 -0.3908
  123SOPE   H5R13089   3.032   4.553   3.070  0.4673  1.1115  3.4754
  123SOPE   H5S13090   3.037   4.730   3.036 -3.0449  3.1150  2.1557
  123SOPE   C2613091   2.866   4.679   3.149  0.2368  0.4692  0.4445
  123SOPE   H6R13092   2.785   4.603   3.154 -0.7578  1.4400 -0.3178
  123SOPE   H6S13093   2.927   4.674   3.241  2.2822 -1.2771 -0.9107
  123SOPE   C2713094   2.792   4.816   3.134 -0.1189  0.1193  0.4491
  123SOPE   H7R13095   2.847   4.896   3.079 -1.8039 -0.0398 -1.5877
  123SOPE   H7S13096   2.713   4.793   3.059 -0.1978 -0.1418  0.6134
  123SOPE   C2813097   2.718   4.850   3.266 -0.5788 -0.4527 -0.4074
  123SOPE   H8R13098   2.633   4.919   3.247  2.2119  2.7386 -2.6085
  123SOPE   H8S13099   2.678   4.757   3.311 -1.3141  1.0615  2.2481
  123SOPE   C2913100   2.825   4.912   3.355 -0.8235 -0.0740 -0.1602
  123SOPE   H9113101   2.896   4.985   3.315  3.0407 -2.1862  2.2254
  123SOPE  C21013102   2.859   4.882   3.483 -0.0074  0.3843  0.0097
  123SOPE  H10113103   2.952   4.927   3.519  0.0036  0.4240 -0.0653
  123SOPE  C21113104   2.781   4.793   3.569  0.4909 -0.4663 -0.7370
  123SOPE  H11R13105   2.855   4.754   3.644  0.7135  0.9117 -0.2172
  123SOPE  H11S13106   2.736   4.701   3.526  0.6960 -0.6093 -0.6513
  123SOPE  C21213107   2.665   4.866   3.629 -0.7739 -0.1545 -0.3535
  123SOPE  H12R13108   2.600   4.885   3.541 -0.0098  0.0849 -0.8797
  123SOPE  H12S13109   2.686   4.966   3.672 -0.4216 -0.1399 -0.5490
  123SOPE  C21313110   2.584   4.779   3.730  0.2353  0.2461  0.2093
  123SOPE  H13R13111   2.558   4.685   3.677  1.8481 -0.0938 -0.0572
  123SOPE  H13S13112   2.488   4.829   3.753 -0.0281  0.8011 -1.8648
  123SOPE  C21413113   2.654   4.747   3.859  0.2156  0.4220  0.2087
  123SOPE  H14R13114   2.748   4.689   3.840 -0.0988 -0.4871  1.2954
  123SOPE  H14S13115   2.595   4.673   3.918  0.6896  0.8426  1.2472
  123SOPE  C21513116   2.673   4.866   3.950 -0.3611  0.2188  0.5421
  123SOPE  H15R13117   2.581   4.914   3.991 -0.8263  2.2905 -2.5673
  123SOPE  H15S13118   2.729   4.944   3.894 -1.2789  1.1836  0.9117
  123SOPE  C21613119   2.756   4.830   4.071  0.1108  0.4763  0.2274
  123SOPE  H16R13120   2.806   4.919   4.116 -0.7122  1.0210  0.0690
  123SOPE  H16S13121   2.832   4.756   4.037  0.4827  1.5164 -1.3016
  123SOPE  C21713122   2.676   4.766   4.185 -0.1234 -0.0880 -0.9086
  123SOPE  H17R13123   2.599   4.692   4.155 -1.3073  0.6858  0.1452
  123SOPE  H17S13124   2.620   4.853   4.224  0.4846 -0.0054 -0.1905
  123SOPE  C21813125   2.762   4.685   4.287 -0.1119  0.1772 -0.3107
  123SOPE  H18R13126   2.814   4.609   4.224 -0.9461  0.7454 -1.7130
  123SOPE  H18S13127   2.709   4.617   4.356 -0.6723 -0.1300 -1.0351
  123SOPE  H18T13128   2.832   4.744   4.351 -0.7176 -0.6496  1.1589
  123SOPE   C3313129   2.592   4.873   2.549  0.2895 -0.3982 -0.1890
  123SOPE   H3X13130   2.626   4.921   2.644 -1.4655 -0.4009  0.4763
  123SOPE   H3Y13131   2.612   4.764   2.547  0.7394 -0.3414  0.6714
  123SOPE   C3413132   2.447   4.921   2.520 -0.0190  0.6091 -0.1379
  123SOPE   H4X13133   2.433   4.896   2.413  1.3706  3.1340 -0.9869
  123SOPE   H4Y13134   2.448   5.032   2.523  0.2127  0.6529  4.1953
  123SOPE   C3513135   2.348   4.885   2.628 -0.6552  0.2271 -0.1493
  123SOPE   H5X13136   2.343   4.775   2.645 -1.0226  0.5657  2.3311
  123SOPE   H5Y13137   2.243   4.912   2.605 -0.8494 -0.7352 -0.4519
  123SOPE   C3613138   2.375   4.944   2.768 -0.4264 -0.2854  0.3566
  123SOPE   H6X13139   2.353   5.052   2.765 -0.7747 -0.3724 -0.6594
  123SOPE   H6Y13140   2.476   4.913   2.803 -1.3460 -3.1607  0.7768
  123SOPE   C3713141   2.283   4.889   2.882  0.0054  0.1032 -0.6663
  123SOPE   H7X13142   2.278   4.779   2.877 -2.5947  0.1206  0.1781
  123SOPE   H7Y13143   2.182   4.936   2.872  1.5332  4.0412  0.5766
  123SOPE   C3813144   2.335   4.915   3.024 -0.3265  0.2544  0.7369
  123SOPE   H8X13145   2.364   5.021   3.044 -1.3776  0.2409  2.6020
  123SOPE   H8Y13146   2.417   4.843   3.044  0.8104  1.1172 -0.5944
  123SOPE   C3913147   2.230   4.864   3.127 -0.9007  0.3186 -0.0565
  123SOPE   H9X13148   2.190   4.764   3.100  1.0584 -0.7389  0.7809
  123SOPE   H9Y13149   2.153   4.944   3.124 -0.7892  0.4916  1.2601
  123SOPE  C31013150   2.287   4.862   3.271 -0.4929  0.1559 -0.4667
  123SOPE  H10X13151   2.303   4.964   3.311  0.6734 -0.6029  1.1082
  123SOPE  H10Y13152   2.387   4.814   3.270 -1.1828 -1.3458  0.1600
  123SOPE  C31113153   2.182   4.793   3.372 -0.1378 -0.3494  0.0968
  123SOPE  H11X13154   2.184   4.688   3.338  3.1598 -0.3141 -0.1008
  123SOPE  H11Y13155   2.087   4.850   3.361 -1.2881 -2.5665 -2.7481
  123SOPE  C31213156   2.234   4.786   3.515 -0.2618 -0.8707  0.5799
  123SOPE  H12X13157   2.234   4.886   3.562 -3.8181  1.6941 -4.0153
  123SOPE  H12Y13158   2.336   4.744   3.499  0.6702  2.2333 -2.8879
  123SOPE  C31313159   2.141   4.703   3.601 -0.6857  0.2750 -0.0825
  123SOPE  H13X13160   2.128   4.606   3.549  0.3598  0.2448 -0.3152
  123SOPE  H13Y13161   2.041   4.752   3.597 -0.1313  1.3964 -0.7670
  123SOPE  C31413162   2.188   4.684   3.746 -1.1434  0.0650 -0.4476
  123SOPE  H14X13163   2.284   4.628   3.760 -1.6874 -0.7745  0.0317
  123SOPE  H14Y13164   2.118   4.616   3.800  1.0161 -1.1068  1.0631
  123SOPE  C31513165   2.186   4.811   3.827  0.4529 -0.7605 -0.3316
  123SOPE  H15X13166   2.085   4.858   3.831  0.4437 -0.8327  1.9382
  123SOPE  H15Y13167   2.259   4.877   3.776  1.3045  1.2938  3.2023
  123SOPE  C31613168   2.224   4.797   3.974 -0.2139  0.5874  0.0707
  123SOPE  H16X13169   2.297   4.714   3.983 -1.6894 -0.9049 -1.2183
  123SOPE  H16Y13170   2.137   4.770   4.038 -0.9709  0.5682 -0.9481
  123SOPE  C31713171   2.289   4.933   4.012  0.3636  0.1838  0.6450
  123SOPE  H17X13172   2.208   5.008   3.999  0.4330 -0.2265 -2.9454
  123SOPE  H17Y13173   2.366   4.975   3.944 -0.6212  2.5759  0.9074
  123SOPE  C31813174   2.349   4.943   4.151  0.1634  0.4878 -0.3305
  123SOPE  H18X13175   2.405   5.037   4.170 -1.1810  1.1802  0.2927
  123SOPE  H18Y13176   2.415   4.854   4.160 -0.1328  0.2213 -0.7472
  123SOPE  H18Z13177   2.270   4.937   4.229  1.1791 -2.1705  0.6193
  124SOPE     N13178   5.231   5.117   2.199 -0.4067  0.7496 -0.4051
  124SOPE   HN113179   5.326   5.085   2.174  0.3968  0.2232  2.7964
  124SOPE   HN213180   5.180   5.029   2.224 -0.6926  0.6512 -1.3055
  124SOPE   HN313181   5.186   5.155   2.114 -2.4628 -1.6129 -0.4949
  124SOPE   C1213182   5.223   5.225   2.315  0.3682  0.2633  0.8015
  124SOPE  H12A13183   5.301   5.297   2.284 -1.8619  1.6552 -2.0230
  124SOPE  H12B13184   5.261   5.183   2.411  0.2515  1.2083  1.2717
  124SOPE   C1113185   5.076   5.270   2.336  0.6317  0.1949 -0.3708
  124SOPE  H11A13186   5.051   5.319   2.239  1.8710 -0.2804 -0.9527
  124SOPE  H11B13187   5.077   5.353   2.410  2.2511  0.6972 -0.9173
  124SOPE     P13188   4.844   5.201   2.388 -0.0922  0.1289  0.3752
  124SOPE   O1313189   4.761   5.075   2.380  0.0931 -0.2437 -0.5124
  124SOPE   O1413190   4.805   5.310   2.295 -0.2037 -0.3839 -0.0498
  124SOPE   O1213191   4.997   5.154   2.361  0.5903  0.3022 -0.4496
  124SOPE   O1113192   4.840   5.256   2.539 -0.4154 -0.4182 -0.0567
  124SOPE    C113193   4.892   5.177   2.646 -0.4759 -0.5587 -1.2223
  124SOPE    HA13194   4.981   5.227   2.690 -0.9650 -0.0511 -0.7953
  124SOPE    HB13195   4.926   5.073   2.627 -0.2337 -1.1063  1.7148
  124SOPE    C213196   4.785   5.173   2.763 -0.0152 -0.7958 -0.3223
  124SOPE    HS13197   4.837   5.135   2.853  0.0791 -0.4611 -0.2332
  124SOPE   O2113198   4.665   5.110   2.726  0.1929  0.1490  0.0700
  124SOPE   C2113199   4.670   4.982   2.751  0.2128  0.2082 -0.4565
  124SOPE   O2213200   4.760   4.924   2.810  0.0232  0.7044 -0.0782
  124SOPE   C2213201   4.565   4.924   2.667 -0.4969 -0.4366  0.1756
  124SOPE   H2R13202   4.612   4.900   2.569  0.1002  0.6798  0.1641
  124SOPE   H2S13203   4.475   4.987   2.649  0.9942  1.3910 -1.3746
  124SOPE    C313204   4.744   5.323   2.797  0.2584  0.5915  0.4864
  124SOPE    HX13205   4.670   5.349   2.719  0.6758  1.3802  0.3448
  124SOPE    HY13206   4.830   5.392   2.782  0.1250  0.5853 -0.3537
  124SOPE   O3113207   4.673   5.335   2.912 -0.4128  0.5060  0.5265
  124SOPE   C3113208   4.744   5.322   3.020 -0.0233 -0.7343 -0.2936
  124SOPE   O3213209   4.866   5.323   3.029 -0.1287 -0.6431  0.4434
  124SOPE   C3213210   4.651   5.287   3.133  0.4955 -0.5422  0.5208
  124SOPE   H2X13211   4.601   5.193   3.101 -0.1315 -0.6408  1.7288
  124SOPE   H2Y13212   4.574   5.366   3.150 -0.9401 -2.0006  1.1479
  124SOPE   C2313213   4.517   4.786   2.718 -0.4036 -0.1221  0.2373
  124SOPE   H3R13214   4.593   4.706   2.703 -0.0879  0.0510  0.8762
  124SOPE   H3S13215   4.431   4.768   2.650 -1.2380  3.3494  0.1638
  124SOPE   C2413216   4.486   4.776   2.874 -0.1249 -0.2487  0.7028
  124SOPE   H4R13217   4.434   4.678   2.882 -2.8174  0.8561 -1.6268
  124SOPE   H4S13218   4.580   4.762   2.932  1.7366  0.4091 -1.9335
  124SOPE   C2513219   4.396   4.888   2.944 -0.1201  0.3677  0.1490
  124SOPE   H5R13220   4.457   4.981   2.947  0.4468 -0.0213  2.1512
  124SOPE   H5S13221   4.304   4.921   2.892  0.0092 -1.0565 -1.0405
  124SOPE   C2613222   4.362   4.835   3.089 -0.2313 -0.5039  1.2071
  124SOPE   H6R13223   4.292   4.749   3.077  0.6066 -1.2762  1.7507
  124SOPE   H6S13224   4.453   4.794   3.137  0.5329  0.2528  0.4260
  124SOPE   C2713225   4.302   4.941   3.179 -0.6691  0.3819 -0.1117
  124SOPE   H7R13226   4.374   5.022   3.200  2.5728 -2.2215 -0.2930
  124SOPE   H7S13227   4.224   4.992   3.118 -0.2354  2.7137  1.2045
  124SOPE   C2813228   4.239   4.874   3.309 -0.0893  0.0463  0.5996
  124SOPE   H8R13229   4.184   4.785   3.273  2.5699 -0.9002 -1.3680
  124SOPE   H8S13230   4.326   4.847   3.373  0.3214 -0.5456 -0.2014
  124SOPE   C2913231   4.144   4.983   3.361 -0.1264  0.0598  0.0084
  124SOPE   H9113232   4.042   4.987   3.320 -0.9694  0.4332  2.0522
  124SOPE  C21013233   4.176   5.070   3.455 -0.4141  0.5614  1.1856
  124SOPE  H10113234   4.093   5.131   3.493 -1.3143 -0.6467  1.2242
  124SOPE  C21113235   4.306   5.067   3.528  0.3306 -0.3300  0.6079
  124SOPE  H11R13236   4.349   5.169   3.538 -0.8220  0.5036 -2.1457
  124SOPE  H11S13237   4.390   5.018   3.474  0.8721  0.6164  0.5733
  124SOPE  C21213238   4.301   5.009   3.668 -0.1173  0.5171 -0.3603
  124SOPE  H12R13239   4.246   5.092   3.717 -0.6759  0.3952 -0.7699
  124SOPE  H12S13240   4.401   4.988   3.711 -1.2821 -0.1467  2.2183
  124SOPE  C21313241   4.216   4.883   3.678  0.0322  0.2798  0.2156
  124SOPE  H13R13242   4.274   4.818   3.609  1.1948 -1.3457  2.5853
  124SOPE  H13S13243   4.116   4.904   3.635  1.3371 -0.8753 -3.8394
  124SOPE  C21413244   4.219   4.808   3.811 -0.1455 -0.0170 -1.0463
  124SOPE  H14R13245   4.162   4.864   3.888 -0.5668 -0.8312 -0.7532
  124SOPE  H14S13246   4.324   4.820   3.847 -0.6814 -1.4418  1.1598
  124SOPE  C21513247   4.171   4.664   3.822  0.0939 -0.1530  0.2403
  124SOPE  H15R13248   4.203   4.615   3.728 -0.5025  0.3065 -0.2069
  124SOPE  H15S13249   4.062   4.670   3.800  0.6004  0.6069 -2.3260
  124SOPE  C21613250   4.200   4.576   3.942 -0.0230 -0.8573 -0.3689
  124SOPE  H16R13251   4.136   4.607   4.027  0.9316  0.6541 -0.1531
  124SOPE  H16S13252   4.309   4.588   3.961  0.2246 -1.2747 -1.4675
  124SOPE  C21713253   4.169   4.428   3.921  0.0819 -0.1671  0.1350
  124SOPE  H17R13254   4.211   4.391   3.825  2.3123 -0.1558  1.0387
  124SOPE  H17S13255   4.060   4.410   3.912 -0.2095  1.9044 -1.0699
  124SOPE  C21813256   4.208   4.332   4.032 -0.4031 -0.2702 -0.0296
  124SOPE  H18R13257   4.311   4.295   4.014 -0.6791 -1.5619  0.9165
  124SOPE  H18S13258   4.143   4.243   4.043 -0.5313 -0.2444 -0.5656
  124SOPE  H18T13259   4.226   4.385   4.128 -2.8696 -0.4828  0.6106
  124SOPE   C3313260   4.727   5.249   3.267  0.0868 -0.2054 -0.1866
  124SOPE   H3X13261   4.771   5.343   3.307 -0.6276 -0.2001  0.6418
  124SOPE   H3Y13262   4.813   5.189   3.232  0.1327 -1.4099  1.8200
  124SOPE   C3413263   4.655   5.160   3.367 -0.8220 -0.8118  0.3726
  124SOPE   H4X13264   4.628   5.065   3.316 -3.3423  0.1168 -0.1981
  124SOPE   H4Y13265   4.556   5.211   3.376 -0.7636  0.5668 -4.4339
  124SOPE   C3513266   4.740   5.142   3.498  0.1006 -0.3091  0.2416
  124SOPE   H5X13267   4.841   5.108   3.465  0.1483  1.0352 -1.0720
  124SOPE   H5Y13268   4.692   5.055   3.547  1.4687 -0.3077  1.6670
  124SOPE   C3613269   4.758   5.267   3.586 -0.3213 -0.5141 -0.0224
  124SOPE   H6X13270   4.813   5.345   3.530  1.1252 -1.4127  0.0963
  124SOPE   H6Y13271   4.813   5.256   3.682 -0.7493  0.0480  0.2873
  124SOPE   C3713272   4.622   5.332   3.633  0.0566 -0.5604  0.3050
  124SOPE   H7X13273   4.555   5.353   3.547  0.3875  2.4380  0.6756
  124SOPE   H7Y13274   4.628   5.435   3.675 -2.4446  0.2089 -1.0303
  124SOPE   C3813275   4.553   5.240   3.739  0.1719 -0.4693 -0.4936
  124SOPE   H8X13276   4.543   5.139   3.692  0.9974 -0.6382 -0.3189
  124SOPE   H8Y13277   4.450   5.271   3.766 -0.5744 -0.8173 -2.7367
  124SOPE   C3913278   4.624   5.227   3.871 -0.5073  0.0533  0.4876
  124SOPE   H9X13279   4.711   5.296   3.869  0.8730 -1.6229 -1.7110
  124SOPE   H9Y13280   4.667   5.126   3.885  2.2795  1.1938  0.8592
  124SOPE  C31013281   4.522   5.252   3.979 -0.0976  0.1247  0.1211
  124SOPE  H10X13282   4.441   5.176   3.974  1.0207 -1.1846  0.9712
  124SOPE  H10Y13283   4.476   5.350   3.956 -1.6806 -1.0813 -2.3054
  124SOPE  C31113284   4.573   5.261   4.125  0.7528 -0.4613  0.4508
  124SOPE  H11X13285   4.638   5.174   4.152  0.1115 -2.4594 -3.6654
  124SOPE  H11Y13286   4.489   5.251   4.197  0.1486 -2.2821 -0.4529
  124SOPE  C31213287   4.632   5.406   4.140  0.0701  0.3859  0.0374
  124SOPE  H12X13288   4.547   5.471   4.110 -2.2386 -2.1985  0.5687
  124SOPE  H12Y13289   4.708   5.412   4.060 -0.4820 -1.0383 -0.6251
  124SOPE  C31313290   4.680   5.433   4.281 -0.0738  0.7268  0.3829
  124SOPE  H13X13291   4.765   5.366   4.310  0.0359  1.1838  1.1379
  124SOPE  H13Y13292   4.603   5.406   4.356 -0.9340 -0.5259 -0.8978
  124SOPE  C31413293   4.720   5.579   4.302 -0.0120  0.0099  0.3611
  124SOPE  H14X13294   4.632   5.644   4.280  0.9478  1.1538 -0.1850
  124SOPE  H14Y13295   4.798   5.601   4.227  0.8392 -1.7547  0.6650
  124SOPE  C31513296   4.767   5.597   4.448  0.2186 -0.0707 -0.5269
  124SOPE  H15X13297   4.870   5.558   4.466  0.2091 -0.1683 -0.6845
  124SOPE  H15Y13298   4.699   5.540   4.515  2.5142 -1.1310  1.0324
  124SOPE  C31613299   4.761   5.745   4.502  0.5816  0.6086  0.5218
  124SOPE  H16X13300   4.653   5.767   4.515  0.2190 -0.9500  0.3981
  124SOPE  H16Y13301   4.799   5.800   4.414 -2.6572 -0.0127 -1.4221
  124SOPE  C31713302   4.844   5.770   4.621 -0.9510  0.0889 -0.0080
  124SOPE  H17X13303   4.951   5.744   4.602 -0.2022  1.5542  1.8801
  124SOPE  H17Y13304   4.815   5.703   4.704 -1.8408  1.8664  1.1855
  124SOPE  C31813305   4.845   5.922   4.659 -0.1449  0.5580 -0.5668
  124SOPE  H18X13306   4.904   5.989   4.593 -0.7859  1.1294 -0.5678
  124SOPE  H18Y13307   4.883   5.922   4.764 -0.7900  2.4546 -0.2790
  124SOPE  H18Z13308   4.740   5.959   4.666 -0.2466  0.3957 -1.2052
  125SOPE     N13309   4.823   5.713   1.777  0.0235  0.1291 -0.3545
  125SOPE   HN113310   4.872   5.625   1.802  0.6728  0.5125 -0.2498
  125SOPE   HN213311   4.754   5.724   1.855  0.1615 -1.6248  0.0622
  125SOPE   HN313312   4.772   5.708   1.686  0.7723  0.8105 -0.8227
  125SOPE   C1213313   4.908   5.837   1.773  0.1695  0.2172  0.7182
  125SOPE  H12A13314   4.845   5.926   1.753  1.5010  0.4999 -3.0956
  125SOPE  H12B13315   4.982   5.825   1.690 -1.4382 -1.0078 -0.6092
  125SOPE   C1113316   4.989   5.852   1.906 -0.3234  0.0853 -0.1576
  125SOPE  H11A13317   4.920   5.854   1.993  0.5463 -2.2806  0.6732
  125SOPE  H11B13318   5.034   5.953   1.903  0.5053 -0.2706 -0.0852
  125SOPE     P13319   5.208   5.768   2.009 -0.3617 -0.1116 -0.1216
  125SOPE   O1313320   5.268   5.898   1.962 -0.2913  0.5065 -0.3440
  125SOPE   O1413321   5.288   5.640   2.008 -0.0561  0.0289 -0.1597
  125SOPE   O1213322   5.077   5.745   1.927 -0.3132 -0.0123 -0.7582
  125SOPE   O1113323   5.138   5.807   2.151 -0.9408 -0.0961  0.1735
  125SOPE    C113324   5.070   5.705   2.221 -0.1139 -0.4183 -0.0942
  125SOPE    HA13325   5.136   5.623   2.258  1.5620 -0.2920 -2.5855
  125SOPE    HB13326   4.996   5.659   2.152 -0.2977 -0.5772  0.2075
  125SOPE    C213327   4.981   5.762   2.335  0.2079  0.6378 -0.4287
  125SOPE    HS13328   4.895   5.817   2.293 -1.6409 -1.2651  0.7064
  125SOPE   O2113329   5.067   5.857   2.400 -0.4957  0.1497 -0.0957
  125SOPE   C2113330   5.008   5.927   2.497  1.0268 -0.7859  0.2441
  125SOPE   O2213331   4.887   5.922   2.521  0.2879  0.0874 -0.3728
  125SOPE   C2213332   5.106   6.001   2.578 -0.2633  0.0325 -0.1207
  125SOPE   H2R13333   5.161   6.060   2.502  0.4905 -1.2083 -0.5723
  125SOPE   H2S13334   5.168   5.927   2.635 -0.0927 -0.8011 -1.3519
  125SOPE    C313335   4.919   5.647   2.432 -0.1316  0.3379  0.8489
  125SOPE    HX13336   4.865   5.589   2.354  0.2585 -0.5239  1.2150
  125SOPE    HY13337   4.833   5.695   2.485 -1.5825 -0.9275 -0.2621
  125SOPE   O3113338   5.017   5.560   2.495 -0.6836  0.2768 -0.2017
  125SOPE   C3113339   5.046   5.587   2.626  0.1098 -0.6941 -0.0014
  125SOPE   O3213340   4.995   5.681   2.692 -0.3553 -0.5786 -0.0740
  125SOPE   C3213341   5.152   5.496   2.687  0.1047 -0.5981 -1.1948
  125SOPE   H2X13342   5.239   5.482   2.619  0.5956  0.4561 -0.8101
  125SOPE   H2Y13343   5.102   5.402   2.719  1.2076  0.2591  3.9281
  125SOPE   C2313344   5.045   6.099   2.688 -0.3566  0.1516  0.6658
  125SOPE   H3R13345   4.984   6.034   2.755  1.6332 -3.7291 -0.9451
  125SOPE   H3S13346   4.988   6.174   2.629  1.4287  1.6094  0.6877
  125SOPE   C2413347   5.146   6.186   2.756 -0.0532  0.7448 -0.2899
  125SOPE   H4R13348   5.219   6.208   2.676  0.9607 -1.2134  0.0221
  125SOPE   H4S13349   5.089   6.272   2.796 -2.1755 -0.8961  0.4627
  125SOPE   C2513350   5.222   6.120   2.873 -0.3834  0.4764 -0.5751
  125SOPE   H5R13351   5.255   6.020   2.836 -0.1067 -0.0799  1.1000
  125SOPE   H5S13352   5.312   6.183   2.892 -2.1915  2.9599  0.2663
  125SOPE   C2613353   5.141   6.087   2.999 -0.4597 -0.7761  0.6109
  125SOPE   H6R13354   5.039   6.055   2.968 -0.6474  0.7067 -0.4118
  125SOPE   H6S13355   5.194   6.001   3.046  1.1669 -1.5272 -2.3637
  125SOPE   C2713356   5.118   6.207   3.091 -0.3973 -0.1640 -0.1347
  125SOPE   H7R13357   5.222   6.229   3.123  0.2010 -1.9845 -0.6490
  125SOPE   H7S13358   5.099   6.305   3.042  2.0884 -0.6717 -2.3178
  125SOPE   C2813359   5.038   6.174   3.219 -0.3858 -0.3086  0.6889
  125SOPE   H8R13360   5.054   6.265   3.281 -0.9946 -0.0044  0.4099
  125SOPE   H8S13361   4.931   6.172   3.187 -0.2857  0.4429  0.2979
  125SOPE   C2913362   5.071   6.045   3.285  0.0419 -0.0857 -0.0309
  125SOPE   H9113363   5.059   5.957   3.220 -0.1658 -0.9094  1.1067
  125SOPE  C21013364   5.132   6.024   3.403  0.7347 -1.1373 -0.3431
  125SOPE  H10113365   5.160   5.921   3.432  0.2236 -1.0898  0.3448
  125SOPE  C21113366   5.169   6.139   3.493 -0.0663  0.1023  0.4515
  125SOPE  H11R13367   5.103   6.228   3.492  0.3961  0.4621 -1.2901
  125SOPE  H11S13368   5.271   6.181   3.478  0.5010 -1.2260  0.3842
  125SOPE  C21213369   5.179   6.086   3.638 -0.5758 -0.3548  1.3528
  125SOPE  H12R13370   5.255   6.005   3.640  0.8515  0.9376  0.9507
  125SOPE  H12S13371   5.081   6.042   3.669 -0.1309 -3.3125 -0.9967
  125SOPE  C21313372   5.237   6.183   3.741  0.4751 -0.2789 -0.0969
  125SOPE  H13R13373   5.161   6.259   3.766 -0.4340 -0.4951 -2.0427
  125SOPE  H13S13374   5.329   6.231   3.700 -0.8063  1.7498 -0.7304
  125SOPE  C21413375   5.260   6.114   3.877 -1.1061  0.0844  0.3246
  125SOPE  H14R13376   5.305   6.187   3.948 -2.7934  1.4205  0.0743
  125SOPE  H14S13377   5.328   6.028   3.858 -1.5455 -0.3094  0.5302
  125SOPE  C21513378   5.143   6.051   3.948  0.6595  0.4258 -0.4057
  125SOPE  H15R13379   5.110   5.967   3.882 -1.1848  1.8303 -1.3659
  125SOPE  H15S13380   5.056   6.119   3.961  1.2988  1.6924 -2.2770
  125SOPE  C21613381   5.199   5.983   4.074 -0.6227 -0.1793  0.1717
  125SOPE  H16R13382   5.212   6.063   4.150 -0.8477  0.0285 -0.0061
  125SOPE  H16S13383   5.295   5.931   4.055  0.9148  2.2209  0.9243
  125SOPE  C21713384   5.108   5.876   4.135 -0.2899  0.0825  0.3295
  125SOPE  H17R13385   5.093   5.792   4.065  0.6906 -0.1380  0.3690
  125SOPE  H17S13386   5.013   5.927   4.162 -0.6800 -1.3019  1.6953
  125SOPE  C21813387   5.158   5.809   4.268  0.7754 -0.4887  0.7537
  125SOPE  H18R13388   5.227   5.727   4.240 -2.4432 -3.1139 -0.0840
  125SOPE  H18S13389   5.075   5.767   4.329  0.8979  0.5793  1.6948
  125SOPE  H18T13390   5.208   5.882   4.335  0.8295 -1.1790  1.4720
  125SOPE   C3313391   5.228   5.563   2.811  0.7799 -0.2173 -0.5613
  125SOPE   H3X13392   5.268   5.663   2.786 -0.8116  1.0352  1.5513
  125SOPE   H3Y13393   5.322   5.504   2.818 -0.2104 -2.3302 -3.1527
  125SOPE   C3413394   5.150   5.581   2.939  0.1204  0.0866 -0.0122
  125SOPE   H4X13395   5.098   5.486   2.962  1.6245 -0.9016 -0.5175
  125SOPE   H4Y13396   5.078   5.665   2.937  0.6394  0.5274 -0.7577
  125SOPE   C3513397   5.243   5.613   3.058  0.0696  0.4454  0.6631
  125SOPE   H5X13398   5.257   5.723   3.054  0.1334  0.4080 -0.4750
  125SOPE   H5Y13399   5.339   5.562   3.037 -0.3215  0.7548 -2.3672
  125SOPE   C3613400   5.193   5.574   3.193  0.6688  1.0982 -0.1874
  125SOPE   H6X13401   5.272   5.601   3.267 -0.0374 -1.4448  1.6373
  125SOPE   H6Y13402   5.179   5.463   3.196  0.3346  1.0967 -1.3530
  125SOPE   C3713403   5.062   5.625   3.251  0.1704 -0.4227 -0.4222
  125SOPE   H7X13404   4.978   5.601   3.182 -0.0792  0.0257 -0.2812
  125SOPE   H7Y13405   5.072   5.734   3.270  2.2957 -0.9435  2.1025
  125SOPE   C3813406   5.037   5.561   3.388 -0.2563 -0.0809  0.1755
  125SOPE   H8X13407   5.048   5.451   3.375 -3.3975 -0.4926  0.2496
  125SOPE   H8Y13408   4.932   5.590   3.411  0.6482  2.5252  1.4428
  125SOPE   C3913409   5.130   5.597   3.502  0.4599  0.1079 -0.1019
  125SOPE   H9X13410   5.150   5.706   3.512  2.4593 -0.3266  1.0895
  125SOPE   H9Y13411   5.232   5.559   3.480  0.6067  0.0770  0.6008
  125SOPE  C31013412   5.096   5.551   3.647  0.0619  0.2395  0.7269
  125SOPE  H10X13413   5.072   5.443   3.642  2.4413 -0.3887  1.3016
  125SOPE  H10Y13414   5.002   5.600   3.679  0.7641  1.1857  1.3963
  125SOPE  C31113415   5.211   5.572   3.739 -0.0916  0.1752 -0.4526
  125SOPE  H11X13416   5.245   5.677   3.751 -1.1170  0.4440  0.2255
  125SOPE  H11Y13417   5.307   5.528   3.707  2.6254  2.5199  3.5419
  125SOPE  C31213418   5.169   5.504   3.872 -0.8316  1.0717  0.2078
  125SOPE  H12X13419   5.133   5.403   3.845  1.7351  0.2681 -0.4138
  125SOPE  H12Y13420   5.087   5.558   3.926  0.2444 -0.3069  3.4710
  125SOPE  C31313421   5.282   5.484   3.969 -0.1910 -0.4098  0.5544
  125SOPE  H13X13422   5.295   5.580   4.024  1.3860 -0.7523  0.8336
  125SOPE  H13Y13423   5.372   5.482   3.904 -1.8118  1.9374 -1.9672
  125SOPE  C31413424   5.252   5.373   4.069 -1.1676 -0.5977 -0.4722
  125SOPE  H14X13425   5.225   5.284   4.008  0.6252 -0.1873 -1.9507
  125SOPE  H14Y13426   5.162   5.401   4.128 -0.9001 -2.4486  0.8939
  125SOPE  C31513427   5.376   5.334   4.146 -0.3748 -0.5089  0.0546
  125SOPE  H15X13428   5.420   5.425   4.192 -1.1977  0.9215 -1.8689
  125SOPE  H15Y13429   5.453   5.283   4.084 -1.2994 -1.5387 -0.2879
  125SOPE  C31613430   5.358   5.230   4.265 -0.1614 -0.1172 -0.3110
  125SOPE  H16X13431   5.288   5.276   4.338  0.6502  0.8112 -0.0958
  125SOPE  H16Y13432   5.460   5.221   4.309  0.3293  0.9309 -1.1827
  125SOPE  C31713433   5.317   5.095   4.228  0.7216  0.6019  0.2610
  125SOPE  H17X13434   5.402   5.050   4.172  0.6949  1.7004 -0.6934
  125SOPE  H17Y13435   5.235   5.090   4.153  1.4057  2.4878 -0.6753
  125SOPE  C31813436   5.272   5.004   4.350  0.1301 -0.2355  0.0306
  125SOPE  H18X13437   5.322   5.026   4.446 -1.1726  1.3234  0.3991
  125SOPE  H18Y13438   5.303   4.899   4.326  0.8821 -0.2554  1.0539
  125SOPE  H18Z13439   5.162   5.012   4.361  0.0019 -0.0043 -1.2542
  126SOPE     N13440   0.821   2.590   2.000  0.5538 -0.3150 -0.0658
  126SOPE   HN113441   0.857   2.492   1.990  0.1682 -0.3005 -1.9764
  126SOPE   HN213442   0.815   2.600   2.103 -2.2047  1.3962 -0.3024
  126SOPE   HN313443   0.730   2.590   1.950  0.4571 -2.8922 -0.0209
  126SOPE   C1213444   0.911   2.697   1.941 -0.0477  0.1567 -0.3234
  126SOPE  H12A13445   0.885   2.801   1.969 -0.5669  0.0801 -0.5194
  126SOPE  H12B13446   0.900   2.692   1.831 -0.6032  3.5176 -0.5120
  126SOPE   C1113447   1.061   2.671   1.968  0.4305  0.1076  0.0695
  126SOPE  H11A13448   1.076   2.674   2.079  0.0084 -1.7549  0.2189
  126SOPE  H11B13449   1.124   2.739   1.907 -1.7120  1.3899 -0.7804
  126SOPE     P13450   1.221   2.476   1.923  0.2513 -0.1101 -0.0285
  126SOPE   O1313451   1.313   2.567   1.846  0.1026 -0.3537  0.1348
  126SOPE   O1413452   1.216   2.338   1.872 -0.1085 -0.5150  0.0776
  126SOPE   O1213453   1.079   2.535   1.925  0.5852  0.1664 -0.3463
  126SOPE   O1113454   1.259   2.479   2.081  0.2584  0.1878 -0.1590
  126SOPE    C113455   1.186   2.394   2.170  0.5857  0.2435 -0.3223
  126SOPE    HA13456   1.186   2.289   2.134 -1.7062  0.1568 -0.2275
  126SOPE    HB13457   1.087   2.441   2.190  0.8705  1.2438 -1.1371
  126SOPE    C213458   1.257   2.412   2.310  0.4332  0.4928  0.1178
  126SOPE    HS13459   1.196   2.368   2.392  0.7651  1.3331  0.8210
  126SOPE   O2113460   1.280   2.550   2.333 -0.2436  0.0671 -0.2134
  126SOPE   C2113461   1.167   2.613   2.379  0.0766  0.7324 -0.1276
  126SOPE   O2213462   1.064   2.556   2.409 -0.0123  0.6728  0.0346
  126SOPE   C2213463   1.192   2.764   2.380  0.1128  0.2500 -0.2875
  126SOPE   H2R13464   1.141   2.804   2.290 -1.3839 -1.9598 -0.4938
  126SOPE   H2S13465   1.302   2.780   2.379  0.1334  0.2890  1.0072
  126SOPE    C313466   1.389   2.336   2.316  0.3196  0.2848  0.2400
  126SOPE    HX13467   1.474   2.401   2.288  2.2131 -1.6978  1.0677
  126SOPE    HY13468   1.379   2.256   2.240  2.5501  0.1940 -0.0314
  126SOPE   O3113469   1.405   2.273   2.448 -0.1827 -0.1649 -0.8879
  126SOPE   C3113470   1.449   2.346   2.550 -0.1090 -0.5704  0.3162
  126SOPE   O3213471   1.495   2.458   2.530 -0.6282  0.4125  0.3233
  126SOPE   C3213472   1.439   2.284   2.693 -0.6009  0.0562  0.4884
  126SOPE   H2X13473   1.543   2.251   2.715 -0.3008  0.2213 -0.6157
  126SOPE   H2Y13474   1.389   2.185   2.690  1.4287 -1.0272  0.5644
  126SOPE   C2313475   1.134   2.820   2.514 -0.3490 -0.4579  0.0893
  126SOPE   H3R13476   1.029   2.789   2.534 -0.6504 -0.7256 -1.7441
  126SOPE   H3S13477   1.145   2.929   2.496  1.9694 -0.8092 -0.9865
  126SOPE   C2413478   1.231   2.778   2.635  0.2760  0.2303 -0.3814
  126SOPE   H4R13479   1.232   2.668   2.651 -0.2504  0.3671  0.6435
  126SOPE   H4S13480   1.334   2.800   2.599 -0.1415  0.4217 -1.5246
  126SOPE   C2513481   1.206   2.864   2.758 -0.8635 -0.5951 -0.6890
  126SOPE   H5R13482   1.216   2.973   2.742 -2.1687 -0.6075 -1.7866
  126SOPE   H5S13483   1.099   2.844   2.779 -1.1678 -1.8256 -3.0806
  126SOPE   C2613484   1.290   2.813   2.875 -0.0393  0.3536  0.2502
  126SOPE   H6R13485   1.269   2.704   2.883 -0.3674  0.3631 -0.4474
  126SOPE   H6S13486   1.397   2.813   2.847  0.0498 -0.9061  0.5245
  126SOPE   C2713487   1.250   2.873   3.010  0.2850 -0.5190  0.0787
  126SOPE   H7R13488   1.282   2.980   3.006  0.2274 -0.4513  1.2356
  126SOPE   H7S13489   1.139   2.881   3.009  0.3969  1.7357 -1.2737
  126SOPE   C2813490   1.298   2.798   3.133 -0.1990  0.0021  0.7636
  126SOPE   H8R13491   1.229   2.835   3.212  0.3634  2.5569  0.1520
  126SOPE   H8S13492   1.270   2.691   3.123 -0.5349  0.1693 -0.2943
  126SOPE   C2913493   1.436   2.815   3.177 -0.9054  0.0700  0.7284
  126SOPE   H9113494   1.501   2.787   3.093 -1.3952  0.5326  0.1843
  126SOPE  C21013495   1.475   2.824   3.309 -0.0057  1.1520 -0.0829
  126SOPE  H10113496   1.581   2.840   3.333 -0.2953  3.2530 -0.0267
  126SOPE  C21113497   1.396   2.860   3.427 -0.4369 -1.2281  0.0509
  126SOPE  H11R13498   1.286   2.873   3.416 -0.5120 -1.1245  0.8553
  126SOPE  H11S13499   1.417   2.965   3.454 -2.4670  0.0473 -2.8007
  126SOPE  C21213500   1.423   2.774   3.546 -0.2595  0.4291 -0.2965
  126SOPE  H12R13501   1.392   2.669   3.524  0.9641 -0.1270  0.4940
  126SOPE  H12S13502   1.355   2.795   3.631  0.2157  2.2353 -0.3281
  126SOPE  C21313503   1.571   2.783   3.597  0.0760 -0.3201 -0.5808
  126SOPE  H13R13504   1.604   2.882   3.634  1.6344 -0.7581 -0.7414
  126SOPE  H13S13505   1.644   2.755   3.517 -1.3362 -0.3522 -1.9157
  126SOPE  C21413506   1.574   2.691   3.718  0.0342 -0.3414 -0.6243
  126SOPE  H14R13507   1.536   2.588   3.700  0.3576 -0.7787  1.0148
  126SOPE  H14S13508   1.519   2.750   3.796 -1.0533  0.2875 -1.8258
  126SOPE  C21513509   1.724   2.670   3.765 -0.5825 -0.3736  0.0563
  126SOPE  H15R13510   1.771   2.753   3.822  1.9090 -2.0837  0.6394
  126SOPE  H15S13511   1.785   2.649   3.675  0.9366  2.7291  0.2540
  126SOPE  C21613512   1.753   2.568   3.875  0.3217  0.1320  0.7259
  126SOPE  H16R13513   1.701   2.474   3.848  0.6015 -0.4560  2.1655
  126SOPE  H16S13514   1.714   2.606   3.971 -0.6050  2.9312 -0.6438
  126SOPE  C21713515   1.910   2.545   3.879 -0.0611 -0.2847 -0.0550
  126SOPE  H17R13516   1.951   2.526   3.778  1.8031 -1.8477  0.9214
  126SOPE  H17S13517   1.937   2.451   3.931  1.4771 -0.4930 -1.1772
  126SOPE  C21813518   1.995   2.658   3.940 -0.0683 -0.2647  0.2584
  126SOPE  H18R13519   1.979   2.748   3.878  1.1132  1.1983  1.9894
  126SOPE  H18S13520   2.103   2.634   3.946  0.0650  0.5978  3.6424
  126SOPE  H18T13521   1.954   2.667   4.043 -0.5513 -2.5650  0.3276
  126SOPE   C3313522   1.386   2.389   2.794  0.4979 -0.0517  0.6082
  126SOPE   H3X13523   1.275   2.392   2.783  0.5609 -1.2137 -0.6148
  126SOPE   H3Y13524   1.435   2.488   2.784  1.0835 -0.5153 -1.5699
  126SOPE   C3413525   1.421   2.331   2.928  0.1755 -0.1666  0.0545
  126SOPE   H4X13526   1.531   2.315   2.936  0.5764  1.4150 -1.4807
  126SOPE   H4Y13527   1.376   2.230   2.939  2.1417 -1.2061 -0.7635
  126SOPE   C3513528   1.376   2.420   3.042  0.1162 -0.2844 -0.4063
  126SOPE   H5X13529   1.273   2.454   3.022 -0.3774 -0.7248  1.2525
  126SOPE   H5Y13530   1.434   2.515   3.036 -0.6129  0.1407 -0.8362
  126SOPE   C3613531   1.388   2.356   3.184 -0.2745  0.1893  0.2499
  126SOPE   H6X13532   1.347   2.252   3.182 -1.2077  0.3637  3.5035
  126SOPE   H6Y13533   1.315   2.408   3.250 -0.7149  0.1325 -0.1868
  126SOPE   C3713534   1.528   2.365   3.237 -0.0989 -0.3110 -0.7241
  126SOPE   H7X13535   1.564   2.469   3.256 -0.6876 -0.2819  0.2923
  126SOPE   H7Y13536   1.593   2.331   3.154  3.8233  1.8175  1.1795
  126SOPE   C3813537   1.565   2.286   3.367 -0.3141  0.4634  0.1165
  126SOPE   H8X13538   1.665   2.324   3.396 -0.8215  3.0739 -1.2887
  126SOPE   H8Y13539   1.567   2.179   3.335  3.9547  0.8922 -1.7408
  126SOPE   C3913540   1.460   2.295   3.469 -0.0862 -0.2707 -0.4600
  126SOPE   H9X13541   1.358   2.261   3.442 -0.0170 -2.2472  1.4492
  126SOPE   H9Y13542   1.439   2.403   3.486 -1.3713 -0.6571  0.6464
  126SOPE  C31013543   1.511   2.212   3.585 -0.2152  0.0569 -0.3611
  126SOPE  H10X13544   1.574   2.127   3.550 -0.6510 -1.1305  1.5650
  126SOPE  H10Y13545   1.432   2.172   3.653 -1.9716  0.8194 -1.8777
  126SOPE  C31113546   1.602   2.298   3.678  0.5333  0.5089 -0.5356
  126SOPE  H11X13547   1.527   2.364   3.728  0.6937  0.3402 -0.0675
  126SOPE  H11Y13548   1.658   2.375   3.621  0.9948 -0.4249 -1.3696
  126SOPE  C31213549   1.683   2.208   3.775  0.0427  0.0278 -0.0926
  126SOPE  H12X13550   1.769   2.267   3.813  0.4852  0.7643 -2.1188
  126SOPE  H12Y13551   1.730   2.127   3.715  0.7111  1.0237 -0.9318
  126SOPE  C31313552   1.597   2.147   3.887  0.0527 -0.6156 -0.3777
  126SOPE  H13X13553   1.521   2.077   3.845 -0.0328 -0.0645 -1.1760
  126SOPE  H13Y13554   1.539   2.229   3.934 -0.8037 -0.8541 -0.9937
  126SOPE  C31413555   1.686   2.067   3.986  0.2966  0.4221 -0.4431
  126SOPE  H14X13556   1.739   2.143   4.048  1.2584 -0.6516  0.0736
  126SOPE  H14Y13557   1.765   2.017   3.926  1.8608  1.8947  0.3054
  126SOPE  C31513558   1.610   1.981   4.081 -0.9254  0.0202  0.0329
  126SOPE  H15X13559   1.558   1.901   4.024  3.5511 -3.0453 -0.2614
  126SOPE  H15Y13560   1.527   2.039   4.127 -1.6247 -0.5079 -0.5174
  126SOPE  C31613561   1.697   1.909   4.181 -0.4005  0.2161 -0.4351
  126SOPE  H16X13562   1.680   1.962   4.277 -0.0169 -1.3519  0.5264
  126SOPE  H16Y13563   1.802   1.927   4.150 -0.0689  1.0791  1.0655
  126SOPE  C31713564   1.671   1.759   4.216 -0.9741  0.4023  0.4725
  126SOPE  H17X13565   1.632   1.720   4.120  1.6805  1.4072 -1.1346
  126SOPE  H17Y13566   1.608   1.731   4.303 -2.5393  2.2618  0.0168
  126SOPE  C31813567   1.807   1.686   4.237 -0.3269  1.0367 -0.4599
  126SOPE  H18X13568   1.874   1.705   4.150 -1.6388 -1.5082 -2.1444
  126SOPE  H18Y13569   1.790   1.578   4.259 -1.3966  1.1122 -0.8857
  126SOPE  H18Z13570   1.859   1.725   4.327 -0.4913 -0.4475  0.3071
  127SOPE     N13571   4.469   6.032   2.385  0.0096  0.3062  0.2225
  127SOPE   HN113572   4.416   5.950   2.352  2.6331 -1.9413  1.2024
  127SOPE   HN213573   4.524   6.001   2.468  2.5083 -1.6038 -1.9704
  127SOPE   HN313574   4.407   6.111   2.414 -1.1942 -0.2808 -0.7028
  127SOPE   C1213575   4.554   6.085   2.281  0.0835 -0.7120 -0.3718
  127SOPE  H12A13576   4.601   6.182   2.306  0.0978 -0.3282 -1.7853
  127SOPE  H12B13577   4.483   6.100   2.197 -0.9655 -0.4204  0.5454
  127SOPE   C1113578   4.665   5.997   2.231 -0.4969 -0.0924 -0.3951
  127SOPE  H11A13579   4.757   6.003   2.293  0.8240 -0.6700 -2.2151
  127SOPE  H11B13580   4.698   6.046   2.137 -2.9731 -2.1052 -2.4937
  127SOPE     P13581   4.571   5.781   2.105 -0.2262 -0.2030 -0.1121
  127SOPE   O1313582   4.675   5.700   2.044  0.4428 -0.3267  0.3110
  127SOPE   O1413583   4.503   5.878   2.019 -0.2647  0.2588 -0.0665
  127SOPE   O1213584   4.636   5.860   2.228  0.1423  0.3970  0.2354
  127SOPE   O1113585   4.470   5.681   2.182 -0.3056 -0.1681  0.1431
  127SOPE    C113586   4.530   5.584   2.270  0.3098  0.1485  0.7093
  127SOPE    HA13587   4.625   5.618   2.315  0.2841  2.2205 -0.6738
  127SOPE    HB13588   4.566   5.492   2.219  2.6047  0.8360  0.9797
  127SOPE    C213589   4.437   5.555   2.391  0.6627  0.2259  0.6130
  127SOPE    HS13590   4.352   5.493   2.354  1.1458 -0.8415  1.2207
  127SOPE   O2113591   4.403   5.680   2.452 -0.1906  0.2060 -0.7376
  127SOPE   C2113592   4.300   5.676   2.530  0.3448  0.4728 -0.3712
  127SOPE   O2213593   4.218   5.586   2.535 -0.0570  0.2411 -0.0408
  127SOPE   C2213594   4.293   5.813   2.596  0.0331 -0.3657 -0.5057
  127SOPE   H2R13595   4.288   5.887   2.513 -0.4190 -1.0801 -1.1321
  127SOPE   H2S13596   4.392   5.829   2.643 -0.0441 -2.4184  0.4658
  127SOPE    C313597   4.506   5.464   2.499  0.4505 -0.2151 -0.6589
  127SOPE    HX13598   4.591   5.516   2.549  0.5559 -0.4505 -0.5937
  127SOPE    HY13599   4.548   5.382   2.437  1.2915  0.4956 -1.0671
  127SOPE   O3113600   4.416   5.415   2.604 -0.1537  0.1555  0.2489
  127SOPE   C3113601   4.381   5.283   2.582 -0.0054 -0.9003  0.0126
  127SOPE   O3213602   4.390   5.218   2.483 -0.1203  0.3751  0.0076
  127SOPE   C3213603   4.302   5.244   2.712 -0.4615  0.5479  0.4700
  127SOPE   H2X13604   4.369   5.169   2.758  2.1558  0.9997 -2.3106
  127SOPE   H2Y13605   4.202   5.201   2.688 -0.8608  2.0928 -0.8769
  127SOPE   C2313606   4.180   5.843   2.704 -0.2189  0.3505  0.3876
  127SOPE   H3R13607   4.088   5.798   2.662  0.4646  0.1865 -0.9900
  127SOPE   H3S13608   4.168   5.952   2.719  1.6308  0.7882 -0.9574
  127SOPE   C2413609   4.206   5.786   2.839  0.8764  0.5354  0.1754
  127SOPE   H4R13610   4.199   5.675   2.850  0.7875  0.6934  1.9051
  127SOPE   H4S13611   4.306   5.824   2.868  0.7211  3.2378 -2.3423
  127SOPE   C2513612   4.111   5.851   2.944 -0.6630 -0.2559  0.8799
  127SOPE   H5R13613   4.140   5.958   2.955  3.4762 -0.9222 -1.4916
  127SOPE   H5S13614   4.015   5.850   2.887  0.1677  2.9039 -0.8118
  127SOPE   C2613615   4.092   5.776   3.072 -0.3987  0.2511 -0.6767
  127SOPE   H6R13616   4.070   5.669   3.054 -0.6979  0.5008 -1.8172
  127SOPE   H6S13617   4.192   5.777   3.123 -0.7369 -1.7543  0.1020
  127SOPE   C2713618   3.973   5.838   3.155 -0.1125 -0.0612 -0.1302
  127SOPE   H7R13619   3.880   5.837   3.094  1.2482  0.7182 -2.3363
  127SOPE   H7S13620   3.953   5.781   3.248  1.1588 -1.4616 -0.6549
  127SOPE   C2813621   3.989   5.989   3.190  0.1025 -0.2634 -0.1085
  127SOPE   H8R13622   4.016   6.050   3.101  3.7941 -2.2473 -0.5400
  127SOPE   H8S13623   3.882   6.010   3.213  0.6963  0.7031  1.9705
  127SOPE   C2913624   4.085   6.021   3.302 -0.6548 -0.2218  0.3189
  127SOPE   H9113625   4.183   6.052   3.264 -2.3321  1.9614 -2.5924
  127SOPE  C21013626   4.067   6.021   3.437  0.6958 -0.3791 -0.0602
  127SOPE  H10113627   4.155   6.041   3.500  0.4624 -0.0668  0.1676
  127SOPE  C21113628   3.939   5.976   3.511  0.0306  0.4810 -0.4275
  127SOPE  H11R13629   3.854   5.974   3.440  0.6095 -0.0348 -1.1164
  127SOPE  H11S13630   3.921   6.053   3.588 -1.1193  0.4036 -0.6003
  127SOPE  C21213631   3.946   5.823   3.566  0.0995 -0.3606 -1.3317
  127SOPE  H12R13632   3.965   5.759   3.477 -2.3923 -0.1417 -2.0981
  127SOPE  H12S13633   3.845   5.794   3.601 -0.7722  1.3260 -2.3612
  127SOPE  C21313634   4.056   5.790   3.669  0.8027 -0.0851  0.6261
  127SOPE  H13R13635   4.151   5.838   3.634  2.2358 -2.4947  0.9772
  127SOPE  H13S13636   4.064   5.680   3.680 -1.9876 -0.3059  1.0711
  127SOPE  C21413637   4.002   5.840   3.807  0.4610  0.2522  0.5176
  127SOPE  H14R13638   3.913   5.774   3.817  1.6233 -1.5889 -0.6764
  127SOPE  H14S13639   3.975   5.947   3.795 -0.3803  0.0064  0.1659
  127SOPE  C21513640   4.105   5.828   3.922  0.1944  0.2751  0.7609
  127SOPE  H15R13641   4.189   5.901   3.925  1.3022 -0.9271  0.1454
  127SOPE  H15S13642   4.158   5.730   3.923 -1.4421 -0.6440  2.0425
  127SOPE  C21613643   4.023   5.829   4.052  0.3795  0.4071  0.4475
  127SOPE  H16R13644   3.931   5.767   4.045  0.5188 -0.1206  2.4882
  127SOPE  H16S13645   3.992   5.933   4.073  0.6965  0.3306  1.3410
  127SOPE  C21713646   4.092   5.765   4.175 -0.1709  0.2884  0.0964
  127SOPE  H17R13647   4.160   5.842   4.216  0.7149 -0.4235  0.0201
  127SOPE  H17S13648   4.152   5.672   4.159  0.3072  0.6364 -0.1569
  127SOPE  C21813649   3.997   5.734   4.289  0.0754 -0.0344  0.0423
  127SOPE  H18R13650   4.043   5.699   4.384 -0.3463 -0.6042  0.0461
  127SOPE  H18S13651   3.946   5.640   4.260  0.4912  0.1630 -1.3679
  127SOPE  H18T13652   3.923   5.816   4.308 -2.0706 -1.5735 -1.2350
  127SOPE   C3313653   4.282   5.347   2.824  0.2478 -0.3110  0.1956
  127SOPE   H3X13654   4.214   5.428   2.790  0.3793  0.5086  1.8067
  127SOPE   H3Y13655   4.383   5.382   2.851  0.2445  0.8504 -1.1856
  127SOPE   C3413656   4.230   5.298   2.960  0.4284  0.3671 -0.3982
  127SOPE   H4X13657   4.320   5.273   3.020 -0.2834  3.4014  2.1966
  127SOPE   H4Y13658   4.155   5.217   2.952 -1.5673  1.8047  2.0561
  127SOPE   C3513659   4.151   5.403   3.044 -0.2618 -0.2704 -0.3785
  127SOPE   H5X13660   4.059   5.427   2.985 -0.8150  3.4491  1.6297
  127SOPE   H5Y13661   4.205   5.498   3.064 -0.0856  0.6023 -4.2360
  127SOPE   C3613662   4.111   5.353   3.187  0.3679  0.2721 -0.9855
  127SOPE   H6X13663   4.202   5.327   3.244 -1.5886 -1.6683  1.4640
  127SOPE   H6Y13664   4.047   5.265   3.168  0.0978  0.2721 -0.1170
  127SOPE   C3713665   4.017   5.441   3.268 -0.2219  0.5691  0.5093
  127SOPE   H7X13666   3.923   5.441   3.208  0.1651 -3.6805 -0.4186
  127SOPE   H7Y13667   4.060   5.541   3.289  0.3920  0.5471 -0.6060
  127SOPE   C3813668   3.987   5.380   3.405 -0.5195 -0.3705 -0.7648
  127SOPE   H8X13669   3.965   5.272   3.398  1.1453 -0.6931 -1.6329
  127SOPE   H8Y13670   3.898   5.427   3.453  0.8237  0.5215  1.0067
  127SOPE   C3913671   4.101   5.408   3.506 -0.2226 -0.3944 -0.1373
  127SOPE   H9X13672   4.134   5.513   3.497  2.6172 -0.9478  2.1420
  127SOPE   H9Y13673   4.189   5.341   3.494 -0.2262 -0.4769  0.2509
  127SOPE  C31013674   4.052   5.399   3.653  0.0378  0.0840 -0.5669
  127SOPE  H10X13675   4.029   5.291   3.668  0.3663 -0.2406 -2.2276
  127SOPE  H10Y13676   3.963   5.463   3.670 -0.4633 -0.8771  0.5679
  127SOPE  C31113677   4.160   5.434   3.752 -0.2688  0.3964 -0.7968
  127SOPE  H11X13678   4.214   5.531   3.748 -0.1268  0.4945  1.6349
  127SOPE  H11Y13679   4.234   5.354   3.732  0.2973  0.8462 -0.5426
  127SOPE  C31213680   4.106   5.423   3.903 -0.7595  0.2789  0.0758
  127SOPE  H12X13681   4.020   5.493   3.906  0.0748  1.3499 -0.3924
  127SOPE  H12Y13682   4.186   5.455   3.973  0.0048  0.5442 -0.9041
  127SOPE  C31313683   4.060   5.286   3.954 -0.1553 -0.8081  0.7357
  127SOPE  H13X13684   4.137   5.211   3.926 -0.1850 -1.2531  1.7764
  127SOPE  H13Y13685   3.976   5.260   3.887  1.5627 -2.0508 -1.0706
  127SOPE  C31413686   4.015   5.270   4.097 -0.1575  0.2204 -0.0521
  127SOPE  H14X13687   3.981   5.164   4.106 -0.8372  0.4157 -0.2351
  127SOPE  H14Y13688   3.919   5.324   4.113 -1.1849 -1.2551 -0.9642
  127SOPE  C31513689   4.112   5.318   4.209 -0.4822  0.4249 -0.0916
  127SOPE  H15X13690   4.133   5.425   4.187  0.4345  0.5071  1.1091
  127SOPE  H15Y13691   4.210   5.266   4.193 -0.8592 -0.1467 -0.5831
  127SOPE  C31613692   4.060   5.299   4.351 -0.2415  0.5029  0.3185
  127SOPE  H16X13693   4.065   5.193   4.384 -0.4291  0.0988 -0.8816
  127SOPE  H16Y13694   3.953   5.329   4.349 -0.4839 -0.3275 -0.9376
  127SOPE  C31713695   4.135   5.382   4.456 -0.6837 -0.0801  0.0818
  127SOPE  H17X13696   4.083   5.348   4.548 -0.1629  0.0291  0.4246
  127SOPE  H17Y13697   4.133   5.491   4.438 -2.0164  0.1420  1.3877
  127SOPE  C31813698   4.285   5.342   4.486  0.2691 -0.3896  0.5459
  127SOPE  H18X13699   4.300   5.232   4.476 -3.5790 -1.2029  1.8661
  127SOPE  H18Y13700   4.304   5.359   4.594  1.1081  0.0224  0.3402
  127SOPE  H18Z13701   4.362   5.401   4.432 -0.1439  0.4453  0.8467
  128SOPE     N13702   4.114   3.594   1.897  0.4715  0.4803 -0.3985
  128SOPE   HN113703   4.128   3.633   1.992  0.5797 -1.1216  0.2814
  128SOPE   HN213704   4.149   3.657   1.823  3.0062 -0.1638  0.1567
  128SOPE   HN313705   4.011   3.584   1.896  0.5316 -1.5172  2.1843
  128SOPE   C1213706   4.169   3.457   1.899  0.0375  0.0214  0.6516
  128SOPE  H12A13707   4.124   3.409   1.810 -0.0254  2.0167 -0.4405
  128SOPE  H12B13708   4.126   3.408   1.989  0.4572 -0.2265  0.7180
  128SOPE   C1113709   4.323   3.448   1.881  0.5954 -0.1743  0.0908
  128SOPE  H11A13710   4.361   3.495   1.788 -0.4741 -2.2895 -1.4955
  128SOPE  H11B13711   4.360   3.345   1.865  0.8097 -0.2584  1.0888
  128SOPE     P13712   4.534   3.485   2.050  0.4283  0.0791  0.1248
  128SOPE   O1313713   4.569   3.595   2.145  0.4468 -0.2204  0.4083
  128SOPE   O1413714   4.627   3.460   1.941 -0.4599  0.1865  0.4111
  128SOPE   O1213715   4.392   3.511   1.989  0.0651 -0.9871 -1.2242
  128SOPE   O1113716   4.503   3.353   2.139 -0.2181  0.3629 -0.2967
  128SOPE    C113717   4.387   3.330   2.213  0.6251  0.0665  0.0031
  128SOPE    HA13718   4.315   3.269   2.155  0.2112  0.2746  0.2879
  128SOPE    HB13719   4.338   3.429   2.228  1.3034  0.4896 -0.5142
  128SOPE    C213720   4.414   3.267   2.350  0.6388  0.8052 -0.2178
  128SOPE    HS13721   4.316   3.248   2.400 -0.0137  2.5390 -0.7655
  128SOPE   O2113722   4.508   3.343   2.432  0.7599 -0.0952  0.4170
  128SOPE   C2113723   4.454   3.464   2.465  0.4816 -0.0091 -1.1518
  128SOPE   O2213724   4.338   3.493   2.439  0.9575 -0.5067 -0.3821
  128SOPE   C2213725   4.552   3.540   2.562 -0.1864 -0.2727  0.1630
  128SOPE   H2R13726   4.505   3.637   2.589  0.2701  0.1100 -0.3875
  128SOPE   H2S13727   4.633   3.565   2.490 -3.0779 -0.2694 -3.4022
  128SOPE    C313728   4.482   3.131   2.321  0.9650  1.1998 -0.5408
  128SOPE    HX13729   4.585   3.145   2.284  1.1433  0.7041 -0.2408
  128SOPE    HY13730   4.423   3.083   2.240  0.6815  2.0288 -0.8406
  128SOPE   O3113731   4.470   3.051   2.442 -0.3600  0.5034  0.0984
  128SOPE   C3113732   4.566   3.056   2.532  0.5844 -0.0435 -0.6792
  128SOPE   O3213733   4.675   3.105   2.519 -0.2520 -0.3498  0.8706
  128SOPE   C3213734   4.526   2.975   2.660 -0.5528  0.4786  0.3231
  128SOPE   H2X13735   4.619   2.916   2.674 -0.9338  0.0876  1.2730
  128SOPE   H2Y13736   4.437   2.912   2.637 -0.5233  1.3172 -2.4583
  128SOPE   C2313737   4.592   3.454   2.689  0.2649  0.2574  0.3558
  128SOPE   H3R13738   4.658   3.369   2.661  0.7322  0.6037  0.3937
  128SOPE   H3S13739   4.497   3.422   2.737  0.0067  2.1554  1.1886
  128SOPE   C2413740   4.666   3.525   2.798 -0.2651 -0.7114 -0.5267
  128SOPE   H4R13741   4.767   3.555   2.764  0.4253 -2.6592 -0.2781
  128SOPE   H4S13742   4.620   3.624   2.818  1.9464 -0.2740  3.2906
  128SOPE   C2513743   4.676   3.428   2.915 -0.2407 -0.3430  0.6252
  128SOPE   H5R13744   4.570   3.410   2.944 -0.4083 -2.4510 -1.0993
  128SOPE   H5S13745   4.732   3.336   2.890  2.0883  1.8054 -2.9001
  128SOPE   C2613746   4.739   3.496   3.038  0.2734 -0.2475 -0.2936
  128SOPE   H6R13747   4.842   3.538   3.038 -0.2610  1.2216  1.3105
  128SOPE   H6S13748   4.674   3.584   3.058  1.8913  1.0709 -0.5953
  128SOPE   C2713749   4.724   3.406   3.162 -0.4081 -0.0185 -0.9186
  128SOPE   H7R13750   4.746   3.465   3.253 -0.4839 -0.4956 -0.5906
  128SOPE   H7S13751   4.619   3.370   3.164 -0.6037  0.5025  2.2468
  128SOPE   C2813752   4.823   3.283   3.147  0.1843 -0.4306 -0.3503
  128SOPE   H8R13753   4.780   3.191   3.190 -0.0953 -0.2024 -0.1358
  128SOPE   H8S13754   4.839   3.259   3.040 -2.2136  0.3631 -0.9530
  128SOPE   C2913755   4.954   3.312   3.227  0.1395 -0.2413  0.3835
  128SOPE   H9113756   5.036   3.355   3.168 -1.4352  0.6743 -1.2556
  128SOPE  C21013757   4.972   3.317   3.357 -0.1830 -0.4620  0.3344
  128SOPE  H10113758   5.066   3.349   3.405 -0.2275  0.9815 -0.4694
  128SOPE  C21113759   4.859   3.285   3.452  0.2776  0.7785  0.1832
  128SOPE  H11R13760   4.876   3.186   3.498 -0.8142  0.8841  0.8397
  128SOPE  H11S13761   4.759   3.284   3.403  1.0005  1.9777 -1.4357
  128SOPE  C21213762   4.835   3.383   3.570 -0.2292  0.6882 -0.0804
  128SOPE  H12R13763   4.845   3.483   3.523  0.7488  0.3389 -0.6466
  128SOPE  H12S13764   4.920   3.381   3.641 -0.1146  2.3618 -0.1301
  128SOPE  C21313765   4.706   3.359   3.648  0.1866  0.1523  0.3083
  128SOPE  H13R13766   4.708   3.248   3.656 -1.0067  0.2289  2.5554
  128SOPE  H13S13767   4.624   3.393   3.581  0.2357 -1.9541 -0.9129
  128SOPE  C21413768   4.724   3.409   3.790  0.1974 -0.4957 -0.0080
  128SOPE  H14R13769   4.738   3.519   3.778  0.9679 -0.6196 -0.3448
  128SOPE  H14S13770   4.822   3.388   3.838  0.5362 -0.7462 -0.7813
  128SOPE  C21513771   4.619   3.380   3.896 -0.0596 -0.3734  0.0689
  128SOPE  H15R13772   4.635   3.272   3.918  1.4819 -0.2320 -0.2749
  128SOPE  H15S13773   4.517   3.395   3.854  0.7552  0.5765 -1.6550
  128SOPE  C21613774   4.640   3.475   4.017 -0.0229 -0.6257  0.5517
  128SOPE  H16R13775   4.621   3.582   3.996  0.1774 -0.0701  2.9454
  128SOPE  H16S13776   4.749   3.470   4.037  0.1267  0.3099  0.0037
  128SOPE  C21713777   4.549   3.442   4.133 -0.3844  0.3514  0.1489
  128SOPE  H17R13778   4.596   3.472   4.229  0.8021 -2.2464  0.4750
  128SOPE  H17S13779   4.544   3.331   4.147  3.1563 -0.0752 -0.7934
  128SOPE  C21813780   4.416   3.515   4.122 -0.5086 -0.3758  0.1287
  128SOPE  H18R13781   4.363   3.466   4.037  1.7003  0.3145 -1.7920
  128SOPE  H18S13782   4.421   3.624   4.101 -0.4644 -0.5098 -0.5837
  128SOPE  H18T13783   4.351   3.506   4.211 -0.1700 -0.4224  0.3754
  128SOPE   C3313784   4.509   3.074   2.778 -0.6732  0.4773 -0.1559
  128SOPE   H3X13785   4.443   3.159   2.748 -1.4296  0.1659  0.5578
  128SOPE   H3Y13786   4.611   3.104   2.808 -0.4039 -2.7771  2.8582
  128SOPE   C3413787   4.447   3.015   2.906 -0.2253  0.0932 -0.2580
  128SOPE   H4X13788   4.528   2.951   2.947 -1.2896 -1.0080  0.1937
  128SOPE   H4Y13789   4.354   2.963   2.875 -1.1026  0.4554  1.6738
  128SOPE   C3513790   4.413   3.117   3.021 -0.1625 -0.2978  0.3204
  128SOPE   H5X13791   4.349   3.197   2.978  0.2290 -0.9897 -1.6270
  128SOPE   H5Y13792   4.506   3.176   3.034 -0.6506  0.7197 -0.5853
  128SOPE   C3613793   4.361   3.054   3.146 -0.1184  0.8904 -0.5254
  128SOPE   H6X13794   4.390   2.948   3.134  0.2645  1.0768 -1.3440
  128SOPE   H6Y13795   4.253   3.059   3.172  0.1552  1.4888  0.5414
  128SOPE   C3713796   4.438   3.096   3.271 -0.5978 -0.1690 -0.2811
  128SOPE   H7X13797   4.423   3.205   3.284 -0.2741 -0.3072  1.4405
  128SOPE   H7Y13798   4.547   3.078   3.257 -0.6230 -1.0025  0.5467
  128SOPE   C3813799   4.396   3.017   3.392  0.4404 -0.3101 -0.4473
  128SOPE   H8X13800   4.446   2.918   3.392 -2.6967 -2.0423 -1.8751
  128SOPE   H8Y13801   4.288   2.990   3.384  0.7006 -2.5742  2.2857
  128SOPE   C3913802   4.433   3.088   3.522 -0.5920 -0.1635  0.3967
  128SOPE   H9X13803   4.391   3.191   3.525 -1.2643 -0.3848 -0.8100
  128SOPE   H9Y13804   4.543   3.099   3.532 -0.6435 -0.1921  1.0616
  128SOPE  C31013805   4.380   3.011   3.645 -0.5114 -0.1349  0.3525
  128SOPE  H10X13806   4.418   2.907   3.650  0.5862  0.1840 -0.8102
  128SOPE  H10Y13807   4.273   2.988   3.628 -1.1928  1.4113  2.1413
  128SOPE  C31113808   4.392   3.090   3.772 -0.2131  0.2399 -1.0338
  128SOPE  H11X13809   4.319   3.173   3.771  2.1819  2.5930  1.7055
  128SOPE  H11Y13810   4.490   3.136   3.795 -0.5301 -0.4024  1.9451
  128SOPE  C31213811   4.350   3.012   3.897 -0.4975  0.8125  0.1229
  128SOPE  H12X13812   4.413   2.920   3.907  0.0051  0.8332 -2.2296
  128SOPE  H12Y13813   4.250   2.965   3.898 -0.5539  0.9069  1.7994
  128SOPE  C31313814   4.366   3.086   4.021 -0.2716 -0.0324 -0.2647
  128SOPE  H13X13815   4.291   3.168   4.027 -2.6398 -2.0388 -0.8993
  128SOPE  H13Y13816   4.466   3.135   4.017  0.9566 -2.1629  1.7446
  128SOPE  C31413817   4.354   3.011   4.153 -0.0517  0.5742 -0.3609
  128SOPE  H14X13818   4.442   2.946   4.169 -1.5097 -1.9955 -2.0975
  128SOPE  H14Y13819   4.272   2.936   4.158  0.4605  0.0690  0.6291
  128SOPE  C31513820   4.333   3.106   4.267  0.4796 -0.0002 -0.6546
  128SOPE  H15X13821   4.254   3.183   4.254 -1.3210 -1.2112  2.2269
  128SOPE  H15Y13822   4.430   3.159   4.281 -0.9577  2.6239 -0.0468
  128SOPE  C31613823   4.299   3.030   4.394 -0.3533  0.6250 -0.4106
  128SOPE  H16X13824   4.391   2.970   4.411 -1.1765 -0.3521  0.8098
  128SOPE  H16Y13825   4.208   2.967   4.382 -1.8598  2.7264 -0.5711
  128SOPE  C31713826   4.273   3.111   4.520 -0.2401 -0.1154 -0.2176
  128SOPE  H17X13827   4.196   3.186   4.494 -0.8831 -0.9947 -0.9389
  128SOPE  H17Y13828   4.365   3.167   4.549 -0.1683  0.1466 -0.9197
  128SOPE  C31813829   4.224   3.033   4.636  0.0050  0.6515 -0.3134
  128SOPE  H18X13830   4.135   2.971   4.610  0.6028 -0.5018  0.3091
  128SOPE  H18Y13831   4.201   3.101   4.721 -0.9552 -0.3868  0.2910
  128SOPE  H18Z13832   4.305   2.962   4.664  0.1597 -0.4208 -3.1982
  129OSM      N13833   5.259   5.351   6.934 -0.0013  0.0072 -0.7087
  129OSM    C1513834   5.305   5.418   7.061 -0.4397  0.0875  0.6582
  129OSM   H15A13835   5.356   5.512   7.044  0.6755 -0.9196 -2.1664
  129OSM   H15B13836   5.375   5.351   7.109  0.2509  0.9188  0.8426
  129OSM   H15C13837   5.230   5.434   7.137 -2.7015 -1.9625 -1.0098
  129OSM    C1413838   5.374   5.325   6.846  0.3347  0.0004  0.5790
  129OSM   H14A13839   5.422   5.416   6.814  0.1394 -0.1285 -0.0842
  129OSM   H14B13840   5.338   5.279   6.756  0.6322  1.6989 -0.4439
  129OSM   H14C13841   5.454   5.269   6.893  1.0452  0.5004 -0.0284
  129OSM    C1313842   5.195   5.233   6.988  0.3982  0.4386 -1.0407
  129OSM   H13A13843   5.267   5.171   7.039  0.4661  1.3815  0.0452
  129OSM   H13B13844   5.140   5.175   6.915 -2.2051  2.0074 -0.4689
  129OSM   H13C13845   5.120   5.260   7.061 -0.1997  1.7540 -2.1086
  129OSM    C1213846   5.157   5.442   6.860  0.5815 -0.7006  0.3752
  129OSM   H12A13847   5.117   5.404   6.767  0.3518 -1.7197  0.8767
  129OSM   H12B13848   5.220   5.526   6.833 -0.1363 -0.3546 -0.2691
  129OSM    C1113849   5.038   5.511   6.933 -0.1631  1.0049  0.0769
  129OSM   H11A13850   4.983   5.423   6.972  1.0486 -0.5364 -1.5349
  129OSM   H11B13851   4.977   5.553   6.850  0.4591 -0.8439 -1.3901
  129OSM      P13852   5.126   5.749   6.989  0.0499  0.3960 -0.3637
  129OSM    O1313853   5.028   5.862   7.012  0.5095  0.1765 -0.4664
  129OSM    O1413854   5.263   5.768   7.041  0.2469 -0.2783 -0.6434
  129OSM    O1113855   5.140   5.723   6.830  0.1857  0.5671  0.4836
  129OSM    O1213856   5.068   5.608   7.029 -0.3570  0.1081 -0.1705
  129OSM    C1S13857   5.263   5.769   6.772  0.0930  0.2578  0.0028
  129OSM    H1S13858   5.348   5.703   6.800  0.9778  1.9134  1.3392
  129OSM    H1T13859   5.290   5.868   6.813 -0.9692  0.3953  0.3869
  129OSM     NF13860   5.365   5.825   6.554 -0.5419 -0.2908  0.1219
  129OSM    HNF13861   5.355   5.905   6.495 -1.1764 -1.8614 -2.0245
  129OSM    C2S13862   5.243   5.783   6.619 -1.2566  0.8780 -0.9032
  129OSM    H2S13863   5.212   5.683   6.582 -1.5888 -0.3338  2.3587
  129OSM    C3S13864   5.121   5.877   6.592 -0.5375 -0.3953  0.3010
  129OSM    H3S13865   5.162   5.975   6.626  0.1981  0.6351 -3.1835
  129OSM     O313866   5.005   5.842   6.667 -0.5040 -0.0462  0.6364
  129OSM    HO313867   5.042   5.775   6.725  0.8091  0.1196  0.0424
  129OSM    C4S13868   5.100   5.892   6.446 -1.0319  0.1841 -0.8184
  129OSM    H4S13869   5.153   5.975   6.395 -0.1596  0.1879  0.0734
  129OSM    C5S13870   5.006   5.822   6.377 -0.3034 -0.5820  0.1798
  129OSM    H5S13871   4.932   5.751   6.417  0.4837 -0.3065  2.1931
  129OSM    C6S13872   4.977   5.837   6.225 -0.0104 -0.2344 -0.4462
  129OSM    H6S13873   4.943   5.941   6.204 -1.7823 -0.5834  0.5270
  129OSM    H6T13874   4.889   5.777   6.193 -1.2590  0.3115  1.7874
  129OSM    C7S13875   5.088   5.794   6.128 -0.6757 -0.2061  0.7577
  129OSM    H7S13876   5.138   5.702   6.165  0.6569  0.4446  0.6087
  129OSM    H7T13877   5.161   5.878   6.127 -0.7951 -0.0996 -0.5211
  129OSM    C8S13878   5.045   5.778   5.979  0.3572  0.1103 -0.1786
  129OSM    H8S13879   4.941   5.739   5.973  0.5673 -0.9067  2.0071
  129OSM    H8T13880   5.114   5.706   5.929 -0.3969 -0.9241  0.2375
  129OSM    C9S13881   5.044   5.903   5.898  0.1055 -0.4973 -0.3030
  129OSM    H9S13882   5.139   5.959   5.909  0.1200 -0.6069  0.1180
  129OSM    H9T13883   4.956   5.966   5.925  1.0240  1.5205 -1.7624
  129OSM   C10S13884   5.044   5.869   5.751 -0.0193  0.0679  0.2759
  129OSM   H10S13885   4.942   5.833   5.723  0.3850 -1.3295  0.5421
  129OSM   H10T13886   5.114   5.785   5.733  0.4379  0.1069  1.7426
  129OSM   C11S13887   5.097   5.980   5.653  0.0345 -0.0504 -0.4810
  129OSM   H11S13888   5.193   6.024   5.688  1.2593 -0.5067 -2.9870
  129OSM   H11T13889   5.028   6.065   5.664 -0.3987 -0.6430  2.0601
  129OSM   C12S13890   5.108   5.940   5.502  0.4137  0.4369  0.3592
  129OSM   H12S13891   5.010   5.893   5.479  0.6797 -1.0931  2.1140
  129OSM   H12T13892   5.181   5.858   5.482 -2.6293 -2.2152 -0.6332
  129OSM   C13S13893   5.130   6.061   5.410  0.2079  0.2082 -0.6669
  129OSM   H13S13894   5.220   6.119   5.442 -0.3412  0.1282  1.1759
  129OSM   H13T13895   5.043   6.129   5.424 -0.2956 -0.5079 -0.2377
  129OSM   C14S13896   5.164   6.023   5.265 -0.2782 -0.1247 -0.2189
  129OSM   H14S13897   5.069   6.013   5.209 -0.5824  0.4503  0.1872
  129OSM   H14T13898   5.232   5.935   5.267  1.1978  0.9353 -1.1735
  129OSM   C15S13899   5.244   6.129   5.186  0.1732 -0.1644  0.5428
  129OSM   H15S13900   5.338   6.148   5.242  0.2764  0.1552  0.2635
  129OSM   H15T13901   5.185   6.223   5.194 -2.3060 -1.5442 -0.3334
  129OSM   C16S13902   5.279   6.081   5.041  0.0303 -1.0758  0.2442
  129OSM   H16S13903   5.200   6.035   4.978 -0.1809  1.0488 -1.1167
  129OSM   H16T13904   5.360   6.006   5.050  2.1233  0.8191 -1.6222
  129OSM   C17S13905   5.329   6.201   4.959  0.2540  0.0104  0.1055
  129OSM   H17S13906   5.405   6.260   5.014  3.0954 -1.0256 -2.4362
  129OSM   H17T13907   5.245   6.266   4.927  0.0315 -0.8969 -1.2327
  129OSM   C18S13908   5.399   6.151   4.828  0.5337  1.1724 -0.1708
  129OSM   H18S13909   5.342   6.064   4.789  0.4621  1.2624 -0.2686
  129OSM   H18T13910   5.508   6.132   4.836  0.4623  1.4651  2.6759
  129OSM   H18U13911   5.381   6.225   4.747  0.8497 -0.0372 -1.3751
  129OSM    C1F13912   5.472   5.739   6.552  0.5178 -0.1431 -1.0788
  129OSM     OF13913   5.462   5.626   6.612 -0.3815  0.0317  0.3119
  129OSM    C2F13914   5.595   5.783   6.486 -0.3941  0.5955 -0.7037
  129OSM    H2F13915   5.670   5.757   6.564 -1.2616 -1.3765 -0.4511
  129OSM    H2G13916   5.611   5.890   6.465 -3.1179  1.2154  0.0111
  129OSM    C3F13917   5.612   5.690   6.364 -0.5573 -0.3592 -0.0293
  129OSM    H3F13918   5.515   5.697   6.310 -2.2040 -2.4234  2.4071
  129OSM    H3G13919   5.633   5.585   6.394 -3.1227 -0.8084  0.4408
  129OSM    C4F13920   5.730   5.733   6.264 -0.2340 -0.0298 -0.0639
  129OSM    H4F13921   5.818   5.745   6.330  0.5608  0.2926 -1.1426
  129OSM    H4G13922   5.709   5.836   6.229  3.0532 -0.1450 -2.9552
  129OSM    C5F13923   5.747   5.638   6.149  0.2670  0.5586 -0.0957
  129OSM    H5F13924   5.654   5.635   6.088  2.2282  0.1742 -3.2618
  129OSM    H5G13925   5.756   5.533   6.184 -1.2901 -0.3976 -2.3149
  129OSM    C6F13926   5.851   5.676   6.046 -1.1106  0.4708  0.3186
  129OSM    H6F13927   5.951   5.639   6.079 -0.4054  0.4284 -1.7633
  129OSM    H6G13928   5.853   5.787   6.042  0.2156  0.4488 -0.2840
  129OSM    C7F13929   5.823   5.612   5.907 -0.1877 -0.2312 -0.4868
  129OSM    H7F13930   5.714   5.624   5.892 -0.5700  0.9517  2.6011
  129OSM    H7G13931   5.847   5.504   5.919  1.9477  0.2963  0.5630
  129OSM    C8F13932   5.894   5.679   5.786 -0.1320  0.1587  0.6707
  129OSM    H8F13933   6.004   5.674   5.803  0.1042 -2.1982 -0.9708
  129OSM    H8G13934   5.862   5.783   5.767  1.0588  0.4522  0.1558
  129OSM    C9F13935   5.855   5.595   5.663  0.7447  0.7572 -0.4930
  129OSM    H9F13936   5.747   5.580   5.653  0.7718  0.8015 -0.8444
  129OSM   C10F13937   5.930   5.498   5.604  0.8539 -0.6728 -0.1900
  129OSM   H10F13938   5.875   5.436   5.531 -0.2725 -0.2070  0.2416
  129OSM   C11F13939   6.079   5.477   5.620 -0.3660  0.0786 -0.1913
  129OSM   H11F13940   6.104   5.417   5.710  1.1398 -0.1028 -0.7127
  129OSM   H11G13941   6.116   5.580   5.633 -1.5544  0.5340 -0.2676
  129OSM   C12F13942   6.161   5.436   5.490 -0.9433  0.1865  0.4263
  129OSM   H12F13943   6.105   5.354   5.440  0.6483 -0.7002  0.0418
  129OSM   H12G13944   6.259   5.393   5.520 -0.0869 -0.5940 -3.0804
  129OSM   C13F13945   6.182   5.542   5.379  0.7194 -0.3587 -0.3860
  129OSM   H13F13946   6.210   5.635   5.433 -1.5552  0.0073  0.2668
  129OSM   H13G13947   6.081   5.546   5.334  1.2281  2.3460 -1.4404
  129OSM   C14F13948   6.289   5.508   5.276  0.0646  0.0185 -0.3415
  129OSM   H14F13949   6.260   5.411   5.230 -0.0663  0.6791 -1.7234
  129OSM   H14G13950   6.383   5.495   5.333  0.3051  1.1936 -0.4294
  129OSM   C15F13951   6.310   5.617   5.170  0.7396  0.3811  0.4624
  129OSM   H15F13952   6.393   5.583   5.104 -0.3378 -1.6348  0.0622
  129OSM   H15G13953   6.356   5.705   5.220  2.4896 -0.5631  0.5919
  129OSM   C16F13954   6.177   5.637   5.091 -0.1347  0.0599 -0.0055
  129OSM   H16F13955   6.108   5.690   5.161  2.9556  0.1006  3.3147
  129OSM   H16G13956   6.129   5.542   5.061 -0.4937 -0.1317  1.1299
  129OSM   C17F13957   6.194   5.723   4.964 -0.1930 -0.3640  1.2398
  129OSM   H17F13958   6.249   5.813   4.999 -1.2841  0.3451  1.1717
  129OSM   H17G13959   6.097   5.756   4.921  1.3216  2.3614 -0.3676
  129OSM   C18F13960   6.271   5.640   4.854 -0.2241 -0.1857  0.0882
  129OSM   H18F13961   6.222   5.542   4.839 -1.5428  0.8240 -3.0289
  129OSM   H18G13962   6.376   5.627   4.889  0.4645 -1.4402 -2.2561
  129OSM   H18H13963   6.276   5.692   4.756 -0.7787 -2.1686 -1.0543
  130OSM      N13964   4.392   0.367   6.866  0.2288 -0.3359 -0.7563
  130OSM    C1513965   4.440   0.257   6.956  0.2695 -0.4604 -0.8228
  130OSM   H15A13966   4.385   0.166   6.933  1.3519 -1.0725 -1.0513
  130OSM   H15B13967   4.432   0.286   7.060 -1.1443 -0.6032 -0.8674
  130OSM   H15C13968   4.541   0.225   6.934  0.4810 -0.1187 -0.3527
  130OSM    C1413969   4.480   0.484   6.891  0.0699  0.5680 -0.2123
  130OSM   H14A13970   4.487   0.511   6.995 -2.0724 -0.3948  0.2394
  130OSM   H14B13971   4.444   0.562   6.827 -1.0446  0.1772 -0.0861
  130OSM   H14C13972   4.579   0.460   6.853 -0.7472  0.6241 -2.5523
  130OSM    C1313973   4.407   0.309   6.732 -0.1912 -0.4616 -0.2093
  130OSM   H13A13974   4.499   0.253   6.720 -0.1235 -0.1980 -1.0377
  130OSM   H13B13975   4.402   0.381   6.651 -0.0595 -1.1743 -0.8717
  130OSM   H13C13976   4.331   0.234   6.717 -0.1474 -0.6027  0.2568
  130OSM    C1213977   4.251   0.402   6.901 -0.5997  0.5073  0.0396
  130OSM   H12A13978   4.236   0.423   7.006  2.5495  0.6895  0.5499
  130OSM   H12B13979   4.202   0.306   6.903  0.7695 -0.2273  2.5724
  130OSM    C1113980   4.173   0.508   6.818  0.1568 -0.2943 -0.2425
  130OSM   H11A13981   4.067   0.502   6.851  0.8447 -3.7974  1.8897
  130OSM   H11B13982   4.190   0.472   6.714 -0.5882  0.4256 -0.6207
  130OSM      P13983   4.154   0.761   6.756 -0.0389 -0.1336 -0.1113
  130OSM    O1313984   4.005   0.763   6.768 -0.7146 -0.3932  0.0113
  130OSM    O1413985   4.222   0.881   6.811 -0.0066 -0.5376  0.2926
  130OSM    O1113986   4.188   0.731   6.603 -0.5051 -0.3512  0.2860
  130OSM    O1213987   4.220   0.639   6.830 -0.3387 -0.4789  0.2572
  130OSM    C1S13988   4.328   0.706   6.579  0.0094  0.7331 -0.0853
  130OSM    H1S13989   4.358   0.612   6.630 -1.1208  0.9724  1.0620
  130OSM    H1T13990   4.387   0.789   6.622 -2.1270  2.6162 -0.5776
  130OSM     NF13991   4.491   0.655   6.393 -1.0986 -0.0121  0.0419
  130OSM    HNF13992   4.541   0.726   6.344 -0.8972  0.6828  1.2238
  130OSM    C2S13993   4.352   0.684   6.423  0.3963 -0.0506 -0.6373
  130OSM    H2S13994   4.285   0.603   6.387 -2.7159  1.5205  1.1589
  130OSM    C3S13995   4.303   0.800   6.339 -0.2002 -0.5124  0.5334
  130OSM    H3S13996   4.360   0.892   6.366  1.5486 -0.7359 -1.9908
  130OSM     O313997   4.166   0.829   6.369  0.1538 -0.8760 -0.2890
  130OSM    HO313998   4.154   0.788   6.455 -1.3166 -1.0836 -0.5636
  130OSM    C4S13999   4.313   0.764   6.197 -0.1071 -0.1784  0.4296
  130OSM    H4S14000   4.240   0.683   6.181 -0.9523  0.2601  1.8868
  130OSM    C5S14001   4.389   0.815   6.095 -0.2459  0.1455 -0.0092
  130OSM    H5S14002   4.465   0.894   6.105  1.1435 -1.0022 -1.2028
  130OSM    C6S14003   4.380   0.757   5.958  0.1563 -0.5986  0.0457
  130OSM    H6S14004   4.328   0.821   5.885  2.0256  0.5355 -0.3630
  130OSM    H6T14005   4.316   0.666   5.964 -2.2671  0.9706 -0.8708
  130OSM    C7S14006   4.520   0.723   5.911  0.2024 -0.1710 -0.6505
  130OSM    H7S14007   4.542   0.629   5.965 -0.4032 -1.0720 -1.9016
  130OSM    H7T14008   4.592   0.806   5.928 -0.6961  0.5745 -0.3703
  130OSM    C8S14009   4.517   0.684   5.763  0.8155 -0.9561 -0.1563
  130OSM    H8S14010   4.413   0.660   5.732  0.5744 -1.1202  0.7563
  130OSM    H8T14011   4.573   0.589   5.757 -0.0166 -1.4247 -0.8206
  130OSM    C9S14012   4.578   0.787   5.667 -0.1501  0.1844  0.4075
  130OSM    H9S14013   4.687   0.808   5.677  0.1235 -1.4701  1.2478
  130OSM    H9T14014   4.527   0.884   5.687  1.0496  0.4689  2.3684
  130OSM   C10S14015   4.562   0.747   5.519 -0.2663  0.1955  0.2294
  130OSM   H10S14016   4.457   0.733   5.487  0.4945  2.6130 -4.2565
  130OSM   H10T14017   4.623   0.654   5.506 -0.1358  0.3948 -0.6908
  130OSM   C11S14018   4.604   0.854   5.416  0.6735  0.4768 -0.2505
  130OSM   H11S14019   4.713   0.872   5.423  0.3674  2.9911 -1.1042
  130OSM   H11T14020   4.547   0.940   5.457 -2.2920 -1.7765  0.7327
  130OSM   C12S14021   4.579   0.814   5.263  0.2252 -0.0515 -0.0350
  130OSM   H12S14022   4.469   0.805   5.250 -0.1008  2.1631  0.6802
  130OSM   H12T14023   4.631   0.716   5.253  0.2662 -0.4350  2.9721
  130OSM   C13S14024   4.645   0.917   5.178 -0.4824 -0.0046 -0.0297
  130OSM   H13S14025   4.650   0.877   5.074 -1.5110  0.1522 -0.1519
  130OSM   H13T14026   4.754   0.922   5.196 -0.5020 -0.1958  0.1446
  130OSM   C14S14027   4.586   1.059   5.179  0.1048  0.2176 -0.6519
  130OSM   H14S14028   4.602   1.100   5.281  2.1976 -2.2912  0.1360
  130OSM   H14T14029   4.481   1.027   5.165  0.2880 -0.3688 -0.7014
  130OSM   C15S14030   4.643   1.141   5.060 -0.0068 -0.2492 -0.6326
  130OSM   H15S14031   4.630   1.072   4.974  0.4610 -4.3196  2.2677
  130OSM   H15T14032   4.753   1.159   5.061 -0.0141 -0.0523  1.3096
  130OSM   C16S14033   4.558   1.270   5.038 -0.1979  0.0549 -0.1782
  130OSM   H16S14034   4.578   1.342   5.119  0.6475 -1.1174  0.6789
  130OSM   H16T14035   4.454   1.231   5.047  0.1768 -0.7375  0.8620
  130OSM   C17S14036   4.592   1.334   4.909 -0.2366  0.2103 -0.7054
  130OSM   H17S14037   4.566   1.267   4.824 -2.4857 -0.8401  0.7008
  130OSM   H17T14038   4.702   1.345   4.911 -0.1464 -0.4106  2.3740
  130OSM   C18S14039   4.536   1.469   4.882 -0.3731  0.1619  0.0820
  130OSM   H18S14040   4.566   1.505   4.782  1.2254  0.1741  0.5385
  130OSM   H18T14041   4.558   1.555   4.950 -1.1241  0.0611  0.4706
  130OSM   H18U14042   4.426   1.456   4.890 -0.2200 -0.4848  1.5415
  130OSM    C1F14043   4.552   0.547   6.437 -0.2710 -0.2628 -0.7199
  130OSM     OF14044   4.486   0.452   6.459  0.5114  0.3839  0.0800
  130OSM    C2F14045   4.699   0.555   6.465 -0.2728 -0.5527  0.0305
  130OSM    H2F14046   4.717   0.531   6.572 -0.2095 -1.2935 -0.1403
  130OSM    H2G14047   4.745   0.655   6.447 -2.3481  0.4910  0.2953
  130OSM    C3F14048   4.782   0.455   6.378 -0.1522  0.2030 -0.4609
  130OSM    H3F14049   4.758   0.355   6.419 -0.4387  0.0393 -1.0212
  130OSM    H3G14050   4.888   0.483   6.393  0.1180 -0.5372 -0.9597
  130OSM    C4F14051   4.749   0.444   6.230 -1.0621  0.4849  0.4272
  130OSM    H4F14052   4.784   0.543   6.192 -0.1326 -0.5556 -1.5890
  130OSM    H4G14053   4.642   0.416   6.221 -1.0081  0.5854 -0.7177
  130OSM    C5F14054   4.837   0.330   6.165 -0.1276 -0.2090 -0.2299
  130OSM    H5F14055   4.813   0.230   6.207  1.8188 -1.7520 -2.4881
  130OSM    H5G14056   4.936   0.356   6.210 -0.4668 -0.1979  0.5227
  130OSM    C6F14057   4.836   0.331   6.010 -0.3529  0.1163 -0.4401
  130OSM    H6F14058   4.737   0.302   5.969  0.0174  0.6148 -1.7618
  130OSM    H6G14059   4.910   0.253   5.982 -0.1842  0.5375 -1.2031
  130OSM    C7F14060   4.881   0.465   5.943 -0.3169 -0.8876 -0.4171
  130OSM    H7F14061   4.982   0.492   5.980 -1.1551  1.6726  0.2186
  130OSM    H7G14062   4.807   0.541   5.977 -1.5869 -1.5384 -1.6457
  130OSM    C8F14063   4.905   0.448   5.790  0.2453  1.0176 -0.2559
  130OSM    H8F14064   4.832   0.377   5.744  0.5630  0.7019 -0.2796
  130OSM    H8G14065   5.003   0.395   5.785 -0.0710 -0.0340  2.6460
  130OSM    C9F14066   4.903   0.586   5.724  0.3122 -0.3579  0.1624
  130OSM    H9F14067   4.860   0.668   5.784  2.5756  0.4420  0.7752
  130OSM   C10F14068   4.913   0.614   5.598 -0.4199 -0.1244  0.8485
  130OSM   H10F14069   4.880   0.710   5.554  0.9468 -0.8907 -2.0765
  130OSM   C11F14070   4.957   0.523   5.486  0.3814  0.3436  0.0354
  130OSM   H11F14071   4.874   0.508   5.412 -0.8412 -0.3083  1.4819
  130OSM   H11G14072   4.972   0.420   5.525 -4.1993 -0.7067 -0.3594
  130OSM   C12F14073   5.075   0.560   5.397 -0.6531 -0.7299  0.4099
  130OSM   H12F14074   5.093   0.473   5.330 -2.0073  0.3272 -1.4259
  130OSM   H12G14075   5.149   0.598   5.471 -1.9266  4.3273 -0.5532
  130OSM   C13F14076   5.037   0.668   5.301 -0.2137  0.0821 -0.0953
  130OSM   H13F14077   5.009   0.745   5.377  0.2195  0.3554 -0.2078
  130OSM   H13G14078   4.949   0.631   5.245 -1.4201  0.5445  1.4256
  130OSM   C14F14079   5.152   0.717   5.210 -0.4236  0.3474 -0.3620
  130OSM   H14F14080   5.214   0.635   5.167  0.9941  0.7197  0.9092
  130OSM   H14G14081   5.214   0.776   5.280 -0.2483  0.0082 -0.2344
  130OSM   C15F14082   5.103   0.818   5.109 -0.5236  0.2259 -0.1698
  130OSM   H15F14083   5.187   0.858   5.048  0.6449 -0.1167  1.1883
  130OSM   H15G14084   5.068   0.918   5.144 -0.4331  1.4959 -3.3313
  130OSM   C16F14085   5.007   0.754   5.002 -0.8351 -0.3805 -0.0731
  130OSM   H16F14086   4.915   0.721   5.054 -0.3101 -0.1282  1.0557
  130OSM   H16G14087   5.044   0.656   4.964  0.6110  1.4674 -3.9756
  130OSM   C17F14088   4.970   0.844   4.879  0.4954 -0.1867  0.3332
  130OSM   H17F14089   5.062   0.874   4.825  1.0915  0.2118  1.5305
  130OSM   H17G14090   4.921   0.937   4.915 -1.9760 -1.5445  0.7043
  130OSM   C18F14091   4.887   0.770   4.769 -0.3051 -0.7808  0.7348
  130OSM   H18F14092   4.788   0.751   4.815 -1.2655  0.1079 -0.8776
  130OSM   H18G14093   4.938   0.680   4.728 -1.8007 -0.6448 -1.6209
  130OSM   H18H14094   4.876   0.836   4.680  0.5087 -1.7219 -0.1083
  131OSM      N14095   5.495   1.703   6.952 -0.2496  0.1766  0.7643
  131OSM    C1514096   5.353   1.672   6.920 -0.8222  0.6851  0.4482
  131OSM   H15A14097   5.274   1.714   6.980 -1.1747 -0.6356  0.9454
  131OSM   H15B14098   5.335   1.566   6.909  3.2670 -0.0650 -0.8337
  131OSM   H15C14099   5.327   1.704   6.820 -2.1470 -2.2409 -0.2321
  131OSM    C1414100   5.512   1.849   6.963 -0.6615 -0.3549 -0.0436
  131OSM   H14A14101   5.592   1.881   7.028 -2.5286  3.2879  0.7479
  131OSM   H14B14102   5.436   1.908   7.012  0.3685  2.7892 -1.9474
  131OSM   H14C14103   5.518   1.897   6.867  1.0290 -2.6345 -1.1937
  131OSM    C1314104   5.527   1.635   7.084 -0.2599  0.5966 -0.3596
  131OSM   H13A14105   5.458   1.668   7.160  1.2036  2.8011  0.1033
  131OSM   H13B14106   5.630   1.652   7.108 -0.3482  1.4420 -0.5534
  131OSM   H13C14107   5.513   1.528   7.072 -1.1399  0.8802 -2.4153
  131OSM    C1214108   5.584   1.652   6.840  0.1585 -0.2173 -0.8539
  131OSM   H12A14109   5.565   1.546   6.842  0.8410 -0.3449  1.2011
  131OSM   H12B14110   5.690   1.661   6.860 -0.2586  0.8963  1.1447
  131OSM    C1114111   5.563   1.711   6.693  0.0209  0.7154  0.7546
  131OSM   H11A14112   5.465   1.678   6.652  1.1545  0.2860 -1.7405
  131OSM   H11B14113   5.632   1.650   6.631 -0.5792  1.4547 -0.6648
  131OSM      P14114   5.731   1.903   6.629 -0.3354  0.2192 -0.0316
  131OSM    O1314115   5.721   2.049   6.635 -0.0243  0.3311 -0.5300
  131OSM    O1414116   5.836   1.839   6.710 -0.2925 -0.3646  0.2776
  131OSM    O1114117   5.755   1.859   6.478  0.4359 -0.1274  0.4565
  131OSM    O1214118   5.590   1.853   6.684 -0.2150 -0.1535  0.0298
  131OSM    C1S14119   5.634   1.870   6.395 -0.1962 -0.8268 -0.1732
  131OSM    H1S14120   5.591   1.972   6.391 -2.2214 -1.6200 -0.1404
  131OSM    H1T14121   5.553   1.801   6.428  0.1783 -1.5279 -0.6884
  131OSM     NF14122   5.565   1.865   6.165 -0.5454  0.6190 -0.0661
  131OSM    HNF14123   5.496   1.800   6.137  0.2004 -1.3984  2.4387
  131OSM    C2S14124   5.676   1.831   6.248 -0.4129 -0.1120 -0.7340
  131OSM    H2S14125   5.765   1.893   6.224 -0.6941  1.0867  1.1265
  131OSM    C3S14126   5.723   1.678   6.243 -0.6733  0.4302  0.7116
  131OSM    H3S14127   5.625   1.633   6.270 -2.3391  3.4943  0.2493
  131OSM     O314128   5.808   1.637   6.353 -0.1560 -0.1074 -0.4645
  131OSM    HO314129   5.803   1.709   6.417  1.1227 -1.9376  1.8435
  131OSM    C4S14130   5.770   1.641   6.095  0.0458  0.2170  0.0408
  131OSM    H4S14131   5.684   1.616   6.031  0.3152 -2.4569  0.6310
  131OSM    C5S14132   5.903   1.635   6.055 -0.3846 -1.0989 -0.3064
  131OSM    H5S14133   5.978   1.654   6.133 -0.2354 -1.2512 -0.4137
  131OSM    C6S14134   5.958   1.616   5.917 -0.0310  1.0331  0.2235
  131OSM    H6S14135   5.997   1.512   5.915 -3.2456 -0.2937  0.6388
  131OSM    H6T14136   6.035   1.691   5.891  1.1029 -0.4306 -0.8671
  131OSM    C7S14137   5.839   1.610   5.814 -0.3926  1.2343 -0.3063
  131OSM    H7S14138   5.763   1.691   5.824  1.2706  2.7404  0.6076
  131OSM    H7T14139   5.798   1.509   5.838  1.3787  1.1082  2.6624
  131OSM    C8S14140   5.894   1.632   5.668  0.1718  0.4442  0.8128
  131OSM    H8S14141   5.913   1.532   5.623  1.6234  0.6591  0.9073
  131OSM    H8T14142   5.989   1.689   5.672  0.6868 -0.3889  0.7115
  131OSM    C9S14143   5.799   1.707   5.569 -0.1929 -0.4724  0.3081
  131OSM    H9S14144   5.801   1.809   5.612  0.5293 -0.2627 -0.1983
  131OSM    H9T14145   5.696   1.667   5.564  0.1453 -1.2891 -0.5044
  131OSM   C10S14146   5.867   1.719   5.428 -0.7836 -0.1983  0.5550
  131OSM   H10S14147   5.895   1.618   5.391  1.2652  0.8374 -0.9558
  131OSM   H10T14148   5.970   1.757   5.444 -0.4844 -1.3007  1.4022
  131OSM   C11S14149   5.797   1.812   5.331  0.6349  0.6048 -0.1400
  131OSM   H11S14150   5.769   1.905   5.385  0.5009 -0.2108  1.2457
  131OSM   H11T14151   5.699   1.766   5.306 -0.7144  1.6979  2.6432
  131OSM   C12S14152   5.863   1.825   5.194  0.0422  0.5035 -0.0815
  131OSM   H12S14153   5.883   1.728   5.144  0.9426  2.3847 -3.7212
  131OSM   H12T14154   5.964   1.872   5.201  0.6770 -0.5737 -1.4825
  131OSM   C13S14155   5.788   1.917   5.095  0.1599  0.6112 -0.8259
  131OSM   H13S14156   5.780   2.019   5.137 -0.2669  1.3736 -2.6863
  131OSM   H13T14157   5.691   1.865   5.083  0.4663  0.1703 -1.4312
  131OSM   C14S14158   5.868   1.941   4.967  0.1685  0.7739  0.1822
  131OSM   H14S14159   5.897   1.841   4.927 -1.0371 -0.3640  2.0105
  131OSM   H14T14160   5.961   1.996   4.994 -0.3422  2.1532 -0.7350
  131OSM   C15S14161   5.773   2.024   4.864 -0.1084 -0.2400 -0.0931
  131OSM   H15S14162   5.737   2.119   4.910 -0.1252  0.3404 -1.2652
  131OSM   H15T14163   5.680   1.967   4.846 -1.9885  2.7769 -0.6640
  131OSM   C16S14164   5.860   2.067   4.744  0.3009  0.1819  0.0217
  131OSM   H16S14165   5.922   1.976   4.729  1.9093  0.7709  2.5269
  131OSM   H16T14166   5.924   2.147   4.788 -0.4135  0.1434  1.1567
  131OSM   C17S14167   5.776   2.125   4.634 -0.0959  0.1263 -0.0583
  131OSM   H17S14168   5.725   2.212   4.680  0.9960  1.0608 -0.5393
  131OSM   H17T14169   5.689   2.061   4.608 -1.0609  1.5998 -0.5681
  131OSM   C18S14170   5.846   2.173   4.508  0.2126  0.3904 -0.2553
  131OSM   H18S14171   5.923   2.250   4.533  0.3034  0.4738 -0.7686
  131OSM   H18T14172   5.777   2.220   4.435  1.2145  0.8329 -0.9532
  131OSM   H18U14173   5.899   2.092   4.455 -0.0681  0.4526 -0.6348
  131OSM    C1F14174   5.554   1.990   6.125 -0.0844 -0.4015 -0.5897
  131OSM     OF14175   5.637   2.074   6.163 -0.0672  0.1561 -0.2002
  131OSM    C2F14176   5.427   2.022   6.046 -0.0097  0.1506 -0.5320
  131OSM    H2F14177   5.342   2.015   6.118  0.2979 -1.5116 -0.2894
  131OSM    H2G14178   5.423   1.940   5.971 -0.2403  0.9506 -1.4140
  131OSM    C3F14179   5.436   2.164   5.984  0.5666 -0.2719  0.0426
  131OSM    H3F14180   5.529   2.176   5.924  1.9160 -0.5237  1.9998
  131OSM    H3G14181   5.434   2.248   6.056  0.0689 -0.2265 -0.0191
  131OSM    C4F14182   5.325   2.176   5.875  0.1313  0.2723  0.0599
  131OSM    H4F14183   5.229   2.141   5.919 -1.3015 -0.2050 -3.1325
  131OSM    H4G14184   5.335   2.093   5.802  1.0518 -1.8615  2.4583
  131OSM    C5F14185   5.309   2.313   5.821  0.3811  0.7361 -0.0792
  131OSM    H5F14186   5.410   2.348   5.790  0.5186 -0.2275 -0.7546
  131OSM    H5G14187   5.268   2.382   5.898  1.7691  1.9466 -0.3603
  131OSM    C6F14188   5.220   2.320   5.695  0.5475 -0.6166  0.2016
  131OSM    H6F14189   5.113   2.294   5.707  0.2988  0.4983  0.4922
  131OSM    H6G14190   5.270   2.253   5.621 -1.9150 -1.5789 -0.7013
  131OSM    C7F14191   5.209   2.463   5.628  0.8507  0.1493  0.3090
  131OSM    H7F14192   5.303   2.518   5.649  0.4709  0.1239  2.2812
  131OSM    H7G14193   5.144   2.520   5.698 -1.9266 -1.1008 -1.0898
  131OSM    C8F14194   5.174   2.470   5.475  0.0531 -0.7923 -0.0715
  131OSM    H8F14195   5.145   2.574   5.448  0.2671 -0.6778  0.1422
  131OSM    H8G14196   5.087   2.401   5.463 -1.6417  1.1104  0.6278
  131OSM    C9F14197   5.280   2.425   5.379  0.7438 -0.7651  0.5569
  131OSM    H9F14198   5.378   2.424   5.429  0.6683 -2.9865  0.7770
  131OSM   C10F14199   5.262   2.398   5.246  0.0938  0.3162 -0.7312
  131OSM   H10F14200   5.346   2.371   5.180  1.4931  2.6055 -0.0184
  131OSM   C11F14201   5.132   2.407   5.169  0.2197 -0.3922 -0.1228
  131OSM   H11F14202   5.081   2.506   5.176  1.7048  0.4682 -1.1146
  131OSM   H11G14203   5.052   2.339   5.208 -1.6853  2.0182  0.4435
  131OSM   C12F14204   5.147   2.367   5.026  0.0552 -0.5006 -0.3014
  131OSM   H12F14205   5.184   2.264   5.011 -0.0132 -0.7766  1.3329
  131OSM   H12G14206   5.219   2.437   4.978  0.5352  0.2322  1.4148
  131OSM   C13F14207   5.016   2.376   4.942  0.4297  0.1387  0.2708
  131OSM   H13F14208   5.048   2.376   4.835 -1.5316  0.0313 -0.3459
  131OSM   H13G14209   4.979   2.478   4.967 -1.3727 -0.5074  0.3953
  131OSM   C14F14210   4.907   2.270   4.957 -0.1391 -0.2621  0.0344
  131OSM   H14F14211   4.819   2.304   4.899  0.7735  1.1653 -0.5715
  131OSM   H14G14212   4.875   2.249   5.061  1.9147  0.1423  0.7923
  131OSM   C15F14213   4.952   2.141   4.894  0.3571  0.4182  0.9544
  131OSM   H15F14214   5.043   2.096   4.939  0.8025  0.7250  0.3863
  131OSM   H15G14215   4.983   2.163   4.789 -2.1513 -1.4265 -0.2841
  131OSM   C16F14216   4.842   2.037   4.897  0.1242 -1.1063  0.0695
  131OSM   H16F14217   4.789   2.037   4.799  0.7581  2.6219 -0.4104
  131OSM   H16G14218   4.765   2.065   4.972  1.3372 -1.1286  1.3669
  131OSM   C17F14219   4.894   1.886   4.916  0.4291 -0.4124 -0.2482
  131OSM   H17F14220   4.830   1.815   4.973  0.6124 -0.0621  0.4066
  131OSM   H17G14221   4.972   1.891   4.995 -0.8594 -1.6342  1.1737
  131OSM   C18F14222   4.931   1.820   4.785  0.1479 -0.1211 -0.4548
  131OSM   H18F14223   5.004   1.867   4.715  2.1353  0.0588  1.6137
  131OSM   H18G14224   4.852   1.804   4.709 -1.8519 -1.1581  1.7463
  131OSM   H18H14225   4.963   1.714   4.793 -1.4000 -0.6800 -1.2806
  132OSM      N14226   0.962   5.415   6.645 -0.7460  0.6427 -0.9214
  132OSM    C1514227   0.975   5.531   6.734  0.0777 -0.4394  0.2851
  132OSM   H15A14228   0.946   5.626   6.692  0.5013  0.5512  2.1198
  132OSM   H15B14229   1.067   5.535   6.791 -0.0658 -0.3322  0.5120
  132OSM   H15C14230   0.893   5.519   6.802  0.6194 -2.3862  0.6526
  132OSM    C1414231   1.079   5.413   6.555  0.4568 -0.0570 -0.7951
  132OSM   H14A14232   1.077   5.507   6.501  0.1836 -0.6064 -1.7840
  132OSM   H14B14233   1.074   5.341   6.474  3.0195  0.7340 -1.7482
  132OSM   H14C14234   1.172   5.415   6.609 -0.1199  2.7787  0.2754
  132OSM    C1314235   0.958   5.292   6.736 -0.0269 -0.7175  0.2247
  132OSM   H13A14236   1.054   5.246   6.756  0.2218  0.3737  1.7208
  132OSM   H13B14237   0.899   5.212   6.693 -0.0155 -1.1564  0.9929
  132OSM   H13C14238   0.910   5.315   6.830  1.9474  0.6128  0.9677
  132OSM    C1214239   0.833   5.419   6.564  0.1796 -0.7556 -0.0607
  132OSM   H12A14240   0.746   5.419   6.629  0.2526  1.4580  0.1176
  132OSM   H12B14241   0.811   5.319   6.529  0.7351 -1.3676  1.2563
  132OSM    C1114242   0.811   5.509   6.448 -0.4220 -0.2750  0.1556
  132OSM   H11A14243   0.714   5.485   6.401  0.5532 -1.1350 -1.4997
  132OSM   H11B14244   0.890   5.483   6.374 -0.6767  0.4596 -0.3981
  132OSM      P14245   0.695   5.721   6.552  0.1415  0.1720 -0.0913
  132OSM    O1314246   0.632   5.632   6.657 -0.3466  0.0619  0.7277
  132OSM    O1414247   0.739   5.855   6.602  0.2125 -0.1100 -0.1157
  132OSM    O1114248   0.606   5.740   6.426  0.3345  0.0536  0.0602
  132OSM    O1214249   0.821   5.647   6.489  0.6405  0.0135 -0.1408
  132OSM    C1S14250   0.606   5.837   6.319 -1.1105 -0.1918 -0.8155
  132OSM    H1S14251   0.694   5.825   6.253  0.3783  5.0372 -0.1988
  132OSM    H1T14252   0.593   5.943   6.351 -1.4599 -0.7690  1.0910
  132OSM     NF14253   0.458   5.886   6.115  0.5102 -0.4197 -0.0489
  132OSM    HNF14254   0.397   5.965   6.110 -1.2568 -1.5673  1.7686
  132OSM    C2S14255   0.465   5.816   6.245 -0.2712 -0.0026  0.0851
  132OSM    H2S14256   0.459   5.707   6.229 -0.0719  0.2336 -1.7778
  132OSM    C3S14257   0.347   5.851   6.340 -0.8623 -0.2776 -1.0895
  132OSM    H3S14258   0.371   5.948   6.390 -1.6838 -1.1215  1.0641
  132OSM     O314259   0.331   5.757   6.452 -0.1708  0.3127 -0.1059
  132OSM    HO314260   0.401   5.695   6.432 -1.6516 -1.2213 -0.7351
  132OSM    C4S14261   0.225   5.855   6.262  0.4923  0.0765 -0.3108
  132OSM    H4S14262   0.199   5.957   6.228 -0.8829  0.0589  0.6093
  132OSM    C5S14263   0.133   5.760   6.236 -0.1891  0.6573 -0.6676
  132OSM    H5S14264   0.134   5.662   6.284  0.4917  0.8632 -0.2467
  132OSM    C6S14265   0.008   5.786   6.161  0.2961  1.0620  0.0643
  132OSM    H6S14266  -0.008   5.895   6.165 -2.0246  0.8101 -0.6670
  132OSM    H6T14267  -0.080   5.741   6.214  0.8080  0.9161  0.8029
  132OSM    C7S14268  -0.000   5.727   6.015 -0.1560 -0.4599 -0.2131
  132OSM    H7S14269  -0.101   5.759   5.980  0.0760  1.3297  0.6179
  132OSM    H7T14270   0.027   5.620   6.016 -1.3515 -0.7782 -0.0548
  132OSM    C8S14271   0.097   5.806   5.921  0.3582  0.3237  0.7145
  132OSM    H8S14272   0.196   5.758   5.937 -0.8362 -1.8533  1.9728
  132OSM    H8T14273   0.088   5.915   5.942 -1.9437  0.3749 -0.2596
  132OSM    C9S14274   0.065   5.786   5.767  0.2849  0.4528 -0.0352
  132OSM    H9S14275  -0.034   5.831   5.740 -0.7831  0.3379  3.2153
  132OSM    H9T14276   0.060   5.676   5.755 -1.0127  0.6194 -1.3423
  132OSM   C10S14277   0.172   5.836   5.681 -0.0166  0.6385 -0.1171
  132OSM   H10S14278   0.269   5.794   5.718 -1.0718 -0.5440  1.5011
  132OSM   H10T14279   0.176   5.946   5.696  0.6693  0.6570 -0.3731
  132OSM   C11S14280   0.160   5.815   5.529 -0.4348  0.5495 -0.2755
  132OSM   H11S14281   0.059   5.856   5.507 -0.8667  0.1006  0.8322
  132OSM   H11T14282   0.152   5.710   5.494  1.9278  0.0190  0.6351
  132OSM   C12S14283   0.262   5.877   5.433  0.1059  0.0961  0.5938
  132OSM   H12S14284   0.367   5.845   5.450  0.2354  0.7783  1.1353
  132OSM   H12T14285   0.262   5.986   5.454  3.3494  0.3031 -0.0302
  132OSM   C13S14286   0.226   5.857   5.284  0.0268  0.1206 -0.0378
  132OSM   H13S14287   0.124   5.900   5.275 -1.6364 -2.9046  2.5931
  132OSM   H13T14288   0.206   5.749   5.268 -1.9749  0.7523 -2.4645
  132OSM   C14S14289   0.325   5.907   5.177 -0.0657  0.4513  0.5511
  132OSM   H14S14290   0.426   5.864   5.189  0.9856  2.0408 -1.7010
  132OSM   H14T14291   0.337   6.017   5.189  0.5694  0.2990  1.3396
  132OSM   C15S14292   0.275   5.866   5.033 -1.5597 -0.3782 -0.0132
  132OSM   H15S14293   0.191   5.932   5.004 -0.3585  0.8189 -0.9167
  132OSM   H15T14294   0.241   5.761   5.046  1.5407 -1.7304 -1.6056
  132OSM   C16S14295   0.381   5.882   4.918 -0.4367  0.1132  0.0632
  132OSM   H16S14296   0.479   5.857   4.966 -1.0912 -2.4914  0.1859
  132OSM   H16T14297   0.386   5.982   4.871  2.5821 -0.2198 -0.5200
  132OSM   C17S14298   0.368   5.776   4.808  0.2965  0.4260  0.0297
  132OSM   H17S14299   0.273   5.795   4.753  0.4254  0.5252 -0.1565
  132OSM   H17T14300   0.350   5.683   4.867  1.8671  0.7736  1.1066
  132OSM   C18S14301   0.491   5.762   4.720  0.2678 -0.7389 -0.3938
  132OSM   H18S14302   0.505   5.851   4.655 -1.7114  1.0264  1.4561
  132OSM   H18T14303   0.481   5.666   4.665  0.0651 -0.6984 -0.4303
  132OSM   H18U14304   0.579   5.753   4.787  0.2029  0.0650 -0.1881
  132OSM    C1F14305   0.538   5.851   6.012 -0.2525 -0.1064 -0.3463
  132OSM     OF14306   0.593   5.739   6.010 -0.1590 -0.0899  0.1351
  132OSM    C2F14307   0.542   5.945   5.901 -0.5906  0.1498  0.4241
  132OSM    H2F14308   0.601   6.037   5.926 -1.4435  0.5811  0.9010
  132OSM    H2G14309   0.441   5.974   5.865 -1.4580 -1.3188  1.5989
  132OSM    C3F14310   0.605   5.876   5.775 -0.5300 -0.2942  0.2012
  132OSM    H3F14311   0.548   5.784   5.749 -1.3712  0.6183 -1.3682
  132OSM    H3G14312   0.709   5.843   5.796 -0.3603 -1.3793 -2.0205
  132OSM    C4F14313   0.602   5.971   5.653 -0.1938  0.2959  0.2465
  132OSM    H4F14314   0.636   6.070   5.692 -0.9838  0.3164  0.9179
  132OSM    H4G14315   0.496   5.981   5.622  0.3674 -0.2651 -2.0578
  132OSM    C5F14316   0.688   5.933   5.537 -0.7695  0.4984 -0.0925
  132OSM    H5F14317   0.674   5.826   5.512  2.2081 -0.3104  1.2391
  132OSM    H5G14318   0.794   5.932   5.570 -0.8517  0.2742  0.1653
  132OSM    C6F14319   0.667   6.021   5.414 -0.4024  0.0022 -0.8301
  132OSM    H6F14320   0.669   6.127   5.447  1.4761 -0.4011  0.5054
  132OSM    H6G14321   0.563   5.995   5.385 -0.6696 -0.1103  0.1807
  132OSM    C7F14322   0.763   6.000   5.297  0.4915 -0.0492 -0.3161
  132OSM    H7F14323   0.757   5.896   5.258 -4.4155  0.8594 -2.7912
  132OSM    H7G14324   0.865   6.036   5.324  0.8044 -1.2058  0.0777
  132OSM    C8F14325   0.724   6.087   5.172 -0.3947 -0.4275 -0.4642
  132OSM    H8F14326   0.635   6.049   5.118 -0.2869 -1.4879  0.0853
  132OSM    H8G14327   0.808   6.055   5.107  0.0642  0.9443 -0.5864
  132OSM    C9F14328   0.728   6.242   5.180  0.0834  0.0647  0.0529
  132OSM    H9F14329   0.825   6.290   5.160 -0.9442  1.3452 -2.1238
  132OSM   C10F14330   0.618   6.316   5.212  0.1726  0.0233  0.4070
  132OSM   H10F14331   0.641   6.423   5.217  0.2815  0.1628 -1.8939
  132OSM   C11F14332   0.478   6.266   5.250 -0.0337 -0.2702 -0.3713
  132OSM   H11F14333   0.460   6.298   5.355 -4.5588 -3.8379  0.2203
  132OSM   H11G14334   0.482   6.155   5.247  1.0314 -0.3182  1.3437
  132OSM   C12F14335   0.363   6.323   5.165  0.3544  0.8031  0.0330
  132OSM   H12F14336   0.383   6.432   5.156 -0.7586  1.0772  0.5818
  132OSM   H12G14337   0.271   6.311   5.228 -0.9321  1.4496 -1.6429
  132OSM   C13F14338   0.353   6.257   5.029 -0.5286 -0.1084 -0.8482
  132OSM   H13F14339   0.307   6.156   5.029  0.2447 -0.4726 -1.3387
  132OSM   H13G14340   0.456   6.253   4.987  0.3815  2.2492  0.9328
  132OSM   C14F14341   0.259   6.332   4.933  0.2317 -0.1800 -0.5121
  132OSM   H14F14342   0.295   6.437   4.931  3.6144 -1.2246  0.3700
  132OSM   H14G14343   0.156   6.338   4.974  0.5575 -1.0071  0.4475
  132OSM   C15F14344   0.264   6.269   4.791 -0.2001 -0.6078 -0.1550
  132OSM   H15F14345   0.226   6.165   4.796  0.0084 -0.6475  0.9212
  132OSM   H15G14346   0.370   6.264   4.760  0.2785  0.1591  1.2650
  132OSM   C16F14347   0.178   6.348   4.688 -0.9058  0.1546 -0.1102
  132OSM   H16F14348   0.154   6.452   4.719 -0.9934  0.1984 -0.3247
  132OSM   H16G14349   0.078   6.300   4.677 -0.3155 -1.2063  0.2884
  132OSM   C17F14350   0.253   6.360   4.556 -0.0612 -0.8377 -0.1141
  132OSM   H17F14351   0.363   6.367   4.571  0.0390 -0.2988 -1.0688
  132OSM   H17G14352   0.213   6.449   4.503  1.3510 -0.5086 -0.6722
  132OSM   C18F14353   0.238   6.240   4.467  0.0697  0.2902  0.7203
  132OSM   H18F14354   0.328   6.210   4.410 -1.3900  0.6077 -1.8918
  132OSM   H18G14355   0.148   6.249   4.403 -0.0437 -1.6530  0.5616
  132OSM   H18H14356   0.211   6.152   4.529  0.1534 -0.9543 -0.9400
  133OSM      N14357   3.015   5.925   6.934 -0.4291  0.5193 -0.0557
  133OSM    C1514358   2.954   5.791   6.915 -0.0722 -0.3260 -0.2273
  133OSM   H15A14359   2.945   5.735   7.007 -0.0601  0.0837  0.0256
  133OSM   H15B14360   3.011   5.744   6.837 -0.3255  0.0767 -0.6565
  133OSM   H15C14361   2.855   5.800   6.872 -0.2649 -1.2733 -0.0147
  133OSM    C1414362   2.985   6.017   6.821  0.9466  0.2648  0.0512
  133OSM   H14A14363   3.037   6.111   6.832 -0.2634  0.9344  0.1832
  133OSM   H14B14364   2.879   6.025   6.801  1.3951 -1.1208 -3.5401
  133OSM   H14C14365   3.025   5.983   6.727 -1.9638 -0.6890 -0.9496
  133OSM    C1314366   2.955   5.990   7.059 -0.0173  0.2171 -0.6943
  133OSM   H13A14367   2.998   5.945   7.147  2.8284  1.3765 -1.3766
  133OSM   H13B14368   2.847   5.991   7.061 -0.0083  0.2322  0.5945
  133OSM   H13C14369   2.985   6.093   7.074 -0.4675  0.1858  0.5579
  133OSM    C1214370   3.164   5.902   6.942 -0.4015  0.2578  0.3704
  133OSM   H12A14371   3.187   5.829   7.018 -1.9779 -2.7731 -1.8405
  133OSM   H12B14372   3.210   5.997   6.965 -1.2665  0.7138  0.2532
  133OSM    C1114373   3.241   5.851   6.809  0.3104 -0.0744  0.6934
  133OSM   H11A14374   3.350   5.867   6.826  0.1381  3.3660 -0.5143
  133OSM   H11B14375   3.209   5.911   6.721 -1.0389 -2.5609 -0.6112
  133OSM      P14376   3.235   5.653   6.636 -0.0804 -0.1291  0.4507
  133OSM    O1314377   3.308   5.529   6.663  0.5962  0.2547  0.7677
  133OSM    O1414378   3.108   5.642   6.557 -0.2127 -0.5521 -0.0730
  133OSM    O1114379   3.322   5.754   6.556 -0.5140 -0.4698 -0.1343
  133OSM    O1214380   3.204   5.722   6.776  0.0812  0.4285 -0.7831
  133OSM    C1S14381   3.463   5.752   6.539  0.4797 -0.1528 -0.0744
  133OSM    H1S14382   3.503   5.649   6.542  2.4331  0.5795  0.8780
  133OSM    H1T14383   3.512   5.813   6.618 -0.1015 -0.4412  0.5150
  133OSM     NF14384   3.625   5.806   6.358  0.3659  0.9225 -0.0940
  133OSM    HNF14385   3.692   5.878   6.376  1.8693 -0.4238 -0.0477
  133OSM    C2S14386   3.488   5.814   6.397 -0.0692  0.1377 -0.8455
  133OSM    H2S14387   3.429   5.750   6.329 -2.3533  1.9461 -0.6730
  133OSM    C3S14388   3.434   5.960   6.391 -0.4468 -0.2260  0.7168
  133OSM    H3S14389   3.505   6.022   6.449  1.8416 -1.0829 -1.0028
  133OSM     O314390   3.308   5.974   6.450 -0.0917 -0.2220 -0.0220
  133OSM    HO314391   3.301   5.893   6.500  1.5852  0.6544  1.7636
  133OSM    C4S14392   3.427   6.005   6.246 -0.4976 -0.2355 -0.1109
  133OSM    H4S14393   3.346   5.968   6.181 -0.4134  0.6432 -0.7327
  133OSM    C5S14394   3.519   6.088   6.188 -0.1704 -0.4518 -0.0599
  133OSM    H5S14395   3.604   6.131   6.244  0.3346 -1.1690 -0.2722
  133OSM    C6S14396   3.511   6.127   6.044  0.7544 -0.4242 -0.2143
  133OSM    H6S14397   3.575   6.217   6.036 -1.1555  1.1394  1.2313
  133OSM    H6T14398   3.416   6.177   6.019  1.8852  2.4742  0.8886
  133OSM    C7S14399   3.545   6.014   5.948  0.5390 -0.1536 -0.0308
  133OSM    H7S14400   3.473   5.933   5.973  2.1358 -1.1589  1.6787
  133OSM    H7T14401   3.646   5.973   5.970  0.8298  1.3610  1.7583
  133OSM    C8S14402   3.516   6.046   5.800  0.4108  0.1389  0.1466
  133OSM    H8S14403   3.416   6.084   5.769  1.2130  0.5624 -2.0220
  133OSM    H8T14404   3.518   5.953   5.741  0.9078  0.1712  0.1119
  133OSM    C9S14405   3.616   6.143   5.737 -0.2904 -0.1218  0.3105
  133OSM    H9S14406   3.711   6.105   5.780 -1.0447 -1.2220  1.0518
  133OSM    H9T14407   3.601   6.242   5.787 -0.6455 -0.7506  1.4798
  133OSM   C10S14408   3.620   6.141   5.576  0.2503 -0.5211  0.7774
  133OSM   H10S14409   3.516   6.166   5.547  0.4662 -0.4598  0.0291
  133OSM   H10T14410   3.651   6.041   5.538 -1.4445 -0.0207 -2.2698
  133OSM   C11S14411   3.724   6.244   5.522  0.0104  0.3696  0.2645
  133OSM   H11S14412   3.799   6.251   5.604  0.4859 -2.4560  0.1659
  133OSM   H11T14413   3.665   6.337   5.509 -2.3040 -1.1806 -1.0994
  133OSM   C12S14414   3.801   6.209   5.392 -0.2311  0.0925  0.1109
  133OSM   H12S14415   3.855   6.112   5.405 -0.3727 -0.0769 -0.5169
  133OSM   H12T14416   3.867   6.290   5.355 -0.1786  0.4302  0.9262
  133OSM   C13S14417   3.693   6.188   5.283 -0.4877  0.3667 -0.8356
  133OSM   H13S14418   3.637   6.285   5.284 -1.5954 -0.2577 -0.9582
  133OSM   H13T14419   3.639   6.093   5.302 -0.3746  0.7380  1.6695
  133OSM   C14S14420   3.748   6.182   5.141 -0.8423  0.3914 -0.3791
  133OSM   H14S14421   3.816   6.094   5.133 -0.1469  0.8940 -0.1305
  133OSM   H14T14422   3.810   6.270   5.112 -0.2757  0.9473  2.1840
  133OSM   C15S14423   3.648   6.179   5.034  0.0219 -0.5061 -0.0411
  133OSM   H15S14424   3.563   6.240   5.072  0.3611 -0.4074  0.5713
  133OSM   H15T14425   3.619   6.073   5.022  0.7463 -0.5844 -1.2462
  133OSM   C16S14426   3.698   6.232   4.901 -0.7058 -0.4867  0.3136
  133OSM   H16S14427   3.731   6.338   4.909 -1.0598 -0.5198  2.9131
  133OSM   H16T14428   3.614   6.231   4.828  0.7181 -1.6801 -1.4066
  133OSM   C17S14429   3.801   6.134   4.839  0.0837  0.3465  0.5107
  133OSM   H17S14430   3.763   6.033   4.865 -2.9986  1.4761  0.7519
  133OSM   H17T14431   3.906   6.159   4.867  0.1086  0.8354 -0.0081
  133OSM   C18S14432   3.787   6.147   4.687  0.9386 -0.3713  0.1960
  133OSM   H18S14433   3.810   6.251   4.654  1.7255 -1.0865 -1.6167
  133OSM   H18T14434   3.689   6.108   4.651  0.7893  0.5817 -0.4829
  133OSM   H18U14435   3.867   6.087   4.639  0.5551 -0.9051  0.2195
  133OSM    C1F14436   3.683   5.696   6.325  0.3786  0.1156 -0.3807
  133OSM     OF14437   3.618   5.600   6.295  0.6370  0.2004 -0.3482
  133OSM    C2F14438   3.836   5.684   6.324  0.0795  0.6405  0.3677
  133OSM    H2F14439   3.866   5.668   6.430 -1.8645  0.6995  0.9573
  133OSM    H2G14440   3.888   5.782   6.307  0.9851 -0.2445 -2.7260
  133OSM    C3F14441   3.894   5.574   6.231 -0.2936  0.4622  0.4313
  133OSM    H3F14442   3.882   5.620   6.130  0.3034  1.4345  0.7907
  133OSM    H3G14443   3.845   5.474   6.228  0.3851  0.1288 -0.0074
  133OSM    C4F14444   4.045   5.546   6.242  0.0360 -0.1056 -0.4135
  133OSM    H4F14445   4.070   5.507   6.343 -0.3071  0.3188 -0.1564
  133OSM    H4G14446   4.110   5.636   6.231  0.3887 -0.3592 -0.4282
  133OSM    C5F14447   4.091   5.431   6.155 -0.0304  0.1953  0.2756
  133OSM    H5F14448   4.020   5.346   6.154 -0.4114  0.4527 -2.3781
  133OSM    H5G14449   4.187   5.388   6.192  0.3360 -0.2336 -1.0978
  133OSM    C6F14450   4.123   5.478   6.006  0.0350 -0.3473 -0.3568
  133OSM    H6F14451   4.082   5.582   6.002  0.9738 -0.0141 -2.7107
  133OSM    H6G14452   4.070   5.412   5.935  1.6523 -1.7266 -0.3394
  133OSM    C7F14453   4.273   5.467   5.981  0.1460  0.5319  0.5860
  133OSM    H7F14454   4.310   5.363   5.983  0.1013  0.5185  0.7012
  133OSM    H7G14455   4.329   5.530   6.053 -0.2835  0.4688  0.9826
  133OSM    C8F14456   4.314   5.518   5.838  0.3015  0.7177 -0.5553
  133OSM    H8F14457   4.423   5.527   5.822  0.7600 -3.8418 -1.3598
  133OSM    H8G14458   4.270   5.620   5.827 -0.5323  0.3910 -0.3071
  133OSM    C9F14459   4.257   5.444   5.723 -0.5382 -0.0171 -0.0034
  133OSM    H9F14460   4.196   5.355   5.744 -0.6371  0.3530  1.4033
  133OSM   C10F14461   4.252   5.495   5.599  0.3781 -0.1436 -0.7320
  133OSM   H10F14462   4.188   5.436   5.532 -0.9310 -0.5522  0.8060
  133OSM   C11F14463   4.301   5.632   5.554  0.2494 -0.3817 -0.1772
  133OSM   H11F14464   4.385   5.666   5.618 -0.2816 -0.6643  0.6989
  133OSM   H11G14465   4.221   5.709   5.562  0.0991 -0.2051 -2.5938
  133OSM   C12F14466   4.335   5.642   5.403 -0.7212 -0.1467  0.5370
  133OSM   H12F14467   4.359   5.749   5.385  0.9199 -0.7224 -1.1219
  133OSM   H12G14468   4.245   5.611   5.346 -2.2537 -0.9908  3.2821
  133OSM   C13F14469   4.448   5.550   5.344  0.0580 -0.1859  0.2177
  133OSM   H13F14470   4.428   5.445   5.373 -1.0041 -0.2090 -0.5182
  133OSM   H13G14471   4.535   5.584   5.403 -0.8430 -0.7977  1.9468
  133OSM   C14F14472   4.467   5.548   5.190 -1.1430  0.3887 -0.6690
  133OSM   H14F14473   4.552   5.485   5.157 -0.4399  0.2956  1.1756
  133OSM   H14G14474   4.491   5.654   5.169 -1.2927  1.1351  2.3904
  133OSM   C15F14475   4.338   5.515   5.119 -0.2584  0.3059  0.0383
  133OSM   H15F14476   4.290   5.615   5.112 -1.3047 -0.1976 -0.1795
  133OSM   H15G14477   4.269   5.438   5.158  1.3173  0.2489  2.9215
  133OSM   C16F14478   4.369   5.482   4.975 -0.9080  0.0768  0.2083
  133OSM   H16F14479   4.283   5.438   4.920 -0.3242 -2.5862  1.2697
  133OSM   H16G14480   4.441   5.397   4.973 -0.7813  0.1535  1.0841
  133OSM   C17F14481   4.423   5.598   4.886 -0.6871  0.5767  0.5884
  133OSM   H17F14482   4.489   5.549   4.812 -0.4589 -1.7528  2.2321
  133OSM   H17G14483   4.504   5.656   4.936  1.3828  0.5294 -2.3933
  133OSM   C18F14484   4.308   5.678   4.827  0.1038  0.7772  0.3601
  133OSM   H18F14485   4.260   5.621   4.745 -0.7020  0.4847  1.0141
  133OSM   H18G14486   4.355   5.768   4.783 -0.2706  0.3256 -0.9998
  133OSM   H18H14487   4.230   5.694   4.905 -1.0187 -1.1160 -0.2956
  134OSM      N14488   3.115   4.825   6.812  0.3716  0.4877  0.3053
  134OSM    C1514489   3.189   4.888   6.696  0.1754  0.0801  0.7273
  134OSM   H15A14490   3.292   4.904   6.724  0.1152 -2.2754  2.6367
  134OSM   H15B14491   3.141   4.981   6.671  0.0351  0.0865  1.0107
  134OSM   H15C14492   3.188   4.828   6.606  0.0203 -0.5742  1.1582
  134OSM    C1414493   3.177   4.697   6.855  0.1224 -0.2899  0.0776
  134OSM   H14A14494   3.284   4.700   6.845  0.1790  1.5553  0.7921
  134OSM   H14B14495   3.140   4.625   6.783  1.1883 -0.3065 -0.4624
  134OSM   H14C14496   3.148   4.667   6.955  1.3318 -2.0313 -0.0588
  134OSM    C1314497   3.108   4.910   6.934  0.4762  0.0488 -0.1967
  134OSM   H13A14498   3.079   5.009   6.904 -0.1837 -0.1345 -0.1700
  134OSM   H13B14499   3.202   4.911   6.988  0.3140 -0.7880  0.1215
  134OSM   H13C14500   3.034   4.873   7.004 -0.3768 -0.0463 -1.1318
  134OSM    C1214501   2.979   4.783   6.766  0.3786 -0.3183  0.3100
  134OSM   H12A14502   2.927   4.745   6.853  0.4227  0.9847  0.9253
  134OSM   H12B14503   2.981   4.703   6.694 -1.6542 -1.5339  1.5110
  134OSM    C1114504   2.876   4.890   6.713 -0.6586  0.2042  0.0148
  134OSM   H11A14505   2.898   4.980   6.774 -0.4819  1.5978 -2.0139
  134OSM   H11B14506   2.771   4.855   6.728 -0.4559 -0.2683  0.3811
  134OSM      P14507   2.884   4.788   6.473 -0.2832  0.0970  0.0835
  134OSM    O1314508   3.019   4.746   6.437 -0.3302  0.0614  0.0768
  134OSM    O1414509   2.785   4.686   6.526  0.0208 -0.2043 -0.1143
  134OSM    O1114510   2.812   4.847   6.344 -0.8238 -0.4962 -0.3261
  134OSM    O1214511   2.895   4.914   6.576 -0.4348  0.1025 -0.1003
  134OSM    C1S14512   2.869   4.962   6.282  0.2282 -0.5591  0.2507
  134OSM    H1S14513   2.972   4.986   6.315 -0.1804  0.6661  0.6957
  134OSM    H1T14514   2.807   5.051   6.304  0.2917  0.0536 -1.7901
  134OSM     NF14515   2.937   5.067   6.069  0.2946  0.7617 -0.1773
  134OSM    HNF14516   2.873   5.136   6.035  1.4049  3.3954  2.5508
  134OSM    C2S14517   2.871   4.951   6.119  0.3049 -0.1066 -0.4390
  134OSM    H2S14518   2.935   4.861   6.102 -1.5146 -1.2474 -1.4664
  134OSM    C3S14519   2.724   4.923   6.066  0.1378  1.0659 -0.3854
  134OSM    H3S14520   2.667   5.017   6.069 -1.2327  0.2913 -1.1495
  134OSM     O314521   2.640   4.831   6.146 -0.0513 -0.1241  0.3740
  134OSM    HO314522   2.696   4.822   6.224 -1.4471  0.9308  1.5561
  134OSM    C4S14523   2.733   4.879   5.914  0.7021  0.3745  0.4880
  134OSM    H4S14524   2.719   4.968   5.851  2.1045  0.5212  0.3584
  134OSM    C5S14525   2.734   4.758   5.862 -0.3560  0.1569 -0.1252
  134OSM    H5S14526   2.744   4.673   5.931  1.0324  0.0633 -0.4054
  134OSM    C6S14527   2.724   4.718   5.719 -0.9263 -0.9513  0.1952
  134OSM    H6S14528   2.629   4.660   5.718 -2.2947  0.8947  3.8710
  134OSM    H6T14529   2.802   4.642   5.698 -0.9144 -0.4082 -1.8777
  134OSM    C7S14530   2.726   4.833   5.622  0.5261 -0.1822  0.4616
  134OSM    H7S14531   2.814   4.898   5.639  1.5981 -1.2825 -0.6589
  134OSM    H7T14532   2.633   4.893   5.639 -0.2845 -1.6979  1.6111
  134OSM    C8S14533   2.731   4.781   5.476 -0.4396 -0.7855  0.3760
  134OSM    H8S14534   2.651   4.704   5.474 -0.3406 -0.9717  1.9320
  134OSM    H8T14535   2.832   4.742   5.450  0.4565  1.7003 -0.1564
  134OSM    C9S14536   2.698   4.888   5.378  0.6248 -0.2364 -0.0648
  134OSM    H9S14537   2.779   4.964   5.389  1.2267 -1.0603  1.4792
  134OSM    H9T14538   2.599   4.935   5.398  0.6359 -0.8179  1.4742
  134OSM   C10S14539   2.689   4.833   5.241  0.6661  0.2537  0.3144
  134OSM   H10S14540   2.613   4.754   5.223 -0.3246  1.5344 -1.4117
  134OSM   H10T14541   2.788   4.790   5.213  0.5002 -0.2304  0.4586
  134OSM   C11S14542   2.660   4.937   5.132 -0.0875  0.1773  0.1499
  134OSM   H11S14543   2.735   5.020   5.135  0.7797 -0.5636 -0.6073
  134OSM   H11T14544   2.553   4.966   5.145  0.5300  2.1218  1.3018
  134OSM   C12S14545   2.669   4.883   4.989  0.0913 -0.0425  0.4560
  134OSM   H12S14546   2.624   4.783   5.005 -0.5978  0.0610 -0.7069
  134OSM   H12T14547   2.771   4.868   4.946 -0.1669 -0.1738 -0.1242
  134OSM   C13S14548   2.584   4.976   4.895  0.5077 -0.1317  0.7871
  134OSM   H13S14549   2.607   5.083   4.914  2.7856 -1.0669  4.1061
  134OSM   H13T14550   2.474   4.960   4.896  0.3419  0.7089 -0.6628
  134OSM   C14S14551   2.623   4.966   4.744  0.2708 -0.4429 -0.0999
  134OSM   H14S14552   2.613   4.860   4.712 -2.6392 -0.5195  0.7658
  134OSM   H14T14553   2.731   4.992   4.738  0.5111 -1.4719 -0.3751
  134OSM   C15S14554   2.522   5.043   4.657  0.3338 -0.5024  0.3232
  134OSM   H15S14555   2.519   5.150   4.687  1.9065 -0.1901 -0.5393
  134OSM   H15T14556   2.419   5.002   4.653  0.4714 -0.8004 -0.5251
  134OSM   C16S14557   2.568   5.043   4.510 -0.5141 -0.0201 -0.0770
  134OSM   H16S14558   2.479   5.087   4.458 -0.8705  3.6344  3.1340
  134OSM   H16T14559   2.582   4.939   4.474  2.0122 -0.3150  1.5708
  134OSM   C17S14560   2.682   5.132   4.465  0.1844 -0.3553  0.2659
  134OSM   H17S14561   2.773   5.109   4.524  0.0440 -1.8224 -0.0595
  134OSM   H17T14562   2.647   5.232   4.499 -1.9777 -0.5127 -1.2836
  134OSM   C18S14563   2.722   5.119   4.322  0.3923  0.6094 -0.0230
  134OSM   H18S14564   2.765   5.018   4.308 -0.9500  0.1183 -0.7195
  134OSM   H18T14565   2.792   5.199   4.291  2.9527 -1.7965 -0.7742
  134OSM   H18U14566   2.630   5.116   4.259 -0.2370 -1.9918  0.8959
  134OSM    C1F14567   3.063   5.098   6.089 -0.6231 -0.1850 -0.0777
  134OSM     OF14568   3.138   5.013   6.133  0.0137  0.3930  0.1162
  134OSM    C2F14569   3.105   5.237   6.078  0.3443  0.0496  0.4809
  134OSM    H2F14570   3.138   5.259   6.182  0.9579 -1.4936  0.6377
  134OSM    H2G14571   3.011   5.286   6.047 -0.9450 -3.1132 -1.0539
  134OSM    C3F14572   3.224   5.248   5.982 -0.0320 -0.2148 -0.1705
  134OSM    H3F14573   3.305   5.189   6.029  0.2022  0.3570  0.1584
  134OSM    H3G14574   3.265   5.351   5.981  4.9957 -1.9766 -1.1323
  134OSM    C4F14575   3.206   5.211   5.833  0.0059 -0.5218  0.1000
  134OSM    H4F14576   3.138   5.284   5.784  1.9246  0.0953 -1.7838
  134OSM    H4G14577   3.180   5.103   5.821  1.6735 -1.2944  2.7302
  134OSM    C5F14578   3.326   5.254   5.741 -0.0617  0.1755  0.0193
  134OSM    H5F14579   3.409   5.180   5.744 -0.3986 -0.2273 -0.3918
  134OSM    H5G14580   3.368   5.351   5.774  1.1225 -0.1764 -0.4041
  134OSM    C6F14581   3.286   5.255   5.599  0.0344 -0.0736  0.0838
  134OSM    H6F14582   3.202   5.326   5.585 -0.6438 -0.7678  0.5331
  134OSM    H6G14583   3.250   5.157   5.561 -0.7308  1.4073 -3.3251
  134OSM    C7F14584   3.409   5.303   5.508  0.2714  0.5610 -0.7444
  134OSM    H7F14585   3.491   5.231   5.531 -0.5453 -0.3936 -0.7700
  134OSM    H7G14586   3.444   5.406   5.527  0.5808  0.4485 -0.6850
  134OSM    C8F14587   3.376   5.288   5.354  0.2046  0.2958 -0.1436
  134OSM    H8F14588   3.270   5.314   5.333  0.8015  2.2332 -1.0178
  134OSM    H8G14589   3.405   5.186   5.319 -0.5129  0.7313 -2.1539
  134OSM    C9F14590   3.467   5.369   5.275  0.2004 -0.3415  0.1738
  134OSM    H9F14591   3.563   5.382   5.327 -0.0479 -0.4182  0.6591
  134OSM   C10F14592   3.441   5.426   5.153  0.3074 -0.1603 -0.3543
  134OSM   H10F14593   3.515   5.492   5.107  0.4738  1.1238  1.5981
  134OSM   C11F14594   3.313   5.409   5.078  0.2056 -0.5538 -0.4835
  134OSM   H11F14595   3.265   5.509   5.082  0.0539 -0.6507  0.2788
  134OSM   H11G14596   3.240   5.345   5.132 -0.9281  0.2851 -0.9856
  134OSM   C12F14597   3.325   5.364   4.931 -0.2499 -0.5622 -0.2551
  134OSM   H12F14598   3.366   5.261   4.930 -0.1132 -0.5114 -0.0263
  134OSM   H12G14599   3.409   5.416   4.880 -1.4417  1.3757 -0.3483
  134OSM   C13F14600   3.198   5.376   4.846 -0.2771 -0.3188 -0.0089
  134OSM   H13F14601   3.154   5.477   4.857  0.2687  0.0288 -0.9396
  134OSM   H13G14602   3.115   5.311   4.881  0.3633 -0.3884  1.4526
  134OSM   C14F14603   3.218   5.334   4.701  0.5652  0.3214  0.6146
  134OSM   H14F14604   3.219   5.223   4.695 -0.1307  0.3158  0.5473
  134OSM   H14G14605   3.318   5.372   4.670  0.8784 -0.2583  0.9033
  134OSM   C15F14606   3.120   5.399   4.598  0.4002  0.4007 -0.6200
  134OSM   H15F14607   3.121   5.505   4.631 -1.2196 -0.2713  1.8168
  134OSM   H15G14608   3.018   5.357   4.615 -0.2919  2.6431  1.1689
  134OSM   C16F14609   3.169   5.394   4.457 -0.3198  0.6844  0.0748
  134OSM   H16F14610   3.189   5.287   4.435 -2.2121  0.4422 -0.6433
  134OSM   H16G14611   3.264   5.450   4.448  0.9228 -1.5430 -1.6047
  134OSM   C17F14612   3.057   5.432   4.363 -0.9982 -0.0481 -0.4579
  134OSM   H17F14613   2.969   5.371   4.392 -1.3150  1.0057  0.9275
  134OSM   H17G14614   3.077   5.415   4.256 -0.2557  2.8515 -0.8624
  134OSM   C18F14615   3.019   5.586   4.366  0.0304 -0.2306  0.4602
  134OSM   H18F14616   3.102   5.659   4.377 -0.6880  0.3441  2.5408
  134OSM   H18G14617   2.960   5.596   4.459  1.1920 -1.0647  1.3142
  134OSM   H18H14618   2.951   5.609   4.282 -0.5345  1.9959  1.4364
  135OSM      N14619   3.774   4.458   6.774  0.2831 -0.3089 -0.1908
  135OSM    C1514620   3.891   4.439   6.873 -0.1171 -0.4294 -0.3200
  135OSM   H15A14621   3.919   4.335   6.880 -1.8153 -1.0168 -1.6458
  135OSM   H15B14622   3.868   4.467   6.975  4.7325  1.3078  0.5420
  135OSM   H15C14623   3.973   4.504   6.845 -1.2483  1.6084  0.7949
  135OSM    C1414624   3.644   4.415   6.837  0.1147  0.0922  0.1909
  135OSM   H14A14625   3.568   4.410   6.760 -0.2158  0.4982  0.4815
  135OSM   H14B14626   3.611   4.473   6.923 -1.6702  0.9152 -0.9926
  135OSM   H14C14627   3.662   4.318   6.882  2.1788  0.9125  1.2555
  135OSM    C1314628   3.779   4.607   6.740  0.5417  0.1874 -0.3299
  135OSM   H13A14629   3.871   4.635   6.692  0.3495  1.2109 -0.1150
  135OSM   H13B14630   3.763   4.673   6.824  3.0056  0.7851 -0.2614
  135OSM   H13C14631   3.705   4.615   6.662 -2.2584  0.0948  2.1331
  135OSM    C1214632   3.800   4.380   6.648  0.4852  0.7516  0.0863
  135OSM   H12A14633   3.797   4.274   6.670 -0.2045  0.8648  0.5639
  135OSM   H12B14634   3.890   4.398   6.591  0.4127 -1.7370 -0.9611
  135OSM    C1114635   3.695   4.388   6.532 -0.1947 -0.2782  0.6700
  135OSM   H11A14636   3.733   4.336   6.442  0.2183 -1.9846  1.7978
  135OSM   H11B14637   3.691   4.497   6.508 -0.3186 -0.6462 -1.1401
  135OSM      P14638   3.530   4.188   6.568 -0.1031 -0.3654 -0.2532
  135OSM    O1314639   3.620   4.118   6.661 -0.0399  0.2859 -0.0626
  135OSM    O1414640   3.383   4.174   6.594 -0.6397  0.1628 -0.5795
  135OSM    O1114641   3.566   4.142   6.424 -0.3657 -0.0066  0.1571
  135OSM    O1214642   3.573   4.337   6.569  0.3961 -0.3158  0.4141
  135OSM    C1S14643   3.516   4.208   6.305 -0.6917  0.2702  0.4687
  135OSM    H1S14644   3.520   4.319   6.317  1.7062  0.6842 -2.8245
  135OSM    H1T14645   3.408   4.183   6.290 -0.6341  1.0289 -1.3948
  135OSM     NF14646   3.564   4.227   6.063  0.9943 -0.1718 -0.4129
  135OSM    HNF14647   3.493   4.200   5.999 -0.9208 -0.0407  1.5410
  135OSM    C2S14648   3.596   4.152   6.183  0.4125 -0.3561  0.2970
  135OSM    H2S14649   3.701   4.180   6.206  1.4568 -1.6971 -2.4547
  135OSM    C3S14650   3.584   3.999   6.169 -0.3026  0.0158 -0.3097
  135OSM    H3S14651   3.475   3.977   6.162 -0.9619  2.3055  1.3479
  135OSM     O314652   3.615   3.918   6.280  0.3721 -0.8311 -0.5408
  135OSM    HO314653   3.613   3.973   6.358 -0.2699 -0.9712 -0.4516
  135OSM    C4S14654   3.653   3.948   6.040  0.5842  0.1028 -0.1044
  135OSM    H4S14655   3.580   3.939   5.958 -0.7803 -2.7830  1.2788
  135OSM    C5S14656   3.786   3.916   6.028 -0.8066  0.5198  0.2301
  135OSM    H5S14657   3.848   3.923   6.118 -4.2401  0.2793  2.8236
  135OSM    C6S14658   3.863   3.862   5.909  0.3356 -0.3970  0.3813
  135OSM    H6S14659   3.953   3.924   5.893 -0.3035 -0.1960 -3.3088
  135OSM    H6T14660   3.801   3.872   5.817  1.3185  2.2070 -0.0794
  135OSM    C7S14661   3.884   3.713   5.909  0.3196 -0.6430 -0.1190
  135OSM    H7S14662   3.786   3.661   5.900 -0.4354  0.2158  2.3546
  135OSM    H7T14663   3.935   3.687   6.004 -0.7181  0.5498  0.7996
  135OSM    C8S14664   3.955   3.652   5.785 -0.4862 -0.7379 -0.6698
  135OSM    H8S14665   4.061   3.684   5.778 -1.4076  2.5306 -1.6670
  135OSM    H8T14666   3.934   3.707   5.691 -0.0814  1.2664  0.3458
  135OSM    C9S14667   3.921   3.506   5.770 -0.3379 -0.1692 -0.1625
  135OSM    H9S14668   3.816   3.493   5.737  0.1988 -1.6657 -1.4638
  135OSM    H9T14669   3.938   3.450   5.864 -0.6553  0.6544  0.3860
  135OSM   C10S14670   4.018   3.433   5.674 -0.1532 -0.3235 -0.2407
  135OSM   H10S14671   4.015   3.327   5.706  2.5882 -0.5597 -0.5501
  135OSM   H10T14672   4.121   3.469   5.696  0.2015 -1.0787 -0.6331
  135OSM   C11S14673   3.985   3.459   5.534  0.0824  0.1269  0.0684
  135OSM   H11S14674   3.983   3.566   5.506 -0.5046 -0.0933 -0.7640
  135OSM   H11T14675   3.883   3.424   5.507 -0.3038  0.7163  0.7455
  135OSM   C12S14676   4.077   3.371   5.447 -0.6077  0.4046  0.1365
  135OSM   H12S14677   4.054   3.267   5.478 -1.4921  0.6525  0.3608
  135OSM   H12T14678   4.180   3.405   5.471 -0.4607 -0.0296  0.1147
  135OSM   C13S14679   4.055   3.386   5.295  0.1953  0.2045  0.4669
  135OSM   H13S14680   4.012   3.485   5.272 -4.7935 -1.7424  0.2539
  135OSM   H13T14681   3.974   3.315   5.270 -1.4069  1.8310  0.8937
  135OSM   C14S14682   4.180   3.367   5.208  0.4716  0.0357  0.3229
  135OSM   H14S14683   4.146   3.339   5.106 -1.6603  1.0645  0.6805
  135OSM   H14T14684   4.236   3.282   5.253  1.6912  1.3450  1.3471
  135OSM   C15S14685   4.268   3.490   5.185  1.0950 -0.2458  0.2923
  135OSM   H15S14686   4.295   3.553   5.273  2.4593 -0.4202  0.0230
  135OSM   H15T14687   4.212   3.554   5.114  0.6853 -3.1036 -2.1681
  135OSM   C16S14688   4.396   3.458   5.107  0.2945 -0.3793 -0.1438
  135OSM   H16S14689   4.361   3.403   5.017 -3.3852  1.0246  0.2596
  135OSM   H16T14690   4.457   3.390   5.170 -0.3855 -1.9902 -1.1256
  135OSM   C17S14691   4.475   3.582   5.074 -0.4647  0.1661 -0.0220
  135OSM   H17S14692   4.509   3.634   5.166 -0.8526  0.6705 -0.1551
  135OSM   H17T14693   4.397   3.654   5.039 -0.0675  0.9344  0.6400
  135OSM   C18S14694   4.581   3.551   4.972 -0.0997 -0.2604 -0.1736
  135OSM   H18S14695   4.545   3.552   4.867 -0.7557  1.3897  0.0338
  135OSM   H18T14696   4.646   3.464   4.990  0.2696 -0.4689 -2.2166
  135OSM   H18U14697   4.647   3.640   4.968 -1.7013  0.9645 -1.0383
  135OSM    C1F14698   3.601   4.356   6.051 -0.2796 -0.5113 -0.4797
  135OSM     OF14699   3.676   4.408   6.138 -0.2318  0.1797 -0.0765
  135OSM    C2F14700   3.549   4.434   5.928  0.1661 -0.1545 -0.5615
  135OSM    H2F14701   3.441   4.453   5.946  0.0697  2.8234 -3.3491
  135OSM    H2G14702   3.566   4.368   5.840  0.7231 -2.0992  0.9139
  135OSM    C3F14703   3.614   4.571   5.926 -0.6332 -0.1053  0.3967
  135OSM    H3F14704   3.725   4.565   5.932 -0.3388 -0.0305 -3.0093
  135OSM    H3G14705   3.571   4.637   6.005  1.7854  0.6424  1.1830
  135OSM    C4F14706   3.603   4.642   5.789 -0.4887 -0.5538 -0.0878
  135OSM    H4F14707   3.665   4.586   5.716 -1.1604  0.3473 -1.3946
  135OSM    H4G14708   3.503   4.657   5.742  0.2808 -0.5164 -1.8091
  135OSM    C5F14709   3.645   4.793   5.802  0.2100  0.1847  0.2039
  135OSM    H5F14710   3.738   4.795   5.863 -0.5266 -1.4623  1.4678
  135OSM    H5G14711   3.570   4.847   5.864  0.0973  0.7874 -0.4482
  135OSM    C6F14712   3.673   4.864   5.671 -0.6311 -0.1901  0.1026
  135OSM    H6F14713   3.750   4.804   5.618 -1.1161 -0.1355 -0.6916
  135OSM    H6G14714   3.717   4.962   5.698 -0.7861 -0.8814  3.1926
  135OSM    C7F14715   3.554   4.887   5.580  0.3993 -0.2465  0.6489
  135OSM    H7F14716   3.479   4.956   5.626 -1.8982 -0.4567 -2.4471
  135OSM    H7G14717   3.501   4.791   5.566  1.2232 -0.8868  1.7492
  135OSM    C8F14718   3.588   4.942   5.440  0.2632  0.5860  0.0872
  135OSM    H8F14719   3.652   5.032   5.450  1.2222 -0.1187  0.4166
  135OSM    H8G14720   3.490   4.976   5.399  1.2005  0.6881 -2.1760
  135OSM    C9F14721   3.641   4.836   5.339 -0.9495  0.1641 -0.3324
  135OSM    H9F14722   3.622   4.730   5.356 -0.4017 -0.1785 -1.7076
  135OSM   C10F14723   3.707   4.872   5.225  0.2131 -0.2733 -0.0626
  135OSM   H10F14724   3.746   4.801   5.150  1.1465  1.3571 -1.1755
  135OSM   C11F14725   3.720   5.015   5.175 -0.5175 -0.3636  0.4452
  135OSM   H11F14726   3.826   5.038   5.153  0.3151 -0.5622  3.7811
  135OSM   H11G14727   3.702   5.093   5.252  1.9908 -0.1919  0.9472
  135OSM   C12F14728   3.627   5.059   5.059  1.0888  0.1709 -0.2151
  135OSM   H12F14729   3.658   5.165   5.050  1.9657 -0.1788 -1.5609
  135OSM   H12G14730   3.519   5.044   5.080  1.4865 -0.5472  1.5951
  135OSM   C13F14731   3.661   4.991   4.927  0.3551  0.0473  0.6770
  135OSM   H13F14732   3.611   4.892   4.920  0.8037 -0.0661 -2.5394
  135OSM   H13G14733   3.770   4.972   4.928  0.2361 -0.7579 -0.0382
  135OSM   C14F14734   3.611   5.076   4.816 -0.0522  0.1957  0.1516
  135OSM   H14F14735   3.675   5.166   4.804 -1.6119  1.2300 -0.7793
  135OSM   H14G14736   3.507   5.106   4.839  1.4076  3.4193  3.7260
  135OSM   C15F14737   3.601   4.995   4.691 -0.1886 -0.1113 -0.8720
  135OSM   H15F14738   3.527   4.915   4.715  1.5591 -1.3181  0.7614
  135OSM   H15G14739   3.696   4.945   4.662  0.9276  1.9301 -0.8911
  135OSM   C16F14740   3.546   5.074   4.575  0.2854 -0.6705 -0.3820
  135OSM   H16F14741   3.615   5.157   4.549 -0.2683  0.0300  0.3342
  135OSM   H16G14742   3.446   5.122   4.575  0.0821 -1.0802 -1.3860
  135OSM   C17F14743   3.550   4.986   4.450 -0.0290  0.0410 -0.0405
  135OSM   H17F14744   3.482   4.905   4.484  0.4854  0.1205  1.2535
  135OSM   H17G14745   3.653   4.956   4.421 -0.8581  0.5640 -4.2183
  135OSM   C18F14746   3.501   5.081   4.342 -0.2722 -0.0679  0.6954
  135OSM   H18F14747   3.393   5.093   4.365  0.0141 -0.9028  2.7078
  135OSM   H18G14748   3.503   5.041   4.238  1.7129  2.0947 -0.1902
  135OSM   H18H14749   3.551   5.180   4.340  0.2149 -0.2677 -2.7189
  136OSM      N14750   6.126   4.491   6.816 -0.0051  0.5454 -0.0346
  136OSM    C1514751   6.047   4.381   6.893  0.3849 -0.1083 -0.4497
  136OSM   H15A14752   6.014   4.423   6.986 -3.9408  0.7593 -2.1167
  136OSM   H15B14753   6.103   4.290   6.904 -0.2748 -0.3789  0.8348
  136OSM   H15C14754   5.959   4.365   6.832 -0.1658  0.7285  0.1012
  136OSM    C1414755   6.050   4.617   6.808  0.2251 -0.5789  0.3493
  136OSM   H14A14756   5.957   4.609   6.754  1.6993 -0.7238 -2.3249
  136OSM   H14B14757   6.102   4.693   6.752  0.9569 -2.4505 -1.6490
  136OSM   H14C14758   6.028   4.652   6.908  0.9166  0.4371  0.1714
  136OSM    C1314759   6.250   4.517   6.896 -0.0493  0.4745 -0.8216
  136OSM   H13A14760   6.294   4.419   6.908  1.7555  1.3164 -0.2271
  136OSM   H13B14761   6.235   4.568   6.990 -1.0118 -1.0619 -0.1092
  136OSM   H13C14762   6.302   4.586   6.830 -0.9959  2.5742  0.5284
  136OSM    C1214763   6.158   4.444   6.678  0.2299 -0.0799  0.8766
  136OSM   H12A14764   6.213   4.352   6.685  2.0459  0.8304 -0.5496
  136OSM   H12B14765   6.223   4.514   6.629  1.1581 -1.1527  0.5354
  136OSM    C1114766   6.037   4.420   6.586  0.1715 -0.0624  0.0353
  136OSM   H11A14767   6.074   4.386   6.487  0.0590 -0.7404  0.2238
  136OSM   H11B14768   5.994   4.521   6.570  0.6623  0.2642  0.7141
  136OSM      P14769   5.783   4.367   6.611  0.0530 -0.0126  0.1728
  136OSM    O1314770   5.711   4.257   6.682  0.1993 -0.6760 -0.3779
  136OSM    O1414771   5.747   4.506   6.640  0.4015 -0.2201  0.2565
  136OSM    O1114772   5.758   4.345   6.460  0.3797 -0.2950  0.2001
  136OSM    O1214773   5.936   4.328   6.630  0.0175 -0.1077 -0.2818
  136OSM    C1S14774   5.798   4.440   6.364 -0.1928  0.2742 -0.8107
  136OSM    H1S14775   5.908   4.454   6.361 -0.0729 -0.2834  0.3754
  136OSM    H1T14776   5.763   4.545   6.381  2.6610  1.7051 -2.8629
  136OSM     NF14777   5.806   4.506   6.130 -0.2416 -0.1277  0.2780
  136OSM    HNF14778   5.735   4.569   6.096 -0.0408 -0.9075 -1.7454
  136OSM    C2S14779   5.753   4.408   6.221  0.3465 -0.5094 -0.3049
  136OSM    H2S14780   5.800   4.309   6.203  3.2854  1.0954 -2.3074
  136OSM    C3S14781   5.599   4.397   6.215 -0.0185  0.1599  0.3806
  136OSM    H3S14782   5.540   4.488   6.237  1.4588  1.5234 -1.0788
  136OSM     O314783   5.547   4.298   6.313  0.2905  0.1343 -0.2948
  136OSM    HO314784   5.627   4.297   6.365  0.7079 -0.0551 -0.9324
  136OSM    C4S14785   5.562   4.348   6.077  0.4042  0.9337  0.9528
  136OSM    H4S14786   5.605   4.248   6.059  0.0454  1.0566 -0.7341
  136OSM    C5S14787   5.508   4.421   5.983  0.3362  0.5870  1.1033
  136OSM    H5S14788   5.478   4.524   6.007  2.5853  1.8704 -1.0622
  136OSM    C6S14789   5.483   4.373   5.842 -0.0199  0.4845 -0.1458
  136OSM    H6S14790   5.372   4.374   5.829 -0.4213 -2.1704  2.1269
  136OSM    H6T14791   5.510   4.265   5.837  1.8191  0.9477 -0.9875
  136OSM    C7S14792   5.537   4.466   5.729 -0.0212  0.3077  0.4183
  136OSM    H7S14793   5.647   4.454   5.730  0.1900  2.0862  0.5570
  136OSM    H7T14794   5.516   4.574   5.739 -1.2276  0.2221 -0.7715
  136OSM    C8S14795   5.508   4.422   5.582 -0.1954  0.2443  0.3148
  136OSM    H8S14796   5.398   4.417   5.572 -0.2753  0.6633  0.9151
  136OSM    H8T14797   5.539   4.319   5.555 -2.9173 -0.1287 -1.7516
  136OSM    C9S14798   5.571   4.517   5.482 -0.2424 -0.4977  0.9377
  136OSM    H9S14799   5.680   4.499   5.470 -0.1347  0.0568  1.0522
  136OSM    H9T14800   5.553   4.622   5.514  1.5677  0.3862 -0.7042
  136OSM   C10S14801   5.511   4.502   5.340 -0.4009 -0.5279  0.0225
  136OSM   H10S14802   5.408   4.543   5.335 -0.1985 -0.1693 -3.5778
  136OSM   H10T14803   5.526   4.400   5.299  4.0797  0.4735 -1.3593
  136OSM   C11S14804   5.586   4.597   5.240  0.7247 -0.0058  0.3990
  136OSM   H11S14805   5.694   4.584   5.266  0.5656 -1.6560  0.3310
  136OSM   H11T14806   5.551   4.703   5.241  2.7622  0.7684 -1.2857
  136OSM   C12S14807   5.573   4.548   5.100  0.0509 -0.3926 -0.1978
  136OSM   H12S14808   5.463   4.553   5.081  0.0036 -0.9944 -0.1252
  136OSM   H12T14809   5.604   4.441   5.104 -0.4765 -0.6447 -2.1765
  136OSM   C13S14810   5.652   4.626   5.000 -0.1241 -0.0439  0.1817
  136OSM   H13S14811   5.700   4.704   5.064  1.0789 -0.8531  0.3151
  136OSM   H13T14812   5.595   4.676   4.920  1.1298  0.5569 -0.3717
  136OSM   C14S14813   5.766   4.548   4.932 -0.0560 -0.1434  0.6753
  136OSM   H14S14814   5.732   4.457   4.878  0.8473 -0.4223  0.5585
  136OSM   H14T14815   5.837   4.514   5.011  1.9567  2.5249  0.1649
  136OSM   C15S14816   5.838   4.642   4.830 -0.4259 -0.1977  0.0629
  136OSM   H15S14817   5.892   4.710   4.900 -0.6402  0.7973 -0.7064
  136OSM   H15T14818   5.769   4.714   4.780  0.0094  0.9596  1.0763
  136OSM   C16S14819   5.938   4.574   4.727  0.2963 -0.0691  0.6346
  136OSM   H16S14820   5.995   4.657   4.680  0.5357 -0.6344 -0.0944
  136OSM   H16T14821   5.864   4.544   4.649  0.1995  0.0956  0.6615
  136OSM   C17S14822   6.022   4.452   4.777 -0.8394  0.2357  0.1997
  136OSM   H17S14823   5.952   4.378   4.821 -0.3489  0.7888  1.9709
  136OSM   H17T14824   6.096   4.488   4.852 -0.2037  0.2267 -0.4144
  136OSM   C18S14825   6.102   4.380   4.666  0.2091  0.1929 -0.0857
  136OSM   H18S14826   6.025   4.345   4.594  0.3443 -2.6226  1.0141
  136OSM   H18T14827   6.144   4.292   4.719  0.5884  1.2735  1.4805
  136OSM   H18U14828   6.178   4.451   4.625 -0.2738  1.7184  1.5270
  136OSM    C1F14829   5.937   4.515   6.104  0.6959 -0.0248  0.5899
  136OSM     OF14830   6.013   4.428   6.145 -0.0564 -0.0477  0.1316
  136OSM    C2F14831   5.999   4.628   6.022  0.6288 -0.1663 -0.0509
  136OSM    H2F14832   6.078   4.670   6.087 -1.0941 -0.2894  2.2352
  136OSM    H2G14833   5.929   4.712   5.998  3.8948  2.1673 -2.4344
  136OSM    C3F14834   6.039   4.572   5.883 -0.6409  0.3479 -1.0117
  136OSM    H3F14835   6.107   4.486   5.896  1.6604  2.3333  1.0731
  136OSM    H3G14836   6.092   4.649   5.824 -0.3434  0.6007 -0.4204
  136OSM    C4F14837   5.924   4.519   5.801 -0.6917 -0.1143  0.5609
  136OSM    H4F14838   5.848   4.600   5.789  1.0474  1.4821 -0.1153
  136OSM    H4G14839   5.872   4.435   5.852  1.2938 -2.2730 -0.8006
  136OSM    C5F14840   5.972   4.472   5.662 -0.0636 -0.1070  1.1105
  136OSM    H5F14841   5.886   4.424   5.611  0.1541  1.9507 -1.3725
  136OSM    H5G14842   6.044   4.388   5.680 -0.5981 -0.8242 -0.0167
  136OSM    C6F14843   6.023   4.586   5.567 -0.2449 -0.3039 -0.1303
  136OSM    H6F14844   6.133   4.595   5.582 -0.1869 -3.3883  2.6602
  136OSM    H6G14845   5.975   4.681   5.596  2.4324  0.2706  3.1415
  136OSM    C7F14846   5.985   4.553   5.417  0.2753  0.2899 -0.9610
  136OSM    H7F14847   5.880   4.519   5.411 -0.4603  1.9548  1.2924
  136OSM    H7G14848   6.040   4.462   5.384  0.7876  0.5853 -0.9374
  136OSM    C8F14849   6.026   4.657   5.310 -0.4072  0.4656 -0.2381
  136OSM    H8F14850   5.970   4.753   5.323 -1.1125  0.0762 -0.3534
  136OSM    H8G14851   5.982   4.605   5.222 -0.3502 -0.5552  0.3318
  136OSM    C9F14852   6.176   4.668   5.306 -1.1239 -0.2403 -0.0839
  136OSM    H9F14853   6.208   4.726   5.394 -1.9552  0.1069 -0.0030
  136OSM   C10F14854   6.270   4.638   5.216 -0.0146  0.5935  0.8205
  136OSM   H10F14855   6.375   4.651   5.244  0.7945 -3.3268  0.0740
  136OSM   C11F14856   6.250   4.580   5.077  0.5477  0.5158 -0.3605
  136OSM   H11F14857   6.141   4.557   5.070  0.5232  0.8086 -1.0015
  136OSM   H11G14858   6.306   4.484   5.072 -1.5416 -0.6948 -3.1375
  136OSM   C12F14859   6.275   4.667   4.962  0.6869 -0.5757 -0.0883
  136OSM   H12F14860   6.265   4.611   4.866 -0.9883 -1.8395  0.7738
  136OSM   H12G14861   6.371   4.721   4.973 -0.1604  1.4019 -1.6340
  136OSM   C13F14862   6.174   4.774   4.946  0.4081 -0.1322 -0.7685
  136OSM   H13F14863   6.202   4.848   5.024  4.1437  0.8182 -2.7589
  136OSM   H13G14864   6.066   4.754   4.964 -0.3384  2.9212 -1.2685
  136OSM   C14F14865   6.202   4.859   4.825  0.1041  0.2491  0.3628
  136OSM   H14F14866   6.207   4.792   4.736  2.8867  0.8974 -0.0678
  136OSM   H14G14867   6.299   4.912   4.839  0.0806  0.8608 -1.5042
  136OSM   C15F14868   6.082   4.957   4.805 -0.6130 -0.3529 -0.3164
  136OSM   H15F14869   6.062   5.001   4.905  0.1388  0.7160 -0.6171
  136OSM   H15G14870   5.986   4.906   4.781 -1.1832 -0.1257  1.3668
  136OSM   C16F14871   6.112   5.079   4.709 -0.4674 -0.1076 -0.4369
  136OSM   H16F14872   6.205   5.120   4.753 -0.8961  0.5660 -0.1457
  136OSM   H16G14873   6.038   5.161   4.715 -0.2930  0.3526 -3.1060
  136OSM   C17F14874   6.119   5.051   4.564 -0.3036 -0.0754  0.6729
  136OSM   H17F14875   6.024   5.008   4.525  0.5802 -0.0125 -1.7107
  136OSM   H17G14876   6.201   4.976   4.565 -0.4369 -0.2177  0.9036
  136OSM   C18F14877   6.158   5.170   4.480  0.3835  0.2149 -0.1585
  136OSM   H18F14878   6.246   5.219   4.528  0.7367 -0.7828  0.2396
  136OSM   H18G14879   6.079   5.245   4.464 -0.5014  0.1106  3.0995
  136OSM   H18H14880   6.179   5.139   4.375  0.7176 -2.3623  0.5844
  137OSM      N14881   1.836   2.627   6.408  0.0410 -0.3200 -0.3778
  137OSM    C1514882   1.903   2.508   6.477 -0.0666  1.2944  0.4852
  137OSM   H15A14883   1.997   2.530   6.524  0.9557  0.3429 -1.0456
  137OSM   H15B14884   1.931   2.437   6.401  0.5974  0.3285  1.5919
  137OSM   H15C14885   1.837   2.457   6.546  1.4697 -1.7289 -0.1236
  137OSM    C1414886   1.787   2.730   6.505  0.4583  0.1639 -0.6063
  137OSM   H14A14887   1.703   2.689   6.560 -0.0165  0.1878 -1.2919
  137OSM   H14B14888   1.758   2.820   6.453  1.5929  0.0877 -1.4108
  137OSM   H14C14889   1.862   2.764   6.574 -0.0219  0.6521 -0.3200
  137OSM    C1314890   1.941   2.690   6.322 -0.3121 -0.5156  0.0487
  137OSM   H13A14891   1.990   2.613   6.263  2.0814  0.6639  0.3723
  137OSM   H13B14892   2.023   2.734   6.376  0.3393  0.1841 -1.4283
  137OSM   H13C14893   1.908   2.762   6.248 -0.2069 -0.7215 -0.2011
  137OSM    C1214894   1.721   2.580   6.324 -0.3848  0.0939  0.4118
  137OSM   H12A14895   1.633   2.559   6.383 -0.4118 -2.7600 -0.4879
  137OSM   H12B14896   1.746   2.483   6.283  1.5748  1.1747 -1.1054
  137OSM    C1114897   1.661   2.674   6.211 -0.1405 -0.4770  0.0033
  137OSM   H11A14898   1.576   2.612   6.176 -0.0639 -0.6298  0.0864
  137OSM   H11B14899   1.735   2.691   6.129  0.7786 -0.2426  0.8614
  137OSM      P14900   1.472   2.851   6.253  0.1059 -0.4732 -0.4121
  137OSM    O1314901   1.377   2.748   6.298  0.1187  0.3278 -0.5555
  137OSM    O1414902   1.464   2.984   6.323  0.8109  0.4602 -0.6456
  137OSM    O1114903   1.467   2.868   6.094  0.5397 -0.3491  0.1953
  137OSM    O1214904   1.621   2.797   6.268 -0.3546 -0.4662  0.7950
  137OSM    C1S14905   1.560   2.952   6.029  0.4179 -0.2762 -0.3409
  137OSM    H1S14906   1.660   2.944   6.076  0.4416 -1.4376 -0.5684
  137OSM    H1T14907   1.523   3.056   6.043 -2.0930 -1.2468  0.8475
  137OSM     NF14908   1.691   2.980   5.823  0.3739  0.2032  0.0234
  137OSM    HNF14909   1.677   3.047   5.750  1.3487 -0.8059 -1.1361
  137OSM    C2S14910   1.577   2.913   5.881 -0.1032  0.1234 -0.0757
  137OSM    H2S14911   1.605   2.807   5.864 -4.1200 -1.5937  2.4798
  137OSM    C3S14912   1.444   2.930   5.805 -0.3151 -0.1475 -0.7510
  137OSM    H3S14913   1.403   3.032   5.820 -1.2186 -0.4628 -0.9716
  137OSM     O314914   1.338   2.858   5.862  0.3576 -0.1090  0.2910
  137OSM    HO314915   1.362   2.835   5.952 -2.3899  0.5825  1.2967
  137OSM    C4S14916   1.463   2.893   5.657  1.1762 -0.8668 -0.3163
  137OSM    H4S14917   1.499   2.976   5.594  0.9592  1.0528  1.9418
  137OSM    C5S14918   1.462   2.774   5.591 -0.1024  0.2709 -0.5094
  137OSM    H5S14919   1.446   2.686   5.656  0.3503  1.3224  1.0903
  137OSM    C6S14920   1.483   2.737   5.447  0.4208 -0.3777 -0.1533
  137OSM    H6S14921   1.393   2.743   5.382  0.9914 -1.7959 -1.1485
  137OSM    H6T14922   1.499   2.627   5.442 -1.1436 -0.5842 -1.2722
  137OSM    C7S14923   1.605   2.795   5.377  0.1192  0.2825  0.1983
  137OSM    H7S14924   1.692   2.762   5.437 -2.2217 -1.2810  2.9672
  137OSM    H7T14925   1.595   2.906   5.379  0.2534  0.2903  1.4865
  137OSM    C8S14926   1.592   2.764   5.225 -0.5028  0.4443 -0.2460
  137OSM    H8S14927   1.492   2.798   5.188 -0.4463  0.5742 -0.2817
  137OSM    H8T14928   1.589   2.654   5.214  0.9287  0.4863 -1.3602
  137OSM    C9S14929   1.692   2.846   5.150  0.3836 -0.2189  0.4190
  137OSM    H9S14930   1.789   2.867   5.201 -0.9932  2.1305  2.2718
  137OSM    H9T14931   1.647   2.947   5.138  0.1180 -0.4560 -0.6650
  137OSM   C10S14932   1.712   2.783   5.011  0.1126  0.6939  0.8307
  137OSM   H10S14933   1.611   2.776   4.966  0.7436  0.5804 -0.6142
  137OSM   H10T14934   1.756   2.682   5.028 -1.8526  0.0183  2.2171
  137OSM   C11S14935   1.819   2.859   4.928 -0.1224 -0.0682 -0.1637
  137OSM   H11S14936   1.918   2.839   4.973  0.5698  0.6240 -1.3481
  137OSM   H11T14937   1.814   2.967   4.952 -0.1417 -0.4902  2.0219
  137OSM   C12S14938   1.811   2.820   4.781 -0.5826  0.1436  0.2385
  137OSM   H12S14939   1.705   2.842   4.753 -0.1829 -0.0414 -1.5417
  137OSM   H12T14940   1.815   2.709   4.774  0.5636  0.2801 -2.1148
  137OSM   C13S14941   1.916   2.887   4.691 -0.5083 -1.0327  0.1120
  137OSM   H13S14942   2.013   2.874   4.744  0.2236  0.9886 -0.6087
  137OSM   H13T14943   1.874   2.990   4.682 -2.3987 -1.8221 -0.6394
  137OSM   C14S14944   1.933   2.851   4.541 -0.0793  0.0682 -0.3680
  137OSM   H14S14945   2.000   2.763   4.533  1.1266  0.8529  0.7080
  137OSM   H14T14946   1.989   2.936   4.495  0.3188 -0.4395 -0.8331
  137OSM   C15S14947   1.810   2.830   4.467 -0.1049  0.5634  0.4634
  137OSM   H15S14948   1.751   2.924   4.467  1.7357  1.7777  1.3678
  137OSM   H15T14949   1.753   2.745   4.511  0.0357  0.3899  0.3166
  137OSM   C16S14950   1.843   2.800   4.317  0.2231  0.3682 -0.0218
  137OSM   H16S14951   1.874   2.694   4.309  2.8358  1.1800 -1.9951
  137OSM   H16T14952   1.930   2.859   4.281  1.8995 -0.1413  2.8882
  137OSM   C17S14953   1.729   2.848   4.217  0.1571  0.3036 -0.0962
  137OSM   H17S14954   1.776   2.856   4.117 -0.7616  2.3312 -0.4091
  137OSM   H17T14955   1.692   2.946   4.256 -1.9358 -1.0889  1.6988
  137OSM   C18S14956   1.604   2.758   4.224 -0.5702  0.0075  0.0357
  137OSM   H18S14957   1.515   2.792   4.167 -1.2893 -0.6215  0.7458
  137OSM   H18T14958   1.575   2.747   4.331 -0.0483 -1.2479  0.0617
  137OSM   H18U14959   1.631   2.657   4.186 -0.9707 -0.6073  1.3222
  137OSM    C1F14960   1.815   2.962   5.860 -0.3737  0.3236 -0.2084
  137OSM     OF14961   1.845   2.883   5.950  0.1926 -0.0854  0.3802
  137OSM    C2F14962   1.919   3.046   5.777 -0.9741  0.9545  0.1999
  137OSM    H2F14963   1.978   3.115   5.839  1.0583  1.0560 -1.7055
  137OSM    H2G14964   1.861   3.127   5.727 -0.4454  1.2305  0.0322
  137OSM    C3F14965   2.000   2.959   5.682 -0.2192  0.0319 -0.2879
  137OSM    H3F14966   2.077   2.900   5.737  1.6532  1.0237 -1.7181
  137OSM    H3G14967   2.064   3.026   5.620  0.9461 -0.0802  0.7443
  137OSM    C4F14968   1.920   2.870   5.580  0.2905 -0.0852  0.7536
  137OSM    H4F14969   1.838   2.928   5.533 -1.5697 -0.9052  2.8047
  137OSM    H4G14970   1.865   2.796   5.641 -2.9907 -0.1277 -1.9882
  137OSM    C5F14971   2.014   2.802   5.472  0.5284 -0.3322 -0.5327
  137OSM    H5F14972   2.079   2.878   5.424  2.2842 -1.8079 -0.5773
  137OSM    H5G14973   1.951   2.749   5.397  1.8569 -0.1792 -1.7878
  137OSM    C6F14974   2.108   2.693   5.539  0.6243  0.3421 -0.2578
  137OSM    H6F14975   2.045   2.616   5.587 -1.1747  0.6944 -1.9010
  137OSM    H6G14976   2.171   2.750   5.611  0.8256  0.1095 -0.2506
  137OSM    C7F14977   2.190   2.625   5.436  0.0253  0.4529  0.1872
  137OSM    H7F14978   2.287   2.598   5.482 -0.9859 -1.2571  1.4509
  137OSM    H7G14979   2.211   2.687   5.346  0.6162  2.3079  1.5383
  137OSM    C8F14980   2.132   2.488   5.405 -0.8032  0.0888 -0.0569
  137OSM    H8F14981   2.022   2.498   5.400 -0.5561  2.8716 -1.4787
  137OSM    H8G14982   2.148   2.431   5.500  2.5497  0.8508 -0.0354
  137OSM    C9F14983   2.195   2.435   5.275  0.4434  0.1933  0.3375
  137OSM    H9F14984   2.300   2.406   5.282 -0.0328 -1.6020  0.5594
  137OSM   C10F14985   2.141   2.426   5.150 -1.1572  0.8624 -0.0877
  137OSM   H10F14986   2.201   2.382   5.068 -1.2204 -1.6650  1.1039
  137OSM   C11F14987   2.002   2.454   5.101  0.8047 -0.1011  0.3742
  137OSM   H11F14988   1.951   2.518   5.176 -0.5946 -0.4333 -0.2574
  137OSM   H11G14989   1.947   2.358   5.093  0.5025  0.1253 -0.2506
  137OSM   C12F14990   1.988   2.518   4.957 -0.0894  0.0561 -0.2549
  137OSM   H12F14991   2.063   2.600   4.948  1.7598 -1.4485  0.8954
  137OSM   H12G14992   1.886   2.560   4.941 -0.7009 -1.2741  0.0596
  137OSM   C13F14993   2.035   2.425   4.844  0.2742 -0.2929  0.5228
  137OSM   H13F14994   1.988   2.328   4.867  0.1354 -0.5216 -0.6423
  137OSM   H13G14995   2.146   2.422   4.857  0.1771 -0.1732  1.4380
  137OSM   C14F14996   1.989   2.471   4.711  0.2333  0.3717  0.4765
  137OSM   H14F14997   2.022   2.574   4.685  1.1245 -0.1917 -0.7581
  137OSM   H14G14998   1.879   2.456   4.710  0.4089 -1.0772 -0.5163
  137OSM   C15F14999   2.038   2.382   4.598  0.4661 -0.3421  0.1686
  137OSM   H15F15000   1.995   2.281   4.611  0.0608  0.0297  1.8440
  137OSM   H15G15001   2.148   2.365   4.602  0.9841  2.0778 -1.5352
  137OSM   C16F15002   1.986   2.443   4.468  0.5909  0.2132  0.3562
  137OSM   H16F15003   2.029   2.544   4.450  2.2510 -0.5780 -0.3411
  137OSM   H16G15004   1.876   2.456   4.474  0.8802  3.3287  1.0769
  137OSM   C17F15005   2.001   2.354   4.346  0.1881 -0.6967  0.0569
  137OSM   H17F15006   1.962   2.254   4.374 -0.3979 -0.5771 -0.3233
  137OSM   H17G15007   2.111   2.339   4.336  0.8242  3.3263 -0.8595
  137OSM   C18F15008   1.944   2.406   4.219  0.2769  0.9838 -0.0310
  137OSM   H18F15009   1.833   2.397   4.221  0.3342  0.2670  0.6760
  137OSM   H18G15010   1.983   2.348   4.133  0.5855  0.9938  0.0989
  137OSM   H18H15011   1.962   2.515   4.206  0.9514  0.8385 -0.3601
  138OSM      N15012   5.569   2.779   7.083 -0.1862 -0.1991  0.7328
  138OSM    C1515013   5.611   2.777   7.232 -0.3122 -0.4922 -0.2437
  138OSM   H15A15014   5.638   2.873   7.274 -2.3528  0.5312 -1.1475
  138OSM   H15B15015   5.697   2.713   7.245  0.2543  0.2077 -0.4847
  138OSM   H15C15016   5.535   2.730   7.292  0.5193 -1.7906 -0.1660
  138OSM    C1415017   5.500   2.910   7.068  0.1096  0.0385 -0.3159
  138OSM   H14A15018   5.425   2.922   7.145  0.1485  0.4818 -0.3442
  138OSM   H14B15019   5.466   2.923   6.966  2.2792 -0.3731 -1.1480
  138OSM   H14C15020   5.575   2.988   7.078 -0.4140  0.8037 -1.9283
  138OSM    C1315021   5.686   2.780   6.989 -0.2990 -0.1150  0.7072
  138OSM   H13A15022   5.726   2.879   7.005  1.1079 -0.6210  0.4418
  138OSM   H13B15023   5.660   2.783   6.884 -0.7052 -1.9987  0.7264
  138OSM   H13C15024   5.767   2.715   7.016 -0.4853  0.1137  1.8900
  138OSM    C1215025   5.488   2.656   7.051  0.3472  0.0642 -0.3980
  138OSM   H12A15026   5.444   2.659   6.952  2.0669 -3.1776 -1.4240
  138OSM   H12B15027   5.409   2.648   7.124  1.2915  0.9338  0.7590
  138OSM    C1115028   5.554   2.519   7.052 -0.0458  0.9629 -0.3673
  138OSM   H11A15029   5.601   2.495   7.149 -2.1051  0.6400  0.6033
  138OSM   H11B15030   5.634   2.505   6.976 -0.7412  2.3397 -1.4089
  138OSM      P15031   5.411   2.364   6.892 -0.5086  0.0826 -0.5637
  138OSM    O1315032   5.534   2.346   6.811 -0.3106  0.2680  0.3740
  138OSM    O1415033   5.315   2.255   6.910  0.1949  0.6548  0.9880
  138OSM    O1115034   5.327   2.484   6.836  0.5242 -0.3050 -0.2023
  138OSM    O1215035   5.449   2.421   7.033  0.6784 -0.7167 -0.0368
  138OSM    C1S15036   5.349   2.537   6.703  0.8432  0.0946 -0.5726
  138OSM    H1S15037   5.350   2.455   6.628 -1.5954  0.6001 -1.2235
  138OSM    H1T15038   5.446   2.591   6.702 -0.2372  2.1134 -0.1236
  138OSM     NF15039   5.275   2.695   6.522  0.5948  0.6630  0.0075
  138OSM    HNF15040   5.279   2.794   6.510  0.7916  0.6775  0.1870
  138OSM    C2S15041   5.246   2.636   6.655 -0.6733 -0.3847 -0.6438
  138OSM    H2S15042   5.139   2.604   6.655 -0.5061 -1.0946 -2.7517
  138OSM    C3S15043   5.241   2.754   6.767  0.2179  0.1439  0.3851
  138OSM    H3S15044   5.338   2.808   6.762 -0.1045  0.6548 -0.3439
  138OSM     O315045   5.232   2.710   6.902  0.3272 -0.2914  0.4610
  138OSM    HO315046   5.259   2.618   6.898 -0.1961 -0.4457  0.3452
  138OSM    C4S15047   5.134   2.859   6.736  0.1294 -0.1970  0.5959
  138OSM    H4S15048   5.179   2.936   6.672  0.9416 -0.2661  1.0720
  138OSM    C5S15049   4.999   2.868   6.765  0.5332 -0.4550  0.7261
  138OSM    H5S15050   4.939   2.785   6.806  0.4589 -0.4143  0.7006
  138OSM    C6S15051   4.906   2.975   6.718 -0.0514 -0.2261 -0.4222
  138OSM    H6S15052   4.960   3.072   6.715 -1.3583  0.4986 -2.0765
  138OSM    H6T15053   4.818   2.978   6.787 -0.0717  0.0636 -0.4601
  138OSM    C7S15054   4.844   2.947   6.576  0.1224  0.3642  0.5700
  138OSM    H7S15055   4.778   3.032   6.548 -0.4668 -0.3789 -0.3422
  138OSM    H7T15056   4.770   2.865   6.588  2.1839 -1.5417  0.8035
  138OSM    C8S15057   4.938   2.915   6.466 -0.2277  0.7827  0.0822
  138OSM    H8S15058   5.029   2.864   6.505  1.0543  1.0886 -2.3224
  138OSM    H8T15059   4.976   3.005   6.413  1.3179  0.2940  0.3236
  138OSM    C9S15060   4.887   2.822   6.355 -0.1882  0.0291 -0.1583
  138OSM    H9S15061   4.845   2.728   6.398  0.7981 -1.5303 -2.4262
  138OSM    H9T15062   4.967   2.789   6.286  0.0514 -1.7743  0.9002
  138OSM   C10S15063   4.788   2.890   6.256  0.6363  0.2257 -0.2266
  138OSM   H10S15064   4.716   2.955   6.310  0.3568  0.1461 -0.4975
  138OSM   H10T15065   4.730   2.805   6.214 -2.1116  1.4657  0.7633
  138OSM   C11S15066   4.848   2.972   6.136 -0.2256 -0.3578 -0.3150
  138OSM   H11S15067   4.923   2.914   6.077 -0.7189 -0.0602 -1.2485
  138OSM   H11T15068   4.915   3.056   6.165 -0.8857 -0.4633  1.6195
  138OSM   C12S15069   4.740   3.026   6.042  0.2703 -0.0792  0.4887
  138OSM   H12S15070   4.662   3.090   6.089 -0.1826  1.6917 -2.4132
  138OSM   H12T15071   4.691   2.929   6.018  1.1949 -1.3324  3.2675
  138OSM   C13S15072   4.791   3.114   5.925  0.9342  0.9130  0.3032
  138OSM   H13S15073   4.838   3.042   5.855 -1.1509 -0.5584  0.3235
  138OSM   H13T15074   4.862   3.189   5.966 -0.0376  1.4724  1.0304
  138OSM   C14S15075   4.663   3.182   5.867  0.3823 -0.0731 -0.9287
  138OSM   H14S15076   4.611   3.245   5.942  1.3349  0.6862 -0.8786
  138OSM   H14T15077   4.588   3.106   5.836 -1.2008  2.6214 -4.4398
  138OSM   C15S15078   4.690   3.272   5.747  0.1734 -0.1990  0.1330
  138OSM   H15S15079   4.740   3.200   5.678  0.3937  0.6363 -0.5848
  138OSM   H15T15080   4.771   3.341   5.779 -0.3293 -0.2112  1.4659
  138OSM   C16S15081   4.564   3.339   5.688 -0.4630 -0.1287 -0.1854
  138OSM   H16S15082   4.502   3.384   5.768  0.7500  1.0645  0.1181
  138OSM   H16T15083   4.502   3.257   5.646 -2.8504  0.8064  1.2884
  138OSM   C17S15084   4.592   3.426   5.565 -0.7339 -0.0508  0.6426
  138OSM   H17S15085   4.658   3.361   5.503  3.2332  0.6321  3.7614
  138OSM   H17T15086   4.653   3.516   5.588 -0.0443 -0.5206  0.6894
  138OSM   C18S15087   4.473   3.467   5.482  0.3550 -0.3083 -0.1582
  138OSM   H18S15088   4.479   3.568   5.435  0.6402 -0.1178  0.2801
  138OSM   H18T15089   4.391   3.478   5.556 -0.2460  1.3141 -0.9920
  138OSM   H18U15090   4.445   3.394   5.403  0.4292 -0.1911 -0.2952
  138OSM    C1F15091   5.265   2.617   6.414 -0.0372  0.7671 -0.3373
  138OSM     OF15092   5.223   2.503   6.427  0.4045  0.6896  0.2661
  138OSM    C2F15093   5.305   2.662   6.281 -0.2641  0.1248  0.2369
  138OSM    H2F15094   5.406   2.619   6.264 -0.0567  1.3806 -2.1707
  138OSM    H2G15095   5.295   2.772   6.278  0.8634  0.2214 -0.2471
  138OSM    C3F15096   5.211   2.610   6.177  0.0325 -0.1954 -0.5612
  138OSM    H3F15097   5.111   2.653   6.201  1.3142  2.3093  0.7139
  138OSM    H3G15098   5.205   2.500   6.183 -2.6141 -0.1025 -0.0420
  138OSM    C4F15099   5.257   2.662   6.040  0.2975  0.7450  0.3336
  138OSM    H4F15100   5.313   2.583   5.986 -3.5959 -1.8414 -0.2790
  138OSM    H4G15101   5.309   2.759   6.056  1.5748  0.1732 -0.2175
  138OSM    C5F15102   5.130   2.690   5.956 -0.1918  0.5062 -0.0778
  138OSM    H5F15103   5.062   2.745   6.025 -1.1078  0.1098 -0.6505
  138OSM    H5G15104   5.071   2.600   5.932 -0.5425  0.5539  0.5807
  138OSM    C6F15105   5.164   2.780   5.838 -0.1240 -0.2396 -0.0078
  138OSM    H6F15106   5.242   2.736   5.772 -2.0865  0.0737 -2.7395
  138OSM    H6G15107   5.187   2.885   5.866  1.0593 -0.4086 -0.3009
  138OSM    C7F15108   5.033   2.800   5.750  0.5650  0.1427  0.4694
  138OSM    H7F15109   4.947   2.839   5.808  0.6840 -0.0197  0.7553
  138OSM    H7G15110   4.999   2.701   5.711  0.4206  0.2600  0.2949
  138OSM    C8F15111   5.064   2.900   5.639  0.4537  0.6088 -0.0299
  138OSM    H8F15112   5.170   2.887   5.608  0.1072  0.5656 -1.2745
  138OSM    H8G15113   5.051   3.001   5.682 -0.9754  1.5988 -2.5486
  138OSM    C9F15114   4.967   2.880   5.522 -0.3181 -0.5386 -0.1017
  138OSM    H9F15115   4.867   2.853   5.559  0.2363 -1.3680  0.8637
  138OSM   C10F15116   4.987   2.870   5.389  0.0323 -0.1125 -0.1812
  138OSM   H10F15117   4.901   2.851   5.323  0.2695 -0.1399 -0.4843
  138OSM   C11F15118   5.122   2.904   5.319  0.3492  0.0274 -0.1752
  138OSM   H11F15119   5.208   2.899   5.389 -0.0847 -1.2591  0.2901
  138OSM   H11G15120   5.128   3.010   5.286 -0.2906  0.3815  0.8161
  138OSM   C12F15121   5.154   2.813   5.198  0.0438  0.3882  0.1630
  138OSM   H12F15122   5.113   2.711   5.212 -0.1301  0.3898 -0.3194
  138OSM   H12G15123   5.261   2.808   5.169  0.1361  1.0080  0.3884
  138OSM   C13F15124   5.083   2.852   5.068 -0.1376 -0.1651  0.2279
  138OSM   H13F15125   5.098   2.959   5.046  1.1591 -0.7865 -2.2540
  138OSM   H13G15126   4.972   2.854   5.080 -0.2797  0.2050 -1.0603
  138OSM   C14F15127   5.113   2.766   4.943 -0.2092 -0.3464 -0.2213
  138OSM   H14F15128   5.077   2.662   4.960  0.1258 -0.3636  0.4123
  138OSM   H14G15129   5.224   2.759   4.951 -0.3483 -1.0951  1.2666
  138OSM   C15F15130   5.056   2.836   4.819 -0.3053  0.5810  0.2241
  138OSM   H15F15131   5.108   2.932   4.797 -1.3071  0.7988 -1.3708
  138OSM   H15G15132   4.950   2.861   4.840 -1.0913 -3.7003  2.4750
  138OSM   C16F15133   5.072   2.743   4.694 -0.3553 -0.9042  0.0328
  138OSM   H16F15134   5.044   2.640   4.726  0.4586 -1.3986 -0.7553
  138OSM   H16G15135   5.177   2.728   4.660 -0.2131 -0.1299  0.1310
  138OSM   C17F15136   4.991   2.787   4.577 -0.0708  0.1872 -0.6985
  138OSM   H17F15137   4.886   2.801   4.612  1.1454  1.9436  2.6162
  138OSM   H17G15138   5.004   2.708   4.500 -1.2047 -0.4037 -0.3132
  138OSM   C18F15139   5.038   2.920   4.519 -0.1670  0.3962  0.5174
  138OSM   H18F15140   4.998   3.005   4.579 -2.1330  0.2813 -0.5275
  138OSM   H18G15141   4.988   2.931   4.420  1.6554  0.7411 -0.4002
  138OSM   H18H15142   5.148   2.924   4.509 -0.2925 -0.2686 -1.8088
  139OSM      N15143   0.167   5.416   6.804  0.3446  0.3571  0.2730
  139OSM    C1515144   0.037   5.405   6.881 -0.2551  0.3532 -0.0188
  139OSM   H15A15145   0.068   5.405   6.984  1.1737  0.5239 -0.4286
  139OSM   H15B15146  -0.020   5.316   6.860 -1.1044  1.2514 -1.7315
  139OSM   H15C15147  -0.019   5.497   6.869  2.1031  1.8022 -0.6471
  139OSM    C1415148   0.252   5.515   6.865 -0.0763 -0.5117 -0.4862
  139OSM   H14A15149   0.308   5.472   6.946 -0.2037 -1.2234 -0.7661
  139OSM   H14B15150   0.203   5.604   6.900  3.9818  1.6717  0.2488
  139OSM   H14C15151   0.320   5.552   6.789  2.0951  0.3159  1.7304
  139OSM    C1315152   0.231   5.279   6.819  0.1269  0.1729 -0.0497
  139OSM   H13A15153   0.316   5.263   6.754 -0.1516 -0.6733 -0.2072
  139OSM   H13B15154   0.164   5.201   6.789  1.2731 -0.5990 -0.6954
  139OSM   H13C15155   0.262   5.256   6.920  1.0601 -2.5747 -0.8746
  139OSM    C1215156   0.144   5.459   6.660 -0.0963  0.2631 -0.1446
  139OSM   H12A15157   0.089   5.552   6.668 -1.9406 -0.8264  0.6228
  139OSM   H12B15158   0.074   5.387   6.620  0.7765 -0.3683 -0.5522
  139OSM    C1115159   0.262   5.473   6.549  0.0882  0.2878 -0.6894
  139OSM   H11A15160   0.332   5.547   6.595  1.8029 -0.2640 -2.2540
  139OSM   H11B15161   0.208   5.518   6.463 -0.8736  0.5368  0.0261
  139OSM      P15162   0.255   5.252   6.423 -0.1737  0.1353 -0.1863
  139OSM    O1315163   0.304   5.117   6.451  0.1519  0.4116  0.7039
  139OSM    O1415164   0.108   5.273   6.419  0.0703  0.3305  0.6160
  139OSM    O1115165   0.306   5.287   6.274  0.1663  0.3043  0.8623
  139OSM    O1215166   0.327   5.354   6.516  0.6369 -0.0760  0.1356
  139OSM    C1S15167   0.436   5.352   6.248 -0.1348  0.5558 -0.2672
  139OSM    H1S15168   0.516   5.278   6.268  0.3344  1.8487  3.3227
  139OSM    H1T15169   0.442   5.440   6.315 -0.9282 -0.6734  1.5146
  139OSM     NF15170   0.579   5.469   6.090 -0.4872 -0.5621 -0.9400
  139OSM    HNF15171   0.581   5.567   6.069  2.5038 -0.4824 -0.7986
  139OSM    C2S15172   0.454   5.398   6.100 -0.5097  0.1780 -0.3989
  139OSM    H2S15173   0.460   5.319   6.023 -1.0307 -0.5004  0.2445
  139OSM    C3S15174   0.327   5.481   6.060 -0.0772  0.1642  0.4253
  139OSM    H3S15175   0.344   5.575   6.118  2.1347 -0.8231  1.5053
  139OSM     O315176   0.200   5.428   6.096 -0.3804 -0.0498  0.0114
  139OSM    HO315177   0.225   5.378   6.174 -1.0988  2.5257  2.0605
  139OSM    C4S15178   0.333   5.509   5.913 -0.2268 -1.1314 -0.2275
  139OSM    H4S15179   0.366   5.610   5.885 -1.1242 -1.3037 -2.0290
  139OSM    C5S15180   0.299   5.424   5.821 -0.6515 -0.1652  0.5333
  139OSM    H5S15181   0.270   5.324   5.856 -1.1046  0.4801  2.0579
  139OSM    C6S15182   0.288   5.450   5.671 -0.3968  0.4540  1.2959
  139OSM    H6S15183   0.281   5.556   5.640 -0.1033  0.4930  1.3586
  139OSM    H6T15184   0.195   5.401   5.635 -0.0966  1.2745 -0.7075
  139OSM    C7S15185   0.395   5.392   5.589 -0.3115  0.1308  0.2809
  139OSM    H7S15186   0.354   5.373   5.488 -0.9422 -0.1110  0.5710
  139OSM    H7T15187   0.415   5.289   5.626 -3.9283 -1.0586 -0.6954
  139OSM    C8S15188   0.517   5.480   5.598 -0.5713  0.1236  0.9493
  139OSM    H8S15189   0.550   5.489   5.704 -1.0205  1.4587  0.9912
  139OSM    H8T15190   0.514   5.585   5.562 -0.4753  0.6272  2.3451
  139OSM    C9S15191   0.642   5.417   5.524 -0.3840 -0.5199  0.1219
  139OSM    H9S15192   0.670   5.324   5.577 -2.1346 -1.0319  0.2086
  139OSM    H9T15193   0.719   5.496   5.538 -1.6330  1.0892 -1.5903
  139OSM   C10S15194   0.631   5.394   5.372 -0.7959  0.1078  0.8481
  139OSM   H10S15195   0.531   5.356   5.340  0.6678 -2.3495 -1.1725
  139OSM   H10T15196   0.706   5.314   5.357  1.9354  2.3826  1.5833
  139OSM   C11S15197   0.656   5.507   5.280  0.2444  0.6551  0.7205
  139OSM   H11S15198   0.582   5.586   5.305 -1.4670 -0.2504 -1.2523
  139OSM   H11T15199   0.624   5.480   5.177  0.1230  0.6182  0.7675
  139OSM   C12S15200   0.805   5.545   5.274  0.4651 -0.6416  0.4293
  139OSM   H12S15201   0.861   5.499   5.358 -0.1744  0.6293  1.5969
  139OSM   H12T15202   0.809   5.656   5.275  0.0663 -0.6307  1.0378
  139OSM   C13S15203   0.879   5.519   5.143 -0.1722 -0.4445 -0.0516
  139OSM   H13S15204   0.874   5.414   5.107  0.6895 -0.2947 -0.6364
  139OSM   H13T15205   0.987   5.541   5.155 -0.3468  1.3315 -1.3177
  139OSM   C14S15206   0.840   5.611   5.030 -0.0435  0.5614  0.1911
  139OSM   H14S15207   0.849   5.717   5.063 -3.2913  1.0107 -0.0953
  139OSM   H14T15208   0.733   5.613   5.003 -0.0367 -0.7000  0.0409
  139OSM   C15S15209   0.919   5.596   4.892 -0.7803  0.3573 -0.1391
  139OSM   H15S15210   0.966   5.496   4.886  0.3200  0.8971 -1.1715
  139OSM   H15T15211   1.007   5.664   4.889 -0.0066 -0.6518 -1.1652
  139OSM   C16S15212   0.834   5.615   4.767 -0.2845 -0.0892  0.4597
  139OSM   H16S15213   0.808   5.721   4.748 -1.2410 -0.5792 -1.1321
  139OSM   H16T15214   0.740   5.559   4.784  0.2569 -0.8817  0.9234
  139OSM   C17S15215   0.885   5.547   4.636  0.4222  0.2756  0.1726
  139OSM   H17S15216   0.808   5.558   4.558  0.5819  1.9014  0.2063
  139OSM   H17T15217   0.910   5.440   4.656  0.5841  0.2285 -0.2765
  139OSM   C18S15218   1.015   5.607   4.578 -0.0898  0.7094 -0.6994
  139OSM   H18S15219   0.994   5.716   4.588 -1.1393  0.6416 -1.9313
  139OSM   H18T15220   1.025   5.577   4.471 -0.2521 -2.5769  0.1207
  139OSM   H18U15221   1.109   5.577   4.630  0.1517  0.0549 -1.4950
  139OSM    C1F15222   0.695   5.397   6.086 -0.5360 -0.1609  0.6392
  139OSM     OF15223   0.707   5.287   6.139  0.3912 -0.3235  0.0554
  139OSM    C2F15224   0.808   5.452   6.011 -0.7104  0.2884  0.3560
  139OSM    H2F15225   0.894   5.473   6.078 -0.4938  1.2666 -0.1990
  139OSM    H2G15226   0.785   5.549   5.961  2.8292  1.0912  0.0496
  139OSM    C3F15227   0.849   5.353   5.901 -0.5826 -0.1649  0.1006
  139OSM    H3F15228   0.759   5.324   5.843 -0.5181  1.9827 -1.1861
  139OSM    H3G15229   0.908   5.269   5.942  4.8009  1.6967 -2.9245
  139OSM    C4F15230   0.937   5.423   5.797 -0.4812 -0.9667  0.3873
  139OSM    H4F15231   1.028   5.438   5.859 -0.8844 -2.3684  1.3701
  139OSM    H4G15232   0.906   5.525   5.766 -1.0054 -0.6087  1.9925
  139OSM    C5F15233   0.983   5.337   5.682 -0.0464  0.0644  0.1936
  139OSM    H5F15234   0.897   5.276   5.647  0.9197 -1.8630  1.0148
  139OSM    H5G15235   1.058   5.263   5.719 -1.0009 -0.7305  0.5846
  139OSM    C6F15236   1.053   5.422   5.576 -0.1474 -0.2325 -0.0438
  139OSM    H6F15237   1.137   5.482   5.618 -2.5398  3.2195  0.3041
  139OSM    H6G15238   0.978   5.494   5.538  2.4455  3.7756  1.7242
  139OSM    C7F15239   1.104   5.343   5.462 -0.2691  0.1012  0.5918
  139OSM    H7F15240   1.013   5.292   5.422  0.7636 -2.0430  0.8148
  139OSM    H7G15241   1.180   5.276   5.508  0.1963  0.7129  0.7157
  139OSM    C8F15242   1.152   5.427   5.341  0.3459  0.4425  0.1244
  139OSM    H8F15243   1.093   5.521   5.336  1.7307  1.2997 -2.8574
  139OSM    H8G15244   1.155   5.373   5.244  1.9627  0.9598 -0.1406
  139OSM    C9F15245   1.294   5.481   5.358 -0.1754  0.3686 -0.3949
  139OSM    H9F15246   1.308   5.526   5.458  0.4200 -0.5460 -0.0508
  139OSM   C10F15247   1.389   5.511   5.264  0.4481 -0.3248  0.1287
  139OSM   H10F15248   1.492   5.540   5.289  1.1927 -2.5806 -0.0835
  139OSM   C11F15249   1.376   5.472   5.117 -0.2586 -0.8180  0.4646
  139OSM   H11F15250   1.318   5.379   5.103 -2.3246  0.4698  0.0306
  139OSM   H11G15251   1.473   5.460   5.064 -1.0455 -0.0432 -1.2076
  139OSM   C12F15252   1.288   5.577   5.039  0.3242 -0.0429  0.0844
  139OSM   H12F15253   1.337   5.676   5.029  0.4613 -0.0232  0.8471
  139OSM   H12G15254   1.195   5.593   5.098 -0.6009 -0.3381 -1.2401
  139OSM   C13F15255   1.258   5.516   4.900 -0.6947 -0.2738  0.4453
  139OSM   H13F15256   1.195   5.580   4.835 -0.9346  0.2366  1.1721
  139OSM   H13G15257   1.204   5.421   4.920  0.1472 -0.9625 -0.4457
  139OSM   C14F15258   1.389   5.491   4.816 -0.6496 -0.2255  0.1017
  139OSM   H14F15259   1.458   5.421   4.867 -0.3097  0.3020  0.3828
  139OSM   H14G15260   1.444   5.588   4.814 -0.2190 -0.4410  1.0126
  139OSM   C15F15261   1.350   5.461   4.676 -0.2112  0.0030 -0.1298
  139OSM   H15F15262   1.305   5.542   4.615  1.4431  1.1856  0.1428
  139OSM   H15G15263   1.279   5.376   4.679 -2.4462  1.7630 -0.3871
  139OSM   C16F15264   1.478   5.419   4.595 -0.0186 -0.1893 -0.7279
  139OSM   H16F15265   1.550   5.367   4.662 -1.5952  0.2137  1.3669
  139OSM   H16G15266   1.528   5.514   4.565  0.7434 -0.3512 -0.0181
  139OSM   C17F15267   1.447   5.335   4.467  0.0033 -0.2312 -0.6175
  139OSM   H17F15268   1.523   5.362   4.389  0.1689  1.9614  0.2398
  139OSM   H17G15269   1.346   5.362   4.431 -0.3627 -2.0186 -1.0367
  139OSM   C18F15270   1.427   5.183   4.498  0.1505 -0.0134  0.3510
  139OSM   H18F15271   1.517   5.141   4.549 -0.3580 -0.5802  0.8000
  139OSM   H18G15272   1.399   5.124   4.408 -2.5219  2.0988 -0.3260
  139OSM   H18H15273   1.338   5.183   4.564 -1.0534  0.9712 -1.2006
  140OSM      N15274   6.679   5.110   6.192 -0.4869 -0.1775  0.0465
  140OSM    C1515275   6.590   5.193   6.280 -0.0417 -0.1251 -0.6082
  140OSM   H15A15276   6.485   5.173   6.264  0.0962  0.1837 -2.0885
  140OSM   H15B15277   6.605   5.299   6.263 -1.9746  0.4769  1.0771
  140OSM   H15C15278   6.600   5.170   6.385  1.0408 -2.0120 -1.0903
  140OSM    C1415279   6.622   4.971   6.200 -0.6840 -0.0185 -0.5085
  140OSM   H14A15280   6.583   4.956   6.300  1.7696 -1.3472  0.3524
  140OSM   H14B15281   6.704   4.900   6.198 -1.1961 -0.6007 -1.6089
  140OSM   H14C15282   6.554   4.952   6.119 -0.5937  1.6875 -1.0262
  140OSM    C1315283   6.691   5.161   6.050 -0.5250 -0.9805 -0.1098
  140OSM   H13A15284   6.754   5.248   6.057  0.6918 -1.9422  1.8531
  140OSM   H13B15285   6.599   5.180   5.998  0.3934  1.3337 -1.0170
  140OSM   H13C15286   6.750   5.100   5.983 -2.2608 -0.6637 -2.0352
  140OSM    C1215287   6.819   5.118   6.250 -0.1032 -0.1538  0.0805
  140OSM   H12A15288   6.808   5.076   6.349 -1.3348  0.9188  0.4147
  140OSM   H12B15289   6.854   5.219   6.256 -1.8735  0.4219  2.9711
  140OSM    C1115290   6.935   5.033   6.186  0.0085 -0.9219 -0.1668
  140OSM   H11A15291   7.021   5.070   6.247 -2.8177  1.5176  2.7564
  140OSM   H11B15292   6.952   5.070   6.083  0.8903  2.5430  1.0773
  140OSM      P15293   7.030   4.798   6.145 -0.0756 -0.1519 -0.0469
  140OSM    O1315294   7.159   4.853   6.189 -0.2464  0.1235 -0.7188
  140OSM    O1415295   6.990   4.661   6.194  0.2669 -0.0153 -0.4524
  140OSM    O1115296   7.006   4.821   5.992  0.2641  0.7448  0.4049
  140OSM    O1215297   6.924   4.893   6.201  0.2057 -0.1216 -0.4860
  140OSM    C1S15298   7.098   4.762   5.895  0.3388 -0.4732 -0.2158
  140OSM    H1S15299   7.098   4.651   5.895  1.7354 -0.4880  0.0895
  140OSM    H1T15300   7.202   4.786   5.924  0.6609  1.1392 -2.4191
  140OSM     NF15301   7.169   4.742   5.661  0.6438 -0.2953 -0.7419
  140OSM    HNF15302   7.253   4.784   5.627  1.2887  0.1694  1.2852
  140OSM    C2S15303   7.074   4.818   5.753 -0.8572 -0.6721 -0.0110
  140OSM    H2S15304   6.970   4.790   5.728 -0.4221 -0.9778 -1.5492
  140OSM    C3S15305   7.089   4.975   5.763  0.5371 -0.3600 -0.5676
  140OSM    H3S15306   7.182   5.000   5.818  0.0522  0.6979 -0.1969
  140OSM     O315307   6.972   5.027   5.833 -0.0492 -0.3361  0.5852
  140OSM    HO315308   6.947   4.963   5.899 -1.2064 -2.0451 -1.3651
  140OSM    C4S15309   7.099   5.035   5.627  0.2122  0.9929  0.8971
  140OSM    H4S15310   7.192   5.000   5.578 -0.6646  1.5558 -1.3004
  140OSM    C5S15311   7.026   5.126   5.558  0.8772 -0.9897 -1.4040
  140OSM    H5S15312   6.933   5.164   5.604  2.3338  0.1417  0.7596
  140OSM    C6S15313   7.059   5.184   5.425 -0.1199  0.3915  0.2411
  140OSM    H6S15314   7.097   5.285   5.450 -1.1640  0.5701  1.1689
  140OSM    H6T15315   6.968   5.188   5.361  2.1125  0.5024 -3.2277
  140OSM    C7S15316   7.169   5.108   5.343  0.7525 -0.5198 -0.3215
  140OSM    H7S15317   7.155   4.998   5.334  0.1899 -0.4760 -0.0606
  140OSM    H7T15318   7.256   5.111   5.411  0.2246  1.0947  0.3341
  140OSM    C8S15319   7.215   5.170   5.209 -0.4480  0.4375  0.0571
  140OSM    H8S15320   7.210   5.280   5.227  1.2671  0.0466  4.0115
  140OSM    H8T15321   7.142   5.148   5.128 -0.6846  0.8346  0.1579
  140OSM    C9S15322   7.351   5.123   5.155 -0.0666 -0.5157 -0.0431
  140OSM    H9S15323   7.337   5.014   5.141  2.5049 -0.7522 -1.3264
  140OSM    H9T15324   7.430   5.146   5.229 -1.3350 -1.0965  1.5510
  140OSM   C10S15325   7.386   5.182   5.018 -0.1696 -0.2104  0.2895
  140OSM   H10S15326   7.378   5.293   5.026 -1.7790 -0.3260  0.5663
  140OSM   H10T15327   7.305   5.155   4.947 -0.7198 -0.3966  0.9795
  140OSM   C11S15328   7.531   5.144   4.970  0.0411 -0.0543 -0.2757
  140OSM   H11S15329   7.597   5.133   5.059  0.5409 -0.9049 -0.7371
  140OSM   H11T15330   7.571   5.231   4.916  0.6526 -0.2054 -0.0719
  140OSM   C12S15331   7.511   5.015   4.897 -0.0336 -0.1787  0.2103
  140OSM   H12S15332   7.421   5.027   4.833  1.6840  3.0667 -1.8316
  140OSM   H12T15333   7.484   4.939   4.973 -0.1063  0.5319  0.9041
  140OSM   C13S15334   7.637   4.968   4.824 -0.2930  0.3201  0.4509
  140OSM   H13S15335   7.712   4.960   4.906  0.3965 -1.9208 -0.3260
  140OSM   H13T15336   7.683   5.050   4.765  2.0299  0.0224  1.7047
  140OSM   C14S15337   7.623   4.839   4.753  0.2073  0.6464 -0.0921
  140OSM   H14S15338   7.710   4.802   4.695  0.1126 -1.7183  1.1209
  140OSM   H14T15339   7.536   4.849   4.684  0.5057 -0.2130 -0.6188
  140OSM   C15S15340   7.603   4.715   4.844 -0.0209 -0.1682 -0.1773
  140OSM   H15S15341   7.518   4.730   4.914  0.5053  0.3429  0.3654
  140OSM   H15T15342   7.694   4.692   4.904  0.4084 -1.8074 -1.3789
  140OSM   C16S15343   7.590   4.583   4.756 -0.1262 -0.9658 -0.8427
  140OSM   H16S15344   7.665   4.587   4.674  0.5085  0.5216 -0.2228
  140OSM   H16T15345   7.494   4.593   4.701  0.6459  2.8447 -1.8324
  140OSM   C17S15346   7.592   4.460   4.847  0.1020 -0.3166 -0.4224
  140OSM   H17S15347   7.665   4.476   4.930 -1.5450 -3.3877  1.8078
  140OSM   H17T15348   7.618   4.368   4.789  1.4666  1.4819 -2.8429
  140OSM   C18S15349   7.458   4.439   4.921  0.1793  0.3879 -0.4197
  140OSM   H18S15350   7.454   4.338   4.967 -1.6167  0.5004 -0.2571
  140OSM   H18T15351   7.380   4.453   4.843  1.5377  1.1037 -1.6989
  140OSM   H18U15352   7.449   4.516   5.000  1.3436 -1.8951  2.1224
  140OSM    C1F15353   7.154   4.607   5.634  0.3899 -0.6231 -0.0998
  140OSM     OF15354   7.065   4.531   5.680  0.2202 -0.7116 -0.4301
  140OSM    C2F15355   7.275   4.544   5.570 -0.5634 -0.5104  0.0003
  140OSM    H2F15356   7.291   4.453   5.632  1.3883  0.8864  1.6692
  140OSM    H2G15357   7.366   4.608   5.580  0.6970 -2.3944  1.3815
  140OSM    C3F15358   7.243   4.503   5.418  0.4679 -0.2937 -0.4068
  140OSM    H3F15359   7.226   4.590   5.351  0.9352 -0.9247 -1.3754
  140OSM    H3G15360   7.145   4.450   5.423  0.1377  0.3897  1.0529
  140OSM    C4F15361   7.353   4.421   5.357  0.0393 -0.1430  0.8938
  140OSM    H4F15362   7.321   4.395   5.254  1.5363 -0.6867  0.5471
  140OSM    H4G15363   7.362   4.325   5.413 -0.4650 -2.3774 -2.5227
  140OSM    C5F15364   7.496   4.479   5.364 -0.1640 -0.0349 -0.5673
  140OSM    H5F15365   7.565   4.406   5.314 -0.6986 -0.0137 -1.3588
  140OSM    H5G15366   7.531   4.480   5.469 -1.9624 -0.1096  0.0570
  140OSM    C6F15367   7.519   4.621   5.298 -0.8922 -0.0366  0.0895
  140OSM    H6F15368   7.455   4.690   5.357  0.4453  0.6142  0.8018
  140OSM    H6G15369   7.482   4.619   5.193  1.6807 -2.4904 -0.8994
  140OSM    C7F15370   7.663   4.678   5.289 -0.0144  0.5060 -0.6345
  140OSM    H7F15371   7.714   4.603   5.225 -0.9610 -1.3962  0.7329
  140OSM    H7G15372   7.717   4.680   5.385  1.5150 -1.8151 -1.3761
  140OSM    C8F15373   7.690   4.819   5.230 -0.0296 -0.1029  0.0053
  140OSM    H8F15374   7.660   4.821   5.123 -1.5743 -1.4730  0.3806
  140OSM    H8G15375   7.800   4.832   5.241 -0.5163  2.0132  4.0792
  140OSM    C9F15376   7.613   4.925   5.309 -0.8774  0.5496 -0.0827
  140OSM    H9F15377   7.504   4.918   5.296 -0.8292  1.4904 -1.1758
  140OSM   C10F15378   7.676   5.020   5.382 -0.2101  0.0342 -0.3582
  140OSM   H10F15379   7.617   5.102   5.426  0.5091  1.3130 -1.6848
  140OSM   C11F15380   7.827   5.039   5.390 -0.2737  0.1943 -0.3103
  140OSM   H11F15381   7.870   4.937   5.407 -0.0964  0.1801 -0.8149
  140OSM   H11G15382   7.863   5.105   5.472 -0.9087  0.8446 -0.5432
  140OSM   C12F15383   7.880   5.091   5.252  0.7841  0.5831 -0.0338
  140OSM   H12F15384   7.871   5.202   5.243  0.0494  0.4787 -0.6728
  140OSM   H12G15385   7.822   5.046   5.169  2.8140 -3.2250  0.4046
  140OSM   C13F15386   8.028   5.056   5.228  0.4591  0.0058 -0.8737
  140OSM   H13F15387   8.045   4.947   5.236  2.1160  0.2544 -0.5431
  140OSM   H13G15388   8.089   5.108   5.306 -0.7482  1.1111 -0.6202
  140OSM   C14F15389   8.076   5.090   5.097  0.2388  0.0144  0.4952
  140OSM   H14F15390   8.079   5.200   5.077  1.0978 -0.0754  0.0568
  140OSM   H14G15391   8.001   5.045   5.030  1.3826 -0.8336 -0.2411
  140OSM   C15F15392   8.207   5.032   5.052 -0.5650 -0.1384  0.2184
  140OSM   H15F15393   8.209   4.924   5.077 -0.0349 -0.3960 -0.8888
  140OSM   H15G15394   8.291   5.073   5.113  0.6464 -2.6076  0.3354
  140OSM   C16F15395   8.244   5.062   4.900  0.5239 -0.1471 -0.8837
  140OSM   H16F15396   8.254   5.173   4.890 -1.5023  0.0837 -0.8320
  140OSM   H16G15397   8.156   5.031   4.840  0.4554 -2.9093  0.4829
  140OSM   C17F15398   8.369   4.997   4.843 -0.3627  0.5671  0.4431
  140OSM   H17F15399   8.340   4.963   4.741 -0.7664 -1.1108  1.0867
  140OSM   H17G15400   8.388   4.911   4.910 -0.1013  0.9451  0.8610
  140OSM   C18F15401   8.497   5.077   4.828  0.1472 -1.2708 -0.4310
  140OSM   H18F15402   8.575   5.043   4.756  0.0713  1.1695 -1.7968
  140OSM   H18G15403   8.546   5.102   4.925 -0.4971 -0.8214 -0.2166
  140OSM   H18H15404   8.468   5.177   4.788  0.9951 -0.6806  0.3752
  141OSM      N15405   0.717   3.393   6.322 -0.2355  0.3335  0.2977
  141OSM    C1515406   0.623   3.471   6.408  0.8099  0.7447 -0.0939
  141OSM   H15A15407   0.666   3.566   6.437 -1.7086  2.3225 -1.1826
  141OSM   H15B15408   0.599   3.408   6.492 -0.8429 -2.1485 -2.5460
  141OSM   H15C15409   0.526   3.495   6.367 -0.5610  0.1220  2.5387
  141OSM    C1415410   0.859   3.394   6.383  0.3385 -0.0952  0.0611
  141OSM   H14A15411   0.924   3.349   6.310  0.8425  0.0598  0.4168
  141OSM   H14B15412   0.855   3.344   6.478  3.2541  1.9171  1.3856
  141OSM   H14C15413   0.897   3.495   6.385 -1.3807  0.6182 -1.0447
  141OSM    C1315414   0.671   3.252   6.318  0.1038 -0.0319  0.3531
  141OSM   H13A15415   0.746   3.207   6.254  0.4802  0.2292  0.6070
  141OSM   H13B15416   0.573   3.236   6.277 -0.6163 -0.6646  2.1978
  141OSM   H13C15417   0.687   3.197   6.410  0.7715  1.0998  0.9379
  141OSM    C1215418   0.716   3.458   6.180  0.4049  0.2276  0.2615
  141OSM   H12A15419   0.772   3.393   6.114  1.3438  1.2977 -0.0299
  141OSM   H12B15420   0.771   3.550   6.190  0.4787  0.5302 -2.2675
  141OSM    C1115421   0.586   3.491   6.113  0.0181  0.5460  0.2157
  141OSM   H11A15422   0.529   3.396   6.115 -0.0778  0.6207  1.2543
  141OSM   H11B15423   0.598   3.524   6.007 -2.4344 -0.9718 -0.5949
  141OSM      P15424   0.537   3.740   6.188  0.2405 -0.5237  0.3302
  141OSM    O1315425   0.459   3.801   6.305 -0.3683  0.1504 -0.0697
  141OSM    O1415426   0.685   3.751   6.180  0.0351 -0.1008  0.1119
  141OSM    O1115427   0.470   3.797   6.059  0.5701 -0.2035  0.7771
  141OSM    O1215428   0.505   3.587   6.176 -0.7214  0.0348  0.8560
  141OSM    C1S15429   0.538   3.912   5.997 -0.4079  0.0131  0.2269
  141OSM    H1S15430   0.642   3.939   6.026 -0.5578  1.4298 -0.4865
  141OSM    H1T15431   0.474   3.995   6.034 -1.3411 -1.7158  2.7154
  141OSM     NF15432   0.592   4.027   5.783 -0.0874 -0.4586 -0.0961
  141OSM    HNF15433   0.539   4.098   5.738  0.6621  0.2521  0.1297
  141OSM    C2S15434   0.535   3.908   5.842 -0.1542  0.3971  0.7418
  141OSM    H2S15435   0.597   3.818   5.824 -1.0052 -0.7133  3.0220
  141OSM    C3S15436   0.396   3.881   5.787  0.8985  0.5711  0.2153
  141OSM    H3S15437   0.328   3.954   5.835 -1.8378  0.0025 -2.5189
  141OSM     O315438   0.348   3.760   5.827  0.2957 -0.3888  0.1348
  141OSM    HO315439   0.405   3.726   5.897 -0.0257 -0.6240  0.2850
  141OSM    C4S15440   0.389   3.902   5.635 -0.2177 -0.2683 -0.1046
  141OSM    H4S15441   0.458   3.843   5.572 -1.2247 -0.6004 -0.9221
  141OSM    C5S15442   0.298   3.980   5.581  0.5037  0.2747  0.2029
  141OSM    H5S15443   0.226   4.024   5.652  0.4080 -1.2364  1.0666
  141OSM    C6S15444   0.292   4.016   5.436  0.0243  0.1316  0.3601
  141OSM    H6S15445   0.394   4.041   5.398  0.0360  1.0203  0.9528
  141OSM    H6T15446   0.228   4.106   5.425  0.5983  0.7270  1.7592
  141OSM    C7S15447   0.245   3.898   5.357 -0.2836 -0.8983  0.1011
  141OSM    H7S15448   0.138   3.874   5.377 -0.9479  0.9439 -1.0090
  141OSM    H7T15449   0.303   3.806   5.379 -0.1450 -0.9706 -0.5637
  141OSM    C8S15450   0.239   3.923   5.206 -0.3956  1.1208  0.0621
  141OSM    H8S15451   0.333   3.973   5.174  0.7921 -1.1179 -0.1517
  141OSM    H8T15452   0.151   3.987   5.184 -1.7280 -0.6031  0.2589
  141OSM    C9S15453   0.239   3.790   5.125 -0.1606  0.2743 -0.3617
  141OSM    H9S15454   0.147   3.731   5.145 -1.0273  1.8178  0.3431
  141OSM    H9T15455   0.321   3.727   5.166 -1.8568 -2.0955 -0.4323
  141OSM   C10S15456   0.263   3.800   4.975 -0.4661 -0.2911 -0.2643
  141OSM   H10S15457   0.357   3.855   4.954 -0.3143 -0.6872 -0.6321
  141OSM   H10T15458   0.178   3.859   4.933 -1.1809 -1.7420 -0.9420
  141OSM   C11S15459   0.276   3.676   4.898  0.1824  0.3213  0.3105
  141OSM   H11S15460   0.201   3.599   4.925 -0.2429  1.2474  1.8892
  141OSM   H11T15461   0.379   3.638   4.915  0.0499  0.0181  0.4353
  141OSM   C12S15462   0.266   3.707   4.742  0.3169  0.3222  0.3647
  141OSM   H12S15463   0.343   3.781   4.711  2.1946 -1.9669 -0.7461
  141OSM   H12T15464   0.162   3.743   4.728 -0.0971 -1.0079 -0.1149
  141OSM   C13S15465   0.263   3.579   4.651 -0.3134 -0.1783  0.4509
  141OSM   H13S15466   0.168   3.525   4.668 -1.8904  2.4708  0.4648
  141OSM   H13T15467   0.354   3.524   4.685  0.8304  0.6011 -1.1986
  141OSM   C14S15468   0.274   3.615   4.499  0.6015  0.2902  0.1609
  141OSM   H14S15469   0.291   3.522   4.440 -1.0045  0.7795 -1.1612
  141OSM   H14T15470   0.360   3.684   4.493  1.1409  0.1162  3.7279
  141OSM   C15S15471   0.149   3.675   4.436 -0.1103 -0.5692 -0.8787
  141OSM   H15S15472   0.107   3.759   4.496  0.5525 -1.5742  1.0935
  141OSM   H15T15473   0.075   3.595   4.417 -1.5131  0.7420 -1.2059
  141OSM   C16S15474   0.177   3.745   4.301  0.1647 -0.5900 -0.0602
  141OSM   H16S15475   0.260   3.817   4.315  1.2603 -1.2265 -2.5650
  141OSM   H16T15476   0.084   3.793   4.262 -0.4377 -1.2722  0.5029
  141OSM   C17S15477   0.235   3.646   4.199 -0.5517 -0.8154 -0.3093
  141OSM   H17S15478   0.177   3.552   4.187 -0.9699 -0.7847  1.2144
  141OSM   H17T15479   0.339   3.613   4.222 -0.8272 -2.1921 -0.9106
  141OSM   C18S15480   0.254   3.704   4.064 -0.5584 -0.6129 -0.2206
  141OSM   H18S15481   0.325   3.789   4.065 -3.6170  2.1106 -0.2399
  141OSM   H18T15482   0.156   3.745   4.031 -1.8637 -1.4516  2.3011
  141OSM   H18U15483   0.301   3.639   3.987 -1.2986 -0.4173 -0.8496
  141OSM    C1F15484   0.721   4.046   5.787 -0.2175  0.6119 -0.1962
  141OSM     OF15485   0.792   3.967   5.851  0.2814  0.1630  0.3541
  141OSM    C2F15486   0.774   4.161   5.722  0.3442  0.2522 -0.2197
  141OSM    H2F15487   0.852   4.205   5.788  0.1028 -0.6699  0.7073
  141OSM    H2G15488   0.690   4.233   5.706  0.3487  0.1895 -0.5292
  141OSM    C3F15489   0.829   4.116   5.583 -0.0043  0.1323 -0.5738
  141OSM    H3F15490   0.737   4.092   5.525  0.0807  0.8312 -1.0140
  141OSM    H3G15491   0.882   4.019   5.593 -3.6111 -1.9578  0.4941
  141OSM    C4F15492   0.913   4.218   5.502  0.7404 -0.1962 -0.2771
  141OSM    H4F15493   0.993   4.266   5.563  1.4218  1.0423 -2.0556
  141OSM    H4G15494   0.847   4.307   5.488  0.1132 -0.4628  0.8667
  141OSM    C5F15495   0.966   4.176   5.368  0.2552 -0.3644  0.9040
  141OSM    H5F15496   1.002   4.269   5.319  2.3812 -0.4614  2.1360
  141OSM    H5G15497   0.875   4.140   5.314  0.6565 -0.9684  0.6159
  141OSM    C6F15498   1.073   4.067   5.379 -0.5365  0.0525 -0.3254
  141OSM    H6F15499   1.038   3.983   5.444 -0.2731  0.8257  0.8475
  141OSM    H6G15500   1.152   4.115   5.441  0.4449 -0.8069 -0.8638
  141OSM    C7F15501   1.129   4.012   5.243 -0.1398 -0.4411 -0.7838
  141OSM    H7F15502   1.047   3.975   5.178  1.3896  0.9361 -3.6551
  141OSM    H7G15503   1.187   3.923   5.275  0.4450  0.3882  0.5639
  141OSM    C8F15504   1.229   4.105   5.166  0.6558  0.4987  0.2957
  141OSM    H8F15505   1.182   4.205   5.158 -0.2202  0.4323  3.4047
  141OSM    H8G15506   1.238   4.068   5.061 -1.1105 -0.1611  0.3329
  141OSM    C9F15507   1.356   4.109   5.240 -0.5459 -0.2525  0.4638
  141OSM    H9F15508   1.351   4.115   5.350 -0.8384  0.9161  0.4037
  141OSM   C10F15509   1.474   4.105   5.183 -0.0574 -0.1056 -0.1539
  141OSM   H10F15510   1.559   4.115   5.252 -0.1216  1.7921 -0.3060
  141OSM   C11F15511   1.521   4.079   5.040 -0.0102 -0.0335  0.2369
  141OSM   H11F15512   1.439   4.039   4.976 -0.6243 -0.1077  1.0493
  141OSM   H11G15513   1.597   3.998   5.040 -0.6906 -0.6896  1.4154
  141OSM   C12F15514   1.578   4.211   4.979  1.4104  0.4966  1.0007
  141OSM   H12F15515   1.618   4.188   4.878  0.7946  0.5053  0.7522
  141OSM   H12G15516   1.673   4.229   5.033  1.4552  0.4572  0.9350
  141OSM   C13F15517   1.490   4.334   4.989  0.1326 -0.3355 -0.1531
  141OSM   H13F15518   1.561   4.416   4.966  0.1069 -0.3608 -0.3246
  141OSM   H13G15519   1.438   4.341   5.086 -0.6317 -1.3498 -0.4684
  141OSM   C14F15520   1.377   4.335   4.879  0.3623 -0.1659  0.7005
  141OSM   H14F15521   1.321   4.431   4.880  1.5074  0.5276  0.7694
  141OSM   H14G15522   1.296   4.264   4.905  0.7047 -0.1297  1.9488
  141OSM   C15F15523   1.416   4.311   4.728  0.6277  0.2410 -0.3275
  141OSM   H15F15524   1.512   4.351   4.689 -0.3891  4.0918  0.7188
  141OSM   H15G15525   1.332   4.355   4.671 -0.1834 -2.5452 -1.4549
  141OSM   C16F15526   1.409   4.162   4.680 -0.4458  0.4213  0.4512
  141OSM   H16F15527   1.328   4.123   4.745 -0.9582  0.2648 -0.2700
  141OSM   H16G15528   1.505   4.112   4.708  0.0199  1.4928  0.8297
  141OSM   C17F15529   1.379   4.134   4.534  0.4595  0.5814 -0.2737
  141OSM   H17F15530   1.468   4.157   4.473 -0.6215  2.0771 -1.3443
  141OSM   H17G15531   1.300   4.200   4.493 -1.1848 -1.4727 -0.6205
  141OSM   C18F15532   1.330   3.987   4.511  0.2123 -0.0902  0.9258
  141OSM   H18F15533   1.247   3.961   4.579  0.1686  0.7755  1.2194
  141OSM   H18G15534   1.409   3.911   4.530  1.3569  0.6961 -0.4319
  141OSM   H18H15535   1.297   3.983   4.405  0.9659  2.0015  0.5518
  142OSM      N15536   2.103   1.807   6.493  0.5850 -0.3280 -0.1923
  142OSM    C1515537   2.155   1.907   6.589  0.4803  0.5221  0.2392
  142OSM   H15A15538   2.261   1.925   6.579  0.8433  0.3561  3.0412
  142OSM   H15B15539   2.136   1.881   6.692 -0.6347  1.5820  0.3269
  142OSM   H15C15540   2.118   2.007   6.569 -0.8103 -0.2734 -1.7872
  142OSM    C1415541   2.163   1.668   6.517 -0.0206  0.0432 -0.0693
  142OSM   H14A15542   2.131   1.600   6.439  1.7125  1.0528 -1.7392
  142OSM   H14B15543   2.138   1.634   6.617 -0.9629 -0.7268 -0.5479
  142OSM   H14C15544   2.270   1.676   6.515  0.1431 -1.7765 -0.4883
  142OSM    C1315545   1.956   1.813   6.514 -0.1526  0.3094 -0.1503
  142OSM   H13A15546   1.933   1.781   6.615  0.1668 -0.7149 -0.3936
  142OSM   H13B15547   1.904   1.743   6.450  2.4344 -0.6355 -1.3626
  142OSM   H13C15548   1.920   1.914   6.504  0.2412  0.3856 -0.8267
  142OSM    C1215549   2.142   1.853   6.350 -0.0292  0.4879 -0.8975
  142OSM   H12A15550   2.120   1.779   6.274  0.9866  2.1341 -2.8800
  142OSM   H12B15551   2.248   1.869   6.348  0.1145  0.0251  1.1128
  142OSM    C1115552   2.090   1.984   6.298  0.3564 -0.4270  0.6027
  142OSM   H11A15553   1.980   1.978   6.299  0.2784 -0.2403 -1.9187
  142OSM   H11B15554   2.110   1.995   6.189 -2.4836 -1.1777 -0.0510
  142OSM      P15555   2.036   2.213   6.392  0.2277  0.5387  0.2710
  142OSM    O1315556   1.924   2.161   6.464  0.5004 -0.3144 -0.0289
  142OSM    O1415557   2.112   2.327   6.448 -0.0094  0.4780 -0.0781
  142OSM    O1115558   1.987   2.250   6.237  0.0605 -0.0669 -0.3882
  142OSM    O1215559   2.135   2.096   6.366 -0.8729 -0.3159 -0.2732
  142OSM    C1S15560   2.091   2.311   6.162  0.0333 -0.5332  0.5430
  142OSM    H1S15561   2.183   2.249   6.156 -0.9000 -1.9458  0.3810
  142OSM    H1T15562   2.111   2.414   6.199  1.6506 -0.6324  0.0239
  142OSM     NF15563   2.131   2.395   5.916 -0.2891  0.2072 -0.0192
  142OSM    HNF15564   2.112   2.489   5.888 -0.3863  0.2041  0.0356
  142OSM    C2S15565   2.037   2.342   6.007  0.5776 -0.0130 -0.4494
  142OSM    H2S15566   2.011   2.240   5.972  3.2945 -0.9099 -0.0765
  142OSM    C3S15567   1.906   2.432   6.003 -0.9099  0.1585 -0.2989
  142OSM    H3S15568   1.940   2.534   6.032 -0.5701  0.1342 -0.6103
  142OSM     O315569   1.814   2.393   6.104 -0.2951  0.0474  0.2405
  142OSM    HO315570   1.863   2.322   6.144  3.5528  1.5638 -1.2207
  142OSM    C4S15571   1.819   2.422   5.879 -0.3837 -0.6776  0.6762
  142OSM    H4S15572   1.750   2.337   5.872  0.0735 -1.0226  0.3550
  142OSM    C5S15573   1.821   2.502   5.773 -0.2338  0.2208  0.1545
  142OSM    H5S15574   1.897   2.579   5.756 -2.1034  1.9844 -0.7175
  142OSM    C6S15575   1.723   2.478   5.655 -0.6305 -0.1713  0.8009
  142OSM    H6S15576   1.760   2.525   5.562 -2.6047 -2.1103 -1.0764
  142OSM    H6T15577   1.631   2.534   5.684  0.2064  1.7790 -0.1003
  142OSM    C7S15578   1.683   2.331   5.625  0.2147 -0.1766 -0.5530
  142OSM    H7S15579   1.635   2.280   5.711  2.2368 -3.2255 -1.0870
  142OSM    H7T15580   1.772   2.267   5.608  2.1413  2.1129  0.3562
  142OSM    C8S15581   1.599   2.305   5.500  0.6586 -0.2248  0.5413
  142OSM    H8S15582   1.504   2.363   5.494  0.0564 -1.3180 -1.6537
  142OSM    H8T15583   1.558   2.202   5.502 -0.7509  0.3068  0.2056
  142OSM    C9S15584   1.662   2.336   5.369  0.1460 -0.0452 -0.1529
  142OSM    H9S15585   1.760   2.287   5.352 -1.5860 -3.5380 -1.0762
  142OSM    H9T15586   1.686   2.444   5.373  3.2110 -0.6702  0.2303
  142OSM   C10S15587   1.571   2.305   5.248  0.6939  0.5112 -0.2949
  142OSM   H10S15588   1.498   2.389   5.256  2.3997  1.9755  0.5581
  142OSM   H10T15589   1.531   2.201   5.252 -0.5545  0.9673 -0.2609
  142OSM   C11S15590   1.641   2.321   5.113  0.2828  0.2448 -0.4177
  142OSM   H11S15591   1.725   2.249   5.119 -0.4352 -0.5854 -0.2587
  142OSM   H11T15592   1.678   2.424   5.092  0.7578 -0.2856 -2.3970
  142OSM   C12S15593   1.558   2.295   4.988 -0.2095 -0.0166 -0.6565
  142OSM   H12S15594   1.521   2.397   4.967 -4.9994 -1.1308  1.1394
  142OSM   H12T15595   1.478   2.220   5.005  0.4240 -0.5450  0.0708
  142OSM   C13S15596   1.644   2.242   4.868 -0.2554 -0.7117  0.3640
  142OSM   H13S15597   1.691   2.146   4.899  0.4317 -0.6712 -0.5341
  142OSM   H13T15598   1.725   2.313   4.844 -0.8193  0.5215  1.8823
  142OSM   C14S15599   1.560   2.211   4.737 -0.8101  0.5056 -0.7200
  142OSM   H14S15600   1.463   2.167   4.768 -0.5642  0.9175  0.7340
  142OSM   H14T15601   1.617   2.141   4.673 -3.3760 -2.5501  0.1188
  142OSM   C15S15602   1.523   2.335   4.653 -0.2457  0.1448  0.3358
  142OSM   H15S15603   1.598   2.417   4.663  1.7043 -1.4894 -0.0677
  142OSM   H15T15604   1.424   2.367   4.690 -0.6172 -0.3147 -0.2457
  142OSM   C16S15605   1.517   2.293   4.505  0.2006 -0.2862  0.5957
  142OSM   H16S15606   1.428   2.230   4.480 -0.3376  0.3796  0.7916
  142OSM   H16T15607   1.606   2.232   4.480  0.1949 -0.1722  0.2983
  142OSM   C17S15608   1.514   2.415   4.411 -0.4657 -0.2833 -0.1761
  142OSM   H17S15609   1.595   2.487   4.437 -0.9925  0.2599 -0.0110
  142OSM   H17T15610   1.429   2.485   4.426  0.1926  0.3502  0.6981
  142OSM   C18S15611   1.538   2.378   4.261  0.4327  0.1182 -0.2267
  142OSM   H18S15612   1.568   2.459   4.191 -1.9427  3.5651  2.4323
  142OSM   H18T15613   1.451   2.320   4.224  0.4939 -0.7700  0.9480
  142OSM   H18U15614   1.618   2.300   4.263  0.0017 -0.4620 -2.8281
  142OSM    C1F15615   2.235   2.319   5.871 -0.4675 -0.4972  0.3095
  142OSM     OF15616   2.267   2.214   5.930 -0.8242 -0.3347  0.1940
  142OSM    C2F15617   2.308   2.358   5.739 -0.1655  0.2519  0.0870
  142OSM    H2F15618   2.284   2.464   5.716  0.7073  0.2535 -0.8761
  142OSM    H2G15619   2.261   2.290   5.665  0.9826 -2.3506  1.6284
  142OSM    C3F15620   2.462   2.346   5.741 -0.3679 -0.1984  0.5731
  142OSM    H3F15621   2.499   2.246   5.771 -0.5835 -0.2525  0.6644
  142OSM    H3G15622   2.505   2.424   5.807  1.5800 -1.4155  0.8153
  142OSM    C4F15623   2.531   2.364   5.601 -0.1172 -0.7144 -0.5141
  142OSM    H4F15624   2.642   2.366   5.605 -0.1378 -0.6932  0.3201
  142OSM    H4G15625   2.503   2.465   5.562  1.1775 -0.4423 -0.7968
  142OSM    C5F15626   2.479   2.271   5.492 -0.1830 -0.6163  0.1506
  142OSM    H5F15627   2.368   2.269   5.492 -0.2025  0.1072 -0.5441
  142OSM    H5G15628   2.492   2.167   5.531 -1.6878 -0.0096  2.5129
  142OSM    C6F15629   2.547   2.295   5.354 -0.2656  0.0926  0.1237
  142OSM    H6F15630   2.657   2.295   5.374 -0.2659 -3.7733  1.0528
  142OSM    H6G15631   2.514   2.393   5.315 -0.2610 -0.5738 -1.6386
  142OSM    C7F15632   2.507   2.188   5.258  0.0477  0.7423 -0.9900
  142OSM    H7F15633   2.400   2.193   5.230  0.0513 -0.3032 -1.2297
  142OSM    H7G15634   2.520   2.091   5.311 -0.2767  0.8366 -0.7383
  142OSM    C8F15635   2.593   2.190   5.131 -0.6153 -0.2267  0.0003
  142OSM    H8F15636   2.590   2.092   5.078 -0.0157  0.3117 -1.0631
  142OSM    H8G15637   2.697   2.203   5.169 -1.0476  1.5637  0.6661
  142OSM    C9F15638   2.573   2.306   5.039  0.4387 -0.0454 -1.6591
  142OSM    H9F15639   2.632   2.395   5.068  0.3549  0.2947 -2.5022
  142OSM   C10F15640   2.483   2.317   4.937  0.3028 -0.0886 -0.3020
  142OSM   H10F15641   2.484   2.419   4.896 -1.0525  0.2770  0.4936
  142OSM   C11F15642   2.386   2.227   4.885  0.3299  0.8040  0.0149
  142OSM   H11F15643   2.289   2.281   4.885  0.7480  1.6021 -1.1755
  142OSM   H11G15644   2.353   2.150   4.958 -0.8386  1.0784 -0.1967
  142OSM   C12F15645   2.417   2.154   4.753 -0.0589  0.0204 -0.6480
  142OSM   H12F15646   2.520   2.117   4.738 -0.8221 -1.4092 -2.9860
  142OSM   H12G15647   2.413   2.230   4.672  1.4174  1.4895  0.5958
  142OSM   C13F15648   2.320   2.041   4.729  0.1976 -0.2598 -0.2547
  142OSM   H13F15649   2.303   1.981   4.821  3.6620  1.6332  1.8283
  142OSM   H13G15650   2.377   1.977   4.659 -1.3184 -3.8531  1.5114
  142OSM   C14F15651   2.192   2.067   4.656 -0.0403  0.1506  0.3875
  142OSM   H14F15652   2.223   2.139   4.577  0.7828 -0.4654  0.1321
  142OSM   H14G15653   2.123   2.116   4.729  2.7141 -0.8700  3.9562
  142OSM   C15F15654   2.126   1.932   4.601  0.6783 -0.2753  0.5398
  142OSM   H15F15655   2.104   1.864   4.686  0.1054 -0.8389 -0.0401
  142OSM   H15G15656   2.198   1.884   4.531 -1.1889 -1.6646 -0.5467
  142OSM   C16F15657   2.002   1.947   4.508 -0.4421  0.5258 -0.0873
  142OSM   H16F15658   1.974   1.852   4.458  1.5137 -0.6345  0.9207
  142OSM   H16G15659   2.025   2.022   4.430  1.3935  0.1508  0.0516
  142OSM   C17F15660   1.880   1.990   4.584  0.8938 -0.3069 -0.2851
  142OSM   H17F15661   1.816   2.043   4.511  1.6579  0.5092 -0.3762
  142OSM   H17G15662   1.902   2.080   4.645  0.3396 -0.1542 -0.3119
  142OSM   C18F15663   1.794   1.895   4.654 -0.2025  0.2349 -0.4016
  142OSM   H18F15664   1.702   1.947   4.689  0.0848  1.5891 -1.6086
  142OSM   H18G15665   1.850   1.842   4.735 -1.8311 -2.3472 -0.8484
  142OSM   H18H15666   1.763   1.811   4.589 -1.0734 -0.1978  0.5285
  143OSM      N15667   0.950   6.872   7.041 -0.2667 -0.1462  0.6344
  143OSM    C1515668   1.099   6.882   7.064  0.5963  0.1733  0.0935
  143OSM   H15A15669   1.144   6.811   6.996  1.0558  0.0194  0.5592
  143OSM   H15B15670   1.132   6.852   7.162 -1.0869  0.0586  0.6683
  143OSM   H15C15671   1.136   6.981   7.042 -0.0557  0.6986  1.2493
  143OSM    C1415672   0.891   6.737   7.089  0.0313 -0.2798  0.0422
  143OSM   H14A15673   0.912   6.708   7.191 -1.5884  2.0961  1.1451
  143OSM   H14B15674   0.930   6.665   7.018 -0.7568 -2.3722  1.6144
  143OSM   H14C15675   0.786   6.722   7.073  0.1689 -1.3708  0.1116
  143OSM    C1315676   0.886   6.981   7.122 -0.4045  0.1017  0.0844
  143OSM   H13A15677   0.922   7.074   7.080 -0.5666  0.2895  0.3554
  143OSM   H13B15678   0.899   6.968   7.228 -1.8736  0.8207  0.3838
  143OSM   H13C15679   0.781   6.976   7.095 -0.9225 -1.4832  2.1515
  143OSM    C1215680   0.913   6.891   6.895  0.6191 -0.2854  0.0700
  143OSM   H12A15681   0.929   6.994   6.868 -0.5230  0.4686  2.0140
  143OSM   H12B15682   0.808   6.879   6.873  0.4648  1.9537 -0.6577
  143OSM    C1115683   0.990   6.815   6.786  0.2306 -0.6353  0.0960
  143OSM   H11A15684   1.098   6.844   6.782  0.3286 -0.8688  1.0406
  143OSM   H11B15685   0.954   6.862   6.691  0.4113 -0.3741  0.1549
  143OSM      P15686   0.844   6.598   6.761  0.1825  0.1800 -0.1308
  143OSM    O1315687   0.838   6.499   6.872  0.4925  0.3045  0.2112
  143OSM    O1415688   0.732   6.693   6.756  0.3226  0.0560 -0.0981
  143OSM    O1115689   0.840   6.523   6.625 -0.0890 -0.3099  0.1908
  143OSM    O1215690   0.977   6.675   6.780 -0.0425  0.7276  1.0383
  143OSM    C1S15691   0.909   6.595   6.514  0.3829 -0.6912  0.0725
  143OSM    H1S15692   1.020   6.585   6.516  0.5195  0.8091  1.5403
  143OSM    H1T15693   0.898   6.705   6.518  2.5583 -0.4590  0.5558
  143OSM     NF15694   0.920   6.647   6.270 -0.4896 -0.1080  0.2984
  143OSM    HNF15695   0.857   6.719   6.241  0.3153  1.0619  1.3370
  143OSM    C2S15696   0.869   6.550   6.370  0.2251  0.7244 -0.0476
  143OSM    H2S15697   0.903   6.447   6.348 -2.4606 -0.9917  3.0117
  143OSM    C3S15698   0.709   6.536   6.366 -0.3536  0.0435  0.0692
  143OSM    H3S15699   0.657   6.632   6.387  0.8430  0.6403  0.4288
  143OSM     O315700   0.642   6.455   6.466 -0.3721  0.4307  0.2787
  143OSM    HO315701   0.714   6.435   6.526 -1.5287  1.4753  2.0811
  143OSM    C4S15702   0.669   6.499   6.228 -0.3550  0.7413 -1.0214
  143OSM    H4S15703   0.620   6.579   6.171 -1.2979 -0.6386 -2.2301
  143OSM    C5S15704   0.660   6.367   6.181 -0.6417 -0.0266 -0.0789
  143OSM    H5S15705   0.695   6.297   6.258  0.8767  1.2263  0.4141
  143OSM    C6S15706   0.616   6.314   6.043 -0.5388 -0.3468 -0.4145
  143OSM    H6S15707   0.525   6.252   6.057  1.4828 -3.2833  0.6869
  143OSM    H6T15708   0.696   6.254   5.994 -2.3128 -2.0386 -1.3927
  143OSM    C7S15709   0.563   6.416   5.938  0.2117  0.2748  0.0483
  143OSM    H7S15710   0.632   6.500   5.916 -1.9093  2.0123 -0.3550
  143OSM    H7T15711   0.468   6.463   5.973  0.0567 -0.1869  0.2574
  143OSM    C8S15712   0.530   6.347   5.803 -0.5391 -0.1143  0.0915
  143OSM    H8S15713   0.458   6.265   5.825  0.2126 -0.9027 -0.3209
  143OSM    H8T15714   0.620   6.301   5.757 -0.2834  0.7276 -0.2654
  143OSM    C9S15715   0.467   6.448   5.703  0.1384 -0.4647  0.4097
  143OSM    H9S15716   0.405   6.530   5.746 -0.5030 -0.1261 -1.0622
  143OSM    H9T15717   0.406   6.395   5.627  0.1687 -1.2427  0.9277
  143OSM   C10S15718   0.573   6.524   5.616 -0.2881 -0.6348 -0.0438
  143OSM   H10S15719   0.639   6.455   5.560  1.2788  0.9844 -0.2800
  143OSM   H10T15720   0.630   6.582   5.692 -1.6492 -1.4271  1.6720
  143OSM   C11S15721   0.521   6.627   5.515 -0.0875 -0.3223  1.0364
  143OSM   H11S15722   0.462   6.707   5.565  1.2040  1.5543 -0.2878
  143OSM   H11T15723   0.463   6.562   5.447 -0.6127 -2.4329  3.3490
  143OSM   C12S15724   0.618   6.698   5.428  0.7937 -0.5998 -0.3153
  143OSM   H12S15725   0.694   6.623   5.397  1.1690  0.0936 -1.1053
  143OSM   H12T15726   0.662   6.783   5.485  0.1678 -0.1797 -0.4467
  143OSM   C13S15727   0.558   6.760   5.301 -0.4566 -0.2344 -0.4801
  143OSM   H13S15728   0.512   6.860   5.315  3.3349  1.5469  0.3776
  143OSM   H13T15729   0.490   6.684   5.257 -0.1442  0.2190 -1.7859
  143OSM   C14S15730   0.668   6.780   5.192 -0.1289 -0.4883  0.7063
  143OSM   H14S15731   0.713   6.683   5.161 -0.6635  0.2048 -2.5818
  143OSM   H14T15732   0.752   6.834   5.242 -0.6154  1.4296 -0.4461
  143OSM   C15S15733   0.629   6.869   5.080  0.1917 -0.0869  0.3092
  143OSM   H15S15734   0.722   6.894   5.023 -1.4684  0.3159 -2.4202
  143OSM   H15T15735   0.593   6.967   5.118 -1.0056  0.4555 -2.0356
  143OSM   C16S15736   0.520   6.821   4.980 -0.5380  0.1235  0.7339
  143OSM   H16S15737   0.504   6.913   4.920 -3.6675 -0.6770  0.1505
  143OSM   H16T15738   0.430   6.786   5.036  0.1934 -3.2417  0.0329
  143OSM   C17S15739   0.556   6.699   4.893  0.0459  0.0193  0.5684
  143OSM   H17S15740   0.588   6.612   4.955  0.0234 -0.2659  0.1889
  143OSM   H17T15741   0.655   6.718   4.846  0.2449 -0.7690  0.6408
  143OSM   C18S15742   0.449   6.662   4.786  0.1893 -0.2762 -0.3305
  143OSM   H18S15743   0.495   6.574   4.736 -0.6754 -1.5617  1.0780
  143OSM   H18T15744   0.453   6.736   4.703  1.9667  0.7088  0.5762
  143OSM   H18U15745   0.353   6.627   4.829  0.3116 -0.2309 -0.0194
  143OSM    C1F15746   1.051   6.666   6.234  0.5890 -0.8637 -0.5788
  143OSM     OF15747   1.140   6.615   6.295 -0.6069 -0.3543 -0.1195
  143OSM    C2F15748   1.086   6.761   6.130  0.3280 -0.4844  0.0865
  143OSM    H2F15749   1.143   6.846   6.172  2.7528 -0.6309 -2.6118
  143OSM    H2G15750   0.993   6.802   6.085  0.8653 -0.4534 -1.0250
  143OSM    C3F15751   1.181   6.692   6.035 -0.0123  0.1224  0.1149
  143OSM    H3F15752   1.136   6.596   6.001 -1.4658  0.5123  0.8296
  143OSM    H3G15753   1.274   6.674   6.092 -0.3028  1.5071  1.0853
  143OSM    C4F15754   1.191   6.786   5.911  0.5156 -0.1343 -0.0051
  143OSM    H4F15755   1.212   6.885   5.958  0.7169  0.0648 -0.5164
  143OSM    H4G15756   1.087   6.784   5.874  0.9470 -1.1979 -1.2144
  143OSM    C5F15757   1.278   6.729   5.802 -1.0041 -0.0794  0.4344
  143OSM    H5F15758   1.238   6.627   5.783 -1.8580  0.0942  1.2210
  143OSM    H5G15759   1.383   6.711   5.834 -0.4806  0.5494 -0.8449
  143OSM    C6F15760   1.276   6.812   5.669  0.3618  0.2066  0.4587
  143OSM    H6F15761   1.283   6.918   5.704 -0.8677  0.1860  0.8110
  143OSM    H6G15762   1.178   6.815   5.616  1.7329 -1.7029 -2.4611
  143OSM    C7F15763   1.366   6.751   5.565 -0.3194  0.4478  0.9154
  143OSM    H7F15764   1.321   6.655   5.528 -0.0811  0.5157  0.4362
  143OSM    H7G15765   1.462   6.723   5.613 -1.3878  0.2039  2.9943
  143OSM    C8F15766   1.399   6.844   5.444 -0.7826  0.5866 -0.2974
  143OSM    H8F15767   1.467   6.785   5.380 -1.0912  0.1917 -0.2651
  143OSM    H8G15768   1.444   6.938   5.483  0.4254 -0.5156  1.0637
  143OSM    C9F15769   1.283   6.901   5.361  0.0344  0.3172  0.1367
  143OSM    H9F15770   1.180   6.916   5.398 -1.1037  0.1622 -2.7381
  143OSM   C10F15771   1.296   6.933   5.234  0.0090  0.4533 -0.0151
  143OSM   H10F15772   1.204   6.969   5.185 -0.8769 -0.7776  0.6974
  143OSM   C11F15773   1.410   6.935   5.135  0.2987  0.5228 -0.4927
  143OSM   H11F15774   1.502   6.899   5.187 -1.1199  0.5629  2.1646
  143OSM   H11G15775   1.430   7.041   5.106  1.2049  0.8008  1.0255
  143OSM   C12F15776   1.394   6.852   5.009  0.6213  0.0250  0.1435
  143OSM   H12F15777   1.304   6.894   4.960 -0.9568 -0.4577  2.4483
  143OSM   H12G15778   1.373   6.746   5.036 -0.1257  0.5018  1.5919
  143OSM   C13F15779   1.513   6.870   4.912  0.5749 -0.8270  0.3805
  143OSM   H13F15780   1.612   6.852   4.958 -0.3821 -2.9624  1.7807
  143OSM   H13G15781   1.511   6.978   4.884 -1.9375 -0.8701  0.1522
  143OSM   C14F15782   1.505   6.773   4.798  0.6333  0.4775  0.3860
  143OSM   H14F15783   1.408   6.777   4.744  0.4613  1.5471  0.7441
  143OSM   H14G15784   1.512   6.677   4.854  0.4710 -0.8226 -1.7264
  143OSM   C15F15785   1.619   6.772   4.698 -0.2650 -0.8018 -0.6929
  143OSM   H15F15786   1.617   6.678   4.638  0.9279 -0.9172 -0.5742
  143OSM   H15G15787   1.717   6.768   4.751 -0.3916  0.4471 -0.3445
  143OSM   C16F15788   1.608   6.886   4.601 -0.1932 -0.6458  0.0304
  143OSM   H16F15789   1.678   6.855   4.519 -0.3413 -0.1329 -0.2939
  143OSM   H16G15790   1.637   6.982   4.648  1.3694 -1.1343  0.1399
  143OSM   C17F15791   1.477   6.919   4.540  0.6737 -0.2847  1.3644
  143OSM   H17F15792   1.497   7.005   4.473  1.4622 -0.2827  1.5880
  143OSM   H17G15793   1.408   6.962   4.615 -0.4730  3.1589 -1.4267
  143OSM   C18F15794   1.408   6.804   4.458  0.6780  0.3477  0.2789
  143OSM   H18F15795   1.387   6.710   4.514  2.3138 -0.6983 -0.7890
  143OSM   H18G15796   1.462   6.763   4.370  0.3336 -0.6110  0.5035
  143OSM   H18H15797   1.313   6.840   4.411 -0.0917 -1.2429  0.5350
  144OSM      N15798   2.260   4.453   6.855  0.0602 -0.2259  0.7232
  144OSM    C1515799   2.372   4.462   6.938 -0.3784 -0.0696  0.6141
  144OSM   H15A15800   2.448   4.529   6.901  0.2168  0.5559  2.8472
  144OSM   H15B15801   2.414   4.363   6.953  0.6692  0.1923 -0.4985
  144OSM   H15C15802   2.341   4.505   7.032 -2.3451  0.2886 -0.1463
  144OSM    C1415803   2.149   4.381   6.922  0.2616  0.2686  0.0096
  144OSM   H14A15804   2.064   4.383   6.857 -0.7884 -2.4514  1.1540
  144OSM   H14B15805   2.127   4.432   7.015  0.6542 -0.3398  0.4437
  144OSM   H14C15806   2.182   4.281   6.947  1.2470  0.1242 -1.7402
  144OSM    C1315807   2.213   4.590   6.826 -0.0427  0.6941 -0.6630
  144OSM   H13A15808   2.279   4.636   6.754  0.2416  2.5698  0.7124
  144OSM   H13B15809   2.198   4.647   6.917  4.0669  0.4952  0.3562
  144OSM   H13C15810   2.113   4.589   6.786 -0.4599  0.5358  0.3435
  144OSM    C1215811   2.293   4.378   6.720  0.2951 -0.3634  0.6170
  144OSM   H12A15812   2.212   4.413   6.657 -1.0673 -0.9152  2.0168
  144OSM   H12B15813   2.267   4.275   6.735 -0.4684 -0.1965  0.4532
  144OSM    C1115814   2.425   4.410   6.649 -0.6787 -0.1269 -0.4754
  144OSM   H11A15815   2.420   4.517   6.622  2.7433 -0.2100 -1.9012
  144OSM   H11B15816   2.414   4.355   6.553  2.0292  0.2061 -1.0594
  144OSM      P15817   2.589   4.233   6.725  0.2520  0.2335 -0.4608
  144OSM    O1315818   2.704   4.223   6.817 -0.1409 -0.1676  0.2469
  144OSM    O1415819   2.474   4.141   6.758 -0.1388 -0.5249 -0.1323
  144OSM    O1115820   2.641   4.196   6.576  0.0718 -0.1778  0.1562
  144OSM    O1215821   2.550   4.379   6.716 -0.2789  0.0264 -0.0744
  144OSM    C1S15822   2.711   4.282   6.487  0.4852 -0.0231 -0.2048
  144OSM    H1S15823   2.819   4.262   6.506  0.2597  0.4825  1.8635
  144OSM    H1T15824   2.689   4.390   6.500  0.8189  0.4380 -2.9672
  144OSM     NF15825   2.763   4.370   6.259  0.0432 -0.0159  0.0003
  144OSM    HNF15826   2.709   4.432   6.203  0.1949 -0.0117 -0.1427
  144OSM    C2S15827   2.697   4.259   6.332  0.5637 -0.4235  0.2831
  144OSM    H2S15828   2.743   4.161   6.304  0.1230 -0.3286 -0.8055
  144OSM    C3S15829   2.550   4.233   6.297  0.0983  0.1682  0.4402
  144OSM    H3S15830   2.494   4.329   6.305  1.0236  0.7307  0.2571
  144OSM     O315831   2.485   4.124   6.364  0.0850  0.0959  0.2021
  144OSM    HO315832   2.550   4.101   6.430  1.5458  1.1229 -0.8023
  144OSM    C4S15833   2.550   4.207   6.144 -0.4765  0.1264  0.1570
  144OSM    H4S15834   2.625   4.130   6.122  0.5960  0.8750  1.0616
  144OSM    C5S15835   2.485   4.277   6.048  0.2008 -0.0755 -0.5400
  144OSM    H5S15836   2.424   4.366   6.069  1.5071  1.0728 -1.4134
  144OSM    C6S15837   2.510   4.247   5.901 -0.2995 -0.5115  0.3087
  144OSM    H6S15838   2.431   4.297   5.842 -0.7408  0.3493  1.5854
  144OSM    H6T15839   2.506   4.139   5.874 -0.9850  0.0446 -2.0052
  144OSM    C7S15840   2.658   4.287   5.855 -0.0284  0.2549  0.2551
  144OSM    H7S15841   2.723   4.211   5.903  0.3740  0.2025 -0.3776
  144OSM    H7T15842   2.681   4.386   5.901  3.6142 -0.8288  1.0336
  144OSM    C8S15843   2.669   4.289   5.700  0.2868  0.5911  0.4733
  144OSM    H8S15844   2.630   4.376   5.643 -2.1243 -1.9782 -2.2114
  144OSM    H8T15845   2.610   4.203   5.659  0.6119  1.3544 -1.7400
  144OSM    C9S15846   2.818   4.272   5.653 -0.7003  0.1292  0.1087
  144OSM    H9S15847   2.856   4.171   5.676 -0.1749  0.4616  0.7320
  144OSM    H9T15848   2.871   4.346   5.717 -2.4073 -0.4039  2.2454
  144OSM   C10S15849   2.839   4.303   5.501  0.3454 -0.1802  0.0643
  144OSM   H10S15850   2.765   4.242   5.445 -0.0685 -0.1768  0.6103
  144OSM   H10T15851   2.946   4.278   5.482  0.5117  0.0690  0.6435
  144OSM   C11S15852   2.823   4.455   5.461 -0.4924  0.2134  0.0997
  144OSM   H11S15853   2.901   4.512   5.515 -0.0631  0.5865 -0.8826
  144OSM   H11T15854   2.725   4.487   5.503 -0.2717 -0.6896  1.3599
  144OSM   C12S15855   2.808   4.480   5.313  0.1710 -0.8864  0.1730
  144OSM   H12S15856   2.798   4.591   5.304 -0.6665 -0.7932  1.8287
  144OSM   H12T15857   2.715   4.435   5.272  0.9973 -2.3032 -0.2033
  144OSM   C13S15858   2.920   4.433   5.222  0.1696 -0.1520 -0.1387
  144OSM   H13S15859   2.973   4.345   5.264  0.8426  0.7786  1.0094
  144OSM   H13T15860   2.998   4.512   5.217  0.3947 -0.3762 -0.1607
  144OSM   C14S15861   2.882   4.399   5.077  0.3647  0.3327  0.0676
  144OSM   H14S15862   2.802   4.322   5.075  0.3997  0.1011  2.8040
  144OSM   H14T15863   2.969   4.353   5.025  2.0586  0.4601  2.6116
  144OSM   C15S15864   2.839   4.526   4.997  0.0012  0.7013 -0.8776
  144OSM   H15S15865   2.918   4.603   5.008  1.8280 -1.3823  1.8205
  144OSM   H15T15866   2.744   4.566   5.039 -2.6033 -2.0296 -3.6761
  144OSM   C16S15867   2.804   4.481   4.856 -0.3072  0.2590  0.6343
  144OSM   H16S15868   2.735   4.394   4.853  0.1375 -0.1143 -2.6797
  144OSM   H16T15869   2.898   4.456   4.802  0.4937  1.2853  1.5004
  144OSM   C17S15870   2.725   4.593   4.778  0.0714  0.6781  0.0348
  144OSM   H17S15871   2.793   4.680   4.768 -0.4416  0.9355 -1.6972
  144OSM   H17T15872   2.633   4.628   4.830 -0.1612  3.9936 -2.2860
  144OSM   C18S15873   2.682   4.554   4.634  0.1388 -0.1463 -0.3255
  144OSM   H18S15874   2.769   4.513   4.577 -1.1170 -1.3285 -1.4665
  144OSM   H18T15875   2.648   4.648   4.584 -0.1085 -1.5583 -3.0218
  144OSM   H18U15876   2.604   4.475   4.632  1.2240 -1.3264  1.4154
  144OSM    C1F15877   2.897   4.382   6.252 -0.0707  0.8818 -1.1049
  144OSM     OF15878   2.972   4.292   6.310 -0.6137  0.0438  0.2573
  144OSM    C2F15879   2.956   4.506   6.188  0.0505  0.5781 -0.2696
  144OSM    H2F15880   3.030   4.555   6.254 -1.6765  1.2329  1.2705
  144OSM    H2G15881   2.875   4.581   6.171  0.2419  1.0293  0.7503
  144OSM    C3F15882   3.022   4.467   6.055  0.3729 -0.0867 -0.0986
  144OSM    H3F15883   2.939   4.429   5.992  0.4617 -1.5449  0.6210
  144OSM    H3G15884   3.097   4.386   6.066  0.7785  0.2464 -0.3682
  144OSM    C4F15885   3.092   4.590   5.992  0.5246 -0.1933 -0.2152
  144OSM    H4F15886   3.174   4.620   6.060  1.2726  0.2083 -1.2626
  144OSM    H4G15887   3.021   4.674   5.975  0.2902 -0.2910  0.2597
  144OSM    C5F15888   3.150   4.571   5.856  0.1767  0.2225  0.2802
  144OSM    H5F15889   3.083   4.548   5.770  0.4900 -0.1504  0.1327
  144OSM    H5G15890   3.207   4.476   5.868 -1.1958 -1.1475 -2.7510
  144OSM    C6F15891   3.248   4.677   5.811  0.6058  0.1481  0.1184
  144OSM    H6F15892   3.302   4.618   5.733 -0.1539 -0.3493 -0.0363
  144OSM    H6G15893   3.309   4.711   5.897 -1.0263  0.3289  1.2467
  144OSM    C7F15894   3.188   4.804   5.742  0.2385  0.6278  0.2652
  144OSM    H7F15895   3.277   4.870   5.731 -0.4459  2.0680  2.6276
  144OSM    H7G15896   3.131   4.864   5.817  1.6050 -1.3655  3.0930
  144OSM    C8F15897   3.093   4.791   5.621  0.1755  0.4452 -0.6141
  144OSM    H8F15898   3.054   4.893   5.604 -1.6865 -0.2290 -0.6106
  144OSM    H8G15899   2.999   4.735   5.638 -1.5012  3.1353 -0.5251
  144OSM    C9F15900   3.174   4.732   5.499  0.0518  0.0763 -0.2074
  144OSM    H9F15901   3.173   4.622   5.507  2.2057  0.0360  0.0698
  144OSM   C10F15902   3.223   4.784   5.387  0.1428 -0.1146 -0.7027
  144OSM   H10F15903   3.270   4.716   5.315  0.0370 -0.1207 -0.7672
  144OSM   C11F15904   3.215   4.929   5.350 -0.2979 -0.5375  0.8384
  144OSM   H11F15905   3.312   4.977   5.325 -2.9050  3.6951 -2.4954
  144OSM   H11G15906   3.177   4.990   5.434  0.8714  2.7300 -0.8395
  144OSM   C12F15907   3.117   4.976   5.239  0.2440  0.5923 -0.3026
  144OSM   H12F15908   3.088   5.083   5.251 -0.8674  0.6368 -2.7892
  144OSM   H12G15909   3.026   4.913   5.247  0.2795  0.4482 -0.9601
  144OSM   C13F15910   3.176   4.955   5.099 -0.5639 -0.0291  0.7672
  144OSM   H13F15911   3.217   4.852   5.087  1.9613  0.8886  0.9734
  144OSM   H13G15912   3.258   5.029   5.092  1.5895 -2.1036  2.4688
  144OSM   C14F15913   3.077   4.977   4.983 -0.1760  0.5327 -0.3895
  144OSM   H14F15914   3.026   5.076   4.991  1.7542  1.5946 -0.5865
  144OSM   H14G15915   3.001   4.896   4.989  2.0976 -1.6180  1.5335
  144OSM   C15F15916   3.152   4.959   4.851  0.2137 -0.3515 -0.4809
  144OSM   H15F15917   3.214   4.866   4.848 -1.2591 -1.3683 -0.5103
  144OSM   H15G15918   3.225   5.039   4.825  0.9045 -1.0388 -0.7083
  144OSM   C16F15919   3.056   4.952   4.732 -0.2059  0.4634 -0.0532
  144OSM   H16F15920   2.988   5.040   4.735  3.1024  3.3236 -1.4851
  144OSM   H16G15921   2.989   4.864   4.742 -0.2972  0.6256  0.8364
  144OSM   C17F15922   3.128   4.934   4.599 -0.2783 -0.6998  0.3929
  144OSM   H17F15923   3.226   4.886   4.619  0.1954  0.2241  0.3375
  144OSM   H17G15924   3.147   5.036   4.560  1.2271 -0.8799  0.5971
  144OSM   C18F15925   3.046   4.862   4.495  0.3532 -0.1850  0.3283
  144OSM   H18F15926   3.100   4.837   4.401  1.3594 -2.5501  1.4538
  144OSM   H18G15927   2.956   4.918   4.464 -0.8025 -0.8550  2.3226
  144OSM   H18H15928   3.025   4.760   4.534  0.5285 -0.8514 -1.2440
  145OSM      N15929   2.213   0.112   6.437 -0.2902 -0.2786 -0.2102
  145OSM    C1515930   2.175   0.175   6.310  0.2728  0.0851  0.0285
  145OSM   H15A15931   2.070   0.201   6.310  0.5010  1.6144  3.6359
  145OSM   H15B15932   2.193   0.110   6.226 -1.9647  0.7734 -1.0637
  145OSM   H15C15933   2.226   0.266   6.286  1.0726 -0.1118  0.9190
  145OSM    C1415934   2.137   0.188   6.545  0.1198  0.4266  0.3859
  145OSM   H14A15935   2.169   0.292   6.542  2.0518 -0.1181  0.8749
  145OSM   H14B15936   2.150   0.136   6.639 -0.0181 -1.4855 -0.6136
  145OSM   H14C15937   2.033   0.179   6.518  0.5467  0.4336 -1.3579
  145OSM    C1315938   2.163  -0.028   6.446  0.2842  0.1622  0.4084
  145OSM   H13A15939   2.187  -0.078   6.538 -4.6384 -1.1559  1.2726
  145OSM   H13B15940   2.210  -0.088   6.369  1.3127 -0.0113  1.1381
  145OSM   H13C15941   2.055  -0.033   6.445  0.2802 -1.0796  2.2927
  145OSM    C1215942   2.362   0.118   6.452 -0.1971 -0.2219 -0.2710
  145OSM   H12A15943   2.395   0.217   6.424 -0.3075 -0.2788 -0.6024
  145OSM   H12B15944   2.409   0.058   6.375 -0.6016  0.0432 -0.7322
  145OSM    C1115945   2.421   0.088   6.588 -0.3889  0.0763 -0.4654
  145OSM   H11A15946   2.360   0.146   6.661 -3.1676  0.7391 -3.0957
  145OSM   H11B15947   2.522   0.133   6.594 -0.0612 -0.5585 -1.0857
  145OSM      P15948   2.522  -0.147   6.575  0.4072  0.2924  0.3630
  145OSM    O1315949   2.544  -0.242   6.681  0.2178 -0.2823 -0.7677
  145OSM    O1415950   2.486  -0.204   6.439 -0.2259 -0.1613  0.1582
  145OSM    O1115951   2.652  -0.049   6.563  0.5465 -0.1480 -0.4474
  145OSM    O1215952   2.408  -0.053   6.620 -0.0539  0.0781 -0.1047
  145OSM    C1S15953   2.765  -0.091   6.491  0.1726 -0.1503 -0.5176
  145OSM    H1S15954   2.747  -0.177   6.423 -3.5985  0.9240 -1.1014
  145OSM    H1T15955   2.840  -0.119   6.568 -0.1440 -0.5570 -0.3522
  145OSM     NF15956   2.921  -0.019   6.310 -0.5801 -0.2847  0.3194
  145OSM    HNF15957   3.019  -0.021   6.329 -0.5446 -2.9047  0.2288
  145OSM    C2S15958   2.833   0.025   6.414 -0.0842 -0.0226 -0.0879
  145OSM    H2S15959   2.752   0.083   6.365 -0.7949  0.1532  1.2376
  145OSM    C3S15960   2.907   0.117   6.517  0.3318 -0.2368  0.4049
  145OSM    H3S15961   2.997   0.068   6.559  0.2635  0.9528  2.0314
  145OSM     O315962   2.823   0.141   6.635  0.4960  0.3533 -0.5613
  145OSM    HO315963   2.756   0.073   6.627 -0.6632  0.9270  2.6961
  145OSM    C4S15964   2.949   0.240   6.441  0.1520 -0.0786 -0.5536
  145OSM    H4S15965   2.871   0.295   6.386 -0.6491  0.3001  0.9111
  145OSM    C5S15966   3.076   0.291   6.430  0.1597  0.3077  0.2927
  145OSM    H5S15967   3.165   0.242   6.469  0.4914 -0.5021 -1.3711
  145OSM    C6S15968   3.096   0.424   6.364  0.0277  0.9065  0.1346
  145OSM    H6S15969   3.135   0.502   6.433 -2.4983  1.2045  1.3314
  145OSM    H6T15970   2.999   0.473   6.343 -0.7386 -1.0072 -1.0843
  145OSM    C7S15971   3.173   0.404   6.229 -0.2620 -0.3639  0.3631
  145OSM    H7S15972   3.255   0.330   6.246  0.6131 -0.2553 -2.7558
  145OSM    H7T15973   3.212   0.503   6.198 -2.8191  0.1525 -1.4909
  145OSM    C8S15974   3.088   0.358   6.107 -0.2275  0.4464  0.4339
  145OSM    H8S15975   3.023   0.438   6.066  1.1598  1.5770  0.3452
  145OSM    H8T15976   3.027   0.273   6.144  1.5046 -0.8575  0.4395
  145OSM    C9S15977   3.177   0.298   5.996  0.6821  0.3575  0.0707
  145OSM    H9S15978   3.108   0.238   5.933  1.3789 -0.9919  0.5463
  145OSM    H9T15979   3.251   0.232   6.045 -0.2742  0.1585  1.3199
  145OSM   C10S15980   3.255   0.395   5.909  0.2003  0.2855 -0.6893
  145OSM   H10S15981   3.327   0.453   5.970  2.4662 -0.8049 -2.1949
  145OSM   H10T15982   3.183   0.470   5.868 -0.7993 -1.1751 -1.7122
  145OSM   C11S15983   3.328   0.335   5.789 -0.3977  0.4126  0.4193
  145OSM   H11S15984   3.266   0.255   5.742  0.2164 -0.1017  0.4801
  145OSM   H11T15985   3.414   0.279   5.829  1.4061  2.9029  0.2898
  145OSM   C12S15986   3.372   0.440   5.690  0.4223  0.1735  0.2103
  145OSM   H12S15987   3.446   0.503   5.743  0.2998 -0.8595  1.6557
  145OSM   H12T15988   3.282   0.496   5.657 -0.2668 -1.3333 -0.6182
  145OSM   C13S15989   3.443   0.378   5.554 -1.2602 -0.0700 -0.3514
  145OSM   H13S15990   3.502   0.286   5.575  0.3671  0.0315 -3.8632
  145OSM   H13T15991   3.514   0.457   5.522 -0.3776 -1.3478 -1.7057
  145OSM   C14S15992   3.340   0.357   5.443  0.3113  0.6300 -0.9204
  145OSM   H14S15993   3.317   0.462   5.412  1.7040  0.8004 -1.4169
  145OSM   H14T15994   3.247   0.303   5.472  0.6325  1.6999  2.5197
  145OSM   C15S15995   3.397   0.276   5.324 -0.1078 -0.1462  0.2640
  145OSM   H15S15996   3.314   0.231   5.265  0.8433 -1.0580 -0.4026
  145OSM   H15T15997   3.454   0.192   5.369 -0.0200  0.2535  0.9092
  145OSM   C16S15998   3.491   0.365   5.224  0.1175  0.2835  0.0690
  145OSM   H16S15999   3.593   0.362   5.268 -0.3179 -2.9414  1.1488
  145OSM   H16T16000   3.457   0.471   5.218  2.1827  1.0804  1.2430
  145OSM   C17S16001   3.501   0.306   5.083 -0.6994  0.2307 -0.0069
  145OSM   H17S16002   3.567   0.219   5.061  0.4772  1.4720 -1.6498
  145OSM   H17T16003   3.551   0.384   5.023 -0.1232  1.2830  1.8005
  145OSM   C18S16004   3.364   0.290   5.024 -0.4522 -0.7710  0.4491
  145OSM   H18S16005   3.328   0.190   5.058  1.1786 -0.5919  3.0220
  145OSM   H18T16006   3.370   0.286   4.913 -0.0278 -0.6038  0.4633
  145OSM   H18U16007   3.299   0.367   5.071  0.6772 -0.5082  1.6107
  145OSM    C1F16008   2.866  -0.069   6.197 -0.9230 -0.6460 -0.5674
  145OSM     OF16009   2.744  -0.086   6.188 -0.5584  0.3338  0.1068
  145OSM    C2F16010   2.964  -0.094   6.087 -0.6407  0.2902  0.1290
  145OSM    H2F16011   3.042  -0.168   6.116 -0.4720  0.7085  0.7655
  145OSM    H2G16012   3.016   0.004   6.081  1.3389 -0.7856 -1.1334
  145OSM    C3F16013   2.898  -0.147   5.957 -0.1820  0.2632  0.3801
  145OSM    H3F16014   2.800  -0.102   5.929  0.5006  2.2544  1.0172
  145OSM    H3G16015   2.884  -0.255   5.978 -0.7150  0.3662  0.5767
  145OSM    C4F16016   3.004  -0.157   5.850 -0.2274 -0.7482 -0.0795
  145OSM    H4F16017   3.085  -0.228   5.876  0.4037  0.4747  1.4292
  145OSM    H4G16018   3.045  -0.055   5.838  1.7707 -0.9833  3.5140
  145OSM    C5F16019   2.960  -0.192   5.710  0.4138 -0.2750 -0.0426
  145OSM    H5F16020   2.871  -0.131   5.681 -0.0524  0.0735  1.9468
  145OSM    H5G16021   2.927  -0.297   5.695  0.2365  0.0873 -2.6492
  145OSM    C6F16022   3.055  -0.156   5.606  0.0093  0.3021 -0.0604
  145OSM    H6F16023   3.145  -0.221   5.603 -0.1077  0.1569 -0.6134
  145OSM    H6G16024   3.091  -0.052   5.619 -1.5399  0.8898 -0.3514
  145OSM    C7F16025   2.993  -0.168   5.467  0.7208  0.5722  0.4112
  145OSM    H7F16026   2.913  -0.090   5.462 -0.2716 -0.1368  3.1438
  145OSM    H7G16027   2.954  -0.271   5.454  0.5384  0.7486 -0.4776
  145OSM    C8F16028   3.103  -0.148   5.356 -0.0637  0.4534 -0.1697
  145OSM    H8F16029   3.203  -0.182   5.389 -0.1455  0.1716 -0.2008
  145OSM    H8G16030   3.112  -0.041   5.328 -0.5494 -0.2203 -3.3188
  145OSM    C9F16031   3.062  -0.225   5.234 -0.1346  0.7936 -0.3687
  145OSM    H9F16032   3.008  -0.320   5.247 -0.8388  1.3098  0.6114
  145OSM   C10F16033   3.092  -0.191   5.105  0.0673  0.2838  0.8254
  145OSM   H10F16034   3.051  -0.256   5.025  2.2669 -1.1519  0.7938
  145OSM   C11F16035   3.166  -0.076   5.059  0.3605 -0.3561  0.1460
  145OSM   H11F16036   3.229  -0.105   4.973  1.1464 -0.9489  0.9076
  145OSM   H11G16037   3.234  -0.034   5.136  1.2774 -2.9591  0.8723
  145OSM   C12F16038   3.057   0.030   5.002 -0.0138  0.2916  0.2497
  145OSM   H12F16039   3.100   0.126   4.966  0.2016 -0.2503 -0.9582
  145OSM   H12G16040   2.986   0.051   5.085  0.9258  1.3770  0.8055
  145OSM   C13F16041   2.980  -0.017   4.877  0.4654  0.3980 -0.5354
  145OSM   H13F16042   2.897   0.055   4.860 -1.1638 -0.8097  1.7088
  145OSM   H13G16043   2.918  -0.107   4.898  1.8293 -0.4012  0.1641
  145OSM   C14F16044   3.065  -0.051   4.754 -0.1585  0.2540  0.4858
  145OSM   H14F16045   3.126  -0.143   4.770  3.3126  2.3752  0.4244
  145OSM   H14G16046   3.132   0.037   4.737  0.1863 -0.4485 -2.3335
  145OSM   C15F16047   2.977  -0.071   4.627 -0.7407  0.4132  0.0097
  145OSM   H15F16048   3.047  -0.082   4.542 -0.3509 -0.5162  0.4345
  145OSM   H15G16049   2.912   0.018   4.609  1.4538  1.8110 -1.4215
  145OSM   C16F16050   2.891  -0.193   4.631  0.3354  0.1983 -0.5412
  145OSM   H16F16051   2.792  -0.164   4.671  2.0406  2.9312  2.0677
  145OSM   H16G16052   2.927  -0.268   4.704  0.4991  0.7195 -0.0821
  145OSM   C17F16053   2.868  -0.253   4.495 -0.4644 -0.2765  0.9532
  145OSM   H17F16054   2.957  -0.293   4.442 -0.8377  1.6245 -1.2414
  145OSM   H17G16055   2.828  -0.167   4.437  2.5420 -1.0870 -2.7735
  145OSM   C18F16056   2.765  -0.365   4.491  0.0157  0.2645 -0.1717
  145OSM   H18F16057   2.721  -0.374   4.389 -1.9851 -1.0716  0.7507
  145OSM   H18G16058   2.683  -0.325   4.553  0.0972  1.3076 -0.7193
  145OSM   H18H16059   2.795  -0.462   4.537 -1.2054  0.3205  0.7744
  146OSM      N16060   0.262   2.287   6.657  0.8588 -1.2705 -0.1383
  146OSM    C1516061   0.199   2.235   6.534  0.3802  0.4190  0.3692
  146OSM   H15A16062   0.129   2.159   6.566  1.5641  0.0437  2.2065
  146OSM   H15B16063   0.269   2.205   6.458 -2.1645  0.1233 -2.0031
  146OSM   H15C16064   0.140   2.312   6.486  1.1259  2.6335  2.7371
  146OSM    C1416065   0.362   2.397   6.632 -0.3650 -0.6752  0.2681
  146OSM   H14A16066   0.407   2.429   6.725 -1.5267  1.5071  0.1223
  146OSM   H14B16067   0.314   2.485   6.593  0.1122  0.5798  2.3631
  146OSM   H14C16068   0.441   2.368   6.564 -1.0505 -1.2261 -0.3103
  146OSM    C1316069   0.153   2.337   6.743 -0.4252  0.7915 -0.6327
  146OSM   H13A16070   0.106   2.251   6.789 -0.7019  0.7041 -1.0692
  146OSM   H13B16071   0.080   2.397   6.690  0.3573  0.8570 -1.6714
  146OSM   H13C16072   0.185   2.386   6.833  0.3022 -0.0371 -0.4265
  146OSM    C1216073   0.332   2.174   6.729  0.1076 -0.2012  0.9162
  146OSM   H12A16074   0.384   2.213   6.815 -1.2323  4.9821 -0.2732
  146OSM   H12B16075   0.406   2.137   6.660 -1.3951  0.2856 -1.0156
  146OSM    C1116076   0.241   2.054   6.756 -0.4784 -0.2728 -0.2820
  146OSM   H11A16077   0.157   2.090   6.820  0.7469  1.2365  0.5249
  146OSM   H11B16078   0.299   1.994   6.830  1.0353  0.6773 -0.6592
  146OSM      P16079   0.257   1.853   6.596  0.1452 -0.0376  0.3254
  146OSM    O1316080   0.374   1.810   6.678  0.5101 -0.3359  0.1084
  146OSM    O1416081   0.152   1.747   6.594  0.1582 -0.5825  0.2666
  146OSM    O1116082   0.305   1.878   6.447 -0.9219 -0.1533  0.1010
  146OSM    O1216083   0.188   1.987   6.644  0.0182  0.2752 -0.2682
  146OSM    C1S16084   0.212   1.940   6.361 -0.6795  0.4720  0.6965
  146OSM    H1S16085   0.250   2.042   6.339  0.9679 -0.3022 -0.2440
  146OSM    H1T16086   0.107   1.945   6.398 -1.3762  0.1848 -1.1015
  146OSM     NF16087   0.120   1.951   6.131  0.3497  0.6219 -0.1227
  146OSM    HNF16088   0.026   1.924   6.109 -0.2061  2.6512 -0.3939
  146OSM    C2S16089   0.206   1.875   6.220  0.7770 -0.2156 -0.1507
  146OSM    H2S16090   0.307   1.868   6.173  1.6734  2.0167  1.2887
  146OSM    C3S16091   0.165   1.724   6.229 -0.5994  0.1968 -0.4413
  146OSM    H3S16092   0.065   1.713   6.275 -0.7384 -0.9527 -0.9629
  146OSM     O316093   0.257   1.636   6.302 -0.8438 -0.3916 -0.4006
  146OSM    HO316094   0.317   1.687   6.356 -2.5560 -0.7020  1.9530
  146OSM    C4S16095   0.158   1.659   6.092  0.2075  0.5048 -0.0334
  146OSM    H4S16096   0.254   1.640   6.041  0.1125 -0.3482  0.0836
  146OSM    C5S16097   0.041   1.614   6.043  0.3403 -0.0191 -0.0024
  146OSM    H5S16098  -0.050   1.621   6.105  0.4877 -0.6787  0.2997
  146OSM    C6S16099   0.016   1.563   5.903 -0.7296 -0.3790 -0.2118
  146OSM    H6S16100  -0.019   1.644   5.835  2.0950 -1.1145 -2.7091
  146OSM    H6T16101  -0.065   1.488   5.915 -0.8871  0.1186  2.5158
  146OSM    C7S16102   0.147   1.514   5.834  0.8526  0.0751  0.4237
  146OSM    H7S16103   0.182   1.426   5.892 -0.2817 -1.1833 -0.7334
  146OSM    H7T16104   0.221   1.596   5.833  0.7725  0.2227  2.7859
  146OSM    C8S16105   0.132   1.471   5.686 -0.1708  0.0996 -0.1693
  146OSM    H8S16106   0.114   1.556   5.616  1.5403 -0.3923 -1.2699
  146OSM    H8T16107   0.046   1.402   5.675  0.9861 -1.4449  0.1921
  146OSM    C9S16108   0.255   1.397   5.629  0.3837  0.0656 -0.4908
  146OSM    H9S16109   0.257   1.301   5.685 -0.7400  0.0749 -0.4095
  146OSM    H9T16110   0.344   1.462   5.644  0.3779  0.6113 -2.5076
  146OSM   C10S16111   0.242   1.362   5.480  0.4570 -0.1386  0.6725
  146OSM   H10S16112   0.144   1.315   5.459  0.4768  0.5315 -1.0972
  146OSM   H10T16113   0.320   1.284   5.470 -0.6712 -1.7867  3.4201
  146OSM   C11S16114   0.280   1.474   5.384  0.1701 -0.4685  0.3757
  146OSM   H11S16115   0.362   1.535   5.427  0.7926 -0.2190 -1.1007
  146OSM   H11T16116   0.196   1.542   5.360 -1.1403 -1.4941  1.8569
  146OSM   C12S16117   0.332   1.425   5.251  0.5766 -0.0917 -0.1148
  146OSM   H12S16118   0.253   1.356   5.215  0.9203 -1.0650  0.9192
  146OSM   H12T16119   0.423   1.364   5.271 -0.1180 -1.5362 -1.1930
  146OSM   C13S16120   0.359   1.541   5.150 -0.1638  0.5687  0.2729
  146OSM   H13S16121   0.448   1.601   5.179 -0.4227 -0.0485  2.5291
  146OSM   H13T16122   0.271   1.609   5.149 -0.2981  0.4019  0.4338
  146OSM   C14S16123   0.376   1.468   5.008  0.3459  0.1797  0.2940
  146OSM   H14S16124   0.281   1.419   4.979 -0.8549  2.6506 -0.2261
  146OSM   H14T16125   0.454   1.389   5.011  1.3722  1.1581  0.0265
  146OSM   C15S16126   0.414   1.576   4.907  0.1192  0.1502 -0.3901
  146OSM   H15S16127   0.503   1.634   4.937  0.3986 -0.0579 -0.8050
  146OSM   H15T16128   0.327   1.645   4.909  1.1723  1.6089  3.2271
  146OSM   C16S16129   0.439   1.520   4.774 -0.3968  0.3631  0.4796
  146OSM   H16S16130   0.371   1.446   4.729 -0.0977  0.9868 -1.0580
  146OSM   H16T16131   0.532   1.459   4.773 -1.3428 -1.1320 -1.1564
  146OSM   C17S16132   0.448   1.632   4.671  0.6252  0.6460 -0.8736
  146OSM   H17S16133   0.535   1.695   4.699  1.5049 -1.0229  0.3375
  146OSM   H17T16134   0.352   1.687   4.684  0.4324 -0.2306  2.0685
  146OSM   C18S16135   0.470   1.590   4.527  0.0586 -0.0254 -0.1637
  146OSM   H18S16136   0.446   1.670   4.453  0.1578  0.4713  0.3260
  146OSM   H18T16137   0.400   1.509   4.499 -0.2742  0.5425 -1.0406
  146OSM   H18U16138   0.574   1.552   4.521  0.6209  1.6260 -3.7646
  146OSM    C1F16139   0.156   2.069   6.087 -0.3558 -0.6078 -0.6446
  146OSM     OF16140   0.269   2.115   6.112  0.1205  0.1656 -0.2371
  146OSM    C2F16141   0.054   2.151   6.015 -0.2935  0.0455  0.0277
  146OSM    H2F16142  -0.019   2.191   6.089  1.1750 -0.0109  1.5564
  146OSM    H2G16143   0.014   2.075   5.944  2.6573 -0.2104 -1.5225
  146OSM    C3F16144   0.113   2.269   5.934 -0.4433  0.0153 -0.1828
  146OSM    H3F16145   0.180   2.327   6.001 -0.2287  1.2123 -1.3846
  146OSM    H3G16146   0.036   2.342   5.901  1.1322  1.6355 -0.4048
  146OSM    C4F16147   0.200   2.229   5.815 -0.4774  0.7816  0.4481
  146OSM    H4F16148   0.159   2.134   5.776  1.8342 -0.3709  0.6354
  146OSM    H4G16149   0.303   2.213   5.854 -0.1520 -0.4461 -0.8427
  146OSM    C5F16150   0.210   2.341   5.712 -0.4372 -0.1447  0.0064
  146OSM    H5F16151   0.313   2.345   5.671 -0.4601  1.3528  0.0328
  146OSM    H5G16152   0.205   2.439   5.765 -0.4453 -0.4408  0.5653
  146OSM    C6F16153   0.113   2.335   5.594  0.1379  0.3394  0.0262
  146OSM    H6F16154   0.006   2.336   5.623  0.2677  1.1845  0.5134
  146OSM    H6G16155   0.140   2.244   5.537  1.4221 -0.5793  1.9862
  146OSM    C7F16156   0.137   2.449   5.489 -0.0691  0.2654  0.0898
  146OSM    H7F16157   0.237   2.440   5.440 -0.8568 -1.6514 -1.2810
  146OSM    H7G16158   0.118   2.547   5.538 -0.9025  0.5798 -0.8432
  146OSM    C8F16159   0.033   2.452   5.373  0.3151  0.4404  0.3322
  146OSM    H8F16160  -0.072   2.465   5.406 -0.1104  0.4543 -1.0055
  146OSM    H8G16161   0.042   2.342   5.360  1.8892  0.2372  2.4604
  146OSM    C9F16162   0.069   2.537   5.254  0.1156  0.6096 -0.3813
  146OSM    H9F16163   0.066   2.644   5.275 -0.1962  0.7166 -0.9431
  146OSM   C10F16164   0.117   2.493   5.139  0.0295 -0.3405  0.2005
  146OSM   H10F16165   0.132   2.568   5.060  1.1264  0.2327  0.9276
  146OSM   C11F16166   0.138   2.347   5.103  0.0305  0.0391  0.0059
  146OSM   H11F16167   0.166   2.333   4.997 -0.2950 -0.3825 -0.0218
  146OSM   H11G16168   0.056   2.275   5.119  0.0754  0.3310  1.7632
  146OSM   C12F16169   0.264   2.289   5.168 -0.2919 -0.4283  0.9098
  146OSM   H12F16170   0.261   2.179   5.156  2.2551 -0.4580 -0.0655
  146OSM   H12G16171   0.263   2.309   5.277  1.4030 -1.6870  1.1814
  146OSM   C13F16172   0.387   2.349   5.107  0.1059 -0.0995  0.5008
  146OSM   H13F16173   0.385   2.459   5.118  0.0828  0.1053 -1.2879
  146OSM   H13G16174   0.388   2.323   4.999 -0.0803  0.8779  0.2536
  146OSM   C14F16175   0.521   2.294   5.168 -0.6084  0.0387  0.2022
  146OSM   H14F16176   0.530   2.186   5.141  1.3248 -0.4502  2.4824
  146OSM   H14G16177   0.597   2.351   5.111 -2.5404  2.0401 -0.5023
  146OSM   C15F16178   0.538   2.309   5.321  0.4541 -0.0080 -0.0176
  146OSM   H15F16179   0.446   2.279   5.376 -0.2889 -1.3636 -1.8896
  146OSM   H15G16180   0.548   2.418   5.342 -0.3939 -0.2239  1.6318
  146OSM   C16F16181   0.663   2.240   5.379  0.3108  0.2908 -0.4113
  146OSM   H16F16182   0.753   2.292   5.340 -1.1966  1.9732 -1.8303
  146OSM   H16G16183   0.657   2.133   5.350 -0.6859  0.4613 -0.9054
  146OSM   C17F16184   0.664   2.242   5.534  0.0784  0.3895  0.5911
  146OSM   H17F16185   0.762   2.207   5.573  0.3799  1.1253  0.5013
  146OSM   H17G16186   0.590   2.167   5.569  0.4106  1.2215  3.2289
  146OSM   C18F16187   0.640   2.379   5.593 -0.5148 -0.2192 -0.1522
  146OSM   H18F16188   0.532   2.407   5.599 -0.7922 -1.4789  1.9302
  146OSM   H18G16189   0.684   2.460   5.531  1.0064  0.2918  1.5095
  146OSM   H18H16190   0.687   2.382   5.693 -0.2947  1.0050 -0.2865
  147OSM      N16191   0.821   0.318   1.810 -0.0773 -0.4628 -0.0165
  147OSM    C1516192   0.898   0.261   1.692  0.0364 -0.8285  0.6911
  147OSM   H15A16193   0.831   0.233   1.612  1.4570 -1.0697 -0.4590
  147OSM   H15B16194   0.964   0.177   1.710  2.0361  0.0947 -1.6656
  147OSM   H15C16195   0.973   0.331   1.657 -0.2213  0.0743  1.8673
  147OSM    C1416196   0.769   0.455   1.772 -0.4322 -0.0246  0.7301
  147OSM   H14A16197   0.734   0.507   1.860  1.9024  1.7210  0.7406
  147OSM   H14B16198   0.704   0.452   1.686  3.1877 -0.8588 -2.2909
  147OSM   H14C16199   0.854   0.514   1.739 -0.0161 -0.0175  1.7689
  147OSM    C1316200   0.701   0.236   1.844  0.9859 -0.0298 -0.4695
  147OSM   H13A16201   0.634   0.295   1.905 -1.1441  0.0135 -2.6823
  147OSM   H13B16202   0.725   0.138   1.883 -0.3092 -0.3571 -0.4434
  147OSM   H13C16203   0.637   0.220   1.758  0.4848 -1.3193  0.1086
  147OSM    C1216204   0.915   0.322   1.929  0.8645  0.4464  0.7742
  147OSM   H12A16205   1.012   0.364   1.909  0.4873  0.7050 -0.6035
  147OSM   H12B16206   0.938   0.219   1.954  2.8987  0.6202 -0.1798
  147OSM    C1116207   0.852   0.369   2.064 -0.0006 -0.2544  0.0573
  147OSM   H11A16208   0.917   0.341   2.150  2.3170 -0.3999 -1.6342
  147OSM   H11B16209   0.760   0.309   2.077 -0.7654  0.3947 -2.0163
  147OSM      P16210   0.931   0.618   2.089  0.2520  0.2221 -0.1857
  147OSM    O1316211   1.045   0.580   2.001 -0.0883 -0.0214  0.4382
  147OSM    O1416212   0.861   0.746   2.058  0.0496 -0.2269  0.4208
  147OSM    O1116213   0.953   0.607   2.246  0.3503 -0.8077 -0.0981
  147OSM    O1216214   0.827   0.507   2.068  0.2357  0.2720  0.5088
  147OSM    C1S16215   0.840   0.624   2.329  0.3806  0.2439  0.0792
  147OSM    H1S16216   0.794   0.531   2.368  0.2951  0.3797  0.3072
  147OSM    H1T16217   0.758   0.687   2.289  1.0851  1.0697 -0.0876
  147OSM     NF16218   0.768   0.782   2.505 -0.1192 -0.6038  0.1932
  147OSM    HNF16219   0.743   0.874   2.477  0.8746 -0.0897  0.9508
  147OSM    C2S16220   0.883   0.706   2.453 -0.4401  0.2423 -1.1054
  147OSM    H2S16221   0.902   0.629   2.530  1.8322  3.6839  2.1637
  147OSM    C3S16222   1.021   0.783   2.439 -0.8554  0.0111 -0.1892
  147OSM    H3S16223   1.017   0.835   2.341 -3.0786  0.9459  0.3529
  147OSM     O316224   1.134   0.703   2.399  0.6940  0.6771  0.5694
  147OSM    HO316225   1.096   0.625   2.358  0.1678 -0.3996  2.9693
  147OSM    C4S16226   1.049   0.868   2.556 -0.0825  0.4093 -0.5708
  147OSM    H4S16227   1.001   0.966   2.548 -2.9176 -0.9738 -2.3652
  147OSM    C5S16228   1.130   0.834   2.659  0.4253  0.3232 -0.1363
  147OSM    H5S16229   1.182   0.737   2.650 -1.3355 -0.6341 -0.3016
  147OSM    C6S16230   1.179   0.898   2.785  0.4045  0.4739 -0.7755
  147OSM    H6S16231   1.288   0.921   2.783  0.7886 -0.1595  3.3284
  147OSM    H6T16232   1.171   0.826   2.869 -1.5363  1.4065 -0.1031
  147OSM    C7S16233   1.108   1.027   2.837 -0.0256  0.3685 -0.6311
  147OSM    H7S16234   1.010   0.986   2.871 -0.0938  0.1293 -1.1090
  147OSM    H7T16235   1.087   1.097   2.753  1.0073  2.0299  0.4326
  147OSM    C8S16236   1.169   1.089   2.956 -0.3850  0.1279 -0.1352
  147OSM    H8S16237   1.105   1.172   2.993 -0.4158 -0.5078  1.3259
  147OSM    H8T16238   1.262   1.133   2.914 -2.0425  0.0009 -4.3370
  147OSM    C9S16239   1.201   0.995   3.066  0.1622 -0.1304 -0.4471
  147OSM    H9S16240   1.303   0.950   3.060 -0.8881 -2.4749 -2.6498
  147OSM    H9T16241   1.134   0.908   3.049  2.1158 -1.9969  0.7693
  147OSM   C10S16242   1.179   1.065   3.206 -0.4638 -0.3072 -0.5995
  147OSM   H10S16243   1.071   1.091   3.210 -0.5619 -0.8973  1.9714
  147OSM   H10T16244   1.234   1.161   3.214  0.9676 -1.1699  0.3053
  147OSM   C11S16245   1.228   0.982   3.327  0.4590 -0.6569  0.4409
  147OSM   H11S16246   1.339   0.981   3.328  0.5196 -0.0053 -1.4992
  147OSM   H11T16247   1.196   0.876   3.322  1.4085 -1.0079  1.3452
  147OSM   C12S16248   1.171   1.028   3.459 -0.0295 -0.0967 -0.0026
  147OSM   H12S16249   1.062   1.014   3.471 -0.1713  1.4395  0.8862
  147OSM   H12T16250   1.190   1.138   3.469  0.1988 -0.1635  0.3101
  147OSM   C13S16251   1.230   0.948   3.582  0.2579 -0.0972 -0.3203
  147OSM   H13S16252   1.340   0.957   3.585  0.2872 -0.6985  0.6902
  147OSM   H13T16253   1.206   0.842   3.559  0.7959 -0.8039  2.1186
  147OSM   C14S16254   1.164   0.981   3.721  0.4106  0.1635 -0.6718
  147OSM   H14S16255   1.053   0.972   3.720  0.3510 -0.5765  2.4192
  147OSM   H14T16256   1.187   1.087   3.744 -0.4660  0.0646  0.8352
  147OSM   C15S16257   1.216   0.901   3.844 -0.2638 -0.4268  0.6880
  147OSM   H15S16258   1.191   0.956   3.937  0.6249  1.3433 -0.0680
  147OSM   H15T16259   1.326   0.887   3.837 -0.3086 -0.4745 -0.0407
  147OSM   C16S16260   1.156   0.762   3.852 -0.4665  0.0299 -0.2475
  147OSM   H16S16261   1.170   0.721   3.749  0.3077  2.9281 -1.4008
  147OSM   H16T16262   1.049   0.782   3.876 -0.5034  2.1389 -1.7874
  147OSM   C17S16263   1.229   0.654   3.944  0.9074  0.1235 -0.1303
  147OSM   H17S16264   1.234   0.684   4.051  0.6029 -3.1126  0.8857
  147OSM   H17T16265   1.337   0.654   3.917  0.7585  4.1790 -1.3804
  147OSM   C18S16266   1.161   0.512   3.943  0.1657 -0.5846 -0.2004
  147OSM   H18S16267   1.051   0.513   3.960 -0.2133  1.5373 -2.1713
  147OSM   H18T16268   1.223   0.456   4.015  2.0403 -1.4515 -2.3680
  147OSM   H18U16269   1.175   0.472   3.840 -1.4629 -0.1821 -0.6217
  147OSM    C1F16270   0.667   0.712   2.562  0.0085 -0.1735 -0.3241
  147OSM     OF16271   0.664   0.590   2.565  0.0724  0.3310 -0.1136
  147OSM    C2F16272   0.559   0.795   2.627 -0.7410  0.2646 -0.2447
  147OSM    H2F16273   0.464   0.736   2.628 -0.4855 -0.1531  0.7196
  147OSM    H2G16274   0.550   0.895   2.581  1.7833 -0.3658 -2.3128
  147OSM    C3F16275   0.593   0.797   2.776 -0.0400 -0.3218  0.3386
  147OSM    H3F16276   0.675   0.870   2.793  1.4664 -1.5472 -1.2358
  147OSM    H3G16277   0.627   0.701   2.821 -0.3752 -0.2047  0.8477
  147OSM    C4F16278   0.472   0.849   2.859 -0.0280  0.1741  0.0847
  147OSM    H4F16279   0.487   0.850   2.969 -1.6044  4.6754  0.4760
  147OSM    H4G16280   0.376   0.797   2.836  1.0325 -1.2156 -1.3324
  147OSM    C5F16281   0.453   1.007   2.840  0.6732  0.3169  0.0412
  147OSM    H5F16282   0.442   1.033   2.733  1.3659  0.8476  0.0925
  147OSM    H5G16283   0.540   1.068   2.872  2.0308 -0.8226 -1.3199
  147OSM    C6F16284   0.326   1.060   2.911 -0.3352  0.0030 -0.0963
  147OSM    H6F16285   0.246   0.990   2.880 -0.0750 -1.0102  1.4335
  147OSM    H6G16286   0.297   1.159   2.869  2.8820  1.7253  1.3613
  147OSM    C7F16287   0.349   1.081   3.053 -0.0297 -0.1511 -0.0250
  147OSM    H7F16288   0.429   1.153   3.077  1.7663 -1.5804 -1.4690
  147OSM    H7G16289   0.392   0.988   3.095  0.2852 -0.3870 -0.8457
  147OSM    C8F16290   0.213   1.110   3.128 -0.3101  0.7373  0.7279
  147OSM    H8F16291   0.154   1.017   3.111  0.9445 -0.1048  0.8439
  147OSM    H8G16292   0.160   1.195   3.080  1.2700  0.2724 -2.0090
  147OSM    C9F16293   0.214   1.136   3.280 -0.0614 -0.0073 -0.5718
  147OSM    H9F16294   0.207   1.241   3.312  0.2733 -0.1383 -0.0374
  147OSM   C10F16295   0.221   1.033   3.372  0.7571  0.2100  0.1973
  147OSM   H10F16296   0.239   1.062   3.476  1.2357  0.5557  0.0220
  147OSM   C11F16297   0.239   0.886   3.355  0.4230 -0.5648  0.6740
  147OSM   H11F16298   0.262   0.868   3.247 -1.9861 -1.0257  0.1710
  147OSM   H11G16299   0.136   0.845   3.366 -1.0799  2.5543 -0.6009
  147OSM   C12F16300   0.335   0.796   3.442  0.6523  0.1177  0.4210
  147OSM   H12F16301   0.439   0.837   3.443  2.7197 -4.4596 -1.1587
  147OSM   H12G16302   0.341   0.695   3.398 -0.4874 -1.0756  2.8189
  147OSM   C13F16303   0.284   0.781   3.594 -0.4441  0.2615  0.1879
  147OSM   H13F16304   0.189   0.725   3.589  0.0726 -0.6669  0.5518
  147OSM   H13G16305   0.276   0.888   3.623  1.7218  0.6380 -0.3950
  147OSM   C14F16306   0.384   0.698   3.670 -0.2143  0.0451  0.3517
  147OSM   H14F16307   0.483   0.748   3.659 -1.3209  2.8310  1.8860
  147OSM   H14G16308   0.380   0.596   3.627 -1.9675 -0.3959  1.4740
  147OSM   C15F16309   0.339   0.692   3.819  0.6004 -0.2156 -0.3698
  147OSM   H15F16310   0.386   0.613   3.880  0.5489  0.9441  1.2382
  147OSM   H15G16311   0.229   0.674   3.823  0.2747  1.6054 -0.2463
  147OSM   C16F16312   0.365   0.824   3.890 -0.0425  1.5714 -0.4682
  147OSM   H16F16313   0.287   0.898   3.862 -1.3876  1.3930  2.4522
  147OSM   H16G16314   0.464   0.859   3.852 -0.1803  0.8302 -1.5905
  147OSM   C17F16315   0.345   0.815   4.042  0.1698 -0.5982 -0.2121
  147OSM   H17F16316   0.423   0.760   4.098 -0.6061 -2.0243 -0.5057
  147OSM   H17G16317   0.245   0.768   4.051 -0.0125 -0.0788  0.6451
  147OSM   C18F16318   0.341   0.957   4.103 -0.3018  0.2843  0.1496
  147OSM   H18F16319   0.423   1.022   4.065 -0.1748 -1.6810 -3.3369
  147OSM   H18G16320   0.344   0.955   4.214 -1.7198 -0.5732  0.2017
  147OSM   H18H16321   0.245   1.005   4.074  0.3296  0.7458 -1.3111
  148OSM      N16322   1.015   4.502   2.124 -0.1994  0.5191 -0.2675
  148OSM    C1516323   0.874   4.457   2.087  0.4829 -0.1776  0.3619
  148OSM   H15A16324   0.835   4.519   2.008  1.1673  2.4308  1.9302
  148OSM   H15B16325   0.799   4.465   2.164 -0.1868  1.7008 -0.4349
  148OSM   H15C16326   0.887   4.359   2.043  2.9495  1.2089 -2.3419
  148OSM    C1416327   1.059   4.418   2.238  0.4140 -0.4899 -0.2892
  148OSM   H14A16328   1.068   4.313   2.215  0.2516 -0.8884  1.3623
  148OSM   H14B16329   0.989   4.421   2.320  0.2689 -0.9566 -0.3930
  148OSM   H14C16330   1.155   4.450   2.276  0.1763 -1.7655  1.4830
  148OSM    C1316331   1.107   4.481   2.002  0.6360  0.1574 -0.1407
  148OSM   H13A16332   1.207   4.496   2.040  1.8072  0.3887 -3.1020
  148OSM   H13B16333   1.085   4.556   1.928 -1.5935 -0.1651  0.1308
  148OSM   H13C16334   1.113   4.382   1.959 -0.6177 -0.3397  0.7442
  148OSM    C1216335   1.015   4.647   2.164  0.3307 -0.2900 -0.2190
  148OSM   H12A16336   0.983   4.714   2.085  0.2291  0.1950  0.2314
  148OSM   H12B16337   1.118   4.674   2.185  1.0336 -0.1143 -3.3890
  148OSM    C1116338   0.933   4.692   2.289  0.4043  0.3042  0.6175
  148OSM   H11A16339   0.949   4.801   2.304 -1.7506  0.7546 -0.0932
  148OSM   H11B16340   0.977   4.637   2.375  2.6848  1.3382  0.1899
  148OSM      P16341   0.699   4.620   2.381 -0.1148 -0.1042 -0.0685
  148OSM    O1316342   0.568   4.671   2.340 -0.1297 -0.1676  0.3040
  148OSM    O1416343   0.717   4.475   2.411  0.2566  0.5064 -0.4750
  148OSM    O1116344   0.751   4.699   2.505 -0.3689 -0.3619  0.3756
  148OSM    O1216345   0.800   4.665   2.267  0.3919 -0.2021 -0.5818
  148OSM    C1S16346   0.739   4.840   2.537 -0.4649  0.4481  0.0728
  148OSM    H1S16347   0.633   4.867   2.519 -0.9034 -2.2312 -1.9699
  148OSM    H1T16348   0.803   4.907   2.476  2.4603 -0.4714  1.8881
  148OSM     NF16349   0.747   5.008   2.716  0.0509  0.3880  0.0083
  148OSM    HNF16350   0.821   5.074   2.705  0.6903 -0.5457 -1.4219
  148OSM    C2S16351   0.778   4.867   2.684  0.0576 -0.2548 -0.0240
  148OSM    H2S16352   0.709   4.801   2.741 -3.6137  2.2875 -1.1916
  148OSM    C3S16353   0.928   4.824   2.723  0.6096  0.2189  0.3225
  148OSM    H3S16354   1.006   4.870   2.659  0.0236 -1.4598 -1.7251
  148OSM     O316355   0.957   4.681   2.701 -0.1360 -0.0144  0.5117
  148OSM    HO316356   0.892   4.662   2.633 -0.6515  0.2477  0.9207
  148OSM    C4S16357   0.972   4.863   2.866  0.8879  0.5885 -0.1297
  148OSM    H4S16358   0.930   4.802   2.947 -1.3482  0.0402 -1.5957
  148OSM    C5S16359   1.064   4.958   2.894  0.3763  0.7784  0.3916
  148OSM    H5S16360   1.090   5.028   2.813  2.1728 -0.4845 -0.1645
  148OSM    C6S16361   1.104   5.002   3.030 -0.0874  0.1371 -0.6343
  148OSM    H6S16362   1.110   5.111   3.049 -2.6507  0.0224  1.2480
  148OSM    H6T16363   1.210   4.969   3.036 -0.2552 -0.4224 -0.6820
  148OSM    C7S16364   1.028   4.940   3.149  0.4181 -0.7090  0.1459
  148OSM    H7S16365   1.026   4.830   3.132  1.1034 -1.2608  3.1436
  148OSM    H7T16366   0.927   4.985   3.152  0.3035 -0.8168  4.6182
  148OSM    C8S16367   1.096   4.967   3.282  0.1071 -0.1836 -0.4255
  148OSM    H8S16368   1.086   5.075   3.310  0.8897 -0.4198  0.8734
  148OSM    H8T16369   1.202   4.934   3.282 -0.0886 -0.8303 -0.9012
  148OSM    C9S16370   1.016   4.908   3.400  0.0398  0.0653 -0.1533
  148OSM    H9S16371   1.021   4.800   3.374 -0.2213 -0.3232  1.3195
  148OSM    H9T16372   0.910   4.941   3.395 -0.6871 -2.1568 -0.3702
  148OSM   C10S16373   1.072   4.968   3.533 -0.5309 -0.1150  0.5056
  148OSM   H10S16374   1.073   5.077   3.509 -0.1735 -0.8449 -3.5122
  148OSM   H10T16375   1.173   4.925   3.548 -2.0305 -3.2234  2.5397
  148OSM   C11S16376   0.994   4.931   3.660 -0.1230  0.8417 -0.6774
  148OSM   H11S16377   1.015   4.824   3.680 -0.5267  1.3564  3.2542
  148OSM   H11T16378   0.888   4.943   3.628 -0.6995  1.9330  1.4277
  148OSM   C12S16379   1.016   5.015   3.782 -0.1436 -0.1293  0.0610
  148OSM   H12S16380   0.974   5.116   3.768  0.0513  0.2547  1.8880
  148OSM   H12T16381   1.125   5.031   3.801 -0.4100  1.8713  0.1197
  148OSM   C13S16382   0.966   4.963   3.917  0.1197  0.4116 -0.5306
  148OSM   H13S16383   1.035   4.882   3.950  1.6015  2.1320  0.9054
  148OSM   H13T16384   0.862   4.928   3.903  0.3026  0.3134 -1.8180
  148OSM   C14S16385   0.959   5.062   4.037 -0.2417 -0.7256  1.1958
  148OSM   H14S16386   0.885   5.143   4.019  2.4491  1.5644 -0.3895
  148OSM   H14T16387   1.053   5.115   4.063 -0.4358 -0.5366  1.5248
  148OSM   C15S16388   0.907   4.988   4.164 -0.2996 -0.6241 -0.7719
  148OSM   H15S16389   0.968   4.895   4.167  0.3319 -0.1771  1.6305
  148OSM   H15T16390   0.802   4.951   4.160 -1.8000  2.6653  2.4181
  148OSM   C16S16391   0.938   5.067   4.289 -0.5510  0.4225  0.3200
  148OSM   H16S16392   0.889   5.167   4.293  2.5021  2.0261  0.8085
  148OSM   H16T16393   1.045   5.092   4.277 -0.5935  0.1158 -0.7837
  148OSM   C17S16394   0.924   4.976   4.406 -0.5205 -0.5984  0.0122
  148OSM   H17S16395   0.984   4.883   4.402  1.1523  0.4086  0.8418
  148OSM   H17T16396   0.824   4.930   4.393 -0.8007  0.0620 -0.2213
  148OSM   C18S16397   0.949   5.041   4.541 -0.0457  0.1722  0.1852
  148OSM   H18S16398   1.058   5.049   4.560  0.4923 -1.4827 -1.8521
  148OSM   H18T16399   0.896   4.981   4.618 -1.8393 -1.2030 -2.0013
  148OSM   H18U16400   0.905   5.143   4.545  1.6025  0.8851  2.9132
  148OSM    C1F16401   0.621   5.061   2.716 -0.1229 -0.4205  0.0626
  148OSM     OF16402   0.529   4.987   2.692 -0.0042  0.0429  0.5566
  148OSM    C2F16403   0.600   5.204   2.746  0.2478 -0.1661 -1.0145
  148OSM    H2F16404   0.492   5.227   2.733  0.0467 -0.3687  0.1671
  148OSM    H2G16405   0.658   5.262   2.672 -1.4108  2.4726 -0.3975
  148OSM    C3F16406   0.644   5.242   2.886 -0.4783  0.4494 -0.0137
  148OSM    H3F16407   0.644   5.351   2.909  0.5094  0.2519  0.9809
  148OSM    H3G16408   0.748   5.211   2.907  0.0138  2.3791  0.5879
  148OSM    C4F16409   0.558   5.183   3.000 -0.6478 -0.2479 -0.0971
  148OSM    H4F16410   0.449   5.190   2.981 -1.2377  1.7437  3.3884
  148OSM    H4G16411   0.565   5.255   3.084  3.2512 -1.5703  0.9658
  148OSM    C5F16412   0.604   5.048   3.060  0.7461 -0.6073  0.0398
  148OSM    H5F16413   0.714   5.044   3.045  0.4454  0.3561 -3.4020
  148OSM    H5G16414   0.559   4.965   3.002  4.3803 -1.3269 -2.0906
  148OSM    C6F16415   0.582   5.031   3.211  0.1992  0.2945 -0.1036
  148OSM    H6F16416   0.620   5.107   3.282  0.1735  0.3589 -0.1585
  148OSM    H6G16417   0.635   4.937   3.237 -2.0497 -1.1902 -0.5991
  148OSM    C7F16418   0.431   5.005   3.254 -0.3198  0.2041 -0.0609
  148OSM    H7F16419   0.407   4.910   3.202  0.8931 -1.3922  2.1204
  148OSM    H7G16420   0.364   5.084   3.214  2.4412  1.9175 -1.6884
  148OSM    C8F16421   0.407   4.972   3.401  1.3402  0.3034  0.2805
  148OSM    H8F16422   0.491   4.905   3.431 -1.0291 -2.3395  1.3747
  148OSM    H8G16423   0.318   4.907   3.411  2.9071 -1.8349  1.2079
  148OSM    C9F16424   0.379   5.095   3.487 -0.5787 -0.3699 -1.4778
  148OSM    H9F16425   0.281   5.144   3.489 -0.5072 -0.2325  0.1646
  148OSM   C10F16426   0.457   5.138   3.591  0.0892  0.0656 -0.1370
  148OSM   H10F16427   0.427   5.222   3.655 -0.0267  1.1643 -1.5707
  148OSM   C11F16428   0.593   5.076   3.630 -0.0499  0.1022 -0.4661
  148OSM   H11F16429   0.663   5.151   3.672  1.0657 -0.9134 -0.4622
  148OSM   H11G16430   0.645   5.006   3.561  0.1413 -1.4946  1.2272
  148OSM   C12F16431   0.565   4.990   3.756 -0.3183 -0.4435 -0.5763
  148OSM   H12F16432   0.642   4.910   3.755 -1.9238 -2.1259  1.5763
  148OSM   H12G16433   0.474   4.929   3.745  0.1261 -1.1930 -0.1688
  148OSM   C13F16434   0.578   5.077   3.884 -0.0254  0.2306  0.7142
  148OSM   H13F16435   0.516   5.169   3.870  1.9081  1.4305 -0.5381
  148OSM   H13G16436   0.683   5.115   3.889  0.2885  0.7282 -4.2704
  148OSM   C14F16437   0.542   5.009   4.015 -0.5636 -0.0201  0.2493
  148OSM   H14F16438   0.626   4.938   4.025  0.9350  1.1656 -2.7659
  148OSM   H14G16439   0.442   4.960   4.011 -0.8848  0.4041  2.1389
  148OSM   C15F16440   0.535   5.114   4.127 -0.2782 -0.9289  0.0482
  148OSM   H15F16441   0.455   5.186   4.099  1.4632  1.0536 -0.0304
  148OSM   H15G16442   0.633   5.164   4.114  1.2789 -3.7186  0.0834
  148OSM   C16F16443   0.515   5.057   4.269  0.4451 -0.2741 -0.7046
  148OSM   H16F16444   0.597   4.984   4.285  2.0266  1.2531 -1.5221
  148OSM   H16G16445   0.419   5.001   4.275  1.1038 -1.3514  0.1718
  148OSM   C17F16446   0.512   5.167   4.384  0.0006  1.0628  0.7634
  148OSM   H17F16447   0.429   5.240   4.375  0.8502  2.1154  1.1875
  148OSM   H17G16448   0.609   5.222   4.377  1.3053 -1.3320 -3.2838
  148OSM   C18F16449   0.511   5.093   4.520 -0.4449 -0.0286  0.6993
  148OSM   H18F16450   0.592   5.018   4.531 -1.3453 -0.9807  0.9832
  148OSM   H18G16451   0.419   5.033   4.533  0.1098 -0.8948  0.6933
  148OSM   H18H16452   0.521   5.164   4.605 -1.0031  1.8075 -0.7055
  149OSM      N16453   3.684   5.065   1.899  0.0591  0.2868 -0.3772
  149OSM    C1516454   3.711   4.931   1.835  0.0074  0.1601  0.1183
  149OSM   H15A16455   3.651   4.861   1.891 -0.5889  1.1721  0.7610
  149OSM   H15B16456   3.813   4.897   1.849 -0.5482 -1.1824  1.1086
  149OSM   H15C16457   3.687   4.932   1.730 -1.5254 -0.3715  0.4415
  149OSM    C1416458   3.804   5.152   1.866 -0.2002 -0.1185  0.2484
  149OSM   H14A16459   3.812   5.166   1.760  0.1351  0.9891  0.4042
  149OSM   H14B16460   3.895   5.110   1.907 -0.6348 -0.1989  1.1546
  149OSM   H14C16461   3.789   5.252   1.906 -0.4411  0.9882 -2.3961
  149OSM    C1316462   3.560   5.134   1.854 -0.0180 -0.1979 -0.3108
  149OSM   H13A16463   3.562   5.236   1.890  0.9511 -0.5136  0.5902
  149OSM   H13B16464   3.469   5.097   1.896 -0.1627 -0.0337 -0.4757
  149OSM   H13C16465   3.554   5.113   1.748  1.3651 -0.8352 -0.2870
  149OSM    C1216466   3.692   5.048   2.055 -0.2020  0.9650  0.3405
  149OSM   H12A16467   3.692   5.147   2.098  0.3924  0.5633  1.2758
  149OSM   H12B16468   3.788   5.006   2.080 -1.5553 -1.5522  1.6933
  149OSM    C1116469   3.581   4.960   2.118 -0.4201 -0.1505 -0.1591
  149OSM   H11A16470   3.488   5.015   2.091 -0.1846  0.2300 -0.1905
  149OSM   H11B16471   3.591   4.957   2.228 -2.3451  3.3697  0.2547
  149OSM      P16472   3.593   4.687   2.138 -0.4727 -0.5689  0.0148
  149OSM    O1316473   3.498   4.579   2.110  0.0740  0.1072 -0.2131
  149OSM    O1416474   3.740   4.658   2.135 -0.3836 -0.5568 -0.0062
  149OSM    O1116475   3.567   4.732   2.291  0.1822 -0.1641  0.6533
  149OSM    O1216476   3.571   4.827   2.061 -0.7400 -0.1236  0.3880
  149OSM    C1S16477   3.488   4.649   2.375 -0.1041  0.4237  0.6274
  149OSM    H1S16478   3.542   4.552   2.374 -0.4858  0.2081 -0.3865
  149OSM    H1T16479   3.385   4.647   2.333  0.5297  0.9221 -1.0553
  149OSM     NF16480   3.422   4.599   2.606  0.0357  0.3370  0.3528
  149OSM    HNF16481   3.327   4.618   2.629  0.8170  1.9087  2.7499
  149OSM    C2S16482   3.481   4.703   2.518 -0.3415 -0.0259 -0.2634
  149OSM    H2S16483   3.587   4.721   2.546 -0.1138  1.4160 -1.8833
  149OSM    C3S16484   3.398   4.841   2.526 -0.2356 -0.0377 -0.7112
  149OSM    H3S16485   3.298   4.806   2.494  0.6621 -0.9561 -2.7044
  149OSM     O316486   3.449   4.951   2.443 -0.2321 -0.1977  0.2366
  149OSM    HO316487   3.530   4.913   2.407  0.6561  1.2820  0.5658
  149OSM    C4S16488   3.388   4.883   2.669 -0.2106 -0.4843  0.0290
  149OSM    H4S16489   3.481   4.889   2.727 -0.4770  3.2914  0.3372
  149OSM    C5S16490   3.268   4.930   2.722 -0.3467  0.9879  0.7338
  149OSM    H5S16491   3.174   4.936   2.664  0.4727  0.6980 -0.6703
  149OSM    C6S16492   3.269   4.977   2.864  0.9286  0.0751  0.0415
  149OSM    H6S16493   3.372   5.011   2.886  1.0085 -1.5195  2.4957
  149OSM    H6T16494   3.234   4.907   2.942 -0.7019  0.5465 -0.2378
  149OSM    C7S16495   3.179   5.099   2.881  0.8578  0.0558 -0.1912
  149OSM    H7S16496   3.073   5.068   2.890  0.6722  1.1941  2.2590
  149OSM    H7T16497   3.177   5.170   2.796 -0.3385 -0.6910 -0.8191
  149OSM    C8S16498   3.201   5.184   3.009 -0.0392  0.4613  0.1202
  149OSM    H8S16499   3.260   5.271   2.973  0.3404  0.1973  0.0967
  149OSM    H8T16500   3.270   5.130   3.077  1.0542  0.3385 -1.0406
  149OSM    C9S16501   3.066   5.221   3.083  0.2549  0.3677 -0.2490
  149OSM    H9S16502   3.022   5.122   3.106  1.7024 -0.1189  0.5664
  149OSM    H9T16503   3.006   5.283   3.013  1.4578  0.2808 -1.3868
  149OSM   C10S16504   3.073   5.293   3.221  1.3941  0.8578  0.1624
  149OSM   H10S16505   2.969   5.300   3.260  1.9982 -1.7589  2.6497
  149OSM   H10T16506   3.117   5.393   3.203  0.7434  1.0359 -0.5117
  149OSM   C11S16507   3.139   5.207   3.327 -0.0957 -0.6816 -1.0160
  149OSM   H11S16508   3.240   5.183   3.288  0.8764 -0.0210  0.9672
  149OSM   H11T16509   3.082   5.113   3.339 -0.9543  0.0177  0.7194
  149OSM   C12S16510   3.145   5.272   3.471  0.2168 -0.2214  0.7489
  149OSM   H12S16511   3.040   5.295   3.500  0.8532  1.5403  1.8273
  149OSM   H12T16512   3.208   5.364   3.475 -1.9081  1.2637  3.3752
  149OSM   C13S16513   3.205   5.179   3.573  0.1048  0.3927  0.1842
  149OSM   H13S16514   3.296   5.132   3.532 -0.0860 -0.2462  0.4784
  149OSM   H13T16515   3.132   5.096   3.581  0.3381  0.0721 -0.9381
  149OSM   C14S16516   3.229   5.250   3.711  0.1881  0.9314  0.1901
  149OSM   H14S16517   3.250   5.359   3.712  0.6198  0.8516  0.9897
  149OSM   H14T16518   3.327   5.206   3.740  0.2875 -0.3670 -1.9542
  149OSM   C15S16519   3.124   5.218   3.816 -0.1476  0.1191  0.2998
  149OSM   H15S16520   3.160   5.276   3.903 -2.6211  1.1892  0.7047
  149OSM   H15T16521   3.136   5.109   3.834 -1.7046 -0.1748 -0.2635
  149OSM   C16S16522   2.974   5.242   3.788 -0.0388  0.6056  0.2035
  149OSM   H16S16523   2.946   5.187   3.696 -0.1004  3.1235 -1.3767
  149OSM   H16T16524   2.947   5.349   3.790 -1.1005  0.3964 -1.4579
  149OSM   C17S16525   2.892   5.179   3.904  0.8033  0.1610 -0.5971
  149OSM   H17S16526   2.935   5.218   3.998  1.3859 -4.1844  1.1887
  149OSM   H17T16527   2.902   5.068   3.902 -0.5077  0.0353 -1.5497
  149OSM   C18S16528   2.741   5.217   3.914 -0.4516 -0.8534  0.0378
  149OSM   H18S16529   2.692   5.182   3.820 -0.5574  0.5086 -0.4370
  149OSM   H18T16530   2.716   5.326   3.914 -1.4089 -0.9957 -2.7796
  149OSM   H18U16531   2.697   5.171   4.005  1.5249 -1.3589  0.7810
  149OSM    C1F16532   3.477   4.484   2.636 -0.6120  0.6188  0.4775
  149OSM     OF16533   3.591   4.461   2.592 -0.1507  0.2617 -0.1187
  149OSM    C2F16534   3.391   4.381   2.707  0.4369 -0.4299 -0.4453
  149OSM    H2F16535   3.300   4.350   2.653  0.9604  0.2836 -1.7917
  149OSM    H2G16536   3.348   4.440   2.791 -0.1372  0.4308 -1.3213
  149OSM    C3F16537   3.477   4.261   2.757  0.6833  0.0498  0.0528
  149OSM    H3F16538   3.549   4.304   2.830  0.7999 -0.2383  0.1084
  149OSM    H3G16539   3.535   4.213   2.674  1.5189 -0.7258  1.0564
  149OSM    C4F16540   3.393   4.161   2.834  0.0119  0.6416 -0.0956
  149OSM    H4F16541   3.294   4.138   2.789 -0.3111  1.8301 -0.0304
  149OSM    H4G16542   3.385   4.215   2.931 -0.2850  0.6139 -0.1036
  149OSM    C5F16543   3.476   4.034   2.863  0.8716 -0.2691 -0.0277
  149OSM    H5F16544   3.542   4.039   2.952  1.1155  0.0240 -0.2232
  149OSM    H5G16545   3.534   4.002   2.774  0.9246 -0.5031  0.0886
  149OSM    C6F16546   3.370   3.924   2.887  0.6793  0.2118 -0.6527
  149OSM    H6F16547   3.292   3.904   2.810  0.6265  0.9649 -0.7994
  149OSM    H6G16548   3.321   3.963   2.978  0.9129 -3.1289  1.0439
  149OSM    C7F16549   3.423   3.785   2.938  0.9949  0.1050 -0.0823
  149OSM    H7F16550   3.494   3.798   3.023  1.6133 -2.5766 -0.1216
  149OSM    H7G16551   3.485   3.750   2.853  0.1848  1.1654 -1.1477
  149OSM    C8F16552   3.308   3.684   2.975 -0.0351 -0.0751 -0.3358
  149OSM    H8F16553   3.244   3.735   3.051  0.1359 -1.8269  1.0355
  149OSM    H8G16554   3.358   3.595   3.018 -2.3021 -1.8742 -1.1672
  149OSM    C9F16555   3.223   3.633   2.864 -0.6285  0.6932 -0.8829
  149OSM    H9F16556   3.275   3.554   2.809  1.1322  0.5577  0.9047
  149OSM   C10F16557   3.090   3.642   2.848  0.6137 -0.0500  0.5088
  149OSM   H10F16558   3.042   3.594   2.762 -1.0460 -0.2568  1.4945
  149OSM   C11F16559   3.004   3.726   2.934  0.3587  0.1153 -0.0796
  149OSM   H11F16560   2.960   3.801   2.865  2.4181  1.6012  0.1408
  149OSM   H11G16561   3.064   3.785   3.005  1.3137 -0.0286 -0.7435
  149OSM   C12F16562   2.885   3.649   2.994 -0.0827 -0.2840 -0.7631
  149OSM   H12F16563   2.928   3.571   3.060  2.5712  2.3919  0.8791
  149OSM   H12G16564   2.845   3.604   2.901  2.7570  2.1277 -3.3789
  149OSM   C13F16565   2.778   3.740   3.067 -0.0527  0.0155  0.0791
  149OSM   H13F16566   2.682   3.685   3.071 -0.2195  0.2621 -0.4628
  149OSM   H13G16567   2.763   3.836   3.013  0.4411  0.1541  0.1820
  149OSM   C14F16568   2.822   3.773   3.207  0.0108 -0.2910 -0.3489
  149OSM   H14F16569   2.895   3.856   3.214 -0.6909  0.2188  1.3759
  149OSM   H14G16570   2.869   3.682   3.251  1.7076  0.4781 -0.4873
  149OSM   C15F16571   2.697   3.807   3.288  0.0843 -0.1643  0.0141
  149OSM   H15F16572   2.628   3.720   3.289  0.2868 -0.4532 -2.8150
  149OSM   H15G16573   2.639   3.876   3.223  0.9744 -2.1178 -3.0676
  149OSM   C16F16574   2.719   3.858   3.433 -0.1317 -0.3441  0.2693
  149OSM   H16F16575   2.786   3.946   3.423 -0.8536 -0.0312 -3.0882
  149OSM   H16G16576   2.780   3.776   3.475  1.3703 -0.6563 -2.3182
  149OSM   C17F16577   2.592   3.882   3.518  0.2322 -0.1147  0.2075
  149OSM   H17F16578   2.521   3.801   3.490  0.0704 -0.1289  0.6496
  149OSM   H17G16579   2.561   3.985   3.490 -1.6231 -1.0715 -1.4981
  149OSM   C18F16580   2.606   3.865   3.672 -0.0176 -0.1775 -0.1370
  149OSM   H18F16581   2.522   3.914   3.725  0.5401  0.8159 -0.1472
  149OSM   H18G16582   2.699   3.911   3.713 -1.1885  1.4386  0.8174
  149OSM   H18H16583   2.623   3.759   3.700 -1.0744 -1.1614 -2.9189
  150OSM      N16584   5.912   4.405   2.218 -0.0022  0.5232 -0.0654
  150OSM    C1516585   5.942   4.469   2.345  0.4533  0.2439 -0.3001
  150OSM   H15A16586   6.037   4.518   2.332  0.3058  0.2343 -1.6219
  150OSM   H15B16587   5.942   4.399   2.427 -2.5660  0.5514  0.0601
  150OSM   H15C16588   5.874   4.552   2.355  1.7106  0.9795  3.2663
  150OSM    C1416589   5.897   4.517   2.119 -0.5263  0.5484  0.9694
  150OSM   H14A16590   5.880   4.476   2.021  1.5999  1.2435  0.2597
  150OSM   H14B16591   5.983   4.581   2.102  0.7495 -1.8838 -3.0742
  150OSM   H14C16592   5.815   4.581   2.149  0.9409  2.8149  0.4170
  150OSM    C1316593   6.036   4.331   2.186 -0.1257 -0.2370 -0.1045
  150OSM   H13A16594   6.114   4.406   2.187 -1.8722  1.6877  0.3525
  150OSM   H13B16595   6.029   4.275   2.094 -0.0517 -0.4671  0.0300
  150OSM   H13C16596   6.053   4.258   2.263 -1.5040  0.6023  1.0505
  150OSM    C1216597   5.785   4.312   2.218  0.6437 -0.1204 -0.3656
  150OSM   H12A16598   5.764   4.270   2.120 -0.2580  0.8553 -0.6103
  150OSM   H12B16599   5.699   4.376   2.233 -0.3946 -1.4751 -0.3423
  150OSM    C1116600   5.773   4.201   2.320 -0.0196 -0.3427  0.0041
  150OSM   H11A16601   5.684   4.140   2.294  1.1142 -1.2233 -2.1442
  150OSM   H11B16602   5.752   4.252   2.416  1.7182  1.0854 -0.3130
  150OSM      P16603   5.895   3.983   2.246 -0.2689 -0.0110 -0.2998
  150OSM    O1316604   5.820   4.000   2.121 -0.1469  0.2047 -0.0712
  150OSM    O1416605   6.032   3.921   2.241  0.2791  0.0516  0.5698
  150OSM    O1116606   5.800   3.892   2.335  0.2337 -0.2833 -0.2422
  150OSM    O1216607   5.890   4.121   2.329 -0.1075 -0.2074  0.0978
  150OSM    C1S16608   5.850   3.831   2.453  0.1791  0.1485  0.1141
  150OSM    H1S16609   5.960   3.839   2.467  0.0952  1.2212  0.2534
  150OSM    H1T16610   5.820   3.724   2.456 -0.0413  0.2259  1.3067
  150OSM     NF16611   5.862   3.858   2.711  0.2863  0.3255 -0.0320
  150OSM    HNF16612   5.816   3.785   2.762  0.2787  0.1192 -0.3292
  150OSM    C2S16613   5.786   3.894   2.589 -0.5033 -0.1668 -0.7993
  150OSM    H2S16614   5.804   4.003   2.578  0.4649  0.0047  1.6816
  150OSM    C3S16615   5.627   3.884   2.587 -0.2881 -0.2268  0.7942
  150OSM    H3S16616   5.600   3.777   2.573  0.8864 -0.6058  1.3077
  150OSM     O316617   5.581   3.957   2.470  0.7879 -0.3289 -0.1721
  150OSM    HO316618   5.657   3.938   2.413  0.6236 -3.3516  0.4175
  150OSM    C4S16619   5.570   3.954   2.697  0.2415 -0.5896 -1.1240
  150OSM    H4S16620   5.580   4.063   2.690 -0.8237 -0.3105  0.8965
  150OSM    C5S16621   5.525   3.905   2.811 -0.1070 -0.2111  0.0842
  150OSM    H5S16622   5.535   3.797   2.834  1.4227 -1.0100 -3.5845
  150OSM    C6S16623   5.471   3.980   2.933 -0.0341  0.2605  0.0306
  150OSM    H6S16624   5.361   3.994   2.931 -0.2793 -1.5589 -0.5886
  150OSM    H6T16625   5.513   4.083   2.931  0.0761  0.2074 -0.3782
  150OSM    C7S16626   5.517   3.927   3.075  0.1165  0.2766  0.2131
  150OSM    H7S16627   5.625   3.944   3.098  0.2324  0.4276 -0.4366
  150OSM    H7T16628   5.492   3.819   3.074  1.5001 -0.0596 -0.5746
  150OSM    C8S16629   5.440   4.004   3.182  0.8581 -0.2147 -0.8170
  150OSM    H8S16630   5.336   3.990   3.145  0.5146  0.0886 -0.0036
  150OSM    H8T16631   5.467   4.112   3.191  0.4886 -0.2836  2.5776
  150OSM    C9S16632   5.452   3.945   3.317 -0.8946 -0.1728  0.1486
  150OSM    H9S16633   5.559   3.965   3.342  0.1536 -1.5988 -2.8032
  150OSM    H9T16634   5.440   3.835   3.322 -3.2536  0.0150 -0.3066
  150OSM   C10S16635   5.365   4.000   3.439 -0.8109  0.0709 -0.0482
  150OSM   H10S16636   5.396   3.943   3.530 -1.5650  1.6505  1.2458
  150OSM   H10T16637   5.257   3.980   3.425 -1.1868  0.8557  1.4415
  150OSM   C11S16638   5.385   4.150   3.473  0.0052  0.8425 -0.1558
  150OSM   H11S16639   5.350   4.204   3.382  0.2169  0.2895 -0.5725
  150OSM   H11T16640   5.491   4.179   3.485  0.2872 -0.9774  2.8960
  150OSM   C12S16641   5.309   4.198   3.594 -0.1582 -0.9734 -0.9795
  150OSM   H12S16642   5.200   4.186   3.573 -0.6405  0.7557  0.2954
  150OSM   H12T16643   5.306   4.309   3.591 -2.2038 -1.0031 -2.2278
  150OSM   C13S16644   5.354   4.138   3.731  0.8321  0.3516  0.0615
  150OSM   H13S16645   5.458   4.177   3.735  1.1699 -0.6190  1.2885
  150OSM   H13T16646   5.361   4.028   3.742 -2.0117  0.2573  2.0751
  150OSM   C14S16647   5.261   4.173   3.842  0.2148  0.0446 -0.0024
  150OSM   H14S16648   5.164   4.131   3.810  1.0929 -1.7795 -0.4376
  150OSM   H14T16649   5.251   4.281   3.867  0.9844  0.2859 -0.6815
  150OSM   C15S16650   5.304   4.115   3.983  0.0853 -0.0547  0.5848
  150OSM   H15S16651   5.331   4.008   3.966 -1.6264 -0.6298  1.2146
  150OSM   H15T16652   5.207   4.106   4.037  0.1285 -0.0209  0.6663
  150OSM   C16S16653   5.416   4.198   4.040 -0.4635 -0.2834 -0.1019
  150OSM   H16S16654   5.368   4.287   4.088  2.7043  1.2943  0.3778
  150OSM   H16T16655   5.495   4.246   3.978  0.3422  1.5789  2.2100
  150OSM   C17S16656   5.487   4.117   4.156 -0.0199 -0.4515 -0.2577
  150OSM   H17S16657   5.562   4.184   4.202 -1.5490  2.3165 -1.5313
  150OSM   H17T16658   5.536   4.032   4.104 -0.4047 -0.2824 -0.9138
  150OSM   C18S16659   5.393   4.078   4.269 -0.3663 -0.1923  0.1160
  150OSM   H18S16660   5.362   4.170   4.324 -1.3566 -0.1809 -0.4502
  150OSM   H18T16661   5.439   4.013   4.346  1.1174  1.6275  0.8446
  150OSM   H18U16662   5.302   4.023   4.237  0.0780 -1.1882  0.5332
  150OSM    C1F16663   5.986   3.901   2.728 -0.4394 -0.1911  0.0362
  150OSM     OF16664   6.031   3.991   2.656  0.8797 -0.1715 -0.0102
  150OSM    C2F16665   6.068   3.830   2.837 -0.6782  0.5263 -0.5400
  150OSM    H2F16666   6.136   3.904   2.884  1.4448 -1.3778 -0.4094
  150OSM    H2G16667   6.135   3.759   2.782 -1.0540  0.0831 -0.4335
  150OSM    C3F16668   5.997   3.749   2.945 -0.1266 -0.0298 -0.4909
  150OSM    H3F16669   6.065   3.668   2.982  1.3809  0.3045 -2.3499
  150OSM    H3G16670   5.910   3.688   2.912  0.4391 -1.4984  0.5891
  150OSM    C4F16671   5.950   3.842   3.055 -0.2394  0.0589  0.1533
  150OSM    H4F16672   5.870   3.909   3.016 -0.3825 -1.0373 -1.4858
  150OSM    H4G16673   6.035   3.905   3.090  0.3147 -0.2963 -0.5478
  150OSM    C5F16674   5.894   3.757   3.167 -0.4472 -0.5422  0.1039
  150OSM    H5F16675   5.977   3.689   3.196 -1.0884 -1.6942 -0.7289
  150OSM    H5G16676   5.813   3.690   3.131 -1.2504 -0.2742  1.3509
  150OSM    C6F16677   5.836   3.838   3.288 -0.0978 -0.5230  0.2536
  150OSM    H6F16678   5.752   3.901   3.253  0.2486  1.8609  3.2793
  150OSM    H6G16679   5.907   3.915   3.325 -1.7534  1.1701  0.0465
  150OSM    C7F16680   5.792   3.750   3.415 -0.1150 -0.5323  0.4006
  150OSM    H7F16681   5.868   3.671   3.433  2.4335  1.7482  0.2462
  150OSM    H7G16682   5.686   3.727   3.392 -0.4372  1.2508 -0.0639
  150OSM    C8F16683   5.784   3.843   3.536  0.5940  0.4301 -0.0214
  150OSM    H8F16684   5.709   3.924   3.522 -1.2345 -1.3242 -0.9167
  150OSM    H8G16685   5.881   3.895   3.547  0.9859  0.2562 -2.2813
  150OSM    C9F16686   5.764   3.780   3.666 -0.0017  0.4261 -0.7041
  150OSM    H9F16687   5.794   3.674   3.664 -2.9244 -0.4769 -0.4261
  150OSM   C10F16688   5.714   3.840   3.777  0.3904  0.3856  0.0882
  150OSM   H10F16689   5.717   3.784   3.872  0.4274  1.9924  1.0711
  150OSM   C11F16690   5.667   3.985   3.795 -0.3604 -0.6925 -0.0063
  150OSM   H11F16691   5.559   3.977   3.821 -0.6529  0.3446 -0.8391
  150OSM   H11G16692   5.668   4.038   3.698 -1.2754 -1.8217 -0.6644
  150OSM   C12F16693   5.748   4.074   3.892 -0.1672 -0.1903 -0.3707
  150OSM   H12F16694   5.731   4.044   3.997 -1.9408  0.0671 -0.5489
  150OSM   H12G16695   5.711   4.179   3.889  2.5658  0.9536  1.4844
  150OSM   C13F16696   5.895   4.074   3.865 -0.0814  0.5279  0.2267
  150OSM   H13F16697   5.891   4.077   3.754 -2.4405 -0.8185  0.2001
  150OSM   H13G16698   5.936   3.973   3.889 -0.2165 -0.1156 -2.0076
  150OSM   C14F16699   5.980   4.176   3.931  0.0759 -0.1224  0.1998
  150OSM   H14F16700   5.959   4.281   3.901 -2.6448 -0.7333 -0.2707
  150OSM   H14G16701   6.090   4.167   3.916  0.0603  0.6361 -0.4185
  150OSM   C15F16702   5.959   4.172   4.085 -0.1247 -0.9026  0.2933
  150OSM   H15F16703   5.986   4.066   4.108  2.5833 -0.0034  1.7337
  150OSM   H15G16704   5.854   4.192   4.112 -0.1554 -0.3945 -0.1728
  150OSM   C16F16705   6.053   4.266   4.168 -0.4147 -0.7677  0.6915
  150OSM   H16F16706   6.040   4.370   4.131 -1.0115 -0.9323  0.4148
  150OSM   H16G16707   6.158   4.235   4.147  0.4126  1.0904  1.8254
  150OSM   C17F16708   6.032   4.270   4.323  0.0303  1.0479  0.2101
  150OSM   H17F16709   5.930   4.305   4.350  1.1419  1.6840  4.0411
  150OSM   H17G16710   6.107   4.342   4.363 -0.6293  2.1844 -0.5256
  150OSM   C18F16711   6.049   4.130   4.383  0.6986 -0.5641 -0.3340
  150OSM   H18F16712   6.148   4.086   4.357  1.0329 -1.1062  1.6683
  150OSM   H18G16713   5.965   4.063   4.355 -0.2778  0.1555  0.7553
  150OSM   H18H16714   6.039   4.125   4.494 -3.8408 -2.3764 -0.5974
  151OSM      N16715   5.320   3.678   2.014 -0.2972  0.3325 -0.6692
  151OSM    C1516716   5.208   3.628   1.938 -0.1101 -0.1201 -0.4091
  151OSM   H15A16717   5.199   3.521   1.943 -1.4913  0.0257  1.0248
  151OSM   H15B16718   5.212   3.643   1.831 -1.2645  0.4581 -0.3914
  151OSM   H15C16719   5.112   3.671   1.966  1.4473  2.9498  0.6589
  151OSM    C1416720   5.428   3.581   2.008 -0.6180  1.2778  0.2131
  151OSM   H14A16721   5.523   3.630   2.025  0.1875 -0.5626  1.3487
  151OSM   H14B16722   5.434   3.527   1.914  0.0416  0.9474  0.4345
  151OSM   H14C16723   5.420   3.517   2.094 -0.6770  1.3633  0.2709
  151OSM    C1316724   5.355   3.806   1.940 -0.3169  1.2622 -0.4148
  151OSM   H13A16725   5.392   3.778   1.843  1.8134  1.2526  0.3563
  151OSM   H13B16726   5.444   3.847   1.985  1.0492  0.9617 -2.6887
  151OSM   H13C16727   5.267   3.869   1.938 -2.0438 -0.9770  0.2416
  151OSM    C1216728   5.294   3.710   2.163 -0.2903 -0.3319 -0.4973
  151OSM   H12A16729   5.222   3.788   2.180 -0.4362 -0.6694  0.4621
  151OSM   H12B16730   5.381   3.751   2.211 -0.2004 -0.7847 -0.2627
  151OSM    C1116731   5.236   3.587   2.254 -0.0265 -0.6477 -0.1269
  151OSM   H11A16732   5.137   3.559   2.212 -1.1422  2.8580 -0.2150
  151OSM   H11B16733   5.204   3.620   2.355  0.6100 -0.3501 -0.0178
  151OSM      P16734   5.465   3.490   2.347 -0.2844 -0.2225  0.4066
  151OSM    O1316735   5.528   3.360   2.317  0.5606  0.1131  0.2477
  151OSM    O1416736   5.549   3.606   2.313  0.3807 -0.1472 -0.5760
  151OSM    O1116737   5.423   3.499   2.500 -0.2273 -0.0874  0.5811
  151OSM    O1216738   5.334   3.483   2.266  0.0462 -0.5072 -0.0273
  151OSM    C1S16739   5.312   3.432   2.564  0.7563  0.3794  0.3577
  151OSM    H1S16740   5.319   3.322   2.570  1.6122  0.2699 -1.9084
  151OSM    H1T16741   5.221   3.453   2.504  1.2164 -0.1950 -0.5517
  151OSM     NF16742   5.214   3.391   2.785  0.1296  0.2816  0.2986
  151OSM    HNF16743   5.114   3.392   2.784  0.1165  1.7196 -0.9877
  151OSM    C2S16744   5.288   3.490   2.702  0.1524  0.0988 -0.8167
  151OSM    H2S16745   5.387   3.497   2.751  0.2415  0.1607 -1.0018
  151OSM    C3S16746   5.226   3.629   2.698 -0.4388  0.0578  0.1291
  151OSM    H3S16747   5.124   3.633   2.655  0.5844  2.7721 -2.3964
  151OSM     O316748   5.282   3.714   2.606  0.2119 -0.1787  0.3885
  151OSM    HO316749   5.339   3.660   2.551 -0.6171 -0.0976 -0.5917
  151OSM    C4S16750   5.226   3.691   2.832  0.0947 -0.0321 -0.0498
  151OSM    H4S16751   5.315   3.754   2.846  1.4234 -1.9367  0.4776
  151OSM    C5S16752   5.135   3.689   2.933  0.0953 -0.3474  0.1065
  151OSM    H5S16753   5.037   3.646   2.905  0.6138 -1.9551  0.6462
  151OSM    C6S16754   5.143   3.774   3.060  0.6067  0.4601 -0.2026
  151OSM    H6S16755   5.113   3.874   3.023  0.0460  0.0688 -0.8317
  151OSM    H6T16756   5.246   3.788   3.098  0.3257  2.3417 -0.0712
  151OSM    C7S16757   5.066   3.698   3.171 -0.1730 -1.0961  0.0900
  151OSM    H7S16758   5.091   3.590   3.167  1.4123 -0.7260 -0.6883
  151OSM    H7T16759   4.957   3.719   3.165  0.3708  2.0130 -0.7456
  151OSM    C8S16760   5.116   3.753   3.307  0.5845  0.1106 -0.6069
  151OSM    H8S16761   5.097   3.862   3.319  0.1676 -0.1119  1.0245
  151OSM    H8T16762   5.227   3.752   3.319  0.6607  2.4885 -0.4982
  151OSM    C9S16763   5.057   3.692   3.434  0.6905  0.2105  0.6252
  151OSM    H9S16764   5.105   3.593   3.442 -1.9988 -1.5537 -2.3992
  151OSM    H9T16765   4.950   3.676   3.409  0.1832  0.5621  2.4784
  151OSM   C10S16766   5.063   3.763   3.568  0.1361 -0.0429  0.2044
  151OSM   H10S16767   5.034   3.869   3.550  0.9473 -0.0045 -1.0353
  151OSM   H10T16768   5.166   3.763   3.609  0.4314 -0.8362 -0.5216
  151OSM   C11S16769   4.971   3.699   3.669  0.4243 -0.4599 -1.0281
  151OSM   H11S16770   5.008   3.595   3.674  0.6882 -0.3527 -0.6599
  151OSM   H11T16771   4.862   3.693   3.647 -0.3758  0.5728  2.1396
  151OSM   C12S16772   4.984   3.782   3.805  0.3560  0.4415  0.4266
  151OSM   H12S16773   4.952   3.888   3.798  1.2738  0.6397 -1.6761
  151OSM   H12T16774   5.091   3.786   3.837 -0.0311  0.7663  1.7729
  151OSM   C13S16775   4.904   3.725   3.919  0.3849 -0.3715 -0.1054
  151OSM   H13S16776   4.934   3.618   3.930  1.6716 -0.1176 -0.9001
  151OSM   H13T16777   4.796   3.736   3.897 -0.1038  0.6132  2.4296
  151OSM   C14S16778   4.923   3.804   4.055  0.0972 -0.0437 -0.0220
  151OSM   H14S16779   4.902   3.909   4.023 -1.2899 -0.8065 -1.7672
  151OSM   H14T16780   5.029   3.789   4.084  0.3589  0.9728 -0.3765
  151OSM   C15S16781   4.831   3.781   4.175  0.2548  0.0947 -0.3643
  151OSM   H15S16782   4.740   3.732   4.134 -0.3628  0.7223  0.2294
  151OSM   H15T16783   4.807   3.876   4.228 -0.0048  0.0371 -0.3774
  151OSM   C16S16784   4.896   3.681   4.270 -0.4232 -0.1699 -0.1940
  151OSM   H16S16785   4.987   3.730   4.309  0.1624 -0.8647 -0.6579
  151OSM   H16T16786   4.915   3.587   4.215  2.0049  0.4202 -0.4547
  151OSM   C17S16787   4.804   3.661   4.397 -0.0113  0.7676 -0.8693
  151OSM   H17S16788   4.721   3.593   4.368 -1.2987  3.1751 -3.2394
  151OSM   H17T16789   4.757   3.758   4.423 -0.4713  0.5379 -0.8364
  151OSM   C18S16790   4.884   3.590   4.511 -0.3712  0.1139 -0.0782
  151OSM   H18S16791   4.905   3.483   4.488 -2.4876 -0.1455 -1.0309
  151OSM   H18T16792   4.816   3.583   4.598 -0.5729 -1.7596 -0.3387
  151OSM   H18U16793   4.976   3.649   4.528 -0.2723  0.8935 -2.7942
  151OSM    C1F16794   5.260   3.280   2.821 -0.0255  0.3766 -1.1160
  151OSM     OF16795   5.382   3.256   2.808  0.2977 -0.0820 -0.0786
  151OSM    C2F16796   5.166   3.177   2.885 -0.4312  0.3483  0.1435
  151OSM    H2F16797   5.134   3.117   2.798  2.2694 -1.8350  0.5093
  151OSM    H2G16798   5.075   3.231   2.921 -1.5320 -0.1266 -1.7984
  151OSM    C3F16799   5.242   3.096   2.997  0.0806  0.0238  0.1366
  151OSM    H3F16800   5.276   3.173   3.069 -1.1345 -0.2706  1.0639
  151OSM    H3G16801   5.330   3.040   2.958 -1.2793 -2.2468  0.1091
  151OSM    C4F16802   5.151   2.995   3.073 -0.1639  0.2359 -0.1027
  151OSM    H4F16803   5.138   2.912   3.000  0.0020  0.0088  0.1253
  151OSM    H4G16804   5.055   3.038   3.107  0.5280  2.9618 -1.2624
  151OSM    C5F16805   5.221   2.932   3.188 -0.1668 -0.0509 -0.8928
  151OSM    H5F16806   5.314   2.875   3.168  0.5077  0.3743  0.8396
  151OSM    H5G16807   5.143   2.862   3.226  0.1833  0.1764  0.2867
  151OSM    C6F16808   5.251   3.040   3.292 -0.3424 -0.7491 -0.3331
  151OSM    H6F16809   5.213   3.137   3.254 -0.8005 -0.5492  0.5971
  151OSM    H6G16810   5.360   3.057   3.295 -0.7450  2.1251  1.3579
  151OSM    C7F16811   5.184   3.018   3.433 -0.2700 -0.2589 -0.0361
  151OSM    H7F16812   5.226   2.923   3.474 -2.6829 -0.9444  1.0406
  151OSM    H7G16813   5.075   2.998   3.425  0.0534 -3.4915  1.7008
  151OSM    C8F16814   5.216   3.119   3.539 -0.6857  0.4569 -0.0835
  151OSM    H8F16815   5.195   3.221   3.500  1.9892  0.4996 -1.6748
  151OSM    H8G16816   5.323   3.106   3.565 -0.7373  0.8431  0.3147
  151OSM    C9F16817   5.131   3.104   3.665  0.3782  0.3140 -0.1471
  151OSM    H9F16818   5.047   3.174   3.677  0.4197  0.3643 -0.1477
  151OSM   C10F16819   5.149   3.032   3.776 -0.7175 -0.4369  0.6610
  151OSM   H10F16820   5.063   3.029   3.845 -1.8825 -0.9077 -0.7422
  151OSM   C11F16821   5.247   2.917   3.804 -0.1388 -0.2765  0.2372
  151OSM   H11F16822   5.253   2.849   3.716  0.8185 -0.3437  0.3452
  151OSM   H11G16823   5.212   2.843   3.879  0.8351 -0.1659  0.8108
  151OSM   C12F16824   5.395   2.949   3.846  0.2053  0.0682  0.2743
  151OSM   H12F16825   5.451   2.994   3.762  0.2286 -0.5909 -0.0685
  151OSM   H12G16826   5.446   2.851   3.850  0.8174  0.2872 -1.5373
  151OSM   C13F16827   5.385   3.020   3.984  0.0617  0.1624  0.2795
  151OSM   H13F16828   5.316   2.957   4.045  0.0586 -0.2334 -0.1325
  151OSM   H13G16829   5.356   3.123   3.958 -0.9372 -0.1481  0.1290
  151OSM   C14F16830   5.521   3.027   4.046  0.2652 -0.5189 -0.1004
  151OSM   H14F16831   5.591   3.093   3.991  0.3655 -0.2167  0.3820
  151OSM   H14G16832   5.571   2.930   4.066 -1.2498 -0.8684  2.4579
  151OSM   C15F16833   5.515   3.086   4.186  0.9202 -0.4902 -0.0298
  151OSM   H15F16834   5.446   3.036   4.258  1.9037 -0.2117  1.1522
  151OSM   H15G16835   5.472   3.188   4.175  0.8909 -0.1732  2.3267
  151OSM   C16F16836   5.649   3.095   4.256  0.6452 -0.6977  0.1429
  151OSM   H16F16837   5.716   3.165   4.201  1.5244 -1.2403  0.5061
  151OSM   H16G16838   5.688   2.991   4.259 -1.5213 -1.6105 -0.9773
  151OSM   C17F16839   5.652   3.123   4.409  0.3252 -0.4025  0.4500
  151OSM   H17F16840   5.755   3.099   4.445  0.6492  1.8066  1.1252
  151OSM   H17G16841   5.585   3.059   4.469 -0.6011  0.8448  0.7805
  151OSM   C18F16842   5.619   3.275   4.437 -0.5297  0.2306  0.0551
  151OSM   H18F16843   5.509   3.287   4.434 -0.7937 -1.9802 -0.8467
  151OSM   H18G16844   5.682   3.346   4.378  0.2629 -0.7578 -0.3115
  151OSM   H18H16845   5.657   3.288   4.541  1.0142 -0.6723 -0.3564
  152OSM      N16846   0.530   5.044   2.168 -0.6100  0.0276  0.4000
  152OSM    C1516847   0.502   4.991   2.027  0.4458 -0.2899  0.2499
  152OSM   H15A16848   0.560   4.900   2.023 -1.6901 -1.8223  2.1265
  152OSM   H15B16849   0.540   5.062   1.955  0.5783  0.6798  1.2512
  152OSM   H15C16850   0.398   4.967   2.010  0.8917 -1.6501 -0.7138
  152OSM    C1416851   0.432   5.160   2.192 -0.1245 -0.2131  0.7166
  152OSM   H14A16852   0.429   5.214   2.099 -0.6338 -0.1769  0.7535
  152OSM   H14B16853   0.463   5.230   2.268 -2.8298  1.6257  0.2886
  152OSM   H14C16854   0.330   5.131   2.212 -0.8868  0.5417 -1.7638
  152OSM    C1316855   0.479   4.936   2.253  0.5283 -0.7726  0.1638
  152OSM   H13A16856   0.485   4.966   2.357  0.6202 -0.4059  0.0542
  152OSM   H13B16857   0.542   4.849   2.249 -0.0938 -1.4200  2.5035
  152OSM   H13C16858   0.377   4.906   2.234  0.7852 -1.3742 -0.2650
  152OSM    C1216859   0.681   5.074   2.197 -0.1776 -0.1407 -0.2825
  152OSM   H12A16860   0.744   4.987   2.204  1.4166  0.9982  0.0735
  152OSM   H12B16861   0.679   5.116   2.297  1.7530  2.1273 -1.0968
  152OSM    C1116862   0.752   5.175   2.098 -0.0111  0.7268  0.8138
  152OSM   H11A16863   0.706   5.276   2.112  1.5486  1.4110  1.2846
  152OSM   H11B16864   0.738   5.146   1.992  2.2338 -2.5621  1.2887
  152OSM      P16865   0.996   5.063   2.101 -0.1715  0.2285 -0.2729
  152OSM    O1316866   0.941   4.939   2.043 -0.3846  0.2172  0.0287
  152OSM    O1416867   1.104   5.122   2.020  0.7047  0.1330  0.3988
  152OSM    O1116868   1.057   5.024   2.242  0.2578  0.3848  0.6478
  152OSM    O1216869   0.888   5.177   2.131 -0.5742  0.1658 -0.2480
  152OSM    C1S16870   1.081   5.116   2.342  0.8613  0.0557  0.1851
  152OSM    H1S16871   0.993   5.176   2.371  0.2759 -0.8661  0.3477
  152OSM    H1T16872   1.160   5.187   2.309  0.4417  0.4372 -0.0071
  152OSM     NF16873   1.171   5.148   2.571  0.3993 -0.1455  0.2393
  152OSM    HNF16874   1.258   5.176   2.610  0.2654 -1.2371  1.4286
  152OSM    C2S16875   1.147   5.044   2.470  0.6127 -0.3224  0.3281
  152OSM    H2S16876   1.073   4.971   2.508 -1.3445  0.8794 -1.0013
  152OSM    C3S16877   1.275   4.964   2.426  0.4569  0.0269  0.4346
  152OSM    H3S16878   1.353   5.036   2.393  0.1128 -1.0674 -3.1727
  152OSM     O316879   1.247   4.865   2.326 -0.6097  0.0521  0.3959
  152OSM    HO316880   1.195   4.912   2.260 -3.2702 -0.7316  1.7972
  152OSM    C4S16881   1.329   4.894   2.552  0.2123  0.2950 -0.3133
  152OSM    H4S16882   1.417   4.936   2.603 -1.2161  1.7575  1.0757
  152OSM    C5S16883   1.263   4.789   2.604 -0.5332  0.4673 -0.2194
  152OSM    H5S16884   1.166   4.761   2.560  0.5943  0.7092 -2.9962
  152OSM    C6S16885   1.304   4.710   2.723  0.6106  0.3481  0.6800
  152OSM    H6S16886   1.324   4.609   2.681  1.6569  0.5876  0.5784
  152OSM    H6T16887   1.213   4.694   2.786  1.2694  1.7421  2.0429
  152OSM    C7S16888   1.417   4.763   2.809  0.1014 -0.0361 -0.4961
  152OSM    H7S16889   1.382   4.860   2.849  1.1412  0.8344 -1.6287
  152OSM    H7T16890   1.511   4.790   2.757 -0.3732  0.1262 -1.2790
  152OSM    C8S16891   1.447   4.667   2.926  0.3171  0.2006  0.0051
  152OSM    H8S16892   1.547   4.690   2.967  0.9300 -3.0795  0.5975
  152OSM    H8T16893   1.453   4.561   2.892 -2.9787 -0.0954 -0.0504
  152OSM    C9S16894   1.342   4.655   3.036  0.1663 -0.0191 -0.3295
  152OSM    H9S16895   1.254   4.596   3.003 -1.3748  2.0258 -0.0583
  152OSM    H9T16896   1.302   4.756   3.061  1.1739 -0.0469  1.6702
  152OSM   C10S16897   1.395   4.595   3.168  0.2231  0.4452 -0.5634
  152OSM   H10S16898   1.463   4.671   3.213  0.5305  0.1485 -0.5292
  152OSM   H10T16899   1.454   4.505   3.143 -0.9816 -0.7671  0.7801
  152OSM   C11S16900   1.262   4.569   3.255 -0.3764  0.4596  0.6036
  152OSM   H11S16901   1.213   4.483   3.205 -1.0519  2.5114 -2.5554
  152OSM   H11T16902   1.193   4.655   3.241 -1.8508 -0.6929  0.5557
  152OSM   C12S16903   1.293   4.535   3.403  0.1584 -0.0121  0.6864
  152OSM   H12S16904   1.343   4.614   3.462  1.9692 -2.6831  3.0049
  152OSM   H12T16905   1.378   4.463   3.396  0.6301  0.6640 -1.6546
  152OSM   C13S16906   1.168   4.497   3.483 -0.0179  0.7127 -0.3594
  152OSM   H13S16907   1.112   4.433   3.412 -1.9156  1.2261  0.6011
  152OSM   H13T16908   1.109   4.589   3.503  0.9830  1.1727  0.6425
  152OSM   C14S16909   1.214   4.437   3.621 -0.1031 -0.3651  0.0045
  152OSM   H14S16910   1.266   4.515   3.682  1.5147 -2.5308  1.5767
  152OSM   H14T16911   1.279   4.348   3.606 -0.4808 -0.6986  0.3295
  152OSM   C15S16912   1.101   4.385   3.708  0.0642  0.4203 -0.0848
  152OSM   H15S16913   1.073   4.283   3.674 -0.3961  0.8564 -1.0762
  152OSM   H15T16914   1.022   4.462   3.692  2.1168  2.4740 -0.9808
  152OSM   C16S16915   1.132   4.370   3.858  0.2279 -0.0053  0.6274
  152OSM   H16S16916   1.149   4.471   3.903  0.4977 -0.1967  0.9621
  152OSM   H16T16917   1.225   4.311   3.876  1.8495  2.3964  0.6045
  152OSM   C17S16918   1.007   4.303   3.916 -0.3369 -0.2887 -1.1731
  152OSM   H17S16919   1.010   4.197   3.881  0.0996 -1.0950  1.0899
  152OSM   H17T16920   0.911   4.344   3.877 -0.6891 -0.8395 -0.8999
  152OSM   C18S16921   1.021   4.308   4.065 -0.3055  0.2506 -0.1935
  152OSM   H18S16922   0.938   4.270   4.127 -0.5379  0.1795 -0.5444
  152OSM   H18T16923   1.019   4.417   4.087  1.7983  0.0516  1.2838
  152OSM   H18U16924   1.120   4.268   4.097  0.8212  1.9427 -1.3618
  152OSM    C1F16925   1.072   5.211   2.635  0.0672 -0.1730 -0.9929
  152OSM     OF16926   0.953   5.179   2.632  0.5054  0.0652 -0.0368
  152OSM    C2F16927   1.117   5.326   2.723  0.5772 -0.7600 -0.5643
  152OSM    H2F16928   1.143   5.406   2.651 -0.0883  0.8641  0.9081
  152OSM    H2G16929   1.210   5.301   2.778 -0.5830  0.5456  2.2299
  152OSM    C3F16930   1.005   5.364   2.828 -0.1284 -0.2153  0.1275
  152OSM    H3F16931   0.991   5.275   2.893 -0.8320 -0.6100 -0.5509
  152OSM    H3G16932   0.912   5.393   2.774  0.3424  1.4552  0.1392
  152OSM    C4F16933   1.051   5.472   2.927 -0.5272  0.8091  0.8640
  152OSM    H4F16934   1.103   5.553   2.873  0.8247  0.0911  1.0501
  152OSM    H4G16935   1.124   5.442   3.005 -2.0687 -0.1657  1.9827
  152OSM    C5F16936   0.930   5.543   2.990 -0.0749 -0.1541 -0.2582
  152OSM    H5F16937   0.863   5.578   2.908  0.1162  0.8724  0.0165
  152OSM    H5G16938   0.962   5.638   3.038  0.1481 -0.5273  0.3339
  152OSM    C6F16939   0.852   5.459   3.093 -0.3825  0.4143 -0.6585
  152OSM    H6F16940   0.830   5.361   3.045  1.0631  0.5262 -1.6424
  152OSM    H6G16941   0.754   5.507   3.109 -0.8931  0.1001 -2.5853
  152OSM    C7F16942   0.922   5.433   3.226 -0.7236 -0.4157 -0.4449
  152OSM    H7F16943   0.957   5.526   3.277  0.0439 -0.4412 -0.9036
  152OSM    H7G16944   1.016   5.379   3.201 -0.8700 -0.3716 -1.0949
  152OSM    C8F16945   0.846   5.341   3.325 -0.0445  0.6263 -0.4018
  152OSM    H8F16946   0.908   5.343   3.417 -0.6038  0.4424 -0.0129
  152OSM    H8G16947   0.856   5.239   3.282  0.3019  0.1799  0.6992
  152OSM    C9F16948   0.699   5.377   3.354  0.6297 -0.3818  0.0224
  152OSM    H9F16949   0.628   5.365   3.271 -0.2546  0.8701  0.5678
  152OSM   C10F16950   0.659   5.440   3.462  0.5860  0.2149 -0.2839
  152OSM   H10F16951   0.553   5.467   3.471  0.6927  0.1177  1.8527
  152OSM   C11F16952   0.743   5.486   3.584  0.6014  0.7658 -0.1970
  152OSM   H11F16953   0.750   5.597   3.575 -0.4935  0.8353 -0.3850
  152OSM   H11G16954   0.849   5.456   3.575  0.7139  1.4578 -1.3632
  152OSM   C12F16955   0.681   5.448   3.720 -0.4528  0.8201  0.5724
  152OSM   H12F16956   0.664   5.339   3.721 -0.5680  0.8042 -0.7454
  152OSM   H12G16957   0.582   5.498   3.728 -2.0658 -1.7027 -1.7459
  152OSM   C13F16958   0.769   5.475   3.844  0.1896  0.6884  0.4246
  152OSM   H13F16959   0.824   5.570   3.829 -0.7842  1.0115 -1.5452
  152OSM   H13G16960   0.845   5.395   3.852  0.3564  0.8532  0.4863
  152OSM   C14F16961   0.692   5.467   3.980  0.6189  0.1215  0.8604
  152OSM   H14F16962   0.663   5.360   3.995 -2.1700  0.8763  1.3849
  152OSM   H14G16963   0.601   5.521   3.946  0.0233 -0.2197  1.8685
  152OSM   C15F16964   0.767   5.531   4.090  0.0386 -0.2638  0.4748
  152OSM   H15F16965   0.795   5.636   4.069 -0.9229 -0.0340  0.3065
  152OSM   H15G16966   0.864   5.477   4.091 -2.0797 -4.5114 -0.0923
  152OSM   C16F16967   0.698   5.514   4.224  0.2665 -0.2721 -0.8526
  152OSM   H16F16968   0.765   5.527   4.312 -1.0077  2.4464 -0.1688
  152OSM   H16G16969   0.649   5.415   4.237  1.6354 -0.7729  1.0363
  152OSM   C17F16970   0.590   5.622   4.244  0.0379 -0.5069  0.2003
  152OSM   H17F16971   0.519   5.607   4.160 -1.7033  1.7318  1.1575
  152OSM   H17G16972   0.638   5.720   4.228 -1.7460  0.2701 -0.6589
  152OSM   C18F16973   0.508   5.618   4.374  0.2426 -0.3189 -0.3852
  152OSM   H18F16974   0.444   5.708   4.382  0.6355 -0.1963  2.4746
  152OSM   H18G16975   0.576   5.607   4.461 -0.2157 -0.1532 -0.0036
  152OSM   H18H16976   0.442   5.529   4.373  1.6544 -1.4148 -1.3550
  153OSM      N16977   6.341   5.684   1.745 -0.6335 -0.0825 -0.0702
  153OSM    C1516978   6.263   5.675   1.626 -0.8215  0.0623  0.7971
  153OSM   H15A16979   6.320   5.723   1.548  0.4027 -1.1535  0.9013
  153OSM   H15B16980   6.164   5.715   1.639 -1.2756 -0.2841 -1.1881
  153OSM   H15C16981   6.247   5.571   1.602  2.6234 -0.5349  0.5484
  153OSM    C1416982   6.464   5.602   1.722  0.7236  0.3032  1.1316
  153OSM   H14A16983   6.528   5.618   1.807  0.1127 -3.7273  2.5780
  153OSM   H14B16984   6.516   5.643   1.637 -0.7198  0.0024  0.0571
  153OSM   H14C16985   6.438   5.499   1.702  0.3077  0.7980 -1.2278
  153OSM    C1316986   6.389   5.826   1.767 -0.4763 -1.1848  0.1172
  153OSM   H13A16987   6.452   5.815   1.855  0.8820 -0.1477 -0.6767
  153OSM   H13B16988   6.303   5.883   1.799 -1.0563 -2.1059  0.2418
  153OSM   H13C16989   6.442   5.871   1.684 -0.7637 -0.0880  0.5207
  153OSM    C1216990   6.261   5.631   1.867 -0.7506 -0.2253 -0.0306
  153OSM   H12A16991   6.215   5.538   1.837 -2.2736  0.5828 -0.2925
  153OSM   H12B16992   6.180   5.700   1.884 -0.3165  0.9819 -2.4679
  153OSM    C1116993   6.340   5.617   1.997  0.8047 -0.2526 -0.5286
  153OSM   H11A16994   6.428   5.552   1.981  0.8510 -0.5227  0.7400
  153OSM   H11B16995   6.270   5.553   2.055 -2.7406  0.1503 -3.9103
  153OSM      P16996   6.270   5.808   2.156  0.4459 -0.0410  0.3733
  153OSM    O1316997   6.300   5.955   2.175 -0.0972 -0.7570 -0.4572
  153OSM    O1416998   6.146   5.783   2.088  0.0802 -0.2407 -0.2165
  153OSM    O1116999   6.276   5.741   2.291  0.5869  0.1363  0.1436
  153OSM    O1217000   6.378   5.736   2.066  0.0661  0.4335 -0.0103
  153OSM    C1S17001   6.398   5.695   2.347  0.0737  0.3311 -0.9774
  153OSM    H1S17002   6.447   5.786   2.388  0.1420  0.1022 -0.5564
  153OSM    H1T17003   6.467   5.643   2.276  0.8305 -1.4424  0.9536
  153OSM     NF17004   6.506   5.559   2.539 -0.4252 -0.5843  0.0300
  153OSM    HNF17005   6.542   5.466   2.527  1.1435 -0.0276  0.1083
  153OSM    C2S17006   6.380   5.592   2.466 -0.4019  0.4753  0.6169
  153OSM    H2S17007   6.325   5.642   2.548  1.6254 -0.6160  2.7369
  153OSM    C3S17008   6.311   5.464   2.420  0.3762 -0.0808  0.1948
  153OSM    H3S17009   6.368   5.421   2.335 -1.6158 -0.7542 -0.8620
  153OSM     O317010   6.188   5.501   2.356  0.0298  1.3154 -0.1292
  153OSM    HO317011   6.220   5.590   2.335 -0.5071  1.9616  1.5480
  153OSM    C4S17012   6.271   5.361   2.520 -0.2361 -0.2500  0.4548
  153OSM    H4S17013   6.303   5.259   2.496  0.1738  0.0588 -0.3496
  153OSM    C5S17014   6.183   5.376   2.621 -0.2821  0.5636 -0.1590
  153OSM    H5S17015   6.137   5.475   2.634  1.7203  1.5362 -0.1149
  153OSM    C6S17016   6.128   5.266   2.709 -0.0092  0.3826 -0.2167
  153OSM    H6S17017   6.139   5.161   2.672 -0.2085 -0.5645  2.2130
  153OSM    H6T17018   6.018   5.272   2.724 -0.0425  1.5972 -0.8764
  153OSM    C7S17019   6.181   5.268   2.854  0.3561  0.3592  0.2922
  153OSM    H7S17020   6.269   5.200   2.854 -0.9074 -1.4375 -2.3320
  153OSM    H7T17021   6.106   5.208   2.909 -0.7054  1.1830 -0.2130
  153OSM    C8S17022   6.222   5.404   2.910 -0.0525  0.4302  0.2844
  153OSM    H8S17023   6.132   5.469   2.907 -1.0455 -0.8096  1.3335
  153OSM    H8T17024   6.301   5.452   2.849  3.7222 -2.4688  2.3974
  153OSM    C9S17025   6.261   5.387   3.064  0.0058  0.1447  0.6596
  153OSM    H9S17026   6.308   5.486   3.082 -1.6828  1.2129 -0.5880
  153OSM    H9T17027   6.331   5.300   3.072  2.1096  1.8303  1.7063
  153OSM   C10S17028   6.138   5.375   3.155 -0.1485  0.0500 -0.0556
  153OSM   H10S17029   6.106   5.269   3.165  3.6935 -1.4580 -1.7504
  153OSM   H10T17030   6.060   5.431   3.099 -0.7660  0.6635  1.3461
  153OSM   C11S17031   6.146   5.440   3.290  0.4927  0.0316 -0.0643
  153OSM   H11S17032   6.052   5.416   3.344  0.1186 -1.2122 -1.2043
  153OSM   H11T17033   6.156   5.550   3.276 -0.0070  0.1500  0.4810
  153OSM   C12S17034   6.252   5.390   3.389 -0.3875 -1.2238 -0.3948
  153OSM   H12S17035   6.342   5.386   3.324  0.7739  2.1796  0.7719
  153OSM   H12T17036   6.232   5.286   3.420  0.1351 -0.9456  0.9431
  153OSM   C13S17037   6.269   5.483   3.504 -0.0787  0.0871 -0.5203
  153OSM   H13S17038   6.182   5.477   3.572  0.8696 -1.0994  0.6259
  153OSM   H13T17039   6.288   5.589   3.476  0.0648 -0.2859 -1.9261
  153OSM   C14S17040   6.397   5.446   3.589  0.0689  0.0683 -0.7501
  153OSM   H14S17041   6.484   5.441   3.519 -0.9220  0.2726 -2.0283
  153OSM   H14T17042   6.381   5.349   3.639  0.5996  0.8164  0.9392
  153OSM   C15S17043   6.445   5.544   3.699  0.2904  0.4471  0.2205
  153OSM   H15S17044   6.357   5.578   3.758  1.7507  1.5830  1.8541
  153OSM   H15T17045   6.489   5.638   3.659  0.4994 -0.1232 -0.9214
  153OSM   C16S17046   6.546   5.471   3.782 -0.2725 -0.3972  0.4001
  153OSM   H16S17047   6.631   5.438   3.719 -1.4101  0.5443 -1.7348
  153OSM   H16T17048   6.490   5.391   3.836 -2.4217  1.2473  0.7264
  153OSM   C17S17049   6.602   5.569   3.897 -0.5116 -0.1537 -0.1502
  153OSM   H17S17050   6.528   5.585   3.979  0.4285  1.3911  0.4598
  153OSM   H17T17051   6.613   5.668   3.847 -2.5581  0.2735  0.1567
  153OSM   C18S17052   6.735   5.531   3.960  0.2685 -0.0151  0.1311
  153OSM   H18S17053   6.770   5.611   4.029  0.8408  0.2474 -0.4484
  153OSM   H18T17054   6.812   5.513   3.882 -0.8821  0.3465 -1.1377
  153OSM   H18U17055   6.733   5.440   4.024 -1.3619 -1.3392 -1.6731
  153OSM    C1F17056   6.577   5.653   2.602 -0.1900 -0.0044  0.4393
  153OSM     OF17057   6.531   5.759   2.645  0.3982  0.2499  0.1038
  153OSM    C2F17058   6.726   5.640   2.605 -0.5324 -0.1337 -0.1673
  153OSM    H2F17059   6.760   5.720   2.536 -1.0748 -0.5513 -0.9275
  153OSM    H2G17060   6.755   5.542   2.562  0.9971  0.2954 -0.1806
  153OSM    C3F17061   6.786   5.667   2.744  0.1050 -0.2779 -0.2505
  153OSM    H3F17062   6.739   5.758   2.787  0.6635  0.0957 -0.4151
  153OSM    H3G17063   6.895   5.691   2.744 -0.1586  1.0082  0.2799
  153OSM    C4F17064   6.773   5.539   2.828  0.2557 -0.1403  0.7283
  153OSM    H4F17065   6.865   5.524   2.889 -0.2405  0.2031  1.5799
  153OSM    H4G17066   6.771   5.457   2.753 -2.3991 -0.9134  1.5143
  153OSM    C5F17067   6.655   5.537   2.926 -0.0581  0.1460 -0.2305
  153OSM    H5F17068   6.642   5.431   2.957 -0.1102  0.2952  0.2651
  153OSM    H5G17069   6.562   5.560   2.869  1.4333  2.3563 -1.9511
  153OSM    C6F17070   6.678   5.626   3.050 -0.1335  0.2657 -0.5759
  153OSM    H6F17071   6.586   5.636   3.112 -0.1189  1.0743 -0.6727
  153OSM    H6G17072   6.700   5.728   3.010 -1.2101  1.2655  1.2251
  153OSM    C7F17073   6.792   5.600   3.147 -0.1556  0.4318 -0.7011
  153OSM    H7F17074   6.884   5.587   3.087  0.9012  0.9598  0.7502
  153OSM    H7G17075   6.775   5.510   3.210  0.3607  0.6565 -0.2373
  153OSM    C8F17076   6.821   5.717   3.247 -0.4704 -0.5288  0.4825
  153OSM    H8F17077   6.850   5.811   3.195 -0.1543  1.0311  3.2901
  153OSM    H8G17078   6.922   5.690   3.282  0.1045 -0.7652 -1.2856
  153OSM    C9F17079   6.715   5.755   3.345 -0.3602 -0.0831 -0.1959
  153OSM    H9F17080   6.621   5.782   3.295  0.9992  3.0734 -1.3293
  153OSM   C10F17081   6.721   5.744   3.477 -0.2129 -0.0518 -0.3007
  153OSM   H10F17082   6.634   5.775   3.537  2.2230  0.7800  3.0463
  153OSM   C11F17083   6.847   5.708   3.564 -0.1058 -0.0301  0.4594
  153OSM   H11F17084   6.925   5.652   3.508 -0.9909 -2.0075  1.1077
  153OSM   H11G17085   6.810   5.630   3.634 -3.3789 -1.1935 -2.2568
  153OSM   C12F17086   6.904   5.829   3.638  0.0872  0.2169  0.1385
  153OSM   H12F17087   6.813   5.884   3.670  0.6393  1.0232  0.3598
  153OSM   H12G17088   6.965   5.900   3.578  0.6692 -0.6751 -0.3407
  153OSM   C13F17089   6.975   5.800   3.764 -0.7177  0.5267 -0.2928
  153OSM   H13F17090   7.068   5.743   3.746  0.0155  1.5339  0.1937
  153OSM   H13G17091   6.919   5.736   3.836 -3.9852  3.1384 -0.2475
  153OSM   C14F17092   7.008   5.919   3.850  0.2388  0.0566 -0.4465
  153OSM   H14F17093   6.917   5.978   3.876  1.5356  2.4447 -1.0385
  153OSM   H14G17094   7.063   5.997   3.793  2.1297 -2.0953 -1.7136
  153OSM   C15F17095   7.090   5.881   3.976  0.1220  0.9890 -0.5883
  153OSM   H15F17096   7.175   5.822   3.936  0.7043 -0.1500  2.1107
  153OSM   H15G17097   7.036   5.817   4.049  1.6051  0.8231  0.4108
  153OSM   C16F17098   7.138   6.004   4.057  0.6453 -0.2292  0.3564
  153OSM   H16F17099   7.069   6.033   4.140  0.2032 -0.1908 -0.0232
  153OSM   H16G17100   7.144   6.092   3.990 -0.9115  0.9957  1.7455
  153OSM   C17F17101   7.284   5.991   4.119  0.2617  0.0639 -0.6965
  153OSM   H17F17102   7.300   6.084   4.178  1.1345 -0.2288 -0.4677
  153OSM   H17G17103   7.356   5.986   4.035 -0.4385  0.5865 -1.3381
  153OSM   C18F17104   7.317   5.873   4.208  0.4956  0.3036 -0.0658
  153OSM   H18F17105   7.424   5.875   4.237  0.1456 -1.2086  1.5110
  153OSM   H18G17106   7.317   5.777   4.151  2.0190 -0.0518  0.4655
  153OSM   H18H17107   7.249   5.853   4.293 -1.6049  0.8389 -1.5491
  154OSM      N17108   4.250   4.499   2.049 -0.5112  0.4713  0.1128
  154OSM    C1517109   4.324   4.624   2.008  0.4188  0.8876  0.5705
  154OSM   H15A17110   4.291   4.662   1.913  2.1170  1.4409  0.1821
  154OSM   H15B17111   4.428   4.596   1.998  0.6500  2.1285 -0.7022
  154OSM   H15C17112   4.322   4.704   2.080 -0.7502  2.8593 -1.5263
  154OSM    C1417113   4.115   4.541   2.094 -0.9344 -0.9751  0.9544
  154OSM   H14A17114   4.122   4.603   2.182  0.5887  2.8555 -1.5782
  154OSM   H14B17115   4.042   4.462   2.108 -1.5258 -0.3661  1.3651
  154OSM   H14C17116   4.084   4.611   2.017  2.1878 -1.8946 -1.3337
  154OSM    C1317117   4.232   4.404   1.919 -0.1325  0.8163  0.5535
  154OSM   H13A17118   4.166   4.457   1.852 -0.1896  0.7916  0.5908
  154OSM   H13B17119   4.186   4.309   1.942 -0.8863  1.7411  3.2117
  154OSM   H13C17120   4.334   4.389   1.884  0.3824 -1.1459  2.6118
  154OSM    C1217121   4.331   4.431   2.152  0.2295  0.5072 -0.1046
  154OSM   H12A17122   4.280   4.343   2.187 -0.4329  1.1992  0.7218
  154OSM   H12B17123   4.341   4.493   2.240 -1.1710  1.3969 -0.5262
  154OSM    C1117124   4.476   4.375   2.120  0.1585 -0.1870  0.1019
  154OSM   H11A17125   4.460   4.313   2.030 -1.7900 -2.7232  2.0490
  154OSM   H11B17126   4.508   4.310   2.204  0.2860 -3.2523 -2.1795
  154OSM      P17127   4.710   4.452   2.038 -0.1400 -0.1053  0.0065
  154OSM    O1317128   4.683   4.402   1.901  0.0299  0.4611  0.2475
  154OSM    O1417129   4.789   4.577   2.050  0.2896 -0.4109  0.0832
  154OSM    O1117130   4.781   4.353   2.140  0.1387 -0.0124  0.0101
  154OSM    O1217131   4.572   4.481   2.112  0.6235  0.0295  0.0376
  154OSM    C1S17132   4.812   4.401   2.277 -0.2738  0.2654 -0.6633
  154OSM    H1S17133   4.745   4.483   2.311  1.4096  1.0140  0.9635
  154OSM    H1T17134   4.910   4.453   2.276 -0.2945  0.3851 -2.9983
  154OSM     NF17135   4.832   4.329   2.524  0.2055  0.0703  0.2717
  154OSM    HNF17136   4.914   4.292   2.568 -0.4089 -1.6331  0.0544
  154OSM    C2S17137   4.804   4.285   2.382  0.1049 -0.3200 -0.2600
  154OSM    H2S17138   4.700   4.247   2.391 -0.4782  1.3469  0.4733
  154OSM    C3S17139   4.902   4.165   2.345  0.2065  0.1194  0.1294
  154OSM    H3S17140   5.008   4.196   2.355  0.2129 -0.4688  2.6972
  154OSM     O317141   4.883   4.115   2.209 -0.2752 -0.5314 -0.0725
  154OSM    HO317142   4.849   4.193   2.164 -0.9774  0.9100  2.7527
  154OSM    C4S17143   4.879   4.059   2.446  0.1248 -1.1978  0.2708
  154OSM    H4S17144   4.953   4.069   2.527 -0.8257 -1.8771  1.2581
  154OSM    C5S17145   4.800   3.952   2.449 -0.0249 -0.3680 -0.8250
  154OSM    H5S17146   4.733   3.947   2.362 -0.2506  0.9871 -0.7485
  154OSM    C6S17147   4.796   3.828   2.541  0.2072 -0.2467 -0.6058
  154OSM    H6S17148   4.825   3.739   2.483  1.5002  0.6505 -1.4052
  154OSM    H6T17149   4.695   3.810   2.585  0.3864 -1.1523 -0.5488
  154OSM    C7S17150   4.896   3.838   2.656  0.1842  0.3005  0.4449
  154OSM    H7S17151   4.998   3.853   2.615 -0.5067  0.7355 -1.2041
  154OSM    H7T17152   4.888   3.747   2.719  0.0282  0.4519  0.6450
  154OSM    C8S17153   4.873   3.952   2.759 -0.3452  0.3912 -0.5411
  154OSM    H8S17154   4.871   4.051   2.709  4.6191 -0.2580 -2.5296
  154OSM    H8T17155   4.967   3.956   2.818 -1.6215 -1.2652  1.7964
  154OSM    C9S17156   4.756   3.943   2.849  0.6016 -0.2994 -0.7698
  154OSM    H9S17157   4.772   3.845   2.900  4.1550 -0.7822 -2.4675
  154OSM    H9T17158   4.661   3.939   2.792 -0.5689 -2.0499  1.1643
  154OSM   C10S17159   4.746   4.051   2.962 -0.3489  0.0359 -0.3194
  154OSM   H10S17160   4.638   4.065   2.984  0.1008 -0.7109  2.8746
  154OSM   H10T17161   4.787   4.146   2.921 -2.2184  1.1199  0.2058
  154OSM   C11S17162   4.824   4.017   3.090 -0.3284 -0.3027  0.1136
  154OSM   H11S17163   4.935   4.013   3.076 -0.6275 -0.4330 -2.8044
  154OSM   H11T17164   4.790   3.916   3.123 -0.3819 -0.4426 -0.3643
  154OSM   C12S17165   4.795   4.107   3.211 -0.1237 -0.4109  0.1643
  154OSM   H12S17166   4.686   4.123   3.228  0.2503  0.8800  1.5793
  154OSM   H12T17167   4.840   4.204   3.180 -2.7666  1.6862  2.3145
  154OSM   C13S17168   4.855   4.070   3.338 -0.1658  0.1010 -0.1834
  154OSM   H13S17169   4.965   4.074   3.325  0.1987 -1.1955  1.9198
  154OSM   H13T17170   4.826   3.965   3.360 -1.2849  0.8626  2.4886
  154OSM   C14S17171   4.812   4.143   3.459 -0.3656  0.8447 -0.5362
  154OSM   H14S17172   4.704   4.166   3.443 -0.5165 -0.5846 -1.8496
  154OSM   H14T17173   4.856   4.245   3.460  0.1109  0.7272 -2.8331
  154OSM   C15S17174   4.840   4.079   3.592  0.0055  0.2295  0.3862
  154OSM   H15S17175   4.950   4.077   3.608 -0.1218 -1.6837  1.2780
  154OSM   H15T17176   4.811   3.972   3.596  2.1865 -0.5507 -1.8098
  154OSM   C16S17177   4.787   4.166   3.711  0.4110  0.3264  0.6636
  154OSM   H16S17178   4.851   4.255   3.722 -0.3133  0.5911  3.6746
  154OSM   H16T17179   4.812   4.119   3.809 -0.1606 -0.6296  0.3723
  154OSM   C17S17180   4.631   4.208   3.702 -0.0852  0.3651 -0.5927
  154OSM   H17S17181   4.568   4.120   3.677  1.5871 -0.2698 -2.8856
  154OSM   H17T17182   4.607   4.269   3.613  0.0265 -2.3748 -2.6354
  154OSM   C18S17183   4.589   4.278   3.829 -0.3731  0.0602 -0.2288
  154OSM   H18S17184   4.479   4.291   3.836 -0.2589  0.5848  0.7986
  154OSM   H18T17185   4.636   4.376   3.849 -1.6794  0.4775  0.9150
  154OSM   H18U17186   4.604   4.208   3.914  0.2999  0.8289  0.3003
  154OSM    C1F17187   4.762   4.422   2.588 -0.3057 -0.1109 -0.5052
  154OSM     OF17188   4.659   4.452   2.533  0.1424  0.1218 -0.1283
  154OSM    C2F17189   4.810   4.473   2.721  0.0081  0.8857 -0.3226
  154OSM    H2F17190   4.822   4.583   2.712 -0.2913  0.7137 -3.9869
  154OSM    H2G17191   4.914   4.437   2.737  0.1822  0.6774 -1.8020
  154OSM    C3F17192   4.710   4.440   2.835 -0.4446 -0.0497 -0.0148
  154OSM    H3F17193   4.687   4.332   2.848 -0.2117 -0.2344 -1.0393
  154OSM    H3G17194   4.623   4.497   2.794 -1.1890 -0.4078  1.0281
  154OSM    C4F17195   4.755   4.520   2.961 -0.2646 -0.3959  0.6065
  154OSM    H4F17196   4.764   4.627   2.932 -0.8780 -0.4440  0.2162
  154OSM    H4G17197   4.857   4.483   2.986 -0.5899 -2.5853 -1.0273
  154OSM    C5F17198   4.661   4.512   3.080 -0.2607 -0.5847  0.2305
  154OSM    H5F17199   4.636   4.406   3.105 -0.1140 -0.5563  0.5092
  154OSM    H5G17200   4.560   4.548   3.051 -0.5979 -2.5589 -1.3110
  154OSM    C6F17201   4.708   4.588   3.208 -0.2290  0.0565 -0.0331
  154OSM    H6F17202   4.714   4.696   3.184  0.3407  0.3095  1.1990
  154OSM    H6G17203   4.806   4.545   3.237 -0.1156  0.2576 -0.1138
  154OSM    C7F17204   4.610   4.560   3.328 -0.6535 -0.1009  1.0187
  154OSM    H7F17205   4.613   4.453   3.358  0.6216 -0.1654  0.7310
  154OSM    H7G17206   4.509   4.572   3.284 -0.6412 -3.1120 -0.0345
  154OSM    C8F17207   4.622   4.657   3.446  0.0349 -0.4084  0.4221
  154OSM    H8F17208   4.595   4.757   3.405  0.4828 -0.2427  0.5314
  154OSM    H8G17209   4.730   4.675   3.462  0.1804 -0.2516 -0.6588
  154OSM    C9F17210   4.541   4.624   3.567  0.2657 -0.1319 -0.2270
  154OSM    H9F17211   4.479   4.534   3.557  2.3448 -1.4366 -2.3741
  154OSM   C10F17212   4.552   4.685   3.686 -0.1789 -0.2845  0.0632
  154OSM   H10F17213   4.479   4.658   3.764 -0.5899  0.2487 -0.1273
  154OSM   C11F17214   4.643   4.804   3.728 -0.9149 -0.4406 -0.4950
  154OSM   H11F17215   4.593   4.901   3.752  0.8122  0.4908 -0.4536
  154OSM   H11G17216   4.713   4.830   3.646 -1.6699 -0.7705 -1.2626
  154OSM   C12F17217   4.723   4.761   3.852 -0.4146  0.4853  0.7538
  154OSM   H12F17218   4.806   4.834   3.864 -1.2239  1.3539  1.2213
  154OSM   H12G17219   4.773   4.666   3.824  2.4416  2.1711 -0.4253
  154OSM   C13F17220   4.665   4.763   3.992  0.0806 -0.0425 -0.0683
  154OSM   H13F17221   4.578   4.698   4.014 -2.3269  3.0374  0.1897
  154OSM   H13G17222   4.633   4.869   4.001 -1.0850 -0.5131  2.1533
  154OSM   C14F17223   4.774   4.738   4.093  0.2540 -0.1695  0.0232
  154OSM   H14F17224   4.868   4.783   4.056 -0.3570  0.4492 -0.8159
  154OSM   H14G17225   4.778   4.628   4.103 -1.9508 -0.2789  0.1722
  154OSM   C15F17226   4.741   4.803   4.228 -0.3945 -0.5961 -0.6885
  154OSM   H15F17227   4.655   4.747   4.271 -1.8699  0.6737 -1.8836
  154OSM   H15G17228   4.716   4.910   4.215  0.7330 -0.1797  0.4140
  154OSM   C16F17229   4.865   4.794   4.321  0.3742 -0.2847 -0.5565
  154OSM   H16F17230   4.944   4.869   4.300 -1.0824  2.0365  1.6609
  154OSM   H16G17231   4.922   4.702   4.296  2.7034  0.6209  1.0741
  154OSM   C17F17232   4.851   4.819   4.479  0.5110 -0.8353 -0.0540
  154OSM   H17F17233   4.777   4.752   4.527  1.6000  0.6863  4.2442
  154OSM   H17G17234   4.808   4.922   4.487  0.0305 -1.0150 -0.2919
  154OSM   C18F17235   4.974   4.802   4.565 -0.0951  0.7440  0.0359
  154OSM   H18F17236   5.031   4.897   4.558 -0.0859  0.9934  2.5714
  154OSM   H18G17237   5.043   4.723   4.528 -2.1077 -1.2303  0.2553
  154OSM   H18H17238   4.962   4.778   4.673  0.8791 -0.3402 -0.0747
  155OSM      N17239   1.380   3.161   1.503  0.0985 -0.3232 -0.0036
  155OSM    C1517240   1.426   3.078   1.387 -0.0073  0.2038 -0.0864
  155OSM   H15A17241   1.434   3.140   1.299 -1.9869 -0.4332 -0.7746
  155OSM   H15B17242   1.357   2.997   1.370 -0.2491  0.2943  0.4551
  155OSM   H15C17243   1.524   3.034   1.398 -0.3620 -0.6205 -0.1865
  155OSM    C1417244   1.272   3.259   1.460  0.0973 -0.3252 -0.4372
  155OSM   H14A17245   1.246   3.312   1.550  0.9361 -0.2402 -0.2306
  155OSM   H14B17246   1.187   3.205   1.421 -0.9424 -0.6077  2.0567
  155OSM   H14C17247   1.306   3.336   1.393  0.1576  0.6097  0.6382
  155OSM    C1317248   1.327   3.079   1.615  0.6516  0.0686 -0.3955
  155OSM   H13A17249   1.304   3.142   1.700 -0.2766 -0.2530 -0.3975
  155OSM   H13B17250   1.405   3.008   1.642  0.7504  0.5831  0.7569
  155OSM   H13C17251   1.240   3.022   1.587  0.0498  0.0323  1.4219
  155OSM    C1217252   1.504   3.243   1.559 -0.7461  0.4213  0.7788
  155OSM   H12A17253   1.547   3.300   1.477  0.6721 -0.9615  0.5127
  155OSM   H12B17254   1.586   3.174   1.575 -0.2071  0.3110 -1.9520
  155OSM    C1117255   1.486   3.335   1.678  0.7951  0.3276 -0.1494
  155OSM   H11A17256   1.400   3.404   1.663 -0.3494 -0.7363  1.2308
  155OSM   H11B17257   1.573   3.404   1.683 -0.4801  2.0380 -0.4197
  155OSM      P17258   1.540   3.175   1.878 -0.4407  0.0033  0.5753
  155OSM    O1317259   1.460   3.069   1.938 -1.6195  0.5168 -0.3316
  155OSM    O1417260   1.669   3.142   1.800  0.6120 -0.1289  0.6129
  155OSM    O1117261   1.590   3.267   1.999  0.6342  0.2984  0.5820
  155OSM    O1217262   1.452   3.277   1.801  0.0255  0.1119  0.3739
  155OSM    C1S17263   1.512   3.335   2.098  0.7238 -0.7220 -0.0228
  155OSM    H1S17264   1.432   3.267   2.135 -0.3551 -0.3592 -1.5919
  155OSM    H1T17265   1.466   3.421   2.045  1.5437 -1.3560 -1.8401
  155OSM     NF17266   1.513   3.406   2.334 -0.0996  0.2162  0.5585
  155OSM    HNF17267   1.488   3.501   2.351 -1.7832  0.2241 -1.5774
  155OSM    C2S17268   1.597   3.372   2.217  0.1265 -0.4392 -0.4832
  155OSM    H2S17269   1.666   3.290   2.248  2.4129  1.6185  0.1318
  155OSM    C3S17270   1.695   3.481   2.175  0.2510 -0.2870 -0.0250
  155OSM    H3S17271   1.639   3.574   2.150 -0.2314 -0.3504  0.7857
  155OSM     O317272   1.764   3.454   2.050  0.1002  0.2065 -0.0244
  155OSM    HO317273   1.724   3.374   2.017  0.7315 -1.0933  2.2062
  155OSM    C4S17274   1.782   3.525   2.284 -0.2800  0.5526  0.3484
  155OSM    H4S17275   1.732   3.614   2.325 -2.1667 -0.7197  0.9567
  155OSM    C5S17276   1.905   3.479   2.323 -0.3772 -0.0036  0.4615
  155OSM    H5S17277   1.958   3.403   2.264 -1.6620 -0.3575 -0.2731
  155OSM    C6S17278   1.997   3.543   2.429 -0.6961  0.2915  0.9898
  155OSM    H6S17279   2.008   3.650   2.398 -2.6139  1.0404  2.7013
  155OSM    H6T17280   2.095   3.494   2.411 -1.6168 -0.8143 -1.4654
  155OSM    C7S17281   1.953   3.546   2.578  0.2048  0.1810  0.5510
  155OSM    H7S17282   2.037   3.602   2.623  0.7802 -0.1009 -0.1468
  155OSM    H7T17283   1.934   3.443   2.615  0.6326 -0.5491 -1.1370
  155OSM    C8S17284   1.827   3.631   2.622  0.0436 -0.1879 -0.2508
  155OSM    H8S17285   1.742   3.588   2.566 -0.3211 -1.0483  0.9280
  155OSM    H8T17286   1.858   3.731   2.585  0.1369  1.4688  3.8077
  155OSM    C9S17287   1.798   3.639   2.773 -0.2193 -0.1938  0.0665
  155OSM    H9S17288   1.874   3.714   2.802  2.8230 -2.4484 -1.4781
  155OSM    H9T17289   1.833   3.543   2.817  0.2827 -1.3227 -2.6098
  155OSM   C10S17290   1.644   3.651   2.809 -0.0222 -0.2166  0.0906
  155OSM   H10S17291   1.605   3.549   2.791 -0.0526 -0.5880  2.0439
  155OSM   H10T17292   1.589   3.723   2.745 -0.4572 -1.9629 -1.5765
  155OSM   C11S17293   1.635   3.686   2.955  0.3031  0.0696 -0.0087
  155OSM   H11S17294   1.692   3.779   2.976  1.7696 -0.4652 -1.3600
  155OSM   H11T17295   1.696   3.609   3.008  2.4114  2.3229  1.0534
  155OSM   C12S17296   1.494   3.696   3.009  0.4679 -0.0878  0.0543
  155OSM   H12S17297   1.450   3.595   3.017  1.8288 -0.8680 -1.6660
  155OSM   H12T17298   1.441   3.757   2.932  0.1214 -0.8005 -0.2777
  155OSM   C13S17299   1.482   3.797   3.136  0.0141  0.0089 -0.3550
  155OSM   H13S17300   1.389   3.857   3.128  0.3341  0.4527 -0.8899
  155OSM   H13T17301   1.565   3.871   3.138 -1.1434  1.3415  0.2240
  155OSM   C14S17302   1.476   3.724   3.269 -0.4581  0.5290 -0.3036
  155OSM   H14S17303   1.476   3.803   3.348 -1.8961 -1.5197  1.9177
  155OSM   H14T17304   1.567   3.661   3.276 -2.4078 -2.6303 -1.5382
  155OSM   C15S17305   1.353   3.631   3.280  0.6171 -1.0200 -0.7405
  155OSM   H15S17306   1.335   3.570   3.189  0.2789  2.3129 -3.0489
  155OSM   H15T17307   1.261   3.691   3.294  1.1454 -0.0798 -1.2321
  155OSM   C16S17308   1.356   3.538   3.404  0.0494  0.0545  0.4295
  155OSM   H16S17309   1.451   3.481   3.409  1.6101  2.5492  2.4564
  155OSM   H16T17310   1.280   3.459   3.391 -1.1073  1.4266 -1.7990
  155OSM   C17S17311   1.333   3.616   3.533  0.8947  0.0302  0.0286
  155OSM   H17S17312   1.236   3.671   3.531  1.0298  0.2926  0.4495
  155OSM   H17T17313   1.410   3.696   3.527 -1.1868  2.0368 -1.9362
  155OSM   C18S17314   1.353   3.537   3.662  0.1934  0.6284 -0.8958
  155OSM   H18S17315   1.436   3.464   3.657  1.2607  1.6586  0.7905
  155OSM   H18T17316   1.266   3.467   3.668  0.1871  0.7401  0.7945
  155OSM   H18U17317   1.369   3.583   3.762  1.2666 -1.2102 -0.1576
  155OSM    C1F17318   1.456   3.317   2.413 -0.2604  0.1661  1.3065
  155OSM     OF17319   1.467   3.196   2.395 -0.5991  0.1078  0.0956
  155OSM    C2F17320   1.367   3.381   2.520 -0.3695 -0.2109 -0.1218
  155OSM    H2F17321   1.292   3.449   2.473 -1.7383  0.0790  2.3196
  155OSM    H2G17322   1.425   3.453   2.582  1.5620 -0.4753 -1.5254
  155OSM    C3F17323   1.288   3.276   2.606 -0.0553  0.3564 -0.3093
  155OSM    H3F17324   1.355   3.188   2.622  1.8902  1.4933 -1.8011
  155OSM    H3G17325   1.206   3.234   2.544 -3.4655  1.7780  2.8875
  155OSM    C4F17326   1.227   3.333   2.736 -0.4443 -0.7000  1.2859
  155OSM    H4F17327   1.160   3.257   2.782  0.4129 -1.8644  0.6677
  155OSM    H4G17328   1.164   3.422   2.719  0.8331 -0.1390 -0.9294
  155OSM    C5F17329   1.326   3.372   2.847  0.0416  0.5196 -0.0804
  155OSM    H5F17330   1.275   3.405   2.940  1.1328  1.4543  0.2095
  155OSM    H5G17331   1.376   3.465   2.812 -1.0415  0.9298 -0.5914
  155OSM    C6F17332   1.440   3.272   2.881  0.0871 -0.1641  0.6427
  155OSM    H6F17333   1.509   3.264   2.795 -0.8577 -1.6797 -0.0283
  155OSM    H6G17334   1.398   3.170   2.898 -1.7815  0.3435 -0.6381
  155OSM    C7F17335   1.530   3.309   3.003 -0.6358  0.1037 -0.2522
  155OSM    H7F17336   1.470   3.317   3.096 -0.3972 -0.4551 -0.0502
  155OSM    H7G17337   1.565   3.412   2.979  1.6910 -0.5175  0.2399
  155OSM    C8F17338   1.650   3.214   3.022 -0.4226 -1.1253  0.0749
  155OSM    H8F17339   1.706   3.201   2.927  1.1318  2.7184  0.3041
  155OSM    H8G17340   1.629   3.110   3.056 -3.0698 -0.4343  0.8347
  155OSM    C9F17341   1.744   3.282   3.115  0.2097 -0.1657 -0.5141
  155OSM    H9F17342   1.826   3.344   3.074  0.3042 -0.2392 -0.4382
  155OSM   C10F17343   1.756   3.258   3.247  0.2294  0.1695 -0.1073
  155OSM   H10F17344   1.833   3.303   3.311 -0.6388 -0.1291  1.1923
  155OSM   C11F17345   1.676   3.154   3.328 -0.5812 -0.2213 -0.2829
  155OSM   H11F17346   1.732   3.064   3.359 -2.0202 -0.0760  3.1824
  155OSM   H11G17347   1.588   3.109   3.277 -1.1703  0.4686  0.1057
  155OSM   C12F17348   1.628   3.208   3.464  0.4579  0.1480  0.6520
  155OSM   H12F17349   1.547   3.143   3.502  0.1254 -0.8269 -1.5431
  155OSM   H12G17350   1.576   3.306   3.453  0.2742 -0.0000  0.1880
  155OSM   C13F17351   1.734   3.226   3.572  0.1057 -0.3054  0.2153
  155OSM   H13F17352   1.791   3.317   3.543 -2.5141  1.3885  0.1043
  155OSM   H13G17353   1.795   3.134   3.588  0.1614  0.0084  1.9986
  155OSM   C14F17354   1.662   3.258   3.706 -0.6866 -0.0476 -0.1696
  155OSM   H14F17355   1.576   3.189   3.722  0.3223 -1.2405  0.3143
  155OSM   H14G17356   1.618   3.360   3.701 -1.1624 -0.2023  0.6053
  155OSM   C15F17357   1.763   3.253   3.814  0.0287 -0.2300 -0.5646
  155OSM   H15F17358   1.717   3.288   3.909 -0.3307 -1.8012 -0.1279
  155OSM   H15G17359   1.852   3.313   3.785  0.4039  0.1062  1.1773
  155OSM   C16F17360   1.816   3.113   3.865 -0.0968  0.0056  0.5000
  155OSM   H16F17361   1.850   3.053   3.778 -1.8754 -0.2033 -0.0960
  155OSM   H16G17362   1.732   3.047   3.895  0.2990 -0.1568  1.2619
  155OSM   C17F17363   1.928   3.112   3.963  0.2320 -0.0719  0.1120
  155OSM   H17F17364   2.021   3.148   3.914 -0.4275  1.8802  0.2153
  155OSM   H17G17365   1.942   3.009   4.003 -0.9498  0.1152  1.0572
  155OSM   C18F17366   1.906   3.185   4.093  0.1884 -0.0644  0.4215
  155OSM   H18F17367   1.998   3.183   4.154  0.6680 -0.8612 -0.2977
  155OSM   H18G17368   1.825   3.136   4.151 -0.7220  2.4474  1.3775
  155OSM   H18H17369   1.873   3.288   4.071 -2.0141 -0.9245 -0.7111
  156OSM      N17370   1.671   6.977   1.854  0.0007  0.0781  0.4126
  156OSM    C1517371   1.561   7.076   1.870 -0.8146  0.0610 -0.2452
  156OSM   H15A17372   1.464   7.048   1.832 -1.5067 -0.0522  1.5111
  156OSM   H15B17373   1.597   7.172   1.836  1.4321 -0.9669 -0.9621
  156OSM   H15C17374   1.532   7.094   1.973 -3.2895  0.3705 -0.9331
  156OSM    C1417375   1.634   6.844   1.910  0.0641  0.3900  0.1292
  156OSM   H14A17376   1.709   6.774   1.875  1.5777  2.3524 -0.7491
  156OSM   H14B17377   1.540   6.813   1.867 -1.9392  3.0676  2.2247
  156OSM   H14C17378   1.618   6.847   2.017 -0.7842  1.1778 -0.0082
  156OSM    C1317379   1.700   6.963   1.716 -0.8800  0.3856  0.4966
  156OSM   H13A17380   1.617   6.937   1.652  0.5447 -2.9607 -0.1843
  156OSM   H13B17381   1.772   6.887   1.689 -1.0792  0.8898 -1.6365
  156OSM   H13C17382   1.740   7.055   1.677  0.5719  0.0590  1.1498
  156OSM    C1217383   1.800   7.029   1.920 -0.2526  0.3858 -0.6272
  156OSM   H12A17384   1.784   7.022   2.027 -0.8386 -1.2853 -0.7982
  156OSM   H12B17385   1.818   7.135   1.911  1.3384  0.2999  1.0027
  156OSM    C1117386   1.930   6.948   1.891  0.4813  0.2662  0.3683
  156OSM   H11A17387   2.014   6.993   1.948 -0.2768 -0.1747  1.8796
  156OSM   H11B17388   1.941   6.973   1.783 -2.5803  2.3291  0.4132
  156OSM      P17389   2.039   6.721   1.981 -0.4799  0.1811 -0.0733
  156OSM    O1317390   1.998   6.579   1.993  0.5620  0.5661 -0.7290
  156OSM    O1417391   2.167   6.740   1.913  0.0924 -0.0256  0.2730
  156OSM    O1117392   2.047   6.779   2.124 -0.0296 -0.1832 -0.3829
  156OSM    O1217393   1.920   6.810   1.915 -0.5775  0.0984 -0.0564
  156OSM    C1S17394   1.927   6.763   2.207 -0.5278 -0.9284 -0.7120
  156OSM    H1S17395   1.912   6.654   2.219  2.2000 -1.1678  1.7983
  156OSM    H1T17396   1.839   6.816   2.164 -0.5637  1.3175  1.8444
  156OSM     NF17397   1.823   6.766   2.421  0.1396 -0.0659  0.1838
  156OSM    HNF17398   1.757   6.836   2.448 -0.9401 -1.4548  1.3192
  156OSM    C2S17399   1.945   6.807   2.352  0.6152  0.4850  0.2295
  156OSM    H2S17400   2.028   6.746   2.394 -0.8777 -1.4652  0.5216
  156OSM    C3S17401   1.986   6.960   2.370  0.1846 -0.3888 -0.0852
  156OSM    H3S17402   1.898   7.025   2.355  1.3832  1.6389  1.1246
  156OSM     O317403   2.082   7.001   2.277 -0.1896 -0.3119  0.0415
  156OSM    HO317404   2.076   6.924   2.220  1.8463  0.3541 -1.1838
  156OSM    C4S17405   2.033   6.978   2.514  0.1316 -0.1278 -1.0310
  156OSM    H4S17406   1.959   6.943   2.587 -0.0791  1.1049 -0.6238
  156OSM    C5S17407   2.159   7.011   2.554 -0.3118  0.2445  0.5629
  156OSM    H5S17408   2.236   7.023   2.477  0.0426  2.0518  1.1614
  156OSM    C6S17409   2.229   7.003   2.687 -0.4647  0.3356  0.3235
  156OSM    H6S17410   2.279   7.099   2.713 -2.5811  1.7032 -0.3696
  156OSM    H6T17411   2.300   6.918   2.681 -0.0043  0.7421 -0.0322
  156OSM    C7S17412   2.147   6.985   2.816 -0.1149  0.1279 -0.6047
  156OSM    H7S17413   2.084   6.894   2.811 -1.0457  0.7419 -0.4456
  156OSM    H7T17414   2.075   7.070   2.817  0.6811  0.8853 -2.8027
  156OSM    C8S17415   2.232   6.987   2.943  0.2045 -0.3989 -0.1083
  156OSM    H8S17416   2.268   7.089   2.965 -0.7521 -0.3851  1.6034
  156OSM    H8T17417   2.319   6.919   2.931  1.1417  1.1948 -3.5635
  156OSM    C9S17418   2.149   6.937   3.069 -0.1863 -0.1653 -0.3204
  156OSM    H9S17419   2.076   6.856   3.048 -0.1395 -0.2095 -0.3135
  156OSM    H9T17420   2.091   7.028   3.096 -0.2945 -0.3042 -0.0804
  156OSM   C10S17421   2.243   6.907   3.191  0.0140  0.2111 -0.2224
  156OSM   H10S17422   2.321   6.984   3.208 -0.3015  0.7517 -1.1151
  156OSM   H10T17423   2.304   6.820   3.158  1.6063  1.2151 -0.0171
  156OSM   C11S17424   2.168   6.871   3.311  0.1402  0.2063  0.5346
  156OSM   H11S17425   2.109   6.778   3.298  0.3450 -0.1159  1.7596
  156OSM   H11T17426   2.093   6.950   3.338 -2.7267 -1.8528 -0.9313
  156OSM   C12S17427   2.262   6.847   3.429  0.6825  0.4865  0.6292
  156OSM   H12S17428   2.338   6.767   3.415 -0.7857 -0.8442 -0.0190
  156OSM   H12T17429   2.187   6.822   3.507 -0.6820 -1.2107 -1.1196
  156OSM   C13S17430   2.324   6.975   3.492  0.2043  1.1493 -0.6814
  156OSM   H13S17431   2.243   7.046   3.521 -0.0807 -0.0302  1.6535
  156OSM   H13T17432   2.391   7.029   3.422 -0.9471  1.2509 -1.7526
  156OSM   C14S17433   2.418   6.946   3.617  0.2335 -0.9874 -0.1340
  156OSM   H14S17434   2.454   7.042   3.659  1.1074 -1.4256  0.1459
  156OSM   H14T17435   2.506   6.881   3.594  0.3184 -1.7214  2.0404
  156OSM   C15S17436   2.351   6.867   3.737 -0.0222 -0.6515  0.3561
  156OSM   H15S17437   2.316   6.769   3.698 -3.4570  0.5798  0.0633
  156OSM   H15T17438   2.261   6.923   3.770 -0.4259 -0.2949 -1.2700
  156OSM   C16S17439   2.452   6.853   3.851 -0.6985  0.4146 -0.9151
  156OSM   H16S17440   2.540   6.796   3.816 -0.8874 -0.7819  0.4464
  156OSM   H16T17441   2.411   6.795   3.937 -0.1336  1.0900 -0.1754
  156OSM   C17S17442   2.499   6.983   3.914 -0.3424 -0.3674  0.3776
  156OSM   H17S17443   2.414   7.048   3.946 -0.2321  0.8613 -1.6373
  156OSM   H17T17444   2.553   7.041   3.836 -1.6133 -0.4319 -0.5850
  156OSM   C18S17445   2.602   6.950   4.015  0.3058 -1.0934  0.0514
  156OSM   H18S17446   2.557   6.897   4.101 -1.6034  1.3057  0.6245
  156OSM   H18T17447   2.643   7.044   4.056 -0.4218  0.2335 -2.0654
  156OSM   H18U17448   2.694   6.894   3.986  2.1128  1.2826  0.9095
  156OSM    C1F17449   1.788   6.641   2.448 -0.5502 -0.4876  0.0038
  156OSM     OF17450   1.862   6.546   2.415  0.3787 -0.8670  0.3462
  156OSM    C2F17451   1.642   6.619   2.499 -0.2099  0.5107  0.6394
  156OSM    H2F17452   1.588   6.593   2.405  0.4351  0.3544  0.3063
  156OSM    H2G17453   1.616   6.714   2.550  0.0990  1.5310 -1.0260
  156OSM    C3F17454   1.636   6.502   2.597  0.3822  0.0717 -0.3169
  156OSM    H3F17455   1.696   6.515   2.689 -3.7557 -0.9328  2.8254
  156OSM    H3G17456   1.672   6.413   2.541 -0.9370 -0.4160 -0.4141
  156OSM    C4F17457   1.497   6.469   2.657  0.3300 -0.0419 -0.3100
  156OSM    H4F17458   1.483   6.366   2.697 -0.0223  1.5112  4.1940
  156OSM    H4G17459   1.421   6.494   2.580 -2.7484  1.4943  2.9056
  156OSM    C5F17460   1.463   6.566   2.774 -0.1801 -0.5341  0.3474
  156OSM    H5F17461   1.353   6.563   2.790 -0.5132  0.5699 -1.4146
  156OSM    H5G17462   1.490   6.671   2.750  1.7865 -0.8292  1.0511
  156OSM    C6F17463   1.517   6.518   2.910  0.6645  1.1689 -0.3005
  156OSM    H6F17464   1.624   6.539   2.934  1.0598 -1.3632  0.4483
  156OSM    H6G17465   1.514   6.408   2.922 -0.0372  0.8160 -2.9960
  156OSM    C7F17466   1.442   6.572   3.033 -0.1936 -0.4044 -0.2378
  156OSM    H7F17467   1.334   6.569   3.007 -0.4750 -0.2966  0.8528
  156OSM    H7G17468   1.475   6.678   3.033 -0.1340 -0.4087  0.9378
  156OSM    C8F17469   1.476   6.503   3.164  0.0960  0.5387  0.1725
  156OSM    H8F17470   1.473   6.581   3.242  1.0974  2.1857 -1.3663
  156OSM    H8G17471   1.584   6.479   3.160  0.0756  0.5543 -0.7457
  156OSM    C9F17472   1.381   6.392   3.195  0.1710  0.0886 -0.7643
  156OSM    H9F17473   1.330   6.349   3.107  0.5065  2.3842 -2.1514
  156OSM   C10F17474   1.332   6.363   3.318 -0.4641  0.4088  0.1569
  156OSM   H10F17475   1.267   6.275   3.323 -3.3564  2.2908 -1.2895
  156OSM   C11F17476   1.379   6.437   3.443 -0.0356 -0.2578  0.3012
  156OSM   H11F17477   1.324   6.534   3.445 -2.0690 -1.3282 -0.5723
  156OSM   H11G17478   1.487   6.462   3.446  0.0909 -0.4618 -1.4934
  156OSM   C12F17479   1.334   6.355   3.566  0.5762 -0.2376  0.1694
  156OSM   H12F17480   1.384   6.256   3.562 -0.0217 -0.5441  0.2679
  156OSM   H12G17481   1.224   6.348   3.560  0.3805  2.0723 -0.1133
  156OSM   C13F17482   1.358   6.424   3.702 -0.6806 -0.0502 -0.1639
  156OSM   H13F17483   1.277   6.499   3.718 -0.2962  0.5950 -1.1958
  156OSM   H13G17484   1.455   6.475   3.687 -0.8118  0.4449  0.5866
  156OSM   C14F17485   1.367   6.328   3.817  0.1656 -1.0420  0.9945
  156OSM   H14F17486   1.441   6.249   3.791  1.2758  0.4148 -0.5353
  156OSM   H14G17487   1.266   6.283   3.832 -0.8662  1.1404  0.9522
  156OSM   C15F17488   1.407   6.396   3.951  0.6079  0.0506  0.0352
  156OSM   H15F17489   1.400   6.320   4.032  1.0862  0.8077  0.8035
  156OSM   H15G17490   1.337   6.479   3.973  0.1123 -0.3181 -0.1265
  156OSM   C16F17491   1.543   6.465   3.943  0.1273 -0.7794  0.6192
  156OSM   H16F17492   1.544   6.557   3.880  0.3851 -1.4911 -0.4443
  156OSM   H16G17493   1.620   6.396   3.902 -0.2145 -0.8725  0.1260
  156OSM   C17F17494   1.587   6.512   4.083  0.7097  0.3972 -0.5311
  156OSM   H17F17495   1.698   6.511   4.084  0.7930 -3.3680 -0.0644
  156OSM   H17G17496   1.571   6.430   4.156  0.5156  1.3249  0.4915
  156OSM   C18F17497   1.522   6.633   4.140 -0.2922 -0.0561 -0.2316
  156OSM   H18F17498   1.511   6.714   4.065 -0.3522 -0.3703 -0.5629
  156OSM   H18G17499   1.583   6.677   4.222 -1.6193 -0.9583  1.3229
  156OSM   H18H17500   1.413   6.624   4.162 -0.2092 -1.8702 -0.4108
  157OSM      N17501   2.109   0.882   2.033 -0.0726 -0.1918  0.0169
  157OSM    C1517502   2.074   0.766   1.947 -0.1403 -0.3411  0.0801
  157OSM   H15A17503   2.158   0.698   1.948 -0.7295 -1.0912  1.4526
  157OSM   H15B17504   2.039   0.806   1.853 -0.9119  0.7408  0.8030
  157OSM   H15C17505   1.996   0.716   2.003  0.3049 -1.0422  0.0815
  157OSM    C1417506   2.170   0.824   2.158 -0.2143  0.1241 -0.8709
  157OSM   H14A17507   2.251   0.759   2.130 -0.2904  1.1170 -3.7000
  157OSM   H14B17508   2.097   0.767   2.214  2.1403 -0.5917  1.7409
  157OSM   H14C17509   2.198   0.900   2.230  0.2092 -1.3151  0.5358
  157OSM    C1317510   2.218   0.957   1.960  0.1506  0.1748  0.5334
  157OSM   H13A17511   2.184   1.003   1.868  1.7463 -1.6624 -1.0656
  157OSM   H13B17512   2.307   0.897   1.951  0.2208  0.3993 -0.4148
  157OSM   H13C17513   2.241   1.042   2.023  0.6633  0.1843  0.3373
  157OSM    C1217514   1.986   0.967   2.058  0.3869 -0.7289  0.1351
  157OSM   H12A17515   1.943   0.993   1.962  3.9707  0.3892 -1.3198
  157OSM   H12B17516   2.008   1.064   2.100 -1.8851  0.9014 -2.1120
  157OSM    C1117517   1.873   0.916   2.152  0.3661  0.3489  0.1297
  157OSM   H11A17518   1.787   0.982   2.179  0.5424  1.0613 -0.9800
  157OSM   H11B17519   1.925   0.889   2.247  2.7167  1.7710 -0.6453
  157OSM      P17520   1.719   0.787   1.986 -0.1705 -0.4539  0.2710
  157OSM    O1317521   1.761   0.892   1.892  0.3490  0.4844  0.3239
  157OSM    O1417522   1.723   0.644   1.937 -0.1735  0.2227 -0.2747
  157OSM    O1117523   1.583   0.803   2.066 -0.4218  0.3385 -0.0940
  157OSM    O1217524   1.822   0.788   2.103  0.2756 -0.3918 -0.7125
  157OSM    C1S17525   1.541   0.703   2.156  0.1048 -0.5718 -0.3099
  157OSM    H1S17526   1.614   0.619   2.160  0.3401 -0.3237  0.5837
  157OSM    H1T17527   1.444   0.658   2.123 -1.0687  1.3450  0.3786
  157OSM     NF17528   1.464   0.634   2.373 -0.0674  0.1380  0.0279
  157OSM    HNF17529   1.365   0.635   2.379 -0.0564  1.8337  0.4128
  157OSM    C2S17530   1.511   0.750   2.300 -0.0907  0.3597  0.6082
  157OSM    H2S17531   1.611   0.780   2.340 -0.3594  0.6304  1.0900
  157OSM    C3S17532   1.410   0.874   2.292  0.0932 -0.5083  0.4648
  157OSM    H3S17533   1.315   0.821   2.270  0.1951 -0.4317 -0.1821
  157OSM     O317534   1.428   0.966   2.180 -0.5561 -0.5404  0.0053
  157OSM    HO317535   1.479   0.914   2.118  0.9730 -2.0185  2.3641
  157OSM    C4S17536   1.405   0.957   2.417 -0.0362  0.2862 -0.1880
  157OSM    H4S17537   1.314   0.933   2.474 -1.7284  1.7867 -2.1040
  157OSM    C5S17538   1.483   1.066   2.448  0.1962 -0.4194 -0.3745
  157OSM    H5S17539   1.557   1.105   2.378  1.0915  1.7261  1.6196
  157OSM    C6S17540   1.456   1.156   2.568 -0.3279  0.9212 -0.3923
  157OSM    H6S17541   1.351   1.136   2.599 -1.3569 -0.4331 -4.1819
  157OSM    H6T17542   1.469   1.261   2.536  3.0709 -0.2000 -3.3561
  157OSM    C7S17543   1.555   1.123   2.684  0.1804  0.7104  0.7135
  157OSM    H7S17544   1.665   1.133   2.673  0.5693 -2.0137  1.3758
  157OSM    H7T17545   1.542   1.018   2.718  0.8034  0.7242  1.0030
  157OSM    C8S17546   1.528   1.216   2.808  0.4913 -0.1994  0.3745
  157OSM    H8S17547   1.418   1.221   2.824  0.4759 -1.1350  0.6412
  157OSM    H8T17548   1.552   1.321   2.782 -0.4799  0.4515  1.9394
  157OSM    C9S17549   1.597   1.169   2.936 -0.4498 -0.0044 -0.8656
  157OSM    H9S17550   1.707   1.165   2.920 -0.6855 -1.1289 -2.3473
  157OSM    H9T17551   1.563   1.067   2.961 -0.4868  0.0989 -0.4862
  157OSM   C10S17552   1.548   1.260   3.053 -0.8490 -0.7190  0.2965
  157OSM   H10S17553   1.439   1.269   3.034 -0.6792 -1.4250 -1.2079
  157OSM   H10T17554   1.590   1.362   3.041  0.7356 -1.2409  1.0865
  157OSM   C11S17555   1.572   1.193   3.190 -0.6591  0.1521  0.7650
  157OSM   H11S17556   1.679   1.168   3.206 -0.3234  0.4536 -0.8151
  157OSM   H11T17557   1.526   1.092   3.189  0.6448 -0.4787 -0.7403
  157OSM   C12S17558   1.518   1.275   3.309  0.0753  0.1252  0.0761
  157OSM   H12S17559   1.411   1.289   3.285  0.2729  0.0439 -0.8773
  157OSM   H12T17560   1.566   1.375   3.313  0.4375  0.1671 -2.9529
  157OSM   C13S17561   1.544   1.213   3.447  0.3565 -0.1286  0.1297
  157OSM   H13S17562   1.651   1.213   3.477  0.6275 -1.1536 -0.7863
  157OSM   H13T17563   1.523   1.104   3.446  0.3289 -0.1501  1.3854
  157OSM   C14S17564   1.459   1.277   3.555  0.3311 -0.0944 -0.2091
  157OSM   H14S17565   1.350   1.259   3.541  0.4558 -1.1668  0.1477
  157OSM   H14T17566   1.466   1.388   3.544 -2.0862  0.0943 -0.3869
  157OSM   C15S17567   1.484   1.233   3.692 -0.3144 -0.2178  0.1508
  157OSM   H15S17568   1.594   1.239   3.700 -0.2122  1.7966 -1.8169
  157OSM   H15T17569   1.449   1.129   3.710  0.5660 -1.1441 -2.9634
  157OSM   C16S17570   1.439   1.334   3.795 -0.0060 -0.1971 -0.0311
  157OSM   H16S17571   1.408   1.285   3.889 -1.3911  0.7411  0.0333
  157OSM   H16T17572   1.351   1.394   3.764 -1.4464 -2.3566 -0.3728
  157OSM   C17S17573   1.551   1.429   3.840  0.5014  0.2808  0.2091
  157OSM   H17S17574   1.512   1.512   3.903 -1.3090 -0.4619  0.1189
  157OSM   H17T17575   1.591   1.484   3.752 -1.1872  0.1902 -0.6631
  157OSM   C18S17576   1.668   1.368   3.922 -0.5239 -0.1492  0.6390
  157OSM   H18S17577   1.734   1.451   3.953  0.9758 -1.4789  1.1270
  157OSM   H18T17578   1.721   1.295   3.857 -0.7658  0.4846 -0.2863
  157OSM   H18U17579   1.632   1.325   4.018 -1.2012  1.5271  1.1624
  157OSM    C1F17580   1.538   0.528   2.406  0.9183 -0.8427 -0.2958
  157OSM     OF17581   1.658   0.519   2.382  0.3441 -0.0666 -0.6018
  157OSM    C2F17582   1.472   0.424   2.475 -0.1976 -0.5286 -0.2124
  157OSM    H2F17583   1.550   0.362   2.525  1.2880 -1.1523 -3.0983
  157OSM    H2G17584   1.423   0.358   2.400 -2.7824 -1.7394  2.3252
  157OSM    C3F17585   1.357   0.455   2.580 -0.3701  0.2466  0.0727
  157OSM    H3F17586   1.331   0.358   2.627  1.1405 -0.2164 -0.0016
  157OSM    H3G17587   1.267   0.495   2.529 -0.2258 -0.1324 -0.4944
  157OSM    C4F17588   1.392   0.554   2.696 -0.1690  0.6063 -0.2707
  157OSM    H4F17589   1.304   0.561   2.764  0.8906 -1.0299  1.3708
  157OSM    H4G17590   1.415   0.650   2.645  2.3262  2.0602  3.1233
  157OSM    C5F17591   1.519   0.523   2.777 -0.3063  0.0482  0.1885
  157OSM    H5F17592   1.601   0.504   2.705 -0.4076  2.7214 -0.7060
  157OSM    H5G17593   1.497   0.438   2.846  1.9748 -3.4990 -3.0312
  157OSM    C6F17594   1.571   0.648   2.862  0.1209  0.0931 -0.1749
  157OSM    H6F17595   1.543   0.734   2.798 -1.9866 -0.2862  0.1715
  157OSM    H6G17596   1.681   0.647   2.879 -0.1013  1.1153  1.4989
  157OSM    C7F17597   1.493   0.657   2.994 -0.3478 -0.3167 -0.0909
  157OSM    H7F17598   1.398   0.600   2.985 -1.5506  1.5874 -0.1457
  157OSM    H7G17599   1.453   0.761   3.005 -1.9517 -0.7986 -1.0610
  157OSM    C8F17600   1.577   0.615   3.117  0.6389  0.1881  0.7239
  157OSM    H8F17601   1.634   0.519   3.114  0.5483  0.0087 -4.8986
  157OSM    H8G17602   1.500   0.598   3.196  0.0872  0.8620  0.3333
  157OSM    C9F17603   1.667   0.722   3.153 -0.1648 -0.4807  0.0320
  157OSM    H9F17604   1.714   0.765   3.064 -2.2163  0.4020 -0.6817
  157OSM   C10F17605   1.695   0.774   3.272 -0.1503  0.1213  0.6435
  157OSM   H10F17606   1.765   0.859   3.265  0.8216 -0.5606  1.7835
  157OSM   C11F17607   1.642   0.750   3.409  0.5685  0.5241  0.3250
  157OSM   H11F17608   1.561   0.674   3.399  1.6036 -0.9514  2.2098
  157OSM   H11G17609   1.587   0.832   3.461 -0.4452 -0.4108  0.7782
  157OSM   C12F17610   1.746   0.679   3.494  1.1090 -0.7683  0.7580
  157OSM   H12F17611   1.830   0.749   3.513  1.5635 -1.6654  2.1405
  157OSM   H12G17612   1.784   0.584   3.452  1.0977 -0.6298  0.4278
  157OSM   C13F17613   1.691   0.634   3.632  0.9207  0.9283  0.1053
  157OSM   H13F17614   1.756   0.559   3.682 -1.7751 -0.9929  0.9377
  157OSM   H13G17615   1.592   0.584   3.621  1.1656 -0.1092  2.1295
  157OSM   C14F17616   1.680   0.738   3.741  0.1663 -0.3608 -0.1099
  157OSM   H14F17617   1.578   0.782   3.740  0.8901  1.4663  1.0268
  157OSM   H14G17618   1.758   0.816   3.728 -0.8188  0.7539  0.4769
  157OSM   C15F17619   1.698   0.692   3.884  0.0701 -0.4529 -0.0172
  157OSM   H15F17620   1.808   0.683   3.889 -0.0029 -1.3258  0.2766
  157OSM   H15G17621   1.652   0.594   3.912 -0.1874 -0.8081 -1.5984
  157OSM   C16F17622   1.646   0.788   3.998  0.3878 -0.1411  0.4898
  157OSM   H16F17623   1.535   0.776   4.004 -0.1088  3.0857 -0.5298
  157OSM   H16G17624   1.660   0.897   3.981 -1.2648  0.0206 -0.0457
  157OSM   C17F17625   1.705   0.761   4.139 -0.3200  0.1922  0.8818
  157OSM   H17F17626   1.665   0.827   4.219 -0.9397  2.7600 -1.3722
  157OSM   H17G17627   1.813   0.785   4.135 -0.1617 -0.5869 -2.5655
  157OSM   C18F17628   1.707   0.617   4.177 -0.2338 -0.1999 -0.0507
  157OSM   H18F17629   1.604   0.581   4.199 -0.6636  2.2026  2.3432
  157OSM   H18G17630   1.767   0.603   4.269 -0.7380  1.2286  0.5293
  157OSM   H18H17631   1.747   0.544   4.103  0.4897 -1.4358  1.4953
  158OSM      N17632   0.154   4.155   2.471  0.1153  0.0780 -0.1221
  158OSM    C1517633   0.146   4.065   2.589  0.2279 -0.2528  0.8897
  158OSM   H15A17634   0.065   4.097   2.654 -1.1172 -2.8217  0.5714
  158OSM   H15B17635   0.245   4.075   2.634  0.1908  0.0683  0.9046
  158OSM   H15C17636   0.130   3.962   2.563 -0.2104 -0.2345  1.0738
  158OSM    C1417637   0.149   4.301   2.502  0.0645  0.8898  0.0539
  158OSM   H14A17638   0.048   4.333   2.522 -1.2679 -1.8402 -1.8262
  158OSM   H14B17639   0.186   4.362   2.421  0.8450 -1.1622 -1.2204
  158OSM   H14C17640   0.188   4.333   2.598 -0.6430 -0.3282  0.7774
  158OSM    C1317641   0.284   4.122   2.400 -0.3574  0.2353 -0.4101
  158OSM   H13A17642   0.289   4.173   2.305  1.1177 -1.0346 -1.0604
  158OSM   H13B17643   0.271   4.019   2.368 -2.8870  0.2508  0.3543
  158OSM   H13C17644   0.369   4.141   2.463 -1.7045 -0.3040  1.6561
  158OSM    C1217645   0.039   4.123   2.381  0.8235  0.3875 -0.3706
  158OSM   H12A17646   0.031   4.018   2.360 -0.8373 -0.1173  2.3026
  158OSM   H12B17647   0.042   4.164   2.281 -0.0574 -2.7405 -1.7769
  158OSM    C1117648  -0.101   4.152   2.442  0.2277  0.3973  0.9118
  158OSM   H11A17649  -0.098   4.220   2.531  2.3980  0.5325  0.7936
  158OSM   H11B17650  -0.145   4.054   2.468 -1.5391  0.8026 -0.4096
  158OSM      P17651  -0.192   4.347   2.302  0.1998 -0.3152 -0.0276
  158OSM    O1317652  -0.058   4.401   2.268  0.3991 -0.3300 -0.8811
  158OSM    O1417653  -0.291   4.364   2.194  0.3673 -0.0801  1.4241
  158OSM    O1117654  -0.248   4.419   2.427  0.3509 -0.2419 -0.7012
  158OSM    O1217655  -0.181   4.196   2.333 -0.3124 -0.5021 -0.5463
  158OSM    C1S17656  -0.361   4.372   2.499  0.7202 -0.3669 -0.3155
  158OSM    H1S17657  -0.332   4.271   2.537 -0.5745  0.0452  1.9377
  158OSM    H1T17658  -0.447   4.349   2.432 -1.1588 -2.5076  2.6034
  158OSM     NF17659  -0.525   4.417   2.678  0.3717  0.6444 -0.0919
  158OSM    HNF17660  -0.617   4.443   2.648 -0.2913 -1.7211 -0.2915
  158OSM    C2S17661  -0.407   4.467   2.608 -0.8966 -0.0668 -0.8814
  158OSM    H2S17662  -0.330   4.476   2.688 -2.4263  0.6231  0.5657
  158OSM    C3S17663  -0.439   4.602   2.548 -0.1165  0.1829  0.3981
  158OSM    H3S17664  -0.531   4.596   2.486  0.8188  1.9265 -1.2715
  158OSM     O317665  -0.337   4.657   2.464 -0.0829  0.3134 -0.0932
  158OSM    HO317666  -0.285   4.579   2.449 -1.0235 -0.2252 -0.6425
  158OSM    C4S17667  -0.472   4.702   2.658  0.2009  1.2745 -0.1201
  158OSM    H4S17668  -0.388   4.701   2.729 -1.2564 -0.7484  1.7186
  158OSM    C5S17669  -0.572   4.787   2.661  0.5483  0.4779 -0.1289
  158OSM    H5S17670  -0.644   4.783   2.577  0.6710 -2.1017 -0.1741
  158OSM    C6S17671  -0.595   4.894   2.751  0.9585 -0.5436 -0.1415
  158OSM    H6S17672  -0.703   4.901   2.777  1.1196  0.6709  0.2788
  158OSM    H6T17673  -0.577   4.992   2.702  0.7189 -0.7243 -0.5926
  158OSM    C7S17674  -0.512   4.885   2.880  0.3886  0.5927  0.7442
  158OSM    H7S17675  -0.410   4.922   2.855  0.4969 -0.4637 -0.4858
  158OSM    H7T17676  -0.518   4.779   2.912 -1.1430  0.4863  0.1739
  158OSM    C8S17677  -0.565   4.962   2.990  0.9419 -0.3753 -0.2110
  158OSM    H8S17678  -0.665   4.934   3.029  0.3631  1.3107 -0.4096
  158OSM    H8T17679  -0.593   5.066   2.962 -1.5346 -1.1521 -0.8980
  158OSM    C9S17680  -0.466   4.957   3.109  0.4487  0.5356  0.1642
  158OSM    H9S17681  -0.372   5.001   3.069  0.4612 -1.0745 -1.7205
  158OSM    H9T17682  -0.445   4.852   3.136  0.8700  0.6447  0.2834
  158OSM   C10S17683  -0.517   5.039   3.227  0.0780 -0.8955  0.3201
  158OSM   H10S17684  -0.618   4.994   3.240  1.9057 -5.5928  0.0082
  158OSM   H10T17685  -0.521   5.148   3.206  0.4621 -1.1274 -1.0314
  158OSM   C11S17686  -0.432   5.033   3.351 -0.1114 -0.1557  0.2330
  158OSM   H11S17687  -0.354   5.112   3.352 -0.0302 -0.1657 -1.7912
  158OSM   H11T17688  -0.379   4.936   3.351 -1.5147 -0.9734  1.5218
  158OSM   C12S17689  -0.514   5.050   3.481 -0.4382 -0.5464 -0.6836
  158OSM   H12S17690  -0.577   4.959   3.492  2.0484 -2.3152 -0.1793
  158OSM   H12T17691  -0.575   5.139   3.456 -0.4250 -0.0973  0.7855
  158OSM   C13S17692  -0.435   5.093   3.608  0.5684  0.3623  0.0013
  158OSM   H13S17693  -0.498   5.131   3.691  0.5474 -1.0815  0.6828
  158OSM   H13T17694  -0.359   5.168   3.578  1.6087 -1.6519 -2.9253
  158OSM   C14S17695  -0.339   4.978   3.654 -0.6510  0.1447  0.4353
  158OSM   H14S17696  -0.254   4.978   3.582  0.0325 -0.3460  1.2133
  158OSM   H14T17697  -0.392   4.882   3.639 -0.7232  0.1907  0.3951
  158OSM   C15S17698  -0.281   4.992   3.795  0.8928  0.0547 -0.1373
  158OSM   H15S17699  -0.202   5.070   3.796 -0.4040  1.4483 -1.6260
  158OSM   H15T17700  -0.241   4.894   3.831 -0.4713 -0.6149 -0.3693
  158OSM   C16S17701  -0.383   5.036   3.904 -0.4789 -0.5162 -0.2447
  158OSM   H16S17702  -0.479   4.980   3.891 -0.1709 -1.4543  1.2906
  158OSM   H16T17703  -0.407   5.143   3.887 -2.3843 -0.4733  2.0220
  158OSM   C17S17704  -0.327   5.021   4.049 -0.2055 -0.0940  0.1107
  158OSM   H17S17705  -0.217   5.032   4.051 -0.4075  2.6539  0.7009
  158OSM   H17T17706  -0.354   4.921   4.088 -1.4496  0.4179  0.6109
  158OSM   C18S17707  -0.374   5.121   4.151  0.3802  0.0664 -0.0183
  158OSM   H18S17708  -0.350   5.092   4.255  1.3469  2.5289  0.5000
  158OSM   H18T17709  -0.484   5.130   4.147  0.3785  0.1402  0.1869
  158OSM   H18U17710  -0.329   5.217   4.118 -2.2346  0.8002 -1.7946
  158OSM    C1F17711  -0.518   4.313   2.761  0.0662  0.0808  0.0094
  158OSM     OF17712  -0.415   4.270   2.804 -0.0743 -0.1840 -0.3907
  158OSM    C2F17713  -0.650   4.257   2.807  0.1034  0.3008  0.4331
  158OSM    H2F17714  -0.632   4.149   2.826 -2.6975 -0.4740 -0.7540
  158OSM    H2G17715  -0.722   4.280   2.725  2.4122 -0.0415 -1.7992
  158OSM    C3F17716  -0.685   4.325   2.943  0.4578 -0.0413 -0.3980
  158OSM    H3F17717  -0.619   4.300   3.029 -2.6809 -2.2769  1.6290
  158OSM    H3G17718  -0.783   4.283   2.976  1.2488 -0.9072  0.9617
  158OSM    C4F17719  -0.694   4.478   2.941 -0.4830 -0.3413 -0.3691
  158OSM    H4F17720  -0.738   4.527   2.851  1.0274 -1.0429 -1.5239
  158OSM    H4G17721  -0.589   4.513   2.948 -0.7258  0.4172 -0.4446
  158OSM    C5F17722  -0.777   4.528   3.065  0.4193 -0.1666  0.5009
  158OSM    H5F17723  -0.748   4.478   3.159  0.2322 -1.0154  0.1098
  158OSM    H5G17724  -0.885   4.511   3.044  0.0333  1.4641  1.0044
  158OSM    C6F17725  -0.743   4.674   3.105  0.3322 -0.1162 -0.3798
  158OSM    H6F17726  -0.784   4.731   3.020 -1.7696  1.2435  1.4246
  158OSM    H6G17727  -0.632   4.676   3.097  0.3795 -3.1361 -1.7361
  158OSM    C7F17728  -0.800   4.716   3.239  0.1545 -0.4043 -0.0756
  158OSM    H7F17729  -0.737   4.802   3.270 -1.0733 -0.0221  1.5104
  158OSM    H7G17730  -0.778   4.631   3.307  0.0780 -1.2324 -1.0491
  158OSM    C8F17731  -0.946   4.757   3.263 -0.6651 -0.4090 -0.7940
  158OSM    H8F17732  -0.947   4.759   3.374  0.0912 -0.8036 -0.7799
  158OSM    H8G17733  -1.022   4.682   3.232 -2.2917  0.0549  1.8020
  158OSM    C9F17734  -0.963   4.893   3.194  0.2283  1.4055  0.3010
  158OSM    H9F17735  -0.931   4.898   3.089 -0.8754  0.3323 -0.1085
  158OSM   C10F17736  -1.005   5.007   3.254 -0.2936  0.1815 -1.2195
  158OSM   H10F17737  -1.019   5.098   3.194 -0.1736  0.8451 -0.2736
  158OSM   C11F17738  -1.052   5.027   3.400  0.3845  0.2679  0.3875
  158OSM   H11F17739  -1.065   4.928   3.447  0.1644  0.3527  0.5047
  158OSM   H11G17740  -1.151   5.077   3.404  0.0005 -0.5600  1.4752
  158OSM   C12F17741  -0.936   5.082   3.478  1.0705  0.7762 -0.8637
  158OSM   H12F17742  -0.924   5.187   3.443 -2.5408  1.0285 -1.7114
  158OSM   H12G17743  -0.844   5.024   3.456  0.5310  0.2179 -1.6592
  158OSM   C13F17744  -0.952   5.091   3.629 -0.3328  0.1547  0.3047
  158OSM   H13F17745  -0.968   4.988   3.665 -0.0448 -0.6726 -1.7621
  158OSM   H13G17746  -1.047   5.143   3.654  0.0374  0.5208  0.9809
  158OSM   C14F17747  -0.826   5.147   3.701 -0.4552  0.4410 -0.6917
  158OSM   H14F17748  -0.793   5.245   3.661 -0.5219  0.0031 -1.8536
  158OSM   H14G17749  -0.748   5.070   3.683 -0.3520  0.2050  0.6668
  158OSM   C15F17750  -0.844   5.164   3.857 -0.1251 -0.7277 -0.6422
  158OSM   H15F17751  -0.864   5.060   3.892 -0.8315 -1.4698 -3.0202
  158OSM   H15G17752  -0.930   5.230   3.879  0.8774 -0.4854  3.2791
  158OSM   C16F17753  -0.725   5.241   3.926 -0.4033  0.3095 -0.0818
  158OSM   H16F17754  -0.706   5.342   3.886 -1.7288 -0.2253 -2.2033
  158OSM   H16G17755  -0.638   5.175   3.903 -0.2529  0.8566 -1.1053
  158OSM   C17F17756  -0.730   5.253   4.075  0.1226  0.5597  0.0516
  158OSM   H17F17757  -0.642   5.302   4.124 -0.7293  0.1560  2.0744
  158OSM   H17G17758  -0.731   5.156   4.128  3.3099  1.9119  3.0588
  158OSM   C18F17759  -0.844   5.346   4.120  0.0137  0.4050  0.0934
  158OSM   H18F17760  -0.848   5.363   4.230 -0.8615  2.0276 -0.1623
  158OSM   H18G17761  -0.941   5.297   4.097 -0.5858  0.8853  1.5251
  158OSM   H18H17762  -0.842   5.448   4.076  1.3212  0.3585  0.0231
  159OSM      N17763   1.507   5.258   2.051 -0.3908  0.2406 -0.5900
  159OSM    C1517764   1.478   5.299   1.910 -0.5687 -0.4904  0.3164
  159OSM   H15A17765   1.563   5.352   1.869 -0.5682 -1.3362 -0.8411
  159OSM   H15B17766   1.395   5.368   1.903  0.9263  1.2818 -1.1342
  159OSM   H15C17767   1.463   5.211   1.850 -0.0183 -0.0064 -0.5679
  159OSM    C1417768   1.387   5.191   2.117 -0.1620  0.4980 -0.6450
  159OSM   H14A17769   1.297   5.251   2.110 -0.1675  0.7582  1.1120
  159OSM   H14B17770   1.419   5.160   2.215 -3.8594  0.7980  0.8321
  159OSM   H14C17771   1.358   5.103   2.060 -0.3796  0.8703 -1.1126
  159OSM    C1317772   1.615   5.165   2.047 -0.2351  0.9262 -0.4114
  159OSM   H13A17773   1.591   5.070   2.001  0.0521  0.4695  0.3608
  159OSM   H13B17774   1.652   5.145   2.146 -2.5935  1.2652  0.5992
  159OSM   H13C17775   1.696   5.204   1.987  0.3448 -0.6104 -0.6650
  159OSM    C1217776   1.550   5.379   2.134 -0.1188  0.1915 -0.5964
  159OSM   H12A17777   1.479   5.458   2.114  0.8555  1.0977 -0.5829
  159OSM   H12B17778   1.642   5.422   2.097 -0.5828  1.4932 -0.3049
  159OSM    C1117779   1.557   5.357   2.287  0.0119 -0.3293  0.8789
  159OSM   H11A17780   1.619   5.441   2.323 -1.4248  2.0114 -1.6489
  159OSM   H11B17781   1.608   5.262   2.311 -0.9773 -0.7152  1.5334
  159OSM      P17782   1.307   5.458   2.338 -0.2813 -0.0293  0.3968
  159OSM    O1317783   1.191   5.398   2.263 -0.4727 -0.4009 -0.3407
  159OSM    O1417784   1.278   5.509   2.477  0.0516  0.2596  0.9661
  159OSM    O1117785   1.378   5.572   2.250 -0.3621 -0.1362 -0.2155
  159OSM    O1217786   1.429   5.354   2.346  0.1343  0.6088  0.4556
  159OSM    C1S17787   1.305   5.683   2.202  0.8205  0.5782 -0.2962
  159OSM    H1S17788   1.196   5.675   2.219  0.9081  0.7855  0.3928
  159OSM    H1T17789   1.310   5.681   2.091 -2.3037  1.0777 -0.5293
  159OSM     NF17790   1.270   5.927   2.252 -0.2961 -0.6674 -0.1274
  159OSM    HNF17791   1.299   5.990   2.180  2.0143 -0.8051  0.5843
  159OSM    C2S17792   1.355   5.811   2.274 -0.5593  0.4569  0.2337
  159OSM    H2S17793   1.336   5.779   2.378 -3.3028 -0.5487 -0.4938
  159OSM    C3S17794   1.509   5.843   2.247 -0.1107 -0.2505 -0.4017
  159OSM    H3S17795   1.499   5.885   2.144 -0.5725  1.0292  0.1395
  159OSM     O317796   1.597   5.730   2.233  0.1562  0.0034  0.0131
  159OSM    HO317797   1.542   5.651   2.233  0.6011 -0.3134 -0.0635
  159OSM    C4S17798   1.562   5.956   2.337  0.1665  0.3456 -0.3126
  159OSM    H4S17799   1.519   6.054   2.311 -2.0422 -1.1991 -3.1345
  159OSM    C5S17800   1.633   5.951   2.452 -0.4537  0.4543 -0.8629
  159OSM    H5S17801   1.674   5.856   2.487 -0.8875 -0.1847 -2.0297
  159OSM    C6S17802   1.648   6.071   2.545 -0.5771  0.8168 -0.2016
  159OSM    H6S17803   1.551   6.125   2.559 -3.4712 -3.6159 -1.0335
  159OSM    H6T17804   1.726   6.131   2.495 -1.6880 -0.5505 -3.9395
  159OSM    C7S17805   1.681   6.005   2.686 -0.1891 -0.6945  0.7645
  159OSM    H7S17806   1.770   5.938   2.682  0.1880 -0.1688  0.1037
  159OSM    H7T17807   1.590   5.948   2.712 -0.8188  0.3142  0.8313
  159OSM    C8S17808   1.697   6.121   2.789  0.3613 -0.1946 -0.3246
  159OSM    H8S17809   1.603   6.180   2.779  0.8564  0.3208 -2.3476
  159OSM    H8T17810   1.771   6.201   2.767  0.7473 -0.3040  0.5440
  159OSM    C9S17811   1.707   6.065   2.927 -0.3532  0.0557  0.3968
  159OSM    H9S17812   1.812   6.037   2.950 -1.5037 -4.4751  1.1844
  159OSM    H9T17813   1.658   5.966   2.940 -0.5532 -0.3677 -2.8017
  159OSM   C10S17814   1.671   6.164   3.038 -0.2396  0.6099  0.7446
  159OSM   H10S17815   1.568   6.203   3.024  0.0928  0.2181 -4.4982
  159OSM   H10T17816   1.744   6.247   3.036  0.8400 -0.2129  2.8655
  159OSM   C11S17817   1.698   6.107   3.178 -0.1588  0.4879  0.3915
  159OSM   H11S17818   1.807   6.120   3.193 -0.1167  3.1391 -1.4703
  159OSM   H11T17819   1.659   6.003   3.182  0.3044  0.3186  0.5099
  159OSM   C12S17820   1.625   6.192   3.292 -0.5542  0.5398 -0.4171
  159OSM   H12S17821   1.515   6.178   3.283 -0.1709 -2.0148 -1.9596
  159OSM   H12T17822   1.651   6.300   3.279 -0.9057  0.6769 -0.0253
  159OSM   C13S17823   1.665   6.158   3.442  0.3025 -0.5719 -0.7571
  159OSM   H13S17824   1.635   6.052   3.455  2.0298 -1.1986 -1.5984
  159OSM   H13T17825   1.597   6.219   3.505  1.1693  0.1778 -0.5341
  159OSM   C14S17826   1.812   6.178   3.476 -0.5100 -0.3796 -0.1856
  159OSM   H14S17827   1.839   6.278   3.436  0.5193 -0.1216  1.0820
  159OSM   H14T17828   1.884   6.101   3.441 -1.5545 -1.4275 -0.0710
  159OSM   C15S17829   1.849   6.196   3.624 -0.0798  0.4280  0.0036
  159OSM   H15S17830   1.815   6.291   3.671  0.7760 -0.1179  1.8224
  159OSM   H15T17831   1.959   6.210   3.623 -0.1860  1.8296  1.5674
  159OSM   C16S17832   1.813   6.082   3.722 -0.5231 -0.1939 -0.1137
  159OSM   H16S17833   1.828   5.994   3.655  1.3497  0.9670 -1.2951
  159OSM   H16T17834   1.706   6.088   3.752  0.0084  0.7321  1.7637
  159OSM   C17S17835   1.889   6.068   3.855  0.4204  0.5762 -0.4178
  159OSM   H17S17836   1.998   6.071   3.837  0.3329  0.4452 -0.9987
  159OSM   H17T17837   1.863   5.962   3.877 -1.2674  0.9534 -0.4385
  159OSM   C18S17838   1.837   6.173   3.960  0.3572 -0.1239  0.5697
  159OSM   H18S17839   1.852   6.278   3.925 -2.5596  0.6115  1.2586
  159OSM   H18T17840   1.887   6.151   4.057 -0.3550  1.1174  1.2471
  159OSM   H18U17841   1.727   6.159   3.959  0.4679 -1.2843 -1.2258
  159OSM    C1F17842   1.150   5.934   2.308 -0.0430 -0.8796 -0.2610
  159OSM     OF17843   1.102   5.839   2.370 -0.0373 -0.1875 -0.1540
  159OSM    C2F17844   1.071   6.053   2.260 -0.2155  0.3592  0.2499
  159OSM    H2F17845   0.984   6.011   2.204 -0.2474  0.9294 -0.1342
  159OSM    H2G17846   1.116   6.110   2.177 -0.1402 -0.8797 -0.5982
  159OSM    C3F17847   1.035   6.150   2.372 -0.0847  0.5913  1.1467
  159OSM    H3F17848   0.992   6.098   2.460 -1.1900 -0.9794 -0.2635
  159OSM    H3G17849   0.954   6.213   2.329 -1.3723 -1.9925 -0.4503
  159OSM    C4F17850   1.149   6.245   2.412  0.0235  0.0993  0.2366
  159OSM    H4F17851   1.103   6.337   2.454 -0.5705 -0.2945  0.4536
  159OSM    H4G17852   1.212   6.284   2.329  1.3675 -1.3929  0.4914
  159OSM    C5F17853   1.243   6.191   2.523  0.1169  0.0633  0.1280
  159OSM    H5F17854   1.294   6.286   2.551 -1.9521  0.6839  2.0931
  159OSM    H5G17855   1.321   6.118   2.493 -0.7773 -1.2401  0.9147
  159OSM    C6F17856   1.180   6.149   2.659  0.4158  0.4524 -0.2211
  159OSM    H6F17857   1.160   6.040   2.649  2.9914  0.0733 -2.0530
  159OSM    H6G17858   1.086   6.206   2.674 -0.7753 -1.8502  1.7542
  159OSM    C7F17859   1.263   6.170   2.786 -0.1021 -0.2117  0.7170
  159OSM    H7F17860   1.296   6.274   2.806 -0.0876  0.2725 -1.5125
  159OSM    H7G17861   1.360   6.116   2.783  0.2061  0.3198  1.0086
  159OSM    C8F17862   1.193   6.129   2.918 -0.0820  0.1334  0.2040
  159OSM    H8F17863   1.092   6.175   2.921  1.4219  3.8326 -0.7300
  159OSM    H8G17864   1.241   6.180   3.004 -0.6003  0.8736  0.0638
  159OSM    C9F17865   1.182   5.980   2.955 -0.4604  0.5948  0.0100
  159OSM    H9F17866   1.159   5.910   2.874  2.3015  1.5084 -1.6967
  159OSM   C10F17867   1.219   5.929   3.072 -0.0806 -0.4965  0.3390
  159OSM   H10F17868   1.209   5.820   3.084 -3.1486 -0.1190  2.2505
  159OSM   C11F17869   1.266   6.004   3.193  0.5072 -0.8396  0.2264
  159OSM   H11F17870   1.211   6.101   3.197  0.6745 -0.7594  0.6159
  159OSM   H11G17871   1.373   6.029   3.177  0.1244  0.5442 -0.2982
  159OSM   C12F17872   1.257   5.914   3.321  0.3102 -0.3361  0.1534
  159OSM   H12F17873   1.328   5.830   3.307  0.4278 -0.1679 -0.2748
  159OSM   H12G17874   1.155   5.871   3.333  1.1766 -2.0432  2.0352
  159OSM   C13F17875   1.297   6.000   3.441 -0.1315  0.1601 -0.3283
  159OSM   H13F17876   1.212   6.064   3.475  0.0268  0.5713 -0.6977
  159OSM   H13G17877   1.379   6.063   3.401  0.1299  0.8465  1.2114
  159OSM   C14F17878   1.357   5.912   3.551 -0.0367 -0.4650  0.6545
  159OSM   H14F17879   1.436   5.843   3.512 -2.3664 -3.1289  0.3263
  159OSM   H14G17880   1.288   5.831   3.583 -0.8781  0.3898  1.0066
  159OSM   C15F17881   1.393   5.988   3.679 -0.3135  0.0097  0.0288
  159OSM   H15F17882   1.300   6.039   3.713 -0.6198 -0.8179  0.4464
  159OSM   H15G17883   1.472   6.064   3.660  1.1737 -1.2119  1.0243
  159OSM   C16F17884   1.435   5.883   3.780  0.2404  0.4243 -0.0454
  159OSM   H16F17885   1.533   5.836   3.755 -0.9933 -1.2097 -2.2785
  159OSM   H16G17886   1.356   5.805   3.790 -1.7595  2.2989 -0.5224
  159OSM   C17F17887   1.456   5.946   3.919 -0.6528 -0.5579  0.9239
  159OSM   H17F17888   1.517   6.036   3.941  0.9359 -1.9999  2.7593
  159OSM   H17G17889   1.504   5.879   3.994 -1.8629 -1.7956  0.6421
  159OSM   C18F17890   1.320   5.980   3.984 -0.0595  0.1269 -0.3237
  159OSM   H18F17891   1.277   6.071   3.938 -3.8033 -0.6757  1.2420
  159OSM   H18G17892   1.321   6.001   4.093 -0.8504 -0.2079 -0.2452
  159OSM   H18H17893   1.251   5.896   3.963 -1.9241  1.2094  1.2246
  160OSM      N17894   6.157   2.814   2.069 -0.1860  0.5359  0.0645
  160OSM    C1517895   6.092   2.878   1.946 -0.3701 -0.4261 -0.3012
  160OSM   H15A17896   6.060   2.796   1.884 -1.4196 -1.1076  1.0785
  160OSM   H15B17897   6.163   2.940   1.893 -0.4254 -1.3834 -1.5177
  160OSM   H15C17898   6.007   2.935   1.981  0.6091  0.8408  0.0986
  160OSM    C1417899   6.274   2.739   2.029  0.1263  0.5525 -0.3327
  160OSM   H14A17900   6.323   2.693   2.113  2.7845  0.8335 -1.6288
  160OSM   H14B17901   6.348   2.815   2.008  3.2320 -1.5350  2.2408
  160OSM   H14C17902   6.256   2.667   1.950 -0.5581 -0.7711  0.9815
  160OSM    C1317903   6.196   2.925   2.167  0.3130 -0.0480 -0.3480
  160OSM   H13A17904   6.266   2.895   2.243  1.8512  4.4368  0.3101
  160OSM   H13B17905   6.107   2.961   2.215  0.7900  2.3676 -1.1085
  160OSM   H13C17906   6.230   3.009   2.108  1.4768  1.0441  1.7662
  160OSM    C1217907   6.052   2.728   2.138  0.3272  0.2008 -0.2620
  160OSM   H12A17908   6.031   2.642   2.075  1.2897 -0.3361  0.1338
  160OSM   H12B17909   5.968   2.793   2.156 -1.4228 -1.3848 -2.2416
  160OSM    C1117910   6.082   2.689   2.284 -0.5737  0.4439 -0.2767
  160OSM   H11A17911   6.001   2.625   2.324  0.0788 -1.4769 -1.8760
  160OSM   H11B17912   6.087   2.780   2.347 -0.9422  0.8141 -0.7660
  160OSM      P17913   6.302   2.600   2.406 -0.0913 -0.1560 -0.4164
  160OSM    O1317914   6.338   2.456   2.429  0.1655  0.1580 -0.8755
  160OSM    O1417915   6.408   2.693   2.377  0.0753 -0.7034 -0.0805
  160OSM    O1117916   6.225   2.643   2.535  0.2797  0.4211 -0.2971
  160OSM    O1217917   6.194   2.611   2.289  0.3021  0.1572 -0.2563
  160OSM    C1S17918   6.167   2.532   2.611  0.0739 -0.6572  0.4324
  160OSM    H1S17919   6.246   2.469   2.656  0.0968  0.8838  2.7503
  160OSM    H1T17920   6.097   2.466   2.557  0.6667 -0.2508 -0.8569
  160OSM     NF17921   6.063   2.491   2.833 -0.5125  0.3100  0.3937
  160OSM    HNF17922   5.972   2.454   2.848 -0.1622 -0.0688  1.6672
  160OSM    C2S17923   6.086   2.596   2.732  0.4504  0.0345  0.5280
  160OSM    H2S17924   6.152   2.673   2.778 -0.2934  0.2365  1.2665
  160OSM    C3S17925   5.964   2.676   2.688  0.8756 -0.1666  0.1716
  160OSM    H3S17926   5.897   2.603   2.639  0.4545 -1.8475  2.9930
  160OSM     O317927   5.991   2.776   2.586  0.0738 -0.0679 -1.1529
  160OSM    HO317928   6.084   2.763   2.564 -0.2448 -4.3224 -0.8827
  160OSM    C4S17929   5.886   2.728   2.803 -0.7474  0.0432  0.0723
  160OSM    H4S17930   5.813   2.652   2.835  0.6014 -1.6154 -0.6835
  160OSM    C5S17931   5.904   2.848   2.864 -0.4201  0.1664 -0.4627
  160OSM    H5S17932   5.987   2.911   2.827  1.3478 -2.9680 -2.2652
  160OSM    C6S17933   5.833   2.914   2.976 -0.3428  0.8338  0.3384
  160OSM    H6S17934   5.759   2.990   2.941  1.9691  2.8423 -0.4944
  160OSM    H6T17935   5.903   2.976   3.036  1.3819 -0.2109 -0.5185
  160OSM    C7S17936   5.769   2.805   3.066  0.0209  0.2593  0.0050
  160OSM    H7S17937   5.841   2.730   3.103  1.1115  0.3080 -1.9189
  160OSM    H7T17938   5.695   2.749   3.006  0.9254 -0.6274 -0.2987
  160OSM    C8S17939   5.701   2.871   3.190 -0.7329  0.3951 -0.4727
  160OSM    H8S17940   5.608   2.924   3.160 -0.5818  1.0674  0.2033
  160OSM    H8T17941   5.767   2.953   3.224 -0.2988 -1.1318  2.7859
  160OSM    C9S17942   5.670   2.786   3.315 -0.6447  0.5665 -0.0140
  160OSM    H9S17943   5.759   2.732   3.352  0.2478  1.3739 -0.8975
  160OSM    H9T17944   5.617   2.697   3.273 -1.3680  0.8514  0.2741
  160OSM   C10S17945   5.589   2.857   3.428 -1.0291 -0.2315 -0.0348
  160OSM   H10S17946   5.513   2.924   3.382  1.5324  2.8833 -0.0689
  160OSM   H10T17947   5.658   2.926   3.480 -0.9831 -1.4474  1.6104
  160OSM   C11S17948   5.529   2.763   3.533 -0.3419 -0.1768  0.6174
  160OSM   H11S17949   5.454   2.694   3.489 -0.1183  0.8387 -1.4714
  160OSM   H11T17950   5.482   2.819   3.617  3.2433  1.3103  1.8357
  160OSM   C12S17951   5.632   2.668   3.591 -0.5810  0.0412  0.1269
  160OSM   H12S17952   5.669   2.589   3.522  0.6367  0.8270 -0.1517
  160OSM   H12T17953   5.584   2.613   3.674 -0.8778  1.8535  1.2233
  160OSM   C13S17954   5.758   2.731   3.639  0.0944 -0.7371 -1.2538
  160OSM   H13S17955   5.807   2.790   3.559 -1.2742  1.1352 -0.7969
  160OSM   H13T17956   5.835   2.655   3.662  0.5774 -0.5625 -2.2313
  160OSM   C14S17957   5.749   2.835   3.756  0.4391  0.2571  0.1347
  160OSM   H14S17958   5.725   2.794   3.857  0.4805  0.9157  0.4202
  160OSM   H14T17959   5.666   2.904   3.730  0.0535  0.9266  2.7929
  160OSM   C15S17960   5.878   2.920   3.757  0.8729  0.1418  0.3047
  160OSM   H15S17961   5.897   2.964   3.657  0.6836 -1.8225 -0.6503
  160OSM   H15T17962   5.956   2.846   3.782  0.6361  1.1572  4.7827
  160OSM   C16S17963   5.879   3.031   3.864 -0.2706 -0.7512 -0.1787
  160OSM   H16S17964   5.853   2.990   3.964  0.7604  0.3926  0.5969
  160OSM   H16T17965   5.807   3.109   3.830  1.6432  0.4921 -1.6385
  160OSM   C17S17966   6.012   3.116   3.878  0.0432  0.3988  0.5699
  160OSM   H17S17967   6.006   3.180   3.969 -0.7855 -1.6726  2.0500
  160OSM   H17T17968   6.019   3.186   3.791  0.1445 -1.5331 -1.0548
  160OSM   C18S17969   6.138   3.026   3.881  0.2763 -0.4736 -0.6169
  160OSM   H18S17970   6.122   2.942   3.952  0.5401  0.3280  0.4187
  160OSM   H18T17971   6.214   3.104   3.901 -1.3535  1.0679 -0.1486
  160OSM   H18U17972   6.148   2.979   3.781 -1.1359  1.6031 -1.8018
  160OSM    C1F17973   6.167   2.439   2.895 -0.2670 -0.0249  0.1864
  160OSM     OF17974   6.272   2.508   2.908 -0.8103 -0.0078 -0.1718
  160OSM    C2F17975   6.159   2.300   2.954  0.3558 -0.3984  0.4105
  160OSM    H2F17976   6.174   2.225   2.873  0.6817 -0.5458  0.6068
  160OSM    H2G17977   6.055   2.275   2.983 -0.4137  0.1686 -1.6526
  160OSM    C3F17978   6.269   2.283   3.067 -0.6932  0.3575 -0.2389
  160OSM    H3F17979   6.365   2.296   3.012  0.0823 -0.0758  0.9605
  160OSM    H3G17980   6.279   2.178   3.102  0.8947  0.6638  0.3244
  160OSM    C4F17981   6.253   2.364   3.198  0.1556  0.0654  0.0644
  160OSM    H4F17982   6.151   2.357   3.240 -1.0873  1.3389 -2.4910
  160OSM    H4G17983   6.270   2.472   3.178 -1.3604  0.6553  1.6961
  160OSM    C5F17984   6.368   2.322   3.298  0.0425  0.8420 -0.0686
  160OSM    H5F17985   6.398   2.413   3.355 -0.2927 -0.7099  2.7781
  160OSM    H5G17986   6.456   2.287   3.239  1.2207 -0.6236  2.3651
  160OSM    C6F17987   6.324   2.213   3.394  0.1859  0.6598  0.3565
  160OSM    H6F17988   6.314   2.119   3.336 -0.5060  0.9235  0.0328
  160OSM    H6G17989   6.229   2.230   3.449  1.2498  1.5720  2.0046
  160OSM    C7F17990   6.425   2.179   3.508 -0.3406 -0.0376 -0.0432
  160OSM    H7F17991   6.452   2.272   3.563 -1.3388 -0.7534  1.7290
  160OSM    H7G17992   6.517   2.129   3.470 -0.5070 -1.2937  1.1168
  160OSM    C8F17993   6.361   2.076   3.605  0.6131 -0.2102  0.4288
  160OSM    H8F17994   6.320   1.995   3.542 -0.6977  0.5580  0.2677
  160OSM    H8G17995   6.282   2.132   3.658 -0.2436  0.1632 -1.1864
  160OSM    C9F17996   6.461   2.003   3.693 -0.5821  1.1963  0.2773
  160OSM    H9F17997   6.534   1.951   3.630 -1.3424  0.4519 -0.0067
  160OSM   C10F17998   6.468   1.982   3.828  0.4684 -0.5699  0.0826
  160OSM   H10F17999   6.533   1.907   3.874 -1.8134 -2.2587  0.7199
  160OSM   C11F18000   6.366   2.022   3.934  0.6859 -0.9844 -0.2545
  160OSM   H11F18001   6.340   1.936   3.999 -0.8502  0.3101  0.9186
  160OSM   H11G18002   6.275   2.056   3.881  1.2881  0.4385 -0.4230
  160OSM   C12F18003   6.392   2.144   4.038  0.1731 -0.7403  0.2761
  160OSM   H12F18004   6.432   2.228   3.977  4.6942 -2.4644  0.4468
  160OSM   H12G18005   6.472   2.123   4.112  1.4041  0.7354 -0.5710
  160OSM   C13F18006   6.264   2.184   4.103 -0.7561 -0.8135  0.0548
  160OSM   H13F18007   6.230   2.099   4.167 -3.6279  0.3915  0.2925
  160OSM   H13G18008   6.190   2.210   4.024 -1.1912  1.4480  1.1505
  160OSM   C14F18009   6.276   2.318   4.179 -0.8224  0.1248  0.4644
  160OSM   H14F18010   6.171   2.338   4.210 -1.1873 -0.3058 -0.4603
  160OSM   H14G18011   6.310   2.401   4.113 -1.0353 -0.1211  0.0424
  160OSM   C15F18012   6.376   2.305   4.295  0.1612  0.2333 -0.8456
  160OSM   H15F18013   6.481   2.280   4.268  0.0815  1.3541 -2.3547
  160OSM   H15G18014   6.348   2.223   4.365 -0.7133  0.8001 -0.5175
  160OSM   C16F18015   6.375   2.434   4.376 -0.3446 -0.2807 -0.5060
  160OSM   H16F18016   6.442   2.409   4.461  0.4530 -0.5717 -1.2140
  160OSM   H16G18017   6.272   2.450   4.414 -0.7162 -0.0050 -1.6203
  160OSM   C17F18018   6.421   2.557   4.305  0.0370 -0.9754 -0.3860
  160OSM   H17F18019   6.353   2.588   4.223  0.5050 -3.2504 -1.7294
  160OSM   H17G18020   6.510   2.527   4.247  1.0576  1.3409 -0.1062
  160OSM   C18F18021   6.463   2.674   4.388 -0.1914 -0.5700 -1.2467
  160OSM   H18F18022   6.375   2.736   4.417  0.1687  0.2256 -1.8068
  160OSM   H18G18023   6.516   2.754   4.332  1.1749 -0.3702  0.2525
  160OSM   H18H18024   6.520   2.654   4.481 -0.4213  1.8718 -0.5067
  161OSM      N18025   3.870   2.016   2.222 -0.3477 -0.0663 -0.0596
  161OSM    C1518026   3.924   1.880   2.186  1.2357 -0.4128 -0.0002
  161OSM   H15A18027   3.868   1.798   2.229  1.4809 -0.5614  0.0379
  161OSM   H15B18028   4.026   1.869   2.222  1.8526 -0.6692 -1.7453
  161OSM   H15C18029   3.931   1.863   2.080  1.6390 -2.4207  0.2999
  161OSM    C1418030   3.864   2.022   2.369 -0.0292 -0.2100 -0.2138
  161OSM   H14A18031   3.958   1.987   2.408 -0.5429  0.8258  2.1283
  161OSM   H14B18032   3.792   1.955   2.413  1.5417 -1.6338  0.2897
  161OSM   H14C18033   3.850   2.122   2.407 -2.0198 -1.2113  1.9513
  161OSM    C1318034   3.960   2.123   2.170 -0.4297 -0.2463 -0.2311
  161OSM   H13A18035   3.925   2.216   2.214  1.1679 -0.4940  1.6889
  161OSM   H13B18036   3.962   2.120   2.063  0.5074 -1.0195 -0.2028
  161OSM   H13C18037   4.060   2.110   2.207  0.2139 -1.1737 -2.1908
  161OSM    C1218038   3.736   2.043   2.158  0.1867 -0.4247 -0.2329
  161OSM   H12A18039   3.745   2.061   2.052 -0.4910  1.3681 -0.0121
  161OSM   H12B18040   3.700   2.135   2.199  3.3787  0.6619  0.3776
  161OSM    C1118041   3.633   1.931   2.185 -0.1574  0.2691 -0.5221
  161OSM   H11A18042   3.665   1.843   2.126  2.7965  0.8058  0.1498
  161OSM   H11B18043   3.529   1.954   2.153 -0.5541  0.5019  0.8746
  161OSM      P18044   3.575   1.751   2.367 -0.0107  0.0744  0.1810
  161OSM    O1318045   3.451   1.717   2.293  0.1844 -0.1143  0.4011
  161OSM    O1418046   3.684   1.656   2.353 -0.9108 -0.2484 -0.3781
  161OSM    O1118047   3.541   1.744   2.522 -0.6049 -0.0659  0.3212
  161OSM    O1218048   3.623   1.897   2.319  0.3190  0.3869 -1.2751
  161OSM    C1S18049   3.476   1.847   2.601  0.1810 -0.1517  0.0867
  161OSM    H1S18050   3.367   1.827   2.606  0.5488 -2.8739 -1.1973
  161OSM    H1T18051   3.478   1.946   2.552 -0.3184 -0.1509  0.0628
  161OSM     NF18052   3.480   1.957   2.830  0.1945  0.0183 -0.4076
  161OSM    HNF18053   3.532   2.042   2.831 -0.3602  0.3586  1.3100
  161OSM    C2S18054   3.545   1.858   2.743  0.1777 -0.0361 -0.8383
  161OSM    H2S18055   3.537   1.755   2.784  1.0957  1.2968  3.1603
  161OSM    C3S18056   3.695   1.881   2.739  0.4319 -0.3605  0.0304
  161OSM    H3S18057   3.706   1.981   2.691 -0.0868 -1.2176 -1.9738
  161OSM     O318058   3.771   1.792   2.661  0.3036 -0.0982  0.5376
  161OSM    HO318059   3.703   1.747   2.610 -0.6847 -2.6944  3.7563
  161OSM    C4S18060   3.752   1.882   2.880 -0.7637  0.1145  0.9727
  161OSM    H4S18061   3.737   1.974   2.940  0.7028  2.4405 -1.9714
  161OSM    C5S18062   3.822   1.776   2.937  0.1802 -0.1793 -0.3223
  161OSM    H5S18063   3.828   1.683   2.879  0.3024 -2.5245  3.2041
  161OSM    C6S18064   3.868   1.756   3.079  0.2989 -0.3871 -1.0768
  161OSM    H6S18065   3.979   1.761   3.080  0.2521  2.8329 -1.6513
  161OSM    H6T18066   3.831   1.658   3.115 -0.0948 -0.2749 -1.1739
  161OSM    C7S18067   3.829   1.868   3.173  0.2635 -0.4587  0.4226
  161OSM    H7S18068   3.725   1.904   3.155  0.3329 -0.3725  0.1804
  161OSM    H7T18069   3.893   1.956   3.151  0.0106 -0.2046  0.7004
  161OSM    C8S18070   3.829   1.814   3.311  0.2891  0.4325  0.1821
  161OSM    H8S18071   3.939   1.802   3.324  0.3179  0.6700  0.1672
  161OSM    H8T18072   3.793   1.711   3.328 -1.2057  1.0424  0.9064
  161OSM    C9S18073   3.761   1.892   3.424 -1.0014  0.0664  0.9616
  161OSM    H9S18074   3.651   1.895   3.413 -0.7665 -0.2770 -2.4665
  161OSM    H9T18075   3.804   1.994   3.416  0.0533 -0.4148  0.3149
  161OSM   C10S18076   3.806   1.826   3.563  0.5332 -0.3671 -0.1230
  161OSM   H10S18077   3.915   1.804   3.554  0.7953  1.6208 -3.8002
  161OSM   H10T18078   3.757   1.731   3.592  0.9270  0.5120  4.1044
  161OSM   C11S18079   3.788   1.919   3.682 -0.1294  0.0335  0.6056
  161OSM   H11S18080   3.683   1.910   3.716 -1.0046 -1.3926 -2.1443
  161OSM   H11T18081   3.799   2.026   3.654 -2.7823  0.4266  0.8366
  161OSM   C12S18082   3.896   1.900   3.787 -0.0042  0.2500  0.3349
  161OSM   H12S18083   3.899   1.986   3.857  1.5968  0.8767 -0.4427
  161OSM   H12T18084   3.993   1.924   3.737 -0.6642  0.6542 -0.7924
  161OSM   C13S18085   3.883   1.760   3.846 -0.6148  0.3935  0.4605
  161OSM   H13S18086   3.931   1.688   3.776 -1.1269  1.7128 -1.3271
  161OSM   H13T18087   3.776   1.733   3.859 -0.5230  0.9023  2.6979
  161OSM   C14S18088   3.946   1.753   3.985 -0.1650  0.2195  0.0300
  161OSM   H14S18089   3.878   1.790   4.064  1.2887  0.6854  1.1171
  161OSM   H14T18090   4.039   1.813   3.993  1.0266 -1.6320  0.6490
  161OSM   C15S18091   3.974   1.610   4.028  0.2581  0.0615  0.3246
  161OSM   H15S18092   4.058   1.568   3.969 -0.5443 -0.0453 -0.7783
  161OSM   H15T18093   3.882   1.552   4.004 -0.1864  0.9068 -0.0752
  161OSM   C16S18094   4.003   1.594   4.175  0.1893 -0.4778 -0.3316
  161OSM   H16S18095   4.003   1.484   4.192 -2.0939 -0.4808  0.0082
  161OSM   H16T18096   3.935   1.648   4.245  1.0179  0.2390 -0.0606
  161OSM   C17S18097   4.141   1.651   4.217 -0.3699 -0.6216  0.0192
  161OSM   H17S18098   4.190   1.654   4.117 -2.7308  1.2146 -1.1736
  161OSM   H17T18099   4.191   1.577   4.283 -0.1021 -0.1775  0.3240
  161OSM   C18S18100   4.143   1.787   4.295  0.3077  0.3658  0.3123
  161OSM   H18S18101   4.080   1.858   4.237 -0.0032  0.1686  0.4039
  161OSM   H18T18102   4.247   1.823   4.309  0.9516 -1.6634  1.1780
  161OSM   H18U18103   4.095   1.773   4.394  0.1676 -1.3476  0.0379
  161OSM    C1F18104   3.354   1.943   2.879  0.3691 -0.1293 -0.1797
  161OSM     OF18105   3.274   1.861   2.837  0.1538 -0.2265  0.6339
  161OSM    C2F18106   3.317   2.036   3.002 -0.5050  0.6061  1.1591
  161OSM    H2F18107   3.227   2.091   2.967 -0.2225  0.2359 -0.2074
  161OSM    H2G18108   3.396   2.111   3.023  0.2221  0.4756 -0.8635
  161OSM    C3F18109   3.275   1.957   3.126 -0.7893 -0.1081  0.0496
  161OSM    H3F18110   3.359   1.884   3.133 -0.5239  0.1648 -0.2767
  161OSM    H3G18111   3.181   1.900   3.108 -1.2735  0.4066  0.8631
  161OSM    C4F18112   3.263   2.041   3.251  0.1393 -0.0146 -0.3141
  161OSM    H4F18113   3.234   1.980   3.339 -0.0794  0.9175  0.2834
  161OSM    H4G18114   3.174   2.108   3.239  0.4133  0.5768  0.7491
  161OSM    C5F18115   3.383   2.137   3.273  0.3392  0.2843  0.5810
  161OSM    H5F18116   3.366   2.205   3.187 -1.1200 -1.1164 -0.2938
  161OSM    H5G18117   3.474   2.080   3.242  0.5067  0.7019  0.2934
  161OSM    C6F18118   3.386   2.192   3.412  0.0545 -0.3389 -0.3658
  161OSM    H6F18119   3.359   2.108   3.479  1.7838 -1.1864 -0.6861
  161OSM    H6G18120   3.299   2.260   3.419 -0.6315 -1.2440  0.0588
  161OSM    C7F18121   3.525   2.251   3.449 -0.2659  0.1813  0.0756
  161OSM    H7F18122   3.539   2.333   3.375  0.2654 -2.1569 -2.5604
  161OSM    H7G18123   3.600   2.171   3.432 -2.5063 -1.8189 -0.9442
  161OSM    C8F18124   3.524   2.297   3.601  0.1201  0.3361 -0.2549
  161OSM    H8F18125   3.494   2.217   3.672 -0.7840  0.1372 -0.8483
  161OSM    H8G18126   3.448   2.376   3.621  1.7890  1.9185  0.0929
  161OSM    C9F18127   3.662   2.352   3.641 -0.3808  0.0856  0.2590
  161OSM    H9F18128   3.738   2.359   3.563 -0.1894  1.6098  0.5645
  161OSM   C10F18129   3.693   2.417   3.756  0.7232 -1.2246 -0.2880
  161OSM   H10F18130   3.798   2.448   3.762  0.2050  0.4106  1.2063
  161OSM   C11F18131   3.601   2.465   3.872 -0.0822 -0.2240 -0.2260
  161OSM   H11F18132   3.495   2.470   3.838 -0.2092  0.2140  0.2280
  161OSM   H11G18133   3.632   2.569   3.893 -0.1547 -0.4109  0.8715
  161OSM   C12F18134   3.609   2.378   4.007 -0.3296  0.4029 -0.1717
  161OSM   H12F18135   3.518   2.399   4.068  1.0275 -0.0976  2.1821
  161OSM   H12G18136   3.692   2.402   4.077  0.5769 -0.5350 -0.8979
  161OSM   C13F18137   3.607   2.226   3.970  0.6434 -0.2693  0.0611
  161OSM   H13F18138   3.710   2.210   3.931  0.8129  0.4436  0.2036
  161OSM   H13G18139   3.520   2.215   3.902 -0.5503  1.4721  1.2251
  161OSM   C14F18140   3.572   2.141   4.087 -0.2644 -0.2439  0.6976
  161OSM   H14F18141   3.466   2.156   4.117 -0.5663 -0.4048 -0.2560
  161OSM   H14G18142   3.634   2.180   4.171  1.5246 -0.2700 -0.5457
  161OSM   C15F18143   3.591   1.993   4.059  0.0914 -0.1657 -0.1648
  161OSM   H15F18144   3.692   1.973   4.017  1.1888  2.0549  1.2561
  161OSM   H15G18145   3.515   1.964   3.984 -0.5785  0.8795  0.0995
  161OSM   C16F18146   3.581   1.910   4.189 -0.3936 -0.2114  0.2407
  161OSM   H16F18147   3.503   1.934   4.264 -0.9422  1.3252 -0.7797
  161OSM   H16G18148   3.677   1.931   4.240 -0.1486  1.0743 -0.7058
  161OSM   C17F18149   3.574   1.766   4.160  0.1444  0.2091  0.4041
  161OSM   H17F18150   3.615   1.737   4.061  0.5459 -1.1515  0.9379
  161OSM   H17G18151   3.468   1.735   4.147  0.6273 -0.3607 -3.2352
  161OSM   C18F18152   3.634   1.686   4.271 -0.1399  0.4230  0.0471
  161OSM   H18F18153   3.735   1.721   4.303 -0.0938  0.7267 -0.4238
  161OSM   H18G18154   3.632   1.582   4.231 -0.3967 -0.7769  2.9120
  161OSM   H18H18155   3.558   1.685   4.352  0.2417 -2.3268  0.4749
  162OSM      N18156   5.831   5.590   2.427  0.5591  0.0213 -0.1107
  162OSM    C1518157   5.826   5.530   2.291  0.8025 -0.2491  0.3229
  162OSM   H15A18158   5.790   5.598   2.215  1.3186 -1.7895 -1.3933
  162OSM   H15B18159   5.755   5.449   2.292  1.8602 -1.1881  1.5436
  162OSM   H15C18160   5.919   5.490   2.253 -0.1922 -1.1573 -1.2640
  162OSM    C1418161   5.691   5.644   2.451 -0.1421  0.1000  0.1649
  162OSM   H14A18162   5.671   5.728   2.386 -0.8837  2.0613  2.7599
  162OSM   H14B18163   5.670   5.668   2.554  0.3591 -1.5882  0.7072
  162OSM   H14C18164   5.620   5.569   2.419 -0.0398  0.4526 -0.9221
  162OSM    C1318165   5.874   5.485   2.525 -0.3096 -0.3988 -0.5151
  162OSM   H13A18166   5.978   5.460   2.507  0.0739  0.0773  0.8690
  162OSM   H13B18167   5.806   5.402   2.520 -0.7321 -0.2676  1.9469
  162OSM   H13C18168   5.882   5.524   2.626 -0.3610  0.7567 -0.9429
  162OSM    C1218169   5.939   5.703   2.424  0.2944 -0.1990  0.5589
  162OSM   H12A18170   6.031   5.666   2.381 -0.7274 -0.7590 -1.2560
  162OSM   H12B18171   5.960   5.735   2.525 -1.2208  3.3283 -0.0885
  162OSM    C1118172   5.887   5.834   2.347 -0.7039  0.5314  0.2780
  162OSM   H11A18173   5.840   5.801   2.252  0.0059  0.6269 -0.1127
  162OSM   H11B18174   5.974   5.897   2.319  1.0476 -1.7921  0.1867
  162OSM      P18175   5.815   5.980   2.562  0.1425 -0.4801 -0.2053
  162OSM    O1318176   5.857   6.120   2.531 -0.1482 -0.6912 -0.6471
  162OSM    O1418177   5.693   5.969   2.650 -0.2741 -0.1226  1.0736
  162OSM    O1118178   5.930   5.895   2.628 -0.1549 -0.3155  0.2440
  162OSM    O1218179   5.790   5.901   2.425  0.5236  0.2875  0.4542
  162OSM    C1S18180   6.064   5.951   2.657  0.3083  0.1191  0.2345
  162OSM    H1S18181   6.084   6.035   2.587  1.8373  1.3860  2.0891
  162OSM    H1T18182   6.144   5.880   2.628  1.1755  0.7925  0.9241
  162OSM     NF18183   6.212   6.066   2.821 -1.0451  0.2895  0.6092
  162OSM    HNF18184   6.287   6.015   2.864 -0.2754 -0.1347 -1.1165
  162OSM    C2S18185   6.091   5.986   2.805 -0.3851 -0.1170  0.5915
  162OSM    H2S18186   6.009   6.047   2.847 -1.7341  1.1332 -3.3696
  162OSM    C3S18187   6.092   5.850   2.880 -0.0948 -0.2340 -0.1038
  162OSM    H3S18188   6.174   5.786   2.842 -0.3263 -0.4845 -0.1805
  162OSM     O318189   5.971   5.776   2.859 -0.3154  0.0355 -0.0058
  162OSM    HO318190   5.926   5.821   2.787  1.2264  1.5889 -0.0916
  162OSM    C4S18191   6.118   5.873   3.028 -0.3240 -0.4552 -0.1463
  162OSM    H4S18192   6.052   5.949   3.072  0.5187 -0.1481  0.6150
  162OSM    C5S18193   6.220   5.817   3.107  0.3148 -0.2529  0.2803
  162OSM    H5S18194   6.299   5.763   3.052  0.3791 -0.2549  0.3757
  162OSM    C6S18195   6.244   5.857   3.248 -0.3412  0.4243 -0.7508
  162OSM    H6S18196   6.240   5.763   3.306 -0.7862  1.8243  1.6096
  162OSM    H6T18197   6.160   5.918   3.289  1.6437  1.7109  1.6444
  162OSM    C7S18198   6.379   5.918   3.279  0.0242  0.2437  0.2266
  162OSM    H7S18199   6.384   6.017   3.228 -1.8684  0.9655  1.3433
  162OSM    H7T18200   6.455   5.844   3.247  1.2154  1.2048  0.7543
  162OSM    C8S18201   6.394   5.940   3.431  0.4899 -0.1884  0.4452
  162OSM    H8S18202   6.489   5.988   3.462 -1.3139  2.0363  3.0705
  162OSM    H8T18203   6.401   5.842   3.483  2.7039  0.0992  0.7488
  162OSM    C9S18204   6.288   6.024   3.498 -0.7691 -0.4173 -0.3756
  162OSM    H9S18205   6.190   5.972   3.497  1.0365 -4.0721 -0.5572
  162OSM    H9T18206   6.278   6.111   3.429  1.8475 -1.6773 -2.4936
  162OSM   C10S18207   6.313   6.073   3.641 -0.6749  0.3837 -0.1567
  162OSM   H10S18208   6.247   6.162   3.657 -1.4696  0.0310 -1.3140
  162OSM   H10T18209   6.407   6.133   3.642  0.6614 -1.6416  0.5929
  162OSM   C11S18210   6.285   5.968   3.763  0.0566  0.6621  0.1068
  162OSM   H11S18211   6.359   5.886   3.751 -0.5918  0.2665 -1.4399
  162OSM   H11T18212   6.180   5.933   3.751 -0.4750  1.5303  1.9153
  162OSM   C12S18213   6.287   6.024   3.904 -0.4633 -0.3254 -0.6139
  162OSM   H12S18214   6.221   5.966   3.971 -0.8196 -0.8453 -1.3980
  162OSM   H12T18215   6.254   6.130   3.903  0.3888 -0.0337 -2.1142
  162OSM   C13S18216   6.433   6.020   3.960 -0.2089 -0.4440  0.4685
  162OSM   H13S18217   6.499   6.047   3.874  0.0592 -1.2711  0.4054
  162OSM   H13T18218   6.438   5.913   3.987 -2.0623 -0.4466  0.8960
  162OSM   C14S18219   6.454   6.098   4.091 -0.6749  0.5360 -0.4405
  162OSM   H14S18220   6.377   6.073   4.167  0.5271 -2.3644 -0.0647
  162OSM   H14T18221   6.455   6.208   4.072  2.0192  0.4227 -1.3890
  162OSM   C15S18222   6.588   6.066   4.159 -0.5840  0.2493 -0.1566
  162OSM   H15S18223   6.601   5.959   4.187 -0.3126  0.3847  0.2507
  162OSM   H15T18224   6.606   6.121   4.254 -0.4314  0.3048 -0.2170
  162OSM   C16S18225   6.718   6.074   4.071 -0.1866 -0.1150 -0.0034
  162OSM   H16S18226   6.700   6.007   3.984  1.2910 -1.4077  0.6331
  162OSM   H16T18227   6.802   6.023   4.123 -1.0854  0.8251  2.5421
  162OSM   C17S18228   6.755   6.217   4.038  0.0887 -0.6221  0.1436
  162OSM   H17S18229   6.672   6.258   3.977  1.1536 -1.3117 -1.8378
  162OSM   H17T18230   6.840   6.202   3.969  0.6386  3.1573 -0.2374
  162OSM   C18S18231   6.805   6.296   4.156  0.2512  0.0982 -0.2133
  162OSM   H18S18232   6.719   6.325   4.221  0.7317 -3.2015  2.1253
  162OSM   H18T18233   6.861   6.386   4.122  0.8920 -0.1688  0.1206
  162OSM   H18U18234   6.876   6.234   4.215  1.1553  1.7039  0.4596
  162OSM    C1F18235   6.224   6.195   2.772 -0.7032 -0.3337  0.0545
  162OSM     OF18236   6.158   6.243   2.682 -0.3695 -0.0011 -0.1840
  162OSM    C2F18237   6.325   6.290   2.840 -0.0828 -1.1268  0.4583
  162OSM    H2F18238   6.278   6.390   2.852 -0.1706 -1.3701  2.3635
  162OSM    H2G18239   6.421   6.282   2.785 -1.0522 -1.1225 -1.3197
  162OSM    C3F18240   6.355   6.244   2.982 -0.8389 -0.6914  0.1961
  162OSM    H3F18241   6.407   6.146   2.978  2.2647  0.7854  0.8138
  162OSM    H3G18242   6.257   6.244   3.035 -2.8073 -0.8297 -3.1707
  162OSM    C4F18243   6.453   6.340   3.055  0.2464 -0.2788 -0.5901
  162OSM    H4F18244   6.455   6.321   3.164  0.1813  0.7883 -0.3900
  162OSM    H4G18245   6.410   6.442   3.039 -0.4360 -0.8715 -2.8876
  162OSM    C5F18246   6.600   6.336   3.016 -0.3514 -0.0987  0.7758
  162OSM    H5F18247   6.654   6.425   3.056 -0.8249  0.8043 -0.5249
  162OSM    H5G18248   6.620   6.330   2.907  0.6690  0.2242  0.9284
  162OSM    C6F18249   6.668   6.213   3.072 -0.0315 -0.8770  0.1511
  162OSM    H6F18250   6.603   6.127   3.044  0.6662 -1.1888 -0.5543
  162OSM    H6G18251   6.667   6.228   3.182 -1.1223  1.3973 -0.1096
  162OSM    C7F18252   6.800   6.180   2.999 -0.6380 -0.1791 -0.5263
  162OSM    H7F18253   6.873   6.253   3.039 -1.8915  0.0426  1.4772
  162OSM    H7G18254   6.784   6.210   2.893  1.3726 -0.1170 -0.8525
  162OSM    C8F18255   6.854   6.037   3.026  0.6389 -0.3866 -0.9396
  162OSM    H8F18256   6.783   5.966   2.979 -0.3441  1.4944 -2.3832
  162OSM    H8G18257   6.845   6.031   3.137  1.2076 -0.5278 -0.8944
  162OSM    C9F18258   6.992   6.021   2.976  0.5705  0.2785 -0.4116
  162OSM    H9F18259   7.004   6.038   2.868 -0.5106  1.2841 -0.3875
  162OSM   C10F18260   7.107   6.003   3.046 -0.5185 -0.3232  0.0523
  162OSM   H10F18261   7.203   5.995   2.992  0.2230 -1.0849  1.4372
  162OSM   C11F18262   7.120   5.987   3.199  0.1009  0.1487 -0.2717
  162OSM   H11F18263   7.175   5.899   3.238 -0.1739  0.6989  1.4168
  162OSM   H11G18264   7.015   5.972   3.231 -0.2622  2.3160 -0.2600
  162OSM   C12F18265   7.145   6.113   3.275 -0.3441 -0.1512 -0.0644
  162OSM   H12F18266   7.073   6.195   3.252  1.4274  1.3734 -0.4082
  162OSM   H12G18267   7.252   6.138   3.260 -0.1252 -1.2034 -0.3180
  162OSM   C13F18268   7.142   6.098   3.432 -0.7076 -0.2660 -0.1085
  162OSM   H13F18269   7.039   6.105   3.474 -0.6613 -2.3446  0.4681
  162OSM   H13G18270   7.195   6.185   3.476  0.6720 -0.2786 -1.6471
  162OSM   C14F18271   7.211   5.971   3.490 -0.5084 -0.0624 -0.0332
  162OSM   H14F18272   7.187   5.875   3.439 -0.0083  1.2610 -2.9816
  162OSM   H14G18273   7.174   5.966   3.595 -3.6253 -2.6092 -1.0903
  162OSM   C15F18274   7.365   5.972   3.504  0.1363  0.1133 -0.1668
  162OSM   H15F18275   7.412   6.067   3.538  0.6466 -0.6262  1.2961
  162OSM   H15G18276   7.408   5.953   3.403  2.2646 -2.5448  1.0944
  162OSM   C16F18277   7.415   5.862   3.597 -0.0673  0.1961 -0.2320
  162OSM   H16F18278   7.519   5.833   3.568 -0.3137  0.2168 -1.1624
  162OSM   H16G18279   7.351   5.773   3.581 -0.7721  0.7926 -0.7687
  162OSM   C17F18280   7.428   5.907   3.748 -0.6678 -0.4295  0.6428
  162OSM   H17F18281   7.332   5.909   3.803  0.8740 -3.0153  3.7375
  162OSM   H17G18282   7.482   6.004   3.751  0.5437 -1.1029  1.4367
  162OSM   C18F18283   7.515   5.803   3.826 -0.0940 -0.4779  0.4746
  162OSM   H18F18284   7.478   5.698   3.826  0.5762 -0.7382 -0.9607
  162OSM   H18G18285   7.529   5.837   3.931 -1.3361 -0.8314  0.7702
  162OSM   H18H18286   7.613   5.802   3.774  0.6177  2.6425  1.4972
  163OSM      N18287   2.108   1.591   1.794  0.1789 -0.0793 -0.8579
  163OSM    C1518288   1.985   1.498   1.815 -0.0894 -0.5681 -0.3257
  163OSM   H15A18289   1.900   1.559   1.790  2.0186  2.3462 -0.9181
  163OSM   H15B18290   1.983   1.470   1.919  0.1962  1.0597  0.1453
  163OSM   H15C18291   1.992   1.408   1.756  1.6169  0.1567 -1.3092
  163OSM    C1418292   2.072   1.681   1.682  0.7109 -1.0055 -0.5059
  163OSM   H14A18293   2.139   1.765   1.668 -1.8099  1.3622  0.8313
  163OSM   H14B18294   1.981   1.735   1.702  1.3428  0.7264 -1.9437
  163OSM   H14C18295   2.072   1.629   1.587  3.2266 -0.4712 -0.8971
  163OSM    C1318296   2.132   1.679   1.914 -0.0590 -0.1652 -0.1905
  163OSM   H13A18297   2.041   1.734   1.931 -1.0116 -1.1435 -1.9192
  163OSM   H13B18298   2.225   1.732   1.898  0.4073 -1.2454 -1.2900
  163OSM   H13C18299   2.151   1.612   1.997 -3.7586 -1.3501 -0.1455
  163OSM    C1218300   2.225   1.501   1.760  0.3801 -0.2935 -1.3861
  163OSM   H12A18301   2.313   1.554   1.727  0.7660  0.4596  0.6844
  163OSM   H12B18302   2.185   1.451   1.673 -1.3747 -1.0797 -0.1861
  163OSM    C1118303   2.282   1.393   1.860  0.4231  0.0679  0.4496
  163OSM   H11A18304   2.344   1.447   1.934  1.1177  0.1091 -0.1560
  163OSM   H11B18305   2.351   1.326   1.804  0.3966  0.4427 -0.0400
  163OSM      P18306   2.152   1.310   2.072 -0.2647 -0.2143 -0.3447
  163OSM    O1318307   2.014   1.262   2.083  0.2440  0.1939 -0.2360
  163OSM    O1418308   2.262   1.224   2.126  0.4171  0.3433 -0.2072
  163OSM    O1118309   2.173   1.451   2.135  0.0801  0.1814  0.3033
  163OSM    O1218310   2.175   1.316   1.919 -0.6466  0.5506 -0.4781
  163OSM    C1S18311   2.099   1.496   2.257 -0.3754  0.4908  0.2983
  163OSM    H1S18312   1.993   1.466   2.251 -0.9116  2.3178 -0.1014
  163OSM    H1T18313   2.092   1.606   2.275 -0.1068  0.2515  2.0984
  163OSM     NF18314   2.092   1.475   2.507 -0.0429 -0.3037  0.3365
  163OSM    HNF18315   2.118   1.547   2.570 -0.2004  0.7071 -0.7190
  163OSM    C2S18316   2.175   1.453   2.395  0.6663  0.1060 -0.1980
  163OSM    H2S18317   2.185   1.343   2.385 -1.9033 -0.1717 -0.4151
  163OSM    C3S18318   2.320   1.517   2.399 -0.0124 -0.2286  0.6902
  163OSM    H3S18319   2.303   1.619   2.439 -0.7129 -0.3158  0.6376
  163OSM     O318320   2.379   1.527   2.263  0.7843 -0.0506 -0.3234
  163OSM    HO318321   2.311   1.491   2.205 -0.0281  1.1783 -0.1723
  163OSM    C4S18322   2.406   1.457   2.505  0.3190 -0.0648  0.3959
  163OSM    H4S18323   2.396   1.522   2.593 -2.2773 -2.6183  2.1876
  163OSM    C5S18324   2.474   1.341   2.503 -0.2480 -0.0643  0.4911
  163OSM    H5S18325   2.467   1.280   2.412  2.7349  1.2701 -0.7782
  163OSM    C6S18326   2.549   1.281   2.619 -0.1578 -0.0316  0.3696
  163OSM    H6S18327   2.630   1.350   2.650 -0.1776 -0.9683  2.7419
  163OSM    H6T18328   2.594   1.182   2.596 -0.9118 -0.2968 -0.0003
  163OSM    C7S18329   2.457   1.273   2.743  0.0217 -0.6999  0.2828
  163OSM    H7S18330   2.383   1.191   2.736 -0.6157  0.0084 -2.2590
  163OSM    H7T18331   2.389   1.360   2.755  1.4963  0.2747  2.3575
  163OSM    C8S18332   2.542   1.263   2.871  0.1004  0.4368 -0.1969
  163OSM    H8S18333   2.592   1.360   2.892 -0.1540  0.8952 -1.5981
  163OSM    H8T18334   2.608   1.177   2.846  1.5282  0.9854  1.4838
  163OSM    C9S18335   2.458   1.216   2.998 -0.5098 -0.2253  0.6837
  163OSM    H9S18336   2.415   1.117   2.972 -1.2817  0.1832  0.3510
  163OSM    H9T18337   2.378   1.294   2.997 -1.2966 -0.8631  3.8241
  163OSM   C10S18338   2.541   1.209   3.124  0.5986  0.3833 -0.4583
  163OSM   H10S18339   2.565   1.313   3.158  1.1385 -0.0876  0.6501
  163OSM   H10T18340   2.640   1.161   3.110  0.3393 -0.4282  0.4141
  163OSM   C11S18341   2.466   1.139   3.241  0.3698 -0.0161 -0.7140
  163OSM   H11S18342   2.413   1.056   3.189 -0.2576  0.6759 -1.2076
  163OSM   H11T18343   2.386   1.204   3.283  1.2154 -0.3507  1.5486
  163OSM   C12S18344   2.554   1.085   3.353  0.4355  0.1661 -0.5604
  163OSM   H12S18345   2.601   1.169   3.410 -0.9516  0.2925  0.4265
  163OSM   H12T18346   2.648   1.040   3.313  1.4942  1.7850 -0.0459
  163OSM   C13S18347   2.492   0.981   3.441  0.2804 -0.0182  0.2431
  163OSM   H13S18348   2.566   0.943   3.515 -0.0112 -0.0294  0.5289
  163OSM   H13T18349   2.469   0.882   3.396  0.1195 -0.7988  2.0028
  163OSM   C14S18350   2.359   1.020   3.510  0.3448  0.1163 -0.2701
  163OSM   H14S18351   2.275   1.028   3.437 -0.6525 -0.4208  0.7895
  163OSM   H14T18352   2.364   1.120   3.559 -0.0206 -0.7489  1.6116
  163OSM   C15S18353   2.315   0.917   3.620 -0.3886 -0.1445  0.3175
  163OSM   H15S18354   2.307   0.810   3.589 -0.2170 -0.3176  0.8446
  163OSM   H15T18355   2.215   0.946   3.658 -0.0988 -0.4172  1.3221
  163OSM   C16S18356   2.408   0.923   3.746 -0.8489  0.1800 -0.0711
  163OSM   H16S18357   2.428   1.030   3.769  0.6734 -0.0560 -0.2365
  163OSM   H16T18358   2.499   0.862   3.730 -0.1989  1.1926 -0.3472
  163OSM   C17S18359   2.349   0.852   3.872 -0.1681  0.3032  0.4452
  163OSM   H17S18360   2.294   0.757   3.855  0.0125  0.0060  1.4579
  163OSM   H17T18361   2.269   0.919   3.909 -0.0787 -0.3938  1.9812
  163OSM   C18S18362   2.459   0.822   3.983 -0.2183 -0.8345  0.0211
  163OSM   H18S18363   2.409   0.812   4.082 -2.8160 -0.6772 -1.1960
  163OSM   H18T18364   2.520   0.914   3.984 -1.9980  0.4340 -1.5505
  163OSM   H18U18365   2.517   0.728   3.968 -0.7967 -1.1664 -0.1995
  163OSM    C1F18366   1.976   1.414   2.530  0.2216 -0.2874 -0.3663
  163OSM     OF18367   1.937   1.317   2.471 -0.1487 -0.2238  0.0274
  163OSM    C2F18368   1.887   1.482   2.623 -0.6827 -0.2276 -0.0093
  163OSM    H2F18369   1.791   1.504   2.571 -0.4242 -0.2066 -0.4862
  163OSM    H2G18370   1.931   1.580   2.652  1.0914 -0.9443 -0.1136
  163OSM    C3F18371   1.870   1.403   2.755 -0.1526 -0.2235  0.2545
  163OSM    H3F18372   1.838   1.299   2.736 -1.1830 -0.6228  3.5539
  163OSM    H3G18373   1.781   1.447   2.807 -0.5136 -0.6218 -0.0212
  163OSM    C4F18374   1.987   1.416   2.848  0.3576 -0.4216  0.3909
  163OSM    H4F18375   1.994   1.522   2.880  0.1036 -0.3696  0.2777
  163OSM    H4G18376   2.087   1.389   2.807 -0.5858  0.0470 -2.4253
  163OSM    C5F18377   1.963   1.331   2.979 -0.3956  0.1369 -0.0035
  163OSM    H5F18378   1.968   1.221   2.961 -1.1011  0.4797 -2.7166
  163OSM    H5G18379   1.856   1.339   3.009 -0.1745  0.1831  0.7844
  163OSM    C6F18380   2.049   1.372   3.091 -0.0020  0.6641 -0.0505
  163OSM    H6F18381   2.010   1.467   3.135  0.0908  1.0288 -0.7476
  163OSM    H6G18382   2.146   1.404   3.047  0.5250 -1.2168 -0.3182
  163OSM    C7F18383   2.065   1.252   3.184  0.1344  0.4830 -0.1536
  163OSM    H7F18384   2.133   1.278   3.268  0.4696 -0.1908 -0.2075
  163OSM    H7G18385   2.115   1.175   3.121 -0.0102 -1.3141  1.8041
  163OSM    C8F18386   1.938   1.193   3.251  0.6192  0.3677 -0.4078
  163OSM    H8F18387   1.869   1.144   3.179  0.2198  0.8867 -0.3843
  163OSM    H8G18388   1.885   1.281   3.293  0.9302 -0.1196  1.0412
  163OSM    C9F18389   1.968   1.100   3.362 -1.0846  0.0043  0.2804
  163OSM    H9F18390   1.962   0.994   3.334  1.6416 -0.9172  2.7819
  163OSM   C10F18391   2.019   1.129   3.488  0.2854  0.5875 -0.5237
  163OSM   H10F18392   2.058   1.046   3.549  0.1753  1.0084  0.1367
  163OSM   C11F18393   2.030   1.265   3.552  0.2336 -0.2626  0.2188
  163OSM   H11F18394   1.982   1.340   3.485  0.6945  1.3767  1.6673
  163OSM   H11G18395   2.132   1.306   3.564 -0.2223  1.3175 -0.9396
  163OSM   C12F18396   1.976   1.289   3.697 -0.6102 -0.2291  0.4410
  163OSM   H12F18397   1.875   1.242   3.697  0.2217 -2.1273 -0.9136
  163OSM   H12G18398   1.954   1.398   3.709  0.3440  0.0339 -0.0624
  163OSM   C13F18399   2.059   1.222   3.801 -0.5295 -0.0325 -0.4053
  163OSM   H13F18400   2.103   1.131   3.755  1.3585 -0.3853  1.9256
  163OSM   H13G18401   2.008   1.180   3.890  0.6538 -3.1699 -1.0723
  163OSM   C14F18402   2.171   1.327   3.853 -0.1052  0.0676  0.1800
  163OSM   H14F18403   2.132   1.408   3.918  1.5353  2.4282 -1.5978
  163OSM   H14G18404   2.221   1.369   3.763 -1.7232  0.2000 -0.7016
  163OSM   C15F18405   2.269   1.246   3.937 -0.2669  0.4745 -0.3793
  163OSM   H15F18406   2.326   1.173   3.875 -1.6341 -1.6622  0.7479
  163OSM   H15G18407   2.221   1.173   4.006  0.7782 -0.0507 -0.1755
  163OSM   C16F18408   2.370   1.327   4.016  0.0476 -0.2140  0.3540
  163OSM   H16F18409   2.339   1.432   4.036  0.3808 -0.1259  0.4116
  163OSM   H16G18410   2.449   1.356   3.944 -1.1758 -0.1032 -1.0043
  163OSM   C17F18411   2.416   1.253   4.139 -0.8482  0.4881  0.5523
  163OSM   H17F18412   2.429   1.144   4.125 -0.7314  0.2509  2.2886
  163OSM   H17G18413   2.340   1.259   4.220  0.6048  2.0545  1.8827
  163OSM   C18F18414   2.545   1.324   4.175  0.4161  0.5008 -0.4300
  163OSM   H18F18415   2.532   1.433   4.192 -1.7077  0.4119 -1.1600
  163OSM   H18G18416   2.625   1.302   4.101 -0.7987 -3.2081 -0.8748
  163OSM   H18H18417   2.581   1.288   4.274  0.4927  1.0533 -0.2526
  164OSM      N18418   6.543   0.992   1.877 -0.2617  0.3788  0.1812
  164OSM    C1518419   6.438   0.916   1.815 -0.1911  0.1404  0.1796
  164OSM   H15A18420   6.365   0.906   1.894  2.6052 -0.2208  2.9703
  164OSM   H15B18421   6.469   0.814   1.795 -0.7905 -0.0793  0.3373
  164OSM   H15C18422   6.405   0.952   1.719  2.0269  0.9503 -0.3413
  164OSM    C1418423   6.681   0.985   1.801  0.2800 -0.6814 -0.4142
  164OSM   H14A18424   6.729   0.897   1.840 -1.1917 -0.4015  2.2686
  164OSM   H14B18425   6.739   1.071   1.832  0.9821 -1.0864 -0.5846
  164OSM   H14C18426   6.664   0.997   1.695  0.2447  0.9123 -0.2650
  164OSM    C1318427   6.507   1.139   1.881 -0.6106  0.5751 -0.1076
  164OSM   H13A18428   6.424   1.152   1.949 -0.0688 -0.1960  0.7154
  164OSM   H13B18429   6.494   1.180   1.782  0.6421  0.2898 -0.4070
  164OSM   H13C18430   6.586   1.197   1.926  0.5837  1.5311 -3.1664
  164OSM    C1218431   6.570   0.944   2.021 -0.2376  0.6519 -0.0925
  164OSM   H12A18432   6.651   1.010   2.048 -0.2346  0.7532 -0.3449
  164OSM   H12B18433   6.598   0.841   2.034  0.2440  0.5990 -1.4177
  164OSM    C1118434   6.448   0.962   2.120 -0.2858 -0.2378 -0.2214
  164OSM   H11A18435   6.405   1.063   2.108  0.4516  0.0777 -0.2723
  164OSM   H11B18436   6.491   0.964   2.222  2.3284 -1.2531 -1.2233
  164OSM      P18437   6.397   0.720   2.184 -0.4849 -0.6326  0.5287
  164OSM    O1318438   6.326   0.603   2.122 -0.2359  0.0251 -0.8816
  164OSM    O1418439   6.542   0.707   2.197 -0.0430 -0.3032  0.3937
  164OSM    O1118440   6.338   0.747   2.326  0.4847  0.5670 -0.3187
  164OSM    O1218441   6.355   0.854   2.105  0.2938 -0.3388  0.1215
  164OSM    C1S18442   6.319   0.634   2.416 -0.1472 -0.7375  0.2130
  164OSM    H1S18443   6.414   0.600   2.464 -1.2716 -1.3654  2.1027
  164OSM    H1T18444   6.276   0.549   2.359  0.5523 -0.7969 -0.2392
  164OSM     NF18445   6.232   0.554   2.629  0.5351 -0.4849  0.6586
  164OSM    HNF18446   6.154   0.494   2.641  1.6803 -1.8123  1.8538
  164OSM    C2S18447   6.229   0.670   2.532  0.2248  0.2205 -0.3315
  164OSM    H2S18448   6.274   0.754   2.588  0.7361  0.9236 -1.7421
  164OSM    C3S18449   6.092   0.716   2.477  0.5084  0.0712  0.1055
  164OSM    H3S18450   6.040   0.653   2.402  0.1772  0.9127 -0.3721
  164OSM     O318451   6.106   0.829   2.395 -0.2197  0.3655 -0.0792
  164OSM    HO318452   6.193   0.811   2.358  0.9866 -0.0552  2.7475
  164OSM    C4S18453   6.018   0.754   2.597 -0.8252  0.5123 -0.3927
  164OSM    H4S18454   6.036   0.857   2.630 -1.9232  0.2761  1.1037
  164OSM    C5S18455   5.919   0.684   2.650  0.0688  0.2656  0.1300
  164OSM    H5S18456   5.889   0.593   2.597  0.3003 -0.4685  1.2140
  164OSM    C6S18457   5.826   0.722   2.765 -0.3573 -0.6335 -0.5689
  164OSM    H6S18458   5.812   0.630   2.825 -1.1150 -0.7871 -0.9777
  164OSM    H6T18459   5.726   0.748   2.726 -0.2329  0.5642 -0.1447
  164OSM    C7S18460   5.870   0.832   2.861  0.3879  0.3090 -0.2492
  164OSM    H7S18461   5.889   0.927   2.807  0.2059  1.5714  1.8271
  164OSM    H7T18462   5.967   0.801   2.906 -0.1216  0.9727  1.3871
  164OSM    C8S18463   5.770   0.870   2.973  0.4984 -0.2674 -0.1057
  164OSM    H8S18464   5.755   0.785   3.043 -1.7584  2.1425  2.5700
  164OSM    H8T18465   5.674   0.908   2.934  0.9554  2.1105  0.9465
  164OSM    C9S18466   5.807   0.983   3.067  0.6050  0.3037 -0.3192
  164OSM    H9S18467   5.791   1.084   3.023 -1.2220  0.8166  1.3950
  164OSM    H9T18468   5.916   0.973   3.089  0.4994  0.3561  0.2311
  164OSM   C10S18469   5.753   0.978   3.212 -0.8412 -0.3023  0.2121
  164OSM   H10S18470   5.791   0.887   3.263 -0.5349 -0.7904 -0.8419
  164OSM   H10T18471   5.644   0.999   3.219 -0.8630 -0.7342  1.2456
  164OSM   C11S18472   5.826   1.088   3.292  0.3281 -0.0999 -0.0902
  164OSM   H11S18473   5.817   1.190   3.249  0.3917  0.6719  1.6544
  164OSM   H11T18474   5.937   1.078   3.292  0.2570 -1.0013  0.2902
  164OSM   C12S18475   5.776   1.098   3.439 -0.1358  0.4269 -0.4161
  164OSM   H12S18476   5.756   0.997   3.481  0.3845  0.1836 -0.7399
  164OSM   H12T18477   5.681   1.154   3.451 -0.1914  0.4211 -0.8260
  164OSM   C13S18478   5.893   1.155   3.528  0.0939  0.2066 -0.1585
  164OSM   H13S18479   5.942   1.246   3.487  0.2925 -0.1074 -0.6247
  164OSM   H13T18480   5.964   1.069   3.527 -0.2652 -0.0873 -0.2528
  164OSM   C14S18481   5.847   1.202   3.670 -0.0890  0.1716  0.3903
  164OSM   H14S18482   5.760   1.271   3.669  0.0666  0.3670  0.0573
  164OSM   H14T18483   5.927   1.250   3.730  0.0227 -0.8935  1.1344
  164OSM   C15S18484   5.811   1.080   3.757  0.5467  0.9685 -0.8830
  164OSM   H15S18485   5.888   1.002   3.739 -0.7658 -0.4670 -0.5554
  164OSM   H15T18486   5.715   1.027   3.738  1.5817 -0.8843 -1.1735
  164OSM   C16S18487   5.792   1.120   3.903 -0.3446 -0.2512  0.0492
  164OSM   H16S18488   5.703   1.186   3.894 -2.0522 -2.3487  0.5929
  164OSM   H16T18489   5.874   1.188   3.934 -0.8645  0.4538 -0.1066
  164OSM   C17S18490   5.766   1.002   3.993  0.0308 -0.5222 -0.6574
  164OSM   H17S18491   5.857   0.940   3.978  1.0050  0.7552 -0.1713
  164OSM   H17T18492   5.678   0.951   3.948  0.1046 -1.1878 -0.0702
  164OSM   C18S18493   5.752   1.040   4.135  0.4257 -1.1949  0.7292
  164OSM   H18S18494   5.661   1.096   4.167 -0.2667 -1.5200 -0.5964
  164OSM   H18T18495   5.837   1.102   4.171  1.5829 -2.5556  0.4229
  164OSM   H18U18496   5.754   0.951   4.201 -1.3736 -1.7214  0.1425
  164OSM    C1F18497   6.330   0.548   2.722 -0.2780  0.2200 -0.4706
  164OSM     OF18498   6.423   0.616   2.707 -0.0762  0.3678  0.1522
  164OSM    C2F18499   6.322   0.455   2.837  0.6292 -0.5190  0.2810
  164OSM    H2F18500   6.413   0.469   2.900 -0.3559 -0.0641  1.6640
  164OSM    H2G18501   6.327   0.352   2.796  0.2278 -0.5804  0.3830
  164OSM    C3F18502   6.200   0.475   2.923 -0.1543 -0.2055  0.7266
  164OSM    H3F18503   6.117   0.438   2.858  0.5403 -2.4107  1.0004
  164OSM    H3G18504   6.173   0.579   2.949  0.3530 -0.3110  1.6912
  164OSM    C4F18505   6.190   0.401   3.056 -0.8625  0.6562 -0.0743
  164OSM    H4F18506   6.277   0.423   3.122 -1.3442  1.8920  0.1685
  164OSM    H4G18507   6.200   0.292   3.037  2.9720  1.0956 -1.4359
  164OSM    C5F18508   6.062   0.416   3.135  0.8939  0.2414 -0.4649
  164OSM    H5F18509   6.040   0.520   3.168 -1.6956 -0.2797 -0.3758
  164OSM    H5G18510   6.072   0.348   3.222  0.1253  1.4206  0.5774
  164OSM    C6F18511   5.928   0.363   3.072 -0.1683  0.3768 -0.5427
  164OSM    H6F18512   5.924   0.259   3.034  0.2612  0.3044 -0.3937
  164OSM    H6G18513   5.910   0.419   2.977 -1.0846 -0.7975 -1.0869
  164OSM    C7F18514   5.815   0.379   3.176  0.4789 -0.9908  0.3081
  164OSM    H7F18515   5.834   0.322   3.269 -2.0916 -1.2839  0.7406
  164OSM    H7G18516   5.728   0.324   3.133  0.4552 -2.4803  2.1148
  164OSM    C8F18517   5.773   0.527   3.208 -0.4952  0.2328 -0.9293
  164OSM    H8F18518   5.771   0.584   3.112  2.0904  1.2949 -0.4336
  164OSM    H8G18519   5.853   0.573   3.269 -0.0031  0.5919 -1.8218
  164OSM    C9F18520   5.645   0.531   3.288  0.2217  0.2846 -0.6009
  164OSM    H9F18521   5.556   0.481   3.246 -1.0502 -0.6064  2.8119
  164OSM   C10F18522   5.628   0.580   3.412  0.4846 -0.8228  0.3224
  164OSM   H10F18523   5.531   0.591   3.461  0.9982  3.1124  0.7477
  164OSM   C11F18524   5.739   0.631   3.496 -0.0844 -0.6582 -0.4462
  164OSM   H11F18525   5.799   0.708   3.442  0.2060 -1.3237 -1.0860
  164OSM   H11G18526   5.808   0.544   3.506 -0.7721 -1.2104 -0.4602
  164OSM   C12F18527   5.702   0.683   3.637 -0.3378  0.0471  0.4138
  164OSM   H12F18528   5.623   0.761   3.628  0.4095  0.6393 -1.7104
  164OSM   H12G18529   5.783   0.743   3.682 -0.0655  0.4019 -0.5185
  164OSM   C13F18530   5.677   0.575   3.738 -0.0916 -0.1773  0.3219
  164OSM   H13F18531   5.769   0.513   3.732  1.4697  1.8363  1.8319
  164OSM   H13G18532   5.583   0.526   3.708 -0.4613  1.8525 -2.1399
  164OSM   C14F18533   5.661   0.642   3.870  0.2256  0.0976  0.4892
  164OSM   H14F18534   5.575   0.711   3.865 -1.2225 -1.7253 -1.1401
  164OSM   H14G18535   5.749   0.706   3.892  0.0383  1.3948 -2.2096
  164OSM   C15F18536   5.610   0.540   3.974  0.2226 -0.1687 -0.7734
  164OSM   H15F18537   5.691   0.464   3.986  1.1033  1.1116  2.5078
  164OSM   H15G18538   5.521   0.488   3.934 -1.2721 -0.0220  2.0905
  164OSM   C16F18539   5.588   0.599   4.111  0.3357 -0.9416  0.4741
  164OSM   H16F18540   5.538   0.522   4.174 -0.1650 -1.3222 -0.3723
  164OSM   H16G18541   5.517   0.681   4.089 -1.4412 -2.7693 -1.0124
  164OSM   C17F18542   5.715   0.653   4.177 -0.0769 -0.0170 -0.3896
  164OSM   H17F18543   5.751   0.735   4.112 -3.2141 -0.0940 -2.4242
  164OSM   H17G18544   5.784   0.567   4.168 -1.9616 -1.8561  1.3766
  164OSM   C18F18545   5.698   0.687   4.329  0.5801  0.2467 -0.4686
  164OSM   H18F18546   5.634   0.777   4.344  0.5066 -0.0734  1.4784
  164OSM   H18G18547   5.800   0.710   4.366  0.2566  0.7894  0.1148
  164OSM   H18H18548   5.667   0.599   4.389  4.4711 -0.0774  1.4102
  165SAPS     N18549   4.957   3.752   6.813 -0.1432 -0.3195  0.7071
  165SAPS   HN118550   5.027   3.679   6.837  0.4616 -1.0698 -2.7437
  165SAPS   HN218551   4.962   3.775   6.711  2.3471  0.8403  0.9954
  165SAPS   HN318552   4.971   3.840   6.867  0.4158 -0.4406  0.7710
  165SAPS   C1218553   4.830   3.697   6.867  0.0637  0.2677 -0.3350
  165SAPS  H12A18554   4.831   3.690   6.975  0.1439 -2.5714 -0.4594
  165SAPS   C1318555   4.710   3.785   6.829 -0.6554  0.2718 -0.0953
  165SAPS  O13A18556   4.728   3.899   6.778  0.6375 -0.4096 -0.7240
  165SAPS  O13B18557   4.594   3.736   6.841 -0.7908 -0.2780  0.3827
  165SAPS   C1118558   4.806   3.549   6.821 -0.1151  0.1645 -0.1918
  165SAPS  H11A18559   4.810   3.548   6.710  0.9105 -0.5618 -0.1623
  165SAPS  H11B18560   4.711   3.515   6.866 -1.8547  1.4036 -2.6533
  165SAPS     P18561   4.923   3.311   6.836 -0.3006  0.2886 -0.6838
  165SAPS   O1318562   5.020   3.248   6.931  0.1572 -0.0303 -0.4332
  165SAPS   O1418563   4.787   3.262   6.845 -0.2473 -0.0175  0.1809
  165SAPS   O1218564   4.919   3.468   6.867 -0.2004 -0.2927  0.2839
  165SAPS   O1118565   4.968   3.310   6.690 -0.2185 -0.1665  0.9200
  165SAPS    C118566   5.077   3.395   6.650  0.7090  0.2342 -0.0626
  165SAPS    HA18567   5.041   3.498   6.627  0.8389  0.2846 -0.0469
  165SAPS    HB18568   5.153   3.402   6.731 -1.0807 -2.2737  1.9885
  165SAPS    C218569   5.137   3.348   6.511  0.7261  0.1091  0.3677
  165SAPS    HS18570   5.230   3.407   6.496 -0.7488  2.6192  0.4122
  165SAPS   O2118571   5.054   3.375   6.393 -0.2255  0.5515 -0.1058
  165SAPS   C2118572   5.054   3.499   6.352 -0.2261  0.3933  0.2284
  165SAPS   O2218573   5.094   3.593   6.414 -0.1537 -0.3253 -0.4834
  165SAPS   C2218574   5.031   3.497   6.204 -0.4502 -0.1290  1.2838
  165SAPS   H2R18575   5.117   3.451   6.150  0.2667  0.7366  1.6575
  165SAPS   H2S18576   4.939   3.440   6.183 -0.9871  1.2582 -0.3664
  165SAPS    C318577   5.168   3.195   6.514 -0.0105 -0.1156  1.0734
  165SAPS    HX18578   5.071   3.144   6.532 -0.0294 -1.5469 -2.2514
  165SAPS    HY18579   5.234   3.170   6.599  0.8446  0.2832  0.5482
  165SAPS   O3118580   5.222   3.164   6.386 -0.1601 -0.3536  0.6141
  165SAPS   C3118581   5.263   3.044   6.360 -0.6046 -0.2742  0.0345
  165SAPS   O3218582   5.272   2.954   6.441 -0.0139  0.3192 -0.3937
  165SAPS   C3218583   5.321   3.038   6.226 -0.7328 -0.2117  0.5223
  165SAPS   H2X18584   5.328   2.933   6.191  1.6272  0.8459 -2.6576
  165SAPS   H2Y18585   5.423   3.082   6.228 -0.3799 -0.9971  0.3564
  165SAPS   C2318586   5.036   3.643   6.142 -0.0613 -0.2834  0.6511
  165SAPS   H3R18587   5.131   3.698   6.159  0.0039  0.2786 -1.3196
  165SAPS   H3S18588   4.951   3.701   6.183  1.3147  3.4151 -1.2525
  165SAPS   C2418589   5.017   3.641   5.988  0.0847  0.4190  0.5025
  165SAPS   H4R18590   5.091   3.569   5.946 -0.6879  0.3201 -0.7387
  165SAPS   H4S18591   5.043   3.746   5.963  1.3276  0.2956  1.1821
  165SAPS   C2518592   4.887   3.600   5.943  0.3995  0.6055  0.0314
  165SAPS   H5R18593   4.836   3.536   6.017 -1.7579  3.2120  0.9735
  165SAPS   C2618594   4.824   3.652   5.838  1.2694 -0.9907 -0.3649
  165SAPS   H6R18595   4.730   3.602   5.811  1.7635 -1.0856 -1.9925
  165SAPS   C2718596   4.878   3.754   5.739 -0.8110  0.3402  0.7163
  165SAPS   H7R18597   4.962   3.708   5.684 -0.3057 -1.4926  2.8627
  165SAPS   H7S18598   4.917   3.834   5.804 -0.3328  0.3453  0.4238
  165SAPS   C2818599   4.769   3.813   5.656  0.1569 -0.4284 -0.0460
  165SAPS   H8R18600   4.706   3.878   5.719  0.7196 -1.9927  2.2509
  165SAPS   C2918601   4.739   3.794   5.523  0.1477  0.5342  0.2782
  165SAPS   H9R18602   4.656   3.842   5.471 -1.6012 -3.3331 -0.8766
  165SAPS  C21018603   4.802   3.688   5.430  0.6099  0.2866  0.7269
  165SAPS  H10R18604   4.733   3.671   5.345  1.3991 -0.1976  0.1634
  165SAPS  H10S18605   4.817   3.590   5.481  2.6075  0.6600  0.9403
  165SAPS  C21118606   4.933   3.745   5.377  0.4584 -0.0111 -0.6467
  165SAPS  H11R18607   5.005   3.747   5.460 -1.3031 -0.3623  0.9662
  165SAPS  C21218608   4.966   3.807   5.261 -0.0055  0.2109 -0.4773
  165SAPS  H12R18609   5.066   3.851   5.247  1.0973 -2.1267 -0.4807
  165SAPS  C21318610   4.884   3.806   5.140  0.0336  0.8207  0.4064
  165SAPS  H13R18611   4.780   3.827   5.172 -0.0764  0.7943  0.0683
  165SAPS  H13S18612   4.880   3.701   5.102  1.8758  0.0001  2.2657
  165SAPS  C21418613   4.929   3.903   5.029  0.6003 -0.2489 -0.0871
  165SAPS  H14R18614   4.894   4.005   5.053  0.3015 -0.3741  0.0045
  165SAPS  C21518615   5.004   3.893   4.923 -0.8180  0.4971  0.3356
  165SAPS  H15R18616   5.003   3.979   4.856  2.1335 -0.3627 -0.9433
  165SAPS  C21618617   5.077   3.774   4.862 -0.3437  0.3120  0.5403
  165SAPS  H16R18618   5.015   3.682   4.874 -1.5707  1.3831  3.2577
  165SAPS  H16S18619   5.170   3.769   4.923  0.0614  3.5378  0.3574
  165SAPS  C21718620   5.107   3.802   4.715  0.0382  0.2499  0.8163
  165SAPS  H17R18621   5.019   3.842   4.660  0.3489 -0.1241  0.0379
  165SAPS  H17S18622   5.126   3.701   4.673 -0.1676  0.8377 -0.7633
  165SAPS  C21818623   5.228   3.893   4.699  0.1062  0.2606  0.4016
  165SAPS  H18R18624   5.317   3.843   4.743  1.2361  1.4087 -0.4974
  165SAPS  H18S18625   5.210   3.988   4.755 -0.8943  0.3518 -0.0535
  165SAPS  C21918626   5.256   3.934   4.558 -0.2775  0.3189 -0.2385
  165SAPS  H19R18627   5.336   4.010   4.551 -0.6117  0.7645  0.6269
  165SAPS  H19S18628   5.172   3.985   4.507  1.6112  0.4349 -3.4791
  165SAPS  C22018629   5.296   3.812   4.486 -0.1419  0.4432  0.3851
  165SAPS  H20R18630   5.333   3.826   4.382  1.4636 -1.7924  0.5752
  165SAPS  H20S18631   5.212   3.738   4.482  0.2766 -0.0307 -2.9518
  165SAPS  H20T18632   5.383   3.753   4.524 -0.6355 -0.1073  0.6833
  165SAPS   C3318633   5.221   3.099   6.122 -0.1991  0.4479  0.0462
  165SAPS   H3X18634   5.166   3.191   6.149 -1.9555 -0.2738 -0.8948
  165SAPS   H3Y18635   5.142   3.023   6.106 -1.0189  1.6695 -2.1292
  165SAPS   C3418636   5.292   3.136   5.992  0.1031 -0.7454 -0.2233
  165SAPS   H4X18637   5.314   3.046   5.931 -1.8823 -0.2135 -1.8579
  165SAPS   H4Y18638   5.389   3.175   6.028  0.5741 -1.2794 -0.8933
  165SAPS   C3518639   5.216   3.240   5.907 -0.1728  0.7249 -0.0080
  165SAPS   H5X18640   5.211   3.335   5.963  0.6583  2.4176 -2.6232
  165SAPS   H5Y18641   5.114   3.196   5.894  1.0891 -2.6110  0.2922
  165SAPS   C3618642   5.282   3.284   5.781  0.4702 -0.0273  0.2123
  165SAPS   H6X18643   5.291   3.186   5.729 -1.9343 -1.0733  1.5987
  165SAPS   H6Y18644   5.380   3.335   5.793  1.3460 -1.1421 -1.7252
  165SAPS   C3718645   5.185   3.381   5.700 -0.4110  0.1026 -0.1274
  165SAPS   H7X18646   5.224   3.484   5.709  0.6158 -0.3078  0.2995
  165SAPS   H7Y18647   5.086   3.384   5.751  0.1098 -1.1691  1.0208
  165SAPS   C3818648   5.164   3.340   5.555  1.3059  0.3182  0.7671
  165SAPS   H8X18649   5.073   3.391   5.518  0.9146 -1.3846 -0.8122
  165SAPS   H8Y18650   5.138   3.232   5.558  2.5328 -0.0054  0.3544
  165SAPS   C3918651   5.289   3.363   5.472 -1.0585 -0.0095 -0.5457
  165SAPS   H9X18652   5.384   3.327   5.519 -0.5538  1.7726 -0.0958
  165SAPS   H9Y18653   5.297   3.472   5.451  2.3929 -0.2528 -1.0896
  165SAPS  C31018654   5.287   3.301   5.326 -0.3026  0.3414  0.3578
  165SAPS  H10X18655   5.244   3.199   5.325  2.2655 -0.8424 -2.0562
  165SAPS  H10Y18656   5.392   3.300   5.291  0.1298 -1.1586  1.6216
  165SAPS  C31118657   5.203   3.383   5.230  0.4714 -0.2222  0.4090
  165SAPS  H11X18658   5.268   3.468   5.200  0.5872  0.2692  1.9819
  165SAPS  H11Y18659   5.124   3.433   5.289  1.1305 -2.1706  3.1336
  165SAPS  C31218660   5.140   3.313   5.106  0.0154  0.8691 -0.2386
  165SAPS  H12X18661   5.079   3.223   5.129 -0.8607  1.1175 -1.4664
  165SAPS  H12Y18662   5.223   3.270   5.046 -0.8716 -3.0768  1.0430
  165SAPS  C31318663   5.051   3.405   5.032  0.4946 -0.6330  0.1416
  165SAPS  H13X18664   5.098   3.506   5.033 -0.8022  0.0190  2.0989
  165SAPS  H13Y18665   4.960   3.436   5.087  0.7546 -0.5500  0.5323
  165SAPS  C31418666   5.019   3.364   4.887 -0.2977  0.6359 -1.0438
  165SAPS  H14X18667   5.109   3.341   4.826  1.6975 -1.3181  2.3190
  165SAPS  H14Y18668   4.987   3.455   4.830  2.5392  3.3770  1.3403
  165SAPS  C31518669   4.920   3.250   4.889  0.6192 -0.0708 -0.1442
  165SAPS  H15X18670   4.840   3.255   4.966 -0.2386  0.6420 -1.0616
  165SAPS  H15Y18671   4.967   3.151   4.904 -0.4185 -0.2777  2.1641
  165SAPS  C31618672   4.846   3.252   4.749 -0.4137 -0.4462 -0.1650
  165SAPS  H16X18673   4.930   3.250   4.676  0.0844  2.1517  0.2630
  165SAPS  H16Y18674   4.793   3.347   4.727  0.0788 -0.1534 -0.0864
  165SAPS  C31718675   4.756   3.136   4.722  0.2181 -0.0816 -0.1401
  165SAPS  H17X18676   4.795   3.037   4.753 -0.5690  0.5103  3.1894
  165SAPS  H17Y18677   4.724   3.128   4.616 -2.7123 -0.0055  0.6352
  165SAPS  C31818678   4.619   3.164   4.785  0.1766  0.3053 -0.4347
  165SAPS  H18X18679   4.548   3.094   4.736  2.3446 -1.2474 -1.5200
  165SAPS  H18Y18680   4.584   3.262   4.745  0.0567 -0.5606 -2.6122
  165SAPS  H18Z18681   4.636   3.158   4.894  0.1204  0.0100 -0.4422
  166SAPS     N18682   1.788   6.354   6.777  0.6470  0.0193  0.2687
  166SAPS   HN118683   1.752   6.440   6.824  0.7230  0.3556 -0.2778
  166SAPS   HN218684   1.750   6.371   6.682 -0.5695 -1.0473  0.5356
  166SAPS   HN318685   1.732   6.275   6.814 -0.8929  0.4986 -0.9533
  166SAPS   C1218686   1.930   6.309   6.787 -0.2000  0.7374  0.4467
  166SAPS  H12A18687   1.989   6.378   6.728  1.7580 -1.0029  0.2373
  166SAPS   C1318688   1.999   6.288   6.922 -0.5105 -0.4606 -0.8138
  166SAPS  O13A18689   1.935   6.309   7.031 -0.5464 -0.0949  1.0245
  166SAPS  O13B18690   2.127   6.292   6.932 -0.1672 -0.0095  0.0879
  166SAPS   C1118691   1.942   6.172   6.703  0.0170 -0.3882 -0.1276
  166SAPS  H11A18692   1.865   6.095   6.722  2.4878 -2.7400  1.0172
  166SAPS  H11B18693   2.034   6.119   6.736  0.6377  0.4625 -0.4452
  166SAPS     P18694   1.973   6.087   6.466 -0.0405 -0.1285 -0.2641
  166SAPS   O1318695   2.080   5.993   6.510 -0.4953  0.4410 -0.3839
  166SAPS   O1418696   1.849   6.026   6.441  0.3008  0.0410  0.1750
  166SAPS   O1218697   1.946   6.209   6.559  0.7589 -0.1902 -0.4554
  166SAPS   O1118698   2.028   6.167   6.341 -0.4964 -0.7185 -0.5280
  166SAPS    C118699   2.154   6.240   6.346 -0.1187  0.4850  0.2964
  166SAPS    HA18700   2.140   6.348   6.370 -0.1614 -0.0015  2.7371
  166SAPS    HB18701   2.229   6.200   6.418  0.6998 -0.3886 -0.9998
  166SAPS    C218702   2.221   6.223   6.203  0.6827 -1.0527 -0.1432
  166SAPS    HS18703   2.305   6.295   6.210 -1.6571  1.7691  1.1603
  166SAPS   O2118704   2.145   6.261   6.089 -0.0103 -0.1836 -0.2360
  166SAPS   C2118705   2.079   6.377   6.097  0.4669 -0.5841 -0.1881
  166SAPS   O2218706   2.088   6.467   6.183  0.8653  0.1680  0.1452
  166SAPS   C2218707   1.993   6.390   5.972  0.5128  0.6150 -0.1600
  166SAPS   H2R18708   2.025   6.313   5.899 -0.3476  0.7817 -0.7275
  166SAPS   H2S18709   1.890   6.369   6.008  1.0143  1.0813  1.6633
  166SAPS    C318710   2.267   6.081   6.183 -0.2683  0.4085 -1.0533
  166SAPS    HX18711   2.182   6.010   6.173  0.4854 -0.9439  1.3242
  166SAPS    HY18712   2.296   6.049   6.286 -2.0345  0.9644 -0.3451
  166SAPS   O3118713   2.364   6.070   6.081 -0.3498 -0.0820  0.0054
  166SAPS   C3118714   2.458   5.976   6.095 -0.8111 -0.1387  0.4630
  166SAPS   O3218715   2.483   5.910   6.192  0.2187  0.5515 -0.2902
  166SAPS   C3218716   2.528   5.963   5.957  0.0831  0.6656 -0.1597
  166SAPS   H2X18717   2.623   6.019   5.969 -0.0767  1.6347 -2.8013
  166SAPS   H2Y18718   2.464   6.017   5.885  1.1118  1.0060 -0.8324
  166SAPS   C2318719   1.993   6.527   5.905  0.2690 -0.0938 -0.1476
  166SAPS   H3R18720   2.013   6.612   5.973 -0.0325  1.3890 -1.8477
  166SAPS   H3S18721   1.890   6.540   5.866 -0.4489  0.0889  1.6945
  166SAPS   C2418722   2.095   6.552   5.796  0.2053 -0.3657  0.6243
  166SAPS   H4R18723   2.197   6.529   5.832  0.7122  1.6099  0.5582
  166SAPS   H4S18724   2.092   6.659   5.763 -0.4520 -0.7234 -0.5411
  166SAPS   C2518725   2.072   6.469   5.673 -0.0825 -0.8808 -0.0179
  166SAPS   H5R18726   2.058   6.363   5.699 -0.8993  0.1559  4.7205
  166SAPS   C2618727   2.077   6.510   5.545  0.4977 -0.0629 -0.5867
  166SAPS   H6R18728   2.052   6.431   5.472 -0.8521  0.3819 -0.6269
  166SAPS   C2718729   2.089   6.648   5.498 -0.3804  0.9278 -0.5820
  166SAPS   H7R18730   2.083   6.727   5.575  1.4260  0.0710  0.5116
  166SAPS   H7S18731   1.995   6.656   5.440 -0.8049 -2.8849 -0.6799
  166SAPS   C2818732   2.210   6.659   5.413  0.2643 -0.2089  0.1710
  166SAPS   H8R18733   2.305   6.684   5.462 -0.3660  1.1817  0.7489
  166SAPS   C2918734   2.201   6.641   5.277  0.3223 -0.0612 -0.3795
  166SAPS   H9R18735   2.291   6.665   5.218 -0.0010  3.2536  0.2641
  166SAPS  C21018736   2.085   6.607   5.193  0.4022 -0.4388 -0.5991
  166SAPS  H10R18737   2.008   6.554   5.254 -0.8590 -0.1826 -1.9275
  166SAPS  H10S18738   2.116   6.538   5.112  0.3072 -0.0428 -0.9790
  166SAPS  C21118739   2.017   6.728   5.132  1.2934 -0.1243  0.5065
  166SAPS  H11R18740   1.991   6.815   5.193  0.9867 -0.0605  0.2860
  166SAPS  C21218741   1.998   6.735   4.997  0.6629 -0.5972 -0.3435
  166SAPS  H12R18742   1.954   6.828   4.960  0.5553 -0.7552 -0.6159
  166SAPS  C21318743   2.032   6.633   4.887 -0.3372 -1.0056  0.0747
  166SAPS  H13R18744   1.966   6.668   4.804  0.5969 -0.4400 -0.4426
  166SAPS  H13S18745   1.998   6.533   4.921  0.6023 -0.9912  1.0724
  166SAPS  C21418746   2.173   6.629   4.833 -0.2527 -0.8691  0.2130
  166SAPS  H14R18747   2.250   6.575   4.890  0.3834 -1.3057 -1.0174
  166SAPS  C21518748   2.215   6.690   4.718 -0.0267  0.3846 -0.3258
  166SAPS  H15R18749   2.321   6.675   4.692 -0.6294 -3.3379 -1.3166
  166SAPS  C21618750   2.138   6.784   4.627  0.6930 -0.1086 -0.0746
  166SAPS  H16R18751   2.189   6.882   4.615  0.2800 -0.0956 -2.3212
  166SAPS  H16S18752   2.044   6.810   4.679  1.1131  1.9201 -0.2465
  166SAPS  C21718753   2.112   6.719   4.490 -0.4978  0.0580  0.3838
  166SAPS  H17R18754   2.030   6.769   4.435 -1.0263 -2.5965 -1.4480
  166SAPS  H17S18755   2.092   6.613   4.516 -1.8799  0.3974  0.7633
  166SAPS  C21818756   2.243   6.723   4.414 -0.4645  0.0907 -0.3176
  166SAPS  H18R18757   2.243   6.636   4.344  0.7818 -0.4347  0.2952
  166SAPS  H18S18758   2.331   6.689   4.474 -1.1062 -0.3635  0.3783
  166SAPS  C21918759   2.303   6.852   4.365 -0.5194 -0.6497  0.0155
  166SAPS  H19R18760   2.414   6.841   4.361 -0.7283 -3.3556 -1.1017
  166SAPS  H19S18761   2.280   6.937   4.433  0.3213 -0.4546  0.0667
  166SAPS  C22018762   2.268   6.897   4.220 -1.1699  0.1494  0.6796
  166SAPS  H20R18763   2.326   6.984   4.183  1.6119 -1.2101  1.5595
  166SAPS  H20S18764   2.160   6.899   4.195 -0.6929  0.5125 -1.5095
  166SAPS  H20T18765   2.301   6.812   4.156  1.8314  1.6072  0.1129
  166SAPS   C3318766   2.558   5.814   5.929  0.0302 -0.2054 -0.8802
  166SAPS   H3X18767   2.530   5.752   6.016 -0.8576 -0.8082 -1.5682
  166SAPS   H3Y18768   2.668   5.813   5.916  0.2092 -0.6627  0.5616
  166SAPS   C3418769   2.481   5.751   5.814  0.5871 -0.7529  0.7807
  166SAPS   H4X18770   2.381   5.799   5.819  0.9346  0.0944 -0.0316
  166SAPS   H4Y18771   2.470   5.641   5.826 -0.7422 -0.5727  1.4390
  166SAPS   C3518772   2.550   5.786   5.683  0.0890 -0.1651  0.8014
  166SAPS   H5X18773   2.654   5.747   5.685  0.5010  0.7570 -1.0904
  166SAPS   H5Y18774   2.579   5.893   5.682  2.0938 -0.6390  2.1234
  166SAPS   C3618775   2.485   5.731   5.559  0.9760  0.5951  1.1686
  166SAPS   H6X18776   2.379   5.764   5.552  0.7692 -0.2057  0.3962
  166SAPS   H6Y18777   2.478   5.620   5.569 -3.0376  0.3434 -2.0349
  166SAPS   C3718778   2.560   5.758   5.431 -0.0680  0.4266 -0.0899
  166SAPS   H7X18779   2.528   5.684   5.355 -0.7683  1.7479 -1.1198
  166SAPS   H7Y18780   2.667   5.740   5.456  0.1025 -0.3350 -1.3218
  166SAPS   C3818781   2.535   5.890   5.366  0.1110  0.5550  0.2197
  166SAPS   H8X18782   2.572   5.970   5.433  2.0984  0.9229 -1.2290
  166SAPS   H8Y18783   2.424   5.900   5.355 -0.0105 -0.7704  0.1000
  166SAPS   C3918784   2.592   5.894   5.219  0.0835 -0.5743 -0.6751
  166SAPS   H9X18785   2.579   5.792   5.176 -0.9578 -0.6728 -0.1385
  166SAPS   H9Y18786   2.702   5.908   5.225 -0.1372  2.4165 -1.7533
  166SAPS  C31018787   2.524   5.998   5.135 -0.2518  0.2152 -0.1392
  166SAPS  H10X18788   2.520   6.092   5.193 -0.4372  0.0217  0.1626
  166SAPS  H10Y18789   2.426   5.953   5.107 -0.5974  0.9700 -0.1893
  166SAPS  C31118790   2.588   6.035   5.003  0.0329  0.2509 -0.5579
  166SAPS  H11X18791   2.531   6.122   4.965 -0.1013  0.6856  0.5923
  166SAPS  H11Y18792   2.589   5.954   4.928  0.3017  0.5710 -0.9047
  166SAPS  C31218793   2.728   6.088   5.031 -0.5793 -1.0548  0.3174
  166SAPS  H12X18794   2.798   6.008   5.063  1.2304  0.2215 -0.2853
  166SAPS  H12Y18795   2.706   6.167   5.105  1.4707  0.8929 -1.0487
  166SAPS  C31318796   2.788   6.164   4.906  0.2627  0.1937 -0.2593
  166SAPS  H13X18797   2.888   6.194   4.946  0.8581 -1.7869 -0.1560
  166SAPS  H13Y18798   2.739   6.260   4.877 -0.7732 -0.4147 -0.5628
  166SAPS  C31418799   2.800   6.080   4.780  0.2271  0.2275 -0.4068
  166SAPS  H14X18800   2.693   6.079   4.747 -0.5057  2.7775  1.5468
  166SAPS  H14Y18801   2.823   5.974   4.802 -0.4100  0.1671 -0.0051
  166SAPS  C31518802   2.891   6.139   4.675 -0.3370  0.3847  0.0764
  166SAPS  H15X18803   2.850   6.239   4.649 -0.0135  0.8180  1.1658
  166SAPS  H15Y18804   2.873   6.082   4.582 -2.1044 -0.4315  0.8623
  166SAPS  C31618805   3.040   6.153   4.713  0.9426  0.2230  0.0251
  166SAPS  H16X18806   3.084   6.052   4.732 -1.3191 -1.1403 -1.4567
  166SAPS  H16Y18807   3.049   6.213   4.806  0.5907 -0.7143  0.6891
  166SAPS  C31718808   3.115   6.220   4.595 -0.5282  1.1842 -0.2718
  166SAPS  H17X18809   3.114   6.147   4.511 -2.9369 -1.0125  1.4969
  166SAPS  H17Y18810   3.220   6.225   4.631 -0.5369 -4.3982  1.3672
  166SAPS  C31818811   3.067   6.359   4.542 -0.3491  0.0431  0.3455
  166SAPS  H18X18812   2.978   6.355   4.476  0.7016  1.6648 -1.2530
  166SAPS  H18Y18813   3.157   6.398   4.490 -0.4227  2.0909  1.6804
  166SAPS  H18Z18814   3.055   6.422   4.632 -1.3078  0.6185 -0.1658
  167SAPS     N18815   5.182   0.490   7.122  0.0421 -0.1670 -0.2950
  167SAPS   HN118816   5.206   0.591   7.127  0.3097 -0.2888  1.8122
  167SAPS   HN218817   5.079   0.477   7.120  0.2392 -1.7459 -1.2570
  167SAPS   HN318818   5.216   0.443   7.209 -0.0497 -3.5522 -1.9565
  167SAPS   C1218819   5.230   0.429   6.991  0.3216 -0.3647 -0.0505
  167SAPS  H12A18820   5.336   0.442   7.008  0.1612  1.0574  0.0165
  167SAPS   C1318821   5.193   0.285   6.953 -0.0198 -0.2167 -0.0956
  167SAPS  O13A18822   5.107   0.223   7.020 -0.0210  0.2015  0.0906
  167SAPS  O13B18823   5.241   0.244   6.848  0.2996 -0.3440  0.1724
  167SAPS   C1118824   5.209   0.529   6.872  0.2456 -0.6089 -0.3043
  167SAPS  H11A18825   5.101   0.543   6.848  0.5388  1.1031 -0.7194
  167SAPS  H11B18826   5.259   0.496   6.778  1.8528 -0.0188  0.3198
  167SAPS     P18827   5.271   0.768   6.809 -0.2857 -0.1945  0.2603
  167SAPS   O1318828   5.132   0.800   6.780  0.5604 -0.6387 -0.2136
  167SAPS   O1418829   5.363   0.875   6.850 -0.3504  0.7332  0.3508
  167SAPS   O1218830   5.279   0.651   6.915  0.6591 -0.8056  0.1922
  167SAPS   O1118831   5.329   0.701   6.679  0.1153 -0.0126  0.4192
  167SAPS    C118832   5.452   0.627   6.678 -0.2205 -0.1226 -0.5930
  167SAPS    HA18833   5.491   0.606   6.780 -3.5688 -0.0793  0.8097
  167SAPS    HB18834   5.443   0.532   6.621  1.1654 -0.2066 -0.7041
  167SAPS    C218835   5.560   0.702   6.593 -0.2528 -0.0682 -0.4478
  167SAPS    HS18836   5.594   0.801   6.632  0.0614  0.7371 -2.6280
  167SAPS   O2118837   5.525   0.713   6.461 -0.0767 -0.3299  0.6274
  167SAPS   C2118838   5.448   0.811   6.430 -0.2484 -0.4476  0.4655
  167SAPS   O2218839   5.410   0.904   6.500 -0.1191 -0.0993  0.0073
  167SAPS   C2218840   5.439   0.810   6.278  0.5424  0.2067 -0.4178
  167SAPS   H2R18841   5.538   0.851   6.247  0.6307  1.3131  1.1980
  167SAPS   H2S18842   5.427   0.704   6.248  0.3823 -0.4250  1.6868
  167SAPS    C318843   5.696   0.627   6.599 -0.3034 -0.2028  0.2976
  167SAPS    HX18844   5.675   0.525   6.560 -2.6037  0.6105 -0.7965
  167SAPS    HY18845   5.733   0.614   6.702  1.1150  0.3825 -0.1211
  167SAPS   O3118846   5.795   0.699   6.528  0.3528  0.3414 -0.8432
  167SAPS   C3118847   5.869   0.631   6.444  0.4594  0.6374 -0.1524
  167SAPS   O3218848   5.883   0.510   6.432 -0.7577  0.0007  0.0871
  167SAPS   C3218849   5.951   0.736   6.364  0.2045 -0.2958 -0.2562
  167SAPS   H2X18850   6.054   0.695   6.353  0.2869 -0.8904  2.1605
  167SAPS   H2Y18851   5.955   0.833   6.417  0.1133  0.0466 -0.8686
  167SAPS   C2318852   5.331   0.909   6.217  0.1375 -0.3585 -0.5658
  167SAPS   H3R18853   5.336   1.006   6.272 -1.3418 -0.1015 -0.8584
  167SAPS   H3S18854   5.226   0.873   6.221 -0.9072  2.5373  0.8770
  167SAPS   C2418855   5.354   0.938   6.066  0.5522  0.0503 -0.2116
  167SAPS   H4R18856   5.341   0.841   6.013  1.6028 -0.0550 -0.3004
  167SAPS   H4S18857   5.456   0.976   6.044  0.0660  0.5948 -1.6002
  167SAPS   C2518858   5.268   1.052   6.014  0.0155 -0.2095 -0.1064
  167SAPS   H5R18859   5.229   1.118   6.094 -1.1279 -0.3872 -0.5047
  167SAPS   C2618860   5.248   1.087   5.885  0.2932  0.7727 -0.2940
  167SAPS   H6R18861   5.183   1.169   5.851 -2.2831 -0.6933  0.8187
  167SAPS   C2718862   5.290   0.990   5.772 -0.4828 -0.6706 -0.4074
  167SAPS   H7R18863   5.350   0.905   5.812 -1.8261 -1.6109 -0.3058
  167SAPS   H7S18864   5.362   1.049   5.711 -0.5879 -0.1440 -0.0242
  167SAPS   C2818865   5.173   0.939   5.702  0.1024 -0.1020 -0.0765
  167SAPS   H8R18866   5.087   0.907   5.762  0.2699  0.8312  0.6824
  167SAPS   C2918867   5.175   0.935   5.569  0.0575 -0.2902  0.0557
  167SAPS   H9R18868   5.089   0.893   5.515  0.5487 -0.4544 -0.6212
  167SAPS  C21018869   5.284   0.988   5.476 -0.4669 -0.2190 -0.4825
  167SAPS  H10R18870   5.267   0.951   5.373 -0.8199 -0.2883 -0.3982
  167SAPS  H10S18871   5.378   0.948   5.520 -0.7896  0.7726  1.2121
  167SAPS  C21118872   5.299   1.138   5.464 -0.2233 -0.2351  0.6868
  167SAPS  H11R18873   5.277   1.189   5.559 -0.4068  0.6943  0.1564
  167SAPS  C21218874   5.351   1.210   5.361  1.0163  0.1038 -0.1553
  167SAPS  H12R18875   5.333   1.318   5.368 -0.7465 -0.2166  1.0891
  167SAPS  C21318876   5.381   1.161   5.232 -0.9009 -0.3237  0.4032
  167SAPS  H13R18877   5.321   1.216   5.157 -2.4061 -0.6454  1.3346
  167SAPS  H13S18878   5.371   1.051   5.220  1.4110 -0.4777 -0.6913
  167SAPS  C21418879   5.526   1.193   5.215 -0.2520 -0.0987 -0.3690
  167SAPS  H14R18880   5.592   1.183   5.303 -0.0969  0.2217 -0.4463
  167SAPS  C21518881   5.587   1.200   5.096 -0.3421 -0.4720  0.1148
  167SAPS  H15R18882   5.688   1.241   5.103  0.5490 -2.7747  1.8879
  167SAPS  C21618883   5.532   1.200   4.952  0.0801  0.3012 -0.6041
  167SAPS  H16R18884   5.596   1.268   4.892 -0.5175 -0.0737 -1.6915
  167SAPS  H16S18885   5.429   1.242   4.956 -0.3653 -0.7465 -0.8184
  167SAPS  C21718886   5.521   1.065   4.878 -0.4306  0.0409 -0.4760
  167SAPS  H17R18887   5.464   0.994   4.941  1.0206 -2.0629 -1.4375
  167SAPS  H17S18888   5.622   1.021   4.864 -0.0602  0.3678  0.9343
  167SAPS  C21818889   5.452   1.074   4.742 -0.6134 -0.1430  0.9245
  167SAPS  H18R18890   5.346   1.106   4.752 -0.5481 -0.2485  2.0590
  167SAPS  H18S18891   5.457   0.973   4.696 -0.7353  0.8386 -1.3597
  167SAPS  C21918892   5.535   1.155   4.638  0.2930 -0.5100  0.2234
  167SAPS  H19R18893   5.637   1.125   4.670 -0.0270 -0.6012  1.1993
  167SAPS  H19S18894   5.529   1.265   4.646  1.2327 -0.4369 -0.0749
  167SAPS  C22018895   5.505   1.137   4.491  0.3605  0.8695 -0.0196
  167SAPS  H20R18896   5.595   1.150   4.428  0.3171  1.9465  0.1195
  167SAPS  H20S18897   5.428   1.209   4.457  0.8979  0.9287 -1.1450
  167SAPS  H20T18898   5.466   1.033   4.483  0.6661  0.6773  0.8456
  167SAPS   C3318899   5.899   0.750   6.217  0.1455 -0.6410  0.1667
  167SAPS   H3X18900   5.799   0.794   6.202  0.1969 -0.5119  0.2018
  167SAPS   H3Y18901   5.896   0.648   6.171  2.1004 -2.2015  3.1322
  167SAPS   C3418902   5.989   0.844   6.128  0.2976 -0.3948 -0.5992
  167SAPS   H4X18903   6.084   0.790   6.112  1.6916  2.2228 -1.7856
  167SAPS   H4Y18904   6.007   0.942   6.177 -0.0850 -0.0677 -1.1002
  167SAPS   C3518905   5.933   0.873   5.988  0.4042  0.2906 -0.4230
  167SAPS   H5X18906   5.991   0.947   5.930 -0.0803 -0.5797 -2.0982
  167SAPS   H5Y18907   5.835   0.924   6.002  0.1440  0.4853 -2.6167
  167SAPS   C3618908   5.899   0.745   5.914  0.0869 -0.5161  0.6137
  167SAPS   H6X18909   5.834   0.673   5.968 -0.8049  0.4066  0.7999
  167SAPS   H6Y18910   5.994   0.692   5.892 -0.0284 -0.8305  0.8719
  167SAPS   C3718911   5.820   0.782   5.784  1.3785 -0.0859 -0.3663
  167SAPS   H7X18912   5.839   0.709   5.703  1.8772 -2.3253  1.6327
  167SAPS   H7Y18913   5.845   0.883   5.746  1.1857  0.6291  1.3251
  167SAPS   C3818914   5.666   0.788   5.807  0.2395 -0.1362  0.3966
  167SAPS   H8X18915   5.655   0.869   5.883 -2.4003  0.8335 -0.8936
  167SAPS   H8Y18916   5.636   0.690   5.849 -0.3191 -0.2563 -0.2595
  167SAPS   C3918917   5.583   0.805   5.674 -0.0793  0.6360  1.1608
  167SAPS   H9X18918   5.567   0.914   5.663 -2.5951  0.1964 -0.3823
  167SAPS   H9Y18919   5.475   0.779   5.676 -0.1535  0.5277 -1.1956
  167SAPS  C31018920   5.644   0.748   5.543 -0.3198 -0.3727 -0.4481
  167SAPS  H10X18921   5.659   0.639   5.555  0.8187 -0.0751  1.1566
  167SAPS  H10Y18922   5.744   0.794   5.525 -0.7251  0.4596 -0.6263
  167SAPS  C31118923   5.564   0.784   5.414  0.1222  0.2895 -0.1929
  167SAPS  H11X18924   5.549   0.892   5.391  2.8522  0.9493  0.7678
  167SAPS  H11Y18925   5.467   0.730   5.418 -0.0779  0.6188 -0.5277
  167SAPS  C31218926   5.640   0.745   5.290  0.3207  0.4298 -0.4968
  167SAPS  H12X18927   5.681   0.643   5.304 -0.9893 -0.1404 -0.6622
  167SAPS  H12Y18928   5.726   0.814   5.294 -0.1698  1.0128  0.5027
  167SAPS  C31318929   5.561   0.750   5.164  0.2201  0.5315  0.3254
  167SAPS  H13X18930   5.507   0.846   5.156  1.2686  1.2219  1.2732
  167SAPS  H13Y18931   5.484   0.670   5.159 -0.7556  1.4906 -0.3278
  167SAPS  C31418932   5.659   0.739   5.040  0.7826 -0.0562  0.1244
  167SAPS  H14X18933   5.727   0.656   5.068 -0.5432 -1.7420 -1.4364
  167SAPS  H14Y18934   5.710   0.838   5.036 -0.3739  0.7305  2.5440
  167SAPS  C31518935   5.605   0.672   4.908  0.6588  0.2384 -0.2537
  167SAPS  H15X18936   5.673   0.703   4.826 -0.9612  1.3341 -1.2360
  167SAPS  H15Y18937   5.497   0.689   4.886  0.0363 -3.0222 -0.1702
  167SAPS  C31618938   5.629   0.517   4.907 -0.6650  1.0034  0.7275
  167SAPS  H16X18939   5.730   0.487   4.944 -0.1563  1.1940 -0.4745
  167SAPS  H16Y18940   5.634   0.485   4.801 -0.0874  2.2064  0.3728
  167SAPS  C31718941   5.531   0.437   4.986 -0.3307  0.0661  0.2192
  167SAPS  H17X18942   5.432   0.465   4.943  0.2780 -0.8383 -1.8558
  167SAPS  H17Y18943   5.540   0.465   5.093  0.3131 -0.4712  0.3088
  167SAPS  C31818944   5.539   0.284   4.988 -0.4164  0.6291  0.5507
  167SAPS  H18X18945   5.444   0.243   5.027 -0.7420  0.7142 -0.1310
  167SAPS  H18Y18946   5.623   0.237   5.043  0.1185  1.9167  0.8555
  167SAPS  H18Z18947   5.541   0.239   4.886  2.1171 -1.6633  1.4912
  168SAPS     N18948   4.448   6.426   6.713  0.2717 -0.6213 -0.4458
  168SAPS   HN118949   4.463   6.448   6.814  0.1375 -0.1399 -0.5258
  168SAPS   HN218950   4.499   6.505   6.668 -0.2084  0.9132  1.5518
  168SAPS   HN318951   4.344   6.427   6.712  0.2381 -1.3876  0.5011
  168SAPS   C1218952   4.506   6.298   6.684  0.2738 -0.8946  0.0332
  168SAPS  H12A18953   4.523   6.286   6.578  1.8097 -0.3414  0.1829
  168SAPS   C1318954   4.648   6.291   6.756 -0.0766  0.9877  0.0444
  168SAPS  O13A18955   4.690   6.368   6.841  0.1976 -0.2221 -0.0478
  168SAPS  O13B18956   4.715   6.186   6.726  0.0275 -0.0297 -0.3925
  168SAPS   C1118957   4.405   6.188   6.726  0.2100  0.1891  0.3012
  168SAPS  H11A18958   4.396   6.203   6.836 -2.1201 -2.3404  0.5658
  168SAPS  H11B18959   4.449   6.087   6.712  0.5332  0.2851  0.6158
  168SAPS     P18960   4.193   6.093   6.607  0.2458  0.4625 -0.0342
  168SAPS   O1318961   4.277   5.999   6.522 -0.4285 -0.1844 -0.0364
  168SAPS   O1418962   4.117   6.029   6.719 -0.3956 -0.6749 -0.2527
  168SAPS   O1218963   4.277   6.213   6.661 -0.3910 -0.0806  0.4212
  168SAPS   O1118964   4.084   6.164   6.521  0.0914 -0.2897 -0.1457
  168SAPS    C118965   4.123   6.285   6.442 -0.4006  0.1819 -0.0273
  168SAPS    HA18966   4.077   6.374   6.490  1.7059  0.4256  1.7016
  168SAPS    HB18967   4.232   6.289   6.421 -0.3959 -2.4224 -0.8263
  168SAPS    C218968   4.062   6.269   6.301  0.5793  0.0557  0.1957
  168SAPS    HS18969   3.951   6.264   6.304  0.4254  2.0173 -0.6422
  168SAPS   O2118970   4.130   6.158   6.240 -0.2901 -1.1954 -0.1362
  168SAPS   C2118971   4.055   6.059   6.196 -0.3196  0.0014 -0.7868
  168SAPS   O2218972   3.934   6.053   6.200  0.1807 -0.4085  0.3483
  168SAPS   C2218973   4.159   5.944   6.156 -0.7384 -0.2141  0.7705
  168SAPS   H2R18974   4.262   5.987   6.154 -0.0055 -1.7492  2.1383
  168SAPS   H2S18975   4.171   5.886   6.251 -0.9150  0.8038  1.4285
  168SAPS    C318976   4.092   6.404   6.227  0.8156  0.0984 -0.1985
  168SAPS    HX18977   4.202   6.419   6.220  0.7610  1.0613  0.7096
  168SAPS    HY18978   4.057   6.496   6.279 -3.3673 -0.7608 -1.1543
  168SAPS   O3118979   4.035   6.411   6.089 -0.2051 -0.2218  0.1983
  168SAPS   C3118980   3.900   6.418   6.094  0.3358  0.0366 -0.5199
  168SAPS   O3218981   3.834   6.435   6.196 -0.0016 -0.0070  0.4312
  168SAPS   C3218982   3.851   6.425   5.958  0.5156 -0.0955  0.0818
  168SAPS   H2X18983   3.740   6.435   5.963  0.6551  1.5423  0.5347
  168SAPS   H2Y18984   3.871   6.333   5.900  0.7435 -0.0403  0.0739
  168SAPS   C2318985   4.131   5.851   6.036 -0.1212  0.1158  0.4553
  168SAPS   H3R18986   4.023   5.826   6.027  0.4437 -1.8161 -3.5163
  168SAPS   H3S18987   4.178   5.753   6.061  0.3218  0.0063 -0.7168
  168SAPS   C2418988   4.177   5.912   5.901  0.4380  0.3217 -0.3011
  168SAPS   H4R18989   4.162   5.835   5.822 -1.8280 -0.4546  0.8170
  168SAPS   H4S18990   4.284   5.940   5.909  0.4245  0.0151  1.2166
  168SAPS   C2518991   4.082   6.027   5.871 -0.1800 -0.0008 -0.3841
  168SAPS   H5R18992   3.978   6.000   5.850  0.0256 -0.2557 -1.1231
  168SAPS   C2618993   4.114   6.163   5.848  0.0561  0.3143 -0.3419
  168SAPS   H6R18994   4.038   6.234   5.812  2.3357  1.8618 -2.3749
  168SAPS   C2718995   4.252   6.216   5.860 -0.6713 -0.0434 -0.0536
  168SAPS   H7R18996   4.313   6.137   5.813  0.1222  0.5729 -0.0815
  168SAPS   H7S18997   4.285   6.221   5.966 -0.4177  0.6060 -0.1524
  168SAPS   C2818998   4.268   6.354   5.794 -0.3231  0.3521  0.3599
  168SAPS   H8R18999   4.297   6.441   5.855  0.7467  0.3780 -0.1613
  168SAPS   C2919000   4.253   6.383   5.662  0.5363 -0.1369  0.1785
  168SAPS   H9R19001   4.259   6.489   5.633  0.4174 -0.7477 -2.2399
  168SAPS  C21019002   4.215   6.278   5.561 -0.6364 -0.4285 -0.5150
  168SAPS  H10R19003   4.106   6.259   5.564 -0.4355 -1.5430  0.2316
  168SAPS  H10S19004   4.264   6.183   5.591 -0.2668 -0.1575 -0.2320
  168SAPS  C21119005   4.261   6.304   5.420  0.7070  0.1163  0.1517
  168SAPS  H11R19006   4.328   6.388   5.399  2.0876 -0.6771  1.1927
  168SAPS  C21219007   4.216   6.241   5.303  0.2270  0.2515 -0.2750
  168SAPS  H12R19008   4.287   6.260   5.220  1.8956 -0.2244  0.9806
  168SAPS  C21319009   4.122   6.125   5.289  0.1626 -0.2911  0.3280
  168SAPS  H13R19010   4.037   6.164   5.228 -0.6732 -1.4097  0.7443
  168SAPS  H13S19011   4.076   6.107   5.388 -0.3063 -0.1506  0.1379
  168SAPS  C21419012   4.179   5.999   5.233  0.3828  0.8314  0.0223
  168SAPS  H14R19013   4.211   5.928   5.311 -0.6702  2.2239  1.8006
  168SAPS  C21519014   4.175   5.962   5.101 -0.9507 -0.1077  1.5152
  168SAPS  H15R19015   4.209   5.861   5.072 -0.4478  0.3048  0.6075
  168SAPS  C21619016   4.122   6.046   4.989 -0.4035  0.0944  0.6088
  168SAPS  H16R19017   4.111   6.149   5.030 -1.5123 -0.3403  1.4575
  168SAPS  H16S19018   4.020   6.010   4.961 -0.6389  0.2099  1.3036
  168SAPS  C21719019   4.198   6.057   4.856 -0.1865  0.1389  0.3641
  168SAPS  H17R19020   4.130   6.107   4.784  0.7001  1.9766  0.7419
  168SAPS  H17S19021   4.230   5.958   4.817  1.9992  0.6007  0.8342
  168SAPS  C21819022   4.318   6.156   4.870  0.2525  0.8314  0.1974
  168SAPS  H18R19023   4.396   6.112   4.936  1.8692  0.1101 -2.0725
  168SAPS  H18S19024   4.284   6.250   4.918 -0.1905  0.8253 -0.0962
  168SAPS  C21919025   4.380   6.181   4.733 -0.3788  0.1503  0.6810
  168SAPS  H19R19026   4.305   6.193   4.651  0.1174 -0.7705  0.0614
  168SAPS  H19S19027   4.439   6.092   4.701 -1.2962  0.1130 -1.0490
  168SAPS  C22019028   4.475   6.306   4.731  0.2580 -0.3063  0.1340
  168SAPS  H20R19029   4.423   6.389   4.785 -0.6959 -0.8268  0.0475
  168SAPS  H20S19030   4.498   6.337   4.626 -1.5781  0.2232 -0.1552
  168SAPS  H20T19031   4.562   6.280   4.795 -0.8526 -0.7164  1.5296
  168SAPS   C3319032   3.892   6.561   5.891  1.1532  0.2994 -0.2076
  168SAPS   H3X19033   3.996   6.541   5.856 -0.1111 -2.2477 -2.8490
  168SAPS   H3Y19034   3.900   6.642   5.967  0.4568  0.7020 -0.5630
  168SAPS   C3419035   3.796   6.604   5.788  0.3780  0.5311  0.2420
  168SAPS   H4X19036   3.716   6.658   5.842  0.2754  2.6007 -1.8168
  168SAPS   H4Y19037   3.754   6.512   5.741 -0.1283 -0.0789  1.8216
  168SAPS   C3519038   3.861   6.705   5.694  0.2951 -0.2751 -0.2150
  168SAPS   H5X19039   3.909   6.792   5.743  2.5848 -0.8289 -1.3015
  168SAPS   H5Y19040   3.779   6.741   5.628  0.7122  0.3462 -0.3950
  168SAPS   C3619041   3.963   6.631   5.609 -0.5578  0.8365  0.6604
  168SAPS   H6X19042   3.943   6.522   5.615 -0.3339  0.7485 -0.0853
  168SAPS   H6Y19043   4.067   6.646   5.646 -0.1892 -1.7303  0.8421
  168SAPS   C3719044   3.960   6.669   5.460 -0.0286  0.4679 -0.1465
  168SAPS   H7X19045   3.994   6.771   5.434 -0.0416  0.6640  0.5826
  168SAPS   H7Y19046   3.855   6.645   5.434  0.2800 -0.1275 -0.8815
  168SAPS   C3819047   4.046   6.570   5.375 -1.0695  0.4665  0.3006
  168SAPS   H8X19048   4.024   6.464   5.404  0.8139  0.6184  2.5825
  168SAPS   H8Y19049   4.151   6.597   5.395 -1.6114  2.7317  0.2898
  168SAPS   C3919050   4.018   6.597   5.226 -0.3615 -0.5988  0.0018
  168SAPS   H9X19051   4.021   6.708   5.212 -1.0029 -0.5752  0.0284
  168SAPS   H9Y19052   3.914   6.562   5.210 -0.0588 -0.8086 -1.6965
  168SAPS  C31019053   4.100   6.516   5.130  0.0671 -0.2313  0.2483
  168SAPS  H10X19054   4.128   6.415   5.166 -1.2007 -0.5144  0.4773
  168SAPS  H10Y19055   4.202   6.561   5.123  1.3138 -1.8280  4.8692
  168SAPS  C31119056   4.033   6.499   4.988 -0.4477  0.0205 -0.0476
  168SAPS  H11X19057   3.929   6.459   4.994 -0.6437  0.5209 -0.0939
  168SAPS  H11Y19058   4.082   6.411   4.940  0.1223  0.2884  0.0369
  168SAPS  C31219059   4.029   6.625   4.901 -0.1986 -0.4395  0.0967
  168SAPS  H12X19060   4.132   6.666   4.898  0.5783 -2.2837 -2.3313
  168SAPS  H12Y19061   3.964   6.699   4.952  2.1673  2.2717 -0.5180
  168SAPS  C31319062   3.986   6.595   4.758 -0.4280  0.3184 -0.2687
  168SAPS  H13X19063   3.970   6.686   4.697 -1.0704  1.4215  1.4480
  168SAPS  H13Y19064   3.877   6.570   4.764 -0.2385 -0.1499  2.6634
  168SAPS  C31419065   4.055   6.472   4.689  0.1306 -0.2710 -0.0076
  168SAPS  H14X19066   4.010   6.376   4.722 -0.1580  0.2294  1.1017
  168SAPS  H14Y19067   4.159   6.474   4.728  0.2519 -1.8482 -0.1842
  168SAPS  C31519068   4.058   6.486   4.535  0.0684 -0.0752  0.0675
  168SAPS  H15X19069   4.103   6.585   4.512  2.9842 -1.2566  0.2708
  168SAPS  H15Y19070   3.959   6.497   4.485  0.1176  0.7856  0.1476
  168SAPS  C31619071   4.144   6.383   4.466 -0.4545 -0.7984  0.7619
  168SAPS  H16X19072   4.238   6.377   4.524  0.9707 -2.6270 -1.5274
  168SAPS  H16Y19073   4.168   6.423   4.365  0.9117  0.4020  1.5275
  168SAPS  C31719074   4.083   6.246   4.451 -0.0204  0.8046  0.4634
  168SAPS  H17X19075   4.052   6.216   4.553  3.0117 -1.2504  0.9069
  168SAPS  H17Y19076   4.164   6.176   4.422 -0.5830  1.0966 -2.0965
  168SAPS  C31819077   3.968   6.237   4.355  0.1811  0.1313  0.3163
  168SAPS  H18X19078   3.955   6.137   4.309  2.4483 -0.0536 -0.0533
  168SAPS  H18Y19079   3.987   6.295   4.262 -0.2513  0.5783  0.5063
  168SAPS  H18Z19080   3.874   6.275   4.399 -1.4089 -0.8057 -2.0894
  169SAPS     N19081   6.334   0.272   6.870  0.2291  0.1731 -0.2333
  169SAPS   HN119082   6.369   0.294   6.775  1.6336 -0.8228  0.0077
  169SAPS   HN219083   6.393   0.199   6.917 -0.3495  0.9128  1.7679
  169SAPS   HN319084   6.240   0.229   6.867  2.1394 -4.8345  0.3541
  169SAPS   C1219085   6.341   0.397   6.939 -0.1186 -0.5797  0.2585
  169SAPS  H12A19086   6.294   0.472   6.877  2.1468  1.2544  0.6265
  169SAPS   C1319087   6.272   0.402   7.080 -0.3543  0.0545 -0.3371
  169SAPS  O13A19088   6.200   0.309   7.127  0.0507  0.3690  0.7231
  169SAPS  O13B19089   6.277   0.515   7.137 -0.1268 -0.2990 -0.3699
  169SAPS   C1119090   6.487   0.458   6.952  0.4673 -0.0863  0.6396
  169SAPS  H11A19091   6.551   0.369   6.974  1.5569 -0.2864 -2.8063
  169SAPS  H11B19092   6.496   0.535   7.032 -1.4767  0.1258  0.6840
  169SAPS     P19093   6.598   0.445   6.723  0.2254 -0.0490 -0.1682
  169SAPS   O1319094   6.728   0.392   6.770 -0.8754 -0.2022 -0.2404
  169SAPS   O1419095   6.497   0.341   6.681 -0.0543 -0.6869  0.0517
  169SAPS   O1219096   6.526   0.526   6.831  0.2216 -0.0288  0.0396
  169SAPS   O1119097   6.617   0.541   6.597  0.3056  0.4382  0.5877
  169SAPS    C119098   6.553   0.660   6.560 -0.2236 -0.3332 -0.2110
  169SAPS    HA19099   6.561   0.728   6.647  1.4679 -0.6833 -0.0551
  169SAPS    HB19100   6.618   0.706   6.483 -0.4847 -0.7563 -0.6967
  169SAPS    C219101   6.411   0.627   6.515 -0.4754  0.1825 -0.2301
  169SAPS    HS19102   6.365   0.567   6.597  0.9425 -1.3177 -0.4640
  169SAPS   O2119103   6.418   0.548   6.395 -0.3961 -0.1339 -0.0877
  169SAPS   C2119104   6.295   0.501   6.366  0.3037 -0.1920 -0.1404
  169SAPS   O2219105   6.196   0.519   6.434 -0.4110  0.1305 -0.4650
  169SAPS   C2219106   6.300   0.408   6.252  0.0304  0.5111 -0.4746
  169SAPS   H2R19107   6.398   0.418   6.200  0.1427 -1.3722 -0.6988
  169SAPS   H2S19108   6.293   0.306   6.295  1.2955 -0.1682 -1.7649
  169SAPS    C319109   6.335   0.763   6.487 -0.5280  0.2835 -0.1995
  169SAPS    HX19110   6.377   0.821   6.572  1.4363 -2.0126  0.5436
  169SAPS    HY19111   6.225   0.762   6.497 -0.4822  0.6685  0.4316
  169SAPS   O3119112   6.369   0.824   6.361 -0.4137 -0.2446  0.0390
  169SAPS   C3119113   6.462   0.912   6.347 -0.1519 -0.5436  0.2849
  169SAPS   O3219114   6.533   0.959   6.433 -0.4011 -0.1450  0.1367
  169SAPS   C3219115   6.481   0.941   6.196  0.0541  0.4762  0.2293
  169SAPS   H2X19116   6.591   0.945   6.184 -0.0163  1.0404 -0.2795
  169SAPS   H2Y19117   6.430   1.039   6.180  1.1926  1.5501  2.7105
  169SAPS   C2319118   6.175   0.434   6.163 -0.1822  0.5273  0.2530
  169SAPS   H3R19119   6.170   0.538   6.126  2.1193  0.2890 -0.9719
  169SAPS   H3S19120   6.091   0.413   6.233 -2.3833 -2.2315 -2.8742
  169SAPS   C2419121   6.173   0.332   6.049 -0.6656 -0.0146 -0.0661
  169SAPS   H4R19122   6.081   0.339   5.986 -0.3007  2.2388 -0.4337
  169SAPS   H4S19123   6.177   0.229   6.092  2.2252 -0.0046 -0.1589
  169SAPS   C2519124   6.292   0.340   5.958 -0.5029 -0.0860  0.1737
  169SAPS   H5R19125   6.384   0.296   5.998  0.3088  1.3608 -0.0226
  169SAPS   C2619126   6.296   0.371   5.828  0.4526 -0.0485  0.5608
  169SAPS   H6R19127   6.394   0.384   5.780 -0.4647  0.9643 -1.1311
  169SAPS   C2719128   6.173   0.418   5.751  0.0950 -0.2728  0.0609
  169SAPS   H7R19129   6.135   0.509   5.803  2.2474  1.7447 -1.7137
  169SAPS   H7S19130   6.101   0.333   5.759  1.1970 -1.1505  1.0944
  169SAPS   C2819131   6.209   0.446   5.604  0.4475 -0.1639 -0.1924
  169SAPS   H8R19132   6.235   0.354   5.550  0.3725 -0.5485  0.4148
  169SAPS   C2919133   6.234   0.568   5.544  0.3279  0.4986  0.1654
  169SAPS   H9R19134   6.272   0.569   5.441  0.4492 -0.5764  0.1811
  169SAPS  C21019135   6.226   0.702   5.608  0.1716  0.6478  0.3403
  169SAPS  H10R19136   6.314   0.757   5.569  0.8154  0.7888  1.9193
  169SAPS  H10S19137   6.242   0.682   5.716 -0.3433 -0.0716  0.2945
  169SAPS  C21119138   6.096   0.776   5.576 -0.4140  0.6911 -0.1288
  169SAPS  H11R19139   6.054   0.803   5.674  3.4680 -3.5544  3.2172
  169SAPS  C21219140   6.051   0.824   5.466  0.2461 -0.8649 -0.0422
  169SAPS  H12R19141   5.952   0.870   5.476 -0.5746 -2.0579 -2.0310
  169SAPS  C21319142   6.098   0.818   5.324  0.4709  0.1637  0.0669
  169SAPS  H13R19143   6.203   0.780   5.319  0.3366 -0.1059 -3.3046
  169SAPS  H13S19144   6.110   0.921   5.282 -0.7033 -0.0187 -0.7668
  169SAPS  C21419145   6.002   0.740   5.229 -0.1092 -0.4360  0.0467
  169SAPS  H14R19146   5.916   0.686   5.272 -0.3762 -0.8475 -0.9592
  169SAPS  C21519147   6.020   0.733   5.093 -0.2318 -0.3366 -0.0726
  169SAPS  H15R19148   5.946   0.678   5.034 -0.3779 -0.3337  0.1076
  169SAPS  C21619149   6.124   0.804   5.007  0.0285 -0.0398  0.6111
  169SAPS  H16R19150   6.177   0.737   4.937  1.0552  2.7782 -1.4908
  169SAPS  H16S19151   6.201   0.852   5.072 -1.6343  2.8926  0.5635
  169SAPS  C21719152   6.057   0.916   4.928 -0.5708 -0.0533 -0.4169
  169SAPS  H17R19153   6.139   0.973   4.879  0.2054  0.5037  1.4191
  169SAPS  H17S19154   5.992   0.975   4.997 -1.7845 -2.1347  0.2889
  169SAPS  C21819155   5.960   0.868   4.815  0.2257  0.5767  0.0687
  169SAPS  H18R19156   5.867   0.827   4.860  0.1835  1.5626  0.9111
  169SAPS  H18S19157   6.007   0.790   4.752  0.7623  0.9460 -0.0003
  169SAPS  C21919158   5.929   0.987   4.720 -0.0038  0.0145  0.0805
  169SAPS  H19R19159   6.030   1.004   4.675  0.0955  0.9103  0.6057
  169SAPS  H19S19160   5.896   1.081   4.770  2.8228  0.6074  0.9963
  169SAPS  C22019161   5.840   0.950   4.599  0.0835  0.1329 -0.1920
  169SAPS  H20R19162   5.895   0.874   4.540  0.8867  1.8697 -1.7696
  169SAPS  H20S19163   5.826   1.034   4.529 -1.2421  0.5865  0.5943
  169SAPS  H20T19164   5.746   0.895   4.621 -0.4090  0.2214 -1.9561
  169SAPS   C3319165   6.411   0.837   6.105 -0.2658  0.0565 -0.1069
  169SAPS   H3X19166   6.301   0.851   6.117  0.2478  2.7765  2.6346
  169SAPS   H3Y19167   6.434   0.729   6.120  0.7148  0.0904 -1.2506
  169SAPS   C3419168   6.431   0.870   5.958  0.3046 -0.6129 -0.5551
  169SAPS   H4X19169   6.428   0.779   5.894 -1.6996 -0.8377 -0.1885
  169SAPS   H4Y19170   6.532   0.917   5.956  0.0750 -0.1193 -1.0850
  169SAPS   C3519171   6.320   0.958   5.894 -0.3168 -0.0575  0.3755
  169SAPS   H5X19172   6.291   1.034   5.970 -2.2575  0.9432 -1.2454
  169SAPS   H5Y19173   6.239   0.890   5.858 -1.1179  1.6313 -1.1820
  169SAPS   C3619174   6.371   1.025   5.763  0.5331 -0.5543  1.0305
  169SAPS   H6X19175   6.396   0.944   5.692 -1.4351 -0.2514 -0.0734
  169SAPS   H6Y19176   6.457   1.087   5.796  0.2049 -0.1182  1.0712
  169SAPS   C3719177   6.265   1.130   5.710  0.3519  0.8317 -0.2228
  169SAPS   H7X19178   6.247   1.206   5.788 -0.2361  0.3768  0.0953
  169SAPS   H7Y19179   6.169   1.078   5.687  1.2856 -0.1418 -2.1852
  169SAPS   C3819180   6.312   1.210   5.586  0.9234 -0.0444  0.5334
  169SAPS   H8X19181   6.395   1.274   5.622  2.4785 -0.6797 -1.7135
  169SAPS   H8Y19182   6.216   1.261   5.562 -1.5166 -3.2444  2.6039
  169SAPS   C3919183   6.356   1.129   5.462 -0.1416  0.0450  0.3844
  169SAPS   H9X19184   6.278   1.059   5.427  0.4681  0.0779 -1.1250
  169SAPS   H9Y19185   6.440   1.066   5.500  0.8245  1.6408  1.0297
  169SAPS  C31019186   6.386   1.224   5.351 -0.2645 -0.2189 -0.7892
  169SAPS  H10X19187   6.491   1.259   5.361 -0.4298  0.0389  0.0858
  169SAPS  H10Y19188   6.309   1.304   5.343  1.0156  1.1537  0.0504
  169SAPS  C31119189   6.400   1.150   5.224 -0.0336  0.1596  0.2294
  169SAPS  H11X19190   6.304   1.100   5.196 -0.2745  1.1915 -0.8763
  169SAPS  H11Y19191   6.479   1.072   5.231 -1.0114 -0.6974  3.0121
  169SAPS  C31219192   6.448   1.240   5.108  0.1777  0.5321 -0.3702
  169SAPS  H12X19193   6.556   1.268   5.109  0.9953 -2.3107 -0.0167
  169SAPS  H12Y19194   6.383   1.330   5.100 -1.8969 -1.0502 -2.2500
  169SAPS  C31319195   6.435   1.163   4.973 -0.0189  0.8408 -0.0421
  169SAPS  H13X19196   6.330   1.140   4.944 -0.9700  4.0542  0.5096
  169SAPS  H13Y19197   6.486   1.067   4.997 -1.2453 -0.3873 -2.0183
  169SAPS  C31419198   6.523   1.209   4.857 -0.8325 -0.7289  0.9884
  169SAPS  H14X19199   6.523   1.130   4.779  1.7630 -0.8838  1.0756
  169SAPS  H14Y19200   6.624   1.225   4.899  0.1535 -0.7429 -1.2330
  169SAPS  C31519201   6.479   1.350   4.802  0.0012  0.1715 -0.2230
  169SAPS  H15X19202   6.489   1.436   4.872 -1.1090  1.7149 -1.8500
  169SAPS  H15Y19203   6.370   1.333   4.785  0.2573 -1.9446 -0.0019
  169SAPS  C31619204   6.555   1.382   4.677  0.0395  0.1848 -0.0640
  169SAPS  H16X19205   6.532   1.303   4.603 -1.1817  0.1161  0.3816
  169SAPS  H16Y19206   6.662   1.374   4.707 -0.2075  0.1759  0.8357
  169SAPS  C31719207   6.527   1.512   4.618 -0.3464 -0.0666  0.5094
  169SAPS  H17X19208   6.512   1.588   4.697 -4.6406  3.1541 -2.8520
  169SAPS  H17Y19209   6.429   1.519   4.565  0.9238 -0.1448 -2.0077
  169SAPS  C31819210   6.642   1.550   4.523  0.0686  0.0146 -0.4685
  169SAPS  H18X19211   6.624   1.643   4.465  2.5343  0.2021 -1.0745
  169SAPS  H18Y19212   6.650   1.469   4.447  0.3793 -2.7400  2.3096
  169SAPS  H18Z19213   6.739   1.547   4.577 -0.4385  1.6884  0.6101
  170SAPS     N19214   1.521   6.122   6.621 -0.3096  0.8142 -0.3121
  170SAPS   HN119215   1.526   6.224   6.639 -2.0618  0.7481  0.7864
  170SAPS   HN219216   1.611   6.075   6.601 -0.4874  0.7066 -0.8846
  170SAPS   HN319217   1.458   6.122   6.538 -0.1527 -0.0827 -0.4383
  170SAPS   C1219218   1.459   6.052   6.738  0.2927  0.0927 -0.1682
  170SAPS  H12A19219   1.457   5.945   6.720 -0.4617  0.0633  0.0349
  170SAPS   C1319220   1.534   6.081   6.869  0.4429 -0.5875  0.5318
  170SAPS  O13A19221   1.623   6.170   6.874 -0.4323 -0.2248 -0.0399
  170SAPS  O13B19222   1.500   6.015   6.970  0.7133  1.0806  0.0827
  170SAPS   C1119223   1.313   6.108   6.755  0.4034 -0.4952  0.0958
  170SAPS  H11A19224   1.299   6.187   6.832 -3.6127 -2.3797  1.5865
  170SAPS  H11B19225   1.256   6.030   6.809  1.8062 -1.2184  0.5545
  170SAPS     P19226   1.182   6.288   6.603  0.4055 -0.1731 -0.0217
  170SAPS   O1319227   1.068   6.310   6.693  0.3363 -0.5353  0.1537
  170SAPS   O1419228   1.292   6.386   6.610 -0.0853 -0.4061  0.0840
  170SAPS   O1219229   1.245   6.147   6.634 -0.0950  0.3918 -0.5666
  170SAPS   O1119230   1.138   6.263   6.453  0.1363 -0.3836 -0.3311
  170SAPS    C119231   1.013   6.197   6.428 -0.4121  0.2268  0.1776
  170SAPS    HA19232   0.997   6.111   6.497 -1.3480 -0.8595 -1.3118
  170SAPS    HB19233   0.924   6.262   6.444 -1.1650 -0.9668  1.1043
  170SAPS    C219234   0.997   6.131   6.288 -0.0161 -0.8365 -0.4469
  170SAPS    HS19235   1.090   6.070   6.277 -0.7384 -2.0439 -0.0710
  170SAPS   O2119236   0.974   6.228   6.187  0.4643 -0.0053  0.7189
  170SAPS   C2119237   1.058   6.219   6.083 -0.5124  0.2001 -0.4314
  170SAPS   O2219238   1.149   6.137   6.078  0.5896 -0.2095  0.1865
  170SAPS   C2219239   1.017   6.315   5.972  0.7848  0.3136  0.1461
  170SAPS   H2R19240   0.924   6.369   6.003 -1.2419 -1.8681 -1.7359
  170SAPS   H2S19241   1.102   6.385   5.957 -1.0262  3.0026  1.5903
  170SAPS    C319242   0.880   6.038   6.288  0.5557  0.7463  0.5148
  170SAPS    HX19243   0.783   6.092   6.296  0.4830  1.0334 -1.6055
  170SAPS    HY19244   0.879   5.962   6.369 -2.6706 -1.5478 -1.4153
  170SAPS   O3119245   0.881   5.956   6.161  0.2042  0.3420 -0.4314
  170SAPS   C3119246   0.965   5.858   6.144  0.0062 -0.4586  0.0827
  170SAPS   O3219247   1.047   5.822   6.223  0.5485  0.0487 -0.2262
  170SAPS   C3219248   0.943   5.782   6.014  0.2958  0.1163  0.1314
  170SAPS   H2X19249   0.840   5.794   5.976 -0.5522 -1.9940  1.5986
  170SAPS   H2Y19250   0.957   5.676   6.043 -1.9199 -0.5446 -1.0256
  170SAPS   C2319251   0.990   6.243   5.835 -0.0797  0.3104 -0.4896
  170SAPS   H3R19252   0.923   6.158   5.858  0.6779 -0.4725 -1.1012
  170SAPS   H3S19253   1.082   6.186   5.808  1.9526  2.2966  1.6936
  170SAPS   C2419254   0.956   6.351   5.730 -0.6585 -0.0064 -0.5366
  170SAPS   H4R19255   1.054   6.403   5.724 -0.5036 -0.3811 -1.3607
  170SAPS   H4S19256   0.881   6.423   5.770 -1.5882 -0.4059 -1.5019
  170SAPS   C2519257   0.906   6.283   5.608 -0.0723 -0.6087  0.2715
  170SAPS   H5R19258   0.827   6.207   5.616 -1.9268  0.5788 -3.7724
  170SAPS   C2619259   0.932   6.316   5.483  0.3453 -0.1983  0.2283
  170SAPS   H6R19260   0.876   6.264   5.404  1.6812  1.0189 -1.6154
  170SAPS   C2719261   1.025   6.420   5.423 -0.0310  0.0898 -0.0451
  170SAPS   H7R19262   1.053   6.394   5.319 -2.9587 -0.0827 -0.8818
  170SAPS   H7S19263   1.115   6.426   5.487 -1.6917 -1.0614  2.5781
  170SAPS   C2819264   0.978   6.556   5.431  0.8071  0.4406 -1.0310
  170SAPS   H8R19265   0.925   6.587   5.522  2.0603 -0.8016  0.1822
  170SAPS   C2919266   0.995   6.655   5.340 -0.0595  0.2480  0.1257
  170SAPS   H9R19267   0.965   6.759   5.359  3.2047  1.2346  0.4824
  170SAPS  C21019268   1.051   6.645   5.200 -0.3304 -1.0137 -0.4088
  170SAPS  H10R19269   1.148   6.590   5.205  1.0971  1.4204  0.8260
  170SAPS  H10S19270   1.070   6.744   5.152  0.4638 -0.3574  1.2003
  170SAPS  C21119271   0.964   6.556   5.107  0.3214 -0.3713 -0.4479
  170SAPS  H11R19272   0.873   6.514   5.153 -1.1428  0.8829 -2.1054
  170SAPS  C21219273   1.004   6.513   4.983  0.0327  0.3075  0.6479
  170SAPS  H12R19274   0.931   6.455   4.925 -3.0748  1.6174  2.9159
  170SAPS  C21319275   1.125   6.550   4.902 -1.0606 -0.0108  0.1221
  170SAPS  H13R19276   1.143   6.465   4.833  1.1296 -1.0282  1.8221
  170SAPS  H13S19277   1.221   6.550   4.957 -0.8448 -0.9512 -0.2379
  170SAPS  C21419278   1.097   6.679   4.828 -0.1800 -0.1542 -0.0910
  170SAPS  H14R19279   1.136   6.765   4.883 -0.2006 -0.5752  0.5984
  170SAPS  C21519280   1.044   6.696   4.703  0.0536  0.0731  0.2493
  170SAPS  H15R19281   1.034   6.800   4.669 -0.0975  0.3612  1.1261
  170SAPS  C21619282   0.998   6.591   4.602  0.5885  0.5698  0.0648
  170SAPS  H16R19283   1.013   6.484   4.627  0.5631  0.3216 -0.9276
  170SAPS  H16S19284   1.055   6.608   4.508  0.3383  0.6485 -0.0714
  170SAPS  C21719285   0.848   6.618   4.578  0.0138  0.3746 -0.1150
  170SAPS  H17R19286   0.837   6.724   4.546  2.6140  1.2031  1.3428
  170SAPS  H17S19287   0.792   6.608   4.674 -0.8876  3.9346 -0.1365
  170SAPS  C21819288   0.792   6.523   4.469 -1.1536 -0.7511 -0.1888
  170SAPS  H18R19289   0.817   6.420   4.501 -0.4748 -1.1249 -1.7975
  170SAPS  H18S19290   0.854   6.535   4.377  3.0009  0.5365  2.5246
  170SAPS  C21919291   0.639   6.517   4.450 -0.3150 -0.0936  0.4963
  170SAPS  H19R19292   0.604   6.482   4.550  0.7838  0.0001  0.9319
  170SAPS  H19S19293   0.632   6.430   4.382  0.0074 -1.1901  1.8115
  170SAPS  C22019294   0.567   6.646   4.407  0.1712  0.6319  0.1654
  170SAPS  H20R19295   0.599   6.677   4.305  0.4252  1.6180  0.5351
  170SAPS  H20S19296   0.584   6.725   4.483 -1.1974  1.0899  0.0221
  170SAPS  H20T19297   0.457   6.627   4.404 -0.5170  3.8348  1.5786
  170SAPS   C3319298   1.054   5.830   5.915 -0.1970  0.0075 -0.0837
  170SAPS   H3X19299   1.153   5.818   5.963 -1.2696 -2.0466  1.7507
  170SAPS   H3Y19300   1.047   5.940   5.902  1.4855  0.0286 -1.1184
  170SAPS   C3419301   1.034   5.776   5.779 -0.8356 -0.0920 -0.4128
  170SAPS   H4X19302   0.927   5.761   5.757 -0.4979 -0.6254 -1.8158
  170SAPS   H4Y19303   1.077   5.673   5.772  1.5116  0.6883  1.0533
  170SAPS   C3519304   1.098   5.861   5.667  0.3116 -0.4903 -0.6395
  170SAPS   H5X19305   1.208   5.873   5.682  0.1213 -1.2230  1.8265
  170SAPS   H5Y19306   1.050   5.961   5.662 -0.4641 -0.8377 -0.2128
  170SAPS   C3619307   1.072   5.793   5.535  0.3824  0.0238 -0.1277
  170SAPS   H6X19308   0.964   5.770   5.523  0.1833 -0.2658  1.8617
  170SAPS   H6Y19309   1.126   5.696   5.528  1.7540  0.7199  0.3478
  170SAPS   C3719310   1.134   5.879   5.420  0.2027  0.1770  0.4493
  170SAPS   H7X19311   1.245   5.880   5.422  0.2164  1.3772  0.1275
  170SAPS   H7Y19312   1.097   5.983   5.434  0.4053  0.6866 -2.2413
  170SAPS   C3819313   1.090   5.839   5.276  0.2190 -0.1021  0.1919
  170SAPS   H8X19314   0.980   5.830   5.286 -0.0875  1.7746 -1.0089
  170SAPS   H8Y19315   1.140   5.749   5.234 -0.4553 -0.2893 -0.2162
  170SAPS   C3919316   1.118   5.955   5.174 -0.3465 -0.0628 -0.3232
  170SAPS   H9X19317   1.223   5.993   5.177 -0.7538  1.1209 -0.5709
  170SAPS   H9Y19318   1.053   6.041   5.198  1.3581  0.7443  1.7324
  170SAPS  C31019319   1.095   5.909   5.034  0.0399  0.2364 -0.9891
  170SAPS  H10X19320   0.989   5.875   5.031  0.2295 -0.3978 -0.7812
  170SAPS  H10Y19321   1.159   5.821   5.011 -0.3885 -0.4338  0.2856
  170SAPS  C31119322   1.108   6.019   4.931 -0.1571  0.3572 -0.0171
  170SAPS  H11X19323   1.205   6.071   4.949 -1.2791  2.3506  0.5151
  170SAPS  H11Y19324   1.017   6.082   4.934 -2.0377 -2.2441  1.3701
  170SAPS  C31219325   1.117   5.945   4.794 -1.0193  0.2669  0.1252
  170SAPS  H12X19326   1.032   5.874   4.785 -0.6698 -0.1633  0.2206
  170SAPS  H12Y19327   1.209   5.884   4.796 -2.0520 -1.4552 -1.7174
  170SAPS  C31319328   1.113   6.032   4.662  0.0202  0.6733 -0.4995
  170SAPS  H13X19329   1.010   6.072   4.663 -1.1963 -2.1831 -1.0854
  170SAPS  H13Y19330   1.132   5.953   4.586 -3.8077 -1.0211  0.0870
  170SAPS  C31419331   1.207   6.150   4.661  0.1384 -0.4490  0.9635
  170SAPS  H14X19332   1.313   6.114   4.660  0.0069 -0.8503 -1.1735
  170SAPS  H14Y19333   1.183   6.192   4.761  1.0974 -1.0915  1.4828
  170SAPS  C31519334   1.177   6.247   4.545 -0.2527  0.8461 -0.5043
  170SAPS  H15X19335   1.219   6.344   4.579  0.9793 -0.4780  1.9612
  170SAPS  H15Y19336   1.066   6.245   4.535 -0.2348 -0.9834 -0.6544
  170SAPS  C31619337   1.238   6.213   4.408  0.0120 -0.0491 -0.0573
  170SAPS  H16X19338   1.243   6.102   4.398 -0.2851 -0.0946  0.2470
  170SAPS  H16Y19339   1.339   6.259   4.407 -0.6062  1.3833  0.2998
  170SAPS  C31719340   1.167   6.267   4.278  0.0822 -0.3010  0.0486
  170SAPS  H17X19341   1.072   6.209   4.283  0.0527 -0.2811 -0.2682
  170SAPS  H17Y19342   1.227   6.218   4.198  1.4731 -1.4275  1.6966
  170SAPS  C31819343   1.146   6.420   4.265  0.0143  0.0120  0.5287
  170SAPS  H18X19344   1.247   6.466   4.276  0.1819 -0.2705  0.2008
  170SAPS  H18Y19345   1.072   6.445   4.344  1.1461 -0.8760  1.9119
  170SAPS  H18Z19346   1.107   6.443   4.163  1.2407  1.4292  0.3517
  171SAPS     N19347   0.098   1.501   6.525 -0.7888  0.2268  0.2244
  171SAPS   HN119348   0.151   1.497   6.436 -0.9453  0.4605  0.1188
  171SAPS   HN219349  -0.002   1.523   6.504 -0.9401 -0.6724 -0.0497
  171SAPS   HN319350   0.117   1.592   6.571 -0.1549  0.2567 -0.0964
  171SAPS   C1219351   0.117   1.396   6.623  0.7219 -0.0908 -0.1049
  171SAPS  H12A19352   0.223   1.392   6.641  1.0953 -0.7525 -2.1824
  171SAPS   C1319353   0.043   1.425   6.759  1.2060  0.7119  0.1485
  171SAPS  O13A19354  -0.050   1.514   6.754 -0.2120  0.0270  0.4097
  171SAPS  O13B19355   0.050   1.329   6.843  0.4421 -0.0687 -0.3745
  171SAPS   C1119356   0.061   1.263   6.558 -0.0064  0.6011  0.0920
  171SAPS  H11A19357  -0.049   1.276   6.550 -0.3338 -2.2081 -0.9223
  171SAPS  H11B19358   0.096   1.192   6.635  1.8946  2.1934  0.7747
  171SAPS     P19359   0.258   1.165   6.415 -0.4105  0.4067  0.3596
  171SAPS   O1319360   0.365   1.215   6.506 -0.4139  0.4491 -0.2192
  171SAPS   O1419361   0.223   1.020   6.422 -0.3709  0.4420  0.5040
  171SAPS   O1219362   0.120   1.245   6.432 -0.3020  0.5049 -0.2078
  171SAPS   O1119363   0.303   1.207   6.268 -0.1690  0.9031  0.3464
  171SAPS    C119364   0.210   1.176   6.159 -0.3586  0.1284  0.3443
  171SAPS    HA19365   0.119   1.118   6.187  0.1407 -0.0120  1.7715
  171SAPS    HB19366   0.169   1.272   6.120 -0.4459  0.1963  0.5968
  171SAPS    C219367   0.274   1.096   6.041 -0.5200 -0.1761  0.2991
  171SAPS    HS19368   0.284   0.989   6.067  1.9044 -1.1261 -3.5944
  171SAPS   O2119369   0.406   1.150   6.005  0.0247  0.1694  0.0366
  171SAPS   C2119370   0.515   1.099   6.055  0.2126  0.3471  0.0827
  171SAPS   O2219371   0.517   1.024   6.150  0.4468  0.1964 -0.0541
  171SAPS   C2219372   0.639   1.137   5.976 -0.3128 -0.2419  0.0998
  171SAPS   H2R19373   0.694   1.199   6.051 -1.8738  0.1765  0.9326
  171SAPS   H2S19374   0.707   1.050   5.963  2.4468  2.0307 -2.4558
  171SAPS    C319375   0.176   1.098   5.924  0.6184 -0.8400  0.8508
  171SAPS    HX19376   0.165   1.207   5.910 -1.8231 -1.1364  0.0594
  171SAPS    HY19377   0.075   1.067   5.958  0.6060  1.2208  2.8869
  171SAPS   O3119378   0.222   1.039   5.798  0.0044 -0.0049  0.4154
  171SAPS   C3119379   0.236   0.897   5.804  0.0597  0.7262  0.2440
  171SAPS   O3219380   0.219   0.834   5.908 -0.3484 -0.1280 -0.0820
  171SAPS   C3219381   0.269   0.836   5.664 -0.1441  0.0914  0.1309
  171SAPS   H2X19382   0.198   0.753   5.647  1.3713 -1.4083  0.8797
  171SAPS   H2Y19383   0.369   0.789   5.671  0.4208  0.7397 -2.4378
  171SAPS   C2319384   0.631   1.207   5.840  0.1834  0.0526  0.1348
  171SAPS   H3R19385   0.731   1.246   5.813  1.5548 -0.8586  3.4286
  171SAPS   H3S19386   0.565   1.296   5.848 -0.8071 -0.5096 -1.3770
  171SAPS   C2419387   0.580   1.108   5.728 -0.0574  0.4569 -0.2298
  171SAPS   H4R19388   0.554   1.163   5.635 -1.8888 -1.3181 -0.8515
  171SAPS   H4S19389   0.486   1.056   5.759 -0.5833  1.5472  0.0512
  171SAPS   C2519390   0.672   0.998   5.695 -0.5804  0.2942 -0.1949
  171SAPS   H5R19391   0.693   0.915   5.764 -0.1872  0.1630 -0.4654
  171SAPS   C2619392   0.733   0.974   5.570  0.5845  0.4797 -0.6749
  171SAPS   H6R19393   0.805   0.891   5.574 -1.4151 -1.3269 -0.1297
  171SAPS   C2719394   0.716   1.054   5.442  0.7340  0.6240 -0.2039
  171SAPS   H7R19395   0.713   1.165   5.453  0.8300  0.6683 -0.5888
  171SAPS   H7S19396   0.617   1.025   5.401  1.2688  0.1337 -1.1945
  171SAPS   C2819397   0.824   1.027   5.334 -0.1973 -0.0297 -0.6825
  171SAPS   H8R19398   0.924   0.999   5.371  0.0266 -2.3543 -2.7211
  171SAPS   C2919399   0.818   1.039   5.201  0.6994  0.0935 -0.0256
  171SAPS   H9R19400   0.912   1.036   5.144  0.5945 -0.5134 -0.1650
  171SAPS  C21019401   0.697   1.067   5.122  0.3304  0.1114  0.0478
  171SAPS  H10R19402   0.602   1.052   5.178 -0.4749 -0.0858 -1.2949
  171SAPS  H10S19403   0.683   0.986   5.046  1.1482 -1.5715  1.6030
  171SAPS  C21119404   0.703   1.206   5.055  0.1677  0.2291  0.9382
  171SAPS  H11R19405   0.654   1.289   5.108  0.8148  1.5842 -0.5170
  171SAPS  C21219406   0.775   1.234   4.946  0.4182 -0.2277 -0.5224
  171SAPS  H12R19407   0.775   1.340   4.915  2.3915 -0.0905 -0.1707
  171SAPS  C21319408   0.844   1.132   4.856  0.2642 -0.8150  0.0550
  171SAPS  H13R19409   0.788   1.037   4.855  0.3748 -0.8828  0.5126
  171SAPS  H13S19410   0.950   1.119   4.889  0.9125  1.7993 -0.7015
  171SAPS  C21419411   0.856   1.173   4.707  0.0484  0.5479 -0.2932
  171SAPS  H14R19412   0.802   1.103   4.641  0.8092  0.1534 -0.5037
  171SAPS  C21519413   0.934   1.267   4.645 -0.8076  0.6861 -0.1300
  171SAPS  H15R19414   0.912   1.291   4.540  0.3160  4.1822  0.3078
  171SAPS  C21619415   1.031   1.360   4.716  0.4284 -0.1769 -0.0038
  171SAPS  H16R19416   1.131   1.363   4.668  1.3270  2.0961  1.8620
  171SAPS  H16S19417   1.040   1.320   4.819 -0.4568  3.0547  1.4397
  171SAPS  C21719418   0.972   1.510   4.723 -0.6267 -0.0421  0.6190
  171SAPS  H17R19419   0.890   1.500   4.797 -0.1538  1.2755  1.3446
  171SAPS  H17S19420   0.956   1.543   4.618  3.1513 -1.6169 -0.6096
  171SAPS  C21819421   1.079   1.601   4.794  0.1164 -0.4731 -0.4414
  171SAPS  H18R19422   1.045   1.706   4.803  0.5796 -0.4318  1.1866
  171SAPS  H18S19423   1.176   1.597   4.739  1.0825 -1.2670  1.2615
  171SAPS  C21919424   1.121   1.569   4.944  0.8974  0.1726 -1.3325
  171SAPS  H19R19425   1.163   1.466   4.943 -0.0560 -0.2572  0.0723
  171SAPS  H19S19426   1.025   1.567   5.000  0.9616  1.2041 -1.1799
  171SAPS  C22019427   1.218   1.673   5.001  0.4166 -0.2310  0.0780
  171SAPS  H20R19428   1.312   1.693   4.945  1.1948 -1.3098  0.9757
  171SAPS  H20S19429   1.241   1.634   5.102 -0.9369  2.0814  1.3893
  171SAPS  H20T19430   1.162   1.767   5.022 -0.4119 -0.9346  1.1474
  171SAPS   C3319431   0.278   0.942   5.550 -0.1137  0.1663  0.4563
  171SAPS   H3X19432   0.357   1.019   5.563 -0.6505  0.9335 -0.6523
  171SAPS   H3Y19433   0.184   1.002   5.553  0.2751  0.7716  1.2480
  171SAPS   C3419434   0.288   0.896   5.406 -0.2185 -0.0032 -0.8810
  171SAPS   H4X19435   0.203   0.826   5.389  1.0538 -2.1814  1.1033
  171SAPS   H4Y19436   0.380   0.835   5.402  0.9163  1.5544  0.1579
  171SAPS   C3519437   0.305   1.007   5.301 -0.4350  0.3095  1.2255
  171SAPS   H5X19438   0.394   1.070   5.323  0.7872  0.2697 -2.8836
  171SAPS   H5Y19439   0.209   1.060   5.283 -1.1848 -1.4902 -0.3106
  171SAPS   C3619440   0.338   0.949   5.164 -0.0750 -0.5536  0.1803
  171SAPS   H6X19441   0.283   0.856   5.134 -1.3610  0.2473 -0.0372
  171SAPS   H6Y19442   0.444   0.915   5.167  0.0869  0.0158  1.0686
  171SAPS   C3719443   0.343   1.060   5.057  0.4310 -0.1435 -0.0632
  171SAPS   H7X19444   0.418   1.135   5.089  1.0667 -0.4347 -0.8322
  171SAPS   H7Y19445   0.243   1.108   5.056  0.9480  0.9512 -0.4511
  171SAPS   C3819446   0.390   1.012   4.916 -0.6158 -0.3415 -0.1820
  171SAPS   H8X19447   0.324   0.933   4.874  2.0681 -2.6685 -0.2875
  171SAPS   H8Y19448   0.492   0.976   4.940 -0.8963 -0.3708  1.0235
  171SAPS   C3919449   0.404   1.131   4.810 -0.5685  0.3584 -0.1373
  171SAPS   H9X19450   0.479   1.201   4.850  0.6173  0.6713 -2.7221
  171SAPS   H9Y19451   0.311   1.192   4.809 -0.8744 -0.0953 -0.5645
  171SAPS  C31019452   0.447   1.074   4.670 -0.1735  0.2020  0.0741
  171SAPS  H10X19453   0.368   1.004   4.637 -0.3203 -0.7250  2.2394
  171SAPS  H10Y19454   0.546   1.027   4.687 -0.5516 -0.3298  0.8358
  171SAPS  C31119455   0.488   1.174   4.558  0.5756  0.1169  0.6918
  171SAPS  H11X19456   0.568   1.246   4.587  0.3638  1.0635 -0.9417
  171SAPS  H11Y19457   0.405   1.242   4.530 -0.8164 -2.7365 -2.8226
  171SAPS  C31219458   0.543   1.125   4.422 -0.1639 -0.3966  0.0015
  171SAPS  H12X19459   0.475   1.047   4.382  0.1413 -0.4937 -0.3406
  171SAPS  H12Y19460   0.625   1.062   4.464 -2.2918 -2.4916  1.2826
  171SAPS  C31319461   0.574   1.229   4.320 -0.1351  0.1085  0.4018
  171SAPS  H13X19462   0.622   1.305   4.385  2.2016  0.1307 -1.2098
  171SAPS  H13Y19463   0.483   1.275   4.277  0.4184  0.3787 -0.5147
  171SAPS  C31419464   0.668   1.179   4.204  0.7648 -0.0202 -0.2308
  171SAPS  H14X19465   0.621   1.094   4.151  2.6754 -0.1631 -1.7918
  171SAPS  H14Y19466   0.760   1.138   4.250 -0.4587  0.0849  2.5348
  171SAPS  C31519467   0.705   1.288   4.105 -0.0198  1.0971 -0.4986
  171SAPS  H15X19468   0.790   1.253   4.043 -1.3350 -0.7029 -1.3990
  171SAPS  H15Y19469   0.740   1.384   4.148  2.8031 -0.5986  1.3000
  171SAPS  C31619470   0.598   1.312   3.995  0.1389  0.1554 -0.2390
  171SAPS  H16X19471   0.508   1.360   4.038 -0.0884 -1.3419  1.0459
  171SAPS  H16Y19472   0.566   1.214   3.955  0.0669  0.6240 -1.3811
  171SAPS  C31719473   0.649   1.412   3.889 -0.5242  0.3836 -0.3599
  171SAPS  H17X19474   0.731   1.360   3.836 -0.2889  0.4522 -0.0653
  171SAPS  H17Y19475   0.703   1.496   3.937  1.0700 -0.5270 -0.4968
  171SAPS  C31819476   0.554   1.454   3.778  0.7250 -0.2176  0.5020
  171SAPS  H18X19477   0.516   1.358   3.738  0.6027  0.0200  0.0502
  171SAPS  H18Y19478   0.603   1.517   3.701 -0.1790 -1.7268 -1.3797
  171SAPS  H18Z19479   0.462   1.505   3.812 -0.0458 -2.2351  1.5956
  172SAPS     N19480   1.310   6.646   6.506 -0.2782 -0.0026  0.0941
  172SAPS   HN119481   1.236   6.659   6.435  2.0634  2.2486 -2.1636
  172SAPS   HN219482   1.398   6.673   6.457 -1.0482 -1.6096 -2.3477
  172SAPS   HN319483   1.322   6.547   6.537 -0.2779 -0.1475 -0.3641
  172SAPS   C1219484   1.295   6.745   6.619 -0.1193  0.1141  0.3526
  172SAPS  H12A19485   1.226   6.702   6.690  0.6399 -2.6402 -0.4514
  172SAPS   C1319486   1.414   6.759   6.715 -0.6601 -0.1973  0.0987
  172SAPS  O13A19487   1.518   6.694   6.684  0.4823  0.2272  0.3405
  172SAPS  O13B19488   1.413   6.836   6.815 -0.0963 -0.7972  0.7994
  172SAPS   C1119489   1.253   6.880   6.564  0.5456 -0.3103  0.5233
  172SAPS  H11A19490   1.332   6.925   6.501 -1.9945  1.9884 -1.2773
  172SAPS  H11B19491   1.234   6.945   6.651 -0.4855  0.3153 -0.1422
  172SAPS     P19492   1.054   7.003   6.449  0.4205  0.0203 -0.2914
  172SAPS   O1319493   0.914   6.965   6.423 -0.4985  0.2919 -0.2932
  172SAPS   O1419494   1.073   7.100   6.559  0.0776 -0.7455 -0.2979
  172SAPS   O1219495   1.133   6.870   6.485  0.0193 -0.4184  0.1752
  172SAPS   O1119496   1.121   7.060   6.312 -0.1945  0.2446 -0.6131
  172SAPS    C119497   1.244   7.141   6.320 -0.0941 -0.5692  0.7796
  172SAPS    HA19498   1.214   7.245   6.343  1.8970  0.4994 -1.1229
  172SAPS    HB19499   1.316   7.101   6.393  0.5456  0.3102  0.6416
  172SAPS    C219500   1.309   7.152   6.172  0.0965 -0.6041 -0.0463
  172SAPS    HS19501   1.385   7.233   6.164  2.0265 -2.1074  1.7301
  172SAPS   O2119502   1.212   7.150   6.071  0.3211 -0.0214  0.0411
  172SAPS   C2119503   1.134   7.259   6.064  0.0348 -0.2813 -0.4967
  172SAPS   O2219504   1.166   7.368   6.113  0.4608  0.4256  0.2872
  172SAPS   C2219505   1.002   7.231   5.988  0.2928 -1.3982  0.3778
  172SAPS   H2R19506   0.937   7.185   6.065 -0.7835  0.8319  0.8929
  172SAPS   H2S19507   0.946   7.322   5.957 -0.4065 -1.6571  0.8748
  172SAPS    C319508   1.392   7.025   6.157 -0.2548  0.3197 -0.6555
  172SAPS    HX19509   1.331   6.932   6.163 -1.2679  0.8582 -2.0119
  172SAPS    HY19510   1.469   7.030   6.237 -0.4626 -2.1341 -0.2207
  172SAPS   O3119511   1.451   7.017   6.026  0.2642 -0.6139  0.0261
  172SAPS   C3119512   1.523   6.913   6.002 -1.0049 -0.4366 -0.5208
  172SAPS   O3219513   1.533   6.816   6.080  0.7042  0.5323 -0.4845
  172SAPS   C3219514   1.601   6.937   5.874 -0.4686  0.1711  0.6754
  172SAPS   H2X19515   1.654   7.032   5.892  1.3859 -0.6844 -0.0411
  172SAPS   H2Y19516   1.532   6.966   5.791 -1.6638  0.8062  1.8551
  172SAPS   C2319517   1.018   7.130   5.875  0.1889 -0.7044 -0.0306
  172SAPS   H3R19518   1.046   7.035   5.924 -0.5645  1.2888  4.8028
  172SAPS   H3S19519   1.107   7.162   5.816 -0.3154  0.6887 -0.0727
  172SAPS   C2419520   0.901   7.119   5.781 -0.3355  0.3252  0.6367
  172SAPS   H4R19521   0.813   7.090   5.843  0.0859 -1.5589  0.4219
  172SAPS   H4S19522   0.922   7.028   5.720  0.1089  1.8000 -1.5066
  172SAPS   C2519523   0.886   7.245   5.704 -0.0678 -0.2308 -0.3038
  172SAPS   H5R19524   0.834   7.329   5.754  0.5762 -0.6567  1.1335
  172SAPS   C2619525   0.921   7.257   5.575  0.0418 -0.1915 -0.2719
  172SAPS   H6R19526   0.896   7.354   5.528 -0.0338  1.6251  3.2050
  172SAPS   C2719527   1.006   7.167   5.496 -0.6233  0.2668  0.4123
  172SAPS   H7R19528   0.947   7.121   5.413 -0.7754 -1.2606  1.3218
  172SAPS   H7S19529   1.029   7.079   5.560 -2.1100 -1.1287 -0.8733
  172SAPS   C2819530   1.128   7.244   5.444  1.1355  0.2923  0.4852
  172SAPS   H8R19531   1.195   7.273   5.527  1.0575 -0.0139  0.6580
  172SAPS   C2919532   1.161   7.281   5.321  0.0112  0.4855 -0.9436
  172SAPS   H9R19533   1.258   7.329   5.299  0.0470  0.5067 -0.7420
  172SAPS  C21019534   1.078   7.245   5.214  0.4845  0.0116 -0.5169
  172SAPS  H10R19535   0.973   7.277   5.232  0.3681 -0.0431 -1.0818
  172SAPS  H10S19536   1.068   7.135   5.195 -0.7714  0.4631 -2.8868
  172SAPS  C21119537   1.121   7.301   5.076  0.1796  0.3023  0.0236
  172SAPS  H11R19538   1.207   7.369   5.076 -0.1154  0.7363 -1.7268
  172SAPS  C21219539   1.060   7.283   4.957 -0.5984  0.1971  0.0387
  172SAPS  H12R19540   1.112   7.328   4.872  1.7052 -2.0545  0.1261
  172SAPS  C21319541   0.938   7.203   4.918  0.2601  0.2409 -0.6356
  172SAPS  H13R19542   0.854   7.276   4.921  0.8078  0.8595  0.4808
  172SAPS  H13S19543   0.918   7.121   4.989 -0.2578 -0.6626 -1.7800
  172SAPS  C21419544   0.952   7.139   4.784  0.1138  0.8805  0.6428
  172SAPS  H14R19545   1.013   7.048   4.797 -1.3749 -0.3209 -0.3708
  172SAPS  C21519546   0.928   7.183   4.659  0.5453 -0.1354  0.2080
  172SAPS  H15R19547   0.935   7.110   4.578  0.1244 -1.2898  1.1887
  172SAPS  C21619548   0.870   7.312   4.616  0.4821  0.4087 -0.0990
  172SAPS  H16R19549   0.928   7.351   4.529  0.9504 -1.9588 -0.9249
  172SAPS  H16S19550   0.880   7.386   4.697  1.4363 -0.6881  0.8148
  172SAPS  C21719551   0.729   7.289   4.572  0.7736  0.4678 -0.1055
  172SAPS  H17R19552   0.690   7.381   4.525  0.8716 -0.0824 -1.3115
  172SAPS  H17S19553   0.661   7.271   4.658  2.3750  0.7695  1.2744
  172SAPS  C21819554   0.704   7.200   4.452 -0.3666 -0.7330  0.0527
  172SAPS  H18R19555   0.723   7.099   4.493  0.3331 -0.2822  0.8550
  172SAPS  H18S19556   0.784   7.212   4.376 -1.0606  0.7806 -0.4763
  172SAPS  C21919557   0.566   7.210   4.380 -0.0942  0.1763 -0.5702
  172SAPS  H19R19558   0.550   7.314   4.344 -0.0529  0.6202  0.6520
  172SAPS  H19S19559   0.484   7.198   4.454  1.2746  1.1085  1.1907
  172SAPS  C22019560   0.536   7.107   4.268  0.5774  0.2882 -0.5081
  172SAPS  H20R19561   0.619   7.114   4.195 -0.1292 -2.1808 -1.6395
  172SAPS  H20S19562   0.441   7.137   4.219  1.9656  3.0250 -1.7297
  172SAPS  H20T19563   0.531   7.006   4.314  2.1606  0.6944  0.6373
  172SAPS   C3319564   1.698   6.817   5.838  0.6476 -0.5993 -0.4122
  172SAPS   H3X19565   1.644   6.725   5.806  0.4058 -0.4424 -0.4618
  172SAPS   H3Y19566   1.755   6.793   5.930 -1.2824  0.9858  1.2760
  172SAPS   C3419567   1.798   6.864   5.739 -0.0555 -0.9898 -0.3070
  172SAPS   H4X19568   1.883   6.793   5.726  0.5664 -0.4447  0.7035
  172SAPS   H4Y19569   1.845   6.960   5.770 -0.4296 -1.2021  0.9686
  172SAPS   C3519570   1.735   6.885   5.598 -0.2960  0.3415  0.2359
  172SAPS   H5X19571   1.643   6.946   5.607  0.4482  1.5715 -0.3603
  172SAPS   H5Y19572   1.714   6.782   5.560  1.1851  0.5612 -1.3262
  172SAPS   C3619573   1.830   6.954   5.507 -0.1560 -0.9017  0.5715
  172SAPS   H6X19574   1.918   6.886   5.498 -0.0003 -0.5622 -0.5571
  172SAPS   H6Y19575   1.876   7.048   5.545  0.9494 -1.3257  0.3321
  172SAPS   C3719576   1.776   6.980   5.365 -0.2856  0.2128 -0.4791
  172SAPS   H7X19577   1.693   7.053   5.375 -0.4343 -0.0150 -0.0578
  172SAPS   H7Y19578   1.750   6.883   5.317 -4.0603 -0.3993  2.3455
  172SAPS   C3819579   1.869   7.052   5.267 -0.2437 -0.7844 -0.6405
  172SAPS   H8X19580   1.970   7.006   5.273  0.6611  1.1620  0.1214
  172SAPS   H8Y19581   1.892   7.155   5.303  0.2438 -1.0375 -0.2167
  172SAPS   C3919582   1.821   7.050   5.121  0.0657  0.1610 -0.2204
  172SAPS   H9X19583   1.716   7.085   5.127 -0.4747 -1.6208  1.7193
  172SAPS   H9Y19584   1.829   6.944   5.087  0.3486 -0.3266  1.2945
  172SAPS  C31019585   1.911   7.129   5.027 -0.1010 -0.3086  0.4436
  172SAPS  H10X19586   2.018   7.101   5.039  0.9686  3.2514  0.2913
  172SAPS  H10Y19587   1.900   7.236   5.052 -3.5862 -0.1795 -1.0165
  172SAPS  C31119588   1.865   7.106   4.878  0.2012 -0.8082 -0.4517
  172SAPS  H11X19589   1.758   7.135   4.878  0.1408 -1.0253 -0.3714
  172SAPS  H11Y19590   1.867   6.996   4.861  1.4663 -1.2528  2.1290
  172SAPS  C31219591   1.938   7.186   4.777 -1.0865  0.2900 -0.0366
  172SAPS  H12X19592   2.045   7.160   4.767 -1.0933  0.3029 -0.1433
  172SAPS  H12Y19593   1.944   7.291   4.812 -1.9332  0.3929 -0.1861
  172SAPS  C31319594   1.864   7.175   4.645 -0.4193 -1.2154  0.5859
  172SAPS  H13X19595   1.762   7.219   4.653 -0.7749 -2.1668  1.5198
  172SAPS  H13Y19596   1.853   7.066   4.626  1.7349 -1.0478 -2.3824
  172SAPS  C31419597   1.940   7.239   4.523  0.1491  0.1796  0.0935
  172SAPS  H14X19598   1.879   7.240   4.430  0.5443 -0.2783 -0.1756
  172SAPS  H14Y19599   2.021   7.164   4.513  0.7691  0.5302  2.0611
  172SAPS  C31519600   1.999   7.378   4.551 -0.0189 -0.3403 -0.0841
  172SAPS  H15X19601   2.054   7.397   4.646 -2.7766 -1.9298  1.9718
  172SAPS  H15Y19602   1.921   7.453   4.577 -0.4663 -0.9928  0.5102
  172SAPS  C31619603   2.092   7.427   4.440  0.5668 -0.5284  0.6263
  172SAPS  H16X19604   2.192   7.380   4.448  1.0988  0.9103  3.3366
  172SAPS  H16Y19605   2.052   7.396   4.341  1.5259  1.0485 -0.2900
  172SAPS  C31719606   2.124   7.578   4.435 -0.2072 -0.8819 -0.0284
  172SAPS  H17X19607   2.165   7.597   4.537 -0.4048 -0.4709 -0.0246
  172SAPS  H17Y19608   2.030   7.633   4.417  1.6214  1.2529 -4.4249
  172SAPS  C31819609   2.230   7.624   4.334  0.3060  0.7198  0.6525
  172SAPS  H18X19610   2.255   7.732   4.335  1.0255  0.5835 -0.7385
  172SAPS  H18Y19611   2.204   7.600   4.229  2.4195 -1.4579  0.5383
  172SAPS  H18Z19612   2.324   7.571   4.359  0.1619  0.0237 -0.2208
  173SAPS     N19613   3.992   6.337   1.990 -0.2637 -0.1497  0.1270
  173SAPS   HN119614   3.916   6.350   1.919  0.3030  1.6520 -0.1945
  173SAPS   HN219615   3.975   6.395   2.074 -0.9031 -1.4535  0.9231
  173SAPS   HN319616   4.080   6.362   1.941 -0.7492  1.5947  0.0959
  173SAPS   C1219617   4.003   6.189   2.019  0.3064  0.1637 -0.1792
  173SAPS  H12A19618   3.991   6.131   1.929 -0.7607 -0.0888  0.1181
  173SAPS   C1319619   4.138   6.142   2.079  0.0641 -0.5888 -0.2210
  173SAPS  O13A19620   4.234   6.224   2.081  0.1536  0.3305 -0.0423
  173SAPS  O13B19621   4.153   6.018   2.095 -0.4917  0.2270  0.5866
  173SAPS   C1119622   3.892   6.161   2.124 -0.3640  0.8973 -0.2065
  173SAPS  H11A19623   3.914   6.206   2.224 -0.3524 -2.1362  1.2676
  173SAPS  H11B19624   3.905   6.055   2.156 -1.0013  0.7663 -0.3862
  173SAPS     P19625   3.658   6.067   2.050 -0.0738  0.1212 -0.2222
  173SAPS   O1319626   3.521   6.108   2.033 -0.4698  1.0115 -0.2203
  173SAPS   O1419627   3.713   5.996   1.935  0.3196 -0.0366  0.0860
  173SAPS   O1219628   3.754   6.189   2.082  0.2578  0.3624 -0.0063
  173SAPS   O1119629   3.679   5.981   2.185 -0.2267  0.8140  0.4600
  173SAPS    C119630   3.627   6.021   2.308  0.7092  0.8953 -0.4699
  173SAPS    HA19631   3.611   6.129   2.326  1.5935  1.2293 -1.6119
  173SAPS    HB19632   3.535   5.958   2.308  2.1388 -1.3279  0.0464
  173SAPS    C219633   3.706   5.966   2.430  0.2936 -0.1943  0.1000
  173SAPS    HS19634   3.623   5.925   2.493 -1.3795  1.2754 -1.0387
  173SAPS   O2119635   3.777   6.073   2.495 -0.3150  0.0421 -0.2876
  173SAPS   C2119636   3.803   6.058   2.624 -0.4403 -0.2919 -0.0871
  173SAPS   O2219637   3.771   5.961   2.693  0.0072 -0.0361  0.1772
  173SAPS   C2219638   3.867   6.181   2.680  0.1266  0.0726  0.1292
  173SAPS   H2R19639   3.960   6.191   2.620 -1.0961 -0.6978 -2.0171
  173SAPS   H2S19640   3.802   6.267   2.654 -1.4728 -1.3592 -0.8687
  173SAPS    C319641   3.795   5.839   2.394  0.3724 -0.5589  0.5999
  173SAPS    HX19642   3.881   5.855   2.325  0.4895 -2.0337  0.3616
  173SAPS    HY19643   3.731   5.775   2.329  0.6540 -0.1149 -0.1271
  173SAPS   O3119644   3.846   5.766   2.503 -0.1668  0.7182 -0.2201
  173SAPS   C3119645   3.762   5.683   2.559  0.6360  0.0901  0.0094
  173SAPS   O3219646   3.655   5.648   2.514 -0.2154  0.3004  0.4708
  173SAPS   C3219647   3.825   5.631   2.694 -0.0952  0.3686 -0.0112
  173SAPS   H2X19648   3.877   5.712   2.749 -0.3443  2.4484 -2.6571
  173SAPS   H2Y19649   3.896   5.550   2.665  1.5025  1.7967 -0.2110
  173SAPS   C2319650   3.898   6.184   2.837 -0.2348 -0.2142  0.1574
  173SAPS   H3R19651   3.948   6.086   2.856 -1.5147 -1.3445 -1.9194
  173SAPS   H3S19652   3.809   6.195   2.903 -0.2995  0.0691  0.0206
  173SAPS   C2419653   4.010   6.287   2.863  0.4321  0.2306  0.1689
  173SAPS   H4R19654   4.069   6.283   2.769 -0.4955 -1.0352 -0.3826
  173SAPS   H4S19655   4.062   6.234   2.946 -0.6997 -1.7679 -0.3267
  173SAPS   C2519656   3.956   6.420   2.916 -0.3492  0.2509 -0.3954
  173SAPS   H5R19657   3.949   6.495   2.836 -2.4581  0.4893 -0.0450
  173SAPS   C2619658   3.942   6.461   3.046 -1.0337  0.0625  0.1597
  173SAPS   H6R19659   3.909   6.564   3.066 -0.5491  0.4371 -0.8672
  173SAPS   C2719660   3.982   6.379   3.169  0.0796 -0.5042  0.1941
  173SAPS   H7R19661   4.071   6.419   3.222  0.2855  1.5849 -1.6073
  173SAPS   H7S19662   4.004   6.274   3.141  0.1499 -0.5182  0.2987
  173SAPS   C2819663   3.862   6.370   3.261  0.1465  0.0349  0.2681
  173SAPS   H8R19664   3.767   6.367   3.205  0.6949  1.6488 -0.7908
  173SAPS   C2919665   3.871   6.364   3.397  0.2905  0.4957 -0.4511
  173SAPS   H9R19666   3.780   6.345   3.456 -0.0306  1.0597 -0.7553
  173SAPS  C21019667   3.991   6.356   3.484  0.1222 -0.7732  0.0723
  173SAPS  H10R19668   4.078   6.301   3.442  0.3603 -0.4162  0.0980
  173SAPS  H10S19669   3.951   6.280   3.554 -0.9996 -0.4908 -0.2285
  173SAPS  C21119670   4.032   6.484   3.546 -0.1676  0.4494 -0.5847
  173SAPS  H11R19671   4.112   6.542   3.499  1.9598 -0.1161  2.0753
  173SAPS  C21219672   4.000   6.514   3.674  0.7285 -0.2773  0.5228
  173SAPS  H12R19673   4.056   6.601   3.712  0.4591 -0.2211  0.8001
  173SAPS  C21319674   3.911   6.445   3.774  0.5764  0.4653  0.2866
  173SAPS  H13R19675   3.950   6.454   3.877  0.2385  2.1150  0.2906
  173SAPS  H13S19676   3.905   6.337   3.749 -1.5841  0.8193 -0.9306
  173SAPS  C21419677   3.772   6.496   3.765  0.1540 -0.7971 -0.1996
  173SAPS  H14R19678   3.745   6.556   3.677  1.6241 -0.7046 -0.6061
  173SAPS  C21519679   3.679   6.504   3.861  0.3057  0.0716  0.6636
  173SAPS  H15R19680   3.577   6.537   3.836  1.0220  1.9696  0.1405
  173SAPS  C21619681   3.699   6.457   4.000 -0.0329 -0.1893  0.0297
  173SAPS  H16R19682   3.783   6.384   3.999  0.6239  0.4844 -3.1065
  173SAPS  H16S19683   3.607   6.404   4.034 -1.1251  1.6014 -0.0090
  173SAPS  C21719684   3.725   6.572   4.090  0.0010  0.2534 -0.4185
  173SAPS  H17R19685   3.735   6.523   4.188  4.1398  0.6631 -0.4909
  173SAPS  H17S19686   3.650   6.654   4.088 -0.2363  0.0501  0.0798
  173SAPS  C21819687   3.851   6.663   4.076 -0.0697  0.3421  0.1336
  173SAPS  H18R19688   3.857   6.719   3.980 -0.6977  1.3789  0.6915
  173SAPS  H18S19689   3.939   6.595   4.087 -0.2856  0.2526  1.3817
  173SAPS  C21919690   3.864   6.750   4.197 -0.0974 -0.4489 -1.1418
  173SAPS  H19R19691   3.864   6.686   4.288 -2.7569 -0.2534 -0.9468
  173SAPS  H19S19692   3.765   6.800   4.204  1.7194  3.3343  1.5905
  173SAPS  C22019693   3.984   6.848   4.209  0.1519 -0.3807 -0.0300
  173SAPS  H20R19694   3.995   6.915   4.121  3.1058 -0.0856  0.4781
  173SAPS  H20S19695   4.073   6.782   4.214 -1.3409 -2.5999 -0.7516
  173SAPS  H20T19696   3.985   6.908   4.302 -1.5762  3.5193 -2.2993
  173SAPS   C3319697   3.705   5.574   2.783  0.1464  0.4662 -0.9070
  173SAPS   H3X19698   3.637   5.511   2.723  0.8336  0.1980 -1.4183
  173SAPS   H3Y19699   3.649   5.665   2.814  0.3821 -0.0253  1.1141
  173SAPS   C3419700   3.749   5.494   2.900  0.2802 -0.0163  0.8647
  173SAPS   H4X19701   3.835   5.552   2.941  0.4666  0.6076 -0.3610
  173SAPS   H4Y19702   3.784   5.399   2.856  0.9933  0.9055 -0.6396
  173SAPS   C3519703   3.651   5.480   3.016 -0.4013 -0.3217  0.3034
  173SAPS   H5X19704   3.698   5.413   3.092  0.7156  0.8908  0.7220
  173SAPS   H5Y19705   3.556   5.430   2.989 -1.6828  2.7254 -1.2612
  173SAPS   C3619706   3.626   5.612   3.094  0.9602  0.2452  0.4223
  173SAPS   H6X19707   3.549   5.667   3.035  3.2426  1.1896 -1.8839
  173SAPS   H6Y19708   3.718   5.670   3.115  1.2400 -0.5511  1.4846
  173SAPS   C3719709   3.543   5.577   3.223  0.0301 -0.5644  0.8788
  173SAPS   H7X19710   3.599   5.506   3.287  1.6146 -1.8549 -1.7847
  173SAPS   H7Y19711   3.453   5.518   3.193 -1.5315  1.3875  1.4660
  173SAPS   C3819712   3.506   5.703   3.303  0.0099  0.3335 -0.6589
  173SAPS   H8X19713   3.445   5.778   3.247 -1.5014  0.3846  0.9603
  173SAPS   H8Y19714   3.602   5.745   3.340 -0.4869  0.9109  0.0173
  173SAPS   C3919715   3.414   5.677   3.421  0.3609  0.1870 -0.0435
  173SAPS   H9X19716   3.365   5.577   3.411 -0.0766  0.4497 -0.6002
  173SAPS   H9Y19717   3.326   5.745   3.416 -0.8231 -1.1276  1.6880
  173SAPS  C31019718   3.475   5.709   3.554  0.2021 -0.1540  0.2430
  173SAPS  H10X19719   3.402   5.723   3.636  0.0233  2.8314 -0.3294
  173SAPS  H10Y19720   3.521   5.810   3.543  1.1572 -0.7896 -2.2236
  173SAPS  C31119721   3.581   5.612   3.609  0.2197 -0.5672  0.6611
  173SAPS  H11X19722   3.670   5.628   3.545 -0.6261 -2.4354 -1.0459
  173SAPS  H11Y19723   3.541   5.509   3.600  1.9015 -1.4367  2.3290
  173SAPS  C31219724   3.593   5.629   3.760 -0.3546 -0.1475  0.3210
  173SAPS  H12X19725   3.499   5.603   3.812  0.7091 -2.2327  1.3159
  173SAPS  H12Y19726   3.624   5.733   3.783 -0.1705 -0.2999  0.7842
  173SAPS  C31319727   3.703   5.539   3.823  0.4525 -0.3065 -0.5531
  173SAPS  H13X19728   3.797   5.548   3.764  0.7698  1.3742  0.1607
  173SAPS  H13Y19729   3.676   5.431   3.812  2.0624 -0.5479 -2.9246
  173SAPS  C31419730   3.719   5.569   3.972 -0.3684  0.0030  0.1773
  173SAPS  H14X19731   3.703   5.678   3.987  1.2948  0.7580 -2.6033
  173SAPS  H14Y19732   3.829   5.556   3.980 -0.1535 -0.1111 -2.1196
  173SAPS  C31519733   3.661   5.472   4.081 -0.6531  0.8052 -0.0276
  173SAPS  H15X19734   3.702   5.506   4.179  1.0036  1.6989 -0.9905
  173SAPS  H15Y19735   3.717   5.379   4.058 -0.4410  1.4456 -2.3347
  173SAPS  C31619736   3.510   5.450   4.061 -0.9432 -0.3156 -0.0931
  173SAPS  H16X19737   3.479   5.362   4.120  0.9770  0.5916  2.4554
  173SAPS  H16Y19738   3.477   5.437   3.956 -3.0530 -1.5457  0.6806
  173SAPS  C31719739   3.439   5.579   4.106  0.2410 -0.1458 -0.0023
  173SAPS  H17X19740   3.459   5.651   4.024  3.6809 -2.5088 -1.4629
  173SAPS  H17Y19741   3.479   5.615   4.203  0.5471 -1.9898  0.5940
  173SAPS  C31819742   3.287   5.561   4.116 -0.2570  0.2636  0.0610
  173SAPS  H18X19743   3.244   5.561   4.014  4.3192  0.5163 -2.1153
  173SAPS  H18Y19744   3.253   5.649   4.174 -0.3824 -0.1462  0.6215
  173SAPS  H18Z19745   3.268   5.465   4.169 -0.7181  1.0288  1.3407
  174SAPS     N19746   6.176   6.631   2.021  0.4278  0.2543 -0.6489
  174SAPS   HN119747   6.128   6.542   1.996  0.2414 -0.6564  2.4746
  174SAPS   HN219748   6.272   6.604   2.052  0.6136  0.6870 -0.8346
  174SAPS   HN319749   6.139   6.674   2.108  0.2995 -1.7303  0.3326
  174SAPS   C1219750   6.163   6.735   1.913  0.0508 -0.1081 -0.2965
  174SAPS  H12A19751   6.203   6.686   1.826  0.3561  0.6173 -0.5752
  174SAPS   C1319752   6.018   6.779   1.872 -0.5117  0.3559 -0.4985
  174SAPS  O13A19753   5.924   6.720   1.933  0.0884 -0.4963 -0.0858
  174SAPS  O13B19754   6.005   6.881   1.801  0.6098 -0.0124 -0.2399
  174SAPS   C1119755   6.260   6.858   1.945  0.0092  0.5490 -0.9028
  174SAPS  H11A19756   6.251   6.936   1.867  0.3779  1.6180  0.0864
  174SAPS  H11B19757   6.362   6.816   1.940  0.1463  0.9023 -1.0478
  174SAPS     P19758   6.223   7.055   2.111 -0.1951  0.1517  0.4738
  174SAPS   O1319759   6.251   7.143   1.991  0.5089 -0.1537 -0.3528
  174SAPS   O1419760   6.088   7.061   2.165 -0.4754 -0.3583  0.2608
  174SAPS   O1219761   6.252   6.901   2.079 -0.4998 -0.4693  0.0043
  174SAPS   O1119762   6.319   7.089   2.224 -0.6034  0.3480  0.6840
  174SAPS    C119763   6.443   7.028   2.238 -0.2681  0.4874  0.0955
  174SAPS    HA19764   6.470   6.964   2.151 -1.0270 -2.3824  1.8407
  174SAPS    HB19765   6.523   7.101   2.265 -2.0248  2.4274  0.2885
  174SAPS    C219766   6.432   6.916   2.351 -0.2691  0.1669 -0.0029
  174SAPS    HS19767   6.365   6.841   2.305 -0.8286  0.3692  0.4741
  174SAPS   O2119768   6.368   6.979   2.464 -0.9897  0.0084  0.2304
  174SAPS   C2119769   6.281   6.912   2.531  0.4062  0.4144 -0.2847
  174SAPS   O2219770   6.256   6.794   2.508 -0.7060  0.1988  0.3929
  174SAPS   C2219771   6.228   7.003   2.639  0.3731  0.3217  0.1326
  174SAPS   H2R19772   6.293   7.086   2.671  1.2268 -0.0347 -0.6267
  174SAPS   H2S19773   6.138   7.056   2.602  0.4931 -0.7892 -1.9222
  174SAPS    C319774   6.561   6.847   2.392 -0.1028  0.2386 -0.6476
  174SAPS    HX19775   6.594   6.805   2.294  1.1557  1.5093 -0.7971
  174SAPS    HY19776   6.520   6.762   2.451 -1.2377  0.4954 -1.0335
  174SAPS   O3119777   6.668   6.923   2.457  0.2165  0.0012  0.0751
  174SAPS   C3119778   6.649   6.931   2.591  0.1471 -0.8504 -0.2596
  174SAPS   O3219779   6.567   6.867   2.654  0.0292 -0.8365  0.3458
  174SAPS   C3219780   6.736   7.052   2.639  0.1053  0.8179  0.3405
  174SAPS   H2X19781   6.716   7.142   2.577 -3.3029  1.5836  2.3182
  174SAPS   H2Y19782   6.837   7.017   2.609 -1.0085 -2.7013  0.1457
  174SAPS   C2319783   6.177   6.922   2.764  0.4140  0.2860  0.3647
  174SAPS   H3R19784   6.245   6.837   2.788  1.0215  0.6820  0.0879
  174SAPS   H3S19785   6.074   6.881   2.759  1.5064 -2.8015  0.8408
  174SAPS   C2419786   6.187   7.015   2.886 -0.1567 -0.0133 -0.2544
  174SAPS   H4R19787   6.132   7.104   2.848  0.1519 -0.1106 -0.9410
  174SAPS   H4S19788   6.292   7.052   2.894  0.2146 -1.2591  1.0058
  174SAPS   C2519789   6.131   6.964   3.011 -0.2723 -0.4699 -0.1348
  174SAPS   H5R19790   6.021   6.964   3.007 -0.3469  2.3649  0.3928
  174SAPS   C2619791   6.201   6.916   3.111  0.1016  0.1382 -0.0496
  174SAPS   H6R19792   6.139   6.872   3.191  0.4072 -0.8196 -0.3335
  174SAPS   C2719793   6.350   6.913   3.134 -0.4788  0.4032 -0.4329
  174SAPS   H7R19794   6.373   6.917   3.243 -1.6984  1.3543 -0.1909
  174SAPS   H7S19795   6.407   7.005   3.107  0.6135  0.1547  0.9429
  174SAPS   C2819796   6.425   6.796   3.073 -0.1766 -0.2032  0.3141
  174SAPS   H8R19797   6.385   6.760   2.978  2.5446  1.6324 -1.6770
  174SAPS   C2919798   6.540   6.742   3.116  0.8736 -0.1167  0.6668
  174SAPS   H9R19799   6.586   6.663   3.055  0.0997 -1.6437  1.9724
  174SAPS  C21019800   6.607   6.763   3.246 -0.2140  0.8068  0.2447
  174SAPS  H10R19801   6.548   6.724   3.332  1.5211 -0.4794  0.8999
  174SAPS  H10S19802   6.607   6.872   3.271 -2.1192  1.0646 -0.6946
  174SAPS  C21119803   6.748   6.706   3.250  0.3227 -0.1079 -0.2887
  174SAPS  H11R19804   6.822   6.774   3.205 -1.0598  1.9218  0.3496
  174SAPS  C21219805   6.793   6.594   3.308 -0.3369 -0.0651  0.2157
  174SAPS  H12R19806   6.902   6.586   3.314 -0.2137  1.0876 -0.2094
  174SAPS  C21319807   6.705   6.485   3.370  0.7458  0.2844 -0.7709
  174SAPS  H13R19808   6.649   6.438   3.287  2.0341 -2.1369 -0.3497
  174SAPS  H13S19809   6.635   6.526   3.446 -0.5522 -1.4329 -0.9921
  174SAPS  C21419810   6.773   6.362   3.440  0.5999 -0.3010  0.7774
  174SAPS  H14R19811   6.826   6.297   3.369  0.7470 -0.6030  1.1614
  174SAPS  C21519812   6.784   6.341   3.574 -0.4055  0.1414  0.0644
  174SAPS  H15R19813   6.857   6.272   3.618 -2.5118 -0.7812  2.3503
  174SAPS  C21619814   6.722   6.428   3.684 -0.1354 -0.0023  0.6142
  174SAPS  H16R19815   6.721   6.533   3.646  0.3768 -0.7367 -1.5344
  174SAPS  H16S19816   6.783   6.428   3.777  0.8617  1.5341 -0.0119
  174SAPS  C21719817   6.574   6.394   3.712  0.5223  0.7245  0.5723
  174SAPS  H17R19818   6.560   6.295   3.761  0.0503 -0.4380 -1.7593
  174SAPS  H17S19819   6.513   6.391   3.620  0.1471  3.5641  0.6276
  174SAPS  C21819820   6.509   6.501   3.803 -0.4305  0.1405 -0.0498
  174SAPS  H18R19821   6.550   6.600   3.774 -0.7166 -0.1358 -1.4721
  174SAPS  H18S19822   6.562   6.476   3.897  2.8640  1.9574 -1.2581
  174SAPS  C21919823   6.358   6.501   3.803  0.2797  0.1845  0.3099
  174SAPS  H19R19824   6.318   6.404   3.840  0.1336  0.1475  0.0561
  174SAPS  H19S19825   6.324   6.508   3.697 -1.2464  0.2740  0.7719
  174SAPS  C22019826   6.298   6.619   3.884  0.1773 -0.4095 -0.0246
  174SAPS  H20R19827   6.324   6.617   3.992 -2.4803  1.1494  0.7332
  174SAPS  H20S19828   6.187   6.613   3.885 -0.0541  2.5841  0.0817
  174SAPS  H20T19829   6.331   6.710   3.830 -1.9066  0.4345  0.0610
  174SAPS   C3319830   6.723   7.066   2.787  0.8986 -0.2562  0.0689
  174SAPS   H3X19831   6.820   7.112   2.818  0.8251  0.5517 -0.8369
  174SAPS   H3Y19832   6.709   6.971   2.843 -2.5434  0.1652  0.1219
  174SAPS   C3419833   6.600   7.156   2.814  0.0537 -0.0031  0.0374
  174SAPS   H4X19834   6.513   7.110   2.763  2.5570 -4.4839 -0.7506
  174SAPS   H4Y19835   6.613   7.259   2.776  1.1951  0.0190  0.4567
  174SAPS   C3519836   6.571   7.178   2.967  0.0570  0.5468  0.0986
  174SAPS   H5X19837   6.598   7.085   3.023 -1.0613  0.4039  0.4256
  174SAPS   H5Y19838   6.464   7.192   2.991  0.1571  0.1091  0.8336
  174SAPS   C3619839   6.642   7.303   3.028  0.0290  0.8874  0.1803
  174SAPS   H6X19840   6.613   7.382   2.955  0.1816 -0.2637 -1.1748
  174SAPS   H6Y19841   6.752   7.292   3.016  0.0516 -1.1058  1.6892
  174SAPS   C3719842   6.607   7.321   3.179 -0.1828  0.1536 -0.3205
  174SAPS   H7X19843   6.502   7.357   3.185 -0.3445  0.0060 -1.8801
  174SAPS   H7Y19844   6.663   7.410   3.216 -3.0624  1.0528  2.3925
  174SAPS   C3819845   6.632   7.195   3.266  0.4126  0.5808 -0.4938
  174SAPS   H8X19846   6.735   7.163   3.236  0.7149 -0.7140  1.6809
  174SAPS   H8Y19847   6.552   7.119   3.257  0.1007  0.2207  3.3340
  174SAPS   C3919848   6.627   7.228   3.414 -0.1234  0.2295  0.5873
  174SAPS   H9X19849   6.526   7.271   3.434  0.1954  0.3856  1.9950
  174SAPS   H9Y19850   6.700   7.311   3.425 -1.7638  1.7647  0.3860
  174SAPS  C31019851   6.668   7.120   3.517 -0.2096  0.4510  0.5107
  174SAPS  H10X19852   6.772   7.088   3.496 -0.5858  0.8136 -2.2491
  174SAPS  H10Y19853   6.602   7.036   3.489  0.9839 -0.6104  0.7876
  174SAPS  C31119854   6.648   7.151   3.668 -0.6416 -0.4425  0.3875
  174SAPS  H11X19855   6.539   7.134   3.681 -1.0464  0.9550 -0.8823
  174SAPS  H11Y19856   6.664   7.257   3.694  1.9478 -0.5206 -0.6100
  174SAPS  C31219857   6.733   7.061   3.761  0.6920 -0.8504  0.4832
  174SAPS  H12X19858   6.840   7.068   3.734  0.6481 -1.6295  0.0847
  174SAPS  H12Y19859   6.693   6.958   3.748  1.0574 -1.1667  1.7834
  174SAPS  C31319860   6.715   7.092   3.910 -0.1975 -0.4330  0.0034
  174SAPS  H13X19861   6.746   7.199   3.917 -0.8405  0.0286 -2.8778
  174SAPS  H13Y19862   6.773   7.020   3.972  0.0787 -0.8369 -0.7175
  174SAPS  C31419863   6.567   7.083   3.948  0.7318  0.9100 -0.8251
  174SAPS  H14X19864   6.516   6.998   3.899  1.5757 -0.0938  0.0025
  174SAPS  H14Y19865   6.523   7.180   3.918 -1.6745 -0.3081 -1.4792
  174SAPS  C31519866   6.561   7.061   4.103  0.2392  0.1807 -0.0899
  174SAPS  H15X19867   6.458   7.095   4.129  0.3445  0.1100  0.4248
  174SAPS  H15Y19868   6.634   7.130   4.151 -0.6664  2.7911 -2.1727
  174SAPS  C31619869   6.566   6.913   4.144 -0.0191  0.2396  0.7818
  174SAPS  H16X19870   6.673   6.883   4.145 -0.1482 -0.8860 -3.0640
  174SAPS  H16Y19871   6.528   6.845   4.065  1.5472  2.1198 -1.7455
  174SAPS  C31719872   6.502   6.875   4.278  0.7228 -0.2350  0.1948
  174SAPS  H17X19873   6.398   6.912   4.268  0.8349  0.1571  0.4274
  174SAPS  H17Y19874   6.559   6.923   4.360  0.0230  1.2572 -0.1534
  174SAPS  C31819875   6.501   6.723   4.307 -0.0815 -0.3671 -0.1077
  174SAPS  H18X19876   6.431   6.673   4.238  1.8796 -0.6202 -2.0370
  174SAPS  H18Y19877   6.471   6.692   4.409 -1.0352 -1.2544 -0.6495
  174SAPS  H18Z19878   6.602   6.677   4.297  0.1925  0.3005 -0.5138
  175SAPS     N19879   6.334   1.805   2.437 -0.4804  0.0027  0.2036
  175SAPS   HN119880   6.336   1.724   2.371 -0.0158  1.8297 -2.1594
  175SAPS   HN219881   6.271   1.795   2.520  0.0236  1.0096  0.7273
  175SAPS   HN319882   6.297   1.884   2.380 -1.3112  0.9668  1.9834
  175SAPS   C1219883   6.471   1.823   2.495 -0.4041 -0.3666 -0.2465
  175SAPS  H12A19884   6.546   1.765   2.442  0.5261 -1.4917  2.1329
  175SAPS   C1319885   6.508   1.978   2.497 -0.1859 -0.0197 -0.1154
  175SAPS  O13A19886   6.436   2.066   2.448  0.3521  0.2769 -0.1020
  175SAPS  O13B19887   6.630   2.011   2.540 -0.0609 -0.0966  0.0736
  175SAPS   C1119888   6.471   1.786   2.650 -0.0705  0.0681 -0.1033
  175SAPS  H11A19889   6.389   1.841   2.703  0.7194  1.6364 -0.4437
  175SAPS  H11B19890   6.562   1.834   2.692  1.0729 -1.4911 -0.7041
  175SAPS     P19891   6.608   1.571   2.689  0.0668 -0.2273 -0.1732
  175SAPS   O1319892   6.586   1.426   2.697  0.0648  0.3215  0.0835
  175SAPS   O1419893   6.704   1.618   2.583  0.0270  0.1052  0.3460
  175SAPS   O1219894   6.470   1.645   2.679 -0.2909 -0.5257 -0.1835
  175SAPS   O1119895   6.660   1.624   2.828 -0.6458 -0.5088 -0.4361
  175SAPS    C119896   6.605   1.596   2.954  0.2716 -0.2909  0.0710
  175SAPS    HA19897   6.557   1.496   2.955 -0.1092 -0.1113  1.1015
  175SAPS    HB19898   6.686   1.598   3.029  3.1206  1.1183 -2.8005
  175SAPS    C219899   6.505   1.704   3.000  0.8167 -1.1947  0.7084
  175SAPS    HS19900   6.439   1.721   2.912  1.4802  2.9265  0.8140
  175SAPS   O2119901   6.571   1.827   3.044 -0.0571  0.1472 -0.5169
  175SAPS   C2119902   6.489   1.925   3.055 -0.1150  0.5384  0.2537
  175SAPS   O2219903   6.370   1.930   3.028 -0.0434  0.4420  0.0567
  175SAPS   C2219904   6.561   2.026   3.142 -0.4767  0.2684 -0.0830
  175SAPS   H2R19905   6.544   2.130   3.107 -1.4867  0.0211 -0.3451
  175SAPS   H2S19906   6.508   2.020   3.239 -0.9615  0.1588 -0.3561
  175SAPS    C319907   6.417   1.644   3.116 -0.2492  0.6385 -0.1021
  175SAPS    HX19908   6.356   1.558   3.081  0.4041 -0.1284  0.6026
  175SAPS    HY19909   6.343   1.720   3.149 -1.5917 -1.0817  0.9751
  175SAPS   O3119910   6.501   1.592   3.225  0.4737 -0.1490 -0.4013
  175SAPS   C3119911   6.524   1.677   3.323  0.5506 -0.7738  0.8842
  175SAPS   O3219912   6.490   1.797   3.329  0.1950  0.0259  0.6894
  175SAPS   C3219913   6.596   1.601   3.429  0.6590 -0.6670  0.0291
  175SAPS   H2X19914   6.663   1.523   3.387  1.1962  0.2338 -0.8050
  175SAPS   H2Y19915   6.525   1.573   3.510  1.0101  2.8392  1.7596
  175SAPS   C2319916   6.716   2.018   3.169  0.0726  0.3085 -0.1512
  175SAPS   H3R19917   6.771   2.031   3.074  0.1725 -1.3736 -0.3561
  175SAPS   H3S19918   6.745   1.918   3.208 -2.2748 -0.5070 -0.3312
  175SAPS   C2419919   6.773   2.125   3.269 -0.4370 -0.2089 -0.1908
  175SAPS   H4R19920   6.882   2.107   3.264 -0.6589 -1.2691 -2.5420
  175SAPS   H4S19921   6.738   2.098   3.371  3.4631 -0.3385  1.2543
  175SAPS   C2519922   6.753   2.268   3.224  0.2062  0.8707  0.4707
  175SAPS   H5R19923   6.710   2.272   3.123  0.2311 -0.8545  0.3589
  175SAPS   C2619924   6.776   2.378   3.300 -0.1201 -0.0033  0.2534
  175SAPS   H6R19925   6.741   2.470   3.252 -0.6180 -0.7360 -0.8329
  175SAPS   C2719926   6.845   2.395   3.432  0.4338  0.0487 -0.6747
  175SAPS   H7R19927   6.907   2.487   3.424  1.8997 -0.7006  1.1807
  175SAPS   H7S19928   6.924   2.317   3.435  2.1071  1.6507 -0.9719
  175SAPS   C2819929   6.757   2.379   3.549 -0.6475  0.2989 -0.4543
  175SAPS   H8R19930   6.660   2.332   3.526 -0.5267  0.8150 -2.1965
  175SAPS   C2919931   6.773   2.424   3.673 -0.4654 -0.5275 -0.2575
  175SAPS   H9R19932   6.695   2.396   3.745  0.7408 -2.0666  0.5057
  175SAPS  C21019933   6.898   2.504   3.726  0.3809  0.3895 -0.3840
  175SAPS  H10R19934   6.865   2.610   3.729  0.5511  0.4549 -0.7028
  175SAPS  H10S19935   6.979   2.509   3.649 -0.0332  1.2559 -0.7710
  175SAPS  C21119936   6.959   2.461   3.855  0.2187 -0.2244 -0.0051
  175SAPS  H11R19937   7.037   2.383   3.854  0.8055  0.3564  0.0760
  175SAPS  C21219938   6.928   2.517   3.975 -0.2004 -0.4352 -0.2079
  175SAPS  H12R19939   7.001   2.487   4.052 -0.2371 -1.9515 -0.7450
  175SAPS  C21319940   6.829   2.624   4.005 -0.1055 -0.2465 -0.1021
  175SAPS  H13R19941   6.845   2.709   3.934 -0.1152 -0.5437 -0.4603
  175SAPS  H13S19942   6.847   2.680   4.099 -0.2757  1.8886 -1.2749
  175SAPS  C21419943   6.680   2.584   4.005  0.0557  0.3164  0.1855
  175SAPS  H14R19944   6.657   2.477   4.018  0.8711  0.4587  3.6591
  175SAPS  C21519945   6.578   2.671   3.986  0.9348 -0.3577  0.2891
  175SAPS  H15R19946   6.476   2.628   3.978  0.4411  1.0185 -1.2085
  175SAPS  C21619947   6.588   2.819   3.967  0.0302  0.5147  0.5122
  175SAPS  H16R19948   6.507   2.837   3.893  1.2155 -0.9144 -1.2004
  175SAPS  H16S19949   6.683   2.846   3.916 -1.1052  2.9057 -0.4504
  175SAPS  C21719950   6.553   2.912   4.085  0.5785 -0.1925 -1.1122
  175SAPS  H17R19951   6.640   2.912   4.154 -0.9332 -0.2806  0.8823
  175SAPS  H17S19952   6.471   2.858   4.137  3.4819 -2.6238  1.3485
  175SAPS  C21819953   6.534   3.050   4.034  0.1093 -0.1769 -0.0467
  175SAPS  H18R19954   6.441   3.061   3.974 -0.8941  0.3726  1.5512
  175SAPS  H18S19955   6.626   3.077   3.978  1.0900 -0.1029  1.5356
  175SAPS  C21919956   6.513   3.143   4.149  0.1921  0.0776 -0.0125
  175SAPS  H19R19957   6.606   3.130   4.209 -0.8873 -1.3796  1.4437
  175SAPS  H19S19958   6.424   3.107   4.204 -0.1564  0.5137 -0.2890
  175SAPS  C22019959   6.502   3.288   4.097  0.8989 -0.3468 -0.1058
  175SAPS  H20R19960   6.455   3.290   3.997 -0.5004 -0.3834  0.5286
  175SAPS  H20S19961   6.603   3.335   4.088  1.4618 -1.9285 -3.1618
  175SAPS  H20T19962   6.444   3.349   4.169  2.0171  2.5401 -1.4957
  175SAPS   C3319963   6.696   1.697   3.511 -0.4837 -0.0569  0.1655
  175SAPS   H3X19964   6.639   1.771   3.570 -1.1864 -0.2044 -0.3188
  175SAPS   H3Y19965   6.776   1.740   3.447 -0.8543  0.7911  0.2635
  175SAPS   C3419966   6.778   1.618   3.619 -0.2239  0.6054  0.0615
  175SAPS   H4X19967   6.867   1.676   3.654  0.5076 -0.4822  0.0643
  175SAPS   H4Y19968   6.823   1.531   3.566  0.5492  1.6026 -1.0009
  175SAPS   C3519969   6.701   1.549   3.729 -0.6247 -0.1579 -0.4586
  175SAPS   H5X19970   6.774   1.512   3.804 -1.2523  1.3094  0.9163
  175SAPS   H5Y19971   6.630   1.469   3.698 -2.1739  1.0463 -0.1795
  175SAPS   C3619972   6.637   1.645   3.821 -0.8082 -0.6081  0.6339
  175SAPS   H6X19973   6.563   1.701   3.761  0.0372  0.7963  0.8619
  175SAPS   H6Y19974   6.708   1.717   3.867 -1.6896  0.9872 -0.4352
  175SAPS   C3719975   6.561   1.582   3.935  0.0332 -0.5397 -0.0468
  175SAPS   H7X19976   6.624   1.508   3.988 -1.6881 -0.6625  1.9542
  175SAPS   H7Y19977   6.470   1.535   3.890 -0.8686  1.4188 -0.3586
  175SAPS   C3819978   6.516   1.689   4.033  0.7751 -0.3233 -0.1313
  175SAPS   H8X19979   6.448   1.749   3.969 -0.6727 -1.7495  0.0100
  175SAPS   H8Y19980   6.591   1.759   4.076 -1.7899  1.7195  1.3276
  175SAPS   C3919981   6.422   1.630   4.146  0.2654 -0.5039  0.5089
  175SAPS   H9X19982   6.486   1.595   4.230 -0.5297 -1.2995  0.8031
  175SAPS   H9Y19983   6.357   1.551   4.103 -2.0176  2.5697 -2.1734
  175SAPS  C31019984   6.316   1.733   4.203  0.3089 -0.6693 -0.3062
  175SAPS  H10X19985   6.233   1.673   4.246  0.6975 -0.2693  1.0603
  175SAPS  H10Y19986   6.276   1.781   4.111  0.8227 -0.2589 -0.3140
  175SAPS  C31119987   6.375   1.832   4.310  0.7539 -0.0875 -0.7632
  175SAPS  H11X19988   6.430   1.914   4.259  0.2396  1.1880  0.6609
  175SAPS  H11Y19989   6.432   1.768   4.382  0.6974 -1.6731 -2.0870
  175SAPS  C31219990   6.258   1.892   4.390 -0.5839  0.7916  0.3146
  175SAPS  H12X19991   6.183   1.816   4.420  0.3514 -0.4290 -0.3703
  175SAPS  H12Y19992   6.214   1.953   4.309 -0.4719 -1.1924 -1.3057
  175SAPS  C31319993   6.299   1.986   4.500  0.4457 -0.2995  0.0162
  175SAPS  H13X19994   6.385   2.041   4.455 -0.4800 -0.2513 -1.7517
  175SAPS  H13Y19995   6.335   1.935   4.592  0.9943 -0.0951 -0.0745
  175SAPS  C31419996   6.192   2.086   4.535 -0.4559 -0.0452 -0.2354
  175SAPS  H14X19997   6.104   2.031   4.575  0.1838 -0.0026  1.3245
  175SAPS  H14Y19998   6.162   2.132   4.438 -0.5541 -0.4381 -0.3922
  175SAPS  C31519999   6.226   2.192   4.634  0.0501 -0.6021 -0.9079
  175SAPS  H15X20000   6.147   2.270   4.632 -1.9516 -2.4598  0.8446
  175SAPS  H15Y20001   6.318   2.244   4.599  0.7858  0.3287  2.0677
  175SAPS  C31620002   6.226   2.138   4.776  0.4108 -0.3782  0.2932
  175SAPS  H16X20003   6.309   2.067   4.793  1.2996  0.3279 -0.9440
  175SAPS  H16Y20004   6.136   2.076   4.798 -0.7324  0.5620 -1.4765
  175SAPS  C31720005   6.231   2.240   4.886  0.2501 -0.7829  0.1171
  175SAPS  H17X20006   6.137   2.298   4.881  0.5948 -0.3236 -1.7427
  175SAPS  H17Y20007   6.312   2.313   4.865  0.2144 -0.7418  0.1227
  175SAPS  C31820008   6.255   2.173   5.018 -0.1720  0.0214  0.9469
  175SAPS  H18X20009   6.343   2.106   5.014 -0.5229 -0.3901 -2.8783
  175SAPS  H18Y20010   6.161   2.119   5.046  0.0182 -1.6494 -1.3935
  175SAPS  H18Z20011   6.266   2.249   5.099  2.0231  0.7643  0.0098
  176SAPS     N20012   2.420   2.056   2.105  0.1204 -0.0937  0.1086
  176SAPS   HN120013   2.321   2.082   2.125  0.1513  2.6848 -2.6243
  176SAPS   HN220014   2.431   2.058   2.002 -2.8907  0.0014 -0.3073
  176SAPS   HN320015   2.421   1.957   2.138 -0.7847 -0.8188 -1.9018
  176SAPS   C1220016   2.512   2.136   2.179  0.2315 -0.7275 -0.4183
  176SAPS  H12A20017   2.609   2.091   2.165 -0.2921 -1.6716 -1.1996
  176SAPS   C1320018   2.526   2.287   2.154 -0.2067 -0.7769  0.2500
  176SAPS  O13A20019   2.439   2.340   2.079  0.0996 -0.6644  0.3394
  176SAPS  O13B20020   2.632   2.343   2.186 -0.3009 -0.0057 -0.0580
  176SAPS   C1120021   2.457   2.128   2.328 -0.3693  0.3942  0.9797
  176SAPS  H11A20022   2.356   2.173   2.325  0.5164  2.4710 -1.4965
  176SAPS  H11B20023   2.529   2.189   2.387  1.7206  1.6470 -2.5455
  176SAPS     P20024   2.368   1.953   2.499 -0.4080 -0.2668 -0.0652
  176SAPS   O1320025   2.243   1.896   2.443 -0.0533 -0.4096  0.7778
  176SAPS   O1420026   2.445   1.864   2.595 -0.0488 -0.3392  0.2254
  176SAPS   O1220027   2.456   1.996   2.381  0.1188 -0.3819 -0.1092
  176SAPS   O1120028   2.324   2.087   2.562 -0.0922 -0.4126 -0.0294
  176SAPS    C120029   2.269   2.101   2.695 -0.2669 -0.5736  0.6697
  176SAPS    HA20030   2.197   2.023   2.725 -0.4580 -1.2837 -1.4281
  176SAPS    HB20031   2.357   2.092   2.762  0.5757 -1.1536 -0.4781
  176SAPS    C220032   2.210   2.245   2.715  0.1121  0.6093  0.3222
  176SAPS    HS20033   2.109   2.248   2.666 -0.3220 -0.5954  1.1032
  176SAPS   O2120034   2.291   2.342   2.646  0.0389  0.5219  0.2342
  176SAPS   C2120035   2.268   2.349   2.515  0.6589 -0.1587  0.1454
  176SAPS   O2220036   2.184   2.287   2.455  0.1453 -0.6536  0.0190
  176SAPS   C2220037   2.373   2.434   2.444  0.4762 -0.7151 -0.2569
  176SAPS   H2R20038   2.470   2.379   2.446  0.5966 -0.5565  2.3549
  176SAPS   H2S20039   2.347   2.439   2.337 -0.0643  1.8894 -0.0678
  176SAPS    C320040   2.193   2.292   2.860  0.1442 -0.2574 -0.2342
  176SAPS    HX20041   2.154   2.396   2.866 -2.0960 -1.1205  2.0131
  176SAPS    HY20042   2.298   2.308   2.893  0.6234 -0.8110 -1.4350
  176SAPS   O3120043   2.118   2.209   2.947 -0.4287 -0.6062  0.1481
  176SAPS   C3120044   1.988   2.232   2.944  0.2540  0.0935  0.3989
  176SAPS   O3220045   1.937   2.323   2.882 -0.0709 -0.0671 -0.1697
  176SAPS   C3220046   1.914   2.118   3.004  0.0765  0.3461  0.1156
  176SAPS   H2X20047   1.967   2.022   2.984  0.2300  0.6419 -0.9452
  176SAPS   H2Y20048   1.813   2.116   2.959 -0.1319  0.5506  0.5712
  176SAPS   C2320049   2.395   2.581   2.490 -0.3684 -0.0454 -0.3321
  176SAPS   H3R20050   2.492   2.612   2.444 -0.3044 -1.5253 -1.2518
  176SAPS   H3S20051   2.416   2.586   2.599  1.4140  2.0928 -0.6940
  176SAPS   C2420052   2.289   2.675   2.442  0.2213 -0.1949 -0.0421
  176SAPS   H4R20053   2.273   2.650   2.335  2.3417  1.2427 -0.7600
  176SAPS   H4S20054   2.325   2.781   2.448  1.0587 -0.4562 -0.2418
  176SAPS   C2520055   2.161   2.677   2.522 -0.0499  0.5100 -0.2860
  176SAPS   H5R20056   2.080   2.615   2.481 -1.1235  1.1710  0.7739
  176SAPS   C2620057   2.140   2.739   2.638  0.7203 -0.8424 -0.6248
  176SAPS   H6R20058   2.039   2.729   2.682 -0.3716  1.4998 -2.3690
  176SAPS   C2720059   2.238   2.826   2.716  0.3301  0.0364  0.1827
  176SAPS   H7R20060   2.199   2.930   2.719  1.0564  0.3893 -1.6636
  176SAPS   H7S20061   2.332   2.832   2.658  0.3361 -2.5719 -0.1933
  176SAPS   C2820062   2.267   2.784   2.861 -0.4022  0.2190 -0.4411
  176SAPS   H8R20063   2.247   2.678   2.881  1.6685 -0.5703 -2.1645
  176SAPS   C2920064   2.302   2.859   2.971  0.9149  1.3667 -0.0679
  176SAPS   H9R20065   2.330   2.815   3.068 -0.6638  0.2848 -0.0833
  176SAPS  C21020066   2.317   3.011   2.974 -0.6139  0.0173  0.0280
  176SAPS  H10R20067   2.359   3.038   2.875 -2.0320  0.1201 -0.5778
  176SAPS  H10S20068   2.404   3.034   3.039  2.8689 -3.0774 -3.0529
  176SAPS  C21120069   2.200   3.101   2.998  0.3796  0.4200 -0.3109
  176SAPS  H11R20070   2.167   3.158   2.910  0.2261  2.3940  0.9816
  176SAPS  C21220071   2.139   3.124   3.117  0.3828  0.5388 -0.4092
  176SAPS  H12R20072   2.051   3.190   3.115  1.4934  2.1148  0.4319
  176SAPS  C21320073   2.174   3.055   3.251 -0.2913 -0.7298 -0.2136
  176SAPS  H13R20074   2.284   3.037   3.247 -0.3295 -0.7285 -1.9392
  176SAPS  H13S20075   2.125   2.955   3.259  0.6880 -1.1618  0.6409
  176SAPS  C21420076   2.138   3.152   3.364  0.0928  0.5214 -1.0645
  176SAPS  H14R20077   2.163   3.258   3.348 -1.8291  1.2192  0.1687
  176SAPS  C21520078   2.101   3.117   3.489  0.1658 -0.5669 -0.0706
  176SAPS  H15R20079   2.077   3.192   3.566  0.8311 -1.5236  1.1030
  176SAPS  C21620080   2.085   2.979   3.548 -0.0606 -0.4349  0.2109
  176SAPS  H16R20081   2.032   2.904   3.485 -0.6720 -1.2068  1.6075
  176SAPS  H16S20082   2.023   2.981   3.640  1.4831  1.8831  1.2651
  176SAPS  C21720083   2.213   2.915   3.599  0.0267  0.3212 -0.3221
  176SAPS  H17R20084   2.278   2.921   3.508 -0.5705  0.5412 -0.7391
  176SAPS  H17S20085   2.190   2.809   3.622  0.6148  0.5196  1.3061
  176SAPS  C21820086   2.283   2.978   3.713 -0.1420 -0.4836  0.2328
  176SAPS  H18R20087   2.220   2.964   3.803  0.0224 -0.5931  0.3311
  176SAPS  H18S20088   2.303   3.085   3.692  1.0680 -0.3122  2.0240
  176SAPS  C21920089   2.410   2.903   3.751 -0.4428  0.2398 -0.4404
  176SAPS  H19R20090   2.460   2.962   3.831 -1.4394  0.7691 -0.1833
  176SAPS  H19S20091   2.495   2.902   3.679  0.4644 -0.3933  0.6055
  176SAPS  C22020092   2.393   2.761   3.801 -0.0565  0.0187 -0.0685
  176SAPS  H20R20093   2.490   2.707   3.796  0.3761  0.8377 -0.6000
  176SAPS  H20S20094   2.319   2.703   3.742  0.1014 -0.0982 -0.1518
  176SAPS  H20T20095   2.363   2.764   3.908  1.9051  0.7526  0.5149
  176SAPS   C3320096   1.886   2.152   3.155 -0.0876 -0.2674 -0.0513
  176SAPS   H3X20097   1.794   2.095   3.180 -0.0193  0.1198  1.1477
  176SAPS   H3Y20098   1.867   2.260   3.171  1.4071 -0.2969  2.5677
  176SAPS   C3420099   2.002   2.107   3.251 -0.1437 -0.0551  0.1162
  176SAPS   H4X20100   2.104   2.144   3.228  0.6461 -1.0228  1.8309
  176SAPS   H4Y20101   2.019   1.997   3.258 -5.1070 -1.0294 -0.0106
  176SAPS   C3520102   1.979   2.173   3.388 -0.2458 -0.4801 -0.4236
  176SAPS   H5X20103   1.902   2.120   3.447  1.4178 -1.1340  1.2739
  176SAPS   H5Y20104   1.940   2.277   3.393  1.6421  0.2885 -0.7363
  176SAPS   C3620105   2.112   2.180   3.463 -0.0949  0.0438  0.1155
  176SAPS   H6X20106   2.202   2.194   3.398 -0.1419  0.5281  0.1487
  176SAPS   H6Y20107   2.116   2.079   3.507 -2.6330 -0.3372 -0.4201
  176SAPS   C3720108   2.121   2.284   3.573 -0.1796 -0.6133 -0.5139
  176SAPS   H7X20109   2.036   2.273   3.644  0.3307 -0.7323  0.0859
  176SAPS   H7Y20110   2.103   2.390   3.544 -1.4247 -0.6930 -0.1250
  176SAPS   C3820111   2.251   2.279   3.657 -0.2161 -0.3904  0.0036
  176SAPS   H8X20112   2.344   2.318   3.610 -0.4720  1.2349  0.7704
  176SAPS   H8Y20113   2.280   2.176   3.684  0.7252 -0.4499 -1.1463
  176SAPS   C3920114   2.241   2.358   3.789  0.7511 -0.4094 -0.7957
  176SAPS   H9X20115   2.148   2.317   3.834 -1.3049  0.5432 -3.8612
  176SAPS   H9Y20116   2.218   2.464   3.767  1.1438 -0.2001 -0.2265
  176SAPS  C31020117   2.372   2.345   3.870 -0.6667 -0.4071 -0.1796
  176SAPS  H10X20118   2.451   2.413   3.831 -1.3005  2.0581  2.4849
  176SAPS  H10Y20119   2.395   2.236   3.866  1.9257  0.1124 -0.9518
  176SAPS  C31120120   2.346   2.396   4.016 -0.1878  1.2338  1.0022
  176SAPS  H11X20121   2.263   2.332   4.053 -0.8564  1.0807 -0.6926
  176SAPS  H11Y20122   2.322   2.504   4.014  1.4364  1.6574  2.3118
  176SAPS  C31220123   2.467   2.380   4.100  0.8057  0.0334 -0.5145
  176SAPS  H12X20124   2.519   2.479   4.096  0.0007  0.5274  0.7947
  176SAPS  H12Y20125   2.538   2.306   4.057  0.6198 -0.1809 -0.4518
  176SAPS  C31320126   2.439   2.371   4.248  0.1716  0.3398 -0.4940
  176SAPS  H13X20127   2.408   2.266   4.268  2.4680 -1.0501 -3.4513
  176SAPS  H13Y20128   2.355   2.442   4.267  0.1076  0.4700 -1.2405
  176SAPS  C31420129   2.560   2.393   4.347 -0.3028  0.1147 -0.9728
  176SAPS  H14X20130   2.631   2.313   4.318 -0.7416 -0.4263 -0.5947
  176SAPS  H14Y20131   2.537   2.384   4.455  0.8990 -1.3566 -0.8045
  176SAPS  C31520132   2.633   2.530   4.348 -0.1146 -1.0098 -0.6214
  176SAPS  H15X20133   2.570   2.614   4.384 -0.9664 -1.4651 -1.0156
  176SAPS  H15Y20134   2.658   2.561   4.244  3.9691 -1.8756 -0.0949
  176SAPS  C31620135   2.771   2.520   4.424 -0.3730 -0.2860 -0.4067
  176SAPS  H16X20136   2.854   2.483   4.360 -0.3661  1.1101 -1.2334
  176SAPS  H16Y20137   2.743   2.445   4.501  1.3149 -1.4457 -0.8510
  176SAPS  C31720138   2.818   2.650   4.488  0.3675 -0.5816  0.0041
  176SAPS  H17X20139   2.743   2.672   4.566  0.0681 -0.1886 -0.3901
  176SAPS  H17Y20140   2.810   2.733   4.414  1.4863 -0.0041  0.5017
  176SAPS  C31820141   2.949   2.645   4.561 -0.2028 -0.4505  0.0463
  176SAPS  H18X20142   2.980   2.736   4.616  2.0146 -0.8196 -0.5190
  176SAPS  H18Y20143   3.030   2.616   4.491  0.2301 -0.0527  0.3762
  176SAPS  H18Z20144   2.944   2.572   4.644  0.5202  1.5765  1.9675
  177SAPS     N20145   4.010   1.377   2.337  0.2244  0.1021 -0.2788
  177SAPS   HN120146   3.998   1.379   2.234 -0.5289 -2.4133 -0.3130
  177SAPS   HN220147   3.978   1.468   2.376  0.5617  0.6180 -1.1875
  177SAPS   HN320148   4.106   1.365   2.374  0.0945  0.3398  0.1437
  177SAPS   C1220149   3.935   1.258   2.388 -0.2120  0.1184  0.1027
  177SAPS  H12A20150   3.922   1.265   2.495 -1.4527  1.8036 -0.1234
  177SAPS   C1320151   3.796   1.245   2.311  0.3958  0.2301 -0.2635
  177SAPS  O13A20152   3.773   1.319   2.211 -0.9781 -0.0682 -0.5677
  177SAPS  O13B20153   3.725   1.142   2.337  1.0456 -0.0059  0.5606
  177SAPS   C1120154   4.016   1.128   2.369  0.5430 -0.6952 -0.1894
  177SAPS  H11A20155   4.000   1.104   2.261 -0.7431  0.2246 -0.2256
  177SAPS  H11B20156   3.969   1.051   2.434 -0.2344  1.9355  2.5549
  177SAPS     P20157   4.206   1.148   2.548 -0.4446  0.0530 -0.2121
  177SAPS   O1320158   4.351   1.127   2.543  0.0408  0.0647  0.2039
  177SAPS   O1420159   4.150   1.273   2.609  0.2505 -0.0610  0.4942
  177SAPS   O1220160   4.152   1.147   2.402  0.3954  0.2699 -0.4460
  177SAPS   O1120161   4.150   1.020   2.616  0.5879 -0.4735 -0.5442
  177SAPS    C120162   4.059   1.035   2.723  0.2887  0.2197 -0.1341
  177SAPS    HA20163   4.005   1.132   2.724 -0.2144 -0.0598 -0.0023
  177SAPS    HB20164   3.989   0.950   2.720  0.9682 -0.3577  0.0271
  177SAPS    C220165   4.136   1.017   2.855  0.1438 -0.7210  0.2962
  177SAPS    HS20166   4.059   1.006   2.935 -0.3018 -0.7461 -0.1355
  177SAPS   O2120167   4.216   1.139   2.881  0.5423 -0.0320  0.5626
  177SAPS   C2120168   4.158   1.238   2.931  1.2896 -0.4750  0.1015
  177SAPS   O2220169   4.034   1.260   2.925 -0.0900  0.3731  0.8027
  177SAPS   C2220170   4.254   1.324   3.012  0.3480  1.0023  0.3928
  177SAPS   H2R20171   4.293   1.250   3.085 -3.2546  0.6526  2.1563
  177SAPS   H2S20172   4.332   1.351   2.937 -0.3684 -0.4283 -0.9213
  177SAPS    C320173   4.220   0.886   2.860 -0.0180 -0.2879  0.1073
  177SAPS    HX20174   4.310   0.880   2.796 -0.1097 -0.5099 -0.0003
  177SAPS    HY20175   4.146   0.818   2.814  0.4974 -0.0832 -1.0663
  177SAPS   O3120176   4.257   0.854   2.995 -0.4591 -0.3876  0.4057
  177SAPS   C3120177   4.364   0.913   3.037 -1.1145 -0.2999 -0.1400
  177SAPS   O3220178   4.444   0.975   2.966 -0.0470  0.6361  0.3375
  177SAPS   C3220179   4.374   0.905   3.191  0.4380 -0.3196  0.3368
  177SAPS   H2X20180   4.446   0.826   3.221 -0.2249 -0.3999  1.8309
  177SAPS   H2Y20181   4.280   0.873   3.241 -0.1835  2.4423  1.1045
  177SAPS   C2320182   4.186   1.441   3.086  0.7659  0.1121 -0.2323
  177SAPS   H3R20183   4.117   1.395   3.159  0.9635 -0.7249 -0.5534
  177SAPS   H3S20184   4.128   1.502   3.013  0.8846 -1.3078 -1.5905
  177SAPS   C2420185   4.284   1.539   3.158  0.5128  0.3798  0.2352
  177SAPS   H4R20186   4.221   1.620   3.201  0.2822 -0.4003  1.4030
  177SAPS   H4S20187   4.345   1.576   3.073 -0.2670  0.9572 -0.0890
  177SAPS   C2520188   4.359   1.460   3.262 -0.0844  0.2573 -0.8041
  177SAPS   H5R20189   4.427   1.385   3.219  1.5867  1.1609  0.1712
  177SAPS   C2620190   4.332   1.465   3.393  0.1909  0.0633  1.0369
  177SAPS   H6R20191   4.408   1.417   3.456  0.0015 -1.7047 -0.0213
  177SAPS   C2720192   4.233   1.558   3.459  0.1768 -0.5527  0.0599
  177SAPS   H7R20193   4.132   1.513   3.458 -0.3748  0.6369 -0.2674
  177SAPS   H7S20194   4.234   1.652   3.399  3.5880  0.6737  1.7561
  177SAPS   C2820195   4.263   1.618   3.600 -0.1138  0.5653  0.3244
  177SAPS   H8R20196   4.181   1.592   3.668 -0.3626 -1.3180 -0.6268
  177SAPS   C2920197   4.366   1.687   3.638  0.1703 -0.5130  0.3421
  177SAPS   H9R20198   4.375   1.723   3.741 -1.6641  1.5849 -0.1545
  177SAPS  C21020199   4.495   1.721   3.557  0.5236 -0.3201 -0.5325
  177SAPS  H10R20200   4.474   1.823   3.520  1.5954 -1.1759 -3.8302
  177SAPS  H10S20201   4.502   1.657   3.467 -0.3075  1.7386 -2.1427
  177SAPS  C21120202   4.626   1.719   3.637 -0.1326 -0.2081 -0.1602
  177SAPS  H11R20203   4.636   1.812   3.694 -1.5103  0.7973 -1.4883
  177SAPS  C21220204   4.698   1.607   3.657 -0.2379 -0.1199  0.1446
  177SAPS  H12R20205   4.788   1.617   3.720 -1.6221  0.7019  2.0798
  177SAPS  C21320206   4.683   1.475   3.587  0.0066  0.2621  0.1192
  177SAPS  H13R20207   4.633   1.494   3.489 -2.4064  0.1183  1.2416
  177SAPS  H13S20208   4.622   1.413   3.656  2.3488  0.5567  2.6146
  177SAPS  C21420209   4.816   1.408   3.562 -0.3378  0.1940 -0.0662
  177SAPS  H14R20210   4.858   1.430   3.463 -1.9237 -0.1789 -0.8491
  177SAPS  C21520211   4.891   1.337   3.647 -0.5621 -0.6017 -0.2995
  177SAPS  H15R20212   4.985   1.302   3.600  0.8577  3.0675 -0.5421
  177SAPS  C21620213   4.862   1.300   3.788 -0.7377 -0.5317 -0.6128
  177SAPS  H16R20214   4.908   1.201   3.807  0.2665 -0.2415 -1.4327
  177SAPS  H16S20215   4.756   1.277   3.813  0.0009 -1.6043  1.7901
  177SAPS  C21720216   4.928   1.401   3.886 -0.3769 -0.1477  0.0263
  177SAPS  H17R20217   4.912   1.508   3.859 -1.5987  0.5849  3.1481
  177SAPS  H17S20218   5.038   1.389   3.882 -0.1200  2.0658 -2.4595
  177SAPS  C21820219   4.863   1.387   4.026 -0.8479  1.1837  0.2130
  177SAPS  H18R20220   4.755   1.409   4.007 -0.6140  1.1049 -1.2997
  177SAPS  H18S20221   4.908   1.466   4.090  1.2299  0.0104  0.2692
  177SAPS  C21920222   4.876   1.251   4.098  0.2385 -0.2250  0.1647
  177SAPS  H19R20223   4.852   1.167   4.029 -0.4419  0.2537 -0.1946
  177SAPS  H19S20224   4.803   1.246   4.182  0.6571 -1.8042  0.4590
  177SAPS  C22020225   5.011   1.213   4.160  0.2885  0.5188  0.0888
  177SAPS  H20R20226   5.088   1.202   4.080  1.0062 -0.3329  0.8750
  177SAPS  H20S20227   5.007   1.111   4.202 -0.5807 -0.8501 -3.0126
  177SAPS  H20T20228   5.036   1.300   4.224 -3.0643  2.9886 -1.6335
  177SAPS   C3320229   4.416   1.044   3.257 -0.1204  0.2707  0.1879
  177SAPS   H3X20230   4.335   1.120   3.262 -0.0609  0.3596 -0.2077
  177SAPS   H3Y20231   4.488   1.083   3.182 -0.3529  1.8405  0.7414
  177SAPS   C3420232   4.489   1.031   3.394  0.4478 -0.2154 -0.0694
  177SAPS   H4X20233   4.536   1.127   3.422  1.6857 -1.2701  1.6838
  177SAPS   H4Y20234   4.570   0.955   3.395  0.5985 -0.0743  1.8675
  177SAPS   C3520235   4.386   0.993   3.506 -0.6951  0.4385 -0.4567
  177SAPS   H5X20236   4.351   0.891   3.480  3.2151 -0.6665 -2.1122
  177SAPS   H5Y20237   4.301   1.063   3.515 -1.8201 -0.8826 -0.5138
  177SAPS   C3620238   4.460   0.999   3.646  0.1711 -0.7639  0.1458
  177SAPS   H6X20239   4.503   1.101   3.655  1.1777 -1.1616  0.0215
  177SAPS   H6Y20240   4.542   0.925   3.644 -0.0318 -0.9959  0.3834
  177SAPS   C3720241   4.380   0.965   3.770  0.3813 -0.0060 -0.6058
  177SAPS   H7X20242   4.367   0.856   3.785 -2.4825  0.2731 -0.4494
  177SAPS   H7Y20243   4.280   1.012   3.763 -0.9967 -2.6342 -0.0183
  177SAPS   C3820244   4.441   1.016   3.901 -0.6876  0.3545 -0.2203
  177SAPS   H8X20245   4.538   0.963   3.912 -0.3408  0.1346 -3.4643
  177SAPS   H8Y20246   4.379   0.969   3.980  0.3677  1.6261  1.4440
  177SAPS   C3920247   4.465   1.165   3.918  0.3929 -0.8179 -0.0071
  177SAPS   H9X20248   4.396   1.216   3.848 -1.1507 -1.8799  0.6806
  177SAPS   H9Y20249   4.568   1.192   3.885  1.4841 -2.6857  1.5928
  177SAPS  C31020250   4.441   1.212   4.062 -0.0252 -0.0575 -0.1062
  177SAPS  H10X20251   4.514   1.152   4.121  0.6448  0.3302 -0.5312
  177SAPS  H10Y20252   4.343   1.183   4.105  0.3214 -0.1869  0.6005
  177SAPS  C31120253   4.466   1.356   4.084 -0.3275 -0.4266 -0.3324
  177SAPS  H11X20254   4.401   1.411   4.012  1.1397  0.6013 -0.9150
  177SAPS  H11Y20255   4.563   1.377   4.035 -0.3059 -0.8494 -0.4770
  177SAPS  C31220256   4.450   1.394   4.229  0.3139  0.3374  0.0815
  177SAPS  H12X20257   4.352   1.356   4.265  0.9338  0.4801  2.0187
  177SAPS  H12Y20258   4.437   1.504   4.241  3.4922  0.7545  0.3793
  177SAPS  C31320259   4.561   1.351   4.323  0.0620 -0.1810 -0.7258
  177SAPS  H13X20260   4.624   1.278   4.269  0.3677  0.5263 -1.3447
  177SAPS  H13Y20261   4.530   1.296   4.415  2.0043 -2.4389 -1.3163
  177SAPS  C31420262   4.648   1.468   4.361 -0.2712  0.1199 -0.6564
  177SAPS  H14X20263   4.595   1.520   4.444 -1.4172 -1.0355 -0.6210
  177SAPS  H14Y20264   4.667   1.544   4.283  1.4676  0.0621 -0.3321
  177SAPS  C31520265   4.784   1.432   4.425  0.2546  0.6648 -0.4644
  177SAPS  H15X20266   4.832   1.523   4.466  0.0808  1.7013 -2.4409
  177SAPS  H15Y20267   4.860   1.403   4.350 -0.1570  1.2237 -1.1195
  177SAPS  C31620268   4.772   1.326   4.540 -0.9019  0.0107  0.5688
  177SAPS  H16X20269   4.705   1.247   4.501  2.1944 -1.2231 -2.8282
  177SAPS  H16Y20270   4.718   1.378   4.623 -1.5195  1.1594 -0.5258
  177SAPS  C31720271   4.916   1.271   4.563  0.5151  0.4874  0.5023
  177SAPS  H17X20272   4.968   1.253   4.466 -0.7428  1.1470 -0.3320
  177SAPS  H17Y20273   4.911   1.178   4.623  2.4988  0.2095  0.3051
  177SAPS  C31820274   5.001   1.370   4.646  0.7010 -0.0905 -0.2893
  177SAPS  H18X20275   5.103   1.335   4.674  0.6353 -0.3870 -0.4237
  177SAPS  H18Y20276   4.954   1.398   4.742  1.6329  0.1830  0.1066
  177SAPS  H18Z20277   4.997   1.465   4.587  1.2731 -0.0209 -0.2241
  178SAPS     N20278   3.338   0.275   1.917  0.1569  0.2592  0.3365
  178SAPS   HN120279   3.403   0.203   1.881  1.0833  0.4132  1.6475
  178SAPS   HN220280   3.326   0.250   2.017 -0.4043 -1.3589 -0.1114
  178SAPS   HN320281   3.243   0.261   1.878 -0.3422  2.0146  0.8052
  178SAPS   C1220282   3.378   0.418   1.894  0.1238  0.3247 -0.6353
  178SAPS  H12A20283   3.365   0.436   1.788  0.8609 -1.0099 -0.9688
  178SAPS   C1320284   3.278   0.510   1.958 -0.0683  0.4783 -0.3665
  178SAPS  O13A20285   3.181   0.469   2.020  0.8554  0.0308  0.6461
  178SAPS  O13B20286   3.277   0.629   1.913  0.4885 -0.6735  0.1825
  178SAPS   C1120287   3.515   0.459   1.939  0.0456  0.6096  0.3409
  178SAPS  H11A20288   3.529   0.559   1.893 -2.3565 -0.2169 -2.4894
  178SAPS  H11B20289   3.594   0.393   1.897 -0.1938  0.0819  0.7070
  178SAPS     P20290   3.580   0.342   2.170 -0.2194 -0.4804  0.3225
  178SAPS   O1320291   3.591   0.221   2.084 -0.7582  0.1684  0.3390
  178SAPS   O1420292   3.702   0.386   2.250  0.4176 -0.1416 -0.0949
  178SAPS   O1220293   3.533   0.460   2.080  0.3219 -0.4556 -0.4004
  178SAPS   O1120294   3.456   0.323   2.260  0.2075 -0.3150 -0.3552
  178SAPS    C120295   3.378   0.434   2.299  0.2818  0.0526 -0.1531
  178SAPS    HA20296   3.344   0.505   2.221 -0.0681  2.0521  1.7021
  178SAPS    HB20297   3.284   0.396   2.344 -0.4686  1.7659 -0.1750
  178SAPS    C220298   3.447   0.525   2.407  0.0230 -0.3487  0.2835
  178SAPS    HS20299   3.510   0.596   2.349  1.7716 -0.5249  1.8471
  178SAPS   O2120300   3.519   0.441   2.500 -0.6888 -0.8003  0.5966
  178SAPS   C2120301   3.622   0.505   2.554 -0.1471  0.2539 -0.0063
  178SAPS   O2220302   3.677   0.607   2.512  0.7684 -0.1103  0.2284
  178SAPS   C2220303   3.667   0.429   2.678  0.0706  0.0949 -0.3417
  178SAPS   H2R20304   3.601   0.448   2.765  0.4254  0.8108 -0.2313
  178SAPS   H2S20305   3.658   0.320   2.658  2.5180 -0.2501  0.1315
  178SAPS    C320306   3.337   0.606   2.485 -0.2993 -0.9511 -0.8753
  178SAPS    HX20307   3.273   0.530   2.535 -1.0410 -0.3554 -0.8973
  178SAPS    HY20308   3.276   0.663   2.412  0.8009  2.3043  0.5455
  178SAPS   O3120309   3.388   0.686   2.590  0.2921  0.0613 -0.6243
  178SAPS   C3120310   3.442   0.800   2.546  0.5240  0.0278 -0.3815
  178SAPS   O3220311   3.420   0.853   2.438 -0.0008  0.9894  0.0610
  178SAPS   C3220312   3.537   0.844   2.660 -0.1111  0.4758  0.0863
  178SAPS   H2X20313   3.631   0.790   2.638 -1.7949 -1.9594 -1.6376
  178SAPS   H2Y20314   3.492   0.811   2.756  2.8251  2.1747  2.2215
  178SAPS   C2320315   3.817   0.464   2.724  0.2298 -0.5789  0.4888
  178SAPS   H3R20316   3.880   0.464   2.632  0.2061  2.6861  0.3471
  178SAPS   H3S20317   3.857   0.389   2.796 -0.1425 -0.3209  0.9712
  178SAPS   C2420318   3.821   0.607   2.791 -0.2273  0.5162  0.1190
  178SAPS   H4R20319   3.789   0.689   2.723  1.1204  0.8272 -0.1749
  178SAPS   H4S20320   3.925   0.626   2.826 -0.8409  1.2625  1.6336
  178SAPS   C2520321   3.736   0.610   2.918  0.0400  0.1151 -1.0722
  178SAPS   H5R20322   3.665   0.526   2.922  0.0160  0.1941  0.2994
  178SAPS   C2620323   3.743   0.708   3.013 -0.9814  0.1575  0.6284
  178SAPS   H6R20324   3.675   0.689   3.098 -0.7909  1.6323  1.1503
  178SAPS   C2720325   3.845   0.819   3.026  0.0355  0.0933  0.4302
  178SAPS   H7R20326   3.797   0.913   3.061 -1.2263 -0.1756 -0.5295
  178SAPS   H7S20327   3.894   0.842   2.929 -0.5218 -2.1150 -0.4267
  178SAPS   C2820328   3.952   0.779   3.130 -0.0385  0.4693 -0.1922
  178SAPS   H8R20329   3.987   0.676   3.113 -0.4933 -0.1355  2.1510
  178SAPS   C2920330   3.995   0.833   3.245 -0.2828  0.3484  0.1505
  178SAPS   H9R20331   4.085   0.798   3.298 -0.7350  0.6692  1.1401
  178SAPS  C21020332   3.938   0.957   3.312 -0.4635  0.5808  0.4023
  178SAPS  H10R20333   3.985   0.975   3.411 -1.4906  2.5806  0.5744
  178SAPS  H10S20334   3.832   0.932   3.333 -0.6942  0.9452 -0.2818
  178SAPS  C21120335   3.941   1.083   3.232  0.0568  0.0030 -0.5549
  178SAPS  H11R20336   3.975   1.072   3.128  1.8259  1.6779 -0.2165
  178SAPS  C21220337   3.930   1.209   3.276 -0.3476 -0.0338 -0.3614
  178SAPS  H12R20338   3.935   1.288   3.201 -0.7993 -1.9824 -2.5455
  178SAPS  C21320339   3.887   1.252   3.410  0.7422  0.6354 -0.0459
  178SAPS  H13R20340   3.801   1.186   3.437  1.3226 -0.5724 -1.0864
  178SAPS  H13S20341   3.848   1.356   3.400  0.6456  0.3864 -2.9867
  178SAPS  C21420342   3.983   1.246   3.527  0.3502  0.5724 -0.3304
  178SAPS  H14R20343   4.079   1.193   3.516  0.0081 -0.3788  1.0054
  178SAPS  C21520344   3.949   1.291   3.649  0.5400 -0.3372  0.0000
  178SAPS  H15R20345   4.024   1.285   3.729  1.0082 -1.8882 -0.5272
  178SAPS  C21620346   3.818   1.364   3.682  0.8909  0.1240  0.1629
  178SAPS  H16R20347   3.738   1.349   3.606  0.6894  0.7767  0.2380
  178SAPS  H16S20348   3.828   1.475   3.674  0.2958  0.0597 -2.2323
  178SAPS  C21720349   3.760   1.317   3.811  0.2163  0.0707  0.3633
  178SAPS  H17R20350   3.836   1.328   3.892 -0.7735  2.0149  1.0780
  178SAPS  H17S20351   3.745   1.208   3.793 -0.0872  0.0008  1.0134
  178SAPS  C21820352   3.630   1.386   3.843 -0.0642 -0.3674  0.0517
  178SAPS  H18R20353   3.563   1.385   3.753 -0.7371 -2.5555  0.5240
  178SAPS  H18S20354   3.637   1.492   3.875 -0.7370 -1.0770  2.7525
  178SAPS  C21920355   3.551   1.304   3.948  0.7804 -0.5732  0.3519
  178SAPS  H19R20356   3.612   1.313   4.041  1.9284 -1.0657 -0.3235
  178SAPS  H19S20357   3.558   1.198   3.915 -0.7353  0.1335 -2.4559
  178SAPS  C22020358   3.405   1.344   3.968  0.4756 -0.4884 -0.0968
  178SAPS  H20R20359   3.332   1.308   3.892  1.9448 -0.3613 -1.6308
  178SAPS  H20S20360   3.384   1.452   3.955 -1.8544 -0.8329  0.3402
  178SAPS  H20T20361   3.359   1.328   4.068 -1.9930  3.5519 -0.3757
  178SAPS   C3320362   3.551   0.997   2.655 -0.0160  0.1341 -1.0611
  178SAPS   H3X20363   3.458   1.046   2.690 -0.4380  0.2807 -2.3507
  178SAPS   H3Y20364   3.574   1.026   2.550  0.6270  0.1144 -0.9314
  178SAPS   C3420365   3.672   1.042   2.738  0.0427  0.1140  0.0362
  178SAPS   H4X20366   3.756   0.996   2.681  0.6993  0.1784  0.9249
  178SAPS   H4Y20367   3.675   0.984   2.833 -0.7809  2.2449  1.4270
  178SAPS   C3520368   3.680   1.194   2.775 -0.2565 -0.5705  0.3433
  178SAPS   H5X20369   3.683   1.259   2.685 -1.1365  2.8882  2.6175
  178SAPS   H5Y20370   3.773   1.216   2.832 -1.0695 -1.1132  1.9332
  178SAPS   C3620371   3.563   1.240   2.866 -0.7685  0.1017  0.3982
  178SAPS   H6X20372   3.485   1.165   2.890  0.0898 -1.7470 -2.0829
  178SAPS   H6Y20373   3.520   1.320   2.801  0.9094 -1.0588 -2.3413
  178SAPS   C3720374   3.609   1.302   2.996 -0.5145  0.5265 -0.8879
  178SAPS   H7X20375   3.702   1.361   2.982 -0.5474  0.2170 -2.5845
  178SAPS   H7Y20376   3.623   1.224   3.074 -0.6569 -0.5282 -1.8774
  178SAPS   C3820377   3.521   1.405   3.054 -0.1404 -0.7348 -0.3458
  178SAPS   H8X20378   3.418   1.365   3.057 -0.7747  0.7813 -0.8200
  178SAPS   H8Y20379   3.519   1.500   2.997 -1.4664 -0.0882  0.7095
  178SAPS   C3920380   3.574   1.447   3.195 -0.1727 -0.5487  0.6312
  178SAPS   H9X20381   3.678   1.485   3.190 -0.7903  1.1294 -0.0465
  178SAPS   H9Y20382   3.572   1.364   3.269  0.7625  1.0411  2.5364
  178SAPS  C31020383   3.490   1.564   3.250  0.7459  0.2282 -0.5917
  178SAPS  H10X20384   3.381   1.550   3.231  0.3453 -2.5810  2.8198
  178SAPS  H10Y20385   3.533   1.652   3.198  0.4890  0.6802 -0.0509
  178SAPS  C31120386   3.507   1.590   3.400 -0.2215  0.0140  0.4450
  178SAPS  H11X20387   3.612   1.592   3.435 -0.5181 -1.3482  1.5175
  178SAPS  H11Y20388   3.476   1.503   3.462 -2.3065  0.5080  0.1736
  178SAPS  C31220389   3.425   1.706   3.448 -0.6065  0.0683  0.1760
  178SAPS  H12X20390   3.325   1.697   3.402  0.6549 -1.7721 -2.4733
  178SAPS  H12Y20391   3.460   1.801   3.402 -0.0923 -1.1491 -2.0814
  178SAPS  C31320392   3.434   1.704   3.605  0.0659  0.1909 -0.2826
  178SAPS  H13X20393   3.537   1.718   3.645 -0.4236 -0.3685  1.2055
  178SAPS  H13Y20394   3.392   1.604   3.627  0.1226  0.2438  0.0707
  178SAPS  C31420395   3.351   1.815   3.669 -0.5519 -0.7542 -0.6840
  178SAPS  H14X20396   3.259   1.815   3.607 -1.6614 -5.0146  0.5812
  178SAPS  H14Y20397   3.397   1.913   3.648 -0.2629 -1.2316 -2.4133
  178SAPS  C31520398   3.305   1.795   3.810  0.1253  0.7696  0.3589
  178SAPS  H15X20399   3.258   1.889   3.847 -0.0257  0.9255 -0.2172
  178SAPS  H15Y20400   3.388   1.775   3.880  1.2827 -1.1738 -1.4722
  178SAPS  C31620401   3.221   1.672   3.828  0.6505 -0.6545 -0.1193
  178SAPS  H16X20402   3.285   1.584   3.806  1.2328 -0.6438  1.3604
  178SAPS  H16Y20403   3.140   1.688   3.754  0.9957  1.1665 -0.1452
  178SAPS  C31720404   3.150   1.654   3.969  0.2998  0.2404  0.6062
  178SAPS  H17X20405   3.229   1.634   4.044  1.6263  1.9087 -0.2640
  178SAPS  H17Y20406   3.090   1.561   3.966  1.3102 -0.4052 -0.0506
  178SAPS  C31820407   3.052   1.766   4.003  0.3849  0.6315 -0.2363
  178SAPS  H18X20408   2.985   1.741   4.088 -1.4781  0.1245 -1.7689
  178SAPS  H18Y20409   2.994   1.793   3.912 -0.2360 -0.1647 -0.0994
  178SAPS  H18Z20410   3.089   1.866   4.032  0.2407  0.7360 -0.4148
  179SAPS     N20411   1.880   3.307   1.782 -0.4146 -0.3287 -0.3674
  179SAPS   HN120412   1.832   3.397   1.763  0.5495  0.5383  1.0892
  179SAPS   HN220413   1.815   3.225   1.781  0.2107 -0.8266 -1.3296
  179SAPS   HN320414   1.907   3.320   1.882 -0.2088  1.8998 -0.6695
  179SAPS   C1220415   1.990   3.292   1.687  0.1303 -0.0934 -0.4352
  179SAPS  H12A20416   2.041   3.202   1.718 -0.8828 -0.4556  0.2753
  179SAPS   C1320417   1.951   3.261   1.543 -1.0477 -0.2373  0.2541
  179SAPS  O13A20418   1.831   3.264   1.507 -0.3748  0.6274 -0.2552
  179SAPS  O13B20419   2.045   3.218   1.467 -0.0443  0.2881  0.5598
  179SAPS   C1120420   2.089   3.407   1.690 -0.0371 -0.3745  0.9743
  179SAPS  H11A20421   2.031   3.497   1.659 -1.2554 -1.7648 -1.0271
  179SAPS  H11B20422   2.162   3.398   1.606 -1.6111 -0.4380 -0.4291
  179SAPS     P20423   2.296   3.469   1.839  0.0551  0.3739 -0.2407
  179SAPS   O1320424   2.377   3.346   1.855  0.7929 -0.2517 -0.7734
  179SAPS   O1420425   2.330   3.562   1.733 -0.3403 -0.2451 -0.0060
  179SAPS   O1220426   2.149   3.426   1.823  0.1913  0.1985  0.1859
  179SAPS   O1120427   2.295   3.532   1.986  0.2291  0.5700 -0.2770
  179SAPS    C120428   2.198   3.628   2.028  0.2661  0.2606 -0.2741
  179SAPS    HA20429   2.102   3.617   1.972  0.4702 -0.9720 -0.4128
  179SAPS    HB20430   2.169   3.615   2.134 -0.7735 -2.0648 -0.7927
  179SAPS    C220431   2.247   3.773   2.011 -0.3470 -0.6337 -0.5798
  179SAPS    HS20432   2.268   3.789   1.903 -2.5315  1.1281 -0.8177
  179SAPS   O2120433   2.377   3.783   2.084  0.4757  0.1624  0.7615
  179SAPS   C2120434   2.453   3.888   2.062  0.0383  0.7501  0.2559
  179SAPS   O2220435   2.438   3.973   1.974  0.6498  0.6531 -0.2875
  179SAPS   C2220436   2.552   3.894   2.173  0.2429  0.5737  0.1890
  179SAPS   H2R20437   2.504   3.896   2.272  1.1286 -2.3146  0.7779
  179SAPS   H2S20438   2.619   3.805   2.174  0.9997  1.1207 -0.3933
  179SAPS    C320439   2.144   3.879   2.047  0.2116  0.1527  0.0452
  179SAPS    HX20440   2.046   3.856   2.002  0.0450 -0.6918  0.8139
  179SAPS    HY20441   2.174   3.983   2.021  1.2589  0.0344  0.7105
  179SAPS   O3120442   2.119   3.867   2.184  0.0231 -0.0078 -0.3765
  179SAPS   C3120443   2.178   3.949   2.271 -0.7976 -1.1471 -0.1246
  179SAPS   O3220444   2.277   4.018   2.251 -0.5260  0.1253  0.2620
  179SAPS   C3220445   2.093   3.945   2.399 -0.4835 -0.0689  0.0786
  179SAPS   H2X20446   2.121   3.858   2.462 -1.6623  1.2763  2.6233
  179SAPS   H2Y20447   1.992   3.914   2.364  0.5095 -0.7949 -2.3578
  179SAPS   C2320448   2.637   4.023   2.165 -0.2879  0.0686 -0.0161
  179SAPS   H3R20449   2.562   4.105   2.164 -0.6769 -0.1679  2.5235
  179SAPS   H3S20450   2.679   4.016   2.062 -0.5937  1.7524 -0.2834
  179SAPS   C2420451   2.734   4.041   2.276 -0.2328 -0.2947  0.0934
  179SAPS   H4R20452   2.787   3.945   2.294  0.6626  0.0931 -0.4182
  179SAPS   H4S20453   2.678   4.065   2.369 -2.9474 -3.9609 -0.3394
  179SAPS   C2520454   2.836   4.145   2.244 -0.1188  0.4155  0.5954
  179SAPS   H5R20455   2.853   4.161   2.136  1.2516  2.0013  1.0059
  179SAPS   C2620456   2.902   4.213   2.333 -0.1184 -0.4751 -0.5221
  179SAPS   H6R20457   2.968   4.294   2.298 -1.5551  1.1699  0.3944
  179SAPS   C2720458   2.893   4.188   2.483 -0.2683  0.0795  0.0911
  179SAPS   H7R20459   2.797   4.160   2.530  0.5154 -2.4186  0.3616
  179SAPS   H7S20460   2.937   4.276   2.534  1.6624 -1.3173  0.9646
  179SAPS   C2820461   2.991   4.082   2.523  0.6626  0.6288  0.4617
  179SAPS   H8R20462   3.040   4.030   2.439  1.4533  2.2017 -0.0961
  179SAPS   C2920463   3.005   4.045   2.655  0.3440  0.0474  0.3991
  179SAPS   H9R20464   3.075   3.963   2.678  2.1106  1.3465 -0.0773
  179SAPS  C21020465   2.927   4.107   2.772 -0.2234  0.4831 -0.2139
  179SAPS  H10R20466   2.887   4.032   2.843 -2.1398  1.9200  0.3128
  179SAPS  H10S20467   2.840   4.163   2.732  0.1883  0.7019 -0.8259
  179SAPS  C21120468   3.006   4.208   2.859  0.1063 -0.2121 -0.7008
  179SAPS  H11R20469   3.089   4.255   2.804  0.1933 -1.1139 -1.3582
  179SAPS  C21220470   2.995   4.225   2.989 -0.0879  0.2659 -0.6113
  179SAPS  H12R20471   3.059   4.301   3.037  1.7816 -0.8678 -1.1870
  179SAPS  C21320472   2.916   4.153   3.084 -0.1484 -0.3236 -0.6228
  179SAPS  H13R20473   2.957   4.050   3.087  2.0905  0.4847 -1.5148
  179SAPS  H13S20474   2.816   4.141   3.037 -0.1307  2.0420 -1.4116
  179SAPS  C21420475   2.911   4.213   3.226 -0.0531 -0.2744 -0.3721
  179SAPS  H14R20476   2.808   4.240   3.252  0.1749  1.7036 -1.3299
  179SAPS  C21520477   3.009   4.232   3.316 -0.3686 -0.3352  1.2323
  179SAPS  H15R20478   2.984   4.267   3.417 -1.7533  0.6624  0.5608
  179SAPS  C21620479   3.156   4.200   3.290 -0.1387  0.7863 -0.4541
  179SAPS  H16R20480   3.218   4.289   3.313 -0.3861  1.4356 -2.1559
  179SAPS  H16S20481   3.177   4.170   3.185  0.8637 -0.5941  0.1052
  179SAPS  C21720482   3.196   4.087   3.392  0.1303  0.5040  0.5891
  179SAPS  H17R20483   3.203   4.127   3.495  2.0206  2.1670 -0.1186
  179SAPS  H17S20484   3.298   4.059   3.358 -0.5987 -3.0705  0.9482
  179SAPS  C21820485   3.112   3.961   3.374  0.2493  0.4366  0.5736
  179SAPS  H18R20486   3.099   3.954   3.264  0.8367  0.0416  0.5219
  179SAPS  H18S20487   3.010   3.965   3.418 -0.5342  1.6341 -1.2733
  179SAPS  C21920488   3.190   3.830   3.396  0.3639  0.0108 -0.2775
  179SAPS  H19R20489   3.215   3.839   3.504 -0.1910  2.0440 -0.2819
  179SAPS  H19S20490   3.282   3.843   3.335 -0.2001  1.6616 -0.8246
  179SAPS  C22020491   3.126   3.696   3.365  0.3734  0.0518  0.5710
  179SAPS  H20R20492   3.198   3.613   3.379  0.2072 -0.4105 -1.0919
  179SAPS  H20S20493   3.100   3.704   3.257  3.1033  3.3704  0.0063
  179SAPS  H20T20494   3.038   3.678   3.431  0.0394  0.7814  0.3376
  179SAPS   C3320495   2.098   4.068   2.484 -0.1055 -0.3951 -0.4503
  179SAPS   H3X20496   2.027   4.143   2.443 -2.1703 -1.7347  0.5029
  179SAPS   H3Y20497   2.201   4.110   2.480 -0.0614 -0.3148  0.8336
  179SAPS   C3420498   2.069   4.036   2.633  0.3204  0.0339  0.9623
  179SAPS   H4X20499   2.145   3.967   2.674 -0.7796  0.1827  3.4604
  179SAPS   H4Y20500   1.966   3.993   2.635 -0.2026  1.2423  1.0874
  179SAPS   C3520501   2.061   4.151   2.736 -0.1703  0.0747 -0.3177
  179SAPS   H5X20502   1.990   4.232   2.709 -1.8737 -0.7247  1.5753
  179SAPS   H5Y20503   2.161   4.198   2.747  0.5083 -1.6366  1.4582
  179SAPS   C3620504   2.031   4.103   2.875 -0.2667  0.1848 -0.6203
  179SAPS   H6X20505   2.121   4.046   2.906 -0.5480 -1.7845 -3.1261
  179SAPS   H6Y20506   1.946   4.031   2.875 -1.1142  1.0902  1.9106
  179SAPS   C3720507   2.001   4.225   2.968 -0.6919  0.2530  0.5161
  179SAPS   H7X20508   1.924   4.285   2.913 -1.8617 -0.9696  0.7544
  179SAPS   H7Y20509   2.097   4.279   2.983  0.8408 -1.7225 -1.4390
  179SAPS   C3820510   1.941   4.179   3.097  0.3401  0.2252 -0.2684
  179SAPS   H8X20511   1.873   4.092   3.083  0.0541  0.6103 -1.3740
  179SAPS   H8Y20512   1.883   4.269   3.125  1.2820  0.6252  0.4153
  179SAPS   C3920513   2.036   4.162   3.214 -0.2116  0.1367 -0.5293
  179SAPS   H9X20514   2.101   4.252   3.214  0.9538 -0.6845 -0.0996
  179SAPS   H9Y20515   2.107   4.079   3.195 -0.8715 -1.0036  1.6227
  179SAPS  C31020516   1.971   4.137   3.342  0.5337 -0.0676 -0.3989
  179SAPS  H10X20517   1.881   4.073   3.331 -0.2300  0.7922  0.5495
  179SAPS  H10Y20518   1.929   4.235   3.377 -2.4906 -1.1848 -0.5940
  179SAPS  C31120519   2.080   4.082   3.449  0.2769  0.8341 -0.3273
  179SAPS  H11X20520   2.168   4.033   3.401 -0.3696 -1.2404  0.5370
  179SAPS  H11Y20521   2.032   3.992   3.492  0.1262  1.3333  0.5670
  179SAPS  C31220522   2.145   4.192   3.535 -0.6105  0.5630 -0.5048
  179SAPS  H12X20523   2.137   4.279   3.467  1.2446  2.2056  1.2520
  179SAPS  H12Y20524   2.252   4.178   3.561 -0.9100 -0.1106  0.4193
  179SAPS  C31320525   2.063   4.204   3.666  0.3138 -1.4498 -0.8281
  179SAPS  H13X20526   2.071   4.101   3.707  1.2824 -1.4461 -0.9856
  179SAPS  H13Y20527   1.956   4.228   3.649  0.3435  0.1956  0.9404
  179SAPS  C31420528   2.105   4.312   3.773  0.1788  0.0058  0.1851
  179SAPS  H14X20529   2.022   4.317   3.847  0.0578  0.1883  0.0400
  179SAPS  H14Y20530   2.118   4.406   3.715 -0.5214 -0.7062 -1.2092
  179SAPS  C31520531   2.232   4.277   3.845  0.1523  0.2858 -0.4175
  179SAPS  H15X20532   2.307   4.250   3.769  1.4981  1.6228  0.3796
  179SAPS  H15Y20533   2.202   4.192   3.910 -0.0762  1.8295  1.5997
  179SAPS  C31620534   2.275   4.377   3.945  0.5559  0.2054  0.3905
  179SAPS  H16X20535   2.190   4.400   4.013  1.4346 -1.4890  2.1563
  179SAPS  H16Y20536   2.304   4.465   3.883  1.1733 -0.8394 -0.8472
  179SAPS  C31720537   2.392   4.330   4.028 -0.1061  0.5268  0.3893
  179SAPS  H17X20538   2.469   4.288   3.960 -0.3549 -0.7858  0.8802
  179SAPS  H17Y20539   2.374   4.240   4.091  0.4738 -0.4216 -0.7466
  179SAPS  C31820540   2.455   4.443   4.102  0.0221  0.1481 -0.3331
  179SAPS  H18X20541   2.526   4.394   4.172 -2.3314 -1.0480  1.3541
  179SAPS  H18Y20542   2.372   4.496   4.154 -1.2666 -1.8426 -0.2632
  179SAPS  H18Z20543   2.504   4.513   4.030  3.7978 -2.1394 -0.2720
  180SAPS     N20544   3.383   2.250   2.444 -0.4993 -0.1178 -0.0483
  180SAPS   HN120545   3.371   2.264   2.546  2.6877  0.0707  0.4266
  180SAPS   HN220546   3.331   2.327   2.397  0.4726 -0.2806 -1.4738
  180SAPS   HN320547   3.339   2.160   2.415 -0.3949 -0.6114  1.2615
  180SAPS   C1220548   3.528   2.252   2.404  0.1705  0.3612  0.2231
  180SAPS  H12A20549   3.551   2.151   2.376 -0.5410  0.2951 -0.1467
  180SAPS   C1320550   3.561   2.345   2.287  0.3589 -0.2175  0.4901
  180SAPS  O13A20551   3.469   2.411   2.224  0.0699  0.0067 -0.3342
  180SAPS  O13B20552   3.669   2.329   2.227 -0.4418  0.5430  0.5669
  180SAPS   C1120553   3.615   2.297   2.524 -0.0944 -0.6185 -0.2178
  180SAPS  H11A20554   3.605   2.407   2.535 -0.7028 -0.8598  2.0847
  180SAPS  H11B20555   3.717   2.260   2.502  0.3805 -1.6197  3.1537
  180SAPS     P20556   3.633   2.302   2.778 -0.1575  0.0313  0.0449
  180SAPS   O1320557   3.558   2.427   2.812 -0.0327  0.4027 -0.1409
  180SAPS   O1420558   3.638   2.192   2.877  0.7446 -0.1007  0.1718
  180SAPS   O1220559   3.572   2.238   2.645  0.2175  0.6387  0.7592
  180SAPS   O1120560   3.780   2.342   2.748  0.1232 -0.3362  0.3037
  180SAPS    C120561   3.828   2.481   2.761  0.1901  0.9294 -0.7077
  180SAPS    HA20562   3.893   2.506   2.675  1.7162  0.0397  0.1542
  180SAPS    HB20563   3.742   2.549   2.742 -1.7080 -1.3810 -0.9222
  180SAPS    C220564   3.897   2.510   2.904 -0.2771 -0.2050  0.7707
  180SAPS    HS20565   3.971   2.591   2.885 -1.9020  0.6889 -2.3955
  180SAPS   O2120566   3.952   2.396   2.971 -0.3623 -0.1576  0.1341
  180SAPS   C2120567   4.044   2.336   2.905 -0.0212 -0.5790  0.4650
  180SAPS   O2220568   4.101   2.372   2.800  0.5729  0.7413 -1.1991
  180SAPS   C2220569   4.053   2.197   2.978  0.6701 -0.3405  0.1775
  180SAPS   H2R20570   4.059   2.205   3.089 -1.6384  1.0611  0.2643
  180SAPS   H2S20571   3.958   2.144   2.956  0.1593  0.2309  0.9361
  180SAPS    C320572   3.787   2.581   2.996  0.3579 -0.0250  0.2640
  180SAPS    HX20573   3.700   2.512   3.011  0.0623 -0.0660 -1.3513
  180SAPS    HY20574   3.736   2.661   2.937  2.4009  0.6346 -0.6790
  180SAPS   O3120575   3.838   2.611   3.123  0.0729 -0.7560 -0.4458
  180SAPS   C3120576   3.903   2.723   3.123  0.3290 -0.3174 -0.6666
  180SAPS   O3220577   3.933   2.802   3.035 -0.5125  0.0508 -0.1374
  180SAPS   C3220578   3.947   2.736   3.270  0.0131 -0.0824 -0.7194
  180SAPS   H2X20579   3.996   2.641   3.298 -0.7025  0.0114  0.9792
  180SAPS   H2Y20580   3.857   2.739   3.335  1.2112  1.9767  0.9659
  180SAPS   C2320581   4.183   2.115   2.936 -0.1737 -1.2729  0.0443
  180SAPS   H3R20582   4.262   2.185   2.970 -1.4949  0.7876 -0.8797
  180SAPS   H3S20583   4.189   2.118   2.825  3.9325  1.8066  0.1132
  180SAPS   C2420584   4.184   1.980   3.002 -0.6851  0.0437 -0.4387
  180SAPS   H4R20585   4.108   1.921   2.947  0.5024 -2.3973  0.3906
  180SAPS   H4S20586   4.152   1.988   3.108  1.3777 -1.0264  0.3129
  180SAPS   C2520587   4.315   1.910   2.984  0.5381  0.1720  0.8051
  180SAPS   H5R20588   4.340   1.893   2.878  0.4825  3.6965  0.1057
  180SAPS   C2620589   4.406   1.875   3.081 -0.0326 -0.4979  0.6161
  180SAPS   H6R20590   4.505   1.837   3.052  0.2342 -1.2941  2.4310
  180SAPS   C2720591   4.402   1.895   3.237  0.1669  0.0089 -0.1933
  180SAPS   H7R20592   4.480   1.837   3.290  0.6803  0.2300 -0.6985
  180SAPS   H7S20593   4.308   1.853   3.279 -0.0689  1.0407  0.3525
  180SAPS   C2820594   4.399   2.048   3.267 -0.2517 -0.0722 -1.0620
  180SAPS   H8R20595   4.487   2.096   3.223  1.1416 -1.4130  0.1683
  180SAPS   C2920596   4.306   2.106   3.346 -0.0702 -0.7333 -0.3458
  180SAPS   H9R20597   4.312   2.213   3.371 -1.3969 -1.1091  1.8115
  180SAPS  C21020598   4.182   2.045   3.412  0.4571 -0.6990 -0.1839
  180SAPS  H10R20599   4.213   2.021   3.516 -0.3618  2.7064  0.9928
  180SAPS  H10S20600   4.143   1.950   3.370 -0.4188 -0.5773  0.3094
  180SAPS  C21120601   4.081   2.155   3.433 -0.4437 -0.1507  0.3380
  180SAPS  H11R20602   3.986   2.164   3.378 -0.3024  2.3519  0.3969
  180SAPS  C21220603   4.079   2.238   3.542 -1.0922  0.6836 -0.3302
  180SAPS  H12R20604   4.001   2.315   3.534  1.2108  3.0221 -2.2006
  180SAPS  C21320605   4.177   2.250   3.657  1.0245  0.5193 -0.0735
  180SAPS  H13R20606   4.275   2.261   3.606  0.0655  3.1426 -1.5655
  180SAPS  H13S20607   4.160   2.155   3.712 -0.3392 -0.0117 -1.3545
  180SAPS  C21420608   4.152   2.372   3.745 -0.0660  0.3160  0.2766
  180SAPS  H14R20609   4.208   2.458   3.705 -0.2303  1.1529  1.7771
  180SAPS  C21520610   4.068   2.377   3.855  0.9479 -0.0290  0.1532
  180SAPS  H15R20611   4.064   2.468   3.915 -2.1740 -0.4425  0.7621
  180SAPS  C21620612   3.990   2.253   3.909  0.6752 -0.3244  0.2842
  180SAPS  H16R20613   3.961   2.184   3.827 -0.3574  1.1260 -0.6181
  180SAPS  H16S20614   3.891   2.292   3.942  0.2308 -3.0816  2.6370
  180SAPS  C21720615   4.046   2.184   4.024 -0.0032 -0.3788  0.2866
  180SAPS  H17R20616   4.146   2.138   4.005  0.3779  0.5606 -0.0708
  180SAPS  H17S20617   3.986   2.092   4.037  1.0569 -0.9698  1.1569
  180SAPS  C21820618   4.052   2.265   4.149 -0.1298 -0.2572 -0.0999
  180SAPS  H18R20619   3.951   2.276   4.194 -0.0604 -1.7236  0.4589
  180SAPS  H18S20620   4.083   2.372   4.142 -0.1805 -0.2241  0.1623
  180SAPS  C21920621   4.146   2.200   4.243  0.7076  0.3707 -0.2898
  180SAPS  H19R20622   4.253   2.216   4.217  0.9942 -3.1056 -1.8593
  180SAPS  H19S20623   4.125   2.091   4.241 -0.7556  0.4271  3.6929
  180SAPS  C22020624   4.114   2.247   4.391  0.0548  0.4893  0.4651
  180SAPS  H20R20625   4.022   2.190   4.414  0.1238 -0.3349 -1.1538
  180SAPS  H20S20626   4.198   2.223   4.459 -0.0880 -0.3316  0.3617
  180SAPS  H20T20627   4.093   2.356   4.396 -0.7003  0.3735  0.0650
  180SAPS   C3320628   4.029   2.866   3.304 -0.7623  0.1567  0.2797
  180SAPS   H3X20629   4.103   2.880   3.222  0.6672  1.2447  1.6797
  180SAPS   H3Y20630   4.074   2.861   3.405 -2.3142  1.7312  1.1085
  180SAPS   C3420631   3.947   2.993   3.313 -0.2763  0.9496  0.5315
  180SAPS   H4X20632   3.896   3.011   3.216 -1.7675 -0.5211  1.0054
  180SAPS   H4Y20633   4.017   3.079   3.322 -0.2091  1.1211 -1.3732
  180SAPS   C3520634   3.857   2.995   3.432  0.4044  0.0860 -0.4350
  180SAPS   H5X20635   3.922   2.994   3.521 -1.3204 -2.2557  0.9079
  180SAPS   H5Y20636   3.782   2.913   3.426 -0.5109  0.7663  1.1500
  180SAPS   C3620637   3.753   3.110   3.444 -0.0854  0.5822  0.3155
  180SAPS   H6X20638   3.676   3.081   3.518 -0.4666 -1.5366 -0.8146
  180SAPS   H6Y20639   3.689   3.103   3.353 -1.4586  1.0672  1.2102
  180SAPS   C3720640   3.817   3.250   3.463  0.3266 -0.3377  0.1419
  180SAPS   H7X20641   3.928   3.253   3.468  0.2930  2.3959  0.9535
  180SAPS   H7Y20642   3.787   3.282   3.565  1.5863 -0.7517  0.6570
  180SAPS   C3820643   3.759   3.362   3.374 -0.2475  0.6534 -0.2874
  180SAPS   H8X20644   3.780   3.317   3.275 -1.1185  0.4426 -0.3849
  180SAPS   H8Y20645   3.824   3.450   3.388 -1.7543  1.6222  0.9641
  180SAPS   C3920646   3.613   3.408   3.393 -0.4105 -0.1463 -0.1447
  180SAPS   H9X20647   3.545   3.336   3.342  0.0790  0.6837 -2.0958
  180SAPS   H9Y20648   3.596   3.503   3.337 -4.5224 -0.7730 -0.2250
  180SAPS  C31020649   3.568   3.432   3.538 -0.1032  0.4052 -0.4332
  180SAPS  H10X20650   3.644   3.495   3.589  1.0046  0.0806 -1.6189
  180SAPS  H10Y20651   3.571   3.335   3.591  1.2505 -0.2167 -1.5597
  180SAPS  C31120652   3.423   3.479   3.554 -0.2061 -0.2849  0.5522
  180SAPS  H11X20653   3.363   3.392   3.519  1.6484 -2.0236  1.4924
  180SAPS  H11Y20654   3.404   3.559   3.480 -0.0627 -0.8996 -0.1569
  180SAPS  C31220655   3.388   3.505   3.702 -0.0659 -0.0675  0.1973
  180SAPS  H12X20656   3.395   3.425   3.778 -1.1437  0.5654  0.9872
  180SAPS  H12Y20657   3.280   3.530   3.706 -0.3421 -1.1313 -0.3798
  180SAPS  C31320658   3.458   3.633   3.756  0.0326  0.3806 -0.3053
  180SAPS  H13X20659   3.446   3.722   3.691  2.2094  0.4347 -0.7151
  180SAPS  H13Y20660   3.564   3.611   3.780  0.0736 -1.0987 -1.7020
  180SAPS  C31420661   3.384   3.667   3.883 -0.2031 -0.1918 -0.1980
  180SAPS  H14X20662   3.372   3.578   3.949 -0.5150 -1.8309 -2.3371
  180SAPS  H14Y20663   3.282   3.695   3.848 -0.2559 -0.7255 -0.4803
  180SAPS  C31520664   3.436   3.783   3.965 -0.1188  0.1831  0.2112
  180SAPS  H15X20665   3.426   3.880   3.911  2.1123  0.8084  0.8096
  180SAPS  H15Y20666   3.545   3.766   3.978 -0.1263 -0.2478 -0.2592
  180SAPS  C31620667   3.372   3.787   4.105  0.3932  0.5812 -0.5682
  180SAPS  H16X20668   3.261   3.785   4.106  0.3285 -2.8169  1.4604
  180SAPS  H16Y20669   3.407   3.873   4.165 -4.3351  3.2532 -1.1462
  180SAPS  C31720670   3.398   3.669   4.195  0.2561  0.1672  0.3879
  180SAPS  H17X20671   3.504   3.636   4.183  0.4088  1.2543 -1.6838
  180SAPS  H17Y20672   3.340   3.579   4.164  1.6392  0.5524 -3.9702
  180SAPS  C31820673   3.362   3.710   4.336  0.1197  0.5448  0.5439
  180SAPS  H18X20674   3.369   3.624   4.407 -2.3011  0.8725  1.2865
  180SAPS  H18Y20675   3.261   3.755   4.344 -0.4187 -0.2510 -1.3377
  180SAPS  H18Z20676   3.433   3.783   4.379  1.1281 -0.1353  0.0659
  181POPC     N20677   4.022   2.252   6.716 -0.5349  0.1341  0.6484
  181POPC   C1220678   4.130   2.254   6.609  0.0468 -0.8059 -0.9364
  181POPC  H12A20679   4.229   2.264   6.652  1.1013 -0.5786 -3.2319
  181POPC  H12B20680   4.131   2.350   6.560  1.9122 -0.7153 -0.7750
  181POPC   C1320681   3.896   2.279   6.650 -0.1278  0.0315  0.3471
  181POPC  H13A20682   3.883   2.216   6.564 -1.4057 -1.5022  1.5871
  181POPC  H13B20683   3.816   2.255   6.718 -2.0974  1.9759 -1.1376
  181POPC  H13C20684   3.886   2.378   6.608 -0.5684 -0.9626 -1.9958
  181POPC   C1420685   4.001   2.124   6.788 -0.9006  0.2117  0.2705
  181POPC  H14A20686   3.990   2.048   6.712  0.5874 -0.2341  0.4663
  181POPC  H14B20687   4.083   2.086   6.847  0.7165  1.7414 -0.8720
  181POPC  H14C20688   3.906   2.115   6.839 -0.2415 -3.2696  1.1225
  181POPC   C1520689   4.048   2.372   6.802  0.0879  0.1746  0.1334
  181POPC  H15A20690   3.979   2.371   6.884 -0.9022  0.4159 -0.6748
  181POPC  H15B20691   4.033   2.463   6.745 -0.2350 -1.3629 -2.3664
  181POPC  H15C20692   4.149   2.371   6.842 -0.0805 -1.4368  0.5851
  181POPC   C1120693   4.115   2.136   6.516  0.3521 -0.6357  0.6568
  181POPC  H11A20694   4.163   2.143   6.416  1.0771  1.3326  1.0966
  181POPC  H11B20695   4.007   2.114   6.498  0.5646 -2.1575  1.0940
  181POPC     P20696   4.316   1.981   6.594  0.6789  0.0869  0.2074
  181POPC   O1320697   4.318   1.848   6.654 -0.0417 -0.5301  0.0410
  181POPC   O1420698   4.393   2.086   6.665  0.3054  0.2803 -0.0271
  181POPC   O1220699   4.166   2.021   6.577 -0.2234 -0.0773 -0.3475
  181POPC   O1120700   4.362   1.973   6.442 -0.5249  0.2359  0.5501
  181POPC    C120701   4.393   1.842   6.391 -0.1135 -0.1066  0.4738
  181POPC    HA20702   4.305   1.782   6.361  1.0149 -1.6238  0.0899
  181POPC    HB20703   4.455   1.774   6.454 -0.2763 -0.8755 -0.1915
  181POPC    C220704   4.465   1.851   6.254 -0.1025  0.0716 -0.1434
  181POPC    HS20705   4.560   1.903   6.280 -0.1374 -1.1142  2.6958
  181POPC   O2120706   4.376   1.914   6.163 -0.1781 -0.1510 -0.2563
  181POPC   C2120707   4.389   2.052   6.171 -0.4344  0.2246 -0.1260
  181POPC   O2220708   4.480   2.106   6.224 -0.5052 -0.8399  0.8690
  181POPC   C2220709   4.267   2.126   6.105  0.0477  0.0723 -0.5779
  181POPC   H2R20710   4.284   2.235   6.105  2.1388 -0.1885  0.7825
  181POPC   H2S20711   4.182   2.109   6.176  1.3346  1.3454  1.3482
  181POPC    C320712   4.516   1.710   6.203  0.7322  1.1570 -0.0344
  181POPC    HX20713   4.591   1.687   6.282  0.4538  0.3992  0.0108
  181POPC    HY20714   4.571   1.723   6.107 -1.7559  2.1890 -1.4243
  181POPC   O3120715   4.411   1.609   6.199  0.1554  0.0891 -0.5031
  181POPC   C3120716   4.452   1.487   6.168 -0.4295  0.2009  0.5619
  181POPC   O3220717   4.575   1.465   6.140  0.7178 -0.4288 -0.6136
  181POPC   C3220718   4.350   1.387   6.193  0.4628  0.3280 -0.1273
  181POPC   H2X20719   4.253   1.425   6.231 -0.9253 -3.2945  0.3574
  181POPC   H2Y20720   4.395   1.320   6.270  0.1413 -1.1495 -1.1757
  181POPC   C2320721   4.227   2.071   5.966 -0.0824 -0.1003 -0.3792
  181POPC   H3R20722   4.150   2.141   5.929 -1.6164 -1.1442  0.6744
  181POPC   H3S20723   4.176   1.972   5.970 -2.0029  0.8775  0.8616
  181POPC   C2420724   4.340   2.054   5.867  0.2661 -0.7313  0.5261
  181POPC   H4R20725   4.403   1.974   5.913  1.5249  0.6078  1.1945
  181POPC   H4S20726   4.399   2.142   5.834  1.0915 -1.8140 -1.0155
  181POPC   C2520727   4.298   1.990   5.733  0.3605 -0.2647 -0.3198
  181POPC   H5R20728   4.224   1.909   5.748 -1.2940  1.2315 -0.0044
  181POPC   H5S20729   4.393   1.954   5.689  1.4723  0.2984  1.4921
  181POPC   C2620730   4.242   2.106   5.642 -0.0560  0.1959 -0.0203
  181POPC   H6R20731   4.301   2.200   5.653 -0.8123  0.7648 -0.7448
  181POPC   H6S20732   4.136   2.136   5.658 -0.7324 -1.9515 -0.1747
  181POPC   C2720733   4.256   2.064   5.500  0.5657 -0.3386 -0.0063
  181POPC   H7R20734   4.220   1.959   5.509  3.0514 -1.1148  2.0180
  181POPC   H7S20735   4.366   2.062   5.481  0.7377  0.0142  0.8962
  181POPC   C2820736   4.184   2.141   5.381 -0.1503  0.3003 -1.0218
  181POPC   H8R20737   4.208   2.087   5.288 -0.5323 -1.3190 -0.2074
  181POPC   H8S20738   4.235   2.240   5.379 -1.2748  0.8856 -1.7244
  181POPC   C2920739   4.037   2.158   5.399 -0.1413  0.5443 -0.0638
  181POPC   H9120740   4.005   2.196   5.497 -2.6941  0.6162 -0.8387
  181POPC  C21020741   3.943   2.097   5.327 -0.1185 -1.3147 -0.3404
  181POPC  H10120742   3.841   2.138   5.337  1.1890  2.8073 -1.7854
  181POPC  C21120743   3.967   2.018   5.197  0.0576 -0.4639 -0.6933
  181POPC  H11R20744   3.898   1.934   5.173 -1.1528  0.8894 -2.3041
  181POPC  H11S20745   4.068   1.973   5.206  0.9809  1.2868 -1.6792
  181POPC  C21220746   3.970   2.100   5.069 -0.1915 -0.3438 -0.4206
  181POPC  H12R20747   4.052   2.172   5.089  0.6822 -1.3371 -0.3400
  181POPC  H12S20748   3.874   2.152   5.051 -1.4643 -2.5375 -0.2432
  181POPC  C21320749   4.006   2.024   4.943  0.0198 -0.0329  0.1193
  181POPC  H13R20750   3.947   1.930   4.950  0.9812 -0.5800  1.0726
  181POPC  H13S20751   4.114   2.001   4.946  0.0408  0.1735  2.3085
  181POPC  C21420752   3.980   2.087   4.806 -0.1418  0.6906 -0.2551
  181POPC  H14R20753   3.978   2.012   4.723 -1.2297  1.5491 -1.0387
  181POPC  H14S20754   4.059   2.160   4.779 -1.9659  1.6928 -3.3775
  181POPC  C21520755   3.843   2.158   4.793 -0.0645 -0.0052 -0.4995
  181POPC  H15R20756   3.851   2.251   4.853 -0.7073 -0.4070  0.2159
  181POPC  H15S20757   3.769   2.084   4.830  0.5500 -1.7353 -2.5194
  181POPC  C21620758   3.807   2.207   4.642 -0.2536  0.3581 -0.5498
  181POPC  H16R20759   3.778   2.118   4.582 -2.1433  0.8303 -0.4011
  181POPC  H16S20760   3.898   2.252   4.597  0.0178  1.4151  0.9601
  181POPC  C21720761   3.710   2.330   4.625  0.1161 -0.2511  0.2316
  181POPC  H17R20762   3.757   2.411   4.685  0.5964 -1.0807  1.0142
  181POPC  H17S20763   3.611   2.315   4.673 -1.4118  0.7174 -2.4402
  181POPC  C21820764   3.670   2.364   4.482 -0.7986 -0.1466  0.6641
  181POPC  H18R20765   3.763   2.401   4.434  0.0093 -1.3536  1.2478
  181POPC  H18S20766   3.591   2.442   4.475 -1.1013 -0.3840  1.3038
  181POPC  H18T20767   3.638   2.271   4.430  1.3829 -1.0733  0.8742
  181POPC   C3320768   4.301   1.301   6.077  0.5289 -0.4784 -0.4301
  181POPC   H3X20769   4.247   1.358   5.998  1.9474  1.6594  0.0602
  181POPC   H3Y20770   4.230   1.231   6.126 -1.6350  0.7143 -1.6757
  181POPC   C3420771   4.410   1.211   6.008  0.0911  0.1713 -0.0609
  181POPC   H4X20772   4.443   1.133   6.079  0.5420  2.6355  2.6626
  181POPC   H4Y20773   4.494   1.280   5.984  1.6151 -1.3276  0.7558
  181POPC   C3520774   4.364   1.147   5.885  0.3980 -0.3686  0.5895
  181POPC   H5X20775   4.286   1.068   5.900 -0.4542  0.2063 -0.6241
  181POPC   H5Y20776   4.446   1.088   5.840 -1.0725 -1.9313 -0.1734
  181POPC   C3620777   4.326   1.237   5.766  0.3258 -1.3824  0.4947
  181POPC   H6X20778   4.413   1.301   5.742  0.4537 -2.0454 -0.8560
  181POPC   H6Y20779   4.245   1.308   5.793  0.5897 -1.1603  0.7051
  181POPC   C3720780   4.288   1.161   5.637  0.8024  0.1820 -0.3743
  181POPC   H7X20781   4.200   1.095   5.652 -0.6133  1.2910 -2.9952
  181POPC   H7Y20782   4.375   1.096   5.614  2.1170  1.8458 -0.2999
  181POPC   C3820783   4.235   1.252   5.526  0.0339 -0.1571  0.1016
  181POPC   H8X20784   4.317   1.315   5.486 -2.2028  2.3771 -0.7905
  181POPC   H8Y20785   4.147   1.313   5.553  0.1595 -0.1096  0.4085
  181POPC   C3920786   4.196   1.168   5.405  0.5806 -0.4503 -0.3574
  181POPC   H9X20787   4.107   1.106   5.427 -0.5568  1.2461 -0.0299
  181POPC   H9Y20788   4.273   1.096   5.368 -0.0547 -0.4298 -1.7795
  181POPC  C31020789   4.162   1.264   5.290 -0.4748  0.5233  0.4757
  181POPC  H10X20790   4.239   1.343   5.292  0.2889 -0.1196 -1.2027
  181POPC  H10Y20791   4.063   1.308   5.314  0.0532  2.2882 -0.4629
  181POPC  C31120792   4.161   1.196   5.146  0.3054 -0.2742 -0.4955
  181POPC  H11X20793   4.094   1.108   5.162 -3.3918  2.4801  0.4702
  181POPC  H11Y20794   4.265   1.158   5.142  0.4055 -0.5803  2.7058
  181POPC  C31220795   4.119   1.287   5.028 -0.6618  0.3508 -0.0685
  181POPC  H12X20796   4.183   1.378   5.015 -0.5608  0.2943  0.0294
  181POPC  H12Y20797   4.018   1.326   5.054  0.1301  2.4820  0.0570
  181POPC  C31320798   4.108   1.209   4.900  0.8817  0.7741  0.2228
  181POPC  H13X20799   4.052   1.117   4.926  0.9262  0.9637  0.9998
  181POPC  H13Y20800   4.209   1.172   4.870  1.7151  1.0371  2.5138
  181POPC  C31420801   4.037   1.289   4.788 -0.3376  0.3239  0.3460
  181POPC  H14X20802   4.058   1.397   4.800 -1.9804  0.6036  0.9930
  181POPC  H14Y20803   3.928   1.270   4.791 -0.1362 -2.0453 -2.5419
  181POPC  C31520804   4.068   1.245   4.639  0.4627 -0.3139 -0.6989
  181POPC  H15X20805   4.033   1.140   4.627  0.2015 -0.1107 -1.7484
  181POPC  H15Y20806   4.176   1.222   4.625 -0.1782 -2.2397 -3.1951
  181POPC  C31620807   4.012   1.338   4.535  0.1240  0.6742 -0.3664
  181POPC  H16X20808   4.035   1.447   4.539  1.2625  0.4777 -1.0681
  181POPC  H16Y20809   3.901   1.336   4.546  0.3094  0.3004  1.8343
  181POPC  H16Z20810   4.036   1.305   4.431 -1.0739 -2.5494  0.2597
  182POPC     N20811   1.614   3.840   6.338 -0.4085 -0.0705 -1.0202
  182POPC   C1220812   1.626   3.900   6.203 -0.3246  0.2142 -0.0583
  182POPC  H12A20813   1.731   3.902   6.178 -0.4987 -0.1841 -0.8337
  182POPC  H12B20814   1.604   4.006   6.205 -1.4846 -0.0183  0.7861
  182POPC   C1320815   1.666   3.936   6.445 -0.4591 -0.2051 -0.2243
  182POPC  H13A20816   1.678   3.886   6.540 -3.4861  2.4764  1.7787
  182POPC  H13B20817   1.755   3.988   6.412  0.6547 -2.4099 -0.9404
  182POPC  H13C20818   1.582   4.003   6.458 -0.3160 -0.2047  0.7877
  182POPC   C1420819   1.470   3.823   6.380 -0.7569  0.4524 -0.3413
  182POPC  H14A20820   1.475   3.798   6.485  1.4553  2.6582  0.1585
  182POPC  H14B20821   1.421   3.918   6.366  1.5142  1.6594 -0.5830
  182POPC  H14C20822   1.436   3.745   6.313  0.8969 -0.8208  0.2071
  182POPC   C1520823   1.679   3.708   6.356 -0.7729  0.2093  0.0203
  182POPC  H15A20824   1.642   3.657   6.443 -1.0622 -1.0993 -0.8446
  182POPC  H15B20825   1.785   3.717   6.375 -0.8444  2.4447 -0.3340
  182POPC  H15C20826   1.653   3.638   6.278 -1.5130  0.5920 -0.0842
  182POPC   C1120827   1.551   3.831   6.084  0.2439 -0.2096 -0.5983
  182POPC  H11A20828   1.587   3.888   5.996 -1.2696  1.4396 -0.2079
  182POPC  H11B20829   1.440   3.838   6.094  0.0644 -1.9296 -0.9357
  182POPC     P20830   1.682   3.624   5.999 -0.0843  0.2353  0.2912
  182POPC   O1320831   1.695   3.483   6.048 -0.0160  0.3565 -0.1892
  182POPC   O1420832   1.808   3.702   5.994  0.1857  0.1025  0.1923
  182POPC   O1220833   1.574   3.693   6.087 -0.0233 -0.0764  0.5027
  182POPC   O1120834   1.617   3.622   5.852  0.2467  0.5920  0.1163
  182POPC    C120835   1.491   3.551   5.851  0.6679 -0.0139  0.1267
  182POPC    HA20836   1.425   3.600   5.776 -0.0691  1.8294  1.9041
  182POPC    HB20837   1.432   3.529   5.942 -2.1951 -0.7865 -1.7977
  182POPC    C220838   1.517   3.411   5.789 -0.0869 -0.6067 -0.3395
  182POPC    HS20839   1.587   3.358   5.856  0.9872  2.2382  0.9497
  182POPC   O2120840   1.584   3.426   5.656  0.2320 -0.1529 -0.3916
  182POPC   C2120841   1.636   3.311   5.610  0.8481 -0.8811  0.7618
  182POPC   O2220842   1.639   3.202   5.665  0.0461  0.0887  0.2313
  182POPC   C2220843   1.682   3.339   5.467 -0.6667 -0.1207  0.2500
  182POPC   H2R20844   1.791   3.363   5.469 -0.9965  1.4783  0.0181
  182POPC   H2S20845   1.631   3.431   5.433  1.0820  1.0234  0.5638
  182POPC    C320846   1.383   3.330   5.779 -0.0580  0.0844  0.2372
  182POPC    HX20847   1.349   3.305   5.882 -3.8551 -1.9968 -1.3251
  182POPC    HY20848   1.411   3.236   5.728  0.1760  0.4273 -0.2785
  182POPC   O3120849   1.279   3.411   5.717 -0.0735 -0.1569  0.8069
  182POPC   C3120850   1.269   3.398   5.585 -0.1061  0.5712  0.1720
  182POPC   O3220851   1.338   3.323   5.513 -0.2401  0.5855 -0.4289
  182POPC   C3220852   1.158   3.488   5.537  0.4316 -0.1081 -0.1248
  182POPC   H2X20853   1.173   3.597   5.554 -2.2314 -0.0165  2.4843
  182POPC   H2Y20854   1.072   3.454   5.598  1.3574 -2.6243 -0.1153
  182POPC   C2320855   1.650   3.215   5.380  0.1433 -0.4824 -0.4203
  182POPC   H3R20856   1.547   3.180   5.405 -0.0172  0.5003  0.3172
  182POPC   H3S20857   1.707   3.125   5.412 -0.9920 -1.3559 -0.7780
  182POPC   C2420858   1.640   3.254   5.227  0.0812  0.1024  0.0868
  182POPC   H4R20859   1.577   3.346   5.222 -0.3692 -0.1597  0.8783
  182POPC   H4S20860   1.585   3.178   5.168  0.4882  0.3562 -0.6307
  182POPC   C2520861   1.781   3.269   5.155  0.8189  0.0590  0.5390
  182POPC   H5R20862   1.837   3.174   5.169 -0.4842 -0.6714  1.0053
  182POPC   H5S20863   1.838   3.356   5.194 -0.9909  1.4947  0.1545
  182POPC   C2620864   1.774   3.308   5.005 -0.6021  0.6644 -0.2084
  182POPC   H6R20865   1.743   3.414   5.009 -1.4931  0.4204 -0.3746
  182POPC   H6S20866   1.699   3.239   4.960  0.9612 -2.8562  2.1507
  182POPC   C2720867   1.905   3.308   4.932  0.5502 -0.0444 -0.1950
  182POPC   H7R20868   1.950   3.207   4.919  1.7203  0.4848 -0.3625
  182POPC   H7S20869   1.977   3.364   4.995  0.0396  1.1992 -0.6894
  182POPC   C2820870   1.876   3.375   4.796  0.5192  0.1765  0.7177
  182POPC   H8R20871   1.979   3.408   4.773  0.5868 -1.5145 -1.7964
  182POPC   H8S20872   1.806   3.460   4.803 -2.2361 -1.6556 -1.9490
  182POPC   C2920873   1.812   3.281   4.689 -0.2480 -0.5399 -0.0722
  182POPC   H9120874   1.725   3.229   4.731  0.8391  0.6854  4.2666
  182POPC  C21020875   1.853   3.268   4.557 -0.4743 -0.1633 -0.3789
  182POPC  H10120876   1.781   3.213   4.495 -1.8075  0.5832  0.4489
  182POPC  C21120877   1.981   3.323   4.498  0.0391 -0.9561 -0.2325
  182POPC  H11R20878   2.030   3.254   4.426  0.0722 -0.9120 -0.2525
  182POPC  H11S20879   2.063   3.347   4.569 -0.7888  1.9836 -0.1447
  182POPC  C21220880   1.947   3.467   4.437  0.4431 -0.0991 -0.3561
  182POPC  H12R20881   1.898   3.535   4.509  1.1800  1.3915 -1.2211
  182POPC  H12S20882   1.880   3.460   4.348 -0.5458 -0.2127  0.3807
  182POPC  C21320883   2.077   3.540   4.392 -0.6779  0.5465 -0.2506
  182POPC  H13R20884   2.148   3.463   4.354 -0.4418  0.1728  0.8936
  182POPC  H13S20885   2.125   3.594   4.476  1.5578 -0.7974 -0.5616
  182POPC  C21420886   2.059   3.632   4.274 -0.6471 -0.4959  0.2010
  182POPC  H14R20887   1.995   3.714   4.314  2.0216  0.8402  2.0825
  182POPC  H14S20888   2.015   3.584   4.184 -1.0345  0.0936  0.0640
  182POPC  C21520889   2.190   3.682   4.211  0.8885  0.4433  0.3420
  182POPC  H15R20890   2.254   3.595   4.187  0.8579  0.4995  0.0605
  182POPC  H15S20891   2.252   3.747   4.277  0.3237 -0.9544  2.3602
  182POPC  C21620892   2.153   3.751   4.081 -0.2543 -0.4757 -0.7371
  182POPC  H16R20893   2.076   3.830   4.091  0.2796 -0.0578  0.2474
  182POPC  H16S20894   2.124   3.673   4.008  1.7370 -1.4849 -0.5098
  182POPC  C21720895   2.277   3.828   4.031 -0.0827 -0.9665 -0.1963
  182POPC  H17R20896   2.364   3.760   4.022  0.3813 -0.2788 -1.0629
  182POPC  H17S20897   2.301   3.908   4.105 -3.3313  1.2568 -1.3035
  182POPC  C21820898   2.269   3.905   3.897  0.4754 -0.2217 -0.2111
  182POPC  H18R20899   2.277   3.839   3.809 -0.9644  1.1756 -1.4327
  182POPC  H18S20900   2.343   3.988   3.890  1.3256 -1.0135 -0.9384
  182POPC  H18T20901   2.172   3.958   3.890  1.2725  1.1348 -1.8063
  182POPC   C3320902   1.113   3.466   5.394 -0.5576 -0.2391  0.1728
  182POPC   H3X20903   1.002   3.467   5.391 -0.6315 -1.7503  1.1760
  182POPC   H3Y20904   1.149   3.365   5.365  0.3245  0.7860 -2.5593
  182POPC   C3420905   1.171   3.569   5.284 -0.7654  0.2208  0.0754
  182POPC   H4X20906   1.117   3.665   5.300 -1.8144 -0.5231  1.1397
  182POPC   H4Y20907   1.161   3.518   5.185  2.8347  1.5741 -1.1440
  182POPC   C3520908   1.321   3.596   5.282  0.3232 -0.3939  0.6209
  182POPC   H5X20909   1.374   3.501   5.305  1.6931  0.3017  0.4357
  182POPC   H5Y20910   1.339   3.676   5.357 -1.2208  0.0871  0.5207
  182POPC   C3620911   1.367   3.658   5.143  1.0449  0.7224 -0.4282
  182POPC   H6X20912   1.316   3.756   5.136  2.0305  1.1938 -1.3104
  182POPC   H6Y20913   1.342   3.582   5.066 -1.5457 -0.2559  1.2789
  182POPC   C3720914   1.510   3.688   5.131  0.1033 -0.2217  0.3687
  182POPC   H7X20915   1.567   3.612   5.189  4.2037 -0.8150 -3.8587
  182POPC   H7Y20916   1.535   3.783   5.182  0.4473 -0.0483 -0.1247
  182POPC   C3820917   1.539   3.699   4.978  0.1243  0.3329  0.2578
  182POPC   H8X20918   1.461   3.766   4.936  0.2902 -0.3899 -1.2522
  182POPC   H8Y20919   1.519   3.600   4.932 -0.7661  0.9294 -0.6743
  182POPC   C3920920   1.679   3.743   4.945  0.1176  0.2238 -0.4013
  182POPC   H9X20921   1.752   3.667   4.981 -0.6634 -1.0314 -1.3813
  182POPC   H9Y20922   1.721   3.834   4.992  0.9930  0.7263 -2.0490
  182POPC  C31020923   1.688   3.779   4.800  0.1692  0.0966  0.0799
  182POPC  H10X20924   1.625   3.869   4.783  2.0568  1.4118 -0.3222
  182POPC  H10Y20925   1.653   3.699   4.732  0.5090 -1.6619  1.8924
  182POPC  C31120926   1.829   3.823   4.761 -0.4455  0.5579  0.0651
  182POPC  H11X20927   1.900   3.737   4.759  0.7570  1.5046  0.5284
  182POPC  H11Y20928   1.859   3.901   4.835  0.3306 -0.8456  1.2948
  182POPC  C31220929   1.823   3.902   4.623  0.0517  0.5475 -0.0844
  182POPC  H12X20930   1.924   3.946   4.613  0.8785 -1.6157 -1.8295
  182POPC  H12Y20931   1.737   3.972   4.637 -1.0978 -1.1334  1.9284
  182POPC  C31320932   1.770   3.818   4.509  0.0454 -0.2703  0.2048
  182POPC  H13X20933   1.675   3.766   4.533 -0.2604  1.1921  2.4509
  182POPC  H13Y20934   1.843   3.740   4.480 -1.4667 -1.6224 -0.0767
  182POPC  C31420935   1.759   3.902   4.380  0.4259  0.5047 -0.0839
  182POPC  H14X20936   1.844   3.966   4.349  0.0659 -0.2205 -2.7588
  182POPC  H14Y20937   1.686   3.976   4.419  0.7784  0.2509  1.0997
  182POPC  C31520938   1.704   3.824   4.255  0.1431  0.0719  0.4337
  182POPC  H15X20939   1.790   3.781   4.202  0.2283  1.9335 -1.0388
  182POPC  H15Y20940   1.645   3.887   4.185 -2.6235 -2.7430 -0.0328
  182POPC  C31620941   1.606   3.697   4.278  0.1128  0.4844 -0.4388
  182POPC  H16X20942   1.519   3.713   4.344  1.2512 -0.2376  1.3193
  182POPC  H16Y20943   1.666   3.619   4.331  0.9301  1.7272  0.5062
  182POPC  H16Z20944   1.589   3.651   4.178  1.6528  2.8580 -1.8857
  183POPC     N20945   4.715   2.471   6.728 -0.2603  0.1471 -0.1942
  183POPC   C1220946   4.613   2.430   6.620  1.1034  0.3967 -0.4381
  183POPC  H12A20947   4.540   2.381   6.683  1.2187  0.5470 -0.1897
  183POPC  H12B20948   4.658   2.354   6.558  0.1999  0.4797 -1.2234
  183POPC   C1320949   4.648   2.566   6.822 -0.1777 -0.8514 -0.0759
  183POPC  H13A20950   4.615   2.651   6.764 -1.3844 -1.2894 -0.0615
  183POPC  H13B20951   4.558   2.525   6.866 -1.0115  0.1228 -0.8190
  183POPC  H13C20952   4.711   2.603   6.901 -1.1638  2.4669 -0.6980
  183POPC   C1420953   4.759   2.352   6.817 -0.3712  0.1790  0.5205
  183POPC  H14A20954   4.677   2.286   6.842 -0.6515 -0.3798 -1.6580
  183POPC  H14B20955   4.838   2.300   6.765  1.0834  2.5108  0.2925
  183POPC  H14C20956   4.816   2.375   6.905  1.1312  4.1351 -1.2405
  183POPC   C1520957   4.840   2.529   6.667  0.3243  0.1339 -0.1116
  183POPC  H15A20958   4.927   2.493   6.721  1.8929  1.3291 -1.6962
  183POPC  H15B20959   4.837   2.636   6.654  0.3133  0.0748 -0.6402
  183POPC  H15C20960   4.849   2.490   6.567 -1.4721 -1.9371  0.4630
  183POPC   C1120961   4.538   2.537   6.540 -1.0570 -0.4463  0.4587
  183POPC  H11A20962   4.476   2.502   6.454 -2.0675  2.8008 -0.2547
  183POPC  H11B20963   4.626   2.587   6.495 -0.6743  0.4491  2.1267
  183POPC     P20964   4.327   2.584   6.691 -0.2409 -0.0128 -0.1002
  183POPC   O1320965   4.252   2.690   6.770 -0.2948  0.1534  0.0447
  183POPC   O1420966   4.356   2.466   6.772 -0.6628 -0.0158 -0.1489
  183POPC   O1220967   4.461   2.628   6.613  0.4068  0.3686  0.0869
  183POPC   O1120968   4.238   2.541   6.562 -0.3233 -0.0787  0.3047
  183POPC    C120969   4.146   2.627   6.499  0.7465 -0.0206  0.0097
  183POPC    HA20970   4.190   2.727   6.515 -1.2986  0.4887  3.2170
  183POPC    HB20971   4.046   2.634   6.548  1.6005  0.3679  1.7603
  183POPC    C220972   4.122   2.588   6.354 -1.2659 -0.5523  0.1711
  183POPC    HS20973   4.072   2.676   6.308  1.2132  0.4703 -0.7101
  183POPC   O2120974   4.046   2.471   6.345 -0.5489  0.1417  0.0952
  183POPC   C2120975   3.926   2.491   6.297  0.6357 -0.1741 -0.8327
  183POPC   O2220976   3.872   2.597   6.274 -0.1874 -0.1646  0.5727
  183POPC   C2220977   3.864   2.358   6.274  0.0649  1.2042 -0.2946
  183POPC   H2R20978   3.754   2.368   6.281 -0.2763 -2.0501  0.6242
  183POPC   H2S20979   3.896   2.288   6.354  0.8746  4.1789  2.1966
  183POPC    C320980   4.258   2.564   6.278 -1.1011 -0.3356 -0.6306
  183POPC    HX20981   4.303   2.487   6.345 -0.0232  1.5486  0.9242
  183POPC    HY20982   4.323   2.654   6.291 -3.1700  0.8713  2.4759
  183POPC   O3120983   4.237   2.523   6.141  0.3664 -0.5442 -0.2542
  183POPC   C3120984   4.245   2.616   6.050  0.0304  0.0752 -0.4216
  183POPC   O3220985   4.255   2.736   6.063  0.6813  0.8347  0.0335
  183POPC   C3220986   4.244   2.545   5.913 -0.2472  0.3057 -0.0850
  183POPC   H2X20987   4.205   2.443   5.935  1.0928 -0.1844  0.1147
  183POPC   H2Y20988   4.351   2.534   5.886 -0.6914  0.0719 -1.8393
  183POPC   C2320989   3.897   2.307   6.129  0.3202 -0.1653 -0.6663
  183POPC   H3R20990   3.887   2.197   6.126  0.5062 -0.2366  0.6305
  183POPC   H3S20991   4.001   2.331   6.097  0.0927 -0.2730 -1.5272
  183POPC   C2420992   3.815   2.381   6.016  0.1524 -0.2694  0.7306
  183POPC   H4R20993   3.848   2.487   6.006  0.4775 -0.2627  1.7430
  183POPC   H4S20994   3.706   2.390   6.034  0.3591  0.5630  1.6759
  183POPC   C2520995   3.822   2.305   5.882  0.4096 -0.0711 -0.5299
  183POPC   H5R20996   3.763   2.213   5.901 -0.2551  0.2228 -1.1183
  183POPC   H5S20997   3.925   2.271   5.858  0.5271  0.6801 -1.1111
  183POPC   C2620998   3.747   2.376   5.773 -0.3423 -0.6057  0.2495
  183POPC   H6R20999   3.720   2.480   5.801  0.0619 -0.9101  1.8486
  183POPC   H6S21000   3.646   2.331   5.766 -0.0821 -1.4007  1.2960
  183POPC   C2721001   3.813   2.361   5.643  0.5762 -0.5231 -0.0490
  183POPC   H7R21002   3.828   2.254   5.620 -0.8914 -0.7299 -0.1106
  183POPC   H7S21003   3.916   2.404   5.642  2.3459 -4.3189  1.2419
  183POPC   C2821004   3.730   2.434   5.534 -0.2706 -0.0036  0.0014
  183POPC   H8R21005   3.802   2.449   5.451  2.7148 -1.2494  2.1654
  183POPC   H8S21006   3.705   2.538   5.564 -0.8397  0.0350 -0.5753
  183POPC   C2921007   3.601   2.368   5.496 -0.1092  0.0241 -0.2371
  183POPC   H9121008   3.572   2.283   5.559  2.3972 -0.3350  0.5654
  183POPC  C21021009   3.528   2.419   5.393 -0.3085 -0.2624  0.0740
  183POPC  H10121010   3.435   2.365   5.367 -1.2702  1.0340  0.7035
  183POPC  C21121011   3.566   2.527   5.299  0.1079 -0.6581  0.5225
  183POPC  H11R21012   3.663   2.574   5.326 -0.9707  1.9004  0.2346
  183POPC  H11S21013   3.500   2.616   5.300 -0.1085 -0.7650 -1.3823
  183POPC  C21221014   3.570   2.479   5.153  0.5688  0.2387  0.7034
  183POPC  H12R21015   3.472   2.430   5.134  1.3379 -2.3762  2.8602
  183POPC  H12S21016   3.650   2.408   5.125  1.3092  1.5920 -0.8159
  183POPC  C21321017   3.584   2.597   5.055 -0.2077  0.2935 -0.2798
  183POPC  H13R21018   3.685   2.637   5.082  0.5832 -2.6644  1.5761
  183POPC  H13S21019   3.504   2.674   5.062 -0.8871  0.1793 -4.5839
  183POPC  C21421020   3.570   2.561   4.910  0.4157  0.7060  0.0818
  183POPC  H14R21021   3.475   2.504   4.904  1.9621 -1.9931 -0.7723
  183POPC  H14S21022   3.653   2.489   4.890  0.6880  0.2436  2.5558
  183POPC  C21521023   3.575   2.679   4.811 -0.3412 -0.3261 -0.5772
  183POPC  H15R21024   3.682   2.709   4.810  0.1625 -1.6100  2.3979
  183POPC  H15S21025   3.518   2.761   4.860 -0.1493  0.2590 -1.3183
  183POPC  C21621026   3.531   2.664   4.666  0.1090  0.3125 -0.2372
  183POPC  H16R21027   3.420   2.658   4.657  0.1639  1.2117 -1.9979
  183POPC  H16S21028   3.571   2.570   4.622 -0.6800 -0.4233  0.5631
  183POPC  C21721029   3.583   2.776   4.575 -0.1519 -0.0329 -0.8962
  183POPC  H17R21030   3.693   2.777   4.560 -0.0166  0.3308  0.0649
  183POPC  H17S21031   3.555   2.871   4.625  1.0544 -0.0324 -0.1966
  183POPC  C21821032   3.509   2.788   4.439 -0.0198 -0.8691 -0.4465
  183POPC  H18R21033   3.527   2.697   4.377  0.9904 -1.4332  0.6337
  183POPC  H18S21034   3.554   2.874   4.386  0.0493 -0.0328  0.9233
  183POPC  H18T21035   3.401   2.806   4.457  0.4359  0.6794  0.9608
  183POPC   C3321036   4.159   2.600   5.797 -0.5751  0.3672 -0.0900
  183POPC   H3X21037   4.167   2.711   5.788 -2.1272  0.4275 -1.1378
  183POPC   H3Y21038   4.053   2.573   5.811 -0.1524 -1.9194 -0.8493
  183POPC   C3421039   4.198   2.537   5.662 -0.0955  0.3109  0.7299
  183POPC   H4X21040   4.197   2.426   5.663 -2.0192  0.2196  4.0122
  183POPC   H4Y21041   4.307   2.560   5.651 -0.1878  0.8171  0.8390
  183POPC   C3521042   4.118   2.604   5.550  0.1881  0.1162 -0.9982
  183POPC   H5X21043   4.133   2.714   5.547  0.7316  0.2531  2.6458
  183POPC   H5Y21044   4.012   2.597   5.581  0.3460  0.3804 -0.3730
  183POPC   C3621045   4.113   2.519   5.419 -0.3820 -0.3605 -0.2677
  183POPC   H6X21046   4.039   2.438   5.432 -1.6580  0.8910  0.5236
  183POPC   H6Y21047   4.211   2.475   5.388  0.3111 -0.8669  2.3808
  183POPC   C3721048   4.057   2.595   5.295 -0.0023 -0.1729 -0.5039
  183POPC   H7X21049   4.107   2.692   5.277 -0.1066  0.4345  2.1774
  183POPC   H7Y21050   3.951   2.617   5.322  0.4820  0.5167  0.8712
  183POPC   C3821051   4.062   2.502   5.173 -0.1244  0.0536 -0.3995
  183POPC   H8X21052   4.004   2.408   5.184 -2.0321  1.1120 -0.8685
  183POPC   H8Y21053   4.166   2.472   5.149  1.1628  3.3765  0.5013
  183POPC   C3921054   4.013   2.580   5.054 -0.2911 -0.0696 -0.2640
  183POPC   H9X21055   4.078   2.670   5.052 -0.4423  0.0437 -0.0270
  183POPC   H9Y21056   3.910   2.610   5.080 -0.2240 -1.0563  1.2140
  183POPC  C31021057   4.019   2.489   4.930 -0.2481  0.6280 -0.3272
  183POPC  H10X21058   3.945   2.407   4.940  2.0242 -1.4638  0.3916
  183POPC  H10Y21059   4.123   2.448   4.933 -0.5237 -0.1954 -1.3928
  183POPC  C31121060   3.983   2.546   4.791 -0.6045 -0.3208  0.2486
  183POPC  H11X21061   3.885   2.596   4.807 -0.5311 -0.6147  1.8131
  183POPC  H11Y21062   3.979   2.471   4.709  0.4470  2.3955 -2.4305
  183POPC  C31221063   4.072   2.654   4.735  0.6074  1.1811  0.8025
  183POPC  H12X21064   4.172   2.635   4.781  0.2547 -0.6647  0.8762
  183POPC  H12Y21065   4.038   2.755   4.767 -0.1423  1.2233 -0.0904
  183POPC  C31321066   4.081   2.644   4.576 -0.1083  0.0693  0.3910
  183POPC  H13X21067   4.121   2.541   4.559  3.2908  1.6282 -2.4038
  183POPC  H13Y21068   4.160   2.716   4.547 -0.3209  0.1631  0.0394
  183POPC  C31421069   3.953   2.682   4.508 -0.1693 -0.6217 -0.4556
  183POPC  H14X21070   3.944   2.793   4.518  2.0892 -0.4154 -0.1189
  183POPC  H14Y21071   3.883   2.627   4.574  0.1286 -0.4601 -0.0006
  183POPC  C31521072   3.952   2.660   4.355  0.0474  0.1976  0.0579
  183POPC  H15X21073   3.996   2.561   4.333  1.3430  0.6335  0.5518
  183POPC  H15Y21074   4.019   2.736   4.308  0.0086  0.1008 -0.1542
  183POPC  C31621075   3.815   2.677   4.293 -0.3040  0.1399 -0.5069
  183POPC  H16X21076   3.742   2.609   4.343 -1.4611  1.1612 -0.7675
  183POPC  H16Y21077   3.828   2.655   4.185  2.5357  0.6832 -0.3706
  183POPC  H16Z21078   3.766   2.775   4.304  1.6578  1.2825 -1.3520
  184POPC     N21079   3.962   6.280   6.952 -0.1763  0.3882  0.1113
  184POPC   C1221080   3.965   6.287   6.801  0.1234  0.4341 -0.6472
  184POPC  H12A21081   4.006   6.196   6.759  1.1607  0.8803 -0.6215
  184POPC  H12B21082   4.037   6.364   6.776 -0.2399  0.8951 -0.3027
  184POPC   C1321083   4.095   6.231   7.009 -0.6554 -0.3407 -0.0820
  184POPC  H13A21084   4.172   6.295   6.969 -1.1832  0.1512 -0.3412
  184POPC  H13B21085   4.093   6.242   7.117  1.1875  1.7375 -0.1851
  184POPC  H13C21086   4.108   6.125   7.000  0.8665 -0.4160  2.1825
  184POPC   C1421087   3.930   6.423   6.989  0.3874  0.4876 -0.5683
  184POPC  H14A21088   3.955   6.458   7.088 -0.6759 -0.9026  0.2212
  184POPC  H14B21089   3.973   6.503   6.930  0.6106 -0.0874 -1.1978
  184POPC  H14C21090   3.824   6.438   6.978  0.1346 -1.1591 -0.5698
  184POPC   C1521091   3.847   6.193   6.997  0.3854 -0.0284 -0.2999
  184POPC  H15A21092   3.859   6.086   6.981  1.7631  0.1030 -0.2401
  184POPC  H15B21093   3.757   6.223   6.946  0.8410  0.5061 -0.7995
  184POPC  H15C21094   3.835   6.207   7.104  2.3171  0.7057 -0.1400
  184POPC   C1121095   3.831   6.311   6.716  0.2803 -0.4970 -0.3430
  184POPC  H11A21096   3.765   6.222   6.722  2.2447 -2.0103 -0.3127
  184POPC  H11B21097   3.872   6.311   6.612 -0.8259  2.5004 -0.8953
  184POPC     P21098   3.786   6.573   6.683 -0.1843  0.0058 -0.2610
  184POPC   O1321099   3.933   6.581   6.650 -0.0963  0.0773  0.0910
  184POPC   O1421100   3.731   6.683   6.768  0.2417 -0.2292 -0.0199
  184POPC   O1221101   3.767   6.432   6.752  0.6705 -0.1664 -0.2868
  184POPC   O1121102   3.691   6.549   6.566 -0.5067  0.0780 -0.4087
  184POPC    C121103   3.550   6.546   6.576  0.3424  0.2065  0.3898
  184POPC    HA21104   3.514   6.602   6.665 -2.5629  0.2699 -0.7177
  184POPC    HB21105   3.513   6.442   6.587 -1.6905  0.7743 -0.5790
  184POPC    C221106   3.490   6.609   6.443  0.1489  0.3580  0.9012
  184POPC    HS21107   3.399   6.660   6.480  0.2729 -0.7866  2.9446
  184POPC   O2121108   3.456   6.509   6.349 -0.4571  0.1844  0.4702
  184POPC   C2121109   3.356   6.538   6.274 -0.3560  0.1037 -0.1339
  184POPC   O2221110   3.281   6.632   6.284  0.1127 -0.3036 -0.1173
  184POPC   C2221111   3.348   6.437   6.160  0.4496 -0.3508 -0.0748
  184POPC   H2R21112   3.287   6.351   6.196 -1.1307 -0.5690 -2.9151
  184POPC   H2S21113   3.458   6.419   6.153  0.9474  0.6177  3.3926
  184POPC    C321114   3.580   6.714   6.370 -0.2932 -0.3595 -0.9362
  184POPC    HX21115   3.641   6.654   6.300 -0.7428 -1.0215 -0.7750
  184POPC    HY21116   3.645   6.756   6.450 -3.2857  1.4760  0.7191
  184POPC   O3121117   3.497   6.817   6.315  0.0908 -0.2153 -0.2938
  184POPC   C3121118   3.541   6.851   6.194  0.3833 -1.0710 -0.5124
  184POPC   O3221119   3.647   6.822   6.144  0.3689  0.0212 -0.0109
  184POPC   C3221120   3.435   6.921   6.117 -0.3231 -0.0209  0.6025
  184POPC   H2X21121   3.472   7.023   6.090  0.7967 -0.4812  0.3393
  184POPC   H2Y21122   3.340   6.926   6.176  2.1320  1.0800  4.8964
  184POPC   C2321123   3.270   6.488   6.034  0.2777 -0.5901  0.0109
  184POPC   H3R21124   3.320   6.581   5.999 -0.4621 -0.2198 -0.0921
  184POPC   H3S21125   3.164   6.508   6.062  0.5456 -0.1297  0.7352
  184POPC   C2421126   3.287   6.395   5.909  0.1032  0.4097 -0.2223
  184POPC   H4R21127   3.223   6.306   5.926  2.9956 -1.5091  1.5151
  184POPC   H4S21128   3.387   6.353   5.888  0.1284  0.2466  0.2033
  184POPC   C2521129   3.243   6.479   5.781 -0.3347 -0.0560  0.2039
  184POPC   H5R21130   3.304   6.571   5.782 -0.8087  0.2747 -0.7339
  184POPC   H5S21131   3.139   6.518   5.775 -0.4405  0.0039  1.8998
  184POPC   C2621132   3.275   6.398   5.649  0.3317 -0.0335 -0.0360
  184POPC   H6R21133   3.206   6.312   5.636  1.3941 -0.9336  0.1419
  184POPC   H6S21134   3.375   6.352   5.665 -0.0332 -1.2253 -1.0403
  184POPC   C2721135   3.272   6.487   5.520  0.1663  0.4759 -0.4253
  184POPC   H7R21136   3.323   6.580   5.554 -1.2273  1.2058 -0.2486
  184POPC   H7S21137   3.169   6.510   5.485 -0.1767 -2.3418 -1.5070
  184POPC   C2821138   3.359   6.440   5.402 -0.0591 -0.4020 -0.4748
  184POPC   H8R21139   3.464   6.435   5.440 -0.4040 -1.3425  0.4020
  184POPC   H8S21140   3.352   6.521   5.326 -0.4867  0.1947  0.1883
  184POPC   C2921141   3.323   6.309   5.346 -0.1645  0.0973  0.4905
  184POPC   H9121142   3.382   6.229   5.393 -2.6909 -1.5024  1.1152
  184POPC  C21021143   3.234   6.283   5.246 -0.4385  0.3672  0.5957
  184POPC  H10121144   3.229   6.179   5.208  1.8541  0.2463  0.4995
  184POPC  C21121145   3.150   6.374   5.159  0.4029 -0.2174 -0.0670
  184POPC  H11R21146   3.091   6.437   5.229  0.7519 -2.2587  2.1971
  184POPC  H11S21147   3.067   6.320   5.109 -1.5802  1.1905  1.5500
  184POPC  C21221148   3.220   6.451   5.050  0.2455  0.1333  1.2209
  184POPC  H12R21149   3.290   6.520   5.101  0.1524  0.2496  1.1936
  184POPC  H12S21150   3.146   6.519   5.002  0.9030  1.1055  1.5738
  184POPC  C21321151   3.293   6.361   4.951  0.3355 -0.0230  1.1087
  184POPC  H13R21152   3.232   6.273   4.921  0.7291 -0.7310  2.3086
  184POPC  H13S21153   3.388   6.314   4.985  1.7940  0.3315 -2.0824
  184POPC  C21421154   3.331   6.424   4.816  0.0693 -0.2649  0.4720
  184POPC  H14R21155   3.239   6.460   4.766  0.4447  1.2073  0.8017
  184POPC  H14S21156   3.368   6.338   4.755  1.4697  0.4084  0.3243
  184POPC  C21521157   3.440   6.538   4.825  0.5826  0.2925 -0.4602
  184POPC  H15R21158   3.539   6.494   4.849  2.0277  3.0779 -0.9063
  184POPC  H15S21159   3.411   6.619   4.895 -1.3438  1.7394 -2.7549
  184POPC  C21621160   3.471   6.599   4.681 -0.0945 -0.6048 -0.4224
  184POPC  H16R21161   3.559   6.667   4.682  0.1815 -0.8742 -2.5823
  184POPC  H16S21162   3.385   6.659   4.645  0.4734 -0.4179 -1.5063
  184POPC  C21721163   3.495   6.494   4.566 -0.0113  0.0875  0.0777
  184POPC  H17R21164   3.398   6.444   4.546 -1.2035  1.8646  1.0567
  184POPC  H17S21165   3.547   6.404   4.606  1.8919  0.8556 -0.5705
  184POPC  C21821166   3.574   6.537   4.443  0.0866 -0.2967  1.0118
  184POPC  H18R21167   3.570   6.450   4.375 -0.5069 -0.0609  0.7373
  184POPC  H18S21168   3.675   6.562   4.481  0.3533 -0.7243  0.5851
  184POPC  H18T21169   3.524   6.625   4.398  0.6177 -0.0116  0.9744
  184POPC   C3321170   3.404   6.854   5.983 -0.2468  0.1027 -0.0710
  184POPC   H3X21171   3.293   6.856   5.970 -0.4384 -0.3775  1.2861
  184POPC   H3Y21172   3.431   6.746   5.989 -1.8001 -0.3175 -0.1030
  184POPC   C3421173   3.480   6.924   5.873  0.1244  0.7700 -0.2146
  184POPC   H4X21174   3.585   6.920   5.909 -0.5319 -0.8510  1.7059
  184POPC   H4Y21175   3.454   7.032   5.869  1.0596  1.0059  0.0326
  184POPC   C3521176   3.464   6.858   5.742  0.1695 -0.0058  0.3363
  184POPC   H5X21177   3.354   6.853   5.722 -0.0544  0.4762  1.3713
  184POPC   H5Y21178   3.499   6.753   5.751 -1.5452 -0.6155  0.3152
  184POPC   C3621179   3.541   6.922   5.622  0.4378 -0.3247  0.3413
  184POPC   H6X21180   3.647   6.913   5.652  0.7330  0.7479 -0.3248
  184POPC   H6Y21181   3.518   7.029   5.603  1.4719 -0.0931  0.3854
  184POPC   C3721182   3.519   6.838   5.499  0.0484  0.3420  0.5465
  184POPC   H7X21183   3.416   6.855   5.461  1.1301  2.8096 -1.6823
  184POPC   H7Y21184   3.528   6.729   5.519 -1.8715  0.7292  4.3382
  184POPC   C3821185   3.622   6.881   5.394 -0.1158 -0.0784  0.6772
  184POPC   H8X21186   3.724   6.887   5.438 -0.1555  1.9576  0.5709
  184POPC   H8Y21187   3.588   6.983   5.366 -2.8628 -0.4888  2.1413
  184POPC   C3921188   3.614   6.788   5.273 -0.6131  0.2210  0.2460
  184POPC   H9X21189   3.584   6.685   5.303 -0.4718  0.0908 -0.0488
  184POPC   H9Y21190   3.717   6.785   5.230 -0.2103 -0.0179  1.2053
  184POPC  C31021191   3.520   6.832   5.163 -0.0572 -0.1976  0.1134
  184POPC  H10X21192   3.458   6.908   5.216 -0.0406  0.1592 -0.3678
  184POPC  H10Y21193   3.450   6.747   5.145 -0.6112  0.0049  1.2275
  184POPC  C31121194   3.600   6.890   5.044 -0.0353  0.1764  0.4201
  184POPC  H11X21195   3.665   6.814   4.995 -0.8480 -0.0962 -0.2628
  184POPC  H11Y21196   3.670   6.970   5.075  0.5810 -0.5141  0.8676
  184POPC  C31221197   3.500   6.930   4.933  0.5869 -0.5085 -0.1066
  184POPC  H12X21198   3.429   7.002   4.979  2.4508  1.5608 -0.2806
  184POPC  H12Y21199   3.431   6.846   4.911 -0.3367 -0.0032  0.7778
  184POPC  C31321200   3.565   6.984   4.808 -0.7826 -0.7983  0.1027
  184POPC  H13X21201   3.623   6.904   4.757 -1.9725 -1.2448 -0.6044
  184POPC  H13Y21202   3.632   7.068   4.835 -0.7385 -0.7763 -0.0760
  184POPC  C31421203   3.456   7.022   4.703 -0.2730  0.8571 -0.0827
  184POPC  H14X21204   3.395   7.100   4.752 -0.4854  0.1979  0.7213
  184POPC  H14Y21205   3.384   6.938   4.694  1.4638 -0.6900 -0.1776
  184POPC  C31521206   3.513   7.080   4.578 -0.7006  0.2080  0.6195
  184POPC  H15X21207   3.430   7.077   4.505 -0.8040  0.0697  0.7423
  184POPC  H15Y21208   3.596   7.011   4.549 -0.7617  0.2877  0.2474
  184POPC  C31621209   3.566   7.225   4.601 -0.0103 -0.1463  0.5709
  184POPC  H16X21210   3.615   7.225   4.700 -1.0597 -1.4647  1.1164
  184POPC  H16Y21211   3.485   7.300   4.600 -1.8478 -2.0515  0.1114
  184POPC  H16Z21212   3.636   7.244   4.516  1.7393  0.4422  2.0873
  185POPC     N21213   3.213   5.768   1.958 -0.0794  0.2513  0.5056
  185POPC   C1221214   3.268   5.672   2.062 -0.0252 -0.5319 -0.6298
  185POPC  H12A21215   3.308   5.715   2.152 -1.0927 -2.2745  0.7609
  185POPC  H12B21216   3.347   5.613   2.018  1.0807  0.4877 -0.0428
  185POPC   C1321217   3.315   5.859   1.918  0.5418  0.0647 -0.0683
  185POPC  H13A21218   3.274   5.933   1.852 -0.0008 -0.4753 -0.3413
  185POPC  H13B21219   3.350   5.910   2.007  0.3437 -1.4656  0.9291
  185POPC  H13C21220   3.403   5.815   1.874  0.2299 -1.5189  0.8171
  185POPC   C1421221   3.151   5.698   1.843 -0.4199  0.2798 -0.7567
  185POPC  H14A21222   3.218   5.638   1.782 -0.7531 -0.7908 -0.0962
  185POPC  H14B21223   3.083   5.624   1.883  0.4149 -0.5337 -0.8024
  185POPC  H14C21224   3.110   5.776   1.780  1.1234  1.4428 -0.3746
  185POPC   C1521225   3.111   5.861   2.018 -0.2017  0.8800 -0.3757
  185POPC  H15A21226   3.152   5.918   2.100  0.8864 -0.9692  0.4359
  185POPC  H15B21227   3.016   5.816   2.040 -0.8398  3.0491  1.6571
  185POPC  H15C21228   3.084   5.936   1.946 -0.4082  0.2962 -0.9193
  185POPC   C1121229   3.158   5.569   2.124  0.6633 -0.0555 -0.2393
  185POPC  H11A21230   3.058   5.616   2.129  0.3398 -0.7962  0.4316
  185POPC  H11B21231   3.188   5.540   2.227  0.1303 -1.2199 -0.3977
  185POPC     P21232   3.255   5.339   2.039 -0.2833 -0.1705  0.2350
  185POPC   O1321233   3.381   5.394   1.987 -0.8482  0.6849  0.3496
  185POPC   O1421234   3.196   5.234   1.953 -0.1388 -0.3767 -0.6810
  185POPC   O1221235   3.150   5.455   2.042  0.0243  0.3554 -0.5174
  185POPC   O1121236   3.281   5.298   2.191 -0.1359  0.2131 -0.5241
  185POPC    C121237   3.205   5.190   2.244  0.2469 -0.3269 -0.1856
  185POPC    HA21238   3.277   5.110   2.271  0.1453 -0.8706 -1.4725
  185POPC    HB21239   3.127   5.141   2.181 -1.3704 -0.7540  2.0037
  185POPC    C221240   3.140   5.244   2.376  0.0741  0.3771  0.0067
  185POPC    HS21241   3.067   5.323   2.346  0.7146  0.8644 -0.3033
  185POPC   O2121242   3.245   5.303   2.455  0.5063  0.4113  0.1925
  185POPC   C2121243   3.212   5.413   2.522  0.0904  0.0457 -0.3114
  185POPC   O2221244   3.097   5.466   2.522 -0.3644  0.0608  0.2551
  185POPC   C2221245   3.333   5.461   2.602  0.1761 -0.3854 -0.2286
  185POPC   H2R21246   3.416   5.467   2.528  0.3240 -1.1876 -0.1372
  185POPC   H2S21247   3.369   5.376   2.664  0.0010  0.4923  1.1053
  185POPC    C321248   3.069   5.132   2.446  0.5744  0.0618  0.2248
  185POPC    HX21249   3.144   5.053   2.466  1.7605  0.8481 -0.9922
  185POPC    HY21250   2.988   5.092   2.380 -0.7004  2.0518  0.4873
  185POPC   O3121251   3.021   5.174   2.571  0.4423  0.3211  0.4331
  185POPC   C3121252   2.892   5.216   2.582  0.1819  0.1347  0.5678
  185POPC   O3221253   2.817   5.234   2.486 -0.7863  0.2008 -0.1092
  185POPC   C3221254   2.869   5.247   2.725 -0.1365 -0.7588  0.1103
  185POPC   H2X21255   2.858   5.355   2.749 -1.9245 -1.3596  2.4892
  185POPC   H2Y21256   2.953   5.206   2.784  0.9607 -0.9075 -1.5141
  185POPC   C2321257   3.320   5.593   2.678 -0.1971  0.5096  0.2191
  185POPC   H3R21258   3.283   5.678   2.616 -0.1692  1.0920  0.9921
  185POPC   H3S21259   3.418   5.617   2.724  3.0199 -3.2695 -3.8100
  185POPC   C2421260   3.221   5.569   2.796  0.1354 -0.4091 -0.2099
  185POPC   H4R21261   3.231   5.466   2.835 -1.9931 -0.8247 -0.6538
  185POPC   H4S21262   3.116   5.558   2.760 -0.8400 -2.1825  2.8227
  185POPC   C2521263   3.231   5.663   2.913  0.4709 -0.0935 -0.2996
  185POPC   H5R21264   3.210   5.764   2.873  0.5343  0.5202  1.1341
  185POPC   H5S21265   3.335   5.667   2.952  0.4587  1.9132 -0.3696
  185POPC   C2621266   3.137   5.634   3.035  0.0814 -0.2248  0.0973
  185POPC   H6R21267   3.143   5.527   3.063  0.3052 -0.3362 -0.3641
  185POPC   H6S21268   3.033   5.632   2.996 -0.9342 -3.0566  2.5818
  185POPC   C2721269   3.136   5.738   3.146 -0.3700  0.2530  0.2575
  185POPC   H7R21270   3.135   5.833   3.087  1.0149 -0.6190 -1.2803
  185POPC   H7S21271   3.225   5.731   3.212  1.2471 -0.6226 -1.8602
  185POPC   C2821272   3.006   5.738   3.235  0.0188 -0.1863 -0.0729
  185POPC   H8R21273   2.922   5.766   3.168 -0.7228 -1.7874  0.1386
  185POPC   H8S21274   3.020   5.816   3.312 -0.0444 -0.8593  0.6375
  185POPC   C2921275   2.974   5.614   3.308  0.2183 -0.5927 -0.5583
  185POPC   H9121276   2.942   5.530   3.244  0.6339 -1.1344 -0.0731
  185POPC  C21021277   2.980   5.587   3.438 -1.3773  0.1353  0.4808
  185POPC  H10121278   2.950   5.488   3.474 -3.2828 -0.1177 -1.6141
  185POPC  C21121279   3.030   5.681   3.549  0.5955  0.2147 -0.0244
  185POPC  H11R21280   3.002   5.788   3.538  1.9749  0.4992 -0.9476
  185POPC  H11S21281   3.140   5.675   3.560  0.6328 -0.2414 -0.6153
  185POPC  C21221282   2.971   5.647   3.686 -0.2368 -0.5065  0.0217
  185POPC  H12R21283   2.982   5.540   3.715  0.0380 -1.0569 -1.9928
  185POPC  H12S21284   2.861   5.654   3.677 -0.4530 -0.0020  2.2624
  185POPC  C21321285   3.028   5.734   3.793 -0.1390 -0.8407 -0.3182
  185POPC  H13R21286   3.003   5.840   3.768 -1.3556 -0.3835  2.4286
  185POPC  H13S21287   3.136   5.709   3.792 -0.6106 -3.1882 -2.3400
  185POPC  C21421288   2.963   5.696   3.928 -0.3552 -0.5842  0.1817
  185POPC  H14R21289   2.998   5.775   3.998  0.8779  1.5907 -2.6662
  185POPC  H14S21290   2.986   5.595   3.969  0.2816 -0.8982 -0.9096
  185POPC  C21521291   2.809   5.688   3.932 -0.4445  0.6028 -0.4324
  185POPC  H15R21292   2.782   5.594   3.879 -3.4977  1.2890 -0.3214
  185POPC  H15S21293   2.755   5.776   3.891 -1.7655 -0.1926 -0.4771
  185POPC  C21621294   2.756   5.665   4.080 -0.0857 -0.0318  0.0408
  185POPC  H16R21295   2.753   5.754   4.147  2.2613 -0.2040  0.4552
  185POPC  H16S21296   2.825   5.591   4.127 -0.6504 -1.3382 -1.1242
  185POPC  C21721297   2.624   5.594   4.076  0.5211  0.4307 -0.1716
  185POPC  H17R21298   2.609   5.541   3.979 -0.2545  0.3923 -0.0360
  185POPC  H17S21299   2.544   5.670   4.082  0.5633  0.3924  1.1629
  185POPC  C21821300   2.606   5.483   4.186  0.3444 -0.1067 -0.1977
  185POPC  H18R21301   2.505   5.437   4.174 -0.9651  2.5485 -0.1341
  185POPC  H18S21302   2.599   5.539   4.282  0.2193  0.7796 -0.7107
  185POPC  H18T21303   2.691   5.412   4.187  2.2223  2.0479  0.6510
  185POPC   C3321304   2.739   5.181   2.782  0.5675  0.1911 -0.0848
  185POPC   H3X21305   2.754   5.071   2.771 -0.0720  0.1588 -0.7114
  185POPC   H3Y21306   2.644   5.218   2.738  0.8485  0.7763 -0.2085
  185POPC   C3421307   2.745   5.209   2.929 -0.3258 -0.4058  0.5938
  185POPC   H4X21308   2.753   5.320   2.934  1.2100 -0.5484  1.7323
  185POPC   H4Y21309   2.835   5.159   2.971  1.2909 -0.6450 -2.7805
  185POPC   C3521310   2.622   5.179   3.005 -0.1099  0.3203  0.1773
  185POPC   H5X21311   2.600   5.072   2.982 -3.4400  1.4439 -2.6364
  185POPC   H5Y21312   2.529   5.221   2.960  0.0452  1.4055  0.8530
  185POPC   C3621313   2.636   5.211   3.152  0.3186 -0.0341 -0.7968
  185POPC   H6X21314   2.738   5.183   3.185 -0.5104 -2.0355  0.2027
  185POPC   H6Y21315   2.562   5.153   3.210  0.0071  2.6478  1.7355
  185POPC   C3721316   2.626   5.360   3.177  0.8452  0.6179 -0.4195
  185POPC   H7X21317   2.531   5.402   3.139  1.1329  2.3066  0.6360
  185POPC   H7Y21318   2.697   5.413   3.110 -1.7911  1.8813 -2.4107
  185POPC   C3821319   2.640   5.403   3.326  0.1186 -0.0512  0.2696
  185POPC   H8X21320   2.614   5.504   3.365  0.1249 -0.3428  1.0436
  185POPC   H8Y21321   2.751   5.395   3.330  0.2354  0.1527 -1.7920
  185POPC   C3921322   2.589   5.295   3.427  0.0868 -0.8571  0.8120
  185POPC   H9X21323   2.632   5.193   3.417  1.8177 -0.0972  0.0373
  185POPC   H9Y21324   2.479   5.292   3.413  0.4091  0.1905 -2.9454
  185POPC  C31021325   2.627   5.321   3.572  0.4422 -0.1713  0.1064
  185POPC  H10X21326   2.737   5.332   3.567  0.3324  0.3344 -2.9313
  185POPC  H10Y21327   2.611   5.226   3.628  0.9760  0.1454  0.8240
  185POPC  C31121328   2.552   5.437   3.651 -0.5327 -0.0614  0.5306
  185POPC  H11X21329   2.568   5.530   3.591 -0.6545 -0.6544 -0.4370
  185POPC  H11Y21330   2.607   5.447   3.747  3.0551 -0.7770 -1.2371
  185POPC  C31221331   2.405   5.392   3.681 -0.0468  0.7763 -0.1955
  185POPC  H12X21332   2.416   5.287   3.714 -0.3351  0.1885 -1.8808
  185POPC  H12Y21333   2.334   5.390   3.595 -1.2815  0.0382  0.8137
  185POPC  C31321334   2.349   5.478   3.799  0.0228  0.2376  0.0811
  185POPC  H13X21335   2.414   5.474   3.889 -0.6488 -0.4409  0.5445
  185POPC  H13Y21336   2.251   5.434   3.826 -0.2556 -0.2476 -1.6366
  185POPC  C31421337   2.329   5.625   3.757  0.1382  1.1534 -0.3597
  185POPC  H14X21338   2.417   5.671   3.709 -0.2164  1.1450 -1.0306
  185POPC  H14Y21339   2.298   5.681   3.848 -2.8551  1.9675 -1.7363
  185POPC  C31521340   2.210   5.649   3.665 -0.3281  0.2154 -0.4478
  185POPC  H15X21341   2.115   5.628   3.720  0.1484  0.0223  0.3154
  185POPC  H15Y21342   2.219   5.591   3.570  0.0464 -1.0644  0.3415
  185POPC  C31621343   2.197   5.797   3.621  0.5715  0.0732 -0.4147
  185POPC  H16X21344   2.100   5.791   3.567  0.0494  1.8141  0.2501
  185POPC  H16Y21345   2.278   5.829   3.553  0.4404 -0.0272 -0.6188
  185POPC  H16Z21346   2.180   5.862   3.709 -2.0941 -1.2836  0.1904
  186POPC     N21347   4.783   0.423   2.177 -0.6704 -0.4364 -0.0094
  186POPC   C1221348   4.645   0.431   2.232 -0.0071  0.0824  0.4448
  186POPC  H12A21349   4.607   0.331   2.252 -2.5206  0.8844  0.0182
  186POPC  H12B21350   4.582   0.470   2.154  0.5094  0.8582  0.4093
  186POPC   C1321351   4.830   0.564   2.150 -0.8072  0.2068 -0.2037
  186POPC  H13A21352   4.937   0.576   2.137 -0.6169 -0.0491  1.0045
  186POPC  H13B21353   4.787   0.595   2.056 -0.3534 -2.3075 -1.3244
  186POPC  H13C21354   4.801   0.631   2.230  0.9002  2.4913 -1.3925
  186POPC   C1421355   4.878   0.368   2.271 -0.2289  0.6505  0.5908
  186POPC  H14A21356   4.981   0.370   2.241 -0.4057  1.5527  0.0210
  186POPC  H14B21357   4.880   0.422   2.364  1.1280 -1.3215  1.8000
  186POPC  H14C21358   4.856   0.264   2.293  1.8474  0.0233 -0.0483
  186POPC   C1521359   4.786   0.349   2.049 -0.4701  0.1958 -0.6113
  186POPC  H15A21360   4.726   0.405   1.980  0.5739 -0.4752 -2.1268
  186POPC  H15B21361   4.737   0.254   2.060 -0.0286  0.0015 -0.2465
  186POPC  H15C21362   4.888   0.341   2.012  0.3318 -1.5606  1.6940
  186POPC   C1121363   4.610   0.494   2.373  0.2005 -0.2922  0.6331
  186POPC  H11A21364   4.666   0.435   2.448  1.1270  1.5758  1.4536
  186POPC  H11B21365   4.501   0.472   2.382 -0.1119  0.1302 -1.5450
  186POPC     P21366   4.545   0.744   2.375  0.2240  0.1046  0.6124
  186POPC   O1321367   4.434   0.690   2.288  0.0663 -0.4037  0.9413
  186POPC   O1421368   4.614   0.864   2.334  0.6672 -0.1077 -0.0755
  186POPC   O1221369   4.653   0.629   2.373  0.0376 -0.4509 -0.4347
  186POPC   O1121370   4.495   0.761   2.522  0.3108 -0.4415  0.3324
  186POPC    C121371   4.583   0.798   2.628  0.2975 -0.1541  0.5572
  186POPC    HA21372   4.542   0.888   2.677  0.4963 -0.5152  1.3988
  186POPC    HB21373   4.685   0.823   2.591  1.4145 -2.3520  1.9290
  186POPC    C221374   4.598   0.684   2.733 -0.1295 -0.3453  0.5732
  186POPC    HS21375   4.671   0.608   2.698  0.1505  0.3096 -0.2881
  186POPC   O2121376   4.462   0.635   2.757  0.2846  0.2938 -0.0082
  186POPC   C2121377   4.439   0.512   2.727 -1.1358  0.3426  0.9498
  186POPC   O2221378   4.514   0.428   2.684 -0.1562  0.4161 -0.1941
  186POPC   C2221379   4.291   0.479   2.757  0.4276  0.5332  0.1605
  186POPC   H2R21380   4.271   0.371   2.738 -2.0444  1.0072 -0.2303
  186POPC   H2S21381   4.219   0.537   2.696 -1.6027 -0.0946  1.8346
  186POPC    C321382   4.661   0.745   2.863  0.1698 -0.0251 -0.2373
  186POPC    HX21383   4.610   0.842   2.877 -1.3795 -1.0056  1.3092
  186POPC    HY21384   4.764   0.781   2.840 -0.2670  2.3854  1.3049
  186POPC   O3121385   4.661   0.657   2.976 -0.2536  0.5417 -0.5050
  186POPC   C3121386   4.776   0.655   3.052 -0.0641  0.2490 -0.1187
  186POPC   O3221387   4.867   0.736   3.039 -0.2864 -0.0503  0.1067
  186POPC   C3221388   4.773   0.532   3.142 -0.2334  0.1147 -0.5077
  186POPC   H2X21389   4.843   0.467   3.086 -0.4565  0.7655 -1.5740
  186POPC   H2Y21390   4.673   0.488   3.158 -2.0054  2.6470 -3.4533
  186POPC   C2321391   4.265   0.501   2.905 -0.0250 -0.4024  0.1330
  186POPC   H3R21392   4.155   0.489   2.916 -0.3739 -3.5020 -4.2723
  186POPC   H3S21393   4.300   0.602   2.936 -0.2994 -0.7709  1.7482
  186POPC   C2421394   4.325   0.395   2.986  0.1286  0.5982 -0.0868
  186POPC   H4R21395   4.436   0.400   2.982  0.3840 -3.1469 -0.8234
  186POPC   H4S21396   4.292   0.293   2.957 -0.7583  0.7639  0.3083
  186POPC   C2521397   4.285   0.415   3.133 -0.3954 -0.2596  0.2097
  186POPC   H5R21398   4.291   0.323   3.195  2.7535 -0.8468 -0.7954
  186POPC   H5S21399   4.181   0.453   3.138 -0.5213 -0.5346 -0.2928
  186POPC   C2621400   4.358   0.528   3.196  0.2215  0.1459  0.2224
  186POPC   H6R21401   4.324   0.616   3.139  1.2370  1.1527  1.1246
  186POPC   H6S21402   4.465   0.504   3.179 -0.2392 -0.5624 -1.9911
  186POPC   C2721403   4.331   0.557   3.345 -0.2360  0.1424  0.1311
  186POPC   H7R21404   4.224   0.586   3.347 -0.2275  0.4847 -1.9549
  186POPC   H7S21405   4.396   0.643   3.370  1.0122 -1.1106  1.3485
  186POPC   C2821406   4.351   0.443   3.443  0.2527  0.2840 -0.6603
  186POPC   H8R21407   4.450   0.394   3.432 -0.4496 -1.2694 -0.3546
  186POPC   H8S21408   4.275   0.370   3.406 -0.2592  1.3308 -1.7697
  186POPC   C2921409   4.306   0.474   3.581  0.2990 -0.1984 -0.4419
  186POPC   H9121410   4.205   0.439   3.607  0.3660  0.7962  1.3035
  186POPC  C21021411   4.385   0.516   3.680  0.1468 -0.5880  0.3192
  186POPC  H10121412   4.335   0.529   3.777 -2.5855 -0.4354 -1.0236
  186POPC  C21121413   4.528   0.552   3.669 -0.7216 -0.1772 -0.3961
  186POPC  H11R21414   4.536   0.662   3.665  0.8349 -0.3089 -2.2806
  186POPC  H11S21415   4.579   0.521   3.575 -1.0324  1.7681 -1.2603
  186POPC  C21221416   4.615   0.502   3.785  0.5581 -0.1049  0.0423
  186POPC  H12R21417   4.568   0.521   3.884 -1.6889 -0.6458 -0.8724
  186POPC  H12S21418   4.711   0.559   3.792 -0.1212  0.9045  4.3094
  186POPC  C21321419   4.643   0.348   3.761 -0.4775  0.0555  1.0140
  186POPC  H13R21420   4.706   0.342   3.670 -1.3097 -5.6542  0.4701
  186POPC  H13S21421   4.557   0.282   3.736 -0.4307 -0.0607  1.1588
  186POPC  C21421422   4.738   0.281   3.861  0.7782  0.0250 -0.1689
  186POPC  H14R21423   4.827   0.347   3.865  0.2338  0.7153  1.2728
  186POPC  H14S21424   4.760   0.176   3.831 -1.0809 -1.2354  2.4283
  186POPC  C21521425   4.677   0.297   4.003  0.2069 -0.3149 -0.9832
  186POPC  H15R21426   4.650   0.403   4.024 -2.7102 -1.2476  0.5134
  186POPC  H15S21427   4.749   0.265   4.081 -1.7295 -2.6892 -0.0313
  186POPC  C21621428   4.545   0.222   4.024  0.7359 -0.0527  0.7596
  186POPC  H16R21429   4.491   0.184   3.935  0.4049 -0.7852  1.2567
  186POPC  H16S21430   4.464   0.279   4.076 -0.4039 -0.3182 -0.6638
  186POPC  C21721431   4.561   0.096   4.115  0.3397 -0.1374 -0.1804
  186POPC  H17R21432   4.591   0.131   4.216  2.2106 -1.3316 -0.2720
  186POPC  H17S21433   4.648   0.043   4.071 -0.0163 -1.4800  0.6713
  186POPC  C21821434   4.447  -0.001   4.128  0.2587  0.1320  0.3543
  186POPC  H18R21435   4.472  -0.086   4.194 -3.4147 -2.0455 -0.7581
  186POPC  H18S21436   4.358   0.051   4.170  0.4849  1.7434 -1.0078
  186POPC  H18T21437   4.424  -0.044   4.028 -0.6960  0.0111  0.6173
  186POPC   C3321438   4.842   0.569   3.278 -0.5793  1.1566  0.2737
  186POPC   H3X21439   4.777   0.644   3.329 -2.2949 -0.2500  0.2641
  186POPC   H3Y21440   4.946   0.602   3.261 -0.0613 -0.7142 -0.4262
  186POPC   C3421441   4.840   0.443   3.360 -0.1331  0.7632 -0.8067
  186POPC   H4X21442   4.881   0.357   3.303  0.5358 -0.0879  0.8991
  186POPC   H4Y21443   4.734   0.431   3.392  0.2176  1.7981  0.8024
  186POPC   C3521444   4.928   0.467   3.486 -0.7562 -0.0179  0.1686
  186POPC   H5X21445   4.905   0.377   3.547 -1.2432 -1.9869 -2.7232
  186POPC   H5Y21446   4.883   0.557   3.534 -2.7653 -0.4439 -0.8452
  186POPC   C3621447   5.079   0.467   3.460  0.2781 -0.2902 -0.2139
  186POPC   H6X21448   5.095   0.537   3.375  0.5114  0.6344  0.5669
  186POPC   H6Y21449   5.123   0.369   3.434 -1.6474 -0.9963 -0.9443
  186POPC   C3721450   5.162   0.529   3.577  0.3399  0.3909 -0.3903
  186POPC   H7X21451   5.135   0.637   3.571  1.2342  0.7730  1.6778
  186POPC   H7Y21452   5.270   0.508   3.565  0.5125  1.0763 -0.1041
  186POPC   C3821453   5.122   0.469   3.711 -0.4480 -0.6593 -0.5340
  186POPC   H8X21454   5.170   0.370   3.723 -1.8963 -1.8691 -3.6382
  186POPC   H8Y21455   5.013   0.452   3.727 -0.4468 -0.9540 -0.8448
  186POPC   C3921456   5.162   0.554   3.831 -0.0199  0.1326  0.4359
  186POPC   H9X21457   5.133   0.661   3.822 -1.7976 -0.2765  1.0335
  186POPC   H9Y21458   5.272   0.559   3.844  0.0318 -1.0548  0.5198
  186POPC  C31021459   5.101   0.495   3.960 -0.1084 -0.6879  0.1968
  186POPC  H10X21460   4.994   0.472   3.938  0.0177  0.4664 -1.9121
  186POPC  H10Y21461   5.101   0.566   4.045 -0.5619 -0.2674 -0.1484
  186POPC  C31121462   5.168   0.363   4.003  0.5160 -0.3683 -0.3629
  186POPC  H11X21463   5.264   0.399   4.045 -0.6083  3.9279 -0.9072
  186POPC  H11Y21464   5.186   0.294   3.918  2.0914  2.5344 -2.6028
  186POPC  C31221465   5.087   0.293   4.121 -0.1279  0.0884  0.5717
  186POPC  H12X21466   5.151   0.208   4.153  0.7335  0.9964  1.2928
  186POPC  H12Y21467   4.989   0.264   4.075 -0.2933  1.8883 -0.2920
  186POPC  C31321468   5.061   0.375   4.245  0.0009  0.4124  0.1875
  186POPC  H13X21469   4.979   0.445   4.222  0.5332  0.5910 -1.2776
  186POPC  H13Y21470   5.151   0.429   4.283 -0.0708 -0.1836  1.2707
  186POPC  C31421471   5.008   0.282   4.362  0.1595 -0.2701  0.2658
  186POPC  H14X21472   5.072   0.192   4.374 -0.0237 -0.0633  4.0044
  186POPC  H14Y21473   4.902   0.255   4.341  0.0773 -0.5682  1.0204
  186POPC  C31521474   5.007   0.372   4.478  0.0096  0.1656 -0.3549
  186POPC  H15X21475   5.104   0.421   4.500 -0.5643  0.9001  0.6224
  186POPC  H15Y21476   5.002   0.311   4.571  1.0928  0.8931  0.2019
  186POPC  C31621477   4.897   0.481   4.484 -0.1019 -0.2015 -0.1399
  186POPC  H16X21478   4.795   0.445   4.460 -0.7139  0.6235  1.1226
  186POPC  H16Y21479   4.924   0.565   4.416  0.1149  0.0124  0.2060
  186POPC  H16Z21480   4.886   0.525   4.586  0.7085  1.9483 -0.9291
  187POPC     N21481   1.538   4.525   1.597  0.6401  0.5003 -0.4192
  187POPC   C1221482   1.605   4.453   1.713  0.3635 -0.5191 -0.2364
  187POPC  H12A21483   1.557   4.356   1.719 -2.1023  0.5091 -1.6997
  187POPC  H12B21484   1.572   4.491   1.808  2.0636  0.3878  0.0319
  187POPC   C1321485   1.404   4.570   1.641  0.1757 -0.1541 -0.1133
  187POPC  H13A21486   1.369   4.652   1.580 -0.2521 -0.3451 -0.1284
  187POPC  H13B21487   1.328   4.493   1.631  0.0626  0.1633 -2.3095
  187POPC  H13C21488   1.421   4.594   1.745  0.9385 -1.8747  0.1895
  187POPC   C1421489   1.624   4.636   1.569 -0.3226 -0.3268  0.3893
  187POPC  H14A21490   1.730   4.624   1.582  0.1391  1.1234 -1.4995
  187POPC  H14B21491   1.608   4.666   1.466 -1.6277  0.5189  0.8045
  187POPC  H14C21492   1.605   4.724   1.629  1.1802  0.5442 -0.3570
  187POPC   C1521493   1.522   4.438   1.478 -0.3046  0.8572  0.4788
  187POPC  H15A21494   1.615   4.394   1.445 -1.5540 -2.1673  0.5918
  187POPC  H15B21495   1.489   4.494   1.392 -0.4694 -1.2001 -0.8783
  187POPC  H15C21496   1.471   4.344   1.497  2.4448 -0.6786  0.8977
  187POPC   C1121497   1.748   4.441   1.723 -0.9707 -0.9357  0.0494
  187POPC  H11A21498   1.785   4.410   1.623 -0.9798  1.0917 -0.6287
  187POPC  H11B21499   1.778   4.358   1.791 -0.4668  0.2494  1.3241
  187POPC     P21500   1.835   4.595   1.916 -0.0631  0.0443 -0.2455
  187POPC   O1321501   1.715   4.568   1.999  0.1590  0.0054 -0.0060
  187POPC   O1421502   1.896   4.730   1.927  0.3140  0.3066  0.5155
  187POPC   O1221503   1.802   4.571   1.766  0.6665  0.3025  0.2530
  187POPC   O1121504   1.945   4.487   1.937 -0.0704  0.3667  0.4751
  187POPC    C121505   2.072   4.518   1.991 -0.1879  0.1640  0.6140
  187POPC    HA21506   2.122   4.611   1.956 -1.9800  0.8937 -0.1799
  187POPC    HB21507   2.147   4.440   1.967  0.6508  0.2634  2.7174
  187POPC    C221508   2.084   4.516   2.149 -0.0795  0.1964  1.5037
  187POPC    HS21509   2.186   4.475   2.168  0.9633  2.1839  0.5300
  187POPC   O2121510   1.987   4.433   2.204 -0.3092  0.4942 -0.2849
  187POPC   C2121511   1.973   4.302   2.176  0.1161 -0.3957  0.2416
  187POPC   O2221512   2.059   4.235   2.118 -0.2793  0.0122 -0.2810
  187POPC   C2221513   1.832   4.256   2.193 -0.2456 -0.3045  0.1702
  187POPC   H2R21514   1.763   4.307   2.123  0.6688 -0.5162 -0.8975
  187POPC   H2S21515   1.812   4.300   2.294  1.5724  1.2474 -0.0889
  187POPC    C321516   2.065   4.658   2.211 -0.2077  0.1560 -0.2534
  187POPC    HX21517   1.970   4.707   2.181  0.5833  1.5385 -0.5902
  187POPC    HY21518   2.153   4.717   2.176  1.5419 -1.9846  0.3435
  187POPC   O3121519   2.077   4.654   2.352 -0.3417  0.0473 -0.0050
  187POPC   C3121520   1.972   4.678   2.429  0.1812  0.1429 -0.1788
  187POPC   O3221521   1.856   4.677   2.385 -0.4664  0.4310 -0.1393
  187POPC   C3221522   2.021   4.696   2.570 -0.5084 -0.1342 -0.3746
  187POPC   H2X21523   2.024   4.807   2.576 -2.7724 -0.0746  1.5636
  187POPC   H2Y21524   2.127   4.669   2.584 -0.7740 -1.4096 -0.7346
  187POPC   C2321525   1.811   4.106   2.206 -0.0706  0.0823 -0.3350
  187POPC   H3R21526   1.862   4.065   2.296 -0.3169  0.8188  0.1572
  187POPC   H3S21527   1.847   4.048   2.119  3.1394 -1.8055  2.0369
  187POPC   C2421528   1.658   4.081   2.226  0.2077  0.3320  0.1704
  187POPC   H4R21529   1.635   3.973   2.241  0.2114 -0.0730 -2.3193
  187POPC   H4S21530   1.605   4.110   2.133  0.6976  0.9811  0.0901
  187POPC   C2521531   1.593   4.154   2.349 -0.7556  0.3033  0.3079
  187POPC   H5R21532   1.483   4.139   2.338 -1.0555  0.6639  2.4733
  187POPC   H5S21533   1.613   4.262   2.334 -0.0683  0.0349 -0.8526
  187POPC   C2621534   1.647   4.112   2.485 -0.3470 -0.0926 -0.2600
  187POPC   H6R21535   1.758   4.122   2.481 -0.2759 -1.0554 -3.2052
  187POPC   H6S21536   1.618   4.008   2.513 -1.9862  0.2141 -0.7300
  187POPC   C2721537   1.607   4.214   2.591  0.5638  0.3470 -0.2964
  187POPC   H7R21538   1.499   4.241   2.591  0.0812 -1.4069 -1.8915
  187POPC   H7S21539   1.666   4.307   2.572  1.1337  0.2394  0.8476
  187POPC   C2821540   1.667   4.172   2.732 -0.1391 -0.5517  0.1576
  187POPC   H8R21541   1.767   4.133   2.705 -0.6079 -0.2337 -2.2738
  187POPC   H8S21542   1.608   4.086   2.770 -0.1969 -0.9667 -0.8483
  187POPC   C2921543   1.665   4.288   2.837 -0.3410 -0.2422  0.4339
  187POPC   H9121544   1.720   4.376   2.802 -1.7173  0.8541  0.9267
  187POPC  C21021545   1.605   4.277   2.958 -0.9991 -0.1500  0.0590
  187POPC  H10121546   1.595   4.363   3.026  1.4024 -1.2673  1.9789
  187POPC  C21121547   1.531   4.164   3.011 -0.2143  0.3326  0.2959
  187POPC  H11R21548   1.615   4.106   3.056 -0.5347  1.6927  2.8520
  187POPC  H11S21549   1.471   4.098   2.946 -2.6880 -0.2631  2.9707
  187POPC  C21221550   1.438   4.199   3.126  0.0498  0.4020 -0.7578
  187POPC  H12R21551   1.393   4.103   3.160  0.7746  0.6438  0.9606
  187POPC  H12S21552   1.363   4.277   3.100 -0.9505  0.0389  0.9298
  187POPC  C21321553   1.516   4.247   3.254  0.4644  0.5480  0.2969
  187POPC  H13R21554   1.437   4.290   3.318 -0.7744 -2.2737  0.7856
  187POPC  H13S21555   1.589   4.327   3.230 -1.1944  1.4313 -2.2245
  187POPC  C21421556   1.576   4.124   3.329  0.2105 -0.2413  0.3745
  187POPC  H14R21557   1.660   4.067   3.284 -0.5985 -0.5949 -0.7356
  187POPC  H14S21558   1.493   4.051   3.337 -0.1501  0.2685  1.5699
  187POPC  C21521559   1.597   4.150   3.479 -0.8128  0.6605 -0.5316
  187POPC  H15R21560   1.523   4.215   3.530  0.7838  0.5863  2.0628
  187POPC  H15S21561   1.694   4.206   3.480 -0.7693  0.5840 -0.4288
  187POPC  C21621562   1.616   4.022   3.558 -1.1011  0.2546 -0.4478
  187POPC  H16R21563   1.699   3.956   3.525 -0.3588 -1.0059  3.3855
  187POPC  H16S21564   1.528   3.954   3.559 -2.3373  1.5167  4.3755
  187POPC  C21721565   1.642   4.057   3.708 -0.5160  0.3602 -0.8395
  187POPC  H17R21566   1.707   4.143   3.733 -0.3557  0.0314 -0.0767
  187POPC  H17S21567   1.694   3.975   3.764  0.4182  1.8950  0.6312
  187POPC  C21821568   1.520   4.067   3.786 -0.1347 -0.0838  0.1863
  187POPC  H18R21569   1.443   4.138   3.747  0.4268  0.7169  0.4910
  187POPC  H18S21570   1.541   4.111   3.886  1.9829 -0.5124 -0.0207
  187POPC  H18T21571   1.474   3.968   3.806  0.7941 -0.1854  2.0277
  187POPC   C3321572   1.933   4.645   2.682  0.8191  0.0898  0.0299
  187POPC   H3X21573   1.944   4.535   2.693  2.9459  0.3447  1.0960
  187POPC   H3Y21574   1.828   4.672   2.659  0.9195  1.1372  0.7199
  187POPC   C3421575   1.958   4.716   2.816  0.3257  0.2174 -0.9886
  187POPC   H4X21576   1.949   4.826   2.804  1.7124  0.5773  0.8873
  187POPC   H4Y21577   2.061   4.695   2.851 -0.5510  1.0680  2.4235
  187POPC   C3521578   1.862   4.655   2.909 -0.1719  0.2915  0.0259
  187POPC   H5X21579   1.844   4.547   2.890 -1.4717  0.3495  0.7840
  187POPC   H5Y21580   1.763   4.706   2.904 -0.3161  0.4448  2.9272
  187POPC   C3621581   1.907   4.655   3.055 -0.7319  0.2216 -0.5489
  187POPC   H6X21582   1.925   4.761   3.085  2.1398 -0.3633  0.0702
  187POPC   H6Y21583   2.009   4.612   3.055 -0.3857  0.9378 -2.7739
  187POPC   C3721584   1.813   4.575   3.146  0.4041 -0.6442  1.1007
  187POPC   H7X21585   1.794   4.474   3.104 -0.8642 -0.1306  0.3796
  187POPC   H7Y21586   1.720   4.636   3.142  2.0797  2.0098 -0.1087
  187POPC   C3821587   1.855   4.581   3.296 -0.1374  0.4820  0.8636
  187POPC   H8X21588   1.870   4.687   3.325 -1.5195  1.0503 -0.3708
  187POPC   H8Y21589   1.950   4.525   3.310  0.3382  0.7743 -0.9706
  187POPC   C3921590   1.753   4.503   3.386 -0.4792 -0.8308  0.3345
  187POPC   H9X21591   1.732   4.400   3.348  2.3091 -1.3618  0.0249
  187POPC   H9Y21592   1.657   4.556   3.369 -0.9368 -1.9267 -0.6607
  187POPC  C31021593   1.797   4.512   3.534 -0.5319 -0.5466 -0.2504
  187POPC  H10X21594   1.782   4.618   3.562 -1.2741 -1.0138  1.2131
  187POPC  H10Y21595   1.901   4.484   3.558 -0.8079  1.2077  3.6078
  187POPC  C31121596   1.709   4.446   3.634 -0.0427  0.7759  0.5184
  187POPC  H11X21597   1.718   4.335   3.625 -1.0723  0.7859 -0.8285
  187POPC  H11Y21598   1.606   4.469   3.600  0.5737  1.5004 -0.9168
  187POPC  C31221599   1.739   4.490   3.776  0.2049  0.0527 -0.7638
  187POPC  H12X21600   1.706   4.595   3.785 -0.2337 -0.1738  0.5146
  187POPC  H12Y21601   1.850   4.486   3.786  0.3341  0.1684 -2.0358
  187POPC  C31321602   1.666   4.408   3.882 -0.4402  0.0739  0.7931
  187POPC  H13X21603   1.692   4.300   3.881 -0.5008  0.0444  1.8675
  187POPC  H13Y21604   1.560   4.408   3.848 -0.8044  1.0335  1.8600
  187POPC  C31421605   1.674   4.467   4.019  0.5578 -0.4718  0.2850
  187POPC  H14X21606   1.648   4.575   4.020 -2.1472 -1.0553  1.4360
  187POPC  H14Y21607   1.768   4.427   4.062 -0.0794 -1.4379  0.8322
  187POPC  C31521608   1.564   4.396   4.104  0.8221 -0.3494 -0.2022
  187POPC  H15X21609   1.474   4.385   4.040 -0.4258 -1.7838  1.6821
  187POPC  H15Y21610   1.530   4.461   4.188 -2.9993 -0.8031 -1.2226
  187POPC  C31621611   1.599   4.270   4.180  0.1627 -0.2372  0.7889
  187POPC  H16X21612   1.603   4.178   4.118  1.0762  0.8909 -0.9195
  187POPC  H16Y21613   1.521   4.246   4.255 -1.4922  1.5425 -0.2626
  187POPC  H16Z21614   1.692   4.268   4.240 -1.5337 -0.7518  3.5603
  188POPC     N21615   1.965   5.825   1.623  0.1311  0.1020  0.2807
  188POPC   C1221616   1.975   5.945   1.715 -0.8846  0.4140  0.7783
  188POPC  H12A21617   1.931   5.923   1.811 -1.7005  2.4817  0.9324
  188POPC  H12B21618   1.928   6.035   1.676 -3.9563 -1.7402 -0.8781
  188POPC   C1321619   1.982   5.692   1.688 -0.2554  0.1741 -0.0114
  188POPC  H13A21620   2.080   5.679   1.732  0.0277  1.1001 -0.3546
  188POPC  H13B21621   1.918   5.690   1.775  1.3520 -1.2099  1.2029
  188POPC  H13C21622   1.959   5.615   1.616  2.3003  2.0883 -3.1313
  188POPC   C1421623   1.828   5.835   1.570  0.2350 -0.0206  0.1563
  188POPC  H14A21624   1.755   5.814   1.647  0.2615 -0.6646  0.0131
  188POPC  H14B21625   1.813   5.934   1.528  0.5036  1.2835  2.9241
  188POPC  H14C21626   1.813   5.759   1.494  1.0256 -1.0187  0.9758
  188POPC   C1521627   2.059   5.827   1.507 -0.0010 -0.1876 -0.2338
  188POPC  H15A21628   2.163   5.841   1.532  0.8096 -4.1801 -0.6327
  188POPC  H15B21629   2.027   5.909   1.445 -1.1606  0.7499  1.5192
  188POPC  H15C21630   2.043   5.740   1.445 -0.7314 -0.1159 -0.1465
  188POPC   C1121631   2.120   5.988   1.755 -0.1663  0.0790  0.5327
  188POPC  H11A21632   2.111   6.077   1.821 -1.3425  1.6172 -1.5529
  188POPC  H11B21633   2.164   6.035   1.664 -0.5556 -1.1105 -0.2930
  188POPC     P21634   2.184   5.831   1.948 -0.1095  0.1603 -0.2811
  188POPC   O1321635   2.283   5.899   2.029 -0.1708 -0.0384 -0.8870
  188POPC   O1421636   2.181   5.683   1.946  0.8763 -0.1901  0.1670
  188POPC   O1221637   2.196   5.879   1.800  0.4074  0.2311  0.2293
  188POPC   O1121638   2.042   5.879   1.987 -0.1374 -0.7620 -0.0720
  188POPC    C121639   2.033   5.991   2.085 -0.6932  0.0501  0.9730
  188POPC    HA21640   1.928   6.025   2.072 -0.3202  0.3698 -1.7887
  188POPC    HB21641   2.093   6.077   2.046  0.7731 -1.7877 -1.0611
  188POPC    C221642   2.064   5.952   2.229  0.2779 -0.5635 -0.1750
  188POPC    HS21643   2.172   5.927   2.228  0.3674 -0.3582  1.8452
  188POPC   O2121644   1.982   5.836   2.252  0.3376  0.1069  0.1183
  188POPC   C2121645   2.030   5.735   2.329 -0.0130 -0.3192  0.7354
  188POPC   O2221646   2.135   5.733   2.384  0.4470 -0.0864 -0.4594
  188POPC   C2221647   1.897   5.648   2.353  0.2247  0.4614  0.0463
  188POPC   H2R21648   1.864   5.595   2.262 -0.5380  0.3153  0.4003
  188POPC   H2S21649   1.810   5.707   2.388 -1.7679 -1.6738 -1.0857
  188POPC    C321650   2.028   6.069   2.320 -0.1202  0.1423 -0.0152
  188POPC    HX21651   1.926   6.099   2.289 -0.6310 -0.3958  1.0737
  188POPC    HY21652   2.097   6.155   2.313 -0.0872  0.0668 -0.6851
  188POPC   O3121653   2.027   6.032   2.458 -0.3753  0.4670 -0.1250
  188POPC   C3121654   2.144   6.000   2.512 -0.4232  0.3141 -0.1791
  188POPC   O3221655   2.252   5.990   2.460 -0.5819  0.6779 -0.6529
  188POPC   C3221656   2.108   5.952   2.658  0.5280 -0.8463  0.5733
  188POPC   H2X21657   2.006   5.908   2.653  0.2770 -0.2185 -0.0708
  188POPC   H2Y21658   2.108   6.047   2.717 -0.2534 -0.9081  0.6864
  188POPC   C2321659   1.933   5.535   2.447 -0.1728 -0.5075  0.3878
  188POPC   H3R21660   2.038   5.500   2.437  0.0252  0.6231 -2.3313
  188POPC   H3S21661   1.870   5.446   2.424  1.2265 -2.6684  3.9714
  188POPC   C2421662   1.904   5.578   2.595  0.1061 -0.1411 -0.2408
  188POPC   H4R21663   1.947   5.678   2.618 -0.3021  0.5791 -2.3619
  188POPC   H4S21664   1.950   5.501   2.660  1.1660  0.6535 -0.0282
  188POPC   C2521665   1.754   5.586   2.638  0.6924 -0.2940 -0.2852
  188POPC   H5R21666   1.692   5.498   2.613 -0.4114 -0.8992  3.8949
  188POPC   H5S21667   1.714   5.679   2.592  1.9442  0.4184  0.0116
  188POPC   C2621668   1.754   5.596   2.795  0.5425  0.0976 -0.6080
  188POPC   H6R21669   1.817   5.682   2.825 -1.0363  0.9303  0.4859
  188POPC   H6S21670   1.800   5.509   2.846 -0.0380  0.5867  0.8023
  188POPC   C2721671   1.612   5.605   2.854 -0.6269 -0.3859  0.4060
  188POPC   H7R21672   1.568   5.504   2.838 -0.1845 -0.7108  1.1558
  188POPC   H7S21673   1.551   5.683   2.805  0.7702 -0.2415 -1.1643
  188POPC   C2821674   1.613   5.625   3.013 -0.6274  0.2076 -0.2535
  188POPC   H8R21675   1.672   5.718   3.029  1.8827 -0.9239 -2.1570
  188POPC   H8S21676   1.659   5.539   3.066 -2.0221 -0.2839  0.2150
  188POPC   C2921677   1.468   5.644   3.055 -0.9756 -0.1763  0.4313
  188POPC   H9121678   1.431   5.748   3.058 -4.1253 -1.2051  0.8977
  188POPC  C21021679   1.381   5.540   3.070 -0.5253  0.3999 -0.0672
  188POPC  H10121680   1.278   5.566   3.099 -0.7475  1.0446 -1.3424
  188POPC  C21121681   1.423   5.389   3.075 -0.3076  0.1092  0.2339
  188POPC  H11R21682   1.510   5.367   3.010 -1.5022  2.0155 -2.1938
  188POPC  H11S21683   1.338   5.328   3.038 -0.0126 -0.5242  0.5971
  188POPC  C21221684   1.457   5.358   3.220 -0.8299 -0.2004 -0.1009
  188POPC  H12R21685   1.520   5.437   3.267  0.3581 -0.3508 -1.3940
  188POPC  H12S21686   1.524   5.270   3.219 -0.2684  0.2099  0.3898
  188POPC  C21321687   1.338   5.325   3.303 -0.4471  0.3720  0.1468
  188POPC  H13R21688   1.275   5.240   3.269 -2.0345  1.4159  0.3910
  188POPC  H13S21689   1.269   5.412   3.299 -2.1374 -0.9293 -0.4710
  188POPC  C21421690   1.376   5.309   3.449 -0.5987  0.2587 -1.3061
  188POPC  H14R21691   1.463   5.372   3.477  0.8514 -1.6300 -1.3747
  188POPC  H14S21692   1.412   5.205   3.463 -0.7614  0.2981 -0.5269
  188POPC  C21521693   1.266   5.345   3.546  0.0307 -0.0137 -0.1799
  188POPC  H15R21694   1.295   5.307   3.646 -1.5204  1.1512  0.7557
  188POPC  H15S21695   1.179   5.289   3.506 -0.8473  0.4256  1.0537
  188POPC  C21621696   1.240   5.487   3.563  0.7925 -0.1849 -0.4314
  188POPC  H16R21697   1.196   5.521   3.466 -1.5043 -3.5299 -0.7665
  188POPC  H16S21698   1.336   5.537   3.587  0.2454  1.8300 -2.1401
  188POPC  C21721699   1.150   5.530   3.686  0.1176  0.8145  0.9524
  188POPC  H17R21700   1.051   5.480   3.680  0.4692 -0.3256  3.4801
  188POPC  H17S21701   1.122   5.638   3.687  0.2635  0.8512  0.9828
  188POPC  C21821702   1.215   5.508   3.820 -0.2526  0.3435 -0.4704
  188POPC  H18R21703   1.280   5.593   3.851 -0.7268  0.3626  0.5308
  188POPC  H18S21704   1.285   5.421   3.812 -0.9648 -0.3352  0.4023
  188POPC  H18T21705   1.137   5.489   3.897 -0.0497  0.1793 -0.3022
  188POPC   C3321706   2.218   5.867   2.718  0.8262 -0.4098  0.0201
  188POPC   H3X21707   2.319   5.907   2.694 -0.3098  1.2876 -2.4313
  188POPC   H3Y21708   2.212   5.767   2.669  0.2256 -0.7269  0.7203
  188POPC   C3421709   2.191   5.838   2.871  0.2365 -0.0914 -0.2902
  188POPC   H4X21710   2.209   5.936   2.921  2.0157 -1.0132  1.0208
  188POPC   H4Y21711   2.284   5.782   2.895  1.5982  1.1974 -2.2082
  188POPC   C3521712   2.061   5.771   2.906 -0.0641  0.1529  0.1452
  188POPC   H5X21713   2.050   5.682   2.842 -2.1196 -2.0380  3.2717
  188POPC   H5Y21714   1.973   5.833   2.878  0.8560  0.7729 -1.4964
  188POPC   C3621715   2.042   5.727   3.054 -0.3778 -0.6035  0.1876
  188POPC   H6X21716   2.126   5.658   3.076  2.3740  2.2184 -0.7787
  188POPC   H6Y21717   1.941   5.680   3.056  0.8881 -3.6712 -1.4563
  188POPC   C3721718   2.036   5.849   3.149 -0.5767 -0.0873  0.2834
  188POPC   H7X21719   1.979   5.937   3.111  3.8129  2.3411 -1.3351
  188POPC   H7Y21720   2.138   5.885   3.174  0.1210 -1.0974 -1.0009
  188POPC   C3821721   1.975   5.810   3.288  0.7161  0.1054 -0.1809
  188POPC   H8X21722   1.974   5.904   3.347 -1.5035  0.1026 -0.1271
  188POPC   H8Y21723   2.040   5.735   3.338  1.4142 -0.6171 -2.0545
  188POPC   C3921724   1.830   5.758   3.275 -0.1265  0.1902  0.0936
  188POPC   H9X21725   1.843   5.655   3.236  0.9381  0.0699  0.7363
  188POPC   H9Y21726   1.772   5.821   3.203 -1.1307  1.1235  1.6446
  188POPC  C31021727   1.741   5.749   3.403 -0.4183  0.0617  0.2633
  188POPC  H10X21728   1.634   5.723   3.392 -0.1991 -0.3816 -0.8760
  188POPC  H10Y21729   1.754   5.850   3.449 -2.4871  1.0079 -1.0696
  188POPC  C31121730   1.792   5.638   3.496 -1.3044  0.1511  0.4419
  188POPC  H11X21731   1.902   5.647   3.505 -1.1660 -1.0844  0.0242
  188POPC  H11Y21732   1.775   5.536   3.458 -0.1492  0.3354 -0.6193
  188POPC  C31221733   1.739   5.647   3.644 -0.0186 -0.2939 -0.2263
  188POPC  H12X21734   1.632   5.618   3.647  0.3754 -1.7493  0.9588
  188POPC  H12Y21735   1.736   5.753   3.678 -1.9342  0.7032 -3.1028
  188POPC  C31321736   1.798   5.557   3.745  0.6564 -0.6142 -0.3605
  188POPC  H13X21737   1.908   5.568   3.754  0.6410 -0.8932  0.2137
  188POPC  H13Y21738   1.782   5.455   3.706  1.5018 -0.7272 -0.4217
  188POPC  C31421739   1.721   5.573   3.875 -0.1912 -1.0058  0.3080
  188POPC  H14X21740   1.614   5.596   3.852  0.0921 -3.2012 -4.2792
  188POPC  H14Y21741   1.754   5.666   3.927 -2.3315 -0.5855  1.0280
  188POPC  C31521742   1.742   5.454   3.966 -0.4712 -0.0291  0.3684
  188POPC  H15X21743   1.722   5.486   4.070 -0.2059  0.7515  0.1864
  188POPC  H15Y21744   1.849   5.424   3.976 -0.1960  0.9643  0.5012
  188POPC  C31621745   1.648   5.341   3.920 -0.2432  0.7521  0.3069
  188POPC  H16X21746   1.663   5.252   3.985 -0.2754 -0.0135 -0.7001
  188POPC  H16Y21747   1.667   5.315   3.813 -0.3045  0.7833  0.2881
  188POPC  H16Z21748   1.542   5.374   3.928 -0.5079  0.0516 -0.1778
  189SAPI   C1221749   6.264   3.804   6.531 -0.0838  0.9698  0.1180
  189SAPI    H221750   6.309   3.714   6.483 -1.7507  0.8747 -1.3859
  189SAPI    O221751   6.359   3.897   6.574  0.0909  0.2659 -0.6610
  189SAPI   HO221752   6.400   3.928   6.493  0.5093 -1.4857 -1.1635
  189SAPI   C1321753   6.183   3.879   6.431  0.1247  0.0166 -0.3166
  189SAPI    H321754   6.098   3.813   6.402  0.2817  0.2884 -1.4415
  189SAPI    O321755   6.251   3.904   6.307  0.0141  0.1897 -0.2919
  189SAPI   HO321756   6.339   3.941   6.320  0.0961 -0.0502 -0.1397
  189SAPI   C1421757   6.120   4.009   6.490 -0.3176 -0.0395  0.1249
  189SAPI    H421758   6.205   4.080   6.484 -2.6898  2.8739 -2.4387
  189SAPI    O421759   6.030   4.075   6.396 -0.2296  0.2063  0.5518
  189SAPI   HO421760   6.070   4.143   6.341 -2.3468  2.3145  1.4900
  189SAPI   C1521761   6.051   3.993   6.625 -0.7568  0.4092 -0.9333
  189SAPI    H521762   5.945   3.969   6.600 -1.4939  1.2819  1.0735
  189SAPI    O521763   6.046   4.108   6.706  0.4594  0.1633 -0.0493
  189SAPI   HO521764   5.997   4.174   6.656  0.3464 -1.8457 -2.8268
  189SAPI   C1621765   6.103   3.872   6.717  0.7001  0.2237  1.2272
  189SAPI    H621766   6.178   3.925   6.780  1.5664  0.4483  0.0262
  189SAPI    O621767   5.999   3.820   6.802 -0.7068 -0.3801  0.2492
  189SAPI   HO621768   6.005   3.724   6.802 -1.2598 -0.4408 -1.4422
  189SAPI   C1121769   6.176   3.763   6.650  0.1537  0.2126  0.2211
  189SAPI    H121770   6.098   3.703   6.600  0.0754  0.2510  0.2977
  189SAPI     P21771   6.204   3.536   6.791 -0.3837 -0.2040 -0.1138
  189SAPI   O1321772   6.071   3.544   6.847 -0.2854  0.1238 -0.0183
  189SAPI   O1421773   6.315   3.480   6.879  0.0859 -0.5151 -0.5418
  189SAPI   O1221774   6.256   3.679   6.739  0.0379  0.3110 -0.2628
  189SAPI   O1121775   6.202   3.455   6.648  0.6381 -0.0966  0.8728
  189SAPI    C121776   6.331   3.405   6.593  0.1565  0.2750  0.2700
  189SAPI    HA21777   6.398   3.485   6.556 -0.2224 -0.4729 -2.1831
  189SAPI    HB21778   6.382   3.333   6.660 -0.5569  0.0197  0.5580
  189SAPI    C221779   6.290   3.318   6.470 -0.0241 -0.1676  0.2512
  189SAPI    HS21780   6.386   3.267   6.444 -0.2614 -0.4970  0.0134
  189SAPI   O2121781   6.248   3.392   6.349  0.2032 -0.0631 -0.3981
  189SAPI   C2121782   6.345   3.471   6.299 -0.2050  0.5089 -0.4783
  189SAPI   O2221783   6.457   3.483   6.336 -0.3394 -0.5222  0.1856
  189SAPI   C2221784   6.278   3.547   6.186 -0.3238 -0.6991 -0.0007
  189SAPI   H2R21785   6.230   3.471   6.122  0.3479 -0.9617 -0.2050
  189SAPI   H2S21786   6.188   3.599   6.224  0.1132  0.4303 -0.4585
  189SAPI    C321787   6.177   3.209   6.506  0.1808  0.3760 -0.3497
  189SAPI    HX21788   6.104   3.267   6.566  0.2133  2.2920 -2.0671
  189SAPI    HY21789   6.217   3.135   6.578  0.2333 -1.3815 -2.1011
  189SAPI   O3121790   6.113   3.149   6.395 -0.3763  0.4309  0.7199
  189SAPI   C3121791   5.995   3.098   6.417 -0.4430  0.5086  0.3318
  189SAPI   O3221792   5.956   3.075   6.530 -0.1931  0.1716  0.4335
  189SAPI   C3221793   5.922   3.058   6.289 -0.3125 -0.2271  0.3306
  189SAPI   H2X21794   5.819   3.097   6.305  0.5398  2.1621  0.3791
  189SAPI   H2Y21795   5.925   2.947   6.289  0.5896 -0.4325 -4.8119
  189SAPI   C2321796   6.372   3.635   6.099  0.2298 -0.4609  0.0676
  189SAPI   H3R21797   6.470   3.583   6.094  0.9424  0.7933  0.4273
  189SAPI   H3S21798   6.385   3.725   6.163  1.1976 -0.4480 -0.1362
  189SAPI   C2421799   6.310   3.681   5.963 -0.3101  0.4697 -0.1049
  189SAPI   H4R21800   6.294   3.594   5.897 -0.7315 -1.0006  1.8313
  189SAPI   H4S21801   6.388   3.748   5.920  1.6329 -0.3325  1.9865
  189SAPI   C2521802   6.199   3.775   5.987 -0.4312 -0.7796  0.2377
  189SAPI   H5R21803   6.224   3.856   6.056  0.3802 -0.3724 -0.5143
  189SAPI   C2621804   6.084   3.774   5.915 -1.0157  0.3200 -0.1200
  189SAPI   H6R21805   6.001   3.844   5.928 -0.3227  1.2402 -0.5026
  189SAPI   C2721806   6.066   3.669   5.804  0.4665 -0.3155 -0.4319
  189SAPI   H7R21807   6.060   3.567   5.847  2.3782  0.0228  0.7637
  189SAPI   H7S21808   6.157   3.669   5.740  0.7297 -0.6093 -0.0658
  189SAPI   C2821809   5.957   3.701   5.715  0.0511  0.3654  0.6626
  189SAPI   H8R21810   5.878   3.764   5.759 -1.7748  0.2157 -2.1381
  189SAPI   C2921811   5.956   3.685   5.582  0.0468 -0.3624  0.1111
  189SAPI   H9R21812   5.865   3.710   5.525  0.4678 -2.2292 -1.4842
  189SAPI  C21021813   6.077   3.629   5.506 -0.3162 -0.4219  0.1019
  189SAPI  H10R21814   6.048   3.560   5.424  1.3491  0.4948 -1.3255
  189SAPI  H10S21815   6.143   3.566   5.570  1.6312  3.3882  2.2367
  189SAPI  C21121816   6.162   3.753   5.460 -0.0124 -0.3216 -1.0958
  189SAPI  H11R21817   6.223   3.801   5.538 -0.1536 -3.2556  0.9913
  189SAPI  C21221818   6.182   3.787   5.328 -0.4119  0.3874 -0.6956
  189SAPI  H12R21819   6.245   3.876   5.310  3.0135 -1.7079 -0.0977
  189SAPI  C21321820   6.113   3.730   5.200 -0.4990  0.0351 -0.0137
  189SAPI  H13R21821   6.010   3.704   5.234 -0.3675 -2.1830 -1.1131
  189SAPI  H13S21822   6.173   3.643   5.163 -1.1101 -0.4049  0.0091
  189SAPI  C21421823   6.097   3.826   5.086 -0.5677  0.3835 -0.5807
  189SAPI  H14R21824   6.090   3.930   5.123  0.5224  0.6251 -1.0155
  189SAPI  C21521825   6.107   3.807   4.953 -0.1008  0.3604 -0.2556
  189SAPI  H15R21826   6.081   3.880   4.874  2.4766  0.9412 -0.6584
  189SAPI  C21621827   6.140   3.677   4.880  0.4747 -0.1717 -0.1107
  189SAPI  H16R21828   6.065   3.661   4.800  2.7065 -1.4858 -2.0498
  189SAPI  H16S21829   6.149   3.586   4.943  1.7687  0.3160  0.4309
  189SAPI  C21721830   6.271   3.704   4.802  0.4824  0.4212 -0.6787
  189SAPI  H17R21831   6.351   3.730   4.875  0.1603  0.6668 -0.4067
  189SAPI  H17S21832   6.263   3.789   4.732  0.9886 -0.3027 -1.6303
  189SAPI  C21821833   6.314   3.579   4.729  0.3105  0.0128  0.4815
  189SAPI  H18R21834   6.267   3.586   4.629  0.2525  2.8140  0.6248
  189SAPI  H18S21835   6.291   3.480   4.776 -1.3230 -0.1745 -0.6343
  189SAPI  C21921836   6.461   3.595   4.703  0.7774  0.2441  0.5858
  189SAPI  H19R21837   6.509   3.591   4.803  0.1196  0.0053  0.9005
  189SAPI  H19S21838   6.481   3.694   4.658  0.3770  0.7077  1.4134
  189SAPI  C22021839   6.517   3.478   4.623  0.3398  0.7053 -0.3401
  189SAPI  H20R21840   6.518   3.378   4.670  2.7649  0.6182 -0.4423
  189SAPI  H20S21841   6.621   3.498   4.590  0.1024  0.4304 -1.2752
  189SAPI  H20T21842   6.447   3.462   4.538 -0.4163 -1.3690  0.6172
  189SAPI   C3321843   5.981   3.106   6.156  0.4215 -0.2843 -0.3406
  189SAPI   H3X21844   5.936   3.046   6.074 -1.4369  0.0567  0.3726
  189SAPI   H3Y21845   6.091   3.091   6.150  0.6059  0.9711 -0.3740
  189SAPI   C3421846   5.945   3.256   6.139  0.3723 -0.4943  0.5672
  189SAPI   H4X21847   6.014   3.312   6.206  0.2338 -1.3912  1.4778
  189SAPI   H4Y21848   5.838   3.275   6.163  0.1178 -0.4665 -0.5352
  189SAPI   C3521849   5.965   3.299   5.987  0.2840 -0.1100  0.1394
  189SAPI   H5X21850   6.060   3.246   5.964  0.9417  0.7294  0.8886
  189SAPI   H5Y21851   5.994   3.406   5.982 -1.3674  0.3861  0.6939
  189SAPI   C3621852   5.848   3.270   5.898 -0.4800  0.2644 -0.2784
  189SAPI   H6X21853   5.772   3.346   5.925 -0.7677  0.6259 -1.9742
  189SAPI   H6Y21854   5.815   3.164   5.907 -0.5777  0.2232 -1.0213
  189SAPI   C3721855   5.875   3.304   5.746  0.6795 -0.5857  0.8689
  189SAPI   H7X21856   5.969   3.259   5.711  0.7475 -0.2043  0.5566
  189SAPI   H7Y21857   5.884   3.413   5.725  1.1428 -1.1544 -2.2247
  189SAPI   C3821858   5.750   3.246   5.675 -0.2430 -0.0969 -0.0311
  189SAPI   H8X21859   5.659   3.273   5.733 -1.9295 -2.5908 -1.3588
  189SAPI   H8Y21860   5.755   3.135   5.671 -0.8082 -0.2603  2.4347
  189SAPI   C3921861   5.734   3.294   5.529  0.0513  0.5343  0.1012
  189SAPI   H9X21862   5.680   3.390   5.522 -0.5284  0.1749 -0.5911
  189SAPI   H9Y21863   5.678   3.208   5.485  1.1364 -0.2651  0.2618
  189SAPI  C31021864   5.859   3.314   5.457  0.1226  0.0930 -0.1818
  189SAPI  H10X21865   5.924   3.227   5.481  0.0904  0.2341  0.4268
  189SAPI  H10Y21866   5.920   3.397   5.497  1.7497 -1.1820  0.0827
  189SAPI  C31121867   5.838   3.347   5.305  0.4755 -0.4068  0.1358
  189SAPI  H11X21868   5.818   3.255   5.247  1.0664 -0.0591 -0.6394
  189SAPI  H11Y21869   5.932   3.384   5.259  0.1270 -0.1763 -0.3956
  189SAPI  C31221870   5.730   3.457   5.284  0.2341  0.4395  0.0018
  189SAPI  H12X21871   5.758   3.539   5.353 -0.6880  0.2280  0.6591
  189SAPI  H12Y21872   5.629   3.428   5.321  0.1537  0.6589 -0.0473
  189SAPI  C31321873   5.729   3.525   5.140 -0.0620  0.4019 -0.6128
  189SAPI  H13X21874   5.698   3.445   5.070 -0.1890  1.2733 -1.5906
  189SAPI  H13Y21875   5.839   3.532   5.122  0.5084 -2.2882  1.3110
  189SAPI  C31421876   5.639   3.645   5.137  0.3318 -0.2365 -0.3018
  189SAPI  H14X21877   5.669   3.717   5.217 -1.3472 -0.8741  0.9866
  189SAPI  H14Y21878   5.535   3.610   5.154 -0.1610 -0.2218 -2.9218
  189SAPI  C31521879   5.623   3.728   5.008 -0.3799  0.2575  0.0062
  189SAPI  H15X21880   5.723   3.776   4.995  0.1600 -0.2588  1.9234
  189SAPI  H15Y21881   5.544   3.805   5.022 -1.0232 -0.2640 -0.6942
  189SAPI  C31621882   5.594   3.646   4.873  0.2525 -0.0542 -0.0340
  189SAPI  H16X21883   5.684   3.585   4.853 -0.0557 -0.2697 -0.8194
  189SAPI  H16Y21884   5.586   3.721   4.791 -0.2127  0.7578  0.7300
  189SAPI  C31721885   5.463   3.567   4.873  0.3958 -0.6698  0.3279
  189SAPI  H17X21886   5.375   3.634   4.880  0.8659  0.3584 -2.5631
  189SAPI  H17Y21887   5.467   3.488   4.952 -1.4297 -1.4804 -0.3387
  189SAPI  C31821888   5.444   3.499   4.744 -0.3801  0.3917  0.6628
  189SAPI  H18X21889   5.531   3.444   4.702 -0.4687  0.0812  0.8800
  189SAPI  H18Y21890   5.398   3.558   4.662 -0.0314 -1.6722 -1.1017
  189SAPI  H18Z21891   5.374   3.415   4.768 -1.0572  0.4480 -0.9566
  190SAPI   C1221892   3.928   6.954   6.982  0.1178 -0.3491  0.4530
  190SAPI    H221893   3.817   6.951   6.986  0.1272 -0.1146  0.9963
  190SAPI    O221894   3.977   7.016   7.097 -0.7332  0.6066  0.2195
  190SAPI   HO221895   3.995   7.110   7.085 -0.7501  0.6343  0.4049
  190SAPI   C1321896   3.971   6.809   6.971  0.1610  0.3227  0.2958
  190SAPI    H321897   3.943   6.769   6.871  0.3453 -0.1855  0.4461
  190SAPI    O321898   3.910   6.724   7.070  0.1877 -0.1133 -0.4080
  190SAPI   HO321899   3.827   6.762   7.102  1.0513  1.8220 -0.3327
  190SAPI   C1421900   4.123   6.797   6.971 -0.0862  0.7212 -0.1518
  190SAPI    H421901   4.157   6.834   7.071 -1.2065  1.2450  0.0444
  190SAPI    O421902   4.170   6.662   6.953 -0.6789 -1.1809 -0.3510
  190SAPI   HO421903   4.189   6.620   7.037  1.9971 -1.7249 -1.1555
  190SAPI   C1521904   4.194   6.895   6.876  0.1438 -0.2467  0.3532
  190SAPI    H521905   4.210   6.849   6.777 -1.9771  1.0879 -0.6916
  190SAPI    O521906   4.330   6.929   6.918 -0.7820  0.2680 -0.1551
  190SAPI   HO521907   4.385   6.901   6.844  0.7435  0.6880  0.7890
  190SAPI   C1621908   4.118   7.023   6.838 -0.2538 -0.0955  0.1477
  190SAPI    H621909   4.177   7.098   6.894  0.1553 -0.7325  0.5788
  190SAPI    O621910   4.151   7.070   6.710 -0.4552  0.4057  0.0484
  190SAPI   HO621911   4.137   7.006   6.639  0.7277 -0.8594  0.8966
  190SAPI   C1121912   3.971   7.034   6.858  0.4590 -0.8747  0.4160
  190SAPI    H121913   3.923   6.983   6.772  0.2529 -0.5577  0.3418
  190SAPI     P21914   3.787   7.229   6.806  0.3121 -0.0747  0.2826
  190SAPI   O1321915   3.782   7.371   6.852  0.4211  0.6027  0.1347
  190SAPI   O1421916   3.673   7.142   6.840  0.0975  0.2935  0.6697
  190SAPI   O1221917   3.924   7.170   6.871 -0.0621 -0.1779 -0.5997
  190SAPI   O1121918   3.810   7.233   6.648 -0.0135  0.4313  0.2175
  190SAPI    C121919   3.915   7.305   6.582  0.1835 -0.0067 -0.4468
  190SAPI    HA21920   3.994   7.347   6.649 -1.8291  0.7441  1.5778
  190SAPI    HB21921   3.967   7.234   6.514  1.0430 -1.5236  1.6740
  190SAPI    C221922   3.858   7.418   6.493 -0.4019  0.7769 -0.1763
  190SAPI    HS21923   3.788   7.480   6.553 -0.0009  2.1919 -1.1333
  190SAPI   O2121924   3.789   7.347   6.389 -0.1002  0.3485  0.5555
  190SAPI   C2121925   3.665   7.349   6.381  0.4219 -1.1571  0.5052
  190SAPI   O2221926   3.588   7.419   6.449 -0.5096 -0.1950  0.0275
  190SAPI   C2221927   3.618   7.273   6.262  0.3625  0.6900  0.4804
  190SAPI   H2R21928   3.670   7.175   6.259  1.5549  1.3401 -1.1703
  190SAPI   H2S21929   3.507   7.261   6.266  0.3791  0.1297 -0.4047
  190SAPI    C321930   3.983   7.499   6.443  0.2480 -0.3376 -0.5493
  190SAPI    HX21931   4.023   7.548   6.535  1.1356 -1.2864 -0.4130
  190SAPI    HY21932   3.949   7.573   6.367  1.9895 -0.1256 -1.1726
  190SAPI   O3121933   4.076   7.404   6.386  0.5324 -0.8652 -0.2116
  190SAPI   C3121934   4.078   7.388   6.258  0.3105 -0.3818  0.3016
  190SAPI   O3221935   4.027   7.470   6.179  0.2444 -0.0873 -0.0620
  190SAPI   C3221936   4.132   7.247   6.212  0.1319  0.3803 -0.2591
  190SAPI   H2X21937   4.039   7.190   6.191 -0.1815  1.2579 -1.3806
  190SAPI   H2Y21938   4.186   7.194   6.293 -0.9195 -1.9499 -0.9932
  190SAPI   C2321939   3.674   7.341   6.134 -0.0546  0.7572  0.0911
  190SAPI   H3R21940   3.784   7.352   6.132  0.2194 -1.5031  0.0020
  190SAPI   H3S21941   3.628   7.442   6.123 -0.1056  0.5567 -1.8862
  190SAPI   C2421942   3.631   7.270   6.006 -0.6906 -0.3758 -0.3973
  190SAPI   H4R21943   3.639   7.346   5.926  0.4117  0.5753  0.5796
  190SAPI   H4S21944   3.523   7.242   6.015 -1.2135  1.9902  1.6873
  190SAPI   C2521945   3.722   7.155   5.977 -0.5778  0.3795  0.5763
  190SAPI   H5R21946   3.710   7.066   6.040  2.2663  0.6065  1.5757
  190SAPI   C2621947   3.820   7.140   5.887 -0.4176 -0.6165 -0.9794
  190SAPI   H6R21948   3.871   7.043   5.896  2.5219  0.9128  0.5071
  190SAPI   C2721949   3.891   7.248   5.808 -0.2940  0.3776 -0.5675
  190SAPI   H7R21950   3.999   7.227   5.796 -0.2726  0.8779 -1.3344
  190SAPI   H7S21951   3.886   7.343   5.864 -1.5978 -1.0022  1.8148
  190SAPI   C2821952   3.840   7.256   5.668  0.5505 -0.2230  0.0712
  190SAPI   H8R21953   3.731   7.272   5.664  0.4957 -0.2799  1.1419
  190SAPI   C2921954   3.906   7.253   5.546  0.1130  0.7183  0.1990
  190SAPI   H9R21955   3.853   7.262   5.451  1.3507  0.8887 -0.5039
  190SAPI  C21021956   4.051   7.232   5.517  0.4121 -0.0368  0.2509
  190SAPI  H10R21957   4.113   7.302   5.577  1.4128 -1.0196  0.4073
  190SAPI  H10S21958   4.072   7.247   5.409 -4.6416 -2.5039 -1.3724
  190SAPI  C21121959   4.095   7.093   5.550  0.5285 -0.1187  0.9546
  190SAPI  H11R21960   4.053   7.039   5.637  0.3923 -4.1525 -1.3522
  190SAPI  C21221961   4.174   7.019   5.473 -0.0521  0.1376  1.0104
  190SAPI  H12R21962   4.182   6.911   5.492 -2.2484 -0.6993 -2.1070
  190SAPI  C21321963   4.247   7.064   5.345  0.2971  0.6077 -0.5677
  190SAPI  H13R21964   4.357   7.064   5.363  0.2601  0.6844 -0.3363
  190SAPI  H13S21965   4.222   7.168   5.316  0.6853  0.8203 -0.1486
  190SAPI  C21421966   4.214   6.956   5.246  0.8313 -0.3386  0.4701
  190SAPI  H14R21967   4.278   6.867   5.251  0.3389 -0.7287 -0.0194
  190SAPI  C21521968   4.124   6.964   5.143 -0.1675 -0.2683 -0.6127
  190SAPI  H15R21969   4.096   6.874   5.085 -0.7959  0.8401 -2.0821
  190SAPI  C21621970   4.041   7.081   5.100 -0.4886  0.4005  0.1237
  190SAPI  H16R21971   4.072   7.176   5.150  0.6076  0.8865 -1.3917
  190SAPI  H16S21972   3.940   7.051   5.134  0.0035 -2.2946 -0.5789
  190SAPI  C21721973   4.060   7.116   4.945  0.0670  0.5679  0.0679
  190SAPI  H17R21974   4.165   7.126   4.913 -0.2621  2.5107 -0.5376
  190SAPI  H17S21975   4.020   7.220   4.934 -1.1765 -0.0512 -1.8469
  190SAPI  C21821976   3.979   7.025   4.850  0.2941  0.0580  0.8377
  190SAPI  H18R21977   3.875   7.025   4.889  0.9675  2.7502  2.9679
  190SAPI  H18S21978   4.031   6.926   4.850 -0.0370 -0.1879 -1.9203
  190SAPI  C21921979   3.994   7.068   4.700  0.4630  0.0602  0.3299
  190SAPI  H19R21980   4.101   7.089   4.683  0.6278 -0.9658  0.0349
  190SAPI  H19S21981   3.953   7.169   4.677 -0.9542 -0.6592 -0.4002
  190SAPI  C22021982   3.937   6.970   4.596 -0.0282  0.4342  0.5346
  190SAPI  H20R21983   3.844   6.919   4.631  1.1615 -1.3198  1.2560
  190SAPI  H20S21984   3.999   6.883   4.566 -1.3990 -0.9285  1.5083
  190SAPI  H20T21985   3.918   7.034   4.507 -0.4458  0.1888  0.4414
  190SAPI   C3321986   4.213   7.262   6.085  0.6879 -0.0188 -0.0558
  190SAPI   H3X21987   4.165   7.330   6.011  2.1256 -0.8775 -1.8681
  190SAPI   H3Y21988   4.206   7.160   6.042 -0.4440 -1.3590  3.0064
  190SAPI   C3421989   4.346   7.329   6.113  0.3283  0.5921  0.4307
  190SAPI   H4X21990   4.405   7.271   6.188 -1.0130 -0.8724  0.4035
  190SAPI   H4Y21991   4.326   7.423   6.170 -1.9749  0.2781  0.2382
  190SAPI   C3521992   4.422   7.347   5.980 -0.0867  0.3269 -0.3608
  190SAPI   H5X21993   4.521   7.391   6.004  0.0418  0.2851 -0.8045
  190SAPI   H5Y21994   4.375   7.417   5.908 -0.8836  2.3645  1.9824
  190SAPI   C3621995   4.435   7.209   5.908  0.0604 -0.4492 -0.5123
  190SAPI   H6X21996   4.331   7.178   5.886 -1.0682  1.8636  1.2253
  190SAPI   H6Y21997   4.488   7.147   5.984 -0.7570  0.2109  0.6401
  190SAPI   C3721998   4.508   7.222   5.770 -0.2702 -0.5098 -0.0805
  190SAPI   H7X21999   4.542   7.125   5.728 -0.3554 -0.8941  0.7139
  190SAPI   H7Y22000   4.595   7.285   5.796 -0.6076 -0.4431  0.9429
  190SAPI   C3822001   4.422   7.288   5.663  0.0295  0.2032  0.2139
  190SAPI   H8X22002   4.388   7.393   5.677 -2.3439 -0.4211 -0.4449
  190SAPI   H8Y22003   4.330   7.232   5.634  0.0725 -0.2025  0.8479
  190SAPI   C3922004   4.502   7.300   5.524  0.7686  0.4553  0.3836
  190SAPI   H9X22005   4.525   7.193   5.503 -1.3099 -0.2546  1.4664
  190SAPI   H9Y22006   4.590   7.360   5.557  0.7414  1.0385 -0.5668
  190SAPI  C31022007   4.424   7.355   5.403  0.3005  0.2020 -0.1210
  190SAPI  H10X22008   4.420   7.465   5.407 -2.3817  0.1738  0.1336
  190SAPI  H10Y22009   4.316   7.331   5.417  0.7269 -0.2526  3.0290
  190SAPI  C31122010   4.483   7.313   5.276  0.3355 -0.7889  0.4076
  190SAPI  H11X22011   4.505   7.204   5.276  0.1248 -0.9400  3.6786
  190SAPI  H11Y22012   4.578   7.368   5.258 -0.5960  0.1056 -2.2420
  190SAPI  C31222013   4.392   7.357   5.163 -0.1118  0.5084 -0.1448
  190SAPI  H12X22014   4.399   7.468   5.171  0.0062  0.5966 -1.3385
  190SAPI  H12Y22015   4.292   7.313   5.180  1.0951 -1.8753  1.2890
  190SAPI  C31322016   4.457   7.321   5.031 -0.2169 -0.4007  0.7027
  190SAPI  H13X22017   4.462   7.210   5.037 -0.0358 -0.3465  1.9287
  190SAPI  H13Y22018   4.565   7.349   5.038 -0.2843 -0.3919  2.1105
  190SAPI  C31422019   4.389   7.384   4.911 -0.3385  0.3492  0.0037
  190SAPI  H14X22020   4.392   7.494   4.897  0.2046 -0.0236 -3.8546
  190SAPI  H14Y22021   4.283   7.349   4.916  0.0578 -0.7557  1.8744
  190SAPI  C31522022   4.434   7.337   4.776 -0.8868  0.1767  0.6238
  190SAPI  H15X22023   4.428   7.226   4.777  0.4377  0.0895  1.6290
  190SAPI  H15Y22024   4.543   7.357   4.774 -0.1112 -3.3800 -0.1564
  190SAPI  C31622025   4.361   7.400   4.668  0.3986  0.4630 -0.0260
  190SAPI  H16X22026   4.348   7.508   4.692  0.3165  0.3242  0.5503
  190SAPI  H16Y22027   4.269   7.345   4.641  1.1974  0.0322 -2.0532
  190SAPI  C31722028   4.435   7.407   4.533 -0.5147  0.1623  0.1086
  190SAPI  H17X22029   4.542   7.422   4.560 -0.0588 -2.7984  0.3337
  190SAPI  H17Y22030   4.402   7.501   4.483 -2.3897 -0.7799 -0.5279
  190SAPI  C31822031   4.424   7.299   4.424 -0.5636  0.1943 -0.2382
  190SAPI  H18X22032   4.468   7.213   4.479  0.7808  1.0615  0.0857
  190SAPI  H18Y22033   4.481   7.329   4.334  2.4125 -0.9322  1.1475
  190SAPI  H18Z22034   4.317   7.291   4.395 -0.4127 -0.4450 -0.6449
  191SAPI   C1222035   4.725   1.488   2.411 -0.0112 -0.0988  0.8117
  191SAPI    H222036   4.762   1.446   2.507 -0.4851 -0.5324  0.8100
  191SAPI    O222037   4.835   1.483   2.322 -0.6075  0.1298  0.5370
  191SAPI   HO222038   4.891   1.561   2.323 -1.7791  0.9972  0.4406
  191SAPI   C1322039   4.607   1.401   2.365 -0.3302 -0.2684 -0.7498
  191SAPI    H322040   4.534   1.411   2.448  0.5096  1.0642 -0.1311
  191SAPI    O322041   4.647   1.264   2.371 -0.1642  0.6146  0.5161
  191SAPI   HO322042   4.644   1.222   2.457  1.4242 -0.4687  0.0721
  191SAPI   C1422043   4.534   1.451   2.239  0.4264 -0.1495 -0.1134
  191SAPI    H422044   4.600   1.433   2.151  0.1019 -2.1854  0.0100
  191SAPI    O422045   4.415   1.378   2.214 -0.6131  0.2814  0.6983
  191SAPI   HO422046   4.427   1.287   2.240 -1.5458  0.5335  2.1606
  191SAPI   C1522047   4.509   1.607   2.235 -0.1240  0.3511 -0.1161
  191SAPI    H522048   4.419   1.609   2.300 -0.2294  0.5761 -0.2696
  191SAPI    O522049   4.487   1.658   2.106 -0.3006 -0.1108 -0.2529
  191SAPI   HO522050   4.555   1.724   2.086 -0.0864 -0.4772 -0.7631
  191SAPI   C1622051   4.609   1.692   2.316  0.0576 -0.5142 -0.6056
  191SAPI    H622052   4.685   1.721   2.240  1.3477 -1.3909  0.2969
  191SAPI    O622053   4.546   1.818   2.345 -0.7615  0.0800 -0.1259
  191SAPI   HO622054   4.487   1.802   2.419 -0.3537 -2.7400 -0.2876
  191SAPI   C1122055   4.677   1.634   2.436 -0.1485 -0.2661 -0.8277
  191SAPI    H122056   4.603   1.615   2.517 -0.0270  0.2147 -0.6003
  191SAPI     P22057   4.794   1.770   2.636  0.1434 -0.0152  0.3166
  191SAPI   O1322058   4.657   1.800   2.674  0.0400 -0.5148  0.0157
  191SAPI   O1422059   4.889   1.881   2.636 -0.1397  0.3959 -0.3468
  191SAPI   O1222060   4.789   1.711   2.483  0.2770  0.6798  0.4784
  191SAPI   O1122061   4.846   1.652   2.721 -0.3834 -0.2375  0.2158
  191SAPI    C122062   4.874   1.654   2.862  0.1513  0.0465 -0.5079
  191SAPI    HA22063   4.953   1.580   2.886  0.2237  0.2647 -0.0652
  191SAPI    HB22064   4.910   1.757   2.883 -2.7065  0.7564  1.7116
  191SAPI    C222065   4.749   1.642   2.949  0.1961  0.1930 -0.4543
  191SAPI    HS22066   4.676   1.723   2.925 -1.9361 -1.0024  1.6182
  191SAPI   O2122067   4.779   1.648   3.097 -0.9439  0.0781  0.0032
  191SAPI   C2122068   4.807   1.775   3.141  0.0028 -0.2885 -0.5989
  191SAPI   O2222069   4.768   1.875   3.080  0.6871  0.0191 -0.0388
  191SAPI   C2222070   4.852   1.769   3.285  0.3787 -0.0974 -0.4979
  191SAPI   H2R22071   4.784   1.707   3.347  0.6562 -0.6683 -0.7559
  191SAPI   H2S22072   4.951   1.721   3.294  0.4375 -0.0390 -0.7997
  191SAPI    C322073   4.689   1.509   2.904  0.7265  0.3102  0.3775
  191SAPI    HX22074   4.658   1.509   2.797  0.4890 -1.5498  0.4037
  191SAPI    HY22075   4.588   1.503   2.951  1.4125 -0.3767  1.8266
  191SAPI   O3122076   4.774   1.394   2.925  1.0769  0.3988  0.4877
  191SAPI   C3122077   4.727   1.305   3.023  0.4021 -0.0926  0.2734
  191SAPI   O3222078   4.618   1.319   3.075  0.0373  0.1591 -0.0852
  191SAPI   C3222079   4.839   1.205   3.059  0.6604  0.6004 -0.1080
  191SAPI   H2X22080   4.928   1.270   3.073  0.6621  0.1952  2.0868
  191SAPI   H2Y22081   4.862   1.146   2.968 -1.3550 -1.7114  0.7850
  191SAPI   C2322082   4.860   1.912   3.342  0.2230 -0.3100  0.2676
  191SAPI   H3R22083   4.759   1.959   3.338  0.9110  1.1346 -1.6785
  191SAPI   H3S22084   4.909   1.982   3.272  0.2663  1.6868  2.1708
  191SAPI   C2422085   4.927   1.906   3.478  0.1404  0.1526 -0.8308
  191SAPI   H4R22086   5.031   1.867   3.476 -0.5404 -1.8956  0.5255
  191SAPI   H4S22087   4.878   1.828   3.540 -0.8349  1.0248 -0.4710
  191SAPI   C2522088   4.940   2.034   3.555  0.1530  0.7954 -0.5398
  191SAPI   H5R22089   4.939   2.131   3.502  0.4069  0.8128 -0.5143
  191SAPI   C2622090   4.967   2.039   3.688  0.8097 -0.4398 -0.6860
  191SAPI   H6R22091   4.981   2.141   3.728  1.1065 -1.1258  1.0593
  191SAPI   C2722092   4.980   1.916   3.773  0.2479 -0.5571 -0.1604
  191SAPI   H7R22093   5.020   1.831   3.715  0.1912 -0.0127 -1.0316
  191SAPI   H7S22094   4.875   1.889   3.800  1.0456 -3.1481  0.6159
  191SAPI   C2822095   5.056   1.947   3.899 -0.4659  0.7028 -0.3219
  191SAPI   H8R22096   5.147   2.005   3.883  0.0192 -0.2112 -0.9601
  191SAPI   C2922097   5.030   1.910   4.026 -0.2157  0.1414  0.1228
  191SAPI   H9R22098   5.097   1.941   4.107 -0.3760 -0.4611  0.4895
  191SAPI  C21022099   4.908   1.831   4.069  0.4220  0.1183 -0.6456
  191SAPI  H10R22100   4.878   1.759   3.990 -0.0196 -1.1679  0.6660
  191SAPI  H10S22101   4.819   1.899   4.068 -1.4193 -2.1396  0.3086
  191SAPI  C21122102   4.919   1.767   4.205 -0.2582 -0.4185 -0.4309
  191SAPI  H11R22103   4.965   1.670   4.227  0.5454  0.5843  3.0411
  191SAPI  C21222104   4.875   1.820   4.323 -0.2373 -0.1573  0.5775
  191SAPI  H12R22105   4.912   1.771   4.414 -0.7766 -0.2202  0.7655
  191SAPI  C21322106   4.788   1.945   4.338 -0.8736  1.2142  0.2603
  191SAPI  H13R22107   4.829   2.015   4.263 -0.6735  3.3067  2.1971
  191SAPI  H13S22108   4.805   2.006   4.429  1.4410  1.4923 -0.2926
  191SAPI  C21422109   4.642   1.942   4.314 -0.0085 -0.1339 -0.2630
  191SAPI  H14R22110   4.610   1.952   4.210 -2.2253 -0.6937  0.3227
  191SAPI  C21522111   4.542   1.949   4.409 -0.1306  0.3127  0.2830
  191SAPI  H15R22112   4.437   1.950   4.379 -0.3947 -0.7619  1.1056
  191SAPI  C21622113   4.563   1.954   4.562 -0.2822 -0.4637 -0.3478
  191SAPI  H16R22114   4.518   2.051   4.593  3.1653  0.9494  0.7064
  191SAPI  H16S22115   4.669   1.969   4.591 -0.6725  3.6825 -0.3735
  191SAPI  C21722116   4.498   1.834   4.627 -0.0742  0.4419 -0.5933
  191SAPI  H17R22117   4.530   1.829   4.734  3.2493 -0.3726 -1.5263
  191SAPI  H17S22118   4.548   1.745   4.583  0.8274  1.1523 -1.0399
  191SAPI  C21822119   4.343   1.823   4.622 -0.9911  0.3729 -0.5222
  191SAPI  H18R22120   4.309   1.777   4.527 -0.0107 -1.8924  0.1634
  191SAPI  H18S22121   4.299   1.924   4.637 -1.6205 -0.1605  1.6900
  191SAPI  C21922122   4.288   1.741   4.740  0.5254 -0.4403 -0.0186
  191SAPI  H19R22123   4.273   1.813   4.824 -0.0119  1.8345 -1.9295
  191SAPI  H19S22124   4.358   1.660   4.768 -0.0418 -1.5615 -1.6644
  191SAPI  C22022125   4.159   1.673   4.712  0.0685  0.0535  0.2958
  191SAPI  H20R22126   4.177   1.592   4.638 -0.2264 -0.5481  0.8836
  191SAPI  H20S22127   4.083   1.744   4.673 -1.0606  0.3167  2.7826
  191SAPI  H20T22128   4.112   1.627   4.801 -0.5180 -0.6522 -0.3752
  191SAPI   C3322129   4.810   1.108   3.173  0.8854  0.3561 -0.2249
  191SAPI   H3X22130   4.741   1.028   3.138  0.7457 -0.1882  1.2302
  191SAPI   H3Y22131   4.761   1.159   3.259 -0.8700  0.2583 -1.1076
  191SAPI   C3422132   4.931   1.029   3.220  0.1998  0.1557  0.1838
  191SAPI   H4X22133   5.023   1.083   3.250  0.8024 -0.4037 -0.6353
  191SAPI   H4Y22134   4.965   0.972   3.131 -0.2307  1.6530 -0.9781
  191SAPI   C3522135   4.903   0.926   3.334  0.3138 -0.7053  0.4173
  191SAPI   H5X22136   4.997   0.865   3.335  0.6272 -0.2320  0.1960
  191SAPI   H5Y22137   4.826   0.854   3.299  0.1531 -1.1267  1.6003
  191SAPI   C3622138   4.879   0.988   3.470 -0.7915 -0.3989 -0.4981
  191SAPI   H6X22139   4.785   1.046   3.462 -0.1318  0.5035 -2.6499
  191SAPI   H6Y22140   4.956   1.063   3.500 -1.8046 -0.8021  3.7113
  191SAPI   C3722141   4.867   0.880   3.581  0.4662  0.4574 -0.1843
  191SAPI   H7X22142   4.939   0.797   3.567 -2.4240 -2.1784 -0.4256
  191SAPI   H7Y22143   4.766   0.841   3.557  1.1673 -1.4350 -0.1930
  191SAPI   C3822144   4.867   0.929   3.727  0.2370  0.3659  0.8326
  191SAPI   H8X22145   4.785   1.002   3.747  1.3119  1.4634  1.3107
  191SAPI   H8Y22146   4.960   0.983   3.754  0.8807  0.3500 -1.2546
  191SAPI   C3922147   4.839   0.823   3.834  0.0653 -0.5156  0.2676
  191SAPI   H9X22148   4.916   0.742   3.834  1.2004  0.5364  0.7407
  191SAPI   H9Y22149   4.734   0.787   3.843  0.2570 -1.0622  0.3950
  191SAPI  C31022150   4.850   0.882   3.973  0.4292 -0.0813 -0.7998
  191SAPI  H10X22151   4.770   0.957   3.988  0.2027  0.4151 -3.9926
  191SAPI  H10Y22152   4.950   0.927   3.989  0.4985 -0.1526 -1.0242
  191SAPI  C31122153   4.846   0.774   4.089  0.0598 -0.4409  0.1080
  191SAPI  H11X22154   4.926   0.702   4.062  2.1989  2.2678 -1.2179
  191SAPI  H11Y22155   4.757   0.707   4.093  0.6654 -1.2831 -0.1425
  191SAPI  C31222156   4.854   0.825   4.235  0.3840 -0.5288  0.0281
  191SAPI  H12X22157   4.950   0.876   4.261  0.3148 -1.3762  2.1573
  191SAPI  H12Y22158   4.848   0.734   4.299 -1.1271  0.1868  0.9628
  191SAPI  C31322159   4.747   0.922   4.265  0.0585  0.1826 -0.1308
  191SAPI  H13X22160   4.653   0.875   4.230 -0.6566  2.5913 -1.6696
  191SAPI  H13Y22161   4.751   1.013   4.201  1.2378 -0.2521 -0.7052
  191SAPI  C31422162   4.735   0.954   4.413 -0.2627 -0.3429  0.1625
  191SAPI  H14X22163   4.789   1.050   4.423 -3.2115  1.9349 -3.1592
  191SAPI  H14Y22164   4.792   0.878   4.471  0.0634 -0.6028 -0.4806
  191SAPI  C31522165   4.595   0.977   4.465 -0.5679 -0.4120  0.5012
  191SAPI  H15X22166   4.542   0.886   4.429  2.1666 -1.1994 -1.8290
  191SAPI  H15Y22167   4.547   1.067   4.421  0.1799 -0.5358 -0.5858
  191SAPI  C31622168   4.588   0.992   4.619 -0.4596 -0.1431  0.0651
  191SAPI  H16X22169   4.646   1.084   4.642 -0.4943  0.7178 -2.9284
  191SAPI  H16Y22170   4.632   0.911   4.682 -0.1321 -0.0537 -0.0427
  191SAPI  C31722171   4.442   1.033   4.662 -0.5883  0.4275 -0.0604
  191SAPI  H17X22172   4.414   1.110   4.588  0.8528 -0.4220 -1.5627
  191SAPI  H17Y22173   4.448   1.070   4.767 -1.2351  0.8480 -0.1738
  191SAPI  C31822174   4.333   0.929   4.655  0.5364  0.3267 -0.0236
  191SAPI  H18X22175   4.237   0.965   4.700 -1.0830 -2.8918 -0.6382
  191SAPI  H18Y22176   4.365   0.837   4.709 -1.7455 -0.9544 -0.7259
  191SAPI  H18Z22177   4.316   0.908   4.548 -0.4010  1.2625 -0.0791
  192SAPI   C1222178   6.884   5.612   2.247  0.2477  0.1386  0.7173
  192SAPI    H222179   6.915   5.645   2.348  0.2994  0.3332  0.6379
  192SAPI    O222180   6.998   5.586   2.169  0.0521 -0.1645  0.0519
  192SAPI   HO222181   7.060   5.659   2.178 -0.5939  0.3942  0.0420
  192SAPI   C1322182   6.798   5.482   2.254 -0.0826  0.1524 -0.1557
  192SAPI    H322183   6.700   5.513   2.297 -0.4092  1.5334 -1.7561
  192SAPI    O322184   6.850   5.386   2.347 -0.8856  0.2850 -0.5811
  192SAPI   HO322185   6.772   5.341   2.381 -1.3697  0.8844 -0.8857
  192SAPI   C1422186   6.787   5.431   2.106 -0.3502 -0.5201  0.5071
  192SAPI    H422187   6.889   5.399   2.076  0.4729  0.1201  2.4470
  192SAPI    O422188   6.715   5.311   2.116 -0.0090 -0.2565 -0.5620
  192SAPI   HO422189   6.773   5.235   2.123 -1.0006 -1.1006 -1.3078
  192SAPI   C1522190   6.729   5.530   2.007  0.5477  0.0750  0.1051
  192SAPI    H522191   6.621   5.530   2.033 -0.0710 -0.8125 -2.2314
  192SAPI    O522192   6.746   5.490   1.867 -0.4389  0.4675  0.2065
  192SAPI   HO522193   6.838   5.500   1.839 -0.9677 -1.0947 -2.4497
  192SAPI   C1622194   6.753   5.682   2.036  0.0250 -0.2994 -0.0821
  192SAPI    H622195   6.844   5.702   1.975 -1.1311  5.7354 -0.4086
  192SAPI    O622196   6.656   5.766   1.978  0.2057  0.4501  0.2010
  192SAPI   HO622197   6.579   5.756   2.034  2.1058 -2.0914  2.5671
  192SAPI   C1122198   6.796   5.724   2.177 -0.1646 -0.0325 -0.7524
  192SAPI    H122199   6.700   5.731   2.232  0.7389 -0.9398  1.0460
  192SAPI     P22200   6.859   5.950   2.299 -0.0725 -0.3238 -0.3901
  192SAPI   O1322201   6.720   5.955   2.349  0.5325 -0.8419  0.0089
  192SAPI   O1422202   6.928   6.078   2.254  0.6556  0.0101 -0.1521
  192SAPI   O1222203   6.868   5.848   2.173  0.4660 -0.5577 -0.1022
  192SAPI   O1122204   6.950   5.874   2.402 -0.7705  0.1004  0.9645
  192SAPI    C122205   7.095   5.875   2.383 -0.1108 -0.0933  0.6422
  192SAPI    HA22206   7.120   5.769   2.360  0.6827  0.5713 -1.8397
  192SAPI    HB22207   7.123   5.941   2.298  0.5245 -0.6431  0.4151
  192SAPI    C222208   7.170   5.924   2.511  0.1240  0.8441 -0.3453
  192SAPI    HS22209   7.270   5.952   2.472 -0.1669  0.9911 -1.0035
  192SAPI   O2122210   7.181   5.814   2.614 -0.3781 -0.1310  0.1996
  192SAPI   C2122211   7.258   5.716   2.598  0.0582  0.6563  0.2770
  192SAPI   O2222212   7.331   5.696   2.501 -0.4088 -0.6768  0.0677
  192SAPI   C2222213   7.206   5.605   2.688 -0.3858  0.3231 -0.0765
  192SAPI   H2R22214   7.113   5.637   2.740 -0.3440 -0.0756  0.2463
  192SAPI   H2S22215   7.176   5.517   2.626 -0.5348  0.7080 -0.5604
  192SAPI    C322216   7.097   6.047   2.583 -0.1287 -0.0886  0.4362
  192SAPI    HX22217   6.999   6.011   2.621 -0.7306  2.9175  2.0678
  192SAPI    HY22218   7.073   6.109   2.494 -0.1780 -0.6602  0.0425
  192SAPI   O3122219   7.180   6.108   2.678  0.3035 -0.4398 -0.2784
  192SAPI   C3122220   7.206   6.238   2.677  0.7366 -0.0416 -0.3656
  192SAPI   O3222221   7.182   6.320   2.589  0.3605  0.1440 -0.2255
  192SAPI   C3222222   7.269   6.263   2.809  0.2683 -0.6069  0.1135
  192SAPI   H2X22223   7.365   6.207   2.812  0.3667 -0.4101  0.9574
  192SAPI   H2Y22224   7.205   6.219   2.889 -2.8221  0.7003 -1.4526
  192SAPI   C2322225   7.316   5.562   2.781 -0.7179 -0.2643 -0.1159
  192SAPI   H3R22226   7.403   5.508   2.737 -1.5921 -1.1499 -0.7821
  192SAPI   H3S22227   7.277   5.483   2.847  0.6272 -1.5131 -0.7571
  192SAPI   C2422228   7.360   5.683   2.864  0.0555  0.5574  0.3304
  192SAPI   H4R22229   7.270   5.732   2.908  0.0177  0.7302  0.0624
  192SAPI   H4S22230   7.408   5.756   2.796  1.3414 -1.1442 -0.6567
  192SAPI   C2522231   7.466   5.650   2.969 -0.0810  0.4796  0.7877
  192SAPI   H5R22232   7.571   5.647   2.934  0.1456  2.6804  1.1353
  192SAPI   C2622233   7.437   5.594   3.087 -0.6653  0.9626  0.1507
  192SAPI   H6R22234   7.519   5.570   3.156 -0.4424  2.7215  0.5356
  192SAPI   C2722235   7.303   5.557   3.144 -0.0231  0.1704 -0.5455
  192SAPI   H7R22236   7.293   5.447   3.133  1.1031  0.0504 -0.5334
  192SAPI   H7S22237   7.226   5.600   3.076  0.0937  0.4296 -0.5148
  192SAPI   C2822238   7.269   5.598   3.289  0.1013 -1.0511 -0.2226
  192SAPI   H8R22239   7.290   5.705   3.307 -1.3764 -0.7894  0.0824
  192SAPI   C2922240   7.210   5.536   3.392  0.4264  0.0666  0.6184
  192SAPI   H9R22241   7.179   5.592   3.481  0.4559 -0.8599  1.2307
  192SAPI  C21022242   7.153   5.394   3.386 -0.2631 -0.3296  0.2062
  192SAPI  H10R22243   7.206   5.337   3.465 -1.1722 -0.2612  0.8870
  192SAPI  H10S22244   7.170   5.340   3.290  1.1825  1.1982 -0.4500
  192SAPI  C21122245   7.006   5.391   3.413  0.4054  0.2877 -0.8240
  192SAPI  H11R22246   6.942   5.397   3.324 -0.2337 -0.5042 -0.4268
  192SAPI  C21222247   6.947   5.399   3.536 -0.0828  0.3252  0.1992
  192SAPI  H12R22248   6.838   5.395   3.554 -0.0783 -0.0231  0.1621
  192SAPI  C21322249   7.022   5.424   3.665 -0.2092  0.2122  0.0464
  192SAPI  H13R22250   6.937   5.453   3.731 -0.9710  0.3860 -0.9853
  192SAPI  H13S22251   7.084   5.516   3.673 -0.3338  0.1633  2.2743
  192SAPI  C21422252   7.089   5.301   3.727 -0.1806 -0.3636  0.3244
  192SAPI  H14R22253   7.045   5.202   3.708 -0.1500 -0.4953  0.9187
  192SAPI  C21522254   7.196   5.306   3.807  0.1139  0.5056  0.1810
  192SAPI  H15R22255   7.224   5.208   3.848 -0.5683  0.9106  1.6746
  192SAPI  C21622256   7.272   5.426   3.849  0.3075 -0.0136  0.5375
  192SAPI  H16R22257   7.302   5.497   3.770  0.8261 -0.1928  0.5654
  192SAPI  H16S22258   7.371   5.395   3.890 -0.3183  0.1236  2.2083
  192SAPI  C21722259   7.191   5.516   3.954 -0.7526 -0.2132 -0.3768
  192SAPI  H17R22260   7.107   5.559   3.895  1.5105  1.4824 -2.6275
  192SAPI  H17S22261   7.260   5.595   3.991  0.6792 -2.5070  2.2477
  192SAPI  C21822262   7.147   5.439   4.077  0.7908 -0.0111 -0.4941
  192SAPI  H18R22263   7.222   5.375   4.128 -1.0268 -0.9287  1.1343
  192SAPI  H18S22264   7.066   5.372   4.042  0.3224 -0.2197  0.9313
  192SAPI  C21922265   7.085   5.537   4.172  0.7766 -0.8365  0.3456
  192SAPI  H19R22266   7.010   5.603   4.124 -0.4499  0.1236  3.3560
  192SAPI  H19S22267   7.156   5.610   4.216 -1.1417 -0.4004  2.9761
  192SAPI  C22022268   7.025   5.485   4.299 -0.2592 -0.0506 -0.8117
  192SAPI  H20R22269   7.096   5.427   4.361 -0.6172  0.5543  0.1864
  192SAPI  H20S22270   6.942   5.415   4.272 -0.8448  1.4362 -3.1994
  192SAPI  H20T22271   6.975   5.561   4.363  2.1298  1.3861 -0.5510
  192SAPI   C3322272   7.283   6.418   2.831  0.0993 -0.0246 -0.5010
  192SAPI   H3X22273   7.180   6.458   2.835  0.4231  0.8038 -0.0989
  192SAPI   H3Y22274   7.334   6.464   2.744 -1.1671  1.0011 -0.7151
  192SAPI   C3422275   7.365   6.440   2.960 -0.1034  0.0417 -0.9301
  192SAPI   H4X22276   7.421   6.536   2.957  0.7215 -0.4419 -2.3536
  192SAPI   H4Y22277   7.436   6.355   2.972  1.3635  1.2256 -0.8728
  192SAPI   C3522278   7.275   6.433   3.083  0.0311 -0.0080  0.5238
  192SAPI   H5X22279   7.200   6.353   3.067 -1.8178  1.5653  0.8865
  192SAPI   H5Y22280   7.210   6.523   3.086 -0.6674 -0.5174  0.7914
  192SAPI   C3622281   7.346   6.432   3.220  0.0722 -0.3872 -0.3606
  192SAPI   H6X22282   7.422   6.511   3.237 -0.7284  0.3002  0.1394
  192SAPI   H6Y22283   7.393   6.333   3.237 -0.1709 -0.1606  1.9980
  192SAPI   C3722284   7.248   6.454   3.339 -0.4759 -0.1724  0.2163
  192SAPI   H7X22285   7.296   6.416   3.432 -3.0727 -1.3596  1.2023
  192SAPI   H7Y22286   7.155   6.396   3.322 -0.4721 -0.4808  1.1934
  192SAPI   C3822287   7.213   6.601   3.362 -0.1638 -0.4201 -0.0847
  192SAPI   H8X22288   7.160   6.627   3.268 -0.3621 -0.0424  0.1299
  192SAPI   H8Y22289   7.305   6.663   3.370 -0.0421 -0.7750  1.5446
  192SAPI   C3922290   7.124   6.624   3.483  0.1073 -0.6103 -0.3243
  192SAPI   H9X22291   7.176   6.603   3.579 -1.2261 -0.7353  0.3944
  192SAPI   H9Y22292   7.030   6.565   3.488 -1.6461  2.0663  0.9299
  192SAPI  C31022293   7.082   6.776   3.487 -0.3314  0.0099 -0.4755
  192SAPI  H10X22294   7.009   6.793   3.405  1.3235  0.9534 -1.7961
  192SAPI  H10Y22295   7.163   6.849   3.466 -0.4022  0.6794  1.3831
  192SAPI  C31122296   7.014   6.808   3.627  0.2206  0.2476 -0.6348
  192SAPI  H11X22297   6.939   6.728   3.644  1.7836 -1.2930 -0.7703
  192SAPI  H11Y22298   6.967   6.908   3.620  0.4804  0.3372 -1.1671
  192SAPI  C31222299   7.123   6.816   3.742  0.1111  1.1513 -0.1524
  192SAPI  H12X22300   7.197   6.896   3.724  1.2166 -0.1432 -1.6418
  192SAPI  H12Y22301   7.174   6.718   3.752 -1.1996  0.5105  0.4442
  192SAPI  C31322302   7.051   6.828   3.881 -0.6393  0.3234  0.5400
  192SAPI  H13X22303   6.962   6.762   3.880 -0.0860 -0.4286  0.6667
  192SAPI  H13Y22304   7.013   6.928   3.912 -1.4089  0.0904  0.3878
  192SAPI  C31422305   7.140   6.781   3.997 -0.7303  1.0177  0.1709
  192SAPI  H14X22306   7.223   6.855   3.993  1.7649 -1.4231  2.3654
  192SAPI  H14Y22307   7.190   6.686   3.969  1.3297  2.0666  0.0631
  192SAPI  C31522308   7.064   6.793   4.132 -0.4974 -0.4161  0.0635
  192SAPI  H15X22309   6.973   6.733   4.110  1.5737 -3.1872 -1.6173
  192SAPI  H15Y22310   7.030   6.897   4.154  0.2900 -0.2550  0.5691
  192SAPI  C31622311   7.137   6.748   4.256  0.1352  0.0137 -0.1503
  192SAPI  H16X22312   7.223   6.816   4.275 -1.3636  2.3520 -1.2160
  192SAPI  H16Y22313   7.178   6.646   4.244  2.1654  0.6097  1.1756
  192SAPI  C31722314   7.052   6.749   4.384 -1.1406  0.0767 -0.1289
  192SAPI  H17X22315   7.110   6.733   4.477  1.2263 -0.7695 -1.6378
  192SAPI  H17Y22316   6.980   6.665   4.373 -1.8256  0.3780  1.7849
  192SAPI  C31822317   6.974   6.874   4.412 -0.2594 -0.1639  0.5323
  192SAPI  H18X22318   7.026   6.969   4.385 -0.0535  0.3720  2.6387
  192SAPI  H18Y22319   6.948   6.877   4.520 -0.2107 -1.1960  0.5827
  192SAPI  H18Z22320   6.885   6.885   4.346  1.0153 -1.3520 -1.4887
  193SOD    SOD22321   0.578   1.076   1.805  0.0959 -0.2252  0.2593
  194SOD    SOD22322   0.323   4.327   0.929  0.0063 -0.4630  0.2304
  195SOD    SOD22323   0.020   3.779   7.674  0.2739  0.6090  0.0974
  196SOD    SOD22324   3.976   0.782   2.129 -0.1684 -0.0743  0.6642
  197SOD    SOD22325   3.086   2.381   2.153 -0.0909 -0.1903  0.0958
  198SOD    SOD22326   3.967   2.657   7.887  0.4518  0.2420  0.0946
  199SOD    SOD22327   2.463   4.138   7.215  0.2337 -0.1471 -0.0615
  200SOD    SOD22328   0.665   2.492   7.676 -0.1642  0.1345 -0.1262
  201SOD    SOD22329   2.716   3.956   7.983 -0.5613  0.4497 -0.4485
  202SOD    SOD22330   5.893   0.003   8.160 -0.7154 -0.8853  0.4815
  203SOD    SOD22331   0.466   6.184   1.051 -0.0897 -0.4902  0.2159
  204SOD    SOD22332   6.548   2.574   1.253 -0.0357 -0.7626  0.3409
  205SOD    SOD22333   0.619   6.004   7.653  0.1715  0.5272  0.4904
  206SOD    SOD22334   5.063   6.496   8.118  0.4668 -0.4585 -0.1424
  207SOD    SOD22335   6.879   0.351   6.940 -0.2755  0.2270 -0.1916
  208SOD    SOD22336   5.448   4.541   8.385  0.4133  0.1595 -0.4378
  209SOD    SOD22337   4.871   6.867   1.493 -0.2445 -0.0049 -0.6463
  210SOD    SOD22338   2.775   3.173   1.729  0.2570  0.1726 -0.2916
  211SOD    SOD22339   6.722   0.717   2.321  0.0329 -0.2343 -0.1652
  212SOD    SOD22340   5.941   2.062   0.680  0.0188 -0.1039 -0.1497
  213SOD    SOD22341   2.383   2.467   1.624 -0.3434  0.0819 -0.3334
  214SOD    SOD22342   6.543   1.639   6.829 -0.1993 -0.2483  0.3660
  215SOD    SOD22343   3.507   4.455   0.308  0.0849 -0.2003 -0.0828
  216SOD    SOD22344   2.855   0.603   0.198  0.0526  0.3113  0.3308
  217SOD    SOD22345   5.799   3.478   0.666  0.0781  0.0275 -0.0005
  218SOD    SOD22346   2.329   2.354   6.521  0.1596  0.3834  0.3283
  219SOD    SOD22347   4.743   1.679   7.959  0.4160  0.6729  0.2477
  220SOD    SOD22348   1.298   3.276   6.866  0.4194 -0.1141  0.4852
  221SOD    SOD22349   0.765   1.099   8.064  0.1830  0.3728  0.6103
  222SOD    SOD22350   4.338   0.415   8.234 -0.4056 -0.2845  0.1299
  223SOD    SOD22351   4.668   4.771   2.040 -0.2987  0.2521 -0.2404
  224SOD    SOD22352   3.951   5.146   0.124 -0.1901  0.3148 -0.3417
  225SOD    SOD22353   2.256   1.089   7.912  0.6981 -0.0951  0.0996
  226SOD    SOD22354   3.640   2.833   2.304 -0.0634  0.2053 -0.1898
  227SOD    SOD22355   6.842   5.681   7.399  0.3095 -0.0913  0.1119
  228SOD    SOD22356   5.162   6.507   2.368 -0.6993 -0.3732 -0.1438
  229SOD    SOD22357   6.144   0.183   7.509 -0.3864 -0.3936  0.0260
  230CLA    CLA22358   4.151   4.624   1.287 -0.6614  0.0462 -0.2539
  231CLA    CLA22359   6.275   2.980   7.558  0.2364 -0.3157 -0.1550
  232CLA    CLA22360   4.456   5.187   0.999  0.4522  0.0228 -0.0010
  233CLA    CLA22361   5.872   3.217   7.931  0.0860 -0.4282  0.0283
  234CLA    CLA22362   6.572   2.234   0.521  0.1172  0.1905  0.0299
  235CLA    CLA22363   3.615   2.859   8.193  0.6781 -0.1373 -0.5123
  236CLA    CLA22364   0.419   4.240   1.434 -0.1008  0.0390 -0.0993
  237CLA    CLA22365   1.075   3.610   7.376  0.2716  0.0053  0.0719
  238CLA    CLA22366   2.097   5.080   0.512 -0.0549  0.1377  0.2341
  239CLA    CLA22367   6.956   5.701   7.937 -0.0629 -0.4874 -0.1057
  240CLA    CLA22368   0.572   0.120   6.969  0.2658  0.0192 -0.3612
  241CLA    CLA22369   6.446   1.285   1.573  0.1960 -0.0194 -0.1876
  242CLA    CLA22370   5.140   0.839   7.718 -0.1281 -0.1249  0.1164
  243CLA    CLA22371   1.992   1.919   7.675 -0.1314 -0.6297 -0.3689
  244CLA    CLA22372   3.967   2.084   7.198 -0.4189 -0.0165 -0.2257
  245CLA    CLA22373   4.635   0.900   0.572  0.3228 -0.1967  0.4385
  246CLA    CLA22374   2.643   4.557   0.667 -0.5498  0.2920 -0.0226
  247TIP3   OH222375   1.801   3.570   1.821 -0.3750  0.2827 -0.4720
  247TIP3    H122376   1.768   3.557   1.910 -0.9354 -0.5043 -0.7825
  247TIP3    H222377   1.807   3.665   1.812  1.5833  0.3890  1.0694
  248TIP3   OH222378   6.729   6.309   0.747  0.0287 -0.0297  0.3266
  248TIP3    H122379   6.786   6.283   0.675  1.8243  0.4131  1.5305
  248TIP3    H222380   6.743   6.242   0.814 -0.7503  0.1783  0.7125
  249TIP3   OH222381   0.731   3.135   7.650 -0.7217 -0.3088  0.4436
  249TIP3    H122382   0.717   3.204   7.715 -1.2953 -0.3007  0.3083
  249TIP3    H222383   0.745   3.181   7.568  1.2758 -0.2601  0.7589
  250TIP3   OH222384   5.127   4.085   2.044  0.3100 -0.1279 -0.0061
  250TIP3    H122385   5.219   4.080   2.069  0.8533 -0.0157 -1.8025
  250TIP3    H222386   5.081   4.032   2.109  1.3175  1.6171  2.2423
  251TIP3   OH222387   1.773   5.779   0.024 -0.1016 -0.5160 -0.2320
  251TIP3    H122388   1.740   5.752   0.110 -0.1684 -1.6294 -0.5847
  251TIP3    H222389   1.829   5.854   0.041  0.2223 -0.9914  0.8327
  252TIP3   OH222390   0.077   2.607   0.446  0.0209  0.0735 -0.1439
  252TIP3    H122391   0.078   2.512   0.436 -0.6526  0.1547 -1.1005
  252TIP3    H222392   0.029   2.622   0.528 -0.9735 -0.3732 -0.6336
  253TIP3   OH222393   4.274   4.054   7.901  0.2887 -0.4090  0.1888
  253TIP3    H122394   4.279   3.961   7.924 -1.6679 -0.5174  0.3734
  253TIP3    H222395   4.227   4.094   7.974 -0.4544  0.3856 -0.6861
  254TIP3   OH222396   2.088   0.371   1.485 -0.2038 -0.5312  0.3170
  254TIP3    H122397   2.113   0.426   1.558  0.6109 -0.6925  0.1668
  254TIP3    H222398   2.170   0.339   1.449 -0.6320 -1.2295 -0.0737
  255TIP3   OH222399   4.493   1.357   7.181  0.0553 -0.0998  0.4002
  255TIP3    H122400   4.438   1.282   7.206 -1.1395  0.5568 -0.1717
  255TIP3    H222401   4.555   1.321   7.117 -1.0480 -0.4494 -0.5069
  256TIP3   OH222402   2.960   4.457   6.588  0.0813 -0.2832 -0.5551
  256TIP3    H122403   3.035   4.424   6.539  2.3833  2.3095  0.9554
  256TIP3    H222404   2.933   4.536   6.539 -1.2158 -0.7357 -0.6291
  257TIP3   OH222405   1.264   3.982   1.606 -0.4158  0.0299  0.0676
  257TIP3    H122406   1.303   3.913   1.659  1.6982  1.9297  1.1468
  257TIP3    H222407   1.231   4.046   1.670 -0.6615  0.8896 -0.8906
  258TIP3   OH222408   2.754   5.254   7.428  0.0697  0.2682  0.6766
  258TIP3    H122409   2.745   5.338   7.473  0.5772  0.9249 -0.4075
  258TIP3    H222410   2.812   5.273   7.354 -0.9290 -0.7082 -0.3944
  259TIP3   OH222411   1.116   0.972   7.529  0.0089 -0.0303 -0.0521
  259TIP3    H122412   1.038   0.924   7.557 -0.2285 -0.5387 -1.4958
  259TIP3    H222413   1.181   0.953   7.597 -0.4451 -1.4313  0.0334
  260TIP3   OH222414   6.562   6.586   1.209 -0.8136  0.4664  0.1508
  260TIP3    H122415   6.555   6.528   1.133  1.1108  1.0977 -0.5648
  260TIP3    H222416   6.653   6.614   1.209 -0.4251 -0.4893  3.4665
  261TIP3   OH222417   0.964   0.621   0.173 -0.1799 -0.4050  0.6599
  261TIP3    H122418   0.882   0.636   0.126 -0.8637 -0.5120  1.7875
  261TIP3    H222419   0.988   0.531   0.151 -0.5574 -0.4950  0.6066
  262TIP3   OH222420   2.951   6.175   0.697 -0.0116 -0.4203  0.1566
  262TIP3    H122421   2.905   6.107   0.747  0.8240  0.9298  2.9439
  262TIP3    H222422   2.895   6.252   0.704 -1.0819 -0.7203 -3.1922
  263TIP3   OH222423   4.126   4.137   8.137  0.1152  0.4268 -0.0608
  263TIP3    H122424   4.144   4.126   8.230 -0.8760  1.8728  0.3334
  263TIP3    H222425   4.046   4.087   8.122 -0.5082  1.3230  0.1948
  264TIP3   OH222426   3.423   5.010   8.361 -0.3838 -0.0102 -0.1744
  264TIP3    H122427   3.351   4.951   8.385 -1.0876  0.4413 -1.1253
  264TIP3    H222428   3.429   5.003   8.265  0.3472  0.5316 -0.1771
  265TIP3   OH222429   6.973   1.568   8.344 -0.0044  0.1492 -0.3871
  265TIP3    H122430   6.903   1.615   8.298 -1.0519 -0.7652  0.2211
  265TIP3    H222431   6.929   1.527   8.419  1.6159  1.5455  1.4392
  266TIP3   OH222432   0.787   5.498   2.566  0.3056 -0.3015 -0.2653
  266TIP3    H122433   0.865   5.555   2.563  1.0427 -1.2704  0.0953
  266TIP3    H222434   0.722   5.544   2.512  1.1080  0.5553 -0.5273
  267TIP3   OH222435   6.479   0.517   7.588  0.1273 -0.1202  0.0908
  267TIP3    H122436   6.517   0.516   7.500  1.3962  0.0161  0.6164
  267TIP3    H222437   6.390   0.550   7.576  0.3219 -0.0130 -1.1292
  268TIP3   OH222438   0.298   6.123   1.223  0.1549 -0.3566  0.4403
  268TIP3    H122439   0.329   6.180   1.294  1.0615 -1.5672  1.0607
  268TIP3    H222440   0.277   6.040   1.266 -2.5878 -0.0984 -0.2070
  269TIP3   OH222441   5.995   2.862   6.701 -0.1564 -0.3932  0.0934
  269TIP3    H122442   5.928   2.871   6.633 -1.4402 -0.8824  1.2408
  269TIP3    H222443   6.007   2.951   6.735  1.3381  0.0568 -1.5050
  270TIP3   OH222444   1.374   3.259   7.763  0.2381 -0.7864 -0.1980
  270TIP3    H122445   1.455   3.306   7.742 -1.3193  1.9049 -0.7573
  270TIP3    H222446   1.361   3.275   7.857 -0.0344 -0.4656 -0.2847
  271TIP3   OH222447   2.276   1.095   1.311 -0.5478 -0.2224  0.3065
  271TIP3    H122448   2.313   1.147   1.382  0.2461 -1.0968  0.5560
  271TIP3    H222449   2.228   1.158   1.258 -0.0852  0.6661  0.9101
  272TIP3   OH222450   2.770   3.839   0.687 -0.1574 -0.4327  0.1071
  272TIP3    H122451   2.833   3.769   0.703  1.0595 -0.2007 -3.0280
  272TIP3    H222452   2.708   3.802   0.624  0.2943  1.1158 -1.3206
  273TIP3   OH222453   2.626   2.698   6.451  0.6165 -0.1345 -0.1413
  273TIP3    H122454   2.707   2.729   6.490  0.2794 -0.1908  0.6138
  273TIP3    H222455   2.621   2.744   6.367  1.3700 -0.0544 -0.1513
  274TIP3   OH222456   1.186   6.665   0.396  0.2538 -1.0146 -0.1484
  274TIP3    H122457   1.135   6.683   0.474 -1.8700  1.9502 -2.0044
  274TIP3    H222458   1.277   6.668   0.425 -0.4166  1.1915  2.0423
  275TIP3   OH222459   5.758   2.357   7.456 -0.4745 -0.0039  0.3742
  275TIP3    H122460   5.761   2.340   7.362  0.5826 -0.9847  0.5555
  275TIP3    H222461   5.690   2.299   7.489 -2.1903  1.6806  0.0132
  276TIP3   OH222462   5.024   3.494   1.074  0.4374 -0.0651  0.0209
  276TIP3    H122463   4.944   3.546   1.068  0.5257  0.1409  0.5628
  276TIP3    H222464   4.995   3.403   1.062 -0.0426 -0.0961  1.3378
  277TIP3   OH222465   1.765   6.849   1.297 -0.0592 -0.0485 -0.2990
  277TIP3    H122466   1.822   6.923   1.279 -0.4059  0.3486  0.1856
  277TIP3    H222467   1.824   6.774   1.309  0.4140  0.4772  0.8259
  278TIP3   OH222468   5.295   0.446   8.447  0.2522  0.0160  0.4125
  278TIP3    H122469   5.375   0.397   8.427  0.6404  1.1981 -1.1435
  278TIP3    H222470   5.226   0.380   8.448  1.0606 -0.8467  0.4559
  279TIP3   OH222471   5.939   3.241   6.765  0.2496 -0.1834 -0.0255
  279TIP3    H122472   5.963   3.332   6.746  1.2844 -0.3842  0.2462
  279TIP3    H222473   5.929   3.201   6.679  1.3075 -0.1848 -0.1546
  280TIP3   OH222474   1.226   0.370   1.775 -0.0455 -0.1896 -0.2002
  280TIP3    H122475   1.270   0.297   1.731 -1.7274 -1.2958 -0.1639
  280TIP3    H222476   1.290   0.403   1.838  0.5461 -2.1136  0.2663
  281TIP3   OH222477   0.699   3.827   6.529 -0.3401 -0.3898  0.5680
  281TIP3    H122478   0.615   3.856   6.494 -0.4381 -1.4609 -0.1463
  281TIP3    H222479   0.756   3.903   6.521 -0.8935 -0.0421 -0.1625
  282TIP3   OH222480   0.139   0.244   7.469 -0.3123 -0.1413  1.2238
  282TIP3    H122481   0.201   0.276   7.403 -1.2105 -1.4522 -0.3211
  282TIP3    H222482   0.190   0.184   7.522  0.8194  2.0367  2.7889
  283TIP3   OH222483   0.880   1.836   7.600  0.3937 -0.0347  0.6001
  283TIP3    H122484   0.848   1.768   7.659 -0.0065 -2.3062 -2.0320
  283TIP3    H222485   0.975   1.832   7.607  0.4146 -1.4925 -0.0701
  284TIP3   OH222486   1.669   1.749   0.217 -0.1011  0.1211 -0.2919
  284TIP3    H122487   1.670   1.828   0.270  2.5186 -0.0293 -0.0010
  284TIP3    H222488   1.619   1.773   0.138  0.4452  1.9672 -0.1062
  285TIP3   OH222489   3.213   3.176   6.361  0.1947 -0.0579  0.2922
  285TIP3    H122490   3.229   3.241   6.429  1.2922 -0.0831  0.0721
  285TIP3    H222491   3.155   3.112   6.402  0.6848  0.0293  1.1430
  286TIP3   OH222492   3.451   0.997   1.916 -0.4212  0.2838  0.3592
  286TIP3    H122493   3.440   0.965   2.006 -0.8133  1.2329  0.6669
  286TIP3    H222494   3.436   1.091   1.923 -3.2446  0.0452 -1.1493
  287TIP3   OH222495   6.503   2.327   2.576  0.4213  0.0888  0.1641
  287TIP3    H122496   6.480   2.245   2.533 -0.7900  0.7567 -0.4953
  287TIP3    H222497   6.456   2.394   2.527  1.4856  1.2035  0.6187
  288TIP3   OH222498   6.918   3.435   1.031  0.0291  0.2507  0.1883
  288TIP3    H122499   6.901   3.509   0.973  0.0542 -0.2960 -0.5246
  288TIP3    H222500   6.857   3.368   1.003 -0.4833  0.2354  1.2979
  289TIP3   OH222501   0.187   0.431   0.383  0.2597  0.1076  0.1259
  289TIP3    H122502   0.137   0.415   0.463 -1.3842  1.0086 -0.6532
  289TIP3    H222503   0.257   0.490   0.410  0.3584 -0.4342  1.0843
  290TIP3   OH222504   0.430   5.209   8.440 -0.0326 -0.1965 -0.3451
  290TIP3    H122505   0.457   5.289   8.396 -0.2819  0.4593  0.6615
  290TIP3    H222506   0.459   5.138   8.382  0.9051  0.5869 -0.8544
  291TIP3   OH222507   5.128   2.326   7.154 -0.0789 -0.1736  0.0784
  291TIP3    H122508   5.142   2.412   7.194 -2.4377 -0.3684  1.5213
  291TIP3    H222509   5.212   2.281   7.163  0.7994  1.4925  0.5355
  292TIP3   OH222510   2.595   2.972   0.473  0.1268 -0.0984  0.0071
  292TIP3    H122511   2.585   2.878   0.490 -1.2708  0.2007  0.9578
  292TIP3    H222512   2.592   2.979   0.377 -3.2521 -0.7225 -0.0563
  293TIP3   OH222513   1.420   4.324   1.887  0.6724  0.1481 -0.4367
  293TIP3    H122514   1.475   4.246   1.892  1.7910  0.8190 -1.8079
  293TIP3    H222515   1.395   4.340   1.978 -0.2249 -2.2136 -0.1765
  294TIP3   OH222516   2.036   1.414   6.876  0.1253  0.4156 -0.2160
  294TIP3    H122517   2.085   1.495   6.861 -1.1240  1.5069  1.2211
  294TIP3    H222518   2.095   1.360   6.928  0.3577  1.1389  0.2950
  295TIP3   OH222519   2.752   0.644   6.386 -0.4544 -0.5066 -0.0166
  295TIP3    H122520   2.761   0.738   6.400 -1.3190 -0.2353 -1.1735
  295TIP3    H222521   2.727   0.610   6.472 -0.2119  0.3293  0.3954
  296TIP3   OH222522   2.524   2.090   0.667 -0.2375 -0.3055 -0.0911
  296TIP3    H122523   2.456   2.121   0.727  0.2495 -1.1766  0.9521
  296TIP3    H222524   2.594   2.155   0.674 -1.3128  1.1473 -1.9374
  297TIP3   OH222525   6.674   6.184   7.386 -0.3469  0.2064 -0.1188
  297TIP3    H122526   6.629   6.194   7.470  2.0878 -1.8109  1.6375
  297TIP3    H222527   6.617   6.128   7.334 -0.7288 -0.8001  1.3185
  298TIP3   OH222528   1.826   6.476   8.407 -0.2247  0.1474  0.4986
  298TIP3    H122529   1.819   6.458   8.501  0.9771  0.3171  0.6316
  298TIP3    H222530   1.920   6.470   8.388 -0.2540  1.7424 -0.3575
  299TIP3   OH222531   1.348   4.002   1.876 -0.1149  0.4614  0.2980
  299TIP3    H122532   1.437   4.038   1.877  0.4701 -0.8129 -1.3681
  299TIP3    H222533   1.360   3.908   1.889 -0.9496 -0.0902 -2.3597
  300TIP3   OH222534   6.430   1.890   1.422 -0.1159  0.1258 -0.1359
  300TIP3    H122535   6.432   1.986   1.428  0.8618  0.0700  0.5645
  300TIP3    H222536   6.363   1.863   1.484 -1.4714  0.4087 -1.4045
  301TIP3   OH222537   1.390   3.940   0.256  0.4011 -0.1535 -0.2824
  301TIP3    H122538   1.401   4.031   0.231 -0.2978 -0.2065 -0.8090
  301TIP3    H222539   1.475   3.914   0.291  0.4001  0.8982  0.5305
  302TIP3   OH222540   0.177   4.187   7.210 -0.7345  0.0268  0.6526
  302TIP3    H122541   0.106   4.243   7.242 -1.0502 -0.4815  0.8499
  302TIP3    H222542   0.184   4.117   7.275  0.5066  0.5135  1.0740
  303TIP3   OH222543   0.962   3.348   0.745 -0.2477  0.4900  0.6413
  303TIP3    H122544   1.048   3.330   0.785  0.0311 -0.0327 -0.1765
  303TIP3    H222545   0.981   3.362   0.653 -1.0736  0.1620  0.4180
  304TIP3   OH222546   6.467   2.394   2.120 -0.4504  0.1138 -0.0826
  304TIP3    H122547   6.374   2.417   2.121 -0.3218  0.8482 -1.6111
  304TIP3    H222548   6.469   2.301   2.097 -0.8069  0.2483 -0.6812
  305TIP3   OH222549   2.184   2.361   1.700  0.3354  0.1834  0.1511
  305TIP3    H122550   2.089   2.362   1.710  0.2314  0.8653 -0.7704
  305TIP3    H222551   2.218   2.382   1.787 -0.3862  1.1505  0.2166
  306TIP3   OH222552   1.669   5.728   6.084 -0.2521  0.1099  0.3060
  306TIP3    H122553   1.703   5.805   6.129 -0.5494  0.7107 -0.4742
  306TIP3    H222554   1.574   5.733   6.096 -0.3346  0.2897 -0.4047
  307TIP3   OH222555   0.171   2.828   6.618 -0.5319 -0.0074 -0.6679
  307TIP3    H122556   0.252   2.781   6.596 -1.4181 -1.0473 -1.8450
  307TIP3    H222557   0.152   2.881   6.541 -0.9299  0.3148 -0.3578
  308TIP3   OH222558   5.679   5.757   1.196  1.2060 -0.0273  0.4959
  308TIP3    H122559   5.766   5.735   1.231  0.4183  0.4675  3.0028
  308TIP3    H222560   5.641   5.815   1.262 -1.6817 -1.5837  0.3606
  309TIP3   OH222561   5.890   0.564   7.287 -0.0775  0.3538 -0.4161
  309TIP3    H122562   5.944   0.631   7.243  0.8671 -0.5178 -0.6165
  309TIP3    H222563   5.807   0.608   7.303  0.6386  1.7081 -0.2100
  310TIP3   OH222564   6.445   6.901   7.233 -0.1065  0.3710  0.4329
  310TIP3    H122565   6.391   6.842   7.285 -0.1539 -1.0936 -1.2169
  310TIP3    H222566   6.529   6.903   7.279 -0.3396 -0.4082  0.9099
  311TIP3   OH222567   3.381   3.411   7.354  0.1776 -0.5338 -0.2408
  311TIP3    H122568   3.408   3.320   7.351  1.7209 -0.1625  1.3509
  311TIP3    H222569   3.294   3.409   7.395  0.0746 -1.2901 -0.4817
  312TIP3   OH222570   0.911   0.438   8.425  0.3883  0.7032  0.3200
  312TIP3    H122571   0.979   0.411   8.363 -0.7740  0.4419 -0.8836
  312TIP3    H222572   0.876   0.356   8.458  1.7053  0.8367  2.1768
  313TIP3   OH222573   6.092   1.933   6.733 -0.1379 -0.7422  0.2962
  313TIP3    H122574   6.132   1.864   6.680  0.0312 -0.3713 -0.0651
  313TIP3    H222575   5.998   1.911   6.734 -0.0849 -0.9797  0.1926
  314TIP3   OH222576   3.837   2.810   1.909  0.1618 -0.2797 -0.0201
  314TIP3    H122577   3.856   2.789   2.000 -1.3412  1.2020  0.6864
  314TIP3    H222578   3.881   2.894   1.894 -0.2846 -0.1126 -0.4071
  315TIP3   OH222579   4.552   5.172   0.166 -0.2772 -0.7361  0.1530
  315TIP3    H122580   4.646   5.154   0.168  0.2605  1.6996  2.1497
  315TIP3    H222581   4.516   5.124   0.240 -1.0562 -3.2410 -1.7194
  316TIP3   OH222582   5.409   6.231   7.078  0.6977 -0.4783 -1.0129
  316TIP3    H122583   5.332   6.247   7.024 -0.4196  0.1848  0.6957
  316TIP3    H222584   5.480   6.278   7.033 -0.6356  1.8414 -0.8576
  317TIP3   OH222585   0.309   6.896   1.261 -1.0206  0.1479  0.0012
  317TIP3    H122586   0.388   6.939   1.292 -2.2090  1.5264  1.2589
  317TIP3    H222587   0.237   6.954   1.287 -2.4596 -1.0177 -1.1409
  318TIP3   OH222588   5.651   0.309   8.061 -0.6306  0.0137 -0.4979
  318TIP3    H122589   5.653   0.294   8.156  1.0840 -0.9826 -0.6465
  318TIP3    H222590   5.574   0.262   8.031 -0.3942 -0.8874  0.2471
  319TIP3   OH222591   0.551   1.769   7.004  0.4095 -0.2746  0.5901
  319TIP3    H122592   0.621   1.726   7.052  0.1276 -1.1524  0.2373
  319TIP3    H222593   0.488   1.699   6.985  0.0155  0.2583 -0.1325
  320TIP3   OH222594   6.899   0.926   7.466  0.2557 -0.6394  0.2255
  320TIP3    H122595   6.905   0.874   7.385  0.4272  0.0457 -0.2073
  320TIP3    H222596   6.833   0.993   7.446  0.3494 -0.4266  0.6341
  321TIP3   OH222597   5.049   4.362   7.416  0.5445  0.0209  0.2741
  321TIP3    H122598   5.110   4.307   7.368 -0.6698  0.5798 -2.0858
  321TIP3    H222599   5.046   4.325   7.504  2.0571 -1.7678 -0.3755
  322TIP3   OH222600   0.638   3.827   7.927  0.1226 -0.0927  0.0637
  322TIP3    H122601   0.592   3.905   7.960 -1.0945 -0.8863  0.2926
  322TIP3    H222602   0.724   3.860   7.902  0.4887  0.8915  2.3464
  323TIP3   OH222603   0.784   3.486   7.263  0.0507 -0.3013 -0.0978
  323TIP3    H122604   0.796   3.469   7.170 -0.3145  1.1837 -0.4441
  323TIP3    H222605   0.863   3.533   7.289  0.5311 -1.4339  0.5568
  324TIP3   OH222606   4.285   4.536   2.442  0.6614 -0.1403 -0.1154
  324TIP3    H122607   4.296   4.629   2.423  1.9586  0.1306  1.6855
  324TIP3    H222608   4.190   4.523   2.443  0.4088  1.4604  0.7815
  325TIP3   OH222609   2.046   2.827   7.921 -0.4661  0.6477  0.1630
  325TIP3    H122610   1.961   2.870   7.911 -0.9957  0.0711  1.8341
  325TIP3    H222611   2.109   2.899   7.929 -1.1820  1.1625  1.6806
  326TIP3   OH222612   2.965   3.334   6.342  0.3599 -0.7025 -0.1649
  326TIP3    H122613   3.044   3.299   6.300  1.6462 -3.4776  3.9879
  326TIP3    H222614   2.994   3.414   6.385  0.4326 -0.7650 -0.0987
  327TIP3   OH222615   5.097   6.861   1.511  0.2094 -0.1531  0.2076
  327TIP3    H122616   5.164   6.811   1.464 -0.8924  0.2380 -1.8889
  327TIP3    H222617   5.145   6.932   1.553  1.1039  0.3807 -1.6237
  328TIP3   OH222618   4.109   3.477   2.296  0.4898 -0.0550 -0.3730
  328TIP3    H122619   4.189   3.497   2.344  0.7301 -0.3218 -0.6586
  328TIP3    H222620   4.052   3.435   2.361  0.5812  0.1261 -0.1723
  329TIP3   OH222621   0.440   5.723   0.302 -0.3560  0.2464  0.2704
  329TIP3    H122622   0.358   5.761   0.270  0.3829 -0.0266 -2.1508
  329TIP3    H222623   0.413   5.660   0.369 -2.1745 -0.0812 -0.7102
  330TIP3   OH222624   1.319   3.790   0.033 -0.9829 -0.1188  0.1113
  330TIP3    H122625   1.337   3.824   0.121 -3.0289  0.6691  0.2964
  330TIP3    H222626   1.355   3.702   0.034  0.7311  0.5366  1.0633
  331TIP3   OH222627   0.521   1.931   7.253 -0.0726  0.1463 -0.1393
  331TIP3    H122628   0.600   1.903   7.298  0.1383  1.6337  0.4636
  331TIP3    H222629   0.525   1.887   7.168  1.7719  0.7266 -0.3941
  332TIP3   OH222630   5.128   3.337   0.852  0.2306  0.2353 -0.1176
  332TIP3    H122631   5.035   3.355   0.846  0.3051  1.5230  1.7958
  332TIP3    H222632   5.170   3.422   0.843  1.5407 -0.6106 -4.3560
  333TIP3   OH222633   0.295   2.381   8.292 -0.2759 -0.1346 -0.4611
  333TIP3    H122634   0.342   2.414   8.369  0.3291 -1.7735 -0.1001
  333TIP3    H222635   0.363   2.368   8.226 -0.6355  0.1912 -0.9025
  334TIP3   OH222636   1.480   0.974   1.797  0.0159  0.6301  0.1303
  334TIP3    H122637   1.439   0.897   1.758  0.2828  1.3998 -1.7897
  334TIP3    H222638   1.566   0.944   1.827  0.0637  0.1489 -0.4823
  335TIP3   OH222639   1.395   5.903   7.256  0.1618 -0.0212 -0.3195
  335TIP3    H122640   1.490   5.898   7.264 -0.0113 -0.2176  2.2604
  335TIP3    H222641   1.380   5.934   7.166  2.6864  1.2310 -0.3768
  336TIP3   OH222642   2.368   2.141   6.723 -0.1739 -0.0254 -0.0196
  336TIP3    H122643   2.416   2.060   6.736  1.1961  0.4101 -1.9189
  336TIP3    H222644   2.425   2.209   6.757 -0.9222  0.2364  0.7418
  337TIP3   OH222645   1.700   6.407   1.036 -0.1140 -0.4233  0.1746
  337TIP3    H122646   1.673   6.466   0.965 -2.0526 -0.7293  0.6029
  337TIP3    H222647   1.793   6.390   1.019  0.2085  1.7899 -0.6410
  338TIP3   OH222648   4.288   4.542   1.001  0.6597  0.0656 -0.0580
  338TIP3    H122649   4.244   4.546   1.086 -0.8849 -0.7442 -0.7854
  338TIP3    H222650   4.301   4.633   0.976 -0.4856  0.3250  0.2493
  339TIP3   OH222651   1.079   5.039   0.635  0.5784  0.6190 -0.1066
  339TIP3    H122652   1.132   5.071   0.562  0.8651  0.8427  0.1959
  339TIP3    H222653   1.122   5.074   0.713 -0.7969  1.9894  0.0824
  340TIP3   OH222654   1.941   3.738   1.147 -0.1130 -0.2055  0.4452
  340TIP3    H122655   1.984   3.815   1.111 -0.7210 -0.4271 -0.7852
  340TIP3    H222656   1.979   3.728   1.235 -1.2702  2.5014  1.3401
  341TIP3   OH222657   3.671   0.739   8.428 -0.8514 -0.1615  0.2950
  341TIP3    H122658   3.609   0.724   8.499 -1.9525  1.6597 -0.1963
  341TIP3    H222659   3.616   0.753   8.351  0.1109  1.9158 -0.0876
  342TIP3   OH222660   3.952   2.206   8.219 -0.5202  0.0051  0.2337
  342TIP3    H122661   3.898   2.243   8.288 -1.5331  0.0035 -0.5449
  342TIP3    H222662   3.922   2.115   8.210 -0.5985  0.0893 -0.4044
  343TIP3   OH222663   1.192   6.787   1.478  0.3386 -0.1012  0.1183
  343TIP3    H122664   1.122   6.783   1.543  0.3781 -0.8417  0.1263
  343TIP3    H222665   1.254   6.851   1.513  0.0964 -0.1019  0.5501
  344TIP3   OH222666   3.182   4.791   0.490  0.0246 -0.5867 -0.0964
  344TIP3    H122667   3.219   4.877   0.471 -0.8683 -0.1661  0.0231
  344TIP3    H222668   3.093   4.794   0.455 -0.3382 -1.1285  0.7360
  345TIP3   OH222669   5.642   4.260   1.369  0.8284  0.7738 -0.2762
  345TIP3    H122670   5.724   4.213   1.357  0.1376 -0.0325 -2.1460
  345TIP3    H222671   5.605   4.267   1.281 -2.1541 -0.8095  0.7234
  346TIP3   OH222672   4.805   6.594   7.169 -0.1858 -0.8219  0.4806
  346TIP3    H122673   4.769   6.518   7.123 -1.7940 -0.3637  0.9417
  346TIP3    H222674   4.852   6.642   7.101 -3.0587  0.1837 -0.9601
  347TIP3   OH222675   1.246   1.774   0.692 -0.4592 -0.3197  0.1327
  347TIP3    H122676   1.271   1.858   0.653  0.7767 -0.3276  0.8345
  347TIP3    H222677   1.151   1.773   0.689 -0.5733  1.5911  1.0507
  348TIP3   OH222678   3.110   2.052   0.726  0.5386 -0.5284  0.0298
  348TIP3    H122679   3.038   2.082   0.782 -0.4857  0.5653 -1.7710
  348TIP3    H222680   3.187   2.099   0.760  0.1090 -0.5073  1.0096
  349TIP3   OH222681   2.761   0.574   1.606 -0.4103  0.8315  0.5178
  349TIP3    H122682   2.837   0.589   1.551  1.3791 -0.2372  2.5192
  349TIP3    H222683   2.710   0.508   1.559  1.1579 -0.2083  0.1717
  350TIP3   OH222684   5.200   4.547   8.307 -0.0225  0.3861 -0.1255
  350TIP3    H122685   5.149   4.574   8.384  1.4913  1.2367  0.6198
  350TIP3    H222686   5.204   4.626   8.253  0.4274  0.3043 -0.2134
  351TIP3   OH222687   5.382   0.350   0.572 -0.0094 -0.7823 -0.0712
  351TIP3    H122688   5.367   0.434   0.530 -0.1400 -1.4444 -1.4135
  351TIP3    H222689   5.308   0.296   0.546  0.5876 -1.6241 -0.0916
  352TIP3   OH222690   4.118   5.507   8.141  0.0824  0.0519  0.2713
  352TIP3    H122691   4.138   5.506   8.235  0.7616  3.5505  0.3035
  352TIP3    H222692   4.204   5.513   8.099 -0.2802  0.7989 -0.3969
  353TIP3   OH222693   5.430   5.245   0.474 -0.6571 -0.2818 -0.6955
  353TIP3    H122694   5.388   5.258   0.389  0.4681  3.8101 -0.8520
  353TIP3    H222695   5.378   5.297   0.535 -0.3075 -1.5479  0.7503
  354TIP3   OH222696   3.695   1.963   7.229 -0.4645 -0.0404 -0.3542
  354TIP3    H122697   3.712   1.916   7.311 -1.5905  1.6353  0.9237
  354TIP3    H222698   3.775   2.014   7.214 -0.1755 -0.5065 -0.4373
  355TIP3   OH222699   0.372   4.796   1.579  0.5588  0.3922 -0.5477
  355TIP3    H122700   0.423   4.746   1.641 -1.2200  0.0323  0.7058
  355TIP3    H222701   0.430   4.808   1.504  2.4642  0.1094  0.8229
  356TIP3   OH222702   1.842   3.239   1.126 -0.3256 -0.5922  0.1666
  356TIP3    H122703   1.907   3.183   1.168  0.0856  0.7478  1.3847
  356TIP3    H222704   1.893   3.293   1.065 -0.1356  0.9192  1.5964
  357TIP3   OH222705   4.939   3.158   8.116  0.3682 -0.2598  0.5324
  357TIP3    H122706   4.987   3.076   8.105  0.7959  0.2274 -1.8009
  357TIP3    H222707   4.859   3.146   8.065  0.2592  0.6358  0.4796
  358TIP3   OH222708   2.833   1.489   7.185 -0.2839 -0.0065  0.0003
  358TIP3    H122709   2.845   1.554   7.255  1.3989  0.4233 -0.6190
  358TIP3    H222710   2.861   1.406   7.224  0.9234  0.2799 -0.1895
  359TIP3   OH222711   3.791   3.728   1.110  0.3899  0.1459  0.1290
  359TIP3    H122712   3.744   3.649   1.138 -1.5143  1.2814  0.3090
  359TIP3    H222713   3.828   3.764   1.190  0.2792  0.0453  0.2258
  360TIP3   OH222714   2.713   6.283   6.977  0.1927 -1.1466  0.0831
  360TIP3    H122715   2.791   6.299   6.924  0.4663 -0.1401  0.7463
  360TIP3    H222716   2.640   6.288   6.915  0.5930 -1.1778 -0.3942
  361TIP3   OH222717   0.811   2.347   0.862 -0.0845 -0.0389 -0.6182
  361TIP3    H122718   0.776   2.318   0.946 -0.6290 -0.2742 -0.9273
  361TIP3    H222719   0.879   2.284   0.841 -1.9975 -1.8080 -1.8268
  362TIP3   OH222720   6.031   1.493   7.068 -0.2082 -0.4404 -0.3423
  362TIP3    H122721   6.106   1.442   7.037 -0.7759 -0.9417 -0.9144
  362TIP3    H222722   5.991   1.528   6.988  0.2887  1.1174  0.0373
  363TIP3   OH222723   4.459   4.014   7.704 -0.1224  0.1744 -0.7875
  363TIP3    H122724   4.518   4.088   7.718  0.3074 -0.5547  1.8370
  363TIP3    H222725   4.401   4.016   7.780  1.6655 -3.6752  0.9563
  364TIP3   OH222726   6.420   5.512   0.924 -0.2004 -0.4378  0.5478
  364TIP3    H122727   6.447   5.455   0.995  2.1578 -0.6029 -0.3992
  364TIP3    H222728   6.436   5.601   0.957  0.1719 -0.4865  0.5008
  365TIP3   OH222729   1.435   6.104   1.637  0.3441 -0.0170  0.2230
  365TIP3    H122730   1.467   6.167   1.572 -0.2937  0.1865  0.0984
  365TIP3    H222731   1.513   6.077   1.685  0.8476 -0.2816 -0.7188
  366TIP3   OH222732   5.357   3.548   0.863  0.3287  0.6880 -0.2235
  366TIP3    H122733   5.452   3.542   0.855  0.8016  5.0323 -0.4790
  366TIP3    H222734   5.330   3.594   0.783 -2.1908 -1.1554 -0.5571
  367TIP3   OH222735   1.975   1.147   1.099  0.1262 -0.0289  0.1521
  367TIP3    H122736   1.939   1.103   1.175  0.2033 -1.2299 -0.4943
  367TIP3    H222737   1.970   1.083   1.028  3.3211 -0.2339 -0.0366
  368TIP3   OH222738   4.684   3.944   2.044 -0.0735 -0.3525 -0.2458
  368TIP3    H122739   4.711   3.977   2.130 -0.0043  1.7420 -1.0275
  368TIP3    H222740   4.588   3.951   2.045  0.0256  1.9383 -1.1326
  369TIP3   OH222741   2.215   2.739   0.518  0.0254  0.4655 -0.2616
  369TIP3    H122742   2.266   2.685   0.579 -1.2017 -0.5377 -0.0870
  369TIP3    H222743   2.127   2.742   0.556 -0.6288  0.2605 -1.6811
  370TIP3   OH222744   2.357   1.352   8.450 -0.2317  0.4075  0.8310
  370TIP3    H122745   2.263   1.362   8.434 -0.0965  0.4808  0.0472
  370TIP3    H222746   2.384   1.280   8.393 -0.0935 -0.6568  2.1811
  371TIP3   OH222747   1.894   5.600   6.055  0.2005 -0.1667 -0.2910
  371TIP3    H122748   1.956   5.669   6.031 -0.2262  0.7371  1.0681
  371TIP3    H222749   1.808   5.643   6.053 -0.3193 -1.1949 -1.3832
  372TIP3   OH222750   3.534   2.096   1.563  0.2192  0.2199 -0.0658
  372TIP3    H122751   3.536   2.192   1.562  1.4181  0.2596  1.5899
  372TIP3    H222752   3.534   2.073   1.656 -0.1901 -1.3916 -0.4416
  373TIP3   OH222753   6.019   3.955   7.027 -0.1837  0.3854  0.1813
  373TIP3    H122754   6.062   3.883   7.073  1.0504  1.4637  0.7707
  373TIP3    H222755   6.012   3.925   6.936 -1.1885 -1.1172  0.7015
  374TIP3   OH222756   6.768   1.701   0.768 -0.1446 -0.5600 -0.5870
  374TIP3    H122757   6.728   1.614   0.763  2.3477 -1.9459  1.1937
  374TIP3    H222758   6.746   1.733   0.855  1.4755 -0.7873 -0.0742
  375TIP3   OH222759   1.150   2.157   2.604 -0.1515 -0.0462  0.0837
  375TIP3    H122760   1.156   2.069   2.640  0.2337 -0.2966 -0.5854
  375TIP3    H222761   1.079   2.153   2.540  1.5019 -0.5672 -1.8341
  376TIP3   OH222762   5.082   1.571   7.653  0.0126  0.2561  0.0109
  376TIP3    H122763   5.099   1.489   7.699  0.6755  0.5149  0.2341
  376TIP3    H222764   5.012   1.550   7.591 -0.5993 -0.1996  0.8414
  377TIP3   OH222765   4.129   2.334   8.052  0.2579  0.2117 -0.5144
  377TIP3    H122766   4.061   2.304   8.112  1.0990 -1.6723 -0.4574
  377TIP3    H222767   4.166   2.255   8.014  1.0401  1.2816 -2.1094
  378TIP3   OH222768   0.098   1.417   0.375 -0.4052 -0.6310  0.3017
  378TIP3    H122769   0.082   1.502   0.333  0.1344 -0.9827 -0.6367
  378TIP3    H222770   0.074   1.431   0.466 -0.7731  0.4022  0.0618
  379TIP3   OH222771   5.568   5.496   1.402 -0.3071  0.2658  0.4298
  379TIP3    H122772   5.484   5.535   1.382 -0.4061 -0.4007 -0.5287
  379TIP3    H222773   5.553   5.402   1.395 -0.3946 -0.1211  3.8976
  380TIP3   OH222774   6.455   6.936   1.226 -0.0446 -0.0264  0.0369
  380TIP3    H122775   6.490   6.964   1.311 -1.5704 -1.2949  1.1574
  380TIP3    H222776   6.365   6.909   1.245 -0.9148  0.9542 -2.2781
  381TIP3   OH222777   0.439   3.670   0.007 -0.3214  0.4235 -0.1329
  381TIP3    H122778   0.468   3.582   0.034 -0.2438  0.8934  1.4147
  381TIP3    H222779   0.488   3.687  -0.074 -1.6869 -1.6552 -1.5246
  382TIP3   OH222780   5.058   6.473   1.387 -0.4203  0.2193  0.3191
  382TIP3    H122781   5.129   6.439   1.441  1.6243  0.3170 -2.0967
  382TIP3    H222782   5.030   6.399   1.334  0.1973  0.9393 -1.0597
  383TIP3   OH222783   1.273   3.576   7.135  0.1742 -0.1091 -0.1598
  383TIP3    H122784   1.197   3.574   7.193 -1.3026  0.1545 -1.9993
  383TIP3    H222785   1.340   3.624   7.185 -1.2770  0.7566  1.0250
  384TIP3   OH222786   0.025   2.118   2.808  0.0285 -0.0647 -0.6786
  384TIP3    H122787  -0.032   2.191   2.829  1.0714 -0.0254  2.5754
  384TIP3    H222788  -0.024   2.040   2.835  0.7031 -0.1656  0.3248
  385TIP3   OH222789   4.475   3.136   1.739 -0.0280  0.5121  0.4220
  385TIP3    H122790   4.490   3.120   1.832  0.6264  0.6557  0.3482
  385TIP3    H222791   4.562   3.154   1.703 -0.3659  1.2730 -0.0620
  386TIP3   OH222792   1.050   3.682   1.094 -0.0777  0.7099  0.6507
  386TIP3    H122793   1.141   3.675   1.125  0.2197  2.0761  0.1334
  386TIP3    H222794   1.004   3.611   1.140  0.9067  1.0111  2.1777
  387TIP3   OH222795   2.139   0.020   1.318 -0.2258 -0.1323 -0.3360
  387TIP3    H122796   2.133  -0.074   1.306  1.3196 -0.4873  1.2136
  387TIP3    H222797   2.080   0.040   1.391  2.2856 -0.6106  1.9972
  388TIP3   OH222798   4.701   3.725   0.814 -0.7294  0.2275 -0.0558
  388TIP3    H122799   4.657   3.806   0.786 -2.9158 -0.5333  0.9638
  388TIP3    H222800   4.794   3.741   0.796 -1.0693  2.9910  0.1461
  389TIP3   OH222801   0.882   6.095   0.298 -0.2200  0.4490 -0.3571
  389TIP3    H122802   0.968   6.136   0.308  1.2601 -1.4910 -3.4397
  389TIP3    H222803   0.869   6.045   0.379  3.0847 -1.6457 -0.9279
  390TIP3   OH222804   1.685   3.141   0.355 -0.3709 -0.0633  0.0566
  390TIP3    H122805   1.667   3.150   0.448 -0.5824  0.8810 -0.0664
  390TIP3    H222806   1.604   3.107   0.318 -1.2501  2.1167 -0.1664
  391TIP3   OH222807   4.143   1.715   1.735  0.2531 -0.1004  0.0695
  391TIP3    H122808   4.229   1.711   1.778 -0.0958 -1.4624  0.7102
  391TIP3    H222809   4.080   1.709   1.807 -0.3641 -0.7362 -0.5050
  392TIP3   OH222810   6.076   5.931   7.811  0.0521  0.2415  0.1977
  392TIP3    H122811   6.118   5.870   7.751  1.4808  0.9429  0.4386
  392TIP3    H222812   6.021   5.875   7.867  2.0007 -0.9886  1.0046
  393TIP3   OH222813   2.758   2.159   0.345 -0.5616 -0.4312 -0.4803
  393TIP3    H122814   2.813   2.122   0.275 -0.3050 -0.8214 -0.0766
  393TIP3    H222815   2.820   2.194   0.408 -0.7664 -1.0957  0.1003
  394TIP3   OH222816   5.383   4.990   1.620  0.6143 -0.0349  0.2198
  394TIP3    H122817   5.398   5.023   1.709  0.8264 -0.9171  0.5227
  394TIP3    H222818   5.417   4.901   1.622  0.1656 -0.2313 -0.6130
  395TIP3   OH222819   3.966   4.883   6.656 -0.4529 -0.4539 -0.0789
  395TIP3    H122820   3.973   4.816   6.588  0.0951 -0.0644 -0.4157
  395TIP3    H222821   3.897   4.942   6.625 -0.0054 -0.1159 -0.4459
  396TIP3   OH222822   4.361   1.894   1.287 -0.3827 -0.1249 -0.0041
  396TIP3    H122823   4.287   1.837   1.306 -1.8813 -0.5997 -5.6662
  396TIP3    H222824   4.425   1.836   1.244  1.0134  1.2600  0.1223
  397TIP3   OH222825   6.763   1.892   1.409 -0.0842  0.5878  0.0196
  397TIP3    H122826   6.705   1.879   1.334  0.1550 -0.6252  0.0290
  397TIP3    H222827   6.704   1.918   1.480 -0.9652 -2.4667  0.5421
  398TIP3   OH222828   2.825   3.614   1.662  0.1903  0.4845  0.3792
  398TIP3    H122829   2.756   3.670   1.699  0.8276  1.1352  0.6046
  398TIP3    H222830   2.870   3.671   1.600  0.1875 -0.1063 -0.1740
  399TIP3   OH222831   5.537   5.291   0.762  0.0794  0.1744  0.4623
  399TIP3    H122832   5.599   5.275   0.691 -1.3959 -0.2002 -0.7945
  399TIP3    H222833   5.543   5.386   0.778  2.3903 -0.1246  1.7792
  400TIP3   OH222834   3.454   5.684   2.334  0.3898 -0.4765  0.0540
  400TIP3    H122835   3.365   5.714   2.353  0.1747  0.2564 -1.8693
  400TIP3    H222836   3.500   5.689   2.418 -1.1113  0.0786  0.8752
  401TIP3   OH222837   3.483   0.044   1.879  0.1791 -0.1107 -0.5471
  401TIP3    H122838   3.521  -0.022   1.821  0.3398 -0.5473  0.0427
  401TIP3    H222839   3.558   0.078   1.929 -0.0277 -0.1105 -0.2314
  402TIP3   OH222840   3.989   1.447   2.740  0.3017  0.2955  0.2507
  402TIP3    H122841   3.960   1.396   2.816 -1.7758 -0.7555 -1.1488
  402TIP3    H222842   4.037   1.385   2.686 -0.7422  0.2367 -0.6411
  403TIP3   OH222843   6.543   0.920   0.068 -0.0357  0.3067 -0.2758
  403TIP3    H122844   6.579   0.992   0.016 -0.9689 -0.1817 -1.6635
  403TIP3    H222845   6.450   0.918   0.044 -0.2363 -0.6971  0.5335
  404TIP3   OH222846   2.693   4.356   8.223  0.0132  0.1221  0.1228
  404TIP3    H122847   2.643   4.406   8.159  0.4203  0.1535 -0.1697
  404TIP3    H222848   2.626   4.315   8.278 -0.4068 -1.1728 -1.2770
  405TIP3   OH222849   5.294   4.335   1.124 -0.2350  0.4633 -0.6400
  405TIP3    H122850   5.249   4.295   1.199 -1.7043  2.5507 -0.3148
  405TIP3    H222851   5.312   4.262   1.065 -1.2351 -0.9032  0.6717
  406TIP3   OH222852   3.223   4.615   8.399 -0.0099 -0.2288  0.8537
  406TIP3    H122853   3.133   4.582   8.394  0.4189 -1.5449  1.4906
  406TIP3    H222854   3.214   4.705   8.432 -1.3224  0.9929 -2.4063
  407TIP3   OH222855   1.193   3.983   7.540 -0.3046 -0.3088  0.0988
  407TIP3    H122856   1.098   3.978   7.524 -0.5094 -0.6746  1.2914
  407TIP3    H222857   1.229   4.018   7.459 -1.5256  0.3748 -0.1864
  408TIP3   OH222858   6.951   6.543   2.018 -0.1573  0.9566 -0.0419
  408TIP3    H122859   7.032   6.510   1.980 -1.0417  1.0749 -2.1576
  408TIP3    H222860   6.978   6.617   2.073  1.1670  0.9452 -0.6557
  409TIP3   OH222861   4.158   2.628   7.321  0.0898  0.1627  0.2405
  409TIP3    H122862   4.189   2.553   7.373  0.9593 -0.2732 -0.8631
  409TIP3    H222863   4.149   2.593   7.232 -1.1964  0.9387  0.0429
  410TIP3   OH222864   1.839   3.574   7.835  0.5119 -0.2573  0.4863
  410TIP3    H122865   1.762   3.519   7.850  0.4001  0.0283  0.9902
  410TIP3    H222866   1.879   3.582   7.921  0.0162  1.2035  0.6103
  411TIP3   OH222867   4.073   2.656   1.226  0.0845  0.4029 -0.2261
  411TIP3    H122868   3.990   2.683   1.267 -0.0216 -1.1912  0.6967
  411TIP3    H222869   4.094   2.727   1.166 -1.2737  1.4669  0.4920
  412TIP3   OH222870   5.436   6.179   1.481 -0.3642  0.0069 -0.2960
  412TIP3    H122871   5.445   6.083   1.479  0.1402  0.0636 -1.6876
  412TIP3    H222872   5.468   6.204   1.567  2.5949 -0.8206 -1.0455
  413TIP3   OH222873   5.666   4.910   1.080 -0.0063 -0.0928  0.3674
  413TIP3    H122874   5.664   4.918   1.175  0.4886 -0.1579  0.3853
  413TIP3    H222875   5.665   5.000   1.048  2.7937  0.0599  0.5088
  414TIP3   OH222876   0.397   6.355   0.508  0.2778  0.9563 -0.3490
  414TIP3    H122877   0.328   6.390   0.451  0.1206  2.4451  0.6938
  414TIP3    H222878   0.350   6.312   0.579  0.4430  0.9788 -0.2260
  415TIP3   OH222879   6.745   2.517   7.017 -0.9913  0.4537 -0.6225
  415TIP3    H122880   6.708   2.524   6.929 -0.7626  0.9677 -0.6818
  415TIP3    H222881   6.687   2.568   7.072 -1.8682 -0.9046 -0.2226
  416TIP3   OH222882   2.647   3.319   8.078 -0.4707  0.3923 -0.1285
  416TIP3    H122883   2.641   3.281   8.165 -0.1443  0.2038 -0.1866
  416TIP3    H222884   2.582   3.389   8.077 -1.3760 -0.4296 -0.1507
  417TIP3   OH222885   3.262   4.517   0.981  0.4363 -0.1816  0.5571
  417TIP3    H122886   3.267   4.474   1.067  0.1152 -0.7373  0.3076
  417TIP3    H222887   3.217   4.453   0.925 -1.5333  1.1083  0.5625
  418TIP3   OH222888   4.742   0.591   7.930 -0.2116 -0.6058  0.0043
  418TIP3    H122889   4.772   0.650   7.861  1.9902  0.0709  1.4488
  418TIP3    H222890   4.791   0.510   7.916 -1.6890 -1.4356 -0.7137
  419TIP3   OH222891   4.882   2.591   7.089 -0.2569 -0.0480  0.8111
  419TIP3    H122892   4.847   2.649   7.157  0.8592  2.2136 -0.4084
  419TIP3    H222893   4.897   2.649   7.014  3.1589 -1.4238  0.2435
  420TIP3   OH222894   1.410   2.288   7.258 -0.3232  0.3184 -0.2567
  420TIP3    H122895   1.415   2.346   7.334  1.6326  1.2233 -0.9963
  420TIP3    H222896   1.326   2.309   7.217  0.2962  2.7219 -0.4880
  421TIP3   OH222897   5.554   3.719   1.493 -0.0267  0.3741 -0.0712
  421TIP3    H122898   5.570   3.647   1.432 -0.5188  1.1433 -1.1421
  421TIP3    H222899   5.574   3.683   1.579 -0.8746 -1.2415 -0.5097
  422TIP3   OH222900   0.929   6.312   8.062  0.0798  0.1556  0.2556
  422TIP3    H122901   1.009   6.276   8.101  0.2190  0.1987  0.0141
  422TIP3    H222902   0.858   6.266   8.106  0.2241  0.4722  0.8228
  423TIP3   OH222903   6.362   4.865   6.472  0.2557 -0.4931  0.9805
  423TIP3    H122904   6.277   4.854   6.429  0.0007  0.2448  1.2761
  423TIP3    H222905   6.422   4.810   6.422 -0.7022 -2.3151  1.7191
  424TIP3   OH222906   0.063   6.263   6.090 -0.1943 -0.8109 -0.4539
  424TIP3    H122907   0.018   6.340   6.125  2.2129  0.7774 -0.6092
  424TIP3    H222908   0.020   6.188   6.131 -1.5626  0.6881  0.9602
  425TIP3   OH222909   6.171   2.174   7.105  0.6924  0.3422 -0.1486
  425TIP3    H122910   6.165   2.267   7.084 -0.6529  0.3463  0.1447
  425TIP3    H222911   6.214   2.170   7.190 -0.3195  0.7947  0.4034
  426TIP3   OH222912   4.748   4.237   8.096  0.1918 -0.1400  0.1991
  426TIP3    H122913   4.772   4.306   8.158  1.3371 -0.4864  0.1630
  426TIP3    H222914   4.673   4.193   8.137  0.3710  0.2060  0.9075
  427TIP3   OH222915   4.103   1.525   0.661  0.5946  0.0015 -0.0359
  427TIP3    H122916   4.091   1.448   0.717 -0.8022  0.1696 -0.0702
  427TIP3    H222917   4.153   1.587   0.715 -0.0968 -0.1289  0.7638
  428TIP3   OH222918   2.450   4.266   7.619 -0.2663 -0.2881  0.1283
  428TIP3    H122919   2.441   4.171   7.623  0.0934 -0.3576 -0.5059
  428TIP3    H222920   2.542   4.280   7.597  0.0583  0.2609  1.7102
  429TIP3   OH222921   4.021   1.726   0.997  0.2828  0.4987  0.2877
  429TIP3    H122922   4.014   1.786   0.923  1.2554 -2.1170 -2.1332
  429TIP3    H222923   3.932   1.716   1.030 -0.3183  1.1081 -1.1060
  430TIP3   OH222924   6.616   3.534   1.619  0.0456 -1.1004  0.2139
  430TIP3    H122925   6.678   3.602   1.646 -0.1224  0.0939 -2.1998
  430TIP3    H222926   6.556   3.526   1.694  1.0280  0.2341  1.2026
  431TIP3   OH222927   0.559   0.565   2.110  0.2421 -0.1370 -0.1488
  431TIP3    H122928   0.645   0.545   2.074 -0.4497 -0.6131 -1.6430
  431TIP3    H222929   0.545   0.499   2.178  0.5216 -0.8823 -0.8028
  432TIP3   OH222930   0.188   5.354   0.054 -0.8432 -0.0582 -0.1316
  432TIP3    H122931   0.281   5.371   0.064 -0.5832 -1.2456 -0.4935
  432TIP3    H222932   0.150   5.440   0.034  0.5814  0.0027 -3.0156
  433TIP3   OH222933   4.917   4.787   1.023  0.4503  0.9823 -0.1305
  433TIP3    H122934   4.947   4.873   1.052 -0.8396  0.8723  1.6753
  433TIP3    H222935   4.909   4.795   0.928  3.3707  1.8369 -0.3813
  434TIP3   OH222936   5.223   5.419   0.484  0.1419  0.1048  0.5514
  434TIP3    H122937   5.237   5.467   0.565 -0.8779 -1.5032  1.7459
  434TIP3    H222938   5.130   5.431   0.464  0.3891  0.4994 -0.4016
  435TIP3   OH222939   2.602   3.591   1.030  0.1443  0.3109  0.3160
  435TIP3    H122940   2.536   3.569   1.096 -0.3974  0.1842 -0.2693
  435TIP3    H222941   2.595   3.686   1.019 -1.1114  0.0903 -0.9763
  436TIP3   OH222942   4.127   0.545   1.430  0.1111  0.0155  0.0921
  436TIP3    H122943   4.060   0.508   1.486 -0.7422  1.4378  0.0627
  436TIP3    H222944   4.134   0.636   1.457  0.8642  0.3121 -0.9990
  437TIP3   OH222945   2.562   4.672   2.167 -0.0356  0.4679  0.3031
  437TIP3    H122946   2.548   4.578   2.179 -1.3222  0.7252  1.0138
  437TIP3    H222947   2.520   4.692   2.083 -0.2789  0.4988  0.4297
  438TIP3   OH222948   1.860   0.525   1.734  0.6575  0.3713  0.1741
  438TIP3    H122949   1.839   0.579   1.811  1.8140 -0.3236  1.0125
  438TIP3    H222950   1.951   0.546   1.715  0.4750  0.2803 -0.8188
  439TIP3   OH222951   5.361   2.557   2.145 -0.3392 -0.3938 -0.1946
  439TIP3    H122952   5.356   2.606   2.063 -1.4499  2.3509  1.3529
  439TIP3    H222953   5.279   2.508   2.149 -0.0104 -1.0298 -0.9633
  440TIP3   OH222954   0.642   4.393   1.732  0.4832  0.1534  0.2962
  440TIP3    H122955   0.680   4.331   1.795  0.0782  1.4689  1.9077
  440TIP3    H222956   0.568   4.347   1.694  1.2100 -0.9585  0.1832
  441TIP3   OH222957   0.660   2.846   7.268  0.5750  0.6748  0.0853
  441TIP3    H122958   0.667   2.905   7.193  0.7505 -0.5689 -0.8969
  441TIP3    H222959   0.750   2.815   7.282  0.1880 -0.8728 -0.6756
  442TIP3   OH222960   2.896   3.350   2.306 -0.1114  0.1377 -0.1440
  442TIP3    H122961   2.881   3.434   2.349 -1.0121 -0.4020  0.6406
  442TIP3    H222962   2.862   3.361   2.217 -1.1278  0.3052  0.2595
  443TIP3   OH222963   1.225   3.349   1.933 -0.0518  0.2374 -0.7382
  443TIP3    H122964   1.308   3.316   1.897 -0.2810  0.5178 -1.5296
  443TIP3    H222965   1.164   3.276   1.924 -0.0079  0.1770 -0.5527
  444TIP3   OH222966   6.647   0.353   1.153  0.1430  0.4581 -0.1276
  444TIP3    H122967   6.692   0.437   1.152 -0.2081  0.6471 -0.4047
  444TIP3    H222968   6.584   0.359   1.081  1.8976 -1.0345 -1.8844
  445TIP3   OH222969   6.927   2.316   7.087 -0.2102  0.0425  0.5590
  445TIP3    H122970   6.874   2.395   7.077  0.4316  0.3018 -1.2722
  445TIP3    H222971   6.895   2.258   7.018  1.7268  0.1462 -0.4819
  446TIP3   OH222972   6.497   1.743   7.780  0.4728  0.7350  0.1862
  446TIP3    H122973   6.512   1.764   7.687 -2.1753  0.2339 -0.4464
  446TIP3    H222974   6.527   1.652   7.789  0.0691  0.5332 -0.4022
  447TIP3   OH222975   6.646   2.738   3.002  0.4593  0.6557 -0.1732
  447TIP3    H122976   6.559   2.766   2.973  0.3918  0.0273 -0.5932
  447TIP3    H222977   6.684   2.817   3.040 -0.4968  0.8082  0.5231
  448TIP3   OH222978   4.563   3.515   7.190 -0.2505  0.5665  0.7809
  448TIP3    H122979   4.644   3.469   7.166 -0.7874  0.9730 -2.2060
  448TIP3    H222980   4.585   3.608   7.181 -0.9010  0.6959  0.5053
  449TIP3   OH222981   5.601   1.701   7.602 -0.2030 -0.0512  0.2182
  449TIP3    H122982   5.600   1.795   7.621 -0.8936 -0.5971  3.3413
  449TIP3    H222983   5.645   1.695   7.517 -2.2994  3.2744 -1.3399
  450TIP3   OH222984   4.879   6.704   1.322 -0.7919  0.0970  0.9324
  450TIP3    H122985   4.817   6.668   1.259  1.3141  0.3609 -1.4706
  450TIP3    H222986   4.939   6.632   1.340 -0.4295  0.4900  1.3285
  451TIP3   OH222987   1.405   4.861   7.719  0.1854  0.5631  0.5200
  451TIP3    H122988   1.375   4.789   7.663 -1.3597  1.2506  0.4046
  451TIP3    H222989   1.470   4.907   7.666 -0.6527  0.7151 -0.4049
  452TIP3   OH222990   1.193   2.402   7.103  0.3033 -0.3687 -0.3293
  452TIP3    H122991   1.117   2.458   7.118  1.1420  0.9292 -0.7843
  452TIP3    H222992   1.166   2.343   7.033 -0.6246 -0.6334  0.2259
  453TIP3   OH222993   0.903   4.151   7.639  0.6723 -0.1041 -0.7256
  453TIP3    H122994   0.973   4.144   7.703  0.3534 -0.4552 -0.4120
  453TIP3    H222995   0.929   4.092   7.568  0.6217 -0.3568 -0.5366
  454TIP3   OH222996   4.881   6.145   6.507 -0.7878  0.2307 -0.2454
  454TIP3    H122997   4.829   6.145   6.427 -0.3671 -0.6671 -0.5276
  454TIP3    H222998   4.816   6.151   6.578 -1.3591 -1.6442 -0.5552
  455TIP3   OH222999   3.941   1.694   1.926 -0.4487 -0.4886 -1.0955
  455TIP3    H123000   3.872   1.758   1.908 -0.9132 -0.3449  0.9525
  455TIP3    H223001   3.905   1.641   1.998  1.2308 -0.9567 -0.5681
  456TIP3   OH223002   3.614   3.866   1.518  0.0973  0.0652 -0.0478
  456TIP3    H123003   3.613   3.945   1.464 -0.5511 -0.0752 -0.2609
  456TIP3    H223004   3.706   3.842   1.525  0.3220  0.9890  0.2408
  457TIP3   OH223005   4.549   4.893   0.982  0.4126 -0.5798 -0.3346
  457TIP3    H123006   4.514   4.876   1.070 -0.9865 -1.0481 -0.9418
  457TIP3    H223007   4.537   4.987   0.969  1.9119 -0.2561  0.4824
  458TIP3   OH223008   3.682   6.438   2.207 -0.2811  0.2238  0.4700
  458TIP3    H123009   3.726   6.356   2.184  0.2522  0.3980  0.8734
  458TIP3    H223010   3.752   6.497   2.233 -0.7860  0.3088  1.7097
  459TIP3   OH223011   4.203   0.018   8.441 -0.9554 -0.4658 -0.8406
  459TIP3    H123012   4.193  -0.025   8.356 -1.2108 -0.3581 -0.8650
  459TIP3    H223013   4.267  -0.036   8.488 -0.5910 -0.3632 -1.2077
  460TIP3   OH223014   0.676   4.182   7.791 -0.2380 -0.0343 -0.1828
  460TIP3    H123015   0.743   4.169   7.723  0.5310 -3.0425  0.9844
  460TIP3    H223016   0.600   4.216   7.744  0.4913 -1.3339 -2.4731
  461TIP3   OH223017   2.594   4.068   0.533 -0.4448  0.0296 -0.0532
  461TIP3    H123018   2.522   4.032   0.481 -1.0933  1.4559 -0.1837
  461TIP3    H223019   2.623   3.995   0.587 -3.2305 -0.1637  1.3748
  462TIP3   OH223020   3.112   1.642   1.389  0.4206  0.2517  0.3658
  462TIP3    H123021   3.109   1.670   1.298 -1.3587 -2.0993 -0.3988
  462TIP3    H223022   3.200   1.606   1.400  1.1414  1.8118  0.0583
  463TIP3   OH223023   6.689   0.163   8.084  0.3752 -0.4138 -0.2097
  463TIP3    H123024   6.717   0.083   8.040  2.0984 -0.6248  1.2046
  463TIP3    H223025   6.755   0.179   8.151 -2.2567 -0.2403  2.5438
  464TIP3   OH223026   3.164   6.467   6.578 -0.7703 -0.0007  0.2011
  464TIP3    H123027   3.208   6.384   6.558 -0.5053  0.4763 -1.3431
  464TIP3    H223028   3.189   6.487   6.668 -1.0923 -1.7383  0.7177
  465TIP3   OH223029   3.040   0.302   2.212  0.4333 -0.0581  0.0236
  465TIP3    H123030   3.091   0.226   2.185  1.8563  0.8221  0.1270
  465TIP3    H223031   3.081   0.376   2.167 -2.8996  0.3647 -2.7024
  466TIP3   OH223032   6.803   0.479   7.113 -0.1734  0.5596 -0.0488
  466TIP3    H123033   6.737   0.538   7.150  0.5109  0.3356  1.6126
  466TIP3    H223034   6.817   0.413   7.181  1.7520  0.5962 -0.3558
  467TIP3   OH223035   1.939   3.158   7.326  0.0172  0.4125 -1.1851
  467TIP3    H123036   1.920   3.126   7.238  0.9844  0.1873 -1.3231
  467TIP3    H223037   1.869   3.122   7.380  1.6170 -3.0090 -1.1019
  468TIP3   OH223038   4.844   6.684   1.703 -0.7883  0.1753 -0.1249
  468TIP3    H123039   4.794   6.700   1.783 -0.2830 -0.1164  0.2565
  468TIP3    H223040   4.923   6.639   1.733  0.3026  1.7192 -0.5610
  469TIP3   OH223041   3.323   3.800   1.258 -0.6017 -0.1568  0.0995
  469TIP3    H123042   3.279   3.784   1.175 -1.7590  0.0995  0.6459
  469TIP3    H223043   3.352   3.891   1.253 -1.9492  0.3120  0.5329
  470TIP3   OH223044   0.292   2.044   2.432  0.2756 -0.2713  0.2920
  470TIP3    H123045   0.306   1.949   2.432 -0.0670 -0.3228  0.7024
  470TIP3    H223046   0.325   2.074   2.516  1.2455  0.1099 -0.2180
  471TIP3   OH223047   5.698   4.830   0.726 -0.3167  0.5312 -0.3546
  471TIP3    H123048   5.747   4.755   0.692 -1.5173 -0.3912 -0.1462
  471TIP3    H223049   5.685   4.887   0.651 -1.6521 -0.7625 -1.1576
  472TIP3   OH223050   1.071   1.573   6.019 -0.2544 -0.5702  0.0907
  472TIP3    H123051   1.024   1.530   5.947 -1.5630  0.5733  0.2197
  472TIP3    H223052   1.002   1.602   6.078  0.6809  0.4985  0.6878
  473TIP3   OH223053   5.183   4.167   1.645 -0.1574  0.2039 -0.5994
  473TIP3    H123054   5.187   4.226   1.721 -0.5359  0.6861 -0.9477
  473TIP3    H223055   5.139   4.089   1.679  0.2453  0.1630 -0.1602
  474TIP3   OH223056   0.839   0.374   7.180 -0.0417  0.3622  0.7442
  474TIP3    H123057   0.870   0.362   7.090  0.7186  0.6036  0.9664
  474TIP3    H223058   0.785   0.453   7.177  0.1752  0.5026  0.5457
  475TIP3   OH223059   2.633   2.461   1.279  0.0055 -0.4853  0.0133
  475TIP3    H123060   2.651   2.526   1.212  1.0259 -0.3974  0.3574
  475TIP3    H223061   2.557   2.413   1.245  1.1096 -1.1230 -1.7061
  476TIP3   OH223062   6.730   1.394   0.559  0.5001  0.5470  0.0854
  476TIP3    H123063   6.699   1.305   0.541  1.5677  0.3510 -0.9050
  476TIP3    H223064   6.700   1.446   0.485  0.8911  0.7563  0.0697
  477TIP3   OH223065   4.739   1.279   2.677  0.5065 -0.7800  0.2444
  477TIP3    H123066   4.657   1.242   2.709 -0.3113  1.1500  0.5579
  477TIP3    H223067   4.767   1.339   2.746  0.2899  1.2127 -1.3029
  478TIP3   OH223068   2.893   3.418   8.136  0.5783  0.2266 -0.2867
  478TIP3    H123069   2.838   3.368   8.076  1.5272 -0.1882 -0.8296
  478TIP3    H223070   2.840   3.495   8.159  0.0417  0.1823 -1.3241
  479TIP3   OH223071   6.385   3.883   8.357  0.5053  0.2185  0.2112
  479TIP3    H123072   6.403   3.844   8.271 -1.7936  0.0873 -0.2820
  479TIP3    H223073   6.397   3.810   8.419 -0.4476 -0.4212 -0.3292
  480TIP3   OH223074   0.364   3.390   7.489 -0.1196  0.3051 -0.3763
  480TIP3    H123075   0.285   3.339   7.504 -1.0120  1.6873 -0.2599
  480TIP3    H223076   0.408   3.344   7.416 -0.8800 -0.6168 -0.2758
  481TIP3   OH223077   2.503   1.579   7.486  0.3198 -0.2202  0.6653
  481TIP3    H123078   2.596   1.602   7.482  0.1090  0.5969  0.1753
  481TIP3    H223079   2.461   1.640   7.425 -0.6314 -0.0984  1.4282
  482TIP3   OH223080   1.202   3.071   1.943 -0.0552  0.0482  0.1773
  482TIP3    H123081   1.298   3.067   1.949 -0.0817 -0.4779  0.3539
  482TIP3    H223082   1.171   3.014   2.014 -0.5454  1.9285  1.5349
  483TIP3   OH223083   6.637   5.954   8.404  0.6119 -0.3085  0.2093
  483TIP3    H123084   6.607   6.017   8.470 -0.0555  0.1533 -0.5189
  483TIP3    H223085   6.560   5.899   8.388  0.6438 -0.1571 -0.4798
  484TIP3   OH223086   2.330   0.069   0.959 -0.0917 -0.3045 -0.4308
  484TIP3    H123087   2.399   0.018   0.918  0.4408  0.2261 -0.2149
  484TIP3    H223088   2.265   0.005   0.987  1.0742 -0.9796  0.8018
  485TIP3   OH223089   4.807   3.869   7.715  0.4268 -0.0659  0.0787
  485TIP3    H123090   4.746   3.918   7.770  2.5679  2.3653  0.4624
  485TIP3    H223091   4.870   3.831   7.776  2.4651  2.1416 -0.5142
  486TIP3   OH223092   4.308   2.932   1.003 -0.5164  0.4751 -0.9428
  486TIP3    H123093   4.331   3.022   1.025 -1.4789  0.9473 -1.8120
  486TIP3    H223094   4.218   2.922   1.034  0.6734 -1.3681  2.4834
  487TIP3   OH223095   6.564   6.012   2.121 -0.3592  0.5696  0.0356
  487TIP3    H123096   6.471   5.996   2.135 -0.1579 -0.5849  0.1814
  487TIP3    H223097   6.603   6.005   2.208  0.0039 -0.0760 -0.1698
  488TIP3   OH223098   2.698   5.581   6.140 -0.1913 -0.1207 -0.0459
  488TIP3    H123099   2.622   5.632   6.112  0.8184  0.5835 -1.6475
  488TIP3    H223100   2.695   5.583   6.235 -1.6602  0.6598 -0.0858
  489TIP3   OH223101   3.112   4.965   7.929 -0.0856 -0.4413  0.0738
  489TIP3    H123102   3.037   4.947   7.873 -1.5135  0.3050  1.6591
  489TIP3    H223103   3.088   4.928   8.014  1.1451  0.2079  0.7394
  490TIP3   OH223104   0.732   3.241   7.378  0.3753 -0.0135 -0.1814
  490TIP3    H123105   0.727   3.332   7.346 -0.4555  0.4419  1.1678
  490TIP3    H223106   0.643   3.209   7.371  0.3980 -0.2654  0.6216
  491TIP3   OH223107   4.038   3.650   0.273  0.1064  0.6212  0.0674
  491TIP3    H123108   4.036   3.618   0.363 -1.3567  1.4902  0.3751
  491TIP3    H223109   4.121   3.617   0.237  1.0515  0.8343  1.9363
  492TIP3   OH223110   5.408   6.371   0.520 -0.5676 -0.3078  0.0533
  492TIP3    H123111   5.495   6.368   0.561  0.2123 -0.5010 -1.5525
  492TIP3    H223112   5.357   6.306   0.568  0.9502 -2.1168 -0.6441
  493TIP3   OH223113   3.535   3.491   0.333  0.7250  0.0932  0.2109
  493TIP3    H123114   3.542   3.489   0.237 -0.6809 -1.8159  0.1118
  493TIP3    H223115   3.625   3.478   0.363  1.1738  0.6507 -0.8395
  494TIP3   OH223116   3.276   2.445   6.917  0.3469 -0.5395  0.3375
  494TIP3    H123117   3.272   2.374   6.852  1.3598  0.2091 -0.5923
  494TIP3    H223118   3.370   2.465   6.924  0.1353  0.2187  1.1318
  495TIP3   OH223119   6.829   1.856   2.463 -0.1127 -0.7572  0.5685
  495TIP3    H123120   6.809   1.769   2.498 -2.1402  0.4669  2.7678
  495TIP3    H223121   6.755   1.911   2.491  1.2436  1.7544 -0.4350
  496TIP3   OH223122   0.981   1.204   6.823  0.6230  0.3356  1.0165
  496TIP3    H123123   0.926   1.127   6.831 -0.4649  0.9170 -0.2904
  496TIP3    H223124   1.022   1.195   6.736  1.9626  0.3271  1.6238
  497TIP3   OH223125   5.864   0.119   1.846 -0.2199  0.0148 -0.1880
  497TIP3    H123126   5.817   0.114   1.763  4.3875  0.2223 -3.1916
  497TIP3    H223127   5.923   0.044   1.845  1.1954  0.9813  2.0603
  498TIP3   OH223128   5.063   3.146   2.545 -0.2695 -0.6653 -0.1361
  498TIP3    H123129   5.157   3.129   2.548  0.8609  4.2764  0.5830
  498TIP3    H223130   5.045   3.160   2.452 -0.1605 -1.0367 -0.2141
  499TIP3   OH223131   0.863   6.556   8.155 -0.3289  0.5805  0.0653
  499TIP3    H123132   0.844   6.473   8.113 -0.7143  0.3972  0.5877
  499TIP3    H223133   0.954   6.549   8.184 -0.8297 -0.2966  1.5238
  500TIP3   OH223134   4.287   4.330   1.235  0.8189 -0.2577 -0.1419
  500TIP3    H123135   4.202   4.372   1.220  0.7402 -1.1302 -2.4823
  500TIP3    H223136   4.333   4.390   1.293 -0.4064  1.5827 -0.9794
  501TIP3   OH223137   4.333   4.539   0.481  0.2583 -0.2756 -0.4454
  501TIP3    H123138   4.273   4.613   0.488  0.6060  0.2409 -2.3494
  501TIP3    H223139   4.282   4.463   0.510 -0.8488  0.3554 -0.6984
  502TIP3   OH223140   2.387   3.042   7.329  0.0461 -0.1969  0.1779
  502TIP3    H123141   2.417   2.955   7.302  1.2891  0.0089  0.8064
  502TIP3    H223142   2.367   3.087   7.247  2.0660 -0.1721 -0.3790
  503TIP3   OH223143   6.633   4.288   6.788  0.4015  0.0049  0.0899
  503TIP3    H123144   6.706   4.307   6.729  1.5185 -2.7929  0.4445
  503TIP3    H223145   6.568   4.244   6.733  0.6659 -0.9754  0.5434
  504TIP3   OH223146   1.719   1.565   7.956 -0.0850 -0.8428  0.0859
  504TIP3    H123147   1.775   1.577   7.879 -0.5285 -1.7469 -0.3898
  504TIP3    H223148   1.753   1.486   7.998 -0.3841 -0.8364  0.3402
  505TIP3   OH223149   0.730   3.386   2.423  0.0148  0.3966 -0.1279
  505TIP3    H123150   0.818   3.424   2.418 -0.7184  2.1796 -0.3067
  505TIP3    H223151   0.734   3.310   2.365  1.7140 -0.1926  0.6974
  506TIP3   OH223152   3.774   5.858   0.839 -0.2786 -0.3650 -0.0814
  506TIP3    H123153   3.696   5.834   0.791 -0.7654  0.7184  0.1320
  506TIP3    H223154   3.827   5.908   0.776 -1.0666  1.3395  0.5523
  507TIP3   OH223155   6.276   5.974   8.087 -0.2786  0.1497 -0.2255
  507TIP3    H123156   6.194   5.960   8.133  0.0064 -1.7174 -0.2242
  507TIP3    H223157   6.256   6.038   8.020 -2.0416 -1.1421 -0.9898
  508TIP3   OH223158   4.759   1.603   0.471 -0.6419 -0.0507  0.1774
  508TIP3    H123159   4.843   1.642   0.446  0.1980 -1.8274  0.0648
  508TIP3    H223160   4.718   1.580   0.387 -0.4405 -0.7631  0.2702
  509TIP3   OH223161   1.296   6.070   1.911 -0.0267  0.6398 -0.2035
  509TIP3    H123162   1.357   6.016   1.861 -0.4509  0.4766 -0.5487
  509TIP3    H223163   1.219   6.014   1.925  0.2426  0.5277  0.9989
  510TIP3   OH223164   1.130   5.769   7.141  0.7625 -0.0619 -0.7420
  510TIP3    H123165   1.098   5.837   7.082 -1.1701 -1.0557 -0.9533
  510TIP3    H223166   1.137   5.812   7.226 -1.5976  0.2193 -0.6004
  511TIP3   OH223167   6.842   2.579   2.962  0.5344 -0.0317 -0.0328
  511TIP3    H123168   6.895   2.584   3.042  0.1659 -1.9120  0.3767
  511TIP3    H223169   6.768   2.637   2.979  0.0108 -1.0451  1.3917
  512TIP3   OH223170   0.221   1.049   8.007 -0.4912 -0.2076 -0.1290
  512TIP3    H123171   0.194   0.989   8.077 -1.1895 -0.3047 -0.4654
  512TIP3    H223172   0.148   1.110   7.999  0.4470  1.0547  0.5840
  513TIP3   OH223173   2.189   1.157   8.302 -0.3914  0.3460  0.1887
  513TIP3    H123174   2.150   1.124   8.383 -0.7288 -0.0105 -0.1208
  513TIP3    H223175   2.129   1.225   8.271 -0.7888 -0.2152 -0.2959
  514TIP3   OH223176   4.824   0.409   8.166  0.0925  0.3461  0.3545
  514TIP3    H123177   4.863   0.443   8.247  0.1254  1.0448  0.0495
  514TIP3    H223178   4.794   0.487   8.119  1.2969  0.0672 -0.9332
  515TIP3   OH223179   1.493   2.005   0.800 -0.2904 -0.2948  0.2525
  515TIP3    H123180   1.556   2.027   0.731  1.1248 -0.7638  1.3363
  515TIP3    H223181   1.408   2.010   0.757  0.2526  2.5906 -0.7455
  516TIP3   OH223182   4.665   6.090   7.710 -0.2818  0.3231 -0.5928
  516TIP3    H123183   4.693   6.012   7.759 -1.5056  1.2510  1.7585
  516TIP3    H223184   4.605   6.056   7.644 -1.5821 -0.6898  1.0362
  517TIP3   OH223185   6.942   3.421   1.468  0.4118  0.0681  0.0494
  517TIP3    H123186   6.962   3.509   1.435 -3.3724  1.6111  1.3065
  517TIP3    H223187   6.962   3.424   1.561 -1.3725  0.2770  0.4631
  518TIP3   OH223188   0.141   5.828   1.679 -0.1469 -0.0086  0.2033
  518TIP3    H123189   0.222   5.825   1.730  0.3865  1.0397 -0.5365
  518TIP3    H223190   0.074   5.794   1.737  1.0278 -2.0653  0.4196
  519TIP3   OH223191   6.046   3.868   1.295  0.6879 -0.5577 -0.2982
  519TIP3    H123192   6.109   3.831   1.358 -0.6460  0.3143  1.6347
  519TIP3    H223193   6.050   3.962   1.311 -0.3443 -0.4094 -0.8731
  520TIP3   OH223194   4.092   5.966   1.720  0.1306 -0.2491 -0.4954
  520TIP3    H123195   4.066   5.909   1.792 -0.1444 -1.3308 -1.4279
  520TIP3    H223196   4.013   6.016   1.699 -0.3250 -1.2501 -1.2322
  521TIP3   OH223197   2.424   6.410   7.168  0.6085 -0.2297  0.4152
  521TIP3    H123198   2.426   6.455   7.083  0.5920 -1.5056 -0.2816
  521TIP3    H223199   2.403   6.479   7.231  0.4796  0.7176 -0.6331
  522TIP3   OH223200   0.407   3.274   1.667  0.3788 -0.1830 -0.2622
  522TIP3    H123201   0.420   3.345   1.604 -0.9577 -0.4329 -0.8545
  522TIP3    H223202   0.424   3.314   1.752  1.4781  0.3532 -0.7207
  523TIP3   OH223203   0.478   0.394   7.960 -0.1719 -0.7205  0.0800
  523TIP3    H123204   0.529   0.326   7.915  1.6574  0.8201 -0.2895
  523TIP3    H223205   0.421   0.429   7.892  0.9801  0.0674 -0.5175
  524TIP3   OH223206   0.405   2.438   7.614 -0.0817 -0.0957  0.1983
  524TIP3    H123207   0.374   2.348   7.627 -0.9416  0.1022 -0.3925
  524TIP3    H223208   0.426   2.442   7.521  0.6360  0.1198  0.3641
  525TIP3   OH223209   0.124   1.133   0.700 -0.5992  0.6586  0.1460
  525TIP3    H123210   0.167   1.107   0.781  2.1919  2.4895 -0.6159
  525TIP3    H223211   0.041   1.171   0.728 -0.4620 -0.2812  1.9671
  526TIP3   OH223212   0.179   6.059   7.652  0.7195  1.1289  0.0500
  526TIP3    H123213   0.121   6.086   7.581  0.2797 -0.2062 -0.1282
  526TIP3    H223214   0.215   5.975   7.622  2.5059  1.7548  0.2935
  527TIP3   OH223215   1.439   2.834   8.385 -0.4464  0.5772  0.4357
  527TIP3    H123216   1.399   2.797   8.306  0.7965  1.8547 -0.8488
  527TIP3    H223217   1.527   2.796   8.388  0.6924  2.9587 -0.6642
  528TIP3   OH223218   2.318   4.034   8.256  0.5416 -0.2576 -0.1961
  528TIP3    H123219   2.356   4.116   8.287 -0.4216  0.6591 -1.3394
  528TIP3    H223220   2.299   3.985   8.336  0.2420  1.0517  0.5707
  529TIP3   OH223221   2.402   1.825   0.291 -0.0589  0.1363  0.5330
  529TIP3    H123222   2.421   1.910   0.331  1.2382 -0.1759  0.6151
  529TIP3    H223223   2.325   1.841   0.238  0.5565  1.5572  0.0124
  530TIP3   OH223224   6.259   4.077   6.987  0.2273  0.1323  0.7201
  530TIP3    H123225   6.280   4.122   7.069 -1.4907 -0.0973  1.3289
  530TIP3    H223226   6.167   4.051   6.996 -0.1294  0.4000 -1.4176
  531TIP3   OH223227   2.504   3.432   1.285 -0.1013  0.3339 -0.2913
  531TIP3    H123228   2.578   3.414   1.343 -1.6237 -1.2374  1.2862
  531TIP3    H223229   2.458   3.505   1.327 -1.2351 -0.8397  0.5827
  532TIP3   OH223230   2.216   4.101   6.651 -0.1475  0.4810  0.1172
  532TIP3    H123231   2.221   4.112   6.556  0.1340  2.3980  0.3135
  532TIP3    H223232   2.307   4.096   6.679 -0.2077  0.6033  0.3362
  533TIP3   OH223233   2.305   5.316   7.368  0.1870 -0.3639 -0.4420
  533TIP3    H123234   2.368   5.357   7.427  0.5940  1.2073 -1.9028
  533TIP3    H223235   2.229   5.298   7.424  0.9913 -0.0261  0.8052
  534TIP3   OH223236   1.240   3.606   2.013  0.2334 -0.0551  0.7750
  534TIP3    H123237   1.222   3.518   1.979 -2.3708  0.4168  0.7119
  534TIP3    H223238   1.181   3.614   2.088  1.6889  1.0434  1.8364
  535TIP3   OH223239   0.543   3.558   6.759 -0.3295  0.1068 -0.1877
  535TIP3    H123240   0.521   3.596   6.844 -1.1515 -0.9705  0.0965
  535TIP3    H223241   0.471   3.584   6.702  0.7454  1.7543 -0.8838
  536TIP3   OH223242   6.817   2.693   8.053 -0.0158 -0.3021 -0.0314
  536TIP3    H123243   6.730   2.657   8.038 -0.0957  0.8845 -3.1494
  536TIP3    H223244   6.804   2.762   8.117 -1.1244 -0.9620  0.4912
  537TIP3   OH223245   3.858   0.348   1.096 -0.4060  0.0622 -0.0907
  537TIP3    H123246   3.770   0.370   1.127 -0.1787  0.7975  0.0641
  537TIP3    H223247   3.845   0.276   1.034 -0.9437 -0.9615  1.1658
  538TIP3   OH223248   4.436   2.240   0.881 -0.0552 -0.0581  0.2964
  538TIP3    H123249   4.443   2.145   0.874  0.6099  0.1133 -2.0125
  538TIP3    H223250   4.351   2.254   0.922 -0.6379 -1.6533 -0.2808
  539TIP3   OH223251   2.190   4.285   1.121 -0.2689 -0.1118  0.2903
  539TIP3    H123252   2.284   4.275   1.141 -0.1211  1.1971  0.3114
  539TIP3    H223253   2.188   4.306   1.027 -0.3230  2.4375  0.8054
  540TIP3   OH223254   3.921   0.978   7.708  0.7045  0.2037 -0.3927
  540TIP3    H123255   3.852   0.928   7.666  0.9649 -2.0609  1.6588
  540TIP3    H223256   3.876   1.038   7.767  0.4648  0.1015 -0.4743
  541TIP3   OH223257   1.080   4.157   6.913  0.1561 -0.2037  0.4251
  541TIP3    H123258   1.097   4.166   6.819 -0.6809 -0.2532  0.2588
  541TIP3    H223259   0.985   4.164   6.920  0.3438  1.6772  1.4842
  542TIP3   OH223260   5.341   4.884   7.424 -0.6113  0.2230  0.1154
  542TIP3    H123261   5.374   4.886   7.335  1.3351  0.4564  0.7925
  542TIP3    H223262   5.294   4.967   7.435 -0.3980  0.4274 -0.5177
  543TIP3   OH223263   3.907   6.868   6.221  0.5846  0.1236  0.2672
  543TIP3    H123264   3.815   6.867   6.195  0.4721 -0.0131  0.6545
  543TIP3    H223265   3.909   6.924   6.299  0.8937  0.4457  0.0299
  544TIP3   OH223266   2.943   3.715   1.459 -0.0754 -0.1880  0.0038
  544TIP3    H123267   3.016   3.652   1.454  0.9346  0.9402 -0.0221
  544TIP3    H223268   2.936   3.751   1.371 -2.5160 -2.2171 -0.7383
  545TIP3   OH223269   1.396   3.529   8.355  0.5556 -0.0498 -0.2796
  545TIP3    H123270   1.445   3.474   8.417  2.0135  1.5421  0.0644
  545TIP3    H223271   1.456   3.543   8.282  0.2034  1.0346 -0.3826
  546TIP3   OH223272   3.416   5.285   0.723  0.1630 -0.2120  0.5194
  546TIP3    H123273   3.472   5.322   0.656  0.8789 -0.3587  1.0191
  546TIP3    H223274   3.440   5.192   0.726 -0.9982 -0.5515 -0.1236
  547TIP3   OH223275   5.481   6.454   7.803 -0.2066 -0.1852  0.0408
  547TIP3    H123276   5.523   6.384   7.853  0.5724  0.4388  0.2857
  547TIP3    H223277   5.418   6.409   7.747  0.2232 -1.0764  0.2503
  548TIP3   OH223278   5.384   5.058   1.896 -0.4342  0.8090  0.1741
  548TIP3    H123279   5.438   5.012   1.959 -0.0705 -0.1600 -0.8132
  548TIP3    H223280   5.410   5.150   1.904 -0.8349  0.8052  1.8333
  549TIP3   OH223281   5.541   6.835   1.494  0.7075 -0.5704  0.0099
  549TIP3    H123282   5.535   6.901   1.563 -1.8656 -0.4244 -0.2667
  549TIP3    H223283   5.612   6.866   1.438  0.2270  1.4503  0.4209
  550TIP3   OH223284   3.359   1.656   7.893  0.1089 -0.3519 -0.1304
  550TIP3    H123285   3.380   1.638   7.801  1.7671  1.5382 -0.2106
  550TIP3    H223286   3.341   1.750   7.895  1.9154  0.0458  1.7089
  551TIP3   OH223287   4.148   4.997   7.151 -0.2765 -0.3689 -0.3005
  551TIP3    H123288   4.073   5.052   7.174 -0.4971 -0.1656 -1.4937
  551TIP3    H223289   4.114   4.932   7.090  1.0450  1.5118 -3.2405
  552TIP3   OH223290   1.593   5.571   1.680 -0.1446  0.4181 -0.0572
  552TIP3    H123291   1.682   5.559   1.714 -0.3390 -0.2340  0.2239
  552TIP3    H223292   1.536   5.557   1.756 -0.4633  1.4921 -0.0820
  553TIP3   OH223293   1.084   3.280   8.103  0.2751 -0.0559 -0.3213
  553TIP3    H123294   0.989   3.265   8.107  0.4877 -1.8219 -1.0840
  553TIP3    H223295   1.096   3.337   8.027 -0.1198 -0.4771 -0.7059
  554TIP3   OH223296   3.770   2.392   1.607  0.2621 -0.4790  0.1209
  554TIP3    H123297   3.804   2.312   1.648 -0.9318 -0.8821  0.3524
  554TIP3    H223298   3.741   2.446   1.679  1.1263  0.2216 -0.0324
  555TIP3   OH223299   0.043   1.365   0.932  0.1937 -0.3875 -0.2258
  555TIP3    H123300   0.102   1.413   0.874  1.0983  0.1318  1.0714
  555TIP3    H223301   0.078   1.381   1.020 -2.7045  1.1450  0.7714
  556TIP3   OH223302   4.023   5.866   0.303 -0.5053  0.2654  0.2723
  556TIP3    H123303   3.945   5.909   0.269 -0.9671 -1.1044 -0.4998
  556TIP3    H223304   3.995   5.777   0.324  0.9596 -0.4711 -0.6435
  557TIP3   OH223305   2.880   5.144   7.761 -0.2381  0.1414  0.0408
  557TIP3    H123306   2.803   5.197   7.739 -0.3304 -1.1191 -3.2163
  557TIP3    H223307   2.945   5.169   7.696  0.8791 -1.3273  0.5522
  558TIP3   OH223308   2.232   0.028   0.553 -0.0924 -0.2490 -0.0579
  558TIP3    H123309   2.205   0.067   0.636 -1.3749  0.4011 -0.7356
  558TIP3    H223310   2.199  -0.062   0.557 -1.9943  0.3638 -0.6311
  559TIP3   OH223311   0.237   6.125   1.828  0.4519 -0.1914 -0.0605
  559TIP3    H123312   0.326   6.159   1.839  0.3262  0.1754 -0.1732
  559TIP3    H223313   0.214   6.090   1.914  1.0606 -1.1421 -0.2696
  560TIP3   OH223314   6.847   1.091   8.299  0.7931 -0.4641  0.0023
  560TIP3    H123315   6.853   1.124   8.210 -1.8178  0.3218  0.0196
  560TIP3    H223316   6.815   1.001   8.290  0.9793 -0.5433  0.1301
  561TIP3   OH223317   5.873   5.118   1.485  0.2318  0.7408  0.5310
  561TIP3    H123318   5.885   5.091   1.576  1.3008  0.8935  0.4420
  561TIP3    H223319   5.825   5.200   1.490  2.1643  1.8924  1.0788
  562TIP3   OH223320   1.428   6.007   0.484 -0.5605 -0.0107 -0.3532
  562TIP3    H123321   1.382   6.063   0.546  0.0083 -0.6817  0.7029
  562TIP3    H223322   1.420   6.053   0.400 -1.1586  1.0233  0.2444
  563TIP3   OH223323   3.241   5.768   8.178 -0.1183  0.1302 -0.6269
  563TIP3    H123324   3.303   5.774   8.106  1.6187  1.4938  0.9040
  563TIP3    H223325   3.170   5.828   8.155  0.1158  0.0928 -1.4545
  564TIP3   OH223326   1.524   0.806   7.556  0.4307  0.3380 -0.1406
  564TIP3    H123327   1.618   0.811   7.572  0.1528  2.1742  1.3256
  564TIP3    H223328   1.512   0.846   7.470  1.0944 -1.4936 -1.1590
  565TIP3   OH223329   6.300   0.732   7.282  0.0644 -0.0794 -0.2036
  565TIP3    H123330   6.292   0.659   7.221 -0.2772 -1.2098  1.1224
  565TIP3    H223331   6.348   0.799   7.234  1.9441 -1.8432 -0.9301
  566TIP3   OH223332   5.049   6.109   7.849 -0.6760 -0.4201  0.3074
  566TIP3    H123333   5.093   6.024   7.859 -0.8914 -0.7187 -1.1048
  566TIP3    H223334   5.012   6.106   7.761 -1.1529  0.9358  0.4508
  567TIP3   OH223335   1.621   5.947   1.826 -0.2917  0.9103 -0.0421
  567TIP3    H123336   1.655   6.031   1.854 -1.2158  1.2198  0.1898
  567TIP3    H223337   1.659   5.884   1.887 -0.4036  1.2895  0.4246
  568TIP3   OH223338   0.870   1.256   0.923  0.0709 -0.4057 -0.4382
  568TIP3    H123339   0.896   1.275   0.833 -1.7306 -0.8382 -1.1080
  568TIP3    H223340   0.913   1.324   0.976  2.5853 -1.1841 -1.3572
  569TIP3   OH223341   3.340   4.457   1.438 -0.3108 -0.0068  0.5058
  569TIP3    H123342   3.402   4.525   1.463 -0.9578  0.8171 -0.0932
  569TIP3    H223343   3.361   4.383   1.495  3.2257 -0.8887 -1.6829
  570TIP3   OH223344   2.122   6.699   6.684 -0.2745  0.1533  0.2795
  570TIP3    H123345   2.156   6.621   6.728  3.1138  2.1063  1.4679
  570TIP3    H223346   2.034   6.710   6.719 -0.9806 -3.1484 -0.0947
  571TIP3   OH223347   4.684   0.143   8.424 -0.3043 -0.0143  0.0086
  571TIP3    H123348   4.738   0.074   8.462 -1.5049 -0.2649  1.3649
  571TIP3    H223349   4.741   0.220   8.423  0.7365 -0.7668 -0.6012
  572TIP3   OH223350   1.832   0.040   0.516  0.2170 -0.6587  0.1282
  572TIP3    H123351   1.819   0.135   0.515 -1.1232 -0.8321 -0.3416
  572TIP3    H223352   1.902   0.025   0.453  1.9128  0.1865  1.7063
  573TIP3   OH223353   0.146   5.146   8.313 -0.0626  0.4577 -0.3800
  573TIP3    H123354   0.140   5.055   8.342 -0.0610  0.2642 -0.9805
  573TIP3    H223355   0.162   5.196   8.394  4.0646 -0.4824 -0.4095
  574TIP3   OH223356   1.837   1.016   7.859 -0.9508  0.8066 -0.2256
  574TIP3    H123357   1.890   0.954   7.810 -0.6978  0.1044  0.8919
  574TIP3    H223358   1.839   1.096   7.807 -0.9427  0.0101 -1.4883
  575TIP3   OH223359   4.375   4.803   1.174 -1.2264  0.1586 -0.7014
  575TIP3    H123360   4.315   4.730   1.188 -0.5861 -0.2651 -0.1199
  575TIP3    H223361   4.332   4.878   1.217 -0.5727 -0.5125  1.1954
  576TIP3   OH223362   2.256   2.160   7.040  0.0278  0.0805 -0.4457
  576TIP3    H123363   2.210   2.089   7.086  2.4586 -1.4660 -0.2210
  576TIP3    H223364   2.219   2.158   6.952 -0.3781 -1.0959 -0.2754
  577TIP3   OH223365   3.283   3.368   0.350  0.5515  0.1529 -0.4033
  577TIP3    H123366   3.334   3.419   0.413  1.3510 -0.3199 -0.6558
  577TIP3    H223367   3.343   3.353   0.277  0.0185 -0.3279 -0.7474
  578TIP3   OH223368   3.705   3.476   1.204 -0.5062 -0.1320 -0.1642
  578TIP3    H123369   3.772   3.438   1.260  1.0629 -0.0325 -1.8835
  578TIP3    H223370   3.622   3.448   1.243  0.5195 -0.8777  1.5929
  579TIP3   OH223371   2.679   1.854   8.396 -0.3541 -0.0841  1.0555
  579TIP3    H123372   2.668   1.826   8.487 -0.9493  0.7415  1.2545
  579TIP3    H223373   2.593   1.839   8.356  0.3864 -2.1546  0.1138
  580TIP3   OH223374   4.563   5.209   0.534  0.2851 -0.8502  0.7211
  580TIP3    H123375   4.614   5.260   0.471  0.1011 -0.1692  1.1160
  580TIP3    H223376   4.535   5.273   0.600  0.2982 -1.5155  1.3792
  581TIP3   OH223377   3.240   5.457   0.420  0.7267  0.6607  0.3063
  581TIP3    H123378   3.146   5.470   0.431  0.4811 -1.0907  0.6471
  581TIP3    H223379   3.269   5.419   0.503  1.7965  1.4066  0.2988
  582TIP3   OH223380   0.539   6.952   1.619  0.3059 -0.1935  0.4690
  582TIP3    H123381   0.526   7.033   1.570  1.3571  0.3070  0.9920
  582TIP3    H223382   0.498   6.968   1.703 -1.2322 -0.9438 -0.1110
  583TIP3   OH223383   0.408   1.034   1.366 -0.0273 -0.6955  0.1585
  583TIP3    H123384   0.445   0.963   1.418  1.1695 -0.4697 -0.3629
  583TIP3    H223385   0.439   1.114   1.410 -1.0772 -0.4755  0.5383
  584TIP3   OH223386   5.141   1.305   6.537 -0.1095  0.0295 -0.2996
  584TIP3    H123387   5.149   1.395   6.568 -1.7031  0.0676  0.1123
  584TIP3    H223388   5.213   1.259   6.580  0.2461  0.9393  0.1244
  585TIP3   OH223389   3.681   6.594   0.907  0.2590 -0.1428 -0.3396
  585TIP3    H123390   3.747   6.592   0.837  1.1941  0.3336  0.4992
  585TIP3    H223391   3.598   6.581   0.862  0.7540  0.9539 -1.6435
  586TIP3   OH223392   1.330   2.689   0.156 -0.1265  0.2378 -0.4413
  586TIP3    H123393   1.255   2.742   0.185 -1.1411 -1.3304 -0.0425
  586TIP3    H223394   1.379   2.747   0.098 -2.8532  0.6762 -2.5346
  587TIP3   OH223395   5.757   0.881   7.959  0.1198  0.1969 -0.1750
  587TIP3    H123396   5.816   0.908   8.029 -1.0307  1.2977  0.4112
  587TIP3    H223397   5.719   0.799   7.990 -0.2785  0.6082  0.4683
  588TIP3   OH223398   1.336   6.651   8.218 -0.4630  0.3306  0.6512
  588TIP3    H123399   1.351   6.677   8.309 -0.5345  1.8923  0.2465
  588TIP3    H223400   1.424   6.641   8.182 -0.4210  1.1577  0.5126
  589TIP3   OH223401   2.472   6.368   0.723  0.0655 -0.4190  0.9777
  589TIP3    H123402   2.444   6.349   0.813  1.0280  1.8053  1.8390
  589TIP3    H223403   2.391   6.387   0.676 -0.3361  0.1539  1.8683
  590TIP3   OH223404   3.315   1.163   0.784  0.7410  0.2297  0.0387
  590TIP3    H123405   3.277   1.133   0.702  1.7818 -0.3313 -0.2565
  590TIP3    H223406   3.297   1.092   0.846  0.1786  0.5396  0.2324
  591TIP3   OH223407   5.842   2.261   7.136 -0.5060 -0.4163 -0.5747
  591TIP3    H123408   5.931   2.292   7.153 -0.4180 -0.9527 -0.0028
  591TIP3    H223409   5.831   2.271   7.042  0.0442 -0.0442 -0.6052
  592TIP3   OH223410   2.127   1.336   0.269 -0.6548  0.2545  0.1194
  592TIP3    H123411   2.208   1.355   0.317 -0.8703  2.4622 -0.2641
  592TIP3    H223412   2.122   1.406   0.204 -2.1378 -0.7025 -0.8369
  593TIP3   OH223413   2.136   1.732   2.650 -0.3791 -0.2109  0.2133
  593TIP3    H123414   2.182   1.772   2.576 -2.1120  2.0256  0.2293
  593TIP3    H223415   2.206   1.714   2.714  1.0526 -1.5800 -1.6417
  594TIP3   OH223416   4.545   5.214   8.349 -0.0360 -0.3400  0.1922
  594TIP3    H123417   4.587   5.213   8.435  3.5050  0.6014 -1.3467
  594TIP3    H223418   4.555   5.304   8.318 -2.2458 -0.3686 -0.8249
  595TIP3   OH223419   1.613   4.601   5.896  0.1374 -0.2795 -0.0858
  595TIP3    H123420   1.705   4.592   5.920 -0.0909  0.2106  1.0355
  595TIP3    H223421   1.608   4.566   5.807  1.3439 -0.5922 -0.0494
  596TIP3   OH223422   0.567   0.405   7.181  0.7997 -0.5697  0.4045
  596TIP3    H123423   0.487   0.390   7.130  1.0865 -2.9246  0.5440
  596TIP3    H223424   0.625   0.333   7.156  2.5003  0.5045  1.0930
  597TIP3   OH223425   1.766   0.859   7.263  0.3920 -0.4863 -0.1696
  597TIP3    H123426   1.736   0.948   7.282 -1.6034 -1.0074 -0.7173
  597TIP3    H223427   1.715   0.831   7.188  0.1517 -2.5161  0.6866
  598TIP3   OH223428   5.432   0.775   7.845  0.6712 -0.3275 -0.1910
  598TIP3    H123429   5.344   0.792   7.810  0.5301 -1.2452 -0.3079
  598TIP3    H223430   5.485   0.759   7.768  1.0042  0.4480 -0.1332
  599TIP3   OH223431   1.955   0.562   6.789  0.0361 -0.2597 -0.0564
  599TIP3    H123432   1.927   0.475   6.759  0.2598 -0.0842 -0.7934
  599TIP3    H223433   1.939   0.620   6.715 -0.1964  0.3544  0.4616
  600TIP3   OH223434   1.750   4.104   1.664 -0.3977  0.2573  0.3562
  600TIP3    H123435   1.711   4.062   1.587 -0.3400  1.2855 -0.2638
  600TIP3    H223436   1.831   4.144   1.631 -1.4232  2.5331  0.4180
  601TIP3   OH223437   6.843   1.949   1.737  1.0026  0.6221 -0.2142
  601TIP3    H123438   6.855   1.857   1.713 -0.8853 -0.0281  1.1577
  601TIP3    H223439   6.759   1.973   1.698  0.5992  1.1919  0.9713
  602TIP3   OH223440   1.802   4.534   1.330 -0.1538  0.0448 -0.0781
  602TIP3    H123441   1.813   4.440   1.320  0.9604  0.2250 -0.7605
  602TIP3    H223442   1.721   4.554   1.284 -0.8881 -0.6872  0.8433
  603TIP3   OH223443   2.758   4.715   8.255  0.6609 -0.4607  0.1410
  603TIP3    H123444   2.749   4.759   8.339 -1.0648 -1.1698  0.3717
  603TIP3    H223445   2.668   4.697   8.227  1.0813  1.0075 -2.5632
  604TIP3   OH223446   5.568   4.770   2.412 -0.4188 -0.5453  0.7772
  604TIP3    H123447   5.497   4.821   2.451  0.0641 -1.0826  2.4498
  604TIP3    H223448   5.524   4.695   2.372 -1.0248  0.5520 -0.6726
  605TIP3   OH223449   6.626   3.471   8.079  0.4118 -0.7533  0.2282
  605TIP3    H123450   6.662   3.469   8.167 -2.1357  1.0803  1.4436
  605TIP3    H223451   6.568   3.395   8.075  1.4254 -1.5052 -0.3114
  606TIP3   OH223452   5.027   1.963   8.357 -0.5451  0.4596  0.3673
  606TIP3    H123453   4.952   1.921   8.400 -1.4099  2.9624  1.5198
  606TIP3    H223454   5.066   2.018   8.426  0.3397  1.7271 -1.0855
  607TIP3   OH223455   0.569   6.232   7.982  0.3216  0.6615  0.0547
  607TIP3    H123456   0.566   6.271   8.069 -1.2536  0.2195  0.2325
  607TIP3    H223457   0.608   6.146   7.995  1.9417  1.3466 -0.0228
  608TIP3   OH223458   3.333   6.029   2.169 -0.5066  0.3156 -0.3578
  608TIP3    H123459   3.251   6.077   2.161 -0.5161  0.2257 -0.8496
  608TIP3    H223460   3.395   6.077   2.113 -0.2081  0.4176  0.0569
  609TIP3   OH223461   3.692   6.191   1.282  0.2162 -0.1743 -0.1536
  609TIP3    H123462   3.705   6.277   1.242  0.7611 -0.8179 -1.4026
  609TIP3    H223463   3.724   6.129   1.217  0.5766 -1.2914  1.0536
  610TIP3   OH223464   6.898   3.801   0.232  0.3218 -0.2872  0.4590
  610TIP3    H123465   6.984   3.837   0.210  0.5377 -1.1389 -0.1195
  610TIP3    H223466   6.836   3.860   0.188  0.5862  0.4756  1.0861
  611TIP3   OH223467   5.156   3.678   1.604 -0.4281 -0.2493  0.1705
  611TIP3    H123468   5.064   3.661   1.584  0.1136 -2.0292 -1.0779
  611TIP3    H223469   5.198   3.592   1.597  0.9566  0.1030  3.0148
  612TIP3   OH223470   1.821   3.733   0.003  0.0449  0.0900 -0.3456
  612TIP3    H123471   1.876   3.698  -0.067 -0.2933 -0.0481 -0.5477
  612TIP3    H223472   1.873   3.724   0.083 -0.2002 -1.2767 -0.3236
  613TIP3   OH223473   3.189   2.519   1.371 -0.1837 -0.3336 -0.2855
  613TIP3    H123474   3.202   2.556   1.283 -0.7409 -1.4075 -0.8389
  613TIP3    H223475   3.201   2.593   1.430  0.4954  0.3502 -1.2455
  614TIP3   OH223476   4.919   6.376   1.636  0.1744 -0.2674  0.0944
  614TIP3    H123477   4.852   6.433   1.599  0.4897  0.3054  0.3841
  614TIP3    H223478   5.001   6.404   1.594  0.8687  1.7065  2.5040
  615TIP3   OH223479   5.105   1.176   7.348 -0.1363  0.6208 -0.2194
  615TIP3    H123480   5.012   1.185   7.368 -0.3489  0.5538 -1.1232
  615TIP3    H223481   5.108   1.107   7.281  0.9287 -2.2870  2.5506
  616TIP3   OH223482   2.607   1.744   0.829 -0.0731 -0.1363  0.5336
  616TIP3    H123483   2.661   1.804   0.777  0.5970  0.1125  1.4888
  616TIP3    H223484   2.647   1.658   0.815 -0.5122 -0.2316 -0.1583
  617TIP3   OH223485   1.861   2.368   1.742  0.0211 -0.0669  0.1989
  617TIP3    H123486   1.808   2.403   1.814 -1.4955 -0.9180 -0.4792
  617TIP3    H223487   1.892   2.446   1.695 -0.9669  0.4327  0.3562
  618TIP3   OH223488   3.564   3.660   6.283 -0.3347 -0.4387 -0.8766
  618TIP3    H123489   3.589   3.745   6.245  0.0516  1.2385  2.6759
  618TIP3    H223490   3.472   3.671   6.305 -0.1615 -0.7600  0.0148
  619TIP3   OH223491   4.833   4.755   0.525  0.9473 -0.0829  0.8299
  619TIP3    H123492   4.843   4.743   0.619  0.3305 -0.1645  0.8907
  619TIP3    H223493   4.921   4.743   0.489  0.9812 -1.2253  1.2711
  620TIP3   OH223494   1.575   1.126   6.360 -0.1864 -0.0039  0.1297
  620TIP3    H123495   1.656   1.173   6.381  1.0367 -1.5671 -0.8766
  620TIP3    H223496   1.538   1.175   6.287  1.9176 -1.3422 -2.0010
  621TIP3   OH223497   1.099   4.490   8.079 -0.0936  0.2497  0.2429
  621TIP3    H123498   1.089   4.513   7.987  0.6636 -0.0430  0.0748
  621TIP3    H223499   1.185   4.448   8.083 -1.5694 -3.0863  0.3948
  622TIP3   OH223500   0.453   4.301   7.353  0.3937  0.4579 -0.0601
  622TIP3    H123501   0.461   4.221   7.407 -0.3886  0.8420  0.6538
  622TIP3    H223502   0.385   4.280   7.289  0.7230  0.2961 -0.3597
  623TIP3   OH223503   2.745   1.621   1.894 -0.1911 -0.4038  0.0893
  623TIP3    H123504   2.722   1.639   1.985  1.1045 -0.5375  0.4502
  623TIP3    H223505   2.709   1.533   1.878 -2.5580  0.5574 -0.3101
  624TIP3   OH223506   0.897   6.719   7.650  0.2353 -0.1582 -0.0041
  624TIP3    H123507   0.992   6.734   7.652  0.3300 -0.6550  2.1008
  624TIP3    H223508   0.865   6.764   7.728 -1.5124  1.2013 -1.4175
  625TIP3   OH223509   1.112   5.782   2.653  0.2453  0.2639 -0.2051
  625TIP3    H123510   1.019   5.807   2.651  0.2747  0.5545  1.0185
  625TIP3    H223511   1.141   5.790   2.562 -0.8790  0.3663 -0.5710
  626TIP3   OH223512   2.174   0.206   8.313 -0.4383  0.0343  0.3470
  626TIP3    H123513   2.144   0.118   8.337 -0.7893  0.3369  1.0404
  626TIP3    H223514   2.093   0.256   8.301 -0.3640 -0.3432 -2.5481
  627TIP3   OH223515   1.195   3.291   0.911 -0.3345 -0.0748 -0.5006
  627TIP3    H123516   1.130   3.265   0.975  1.3849 -2.1061  0.5427
  627TIP3    H223517   1.233   3.208   0.880  1.7998  1.0135 -0.9863
  628TIP3   OH223518   0.102   3.290   6.713  0.2036  0.2134  0.0480
  628TIP3    H123519   0.012   3.321   6.721  0.5793  0.7513  4.1425
  628TIP3    H223520   0.148   3.363   6.671 -1.0294  0.3182 -1.2119
  629TIP3   OH223521   4.561   0.583   1.056 -0.5385 -0.4301 -0.0738
  629TIP3    H123522   4.489   0.594   1.118  0.3636 -0.6371  1.0459
  629TIP3    H223523   4.639   0.603   1.107  0.2786 -1.2950 -0.9498
  630TIP3   OH223524   0.504   2.107   6.012 -0.7555  0.1056 -0.0988
  630TIP3    H123525   0.414   2.119   6.043 -0.0219 -0.5564  2.4350
  630TIP3    H223526   0.519   2.013   6.017  0.2685  0.2690  0.0679
  631TIP3   OH223527   1.254   4.131   7.293 -0.2054  1.1804  0.3195
  631TIP3    H123528   1.302   4.214   7.292 -1.8943  2.2077  0.6491
  631TIP3    H223529   1.162   4.156   7.291 -0.7610 -0.7193 -0.2621
  632TIP3   OH223530   5.173   4.672   1.697  0.4925  0.2531 -0.5669
  632TIP3    H123531   5.136   4.724   1.626 -0.2683  0.7055  0.1474
  632TIP3    H223532   5.235   4.613   1.654  0.4993  0.9416 -1.5260
  633TIP3   OH223533   0.612   6.945   0.394 -0.1961  0.2032 -0.4053
  633TIP3    H123534   0.578   6.932   0.305  0.2059  0.2111 -0.5602
  633TIP3    H223535   0.534   6.941   0.450 -0.5488  0.9638 -0.8324
  634TIP3   OH223536   0.324   5.340   1.832 -0.6078  0.4630 -0.5879
  634TIP3    H123537   0.400   5.372   1.881  0.1569 -1.7797 -0.1827
  634TIP3    H223538   0.358   5.320   1.745 -0.5216 -1.1950 -0.2017
  635TIP3   OH223539   5.748   0.460   6.180  0.0065  0.4471  0.5493
  635TIP3    H123540   5.767   0.458   6.274 -0.3740  3.8393  0.8328
  635TIP3    H223541   5.664   0.415   6.172  0.1542 -0.1042  1.7900
  636TIP3   OH223542   3.736   4.077   0.587 -0.1969  0.1092  1.0606
  636TIP3    H123543   3.710   3.991   0.621  0.1397  0.7454  3.0804
  636TIP3    H223544   3.699   4.081   0.499 -0.3689 -2.0207  0.9931
  637TIP3   OH223545   0.068   6.404   8.241  0.9857 -0.4812 -0.4007
  637TIP3    H123546   0.002   6.341   8.214  0.9721 -0.8427  0.4291
  637TIP3    H223547   0.082   6.460   8.164  1.3783 -1.8121 -1.3217
  638TIP3   OH223548   0.512   2.459   2.007  0.7887 -0.7944  1.3566
  638TIP3    H123549   0.527   2.553   1.995 -1.2339 -0.6899 -0.9695
  638TIP3    H223550   0.531   2.420   1.921 -0.3683 -2.2109  1.6988
  639TIP3   OH223551   0.741   1.740   1.768 -0.3497 -0.0971 -0.3728
  639TIP3    H123552   0.794   1.805   1.813  0.3003 -0.6885 -0.2673
  639TIP3    H223553   0.665   1.727   1.824 -0.4768  0.5566 -0.3915
  640TIP3   OH223554   4.404   2.872   6.224  0.6029  0.5533 -0.5995
  640TIP3    H123555   4.338   2.834   6.165 -1.3881  0.2026  1.6891
  640TIP3    H223556   4.407   2.964   6.199  0.8134  0.1696 -2.1019
  641TIP3   OH223557   6.629   6.408   0.993  1.0647  0.2615  1.1878
  641TIP3    H123558   6.676   6.370   0.919  0.0744  0.3777  0.4785
  641TIP3    H223559   6.618   6.336   1.055  0.2634 -0.3154  0.3894
  642TIP3   OH223560   0.768   2.669   1.288 -0.0288  0.1430 -0.2446
  642TIP3    H123561   0.811   2.687   1.204  0.8936 -3.2705 -0.6465
  642TIP3    H223562   0.684   2.630   1.265  0.3031 -0.9860  0.3487
  643TIP3   OH223563   0.323   4.186   1.801  0.3367 -0.2961 -0.3695
  643TIP3    H123564   0.254   4.216   1.860  1.0173 -1.5428  1.1361
  643TIP3    H223565   0.280   4.178   1.716 -2.1683 -3.3964  0.9622
  644TIP3   OH223566   6.693   6.491   8.154 -0.1713  0.1007 -0.4267
  644TIP3    H123567   6.635   6.430   8.108  0.0164  0.5108 -1.2208
  644TIP3    H223568   6.776   6.444   8.161  0.2511  0.5911 -1.8582
  645TIP3   OH223569   2.972   2.179   1.681 -0.1618 -0.0952 -0.5732
  645TIP3    H123570   2.892   2.232   1.676 -0.1626  0.1024  0.9847
  645TIP3    H223571   3.032   2.221   1.620 -1.1912 -0.1599 -1.6695
  646TIP3   OH223572   1.145   4.511   7.526 -0.0221  0.5690 -0.5377
  646TIP3    H123573   1.203   4.463   7.467  0.6451  1.5285 -0.6875
  646TIP3    H223574   1.127   4.593   7.480 -1.0369  0.5248 -0.2345
  647TIP3   OH223575   4.337   0.196   1.619 -0.7169  0.0034 -0.1329
  647TIP3    H123576   4.418   0.153   1.646 -1.8392 -1.4184  1.1441
  647TIP3    H223577   4.279   0.190   1.696 -1.9204  1.2951 -0.8822
  648TIP3   OH223578   0.517   5.276   1.003 -0.1198  0.1512 -0.6061
  648TIP3    H123579   0.492   5.365   1.025  1.0943  0.4175 -0.2015
  648TIP3    H223580   0.460   5.220   1.056 -1.4780  0.6529 -1.5111
  649TIP3   OH223581   3.078   6.405   7.550  0.0179 -0.0399 -0.1424
  649TIP3    H123582   3.002   6.357   7.517 -0.5112 -0.0346  1.0088
  649TIP3    H223583   3.122   6.344   7.609 -1.2415  1.1263  2.1674
  650TIP3   OH223584   3.390   5.926   8.006  0.0649  0.2190 -0.3692
  650TIP3    H123585   3.351   5.916   7.919 -1.1292  1.2950  0.0135
  650TIP3    H223586   3.416   6.018   8.010 -0.9742  0.4845  0.8230
  651TIP3   OH223587   5.541   3.900   6.647  0.8123  0.4212  0.4851
  651TIP3    H123588   5.485   3.831   6.611 -0.9045  1.4354  1.0640
  651TIP3    H223589   5.603   3.920   6.577 -0.2202 -0.0491 -0.6018
  652TIP3   OH223590   6.535   3.713   1.041 -0.3726 -0.1293  0.1264
  652TIP3    H123591   6.569   3.760   1.117  1.3800 -0.2676 -0.5199
  652TIP3    H223592   6.474   3.774   1.000 -1.6989 -0.2191  1.8573
  653TIP3   OH223593   1.848   2.999   7.866  0.1131 -0.2812  0.0092
  653TIP3    H123594   1.764   3.012   7.910 -0.2257 -1.0940 -0.3691
  653TIP3    H223595   1.859   3.077   7.812 -0.2665 -0.0354  0.2804
  654TIP3   OH223596   0.375   4.808   0.961 -0.1472  0.2483 -0.4060
  654TIP3    H123597   0.435   4.773   1.027 -0.9718  0.3695  0.4202
  654TIP3    H223598   0.420   4.885   0.927  0.6351 -0.2563 -0.5580
  655TIP3   OH223599   4.510   0.469   0.819  0.1849 -0.6452  0.2887
  655TIP3    H123600   4.505   0.519   0.901 -0.4112  1.5238 -0.9961
  655TIP3    H223601   4.572   0.518   0.765  0.2856 -1.8405 -0.7281
  656TIP3   OH223602   4.740   1.903   8.022  0.0009 -0.2500  0.2142
  656TIP3    H123603   4.822   1.946   7.999  0.5699 -1.8369 -0.9131
  656TIP3    H223604   4.721   1.933   8.111  1.8458  0.0881  0.5355
  657TIP3   OH223605   0.717   4.429   7.323 -0.6677 -0.2640  0.0381
  657TIP3    H123606   0.633   4.384   7.327 -1.4312  1.1862  0.9457
  657TIP3    H223607   0.695   4.521   7.307  0.8154 -0.0747 -1.1400
  658TIP3   OH223608   3.501   6.672   0.026 -0.1228  0.1149  0.4418
  658TIP3    H123609   3.557   6.750   0.022  1.5597 -1.0059  0.9836
  658TIP3    H223610   3.412   6.707   0.039  0.5208  1.9400  0.2584
  659TIP3   OH223611   6.231   2.843   7.285  0.0776  0.5181  0.3094
  659TIP3    H123612   6.225   2.882   7.373 -1.5250  2.6715 -0.6526
  659TIP3    H223613   6.258   2.916   7.229 -0.0592 -0.5400 -1.1862
  660TIP3   OH223614   3.215   4.625   6.539  0.2191  0.1173 -0.2946
  660TIP3    H123615   3.211   4.543   6.490  1.4587  0.2365 -0.6202
  660TIP3    H223616   3.136   4.672   6.513 -0.9438 -1.3064  0.5263
  661TIP3   OH223617   3.117   2.873   6.989  0.5753  0.3882 -0.3083
  661TIP3    H123618   3.140   2.894   7.079 -0.3290 -1.6489  0.4628
  661TIP3    H223619   3.118   2.777   6.985  0.5596  0.4227 -2.4612
  662TIP3   OH223620   2.443   4.945   7.142  0.5011 -0.2061 -0.0813
  662TIP3    H123621   2.517   5.004   7.161  1.0335 -0.5388 -1.0721
  662TIP3    H223622   2.461   4.912   7.054 -0.0142 -1.5255  0.2902
  663TIP3   OH223623   4.035   5.241   6.564  0.1559 -0.0902  0.3675
  663TIP3    H123624   3.941   5.226   6.552 -0.1530  1.4647  0.5568
  663TIP3    H223625   4.039   5.320   6.619  1.5733 -0.4170  0.7603
  664TIP3   OH223626   5.481   2.892   0.759 -0.0728  0.0147  0.0084
  664TIP3    H123627   5.446   2.810   0.794  1.2392 -0.9666 -0.8746
  664TIP3    H223628   5.555   2.912   0.816 -1.4165  1.5687  1.2931
  665TIP3   OH223629   0.179   4.361   5.856  0.6242 -0.3907  0.2545
  665TIP3    H123630   0.139   4.403   5.932 -0.7380 -1.3632  0.1064
  665TIP3    H223631   0.133   4.400   5.781  0.6971 -0.7304  0.0307
  666TIP3   OH223632   6.158   5.620   0.224  0.0050 -0.5502  0.3416
  666TIP3    H123633   6.189   5.543   0.270 -0.0737  0.4778  2.2023
  666TIP3    H223634   6.085   5.652   0.276  1.6562  2.2440  1.1542
  667TIP3   OH223635   3.048   1.954   8.343  0.1785 -0.2770  0.5168
  667TIP3    H123636   3.129   1.995   8.375  0.9666 -1.3444 -0.0559
  667TIP3    H223637   3.073   1.863   8.324 -0.9616 -0.4160 -0.4132
  668TIP3   OH223638   1.123   5.337   8.398  0.3921  0.4703  0.2106
  668TIP3    H123639   1.075   5.393   8.337 -1.6831 -0.6464  0.7093
  668TIP3    H223640   1.161   5.397   8.461 -1.8878  1.3569  0.8150
  669TIP3   OH223641   6.029   0.140   8.030 -0.5091 -0.3825 -0.2735
  669TIP3    H123642   6.116   0.107   8.008 -0.6858 -0.4174 -0.9307
  669TIP3    H223643   6.042   0.234   8.042 -0.8980  0.1697 -3.3961
  670TIP3   OH223644   0.568   3.590   1.679  0.4721 -0.3530 -0.4381
  670TIP3    H123645   0.530   3.542   1.752  0.1038 -0.5386 -0.7473
  670TIP3    H223646   0.515   3.565   1.603  0.2540  0.5605 -0.5989
  671TIP3   OH223647   4.570   1.186   1.617 -0.5595 -0.0156 -0.3733
  671TIP3    H123648   4.568   1.281   1.634  0.6401  0.1171 -0.8657
  671TIP3    H223649   4.491   1.153   1.659 -0.4317  1.0431  0.7664
  672TIP3   OH223650   2.995   4.293   7.584  0.1025  0.0859  0.4573
  672TIP3    H123651   2.978   4.385   7.563 -0.2212 -0.1750 -0.4804
  672TIP3    H223652   3.019   4.294   7.677 -0.4564  1.0435  0.6088
  673TIP3   OH223653   4.569   1.473   0.294  0.0982 -0.3439  0.6856
  673TIP3    H123654   4.620   1.394   0.313  0.1193 -0.4872  0.0410
  673TIP3    H223655   4.503   1.476   0.364  1.1171 -0.0249  1.6672
  674TIP3   OH223656   5.270   1.889   0.220 -0.2598  0.4178 -0.1396
  674TIP3    H123657   5.277   1.838   0.301 -0.3946 -2.2767 -1.7049
  674TIP3    H223658   5.224   1.831   0.160  3.6987  0.3890 -3.5792
  675TIP3   OH223659   5.721   3.107   6.893  0.1322  0.3696  0.3630
  675TIP3    H123660   5.777   3.117   6.969  0.3372  0.9691  0.1390
  675TIP3    H223661   5.775   3.135   6.819  0.0668 -0.5627 -0.0583
  676TIP3   OH223662   6.787   0.614   0.365  0.1474  0.4098  0.0956
  676TIP3    H123663   6.720   0.672   0.330  0.2922  0.8547  0.5355
  676TIP3    H223664   6.801   0.645   0.455 -0.6133 -1.0525  0.7496
  677TIP3   OH223665   5.894   4.933   7.321 -0.0133  0.5259 -0.3178
  677TIP3    H123666   5.856   4.915   7.407  0.4832 -0.2090 -0.2521
  677TIP3    H223667   5.973   4.880   7.317  0.4063  1.1707 -0.9155
  678TIP3   OH223668   6.749   0.155   6.975 -0.0206  0.2780  0.7173
  678TIP3    H123669   6.670   0.108   6.946  0.4090 -0.7905  1.2408
  678TIP3    H223670   6.813   0.086   6.990  0.7858  1.0876  1.0226
  679TIP3   OH223671   2.733   1.087   1.583  0.2066 -0.0502 -0.9767
  679TIP3    H123672   2.705   0.999   1.557 -1.3366  0.8753 -2.6972
  679TIP3    H223673   2.714   1.091   1.677  0.6206 -1.6561 -0.7967
  680TIP3   OH223674   6.414   3.875   0.321 -0.2807 -0.3336 -0.6526
  680TIP3    H123675   6.450   3.808   0.264 -1.0629 -1.6499  0.3460
  680TIP3    H223676   6.334   3.904   0.277 -1.0623 -1.5873 -0.1026
  681TIP3   OH223677   3.730   0.637   8.122 -0.0433  0.0461  0.1405
  681TIP3    H123678   3.823   0.639   8.102 -0.2355 -0.2651 -0.8418
  681TIP3    H223679   3.726   0.622   8.216  0.8921 -0.8735  0.0545
  682TIP3   OH223680   3.327   6.479   7.866  0.1166  0.5968 -0.0379
  682TIP3    H123681   3.302   6.571   7.875  0.2063  0.7031 -0.8414
  682TIP3    H223682   3.408   6.471   7.916 -1.1622  0.3842  2.0997
  683TIP3   OH223683   4.046   3.879   7.566  0.2517 -0.5021 -0.7768
  683TIP3    H123684   4.064   3.798   7.614 -0.7632 -0.4999 -0.3738
  683TIP3    H223685   4.132   3.910   7.538  0.6588 -1.6860 -0.8850
  684TIP3   OH223686   5.396   0.156   1.924  0.0170 -0.4025  0.5379
  684TIP3    H123687   5.381   0.250   1.911  3.8170  0.2436 -0.4666
  684TIP3    H223688   5.381   0.143   2.018 -2.0587  0.7852  0.4502
  685TIP3   OH223689   1.329   2.012   1.168  0.0614  0.1404  0.4250
  685TIP3    H123690   1.386   2.070   1.220  1.5693 -1.8480  1.1079
  685TIP3    H223691   1.274   2.072   1.117  1.7524  2.1601  0.8428
  686TIP3   OH223692   1.449   3.880   0.849 -0.2681 -0.6428  0.2316
  686TIP3    H123693   1.515   3.945   0.824 -2.0338  0.7497 -1.0913
  686TIP3    H223694   1.414   3.913   0.932 -0.2436 -0.6186  0.2326
  687TIP3   OH223695   0.159   3.110   6.507 -0.2047 -0.5744  0.2658
  687TIP3    H123696   0.237   3.118   6.451 -0.4005 -3.6724 -0.5930
  687TIP3    H223697   0.178   3.168   6.582  2.7362 -0.8679 -0.1226
  688TIP3   OH223698   4.594   1.688   7.502 -0.3359 -0.0143 -0.1216
  688TIP3    H123699   4.622   1.639   7.424 -0.1336  1.9362 -1.3521
  688TIP3    H223700   4.506   1.717   7.482 -0.5100  0.0161  0.6551
  689TIP3   OH223701   3.805   5.810   7.500 -0.2663 -0.1795 -0.1990
  689TIP3    H123702   3.755   5.731   7.520  1.2915 -0.6395  2.3913
  689TIP3    H223703   3.885   5.778   7.458  0.7519 -0.1489  1.6104
  690TIP3   OH223704   3.745   6.603   1.315  0.3971 -0.1743 -0.6722
  690TIP3    H123705   3.652   6.583   1.310 -0.3227  1.2463  3.1496
  690TIP3    H223706   3.785   6.524   1.352  0.4079 -0.1793 -0.6945
  691TIP3   OH223707   0.266   1.892   7.926 -0.1103 -0.5496  0.2649
  691TIP3    H123708   0.255   1.829   7.996 -1.5255  0.7529  1.2914
  691TIP3    H223709   0.338   1.949   7.955 -0.5896 -0.1091  0.6214
  692TIP3   OH223710   1.708   5.321   6.803 -0.1219  0.6135 -0.3297
  692TIP3    H123711   1.741   5.386   6.865  2.0215  0.7824 -1.5419
  692TIP3    H223712   1.710   5.238   6.851  0.8390  0.8477  0.0410
  693TIP3   OH223713   2.632   6.559   7.984  0.5765  0.0415  0.5078
  693TIP3    H123714   2.631   6.649   8.015 -1.6753 -0.0580  0.8388
  693TIP3    H223715   2.587   6.561   7.900 -0.7930 -0.9540  1.1731
  694TIP3   OH223716   1.480   4.280   1.207 -0.3717  0.5730 -0.9159
  694TIP3    H123717   1.466   4.233   1.289  1.8823  1.2072 -0.0955
  694TIP3    H223718   1.399   4.330   1.195 -0.6270  0.7665  1.1364
  695TIP3   OH223719   3.811   0.223   2.428 -0.0586 -0.2214  0.1843
  695TIP3    H123720   3.900   0.249   2.450 -0.7416  1.2639  1.4804
  695TIP3    H223721   3.779   0.294   2.371 -0.5578 -0.4737  0.1447
  696TIP3   OH223722   3.769   2.938   6.972  0.2536 -0.5022 -0.3709
  696TIP3    H123723   3.804   2.953   6.885 -1.8930  1.4717 -0.9934
  696TIP3    H223724   3.804   3.010   7.025 -2.2565  1.2530 -0.9039
  697TIP3   OH223725   2.608   0.875   0.847 -0.4182  0.2610  0.2032
  697TIP3    H123726   2.685   0.919   0.885 -0.0390 -1.1439  1.1745
  697TIP3    H223727   2.614   0.894   0.754  1.9734 -0.9708  0.0121
  698TIP3   OH223728   2.745   6.683   1.174 -0.1081  0.0596  0.6108
  698TIP3    H123729   2.826   6.680   1.123  0.2130  0.2476  1.1060
  698TIP3    H223730   2.732   6.776   1.194  0.8877 -0.1959  2.6300
  699TIP3   OH223731   4.804   1.072   0.787  0.5356 -0.1434 -0.0014
  699TIP3    H123732   4.824   1.165   0.786  0.6321 -0.1625  0.1899
  699TIP3    H223733   4.730   1.063   0.727  0.0535  0.1631  0.5379
  700TIP3   OH223734   3.252   2.797   2.075  0.4993 -0.3371 -0.1391
  700TIP3    H123735   3.172   2.790   2.022  0.9435  0.8459 -1.0293
  700TIP3    H223736   3.222   2.790   2.165 -0.5915 -0.0846 -0.4660
  701TIP3   OH223737   6.464   0.466   1.578  0.7989 -0.2568  0.3973
  701TIP3    H123738   6.495   0.378   1.558 -0.9429 -0.4271 -2.0694
  701TIP3    H223739   6.392   0.452   1.640  0.7815 -0.5481  0.3149
  702TIP3   OH223740   6.167   1.188   7.451 -0.1624 -0.0129 -0.0827
  702TIP3    H123741   6.171   1.222   7.540 -0.6209 -1.2447  0.4343
  702TIP3    H223742   6.167   1.093   7.462 -0.6000 -0.1800 -1.3797
  703TIP3   OH223743   2.822   0.827   8.206  0.2059 -0.5969 -0.7505
  703TIP3    H123744   2.817   0.770   8.130 -2.2694 -1.8321  0.2194
  703TIP3    H223745   2.839   0.914   8.170  0.5938 -1.3772 -2.5569
  704TIP3   OH223746   3.300   3.539   0.894  0.5016 -0.3129  0.3897
  704TIP3    H123747   3.247   3.464   0.920 -0.6777  0.3094 -0.1247
  704TIP3    H223748   3.249   3.615   0.923  0.3184  0.3357 -1.5214
  705TIP3   OH223749   3.522   5.657   8.211  0.0697  0.1275 -0.1361
  705TIP3    H123750   3.557   5.609   8.286 -0.7220 -0.9561 -0.4224
  705TIP3    H223751   3.585   5.641   8.140  0.7733  1.0813  0.2687
  706TIP3   OH223752   4.118   4.730   0.486 -0.7244 -0.5146 -0.0691
  706TIP3    H123753   4.078   4.759   0.568  1.0659  0.4510  0.5259
  706TIP3    H223754   4.063   4.767   0.417 -1.0783  0.4283  0.7087
  707TIP3   OH223755   3.173   0.253   7.329 -0.1819 -0.3088  0.0734
  707TIP3    H123756   3.077   0.258   7.321 -0.1308  0.4911 -0.1360
  707TIP3    H223757   3.199   0.194   7.257 -0.5818 -1.3075  0.7170
  708TIP3   OH223758   3.511   2.899   7.356 -0.0589  0.2078 -0.2231
  708TIP3    H123759   3.585   2.848   7.389 -1.9759 -1.6650  1.5014
  708TIP3    H223760   3.507   2.879   7.263  1.1297 -0.2346 -0.1933
  709TIP3   OH223761   1.555   1.045   7.944  0.2979  0.4011 -0.0246
  709TIP3    H123762   1.651   1.043   7.943  0.3142  0.6547  0.5971
  709TIP3    H223763   1.530   0.959   7.976  0.3097  0.2504 -0.4152
  710TIP3   OH223764   0.097   6.266   2.128  0.4122  0.2047 -0.1180
  710TIP3    H123765   0.183   6.281   2.167 -0.2702  1.8703  0.9002
  710TIP3    H223766   0.054   6.205   2.187  0.3169  0.6650  0.2922
  711TIP3   OH223767   5.108   6.835   1.992 -0.5179  0.1516 -0.4499
  711TIP3    H123768   5.187   6.876   2.028  0.1192 -1.1049 -0.3572
  711TIP3    H223769   5.054   6.908   1.962 -0.5234  1.2071  1.8993
  712TIP3   OH223770   3.231   0.608   7.692 -0.3116  0.6307  0.3029
  712TIP3    H123771   3.252   0.654   7.611  1.0113  2.5318  1.6331
  712TIP3    H223772   3.311   0.559   7.713 -0.2812  0.9368  0.9405
  713TIP3   OH223773   2.893   0.014   7.353  0.2466  0.1806  0.2360
  713TIP3    H123774   2.893   0.103   7.316  3.0444 -0.5782 -1.9157
  713TIP3    H223775   2.815  -0.027   7.316 -0.5946  1.4178  0.5522
  714TIP3   OH223776   0.056   0.340   7.863  0.6196 -0.3792  0.1058
  714TIP3    H123777   0.009   0.423   7.868  0.6292 -0.3323 -0.5547
  714TIP3    H223778   0.006   0.287   7.801  1.3086 -0.4132 -0.4331
  715TIP3   OH223779   6.669   0.047   0.046 -0.4409 -0.2751 -0.0151
  715TIP3    H123780   6.723   0.112   0.001 -0.6511  1.9492  2.6883
  715TIP3    H223781   6.728   0.008   0.110 -0.6198 -2.0829 -0.8810
  716TIP3   OH223782   5.419   6.584   1.563 -0.0114  0.1724 -0.0758
  716TIP3    H123783   5.421   6.679   1.565  0.3968  0.1808 -0.6242
  716TIP3    H223784   5.503   6.558   1.600 -0.4940 -0.0008  0.9394
  717TIP3   OH223785   1.116   5.283   6.261 -0.3602 -0.4469 -0.3763
  717TIP3    H123786   1.128   5.377   6.245 -0.6824 -0.3950 -0.3125
  717TIP3    H223787   1.198   5.244   6.233  0.3113  0.0011  0.8593
  718TIP3   OH223788   0.328   3.957   0.479 -0.1270 -0.7861  0.1432
  718TIP3    H123789   0.409   4.006   0.491 -0.7425  0.1427  0.5739
  718TIP3    H223790   0.344   3.905   0.400  1.0295 -0.9310  0.4470
  719TIP3   OH223791   5.219   1.694   1.725  0.6694  0.0957 -0.6247
  719TIP3    H123792   5.258   1.730   1.805 -0.2620 -0.0167 -0.1121
  719TIP3    H223793   5.161   1.625   1.755 -1.4181  1.5000 -1.1775
  720TIP3   OH223794   3.286   2.262   1.751 -0.1331  0.2474 -0.0374
  720TIP3    H123795   3.311   2.233   1.839  3.1673  0.6787 -0.7010
  720TIP3    H223796   3.289   2.357   1.755 -0.8344  0.2998 -0.4472
  721TIP3   OH223797   0.189   5.861   1.024 -0.0243  0.1179  0.0953
  721TIP3    H123798   0.223   5.804   0.955  0.0981 -0.6353  0.7733
  721TIP3    H223799   0.266   5.910   1.054 -0.2182  1.0258 -0.8257
  722TIP3   OH223800   5.385   5.915   1.283 -0.2936  0.4183  0.0599
  722TIP3    H123801   5.461   5.906   1.340 -1.5004  0.1081  1.6914
  722TIP3    H223802   5.310   5.922   1.343 -1.9397 -2.4191 -1.4518
  723TIP3   OH223803   1.210   0.191   2.428 -0.5512 -0.2001  0.0151
  723TIP3    H123804   1.119   0.166   2.413 -0.4958  0.1632 -1.0350
  723TIP3    H223805   1.254   0.171   2.345  0.2461  0.0059  0.3770
  724TIP3   OH223806   5.032   4.445   0.848  0.2690 -0.0635 -0.5054
  724TIP3    H123807   5.069   4.496   0.921 -0.8818 -0.9800  0.7804
  724TIP3    H223808   4.991   4.370   0.891  0.3669 -1.1324 -2.2107
  725TIP3   OH223809   6.656   0.297   6.093 -0.6129  0.9301 -0.2714
  725TIP3    H123810   6.674   0.377   6.142 -0.6064  1.1663 -0.6539
  725TIP3    H223811   6.639   0.231   6.160  0.7978  0.9048  0.0969
  726TIP3   OH223812   6.498   1.198   1.257  0.2273  0.7566  0.1458
  726TIP3    H123813   6.482   1.229   1.346  1.5131 -0.7853  0.9612
  726TIP3    H223814   6.443   1.120   1.248 -0.2465  1.1568 -0.6085
  727TIP3   OH223815   2.527   2.614   0.256 -0.4617  0.1966  0.7019
  727TIP3    H123816   2.583   2.648   0.326 -0.9030 -0.0825  1.2061
  727TIP3    H223817   2.517   2.521   0.277 -1.4455  0.3242  0.8646
  728TIP3   OH223818   5.405   2.658   0.891  0.1868  0.3526 -0.0289
  728TIP3    H123819   5.481   2.601   0.898 -0.6936 -0.6519  2.8084
  728TIP3    H223820   5.385   2.682   0.981 -0.7218  3.5596 -0.9456
  729TIP3   OH223821   3.400   3.118   1.831  0.3552 -0.3102 -0.6163
  729TIP3    H123822   3.425   3.028   1.810 -1.8873 -1.3619  0.7844
  729TIP3    H223823   3.482   3.162   1.851  1.3813 -2.5672  0.4843
  730TIP3   OH223824   3.109   0.791   2.285 -0.4807  0.1355  0.6076
  730TIP3    H123825   3.102   0.855   2.356 -1.4175  0.0567  0.6030
  730TIP3    H223826   3.097   0.706   2.328 -0.2546  0.0369  0.4731
  731TIP3   OH223827   5.350   0.629   1.006 -0.1327  0.1918 -0.1708
  731TIP3    H123828   5.264   0.593   1.026  0.8425 -2.5667 -0.4943
  731TIP3    H223829   5.359   0.704   1.065 -2.2474 -0.1938  0.7267
  732TIP3   OH223830   0.642   0.518   6.458 -0.8422 -0.4254  0.0396
  732TIP3    H123831   0.549   0.500   6.467 -1.2981  1.8435  0.4814
  732TIP3    H223832   0.673   0.526   6.548 -0.4736 -0.0140 -0.1236
  733TIP3   OH223833   1.554   0.977   1.489  0.3897  0.5858  0.0173
  733TIP3    H123834   1.581   0.977   1.397 -1.2387  0.8278 -0.4898
  733TIP3    H223835   1.611   0.911   1.530  1.0360  0.3590 -1.1823
  734TIP3   OH223836   2.651   0.676   7.496 -0.2898  0.0740 -0.6045
  734TIP3    H123837   2.630   0.606   7.434 -0.3154  0.1870 -0.7266
  734TIP3    H223838   2.637   0.757   7.445 -1.0295  0.1871 -0.2297
  735TIP3   OH223839   5.468   4.791   8.014 -0.1982  0.0892 -0.6731
  735TIP3    H123840   5.410   4.778   7.940  1.8922 -0.6643 -2.2934
  735TIP3    H223841   5.414   4.773   8.091 -2.5871  1.4048 -1.9257
  736TIP3   OH223842   6.667   5.928   6.897  0.2593 -0.2167  0.2412
  736TIP3    H123843   6.726   5.886   6.835  1.0781 -1.0697  1.5348
  736TIP3    H223844   6.579   5.902   6.869  0.6550 -1.1801 -0.1320
  737TIP3   OH223845   0.139   1.985   7.680  0.0409 -0.0156  0.0627
  737TIP3    H123846   0.176   1.912   7.631 -1.4355 -1.0151  0.3608
  737TIP3    H223847   0.174   1.974   7.769  1.3204  0.7810 -0.3092
  738TIP3   OH223848   0.066   5.567   1.880 -0.6653  0.0551 -0.6846
  738TIP3    H123849   0.100   5.527   1.960  0.3813  0.5111 -0.8778
  738TIP3    H223850   0.108   5.518   1.809 -0.9482  0.1877 -0.9445
  739TIP3   OH223851   3.913   4.832   0.328 -0.1592 -0.0092  0.9890
  739TIP3    H123852   3.939   4.787   0.248 -2.3288 -2.7953  1.6909
  739TIP3    H223853   3.882   4.918   0.298  0.3888 -0.4324 -0.9414
  740TIP3   OH223854   2.577   4.882   7.406 -0.4008 -0.5220 -0.2110
  740TIP3    H123855   2.560   4.952   7.469 -0.7206 -0.4327 -0.3937
  740TIP3    H223856   2.632   4.922   7.340  0.2831 -0.7283  0.2251
  741TIP3   OH223857   3.381   0.755   1.694 -0.1892  0.4385 -0.3902
  741TIP3    H123858   3.441   0.822   1.725  0.7856 -0.5737 -0.0172
  741TIP3    H223859   3.343   0.717   1.773  1.8118 -1.7048 -0.3699
  742TIP3   OH223860   0.768   5.524   8.339  0.0878 -0.6205 -0.0922
  742TIP3    H123861   0.809   5.610   8.330 -0.0741 -0.5916 -0.6299
  742TIP3    H223862   0.721   5.528   8.422 -0.0865 -0.1136 -0.2107
  743TIP3   OH223863   4.359   5.725   7.816 -0.3375  0.2551  0.3428
  743TIP3    H123864   4.278   5.704   7.863 -0.6539 -1.2177 -0.7774
  743TIP3    H223865   4.332   5.785   7.747 -0.4608 -0.1519  0.0354
  744TIP3   OH223866   3.664   0.245   8.069 -0.4482 -0.4298 -0.3739
  744TIP3    H123867   3.677   0.243   7.974  0.4593  1.0221 -0.3149
  744TIP3    H223868   3.752   0.255   8.105 -0.8337 -0.3933  0.5931
  745TIP3   OH223869   0.385   2.974   7.671  0.2344 -0.2580  0.0151
  745TIP3    H123870   0.371   2.948   7.580  0.4953 -1.1845  0.2243
  745TIP3    H223871   0.478   2.956   7.687 -0.1332 -1.5913  0.8959
  746TIP3   OH223872   2.496   0.425   8.389  0.1609  0.4254 -0.6747
  746TIP3    H123873   2.475   0.368   8.462  0.5846  0.7234 -0.3167
  746TIP3    H223874   2.468   0.377   8.311 -0.7371  0.3128 -0.2861
  747TIP3   OH223875   6.878   4.439   0.388 -0.8275  0.3257  0.1122
  747TIP3    H123876   6.958   4.405   0.429  0.1089  2.1511 -0.0918
  747TIP3    H223877   6.854   4.373   0.322  0.5221 -0.2312  0.1514
  748TIP3   OH223878   3.836   4.258   7.167  0.3945 -0.1946 -0.7419
  748TIP3    H123879   3.754   4.306   7.179  1.2782  0.8751  1.7126
  748TIP3    H223880   3.842   4.200   7.243  1.9068 -0.2256 -0.8460
  749TIP3   OH223881   0.115   3.076   1.284 -0.2852 -0.0373 -0.2741
  749TIP3    H123882   0.102   2.994   1.332 -0.2661 -1.5779 -2.7381
  749TIP3    H223883   0.027   3.104   1.260 -0.2353  0.1886 -0.1962
  750TIP3   OH223884   0.240   3.426   1.084 -0.1308 -0.5041  0.3782
  750TIP3    H123885   0.195   3.393   1.162 -0.2479 -0.4696  0.3244
  750TIP3    H223886   0.174   3.424   1.015 -0.7156  1.5894  0.8000
  751TIP3   OH223887   2.402   3.831   0.003  0.0326 -0.3890 -0.7486
  751TIP3    H123888   2.476   3.891  -0.004  0.0063  0.1251  2.1990
  751TIP3    H223889   2.440   3.751   0.040 -0.9739  0.3028  2.0010
  752TIP3   OH223890   5.145   6.574   0.841 -0.1895  0.4961 -0.6184
  752TIP3    H123891   5.147   6.534   0.928 -0.6153  3.5145  0.8837
  752TIP3    H223892   5.219   6.635   0.840 -0.2099  0.5533 -2.3919
  753TIP3   OH223893   4.455   6.527   7.486 -0.1074 -0.0181  0.0290
  753TIP3    H123894   4.404   6.520   7.405  0.5268 -0.6550 -0.3382
  753TIP3    H223895   4.533   6.577   7.460  2.1965 -3.7073 -0.9100
  754TIP3   OH223896   4.636   5.594   0.177  0.5293  0.0563 -0.6559
  754TIP3    H123897   4.561   5.575   0.233  0.5726  1.0745 -0.2264
  754TIP3    H223898   4.694   5.647   0.232  1.2668 -0.1822 -1.1904
  755TIP3   OH223899   1.316   5.051   6.564 -0.2258 -0.3363 -0.1566
  755TIP3    H123900   1.384   5.110   6.530  0.0927 -0.5252  0.1445
  755TIP3    H223901   1.247   5.053   6.498  0.2679 -0.4840 -0.6800
  756TIP3   OH223902   4.330   5.412   7.988  0.1091 -0.3117 -0.4659
  756TIP3    H123903   4.262   5.411   7.920  0.5964  0.2390 -0.9661
  756TIP3    H223904   4.412   5.400   7.940  0.3985 -0.6013  0.0979
  757TIP3   OH223905   6.467   3.378   2.771 -0.8383  0.1285 -0.2466
  757TIP3    H123906   6.495   3.287   2.769  0.9549  0.6102  0.9086
  757TIP3    H223907   6.543   3.426   2.804 -1.7937  2.0296 -0.6677
  758TIP3   OH223908   0.149   6.853   1.000  0.5982 -0.1754 -0.4547
  758TIP3    H123909   0.073   6.910   1.007  1.5502  0.9540  1.4688
  758TIP3    H223910   0.149   6.803   1.082  2.2610  0.3199 -0.1112
  759TIP3   OH223911   4.488   5.970   7.505  0.7372  0.3150  0.5813
  759TIP3    H123912   4.419   5.958   7.570 -0.2968  1.9229 -0.1720
  759TIP3    H223913   4.442   5.967   7.421  1.9808 -1.2168 -0.0980
  760TIP3   OH223914   4.118   2.270   7.675  0.3735  0.1809 -0.3011
  760TIP3    H123915   4.053   2.224   7.728  0.2769  1.2261  0.5199
  760TIP3    H223916   4.080   2.273   7.588 -0.0273 -0.4703 -0.1587
  761TIP3   OH223917   2.696   3.612   7.144  0.5203  0.3768  0.0213
  761TIP3    H123918   2.769   3.665   7.175  2.6344 -0.7100 -2.6830
  761TIP3    H223919   2.735   3.526   7.126 -2.1209 -1.2212  1.3237
  762TIP3   OH223920   6.497   1.624   8.289  0.4259 -0.8625  0.2702
  762TIP3    H123921   6.439   1.639   8.364 -0.3088 -0.2755 -0.3974
  762TIP3    H223922   6.470   1.539   8.255 -0.9953 -0.0262 -0.8307
  763TIP3   OH223923   0.215   3.656   0.408 -0.5427  0.2178 -0.1257
  763TIP3    H123924   0.246   3.663   0.499  0.8765 -1.1340 -0.4573
  763TIP3    H223925   0.277   3.710   0.359 -0.7067  0.1376 -0.4163
  764TIP3   OH223926   3.692   5.471   2.309  0.2236 -0.0374 -0.0363
  764TIP3    H123927   3.648   5.531   2.370  2.6060  0.5494  1.2220
  764TIP3    H223928   3.654   5.385   2.329 -2.2879  0.7611 -0.9540
  765TIP3   OH223929   4.015   4.957   1.778  0.1612  0.1811 -0.2327
  765TIP3    H123930   3.936   4.981   1.729 -0.3770 -2.0348 -0.6009
  765TIP3    H223931   3.983   4.936   1.866  0.2128 -1.1628 -0.5078
  766TIP3   OH223932   3.692   2.890   0.431  0.1040  0.3165 -0.2661
  766TIP3    H123933   3.740   2.864   0.510 -0.3104  0.3301 -0.0095
  766TIP3    H223934   3.742   2.964   0.396  1.6749 -1.1662 -1.3601
  767TIP3   OH223935   3.692   0.621   1.265  0.2651 -0.1707  0.0308
  767TIP3    H123936   3.751   0.661   1.201 -2.1379  0.5373 -1.8958
  767TIP3    H223937   3.714   0.664   1.348  2.3278  0.1296 -0.6111
  768TIP3   OH223938   1.681   4.082   0.844  0.4020  0.0114  0.1584
  768TIP3    H123939   1.663   4.101   0.937 -1.9969  2.6773 -0.6949
  768TIP3    H223940   1.698   4.168   0.805  2.0620 -1.1240 -1.7959
  769TIP3   OH223941   3.551   0.631   0.199  0.0220 -0.2001 -0.2481
  769TIP3    H123942   3.507   0.716   0.205  1.2276  0.4964 -0.9631
  769TIP3    H223943   3.584   0.614   0.287 -0.1197  0.1237 -0.1319
  770TIP3   OH223944   0.138   4.875   0.850 -0.5058  0.0506  0.2112
  770TIP3    H123945   0.218   4.865   0.902  0.0480  1.9580 -0.1857
  770TIP3    H223946   0.143   4.806   0.785  0.2498 -0.5641  0.8917
  771TIP3   OH223947   6.324   2.823   0.890 -0.7168 -0.4256 -0.3152
  771TIP3    H123948   6.400   2.784   0.847 -0.5349 -0.6535  0.2076
  771TIP3    H223949   6.254   2.760   0.877 -0.5380 -0.7239  0.1368
  772TIP3   OH223950   1.304   5.317   7.476 -0.8171 -0.0900  0.1812
  772TIP3    H123951   1.360   5.328   7.553  0.0584 -0.6978 -0.3424
  772TIP3    H223952   1.353   5.357   7.405 -0.0982 -2.2901 -0.6655
  773TIP3   OH223953   1.061   0.626   0.449  0.2120 -0.4631 -0.1686
  773TIP3    H123954   1.050   0.721   0.455  1.5091 -0.3665  1.0043
  773TIP3    H223955   1.039   0.605   0.358  1.1162  1.1375 -0.7947
  774TIP3   OH223956   5.503   6.718   0.020  0.7798  0.0314 -0.5746
  774TIP3    H123957   5.558   6.796   0.011 -0.6617  1.2365  0.5536
  774TIP3    H223958   5.457   6.731   0.103  2.4800 -3.3196  1.0823
  775TIP3   OH223959   4.674   0.055   6.800 -0.7665  0.3436 -0.3793
  775TIP3    H123960   4.722   0.124   6.754 -2.3540  1.8442  0.1354
  775TIP3    H223961   4.611   0.023   6.736 -0.3769 -0.2961 -0.4523
  776TIP3   OH223962   6.972   3.285   7.794 -0.2186  0.0939 -0.2522
  776TIP3    H123963   6.990   3.213   7.855  0.4550 -0.9094 -1.5597
  776TIP3    H223964   6.877   3.295   7.795 -0.2101  0.1106  0.9609
  777TIP3   OH223965   1.905   3.586   7.586 -0.2525  0.2977  0.1793
  777TIP3    H123966   1.894   3.584   7.681 -0.0494 -0.6695  0.1922
  777TIP3    H223967   1.981   3.529   7.569 -1.3015 -0.8909 -0.6873
  778TIP3   OH223968   0.282   4.469   1.111 -0.3861 -0.0055 -0.2168
  778TIP3    H123969   0.191   4.456   1.136 -0.0677 -2.4663 -0.1665
  778TIP3    H223970   0.332   4.442   1.188  0.4626 -3.2758 -1.7458
  779TIP3   OH223971   5.963   6.881   0.463 -0.1796  0.3947 -0.7690
  779TIP3    H123972   5.964   6.974   0.486  0.9759  0.2626 -0.2257
  779TIP3    H223973   6.043   6.846   0.502 -0.2577 -0.6924 -1.5540
  780TIP3   OH223974   5.783   5.985   6.688 -0.1741  0.5017  0.0174
  780TIP3    H123975   5.833   5.932   6.750  0.7981  2.0188  0.5792
  780TIP3    H223976   5.842   5.997   6.614 -1.0839 -0.7274 -0.9487
  781TIP3   OH223977   5.405   2.663   1.163  0.4644 -0.2991  0.1634
  781TIP3    H123978   5.336   2.598   1.175 -1.6143  1.8782  0.8987
  781TIP3    H223979   5.474   2.637   1.223  0.0160 -2.1871 -0.0961
  782TIP3   OH223980   6.860   1.339   1.290 -0.0549 -0.1656 -0.6747
  782TIP3    H123981   6.949   1.335   1.255  0.0745  1.2072 -0.5466
  782TIP3    H223982   6.804   1.314   1.217  0.2063  2.6436 -1.9841
  783TIP3   OH223983   0.305   3.803   1.513 -0.0838  0.5800 -0.0743
  783TIP3    H123984   0.373   3.866   1.537 -1.1667  1.4022  0.9548
  783TIP3    H223985   0.301   3.808   1.418  1.7685 -0.0272 -0.2345
  784TIP3   OH223986   0.881   0.095   7.607  0.8123 -0.0872 -0.2265
  784TIP3    H123987   0.942   0.051   7.548  1.2081 -0.7562  0.6483
  784TIP3    H223988   0.796   0.056   7.588  1.0027 -0.5673 -0.0966
  785TIP3   OH223989   2.255   2.287   0.555 -0.5577  0.4850  0.1222
  785TIP3    H123990   2.238   2.213   0.498  2.0614 -1.2378  1.4005
  785TIP3    H223991   2.227   2.257   0.642  1.3483  0.6100  0.8129
  786TIP3   OH223992   2.583   2.318   8.437 -0.0823  0.3262  0.3769
  786TIP3    H123993   2.669   2.359   8.426 -0.9624  2.0687 -0.4484
  786TIP3    H223994   2.597   2.227   8.412  1.6752  0.3840  0.9721
  787TIP3   OH223995   6.167   0.998   1.149  0.4185 -1.0051  0.0588
  787TIP3    H123996   6.236   0.932   1.154  1.4770 -0.0163 -1.1244
  787TIP3    H223997   6.195   1.058   1.081 -0.1803  1.0593  1.5312
  788TIP3   OH223998   0.766   5.876   7.308  0.2875 -0.3452  0.0587
  788TIP3    H123999   0.698   5.924   7.355 -0.4267 -0.6204 -0.6578
  788TIP3    H224000   0.729   5.789   7.295  0.6935 -0.4383 -0.5153
  789TIP3   OH224001   1.818   5.503   7.568  0.1531 -0.2450 -0.2623
  789TIP3    H124002   1.806   5.566   7.640 -0.2841 -0.0671 -0.4898
  789TIP3    H224003   1.859   5.554   7.498 -0.3617 -0.1659 -0.5108
  790TIP3   OH224004   2.272   3.225   7.152 -0.3976  0.5689  0.2882
  790TIP3    H124005   2.179   3.201   7.153 -0.2045 -0.2237  0.4228
  790TIP3    H224006   2.286   3.263   7.065 -0.8775  0.8122  0.3151
  791TIP3   OH224007   6.494   6.788   8.053 -0.1749 -0.0509 -0.2480
  791TIP3    H124008   6.573   6.759   8.099 -0.1306  1.0988  0.4474
  791TIP3    H224009   6.430   6.801   8.122 -0.5762  0.2586 -0.6728
  792TIP3   OH224010   4.188   2.594   7.035 -0.1784 -0.0713 -0.2948
  792TIP3    H124011   4.152   2.616   6.949 -1.0734 -0.5109 -0.0526
  792TIP3    H224012   4.282   2.609   7.027 -0.5916  3.1732 -0.3605
  793TIP3   OH224013   4.357   1.457   0.488  0.0649  0.3203 -0.2441
  793TIP3    H124014   4.367   1.363   0.470  0.6097  0.1883  0.6375
  793TIP3    H224015   4.283   1.461   0.549  0.3013  0.4115  0.0406
  794TIP3   OH224016   6.506   6.165   0.079 -0.3649 -0.0208 -0.1784
  794TIP3    H124017   6.566   6.239   0.073 -1.7862  1.1697 -0.0369
  794TIP3    H224018   6.433   6.188   0.020 -0.3113 -1.8187 -1.0228
  795TIP3   OH224019   3.851   4.901   7.988  0.2340 -0.0925 -0.1001
  795TIP3    H124020   3.758   4.921   7.976  0.1581  0.2928  0.9233
  795TIP3    H224021   3.880   4.966   8.053  1.4249  0.3366 -1.0408
  796TIP3   OH224022   3.885   6.123   8.415 -0.1694  0.5789  0.1742
  796TIP3    H124023   3.894   6.035   8.378 -0.9852  0.1806  0.8840
  796TIP3    H224024   3.881   6.181   8.339  2.8437  0.3169 -0.3104
  797TIP3   OH224025   4.924   1.133   2.514  0.1354 -0.5385  0.1728
  797TIP3    H124026   5.001   1.186   2.532  0.0785 -0.7598  1.0996
  797TIP3    H224027   4.851   1.185   2.547 -0.0666 -0.5744 -0.2049
  798TIP3   OH224028   2.636   2.037   1.442  0.0102 -0.2174  0.0011
  798TIP3    H124029   2.669   2.005   1.526 -0.2790 -1.3097 -0.2723
  798TIP3    H224030   2.670   2.126   1.434  1.5340 -0.7196  0.4730
  799TIP3   OH224031   2.351   0.787   7.560 -0.1593  0.3171 -0.2507
  799TIP3    H124032   2.321   0.718   7.500  1.7220  0.8619 -1.9483
  799TIP3    H224033   2.446   0.789   7.548  0.2699  0.7329  2.5393
  800TIP3   OH224034   5.765   2.731   6.575  0.4286 -0.1734 -0.2590
  800TIP3    H124035   5.815   2.709   6.497 -0.3781 -1.6270 -0.3939
  800TIP3    H224036   5.751   2.648   6.620 -1.3798  0.2605  0.0584
  801TIP3   OH224037   3.446   1.922   0.935 -0.1266  0.6598 -0.6243
  801TIP3    H124038   3.513   1.874   0.886  0.7378  0.6291  0.5689
  801TIP3    H224039   3.420   1.994   0.876  0.4764  0.2936 -1.3481
  802TIP3   OH224040   0.165   2.440   7.360 -0.3060 -0.0751  0.1023
  802TIP3    H124041   0.155   2.345   7.362 -1.1140  0.0078  1.0325
  802TIP3    H224042   0.259   2.455   7.359 -0.1756 -0.8880 -1.0564
  803TIP3   OH224043   1.120   4.095   7.796  0.2281 -0.4909  0.0662
  803TIP3    H124044   1.170   4.093   7.877  0.4675 -1.4753 -0.1001
  803TIP3    H224045   1.149   4.018   7.747 -1.8912 -1.4907  0.2433
  804TIP3   OH224046   2.063   0.432   1.988 -0.1833 -0.1807  0.1062
  804TIP3    H124047   2.096   0.430   2.078 -1.5223 -2.1687  0.6207
  804TIP3    H224048   1.968   0.421   1.997 -0.3855 -0.0205 -1.5404
  805TIP3   OH224049   1.303   5.625   7.645 -0.2279 -0.1340  0.3598
  805TIP3    H124050   1.315   5.672   7.563  0.0861  0.7516  0.8942
  805TIP3    H224051   1.375   5.562   7.649 -0.7378 -0.7905 -0.4327
  806TIP3   OH224052   4.166   1.370   8.372  0.0163  0.5853  0.3511
  806TIP3    H124053   4.081   1.335   8.396  0.3049 -0.5987 -0.2598
  806TIP3    H224054   4.229   1.312   8.416  0.5165 -0.2033 -1.3148
  807TIP3   OH224055   1.330   3.373   1.144  0.4106 -0.4785  0.4672
  807TIP3    H124056   1.385   3.302   1.110  0.3567  0.3178 -1.3693
  807TIP3    H224057   1.298   3.419   1.066 -0.8702  0.5861  1.5703
  808TIP3   OH224058   0.572   2.224   0.016  0.5273  0.1962  0.0096
  808TIP3    H124059   0.614   2.210   0.101  0.0200 -0.3862  0.1663
  808TIP3    H224060   0.641   2.265  -0.038  1.1254 -0.2388  0.4286
  809TIP3   OH224061   0.548   1.703   7.503  0.0567  0.4528 -0.2073
  809TIP3    H124062   0.530   1.639   7.571 -0.1121  0.8947  0.1674
  809TIP3    H224063   0.462   1.737   7.478  0.1692  0.7788 -0.1610
  810TIP3   OH224064   5.831   3.279   1.994  0.1137  0.0803 -0.4717
  810TIP3    H124065   5.741   3.312   1.984  0.8706  1.4910 -5.6441
  810TIP3    H224066   5.879   3.353   2.032 -0.1829  1.0412 -1.8889
  811TIP3   OH224067   4.902   1.455   7.213  0.2009  0.5949 -0.7529
  811TIP3    H124068   4.927   1.365   7.191  2.1624  0.6793  0.8295
  811TIP3    H224069   4.884   1.496   7.128  2.6380 -0.3850 -1.8542
  812TIP3   OH224070   5.248   6.680   1.367  0.0987 -0.1629  0.1803
  812TIP3    H124071   5.164   6.634   1.377  0.3989 -1.0708 -1.3287
  812TIP3    H224072   5.309   6.631   1.422  0.1696 -0.9421 -0.5805
  813TIP3   OH224073   6.577   1.821   0.368 -0.4776  0.2834 -0.1246
  813TIP3    H124074   6.655   1.768   0.385 -0.2087  0.3653 -1.0610
  813TIP3    H224075   6.554   1.857   0.454 -0.3216 -0.8593  0.4154
  814TIP3   OH224076   6.227   1.451   6.612  0.0843  0.1599  0.3224
  814TIP3    H124077   6.139   1.466   6.578  0.4706  1.3358 -0.1776
  814TIP3    H224078   6.226   1.359   6.639 -0.6963 -0.4043 -1.4706
  815TIP3   OH224079   5.466   1.421   7.285  0.1444  0.3113  0.2718
  815TIP3    H124080   5.371   1.430   7.293  0.1749  1.1770 -0.2791
  815TIP3    H224081   5.497   1.411   7.376 -0.3544  1.2649  0.5542
  816TIP3   OH224082   1.655   0.185   7.703  0.1998  0.5594 -0.1293
  816TIP3    H124083   1.569   0.183   7.659 -0.3249  0.0947  0.8779
  816TIP3    H224084   1.652   0.112   7.765  2.2277 -0.9607 -1.6830
  817TIP3   OH224085   2.527   4.839   6.908  0.2217 -0.1538  0.7412
  817TIP3    H124086   2.500   4.885   6.828 -2.2185 -2.3983  0.1301
  817TIP3    H224087   2.583   4.768   6.877 -2.4340 -2.3541  0.6116
  818TIP3   OH224088   5.276   2.239   0.709  0.1303 -0.0543  0.5284
  818TIP3    H124089   5.341   2.309   0.718  1.3321 -1.0999  0.3808
  818TIP3    H224090   5.240   2.229   0.797  0.0700  0.6362  0.5869
  819TIP3   OH224091   0.200   5.919   1.375  0.4830  0.4420 -0.2287
  819TIP3    H124092   0.247   5.840   1.400  0.1350  0.6735  1.2173
  819TIP3    H224093   0.111   5.906   1.409  0.3982  1.4130 -0.0470
  820TIP3   OH224094   1.436   5.037   1.327 -0.2866  0.2161  0.4126
  820TIP3    H124095   1.498   5.052   1.256  0.3214 -0.4097  0.7929
  820TIP3    H224096   1.489   5.044   1.407 -1.0252  1.2366  0.8296
  821TIP3   OH224097   2.564   2.598   2.140 -1.2416 -0.5444  0.2777
  821TIP3    H124098   2.589   2.506   2.142 -0.8459 -0.4437 -0.1224
  821TIP3    H224099   2.469   2.597   2.156 -1.9290 -1.2807 -3.0177
  822TIP3   OH224100   3.359   2.163   0.810 -0.6815  0.4212 -0.0984
  822TIP3    H124101   3.400   2.163   0.723  0.0974 -0.2295  0.2620
  822TIP3    H224102   3.367   2.254   0.840  0.0087  0.4192 -0.2637
  823TIP3   OH224103   2.222   0.682   1.266 -0.0969  0.9258 -0.0464
  823TIP3    H124104   2.251   0.646   1.350  0.0651  0.7021 -0.1959
  823TIP3    H224105   2.144   0.631   1.244  1.5827 -1.1712 -1.5176
  824TIP3   OH224106   5.467   3.379   8.122  0.0210 -0.6216 -0.3812
  824TIP3    H124107   5.533   3.310   8.115  2.8818  1.9793 -1.1333
  824TIP3    H224108   5.385   3.336   8.097  1.0723 -4.3434  1.7524
  825TIP3   OH224109   0.808   6.061   7.054  0.2994  0.3633 -0.3128
  825TIP3    H124110   0.769   6.123   7.116 -1.0189  1.1250 -1.8431
  825TIP3    H224111   0.738   5.997   7.037  0.1912  0.8783 -1.9359
  826TIP3   OH224112   2.011   1.160   7.097 -0.3029  0.1356 -0.3967
  826TIP3    H124113   1.944   1.115   7.046  0.1533 -1.0894  0.0456
  826TIP3    H224114   2.086   1.168   7.038 -0.6840  1.1644 -0.7678
  827TIP3   OH224115   2.747   6.319   0.327  0.0533 -0.3469 -0.4954
  827TIP3    H124116   2.774   6.229   0.346  2.5248  0.1391 -1.3532
  827TIP3    H224117   2.770   6.333   0.236 -0.3424  1.1616 -0.3949
  828TIP3   OH224118   0.684   6.798   5.948  0.6296  0.4136  0.3182
  828TIP3    H124119   0.593   6.825   5.934  0.3230 -0.3108  0.8446
  828TIP3    H224120   0.736   6.862   5.900 -0.1180  1.3412  0.7230
  829TIP3   OH224121   5.131   0.070   0.254 -0.7464  0.1316 -0.3706
  829TIP3    H124122   5.100   0.158   0.273  1.0197  0.2609  2.4123
  829TIP3    H224123   5.069   0.012   0.300 -1.2283 -0.0678 -1.2347
  830TIP3   OH224124   6.972   6.714   1.249 -0.6537 -0.1137  0.2701
  830TIP3    H124125   6.897   6.739   1.194 -0.2172  0.4059 -0.1009
  830TIP3    H224126   6.979   6.785   1.313  0.9974  1.1498 -1.1910
  831TIP3   OH224127   5.728   5.060   0.215 -0.3189  0.3683 -0.4557
  831TIP3    H124128   5.802   5.108   0.178 -0.7515  2.3900  1.0814
  831TIP3    H224129   5.651   5.099   0.174 -0.6532  0.5968  0.3693
  832TIP3   OH224130   2.246   4.788   6.546 -0.2860  0.3423  0.1650
  832TIP3    H124131   2.210   4.780   6.458 -1.5625 -0.2312  0.7109
  832TIP3    H224132   2.335   4.753   6.538 -1.0752 -1.6692 -0.4907
  833TIP3   OH224133   5.036   2.129   1.179 -0.2946  0.7241  0.0192
  833TIP3    H124134   4.994   2.184   1.245  0.1969 -0.2887  1.2387
  833TIP3    H224135   4.980   2.051   1.173  1.4479 -0.8340  1.9734
  834TIP3   OH224136   2.123   1.425   8.140  0.0649 -0.3022  0.4043
  834TIP3    H124137   2.127   1.468   8.226 -1.3030  1.1102 -0.1823
  834TIP3    H224138   2.093   1.494   8.081  0.1603 -1.4760 -1.0601
  835TIP3   OH224139   0.713   5.702   6.889  0.0588  0.3090  0.5113
  835TIP3    H124140   0.677   5.673   6.806  0.8558 -0.0072  0.2654
  835TIP3    H224141   0.767   5.778   6.867  1.9333 -0.9857  0.3916
  836TIP3   OH224142   5.164   4.879   0.824  0.2948  0.4739 -0.2466
  836TIP3    H124143   5.247   4.926   0.837 -0.9352  2.6391  0.3668
  836TIP3    H224144   5.112   4.939   0.770 -1.8400  0.4639  1.6695
  837TIP3   OH224145   1.825   4.403   0.906  0.2811 -0.0254 -0.0276
  837TIP3    H124146   1.879   4.467   0.952  0.6037 -0.5077  0.2643
  837TIP3    H224147   1.842   4.420   0.813  1.6825 -0.8082  0.0733
  838TIP3   OH224148   1.676   5.593   6.700 -0.5047 -0.3877 -0.1161
  838TIP3    H124149   1.684   5.544   6.781 -1.9920  0.5798  0.6627
  838TIP3    H224150   1.727   5.673   6.715 -0.7142 -0.2438 -0.1683
  839TIP3   OH224151   6.012   2.696   6.923  0.0017  0.0328 -0.8548
  839TIP3    H124152   6.010   2.752   6.845  0.6647  0.7890 -0.3422
  839TIP3    H224153   6.104   2.676   6.936 -0.2843 -1.9715 -1.5532
  840TIP3   OH224154   6.826   5.047   1.181  0.1482  0.0715 -0.1958
  840TIP3    H124155   6.900   5.081   1.231  1.8921 -1.6986 -1.4109
  840TIP3    H224156   6.754   5.044   1.243  1.1396  1.6204  1.1043
  841TIP3   OH224157   6.379   4.179   6.676 -0.5612 -0.2376  0.2161
  841TIP3    H124158   6.375   4.093   6.636 -1.3850 -0.3838  0.5797
  841TIP3    H224159   6.358   4.164   6.769 -0.5423  0.3240  0.3199
  842TIP3   OH224160   1.621   1.435   6.574 -0.1716  0.6644 -0.3429
  842TIP3    H124161   1.674   1.380   6.631 -0.6243  0.0873 -0.4760
  842TIP3    H224162   1.684   1.479   6.517  0.1506 -0.1437 -0.6149
  843TIP3   OH224163   2.808   2.735   7.882 -0.3987 -0.3255  0.1378
  843TIP3    H124164   2.883   2.711   7.937 -2.0775 -1.5924  2.0415
  843TIP3    H224165   2.823   2.690   7.799  0.1633 -1.8899  1.0528
  844TIP3   OH224166   3.160   2.241   0.481 -0.3214 -0.8144  0.3567
  844TIP3    H124167   3.155   2.180   0.407  0.8047  0.2566 -0.6457
  844TIP3    H224168   3.253   2.244   0.503 -0.2634  0.9446  0.0143
  845TIP3   OH224169   1.061   6.819   8.335  0.1346  0.9526 -0.3406
  845TIP3    H124170   1.076   6.770   8.254 -1.1463  0.4096 -0.2714
  845TIP3    H224171   1.005   6.892   8.309 -1.1683  0.1751  0.2192
  846TIP3   OH224172   1.378   4.668   7.518  0.0058  0.1868 -0.4156
  846TIP3    H124173   1.351   4.646   7.429 -1.8693  0.0089  0.1438
  846TIP3    H224174   1.381   4.583   7.563 -2.2461  0.4878  0.4593
  847TIP3   OH224175   3.903   3.732   6.474  0.4312 -0.1763 -0.4418
  847TIP3    H124176   3.951   3.661   6.518  0.2508  0.0034  0.0472
  847TIP3    H224177   3.936   3.730   6.384  0.9380 -0.4329 -0.2582
  848TIP3   OH224178   5.943   1.636   1.226 -0.7020  0.2729 -0.4807
  848TIP3    H124179   5.926   1.720   1.183  0.1099  1.2853  1.0927
  848TIP3    H224180   5.915   1.570   1.162 -1.0581  1.7243 -1.8755
  849TIP3   OH224181   6.898   5.424   6.279 -0.5369  0.1930 -0.2824
  849TIP3    H124182   6.966   5.387   6.335 -0.6478  1.2643  0.5710
  849TIP3    H224183   6.942   5.442   6.196 -0.2724 -0.9949 -0.4170
  850TIP3   OH224184   3.039   5.245   6.901 -0.4834 -0.1844  0.2752
  850TIP3    H124185   3.125   5.247   6.859 -0.0407  2.5131  1.1118
  850TIP3    H224186   2.976   5.246   6.828  0.0128 -3.9617 -0.4143
  851TIP3   OH224187   0.052   3.750   1.064 -0.3394 -0.4742  0.0338
  851TIP3    H124188   0.113   3.680   1.043 -0.0828  0.0551 -1.0846
  851TIP3    H224189  -0.024   3.733   1.010 -0.5757 -0.2987  0.3071
  852TIP3   OH224190   4.743   5.262   6.858 -0.6011 -0.5967 -0.1051
  852TIP3    H124191   4.785   5.177   6.876 -0.3802 -1.2116 -3.0857
  852TIP3    H224192   4.798   5.302   6.791 -2.7754  0.1963 -1.5139
  853TIP3   OH224193   6.914   1.651   7.494 -0.1752  0.1440  0.2405
  853TIP3    H124194   6.954   1.625   7.411 -1.0903 -0.1613 -0.1179
  853TIP3    H224195   6.889   1.743   7.482 -0.5747  0.0168  0.0580
  854TIP3   OH224196   4.300   0.484   2.204  0.1709  0.0729 -0.4068
  854TIP3    H124197   4.298   0.417   2.272 -1.4408  0.6258  0.1453
  854TIP3    H224198   4.343   0.559   2.245  1.1577 -0.3079 -0.7277
  855TIP3   OH224199   0.152   2.299   2.638 -0.7988  0.3661 -0.3577
  855TIP3    H124200   0.192   2.215   2.615  0.2577  1.0245 -0.9816
  855TIP3    H224201   0.086   2.276   2.704  0.4695 -0.7761  0.5718
  856TIP3   OH224202   3.902   1.108   0.830  0.1749  0.1254 -0.1057
  856TIP3    H124203   3.824   1.086   0.778  0.3947 -0.7693 -0.0731
  856TIP3    H224204   3.970   1.050   0.797  1.9608  3.3933 -2.7960
  857TIP3   OH224205   0.588   1.795   8.453  0.1661  0.7424  0.0806
  857TIP3    H124206   0.503   1.752   8.462  0.9067 -0.9361 -0.4880
  857TIP3    H224207   0.567   1.883   8.423 -1.4133  0.7911  1.2034
  858TIP3   OH224208   0.760   1.411   7.723 -0.2530 -0.2442 -0.0470
  858TIP3    H124209   0.830   1.347   7.735 -0.5937 -0.2843  2.3572
  858TIP3    H224210   0.681   1.357   7.713 -0.4695 -0.2666  1.4792
  859TIP3   OH224211   5.670   2.383   1.869 -0.4719 -0.6948  0.3172
  859TIP3    H124212   5.742   2.443   1.890 -0.2040 -1.4012  1.5651
  859TIP3    H224213   5.591   2.435   1.880 -0.3157 -0.8594  2.7371
  860TIP3   OH224214   2.604   3.258   1.600 -0.1107 -0.2259  0.2705
  860TIP3    H124215   2.622   3.346   1.567  0.3341 -1.3724 -2.9387
  860TIP3    H224216   2.512   3.242   1.578 -0.0416 -0.7243  0.3185
  861TIP3   OH224217   1.072   3.252   6.910 -0.0826  0.7506  0.1156
  861TIP3    H124218   1.003   3.309   6.876 -0.1589  0.5106 -0.1332
  861TIP3    H224219   1.060   3.254   7.005  0.9439  2.4790  0.2606
  862TIP3   OH224220   0.904   6.011   6.737  0.3719 -0.6167  0.4884
  862TIP3    H124221   0.844   5.970   6.675  0.1528 -1.0466  0.9762
  862TIP3    H224222   0.866   6.097   6.755 -0.2074 -0.9674  0.9488
  863TIP3   OH224223   4.449   1.967   0.851  0.5672 -0.2441  1.0891
  863TIP3    H124224   4.354   1.953   0.847  0.4080  0.8798  0.7191
  863TIP3    H224225   4.480   1.945   0.763  0.3905  1.1167  0.6692
  864TIP3   OH224226   4.750   6.584   8.399  0.5449 -0.0316  0.0302
  864TIP3    H124227   4.714   6.668   8.427 -1.1677 -1.2099  1.5147
  864TIP3    H224228   4.676   6.524   8.399  1.6995 -1.5444 -1.1409
  865TIP3   OH224229   1.535   2.413   6.808 -0.4005 -0.3906 -0.1993
  865TIP3    H124230   1.450   2.453   6.828  0.5071  1.4950  0.0699
  865TIP3    H224231   1.513   2.336   6.756 -2.3999 -1.2720  1.7733
  866TIP3   OH224232   1.786   4.506   6.518 -0.6281 -0.5366  0.0332
  866TIP3    H124233   1.777   4.461   6.434 -1.1039 -1.0354  0.3396
  866TIP3    H224234   1.699   4.498   6.559 -0.5265  0.0794  0.3837
  867TIP3   OH224235   1.965   3.603   6.334 -0.4362  0.0923 -0.5286
  867TIP3    H124236   1.919   3.524   6.307 -0.9396 -0.0595  0.7112
  867TIP3    H224237   2.056   3.577   6.342 -0.4468 -0.1149 -1.0529
  868TIP3   OH224238   4.585   3.769   7.103  0.5163  0.1098 -0.1433
  868TIP3    H124239   4.574   3.772   7.008  0.5461  0.6070 -0.1347
  868TIP3    H224240   4.662   3.823   7.121  0.3027  0.3095  0.1929
  869TIP3   OH224241   6.587   2.968   7.045  0.2175  0.0591 -0.0781
  869TIP3    H124242   6.512   3.025   7.061 -0.0388  0.0531 -1.1738
  869TIP3    H224243   6.549   2.882   7.029  0.4842 -0.0436 -0.1720
  870TIP3   OH224244   6.949   5.446   1.514 -0.2730  0.0810  0.3232
  870TIP3    H124245   7.009   5.476   1.582 -2.0886 -0.4416  2.2839
  870TIP3    H224246   6.917   5.526   1.473  0.8942  0.4035  0.0169
  871TIP3   OH224247   3.684   4.848   0.070  0.4776 -0.3347  0.2009
  871TIP3    H124248   3.698   4.767   0.119 -2.0848 -0.1308  1.4374
  871TIP3    H224249   3.608   4.889   0.111  1.2377  2.3916 -0.8298
  872TIP3   OH224250   4.529   1.478   8.456 -0.4180  0.0734  0.1008
  872TIP3    H124251   4.516   1.481   8.551  0.3692 -2.0856  0.3215
  872TIP3    H224252   4.533   1.570   8.430  0.2145  0.7250  2.2824
  873TIP3   OH224253   6.194   2.450   2.080 -0.2932 -0.2491  0.4923
  873TIP3    H124254   6.202   2.504   2.158 -0.1755  0.9789 -0.3421
  873TIP3    H224255   6.117   2.395   2.097  0.6151 -1.0770  2.0736
  874TIP3   OH224256   5.058   3.929   1.699  0.1995 -0.0836 -0.2634
  874TIP3    H124257   5.116   3.864   1.659 -1.1784 -1.0946 -0.6884
  874TIP3    H224258   5.004   3.879   1.760 -0.8813  0.6556 -0.5824
  875TIP3   OH224259   0.128   5.086   0.314 -0.0708 -0.1459  0.0584
  875TIP3    H124260   0.073   5.017   0.277  0.2432 -0.4244  0.1026
  875TIP3    H224261   0.123   5.073   0.408 -0.7365  0.4609  0.1180
  876TIP3   OH224262   1.600   6.221   2.045  0.2893  0.2928 -0.4750
  876TIP3    H124263   1.628   6.255   1.960  1.5248  2.2669  0.6361
  876TIP3    H224264   1.662   6.258   2.108 -0.6953 -0.9321  1.3328
  877TIP3   OH224265   2.873   0.142   0.302  0.4443 -0.3636 -0.1232
  877TIP3    H124266   2.823   0.222   0.282  0.4015  0.0794  1.6424
  877TIP3    H224267   2.963   0.172   0.312  0.2846 -0.3592  1.4692
  878TIP3   OH224268   2.945   0.565   7.148 -0.2064 -0.3490  0.9244
  878TIP3    H124269   2.854   0.557   7.118  0.0071  1.1487 -0.2287
  878TIP3    H224270   2.937   0.590   7.240 -0.9524 -0.3465  0.8654
  879TIP3   OH224271   4.459   1.185   6.514 -0.0760  0.0852  0.0456
  879TIP3    H124272   4.544   1.222   6.538  0.1156 -0.8543  0.8825
  879TIP3    H224273   4.406   1.194   6.593 -0.4981 -0.0695 -0.2174
  880TIP3   OH224274   0.045   0.576   1.933 -0.5308  0.9117 -0.5726
  880TIP3    H124275  -0.012   0.510   1.893 -0.8493  0.8119  0.0369
  880TIP3    H224276   0.126   0.530   1.951 -0.5506  0.8346 -0.6793
  881TIP3   OH224277   3.763   6.322   8.269  0.1127  0.1622  0.3331
  881TIP3    H124278   3.740   6.256   8.204 -1.0192  0.0974  0.7828
  881TIP3    H224279   3.696   6.390   8.260 -0.1626  0.0755  1.5330
  882TIP3   OH224280   5.067   2.608   2.051 -0.0080  0.0531  0.4607
  882TIP3    H124281   4.995   2.666   2.075 -1.3632 -1.1498 -0.4706
  882TIP3    H224282   5.058   2.596   1.956  1.2911 -0.3165  0.3610
  883TIP3   OH224283   2.345   0.577   0.237 -0.9875  0.1304 -0.1826
  883TIP3    H124284   2.289   0.654   0.240 -0.3082  0.6186 -0.0271
  883TIP3    H224285   2.285   0.506   0.212 -2.0470  0.2897  1.7043
  884TIP3   OH224286   5.765   2.201   7.808  0.0345  0.0556  0.1712
  884TIP3    H124287   5.761   2.294   7.834 -1.3207  0.1369 -0.2290
  884TIP3    H224288   5.808   2.158   7.882  2.1453  1.1945 -0.2920
  885TIP3   OH224289   2.016   0.104   7.498  0.5969 -0.2213  0.5008
  885TIP3    H124290   2.067   0.061   7.567  0.4903 -1.6194 -0.2637
  885TIP3    H224291   1.936   0.053   7.490  0.2713  0.3632 -0.1655
  886TIP3   OH224292   2.192   0.090   1.604 -0.3035 -0.2407 -0.9705
  886TIP3    H124293   2.227   0.069   1.690  1.9253  1.8956 -1.2417
  886TIP3    H224294   2.248   0.042   1.543  0.8637  1.4715 -1.3243
  887TIP3   OH224295   1.421   5.482   6.706 -0.2057 -0.1034  0.3390
  887TIP3    H124296   1.506   5.526   6.700  0.4008 -1.2405  0.3575
  887TIP3    H224297   1.371   5.537   6.767 -0.3052  1.8189 -1.3815
  888TIP3   OH224298   4.490   3.652   0.955 -0.0655  0.1932 -0.8596
  888TIP3    H124299   4.431   3.596   0.904 -0.2116 -1.3826  0.9068
  888TIP3    H224300   4.554   3.685   0.892 -1.3804 -0.0819 -2.3689
  889TIP3   OH224301   1.038   3.453   7.876  0.0006  0.1281 -0.4511
  889TIP3    H124302   1.035   3.537   7.832  0.3296  0.0989 -0.5354
  889TIP3    H224303   1.069   3.392   7.809  1.0434  0.1850 -0.0335
  890TIP3   OH224304   1.862   3.437   8.055 -0.9534  0.2344  0.2371
  890TIP3    H124305   1.774   3.475   8.059 -0.7227  0.9983 -1.1589
  890TIP3    H224306   1.850   3.346   8.081 -1.9463  0.6441  1.2665
  891TIP3   OH224307   2.825   4.080   7.796  0.2524  0.4157  0.1334
  891TIP3    H124308   2.896   4.050   7.739 -0.6269 -1.0149 -0.2724
  891TIP3    H224309   2.745   4.052   7.751 -0.4990  0.0572  1.6268
  892TIP3   OH224310   3.803   0.277   7.799  0.3084 -0.1314 -0.2264
  892TIP3    H124311   3.808   0.184   7.779  2.9395  0.0355 -0.6729
  892TIP3    H224312   3.807   0.321   7.714 -1.0123  0.4139 -0.0294
  893TIP3   OH224313   5.021   5.099   7.268  0.0590 -0.1619 -0.5545
  893TIP3    H124314   4.935   5.138   7.282  0.3489  0.1385  0.4770
  893TIP3    H224315   5.014   5.012   7.307  0.4928  0.2146  0.4039
  894TIP3   OH224316   3.181   6.458   0.156 -0.0300 -0.2824 -0.1800
  894TIP3    H124317   3.226   6.382   0.194 -0.5875 -0.2651  0.5216
  894TIP3    H224318   3.113   6.480   0.219 -1.5251 -0.7486 -1.5539
  895TIP3   OH224319   6.588   4.736   6.409  0.1079  0.5209 -0.3463
  895TIP3    H124320   6.622   4.687   6.334  0.4177 -0.9387  0.7099
  895TIP3    H224321   6.664   4.786   6.440  0.7696 -0.9808  0.6107
  896TIP3   OH224322   6.260   5.742   0.691  0.5822  0.4372  0.5716
  896TIP3    H124323   6.198   5.670   0.699 -1.3132  1.8703 -0.2560
  896TIP3    H224324   6.253   5.789   0.774 -1.1140  1.7564 -0.2227
  897TIP3   OH224325   1.781   5.283   1.696 -1.1933 -0.0519  0.0990
  897TIP3    H124326   1.713   5.313   1.637 -0.8434 -0.2472 -0.4084
  897TIP3    H224327   1.789   5.189   1.678 -0.2922  0.1015 -0.3647
  898TIP3   OH224328   6.334   4.380   7.763  0.3940  0.1085 -0.0703
  898TIP3    H124329   6.419   4.337   7.770 -0.3635 -1.2806  1.3987
  898TIP3    H224330   6.306   4.393   7.854 -0.7676  0.9577 -0.5102
  899TIP3   OH224331   6.329   1.336   7.289  0.3358 -0.4311 -0.0180
  899TIP3    H124332   6.343   1.261   7.231 -2.8935  0.1202 -1.7220
  899TIP3    H224333   6.271   1.304   7.357 -2.3199  0.7335 -1.5961
  900TIP3   OH224334   5.832   0.538   8.010 -0.0940  0.0561 -0.1308
  900TIP3    H124335   5.767   0.471   8.029  0.4690 -0.3748  0.3275
  900TIP3    H224336   5.844   0.535   7.916  0.4129 -0.9578 -0.0486
  901TIP3   OH224337   0.078   1.730   6.863  0.3089 -0.0281  0.7216
  901TIP3    H124338   0.091   1.735   6.769  0.0303  0.8680  0.7161
  901TIP3    H224339   0.028   1.650   6.877  1.8783 -1.1318  0.3035
  902TIP3   OH224340   0.758   2.318   8.305  0.1842  0.2615  0.2901
  902TIP3    H124341   0.813   2.240   8.294  1.7833  1.2469  0.8897
  902TIP3    H224342   0.685   2.304   8.245  0.6704 -1.4762  0.0291
  903TIP3   OH224343   6.040   5.116   1.941  0.2460  0.0553 -0.0917
  903TIP3    H124344   6.085   5.184   1.892  1.9610  0.5736  2.0782
  903TIP3    H224345   5.949   5.147   1.948  0.8952  1.9303  0.4773
  904TIP3   OH224346   1.345   4.592   6.686 -0.5536 -0.4160  0.1970
  904TIP3    H124347   1.270   4.581   6.745 -0.4138  0.1198  0.4805
  904TIP3    H224348   1.380   4.678   6.708 -0.7647 -0.0218 -0.9870
  905TIP3   OH224349   5.331   4.348   7.411  0.0520 -0.0711 -0.6026
  905TIP3    H124350   5.329   4.436   7.374 -1.7718  0.2302  0.0668
  905TIP3    H224351   5.420   4.318   7.398  0.8888  2.1097 -0.3250
  906TIP3   OH224352   3.493   1.792   0.489 -0.2500 -0.5722  0.2437
  906TIP3    H124353   3.434   1.845   0.435  0.3863 -0.1666 -0.0666
  906TIP3    H224354   3.502   1.709   0.441  1.4368  0.2961 -1.0612
  907TIP3   OH224355   0.384   2.476   0.071 -0.6118 -0.5770  0.1282
  907TIP3    H124356   0.347   2.534   0.138 -1.3234 -2.2386  1.2310
  907TIP3    H224357   0.447   2.422   0.118  2.6794  1.4887 -1.5171
  908TIP3   OH224358   6.926   4.073   6.598 -0.6081 -0.7316 -0.5252
  908TIP3    H124359   6.836   4.074   6.566 -0.5500  0.3249 -0.7090
  908TIP3    H224360   6.968   4.146   6.553 -0.1415 -0.0852  0.8763
  909TIP3   OH224361   6.803   5.929   0.357 -0.3607 -0.5924  0.4590
  909TIP3    H124362   6.831   6.019   0.341 -0.9223 -0.6424 -1.0120
  909TIP3    H224363   6.707   5.935   0.360 -0.3586 -0.8392  2.5760
  910TIP3   OH224364   4.145   0.822   2.278 -0.9441 -0.4047 -0.2448
  910TIP3    H124365   4.145   0.914   2.305  0.2560 -0.6391  0.6311
  910TIP3    H224366   4.179   0.775   2.354 -0.5943 -1.4653 -1.0392
  911TIP3   OH224367   1.043   6.645   1.274 -0.3400 -0.1373  0.2601
  911TIP3    H124368   0.978   6.697   1.228 -0.2005  0.9379  1.2277
  911TIP3    H224369   1.084   6.707   1.335 -1.4286 -1.7463  2.7796
  912TIP3   OH224370   6.919   0.365   0.103  0.2042  0.0950  0.1377
  912TIP3    H124371   6.839   0.349   0.153  0.1419 -1.5568 -0.4291
  912TIP3    H224372   6.944   0.454   0.126 -1.8162  0.6720  0.2989
  913TIP3   OH224373   3.123   0.044   8.452  0.1724  0.8398 -0.9070
  913TIP3    H124374   3.200   0.012   8.500 -0.2477  0.8904 -0.1797
  913TIP3    H224375   3.157   0.071   8.367  0.7941 -0.0929 -0.9691
  914TIP3   OH224376   2.702   3.927   1.422 -0.0060  0.6863  0.4847
  914TIP3    H124377   2.766   3.962   1.483 -0.0787 -0.1344  1.0521
  914TIP3    H224378   2.729   3.962   1.337  2.4752 -1.2171  0.3393
  915TIP3   OH224379   1.976   6.365   0.252  0.8251  0.1362  0.5206
  915TIP3    H124380   1.884   6.356   0.276  1.1760  0.6309  2.1652
  915TIP3    H224381   1.990   6.296   0.187 -0.9638  0.7557 -0.6172
  916TIP3   OH224382   3.756   2.600   2.217  1.1453  0.2521 -0.1938
  916TIP3    H124383   3.719   2.513   2.232  3.0188 -1.1514 -2.8309
  916TIP3    H224384   3.847   2.592   2.243  1.3972  1.3595 -0.6649
  917TIP3   OH224385   1.001   2.577   7.554 -0.5486 -0.5950  0.0073
  917TIP3    H124386   1.064   2.523   7.504 -0.9299 -0.3227 -0.7766
  917TIP3    H224387   1.055   2.622   7.619 -0.1551 -1.5643  0.3780
  918TIP3   OH224388   5.684   6.612   7.643  0.2546 -0.0865 -0.7388
  918TIP3    H124389   5.640   6.540   7.687  0.9005 -0.1316 -0.1291
  918TIP3    H224390   5.734   6.655   7.713 -0.2936  1.0871 -1.0408
  919TIP3   OH224391   5.626   0.307   8.352 -0.2823  0.2580 -0.4400
  919TIP3    H124392   5.691   0.238   8.362 -0.7596 -0.3722 -1.5059
  919TIP3    H224393   5.636   0.361   8.430  0.5734 -0.6127  0.0724
  920TIP3   OH224394   2.958   1.528   1.033 -0.4644  0.4996 -0.5366
  920TIP3    H124395   2.963   1.433   1.021  0.4738  0.5609 -0.7081
  920TIP3    H224396   2.917   1.559   0.953 -2.3851  0.0935  0.2494
  921TIP3   OH224397   1.777   1.697   6.897  0.3905 -0.5645 -0.2707
  921TIP3    H124398   1.781   1.789   6.925  1.5742  0.7072 -4.0115
  921TIP3    H224399   1.686   1.684   6.870  0.0482 -0.7764  0.9200
  922TIP3   OH224400   5.066   0.799   2.081  0.8095  0.1198  0.2913
  922TIP3    H124401   5.161   0.784   2.085  1.1615  1.9844 -0.0901
  922TIP3    H224402   5.048   0.859   2.154  0.2283  1.1417 -0.6682
  923TIP3   OH224403   4.126   5.146   8.441  0.5839 -0.5312 -0.4199
  923TIP3    H124404   4.196   5.086   8.468 -0.1796 -1.0269  0.5321
  923TIP3    H224405   4.171   5.228   8.420  1.3460 -0.3129  1.7710
  924TIP3   OH224406   6.063   6.324   7.450 -0.7238  0.4518  0.3105
  924TIP3    H124407   5.983   6.363   7.484 -0.9761  0.7936 -0.6617
  924TIP3    H224408   6.133   6.382   7.480 -0.8710  0.3794  0.8053
  925TIP3   OH224409   5.130   1.357   7.822  0.1187  0.0842  0.5640
  925TIP3    H124410   5.108   1.391   7.909 -0.7193 -1.9975  1.2300
  925TIP3    H224411   5.216   1.316   7.833  0.6338  0.9804  0.0370
  926TIP3   OH224412   5.011   5.076   1.962  0.3393  0.7295 -0.5005
  926TIP3    H124413   5.015   5.161   1.919 -1.4648  0.2476 -1.7316
  926TIP3    H224414   5.073   5.021   1.914  0.4249  0.9618 -0.6553
  927TIP3   OH224415   2.685   5.676   7.820 -0.3523  0.1413 -0.0283
  927TIP3    H124416   2.610   5.697   7.764 -0.0220  0.9863 -0.1821
  927TIP3    H224417   2.742   5.753   7.812  1.8616 -1.5406 -2.1295
  928TIP3   OH224418   3.674   6.853   7.182 -0.1874 -0.5425 -0.3358
  928TIP3    H124419   3.734   6.887   7.248  0.3817 -1.9487 -0.1006
  928TIP3    H224420   3.593   6.903   7.196  0.8257  1.2020 -0.5081
  929TIP3   OH224421   1.795   2.439   6.766 -0.3301 -0.0706  0.2933
  929TIP3    H124422   1.705   2.468   6.780 -1.5102 -1.3509 -3.4350
  929TIP3    H224423   1.790   2.343   6.770  0.3194 -0.2613 -2.1941
  930TIP3   OH224424   4.908   0.629   7.071  0.6304  0.6499 -0.1162
  930TIP3    H124425   4.839   0.644   7.136  2.1145 -0.3071  1.8216
  930TIP3    H224426   4.864   0.586   6.998 -1.0984  1.6339  0.2960
  931TIP3   OH224427   4.666   6.452   2.444 -0.6770 -0.3411  0.2211
  931TIP3    H124428   4.721   6.522   2.480 -0.3646 -0.2928 -0.3450
  931TIP3    H224429   4.707   6.430   2.360  0.0538 -2.1554  0.9985
  932TIP3   OH224430   3.482   5.027   0.452 -0.1775  0.1686 -0.0580
  932TIP3    H124431   3.549   5.088   0.422  1.8082 -1.4517  0.7933
  932TIP3    H224432   3.502   5.014   0.545 -1.0598 -1.1047 -0.0249
  933TIP3   OH224433   6.353   5.827   8.348 -0.3029 -0.3501 -0.0659
  933TIP3    H124434   6.374   5.740   8.313  0.5490 -0.6160  1.0575
  933TIP3    H224435   6.358   5.885   8.272 -0.2551 -1.1828 -0.7142
  934TIP3   OH224436   0.407   5.554   1.161 -0.2957  0.5406  0.2339
  934TIP3    H124437   0.359   5.636   1.163  0.5470  1.0362  0.9093
  934TIP3    H224438   0.386   5.510   1.243  2.1583  1.8428  1.6695
  935TIP3   OH224439   2.331   1.030   8.122  0.1684 -0.4977  0.2590
  935TIP3    H124440   2.350   0.942   8.153  2.9381  0.3368  1.1890
  935TIP3    H224441   2.285   1.072   8.195 -0.7343 -0.9874 -0.0096
  936TIP3   OH224442   3.591   1.617   6.367 -0.0032 -0.6863 -0.1520
  936TIP3    H124443   3.634   1.606   6.452  0.5545 -1.2507 -0.4955
  936TIP3    H224444   3.661   1.604   6.303 -0.2480  0.5503 -0.6978
  937TIP3   OH224445   6.498   3.913   1.878 -0.0748  0.3605  0.5515
  937TIP3    H124446   6.444   3.895   1.955  0.5166  0.2731  0.9532
  937TIP3    H224447   6.587   3.900   1.908  0.2563  1.7078  0.2306
  938TIP3   OH224448   3.154   1.963   1.687 -0.3405  0.5161 -0.2645
  938TIP3    H124449   3.243   1.984   1.661 -0.2352  0.3067 -0.0750
  938TIP3    H224450   3.106   2.046   1.676  0.6129  1.6176  2.8476
  939TIP3   OH224451   0.960   2.418   8.058  0.3085  0.1898 -0.7040
  939TIP3    H124452   0.959   2.323   8.074  0.7964  0.4175  0.8555
  939TIP3    H224453   1.013   2.453   8.129 -2.4055  1.9503  0.5873
  940TIP3   OH224454   5.512   1.547   1.673  0.3514  0.0097 -1.0320
  940TIP3    H124455   5.576   1.536   1.744 -0.0986  0.3768 -0.5640
  940TIP3    H224456   5.467   1.629   1.693 -0.8331 -0.6519 -0.8983
  941TIP3   OH224457   0.459   5.814   7.958 -0.0483 -0.6095 -0.0643
  941TIP3    H124458   0.429   5.741   8.011  0.5213  0.1792  1.4136
  941TIP3    H224459   0.380   5.866   7.940 -0.3511 -1.2386 -0.6044
  942TIP3   OH224460   0.720   3.757   7.073 -0.4482 -0.1743  0.3860
  942TIP3    H124461   0.798   3.784   7.121 -1.3981  1.0318  1.3587
  942TIP3    H224462   0.696   3.835   7.022 -0.0007 -1.1295 -1.3453
  943TIP3   OH224463   5.415   4.128   0.867 -0.1683  0.0958  0.5204
  943TIP3    H124464   5.332   4.172   0.848  0.1786  0.3033 -0.5949
  943TIP3    H224465   5.479   4.172   0.811  0.6422 -0.2491  1.1591
  944TIP3   OH224466   2.888   5.663   0.883  0.7357  0.6713  0.8146
  944TIP3    H124467   2.879   5.604   0.808 -2.0372  2.0762 -0.1101
  944TIP3    H224468   2.886   5.606   0.959  1.8851 -0.6713 -0.1070
  945TIP3   OH224469   4.298   3.017   7.093  0.4116  0.2833  0.4544
  945TIP3    H124470   4.338   2.994   7.177  0.4201 -0.9557  0.1323
  945TIP3    H224471   4.219   2.962   7.088 -0.3858  1.4182  0.2982
  946TIP3   OH224472   6.330   0.241   1.326  0.3570 -0.6549  0.2214
  946TIP3    H124473   6.361   0.327   1.297 -1.1862  0.2083  0.9911
  946TIP3    H224474   6.299   0.199   1.246 -0.0796  0.0589 -0.0013
  947TIP3   OH224475   6.932   6.826   1.637  0.3387 -0.5316  0.4386
  947TIP3    H124476   6.913   6.786   1.722  0.1523  2.0755  1.7115
  947TIP3    H224477   6.881   6.907   1.636 -0.7133 -1.0585 -2.7651
  948TIP3   OH224478   0.249   0.533   7.852  0.0281 -0.4958 -0.4286
  948TIP3    H124479   0.266   0.529   7.757 -1.1410  0.1383 -0.6849
  948TIP3    H224480   0.193   0.457   7.869  1.0892 -1.2253 -0.0199
  949TIP3   OH224481   3.619   5.925   8.316  0.0970 -0.2812  0.5375
  949TIP3    H124482   3.563   5.864   8.268 -0.4544  1.9953 -1.9543
  949TIP3    H224483   3.558   5.975   8.370  0.1186  0.1274  0.1885
  950TIP3   OH224484   6.827   4.287   2.763  0.0666  0.0762 -0.2206
  950TIP3    H124485   6.735   4.275   2.788  0.0861 -0.7377 -0.5178
  950TIP3    H224486   6.838   4.382   2.760 -0.4020  0.1955  1.1169
  951TIP3   OH224487   5.196   1.674   0.041  0.2137  0.1741  0.0536
  951TIP3    H124488   5.148   1.697  -0.039 -2.4875 -2.7829  0.6130
  951TIP3    H224489   5.274   1.628   0.010  0.7975  1.6753 -0.8378
  952TIP3   OH224490   1.275   3.470   0.659 -0.0793 -0.2703  0.1763
  952TIP3    H124491   1.196   3.520   0.679  0.4523  0.3060  0.9214
  952TIP3    H224492   1.335   3.535   0.622 -0.3150 -0.9151 -1.3950
  953TIP3   OH224493   1.268   0.252   6.668 -0.4433  0.7187  0.4957
  953TIP3    H124494   1.191   0.202   6.641 -0.5847  1.2606 -0.1051
  953TIP3    H224495   1.295   0.210   6.750 -1.5085  0.6568  0.8427
  954TIP3   OH224496   3.985   6.504   8.203  0.9177 -0.8381 -0.0038
  954TIP3    H124497   4.059   6.445   8.218  1.1962 -0.2708  0.8857
  954TIP3    H224498   3.920   6.478   8.268 -0.2392 -2.2108 -1.6196
  955TIP3   OH224499   1.187   2.042   0.336  0.1676  0.3109  0.2952
  955TIP3    H124500   1.231   2.100   0.273 -0.0060  0.1371  0.0155
  955TIP3    H224501   1.259   1.999   0.382  0.3074 -0.8453 -0.9594
  956TIP3   OH224502   0.305   4.738   2.445  0.0081  0.2251  0.4042
  956TIP3    H124503   0.394   4.719   2.416  1.0877 -0.1011  3.5082
  956TIP3    H224504   0.250   4.674   2.400  1.5391 -0.4980 -0.5030
  957TIP3   OH224505   4.355   3.239   0.576  0.1461  0.0719  0.4963
  957TIP3    H124506   4.377   3.244   0.483  3.2825  1.3329  1.1730
  957TIP3    H224507   4.364   3.146   0.597 -0.1085 -0.1557 -0.3545
  958TIP3   OH224508   0.893   2.791   1.055 -0.2114 -0.3311 -0.0203
  958TIP3    H124509   0.845   2.873   1.045  0.9958  0.4793  0.5540
  958TIP3    H224510   0.977   2.808   1.012  0.7760 -0.5924  1.7377
  959TIP3   OH224511   3.953   3.933   1.289  0.0541 -0.4631  0.4445
  959TIP3    H124512   4.032   3.967   1.332  2.3926 -1.6767 -2.5314
  959TIP3    H224513   3.898   4.010   1.274  1.0861  0.5724  1.7157
  960TIP3   OH224514   3.209   5.099   0.451  0.1952 -0.7041  0.1618
  960TIP3    H124515   3.215   5.130   0.360  0.2177  2.9149  1.2711
  960TIP3    H224516   3.297   5.065   0.469  0.4038 -0.8074 -0.9222
  961TIP3   OH224517   5.727   3.967   0.179  0.3649 -0.1094  0.1022
  961TIP3    H124518   5.801   3.907   0.173 -0.3285 -1.1188  1.3018
  961TIP3    H224519   5.652   3.914   0.152 -0.0994  0.5364  0.1175
  962TIP3   OH224520   3.010   5.911   8.157 -0.3188 -0.1216 -0.2472
  962TIP3    H124521   2.969   5.948   8.079  2.0296  0.4908 -1.2688
  962TIP3    H224522   3.032   5.987   8.211  0.8242 -0.2991 -0.4402
  963TIP3   OH224523   5.431   3.364   7.189 -0.4579 -0.8274 -0.1145
  963TIP3    H124524   5.336   3.363   7.200 -0.5774 -1.0922 -1.1248
  963TIP3    H224525   5.445   3.402   7.102  0.4811  1.6190  0.9967
  964TIP3   OH224526   4.697   6.180   6.291 -0.0321 -0.8543 -0.9641
  964TIP3    H124527   4.688   6.181   6.196  1.2348 -3.3996 -1.1805
  964TIP3    H224528   4.609   6.165   6.324 -0.3605 -0.7112 -1.7649
  965TIP3   OH224529   2.062   0.483   7.957 -0.0490 -0.6911  0.7666
  965TIP3    H124530   2.018   0.408   7.917  0.1538 -0.7174  0.5865
  965TIP3    H224531   1.993   0.550   7.965 -0.0932 -0.6780  0.3491
  966TIP3   OH224532   5.909   1.184   7.363  0.2597 -0.1952 -0.5273
  966TIP3    H124533   5.999   1.185   7.397 -0.1398 -1.4585  0.6285
  966TIP3    H224534   5.870   1.264   7.397  0.5504 -0.3047  0.0735
  967TIP3   OH224535   6.932   5.696   7.605  0.4195 -0.8298 -0.8940
  967TIP3    H124536   6.956   5.610   7.640  0.7436 -0.0492  0.9198
  967TIP3    H224537   6.889   5.741   7.678  0.7828  0.7707 -1.6144
  968TIP3   OH224538   0.969   4.400   7.199  0.1094 -0.6576  0.1412
  968TIP3    H124539   0.882   4.406   7.239  0.1160  0.0413  0.0592
  968TIP3    H224540   0.993   4.308   7.209 -0.6088 -0.8444  0.2262
  969TIP3   OH224541   0.839   1.170   1.414 -0.1142  0.7243  0.2310
  969TIP3    H124542   0.821   1.147   1.323  0.0777 -1.2197  0.6494
  969TIP3    H224543   0.923   1.130   1.433 -0.3603  0.7369  1.4017
  970TIP3   OH224544   4.902   6.722   0.203  0.1668 -0.0002  0.0740
  970TIP3    H124545   4.941   6.635   0.205  1.1820  0.4347 -0.1953
  970TIP3    H224546   4.943   6.768   0.277  0.2649  0.4983 -0.2844
  971TIP3   OH224547   0.210   3.321   2.705 -0.0035  0.1015 -0.1346
  971TIP3    H124548   0.165   3.252   2.656  0.7030  0.6230 -1.5728
  971TIP3    H224549   0.149   3.344   2.775 -1.1355 -0.5349 -0.8784
  972TIP3   OH224550   1.613   6.556   2.111  0.7602  0.7639 -0.4169
  972TIP3    H124551   1.558   6.631   2.134  0.5465  0.5840 -0.3396
  972TIP3    H224552   1.615   6.502   2.190 -1.6051 -0.8713 -1.3539
  973TIP3   OH224553   5.174   6.657   7.130  0.5102  0.2051  0.1115
  973TIP3    H124554   5.159   6.563   7.134  2.1955 -0.1999 -1.7793
  973TIP3    H224555   5.115   6.689   7.062  0.3947  0.4145  0.3079
  974TIP3   OH224556   3.483   2.495   0.615 -0.5372 -0.2828 -0.4738
  974TIP3    H124557   3.569   2.527   0.642 -1.1470  2.8417 -1.8125
  974TIP3    H224558   3.433   2.489   0.697 -0.3241  2.3732 -0.0583
  975TIP3   OH224559   5.094   1.245   0.441  0.0052 -0.0360 -0.1634
  975TIP3    H124560   5.065   1.254   0.532  0.5262 -1.8712  0.2171
  975TIP3    H224561   5.134   1.330   0.421  0.0841  0.3344  1.3801
  976TIP3   OH224562   6.039   2.274   1.376 -0.0838 -0.5500  0.2822
  976TIP3    H124563   5.999   2.202   1.425 -0.2087 -1.2111 -0.7466
  976TIP3    H224564   6.010   2.260   1.285  0.3785  0.4555 -0.0363
  977TIP3   OH224565   1.411   6.664   7.018  0.0105 -0.3810  0.4271
  977TIP3    H124566   1.440   6.721   6.947 -0.7364  0.8831  1.1131
  977TIP3    H224567   1.337   6.615   6.981 -2.4568  2.5220  1.1775
  978TIP3   OH224568   3.185   1.456   7.662 -0.0801  0.8716  0.3566
  978TIP3    H124569   3.189   1.547   7.634 -1.3439  0.8240 -0.0334
  978TIP3    H224570   3.272   1.421   7.643  0.2921  1.8873  0.1399
  979TIP3   OH224571   6.933   4.447   7.842 -0.1053  0.1326 -0.6268
  979TIP3    H124572   6.961   4.364   7.803 -0.6038 -0.3170 -0.0552
  979TIP3    H224573   7.015   4.494   7.858  0.3318 -0.9795  0.6326
  980TIP3   OH224574   5.918   5.620   0.745  0.1797  0.6666  0.2622
  980TIP3    H124575   6.010   5.598   0.762 -0.2818 -2.4230 -0.5867
  980TIP3    H224576   5.883   5.542   0.701 -2.3013  2.6136 -1.4943
  981TIP3   OH224577   1.868   2.125   7.051 -0.8120 -0.0114  0.0986
  981TIP3    H124578   1.850   2.213   7.016 -0.4776  0.0989  0.1913
  981TIP3    H224579   1.782   2.088   7.070 -0.9498  1.5457  3.1597
  982TIP3   OH224580   6.820   4.583   8.190  0.6572 -0.6551  0.6753
  982TIP3    H124581   6.810   4.600   8.096  0.3793 -0.3319  0.7579
  982TIP3    H224582   6.911   4.557   8.201  1.0492  0.6151  0.5093
  983TIP3   OH224583   1.667   6.270   1.790  0.5695  0.5464  0.2187
  983TIP3    H124584   1.691   6.356   1.825 -2.4856  1.0626  1.3311
  983TIP3    H224585   1.703   6.269   1.702  1.0700  2.7763  0.3448
  984TIP3   OH224586   0.799   6.269   6.746 -0.0667  0.2501  0.1629
  984TIP3    H124587   0.783   6.359   6.773 -0.4649  0.4026 -0.5731
  984TIP3    H224588   0.890   6.268   6.718 -0.4613  0.7783 -1.2001
  985TIP3   OH224589   5.985   3.009   1.218  0.5295 -0.6308  0.2343
  985TIP3    H124590   5.912   2.971   1.267 -1.0902 -1.0388 -2.3147
  985TIP3    H224591   6.001   3.094   1.260 -0.8687 -0.8787  1.3367
  986TIP3   OH224592   1.704   0.906   0.824  0.4034  0.0201 -0.1857
  986TIP3    H124593   1.615   0.876   0.807  0.7411 -0.3327 -1.4660
  986TIP3    H224594   1.719   0.975   0.759  0.3798  1.5032  1.3318
  987TIP3   OH224595   6.269   1.679   7.954  0.2299  0.2035  0.1724
  987TIP3    H124596   6.246   1.737   8.027 -0.6056  1.5638 -1.1148
  987TIP3    H224597   6.339   1.725   7.908  0.2749 -0.3021 -0.2727
  988TIP3   OH224598   4.654   0.925   6.524  0.2942  0.3462  0.0313
  988TIP3    H124599   4.579   0.981   6.504  2.0182  2.4821 -0.8013
  988TIP3    H224600   4.680   0.888   6.440  0.9890  0.7049  0.0848
  989TIP3   OH224601   2.087   3.704   1.351 -0.2261 -0.1531 -0.3402
  989TIP3    H124602   2.120   3.624   1.311 -0.2016  0.4739 -1.6217
  989TIP3    H224603   2.127   3.705   1.438  2.5014  0.1133 -1.4751
  990TIP3   OH224604   0.499   4.068   7.967  0.2175 -0.2242 -0.3663
  990TIP3    H124605   0.426   4.121   7.998  0.2996  0.7791 -1.8211
  990TIP3    H224606   0.555   4.129   7.919  1.5849 -1.1480 -0.0146
  991TIP3   OH224607   5.671   6.811   1.850  0.6948 -0.0283 -0.4055
  991TIP3    H124608   5.648   6.863   1.773  1.2352 -0.0905 -0.6060
  991TIP3    H224609   5.766   6.813   1.854  0.6542  2.0594  1.6808
  992TIP3   OH224610   4.015   4.490   2.442  0.1287  0.9236 -0.0109
  992TIP3    H124611   3.964   4.468   2.520  1.7954  0.5998  1.0506
  992TIP3    H224612   3.968   4.562   2.401 -1.0602  0.7581  1.0186
  993TIP3   OH224613   5.656   4.368   0.919 -0.1537 -0.3565  0.4370
  993TIP3    H124614   5.676   4.444   0.865  0.1821  0.1918  1.3145
  993TIP3    H224615   5.629   4.300   0.857  0.3356  0.2249 -0.4185
  994TIP3   OH224616   5.541   3.453   7.650  0.7563  0.3712 -0.0925
  994TIP3    H124617   5.554   3.416   7.563 -1.0014 -1.1690  0.2366
  994TIP3    H224618   5.457   3.418   7.679  1.6741  0.1585  2.5743
  995TIP3   OH224619   5.663   4.155   0.746 -0.1043 -0.0208 -0.4210
  995TIP3    H124620   5.748   4.115   0.765 -0.0748  0.0293 -0.4459
  995TIP3    H224621   5.631   4.108   0.669  0.1790  0.3726 -0.7785
  996TIP3   OH224622   3.717   0.164   7.404 -0.6950 -0.0162 -0.2121
  996TIP3    H124623   3.764   0.089   7.439 -1.5434 -0.5575 -0.1879
  996TIP3    H224624   3.647   0.126   7.351 -1.0059  0.7604 -0.3800
  997TIP3   OH224625   1.452   5.528   0.505 -0.4267  0.2803 -0.6565
  997TIP3    H124626   1.537   5.565   0.530 -1.0980 -0.1304  2.8397
  997TIP3    H224627   1.471   5.439   0.477  0.2767 -0.0661  0.8304
  998TIP3   OH224628   4.762   2.437   7.575  0.0444 -0.0929 -0.2716
  998TIP3    H124629   4.688   2.457   7.633  0.4415  0.8178 -0.0569
  998TIP3    H224630   4.745   2.347   7.545 -1.4967  0.3365 -0.7776
  999TIP3   OH224631   4.571   4.796   0.481  0.1577 -0.1381  1.0097
  999TIP3    H124632   4.553   4.714   0.435  0.8897 -0.6442  1.6004
  999TIP3    H224633   4.665   4.793   0.499  0.5154  1.5502 -0.3348
 1000TIP3   OH224634   6.549   2.067   7.438 -0.4282 -0.5595 -0.3216
 1000TIP3    H124635   6.486   1.999   7.413 -0.6636  0.5338 -3.0509
 1000TIP3    H224636   6.630   2.019   7.455 -0.5865 -1.5695 -2.1528
 1001TIP3   OH224637   4.242   1.671   0.855 -0.1307  0.3896 -0.2545
 1001TIP3    H124638   4.327   1.667   0.898 -1.0818 -1.7191  1.6143
 1001TIP3    H224639   4.179   1.681   0.927 -1.4897  2.3519 -1.6118
 1002TIP3   OH224640   4.380   1.478   7.804  0.1677  0.0160  0.2594
 1002TIP3    H124641   4.294   1.514   7.824  1.1764  2.3510  0.7750
 1002TIP3    H224642   4.379   1.466   7.709 -0.8788 -0.5160  0.3186
 1003TIP3   OH224643   0.419   0.852   1.871 -0.0881  0.5979 -0.6023
 1003TIP3    H124644   0.336   0.892   1.898 -0.5848 -1.8801  1.9978
 1003TIP3    H224645   0.475   0.857   1.948  1.0565 -0.5730 -1.3176
 1004TIP3   OH224646   5.367   3.873   1.645 -0.1738 -0.0470  0.6419
 1004TIP3    H124647   5.296   3.810   1.629 -1.6035  1.1956  1.8420
 1004TIP3    H224648   5.429   3.856   1.574 -2.0960 -0.5786 -1.0236
 1005TIP3   OH224649   0.972   6.025   1.703  0.1011  0.4949  0.1744
 1005TIP3    H124650   1.043   6.019   1.639  0.0991 -0.7939  0.2613
 1005TIP3    H224651   1.014   6.002   1.786 -0.4914 -0.7385  0.1557
 1006TIP3   OH224652   1.105   4.671   6.453  0.0779  0.0671 -0.3522
 1006TIP3    H124653   1.031   4.666   6.514  0.0997  0.2139 -0.3118
 1006TIP3    H224654   1.079   4.618   6.378 -0.6678  1.2662 -0.9611
 1007TIP3   OH224655   0.699   5.651   1.064  0.1144  0.2441 -0.4842
 1007TIP3    H124656   0.609   5.636   1.091  0.2392 -1.7483 -0.9887
 1007TIP3    H224657   0.738   5.564   1.061  1.5937  0.8918 -1.8510
 1008TIP3   OH224658   1.952   6.507   7.853  0.2004  0.1632  0.3367
 1008TIP3    H124659   1.857   6.512   7.864 -0.0732 -0.2844 -1.5314
 1008TIP3    H224660   1.987   6.532   7.939 -1.5285  3.3231  0.2943
 1009TIP3   OH224661   6.079   4.841   0.725  0.5097  0.5598  0.4153
 1009TIP3    H124662   6.165   4.801   0.714 -0.9611 -2.5464 -1.1057
 1009TIP3    H224663   6.045   4.803   0.806 -0.4112 -0.3758 -0.3741
 1010TIP3   OH224664   1.620   0.383   1.688  0.0092  0.0326 -0.4207
 1010TIP3    H124665   1.605   0.388   1.594  2.1330 -2.7476 -1.0349
 1010TIP3    H224666   1.713   0.403   1.698 -0.0055 -0.4886  0.9875
 1011TIP3   OH224667   0.587   4.525   8.406 -0.2676  0.5422  0.2240
 1011TIP3    H124668   0.538   4.517   8.488  1.8779 -1.0929  1.4329
 1011TIP3    H224669   0.584   4.437   8.367 -2.2286  1.5291 -2.1436
 1012TIP3   OH224670   1.105   1.267   0.489 -0.3929  0.0645  0.1830
 1012TIP3    H124671   1.165   1.231   0.554  0.2824  0.8201 -0.0121
 1012TIP3    H224672   1.145   1.350   0.463 -1.1842  0.2571 -0.4394
 1013TIP3   OH224673   1.621   5.474   8.268  0.1533  0.0713 -0.1858
 1013TIP3    H124674   1.707   5.504   8.296 -0.2566  0.9277  0.1915
 1013TIP3    H224675   1.599   5.403   8.328  0.3705  0.2035  0.0475
 1014TIP3   OH224676   5.169   4.894   1.861 -0.6141  0.4420 -0.2486
 1014TIP3    H124677   5.242   4.947   1.894  0.1658 -0.3171 -0.7383
 1014TIP3    H224678   5.202   4.853   1.782 -1.8258  0.6667 -0.8918
 1015TIP3   OH224679   3.037   1.769   2.148  0.0323  0.7108 -0.3524
 1015TIP3    H124680   3.038   1.730   2.061 -0.4924 -0.0863 -0.0057
 1015TIP3    H224681   3.030   1.863   2.131 -0.1663  0.5592 -1.1640
 1016TIP3   OH224682   2.502   6.373   0.060  0.0294 -0.0256 -0.3616
 1016TIP3    H124683   2.592   6.381   0.090 -0.6095 -2.1144  2.5390
 1016TIP3    H224684   2.470   6.463   0.057  1.7537  0.6386  0.0884
 1017TIP3   OH224685   5.946   5.929   1.976 -0.5387  0.3150 -0.3382
 1017TIP3    H124686   5.994   5.996   1.927  0.7709  1.5069  2.3707
 1017TIP3    H224687   6.014   5.879   2.021 -1.7129  1.0438  2.3946
 1018TIP3   OH224688   4.470   0.753   7.713 -0.3291 -0.9089 -0.0124
 1018TIP3    H124689   4.376   0.760   7.700 -0.0893 -0.1761 -1.6827
 1018TIP3    H224690   4.496   0.840   7.743 -0.1805 -1.1253  0.4985
 1019TIP3   OH224691   6.348   0.144   7.889  0.0052 -0.2082 -0.4463
 1019TIP3    H124692   6.405   0.071   7.866 -0.0431 -0.1176 -0.8670
 1019TIP3    H224693   6.406   0.209   7.929  0.4379  0.3949 -1.9655
 1020TIP3   OH224694   1.980   3.685   0.221  0.0783 -0.3913 -0.1514
 1020TIP3    H124695   2.063   3.732   0.232 -0.7097  1.3971 -1.4135
 1020TIP3    H224696   1.962   3.648   0.307  0.3098  2.4342  1.2256
 1021TIP3   OH224697   2.546   6.636   7.474 -0.5865  0.0289  0.5851
 1021TIP3    H124698   2.520   6.610   7.562 -0.4110 -0.0920  0.5990
 1021TIP3    H224699   2.464   6.637   7.425 -0.3665 -2.5839  0.0363
 1022TIP3   OH224700   6.319   0.578   1.182 -0.2901  0.0794  0.2803
 1022TIP3    H124701   6.371   0.537   1.114  0.4347 -0.0529  0.9032
 1022TIP3    H224702   6.376   0.646   1.218  0.1565 -1.2311  2.1729
 1023TIP3   OH224703   3.486   4.610   6.594 -0.4981  0.6714  0.1731
 1023TIP3    H124704   3.391   4.616   6.587 -0.4972 -0.4633 -1.2699
 1023TIP3    H224705   3.504   4.516   6.596  0.4854  0.7973  3.1267
 1024TIP3   OH224706   0.486   0.282   1.588  0.4345  0.8442  0.0471
 1024TIP3    H124707   0.475   0.259   1.495  0.6797 -1.0269  0.4359
 1024TIP3    H224708   0.516   0.373   1.587 -2.3093  1.8666 -1.5662
 1025TIP3   OH224709   5.616   1.194   7.212  0.2130  0.2970 -0.3451
 1025TIP3    H124710   5.698   1.236   7.240  0.0126  0.7629 -0.4513
 1025TIP3    H224711   5.550   1.263   7.220 -0.6755 -0.7161  2.1694
 1026TIP3   OH224712   3.897   3.485   1.442 -0.0084 -0.3495  0.4146
 1026TIP3    H124713   3.963   3.462   1.506 -1.3735 -0.2881  1.9149
 1026TIP3    H224714   3.875   3.576   1.461  0.6183  0.1515 -1.1350
 1027TIP3   OH224715   4.738   6.917   0.115 -0.3757  0.7925 -0.4688
 1027TIP3    H124716   4.689   6.869   0.048  1.0314 -0.1656 -0.8549
 1027TIP3    H224717   4.794   6.852   0.156  1.2813  2.0009 -0.7010
 1028TIP3   OH224718   5.463   6.618   7.159 -0.2257  0.2533  0.3337
 1028TIP3    H124719   5.390   6.557   7.160 -0.6079  0.6388 -1.2414
 1028TIP3    H224720   5.462   6.659   7.246 -1.5475 -0.1261  0.5145
 1029TIP3   OH224721   6.042   4.367   0.973  0.3024 -0.4662 -0.0664
 1029TIP3    H124722   5.991   4.299   1.017 -1.1774  0.0216 -0.9808
 1029TIP3    H224723   6.017   4.361   0.881  1.1093  0.4871 -0.3687
 1030TIP3   OH224724   3.573   6.794   1.080  0.0163  0.2972 -0.2747
 1030TIP3    H124725   3.500   6.810   1.020 -1.8121 -1.3786  1.3376
 1030TIP3    H224726   3.613   6.713   1.049  2.0992  1.8340 -1.8815
 1031TIP3   OH224727   3.602   1.040   8.158  0.5249  0.6168  0.5380
 1031TIP3    H124728   3.646   1.114   8.199  1.0215  0.7000 -0.1380
 1031TIP3    H224729   3.526   1.078   8.115 -1.1473  0.2915  2.9547
 1032TIP3   OH224730   0.488   4.061   7.558 -0.2150 -0.2226 -0.0881
 1032TIP3    H124731   0.462   4.037   7.647 -0.5184  0.9892  0.1570
 1032TIP3    H224732   0.409   4.049   7.506 -0.2201 -0.2803 -0.0672
 1033TIP3   OH224733   6.670   0.886   7.916 -0.1329 -0.3018  0.9337
 1033TIP3    H124734   6.704   0.835   7.842  2.2046  0.3117  1.5060
 1033TIP3    H224735   6.579   0.904   7.893  0.4244 -0.3997 -1.6394
 1034TIP3   OH224736   1.648   1.859   1.371  0.3764  0.0871 -0.4591
 1034TIP3    H124737   1.577   1.870   1.434  0.7580  0.6380 -0.1202
 1034TIP3    H224738   1.609   1.809   1.299 -0.2713  0.1376 -0.1455
 1035TIP3   OH224739   1.339   2.626   1.594  0.2865 -0.0658  0.3895
 1035TIP3    H124740   1.358   2.585   1.678  1.2655  0.3995  0.4092
 1035TIP3    H224741   1.286   2.702   1.615  1.3052  0.5780  0.6918
 1036TIP3   OH224742   6.865   4.701   7.647  0.1875  0.1122 -0.6643
 1036TIP3    H124743   6.949   4.667   7.676 -0.7291 -2.5861 -0.7971
 1036TIP3    H224744   6.815   4.714   7.727 -0.3509 -1.6231 -0.6637
 1037TIP3   OH224745   3.768   5.571   7.869 -0.3885 -0.9490  0.0080
 1037TIP3    H124746   3.740   5.480   7.870 -0.5259 -0.9139 -0.5844
 1037TIP3    H224747   3.842   5.574   7.930  1.0663 -1.9119 -1.6173
 1038TIP3   OH224748   2.227   3.070   7.912  0.2248  0.2462 -0.3568
 1038TIP3    H124749   2.292   3.042   7.977 -2.1284  0.0151  2.0716
 1038TIP3    H224750   2.254   3.159   7.888  3.0417 -0.8710 -1.7297
 1039TIP3   OH224751   4.781   5.575   7.190  0.2158 -0.8544 -0.1500
 1039TIP3    H124752   4.853   5.541   7.137 -0.0845  0.3615 -1.3729
 1039TIP3    H224753   4.705   5.524   7.163  0.0403 -0.1596 -0.9872
 1040TIP3   OH224754   3.715   4.363   0.412 -0.0741 -0.4130  0.2781
 1040TIP3    H124755   3.780   4.416   0.458  0.6242 -2.8798  2.3617
 1040TIP3    H224756   3.766   4.298   0.364 -0.9460 -0.2298 -0.9394
 1041TIP3   OH224757   3.125   2.376   2.389 -0.4446 -0.4057  0.5211
 1041TIP3    H124758   3.080   2.296   2.416 -0.9251 -0.2995  0.0574
 1041TIP3    H224759   3.092   2.443   2.448 -1.8038 -0.0894 -0.5345
 1042TIP3   OH224760   0.337   5.066   2.530  0.1968  0.1272  0.4935
 1042TIP3    H124761   0.396   5.037   2.600 -2.8358  0.3535  3.4002
 1042TIP3    H224762   0.268   5.000   2.529 -0.5788  0.9187 -1.3717
 1043TIP3   OH224763   4.934   3.953   8.292  0.2021  0.5017 -0.3988
 1043TIP3    H124764   4.918   3.859   8.277  2.1911  0.1540 -0.7411
 1043TIP3    H224765   4.928   3.992   8.205  0.6108  0.4635 -0.4461
 1044TIP3   OH224766   5.588   0.494   0.963 -0.0051  0.3381  0.2585
 1044TIP3    H124767   5.497   0.516   0.943  0.0002  1.5132  1.4001
 1044TIP3    H224768   5.639   0.568   0.929  0.5204 -0.2319 -0.2198
 1045TIP3   OH224769   6.451   0.432   8.417 -0.3336  0.5446 -0.3166
 1045TIP3    H124770   6.454   0.338   8.434 -2.5418  0.4912  0.0558
 1045TIP3    H224771   6.460   0.472   8.503  2.5048  0.8230 -0.6384
 1046TIP3   OH224772   5.246   3.004   2.072 -0.8191  0.0004  0.0017
 1046TIP3    H124773   5.194   2.951   2.133  0.0713  0.8390  1.5540
 1046TIP3    H224774   5.314   3.043   2.127 -0.5428  1.5421 -1.3774
 1047TIP3   OH224775   3.627   6.930   1.307  0.0821 -0.7704  0.3781
 1047TIP3    H124776   3.580   6.891   1.233 -0.3475 -0.1116  0.2996
 1047TIP3    H224777   3.658   7.014   1.274  0.7886 -0.9211  0.6301
 1048TIP3   OH224778   1.846   0.004   6.671 -0.1753  0.0141  0.1542
 1048TIP3    H124779   1.778   0.048   6.722  0.9209  2.0299 -0.0435
 1048TIP3    H224780   1.803  -0.020   6.589 -0.8336  0.6058  0.3188
 1049TIP3   OH224781   6.172   5.808   7.346  0.8247  0.3092 -0.0080
 1049TIP3    H124782   6.085   5.788   7.382  0.6995  0.1983 -0.3670
 1049TIP3    H224783   6.231   5.751   7.394  0.8463  1.1431  0.9935
 1050TIP3   OH224784   4.071   2.299   0.787  0.3019 -0.3864 -0.0290
 1050TIP3    H124785   4.076   2.366   0.855 -1.8046 -0.7599  0.5802
 1050TIP3    H224786   4.096   2.218   0.831 -0.4633 -0.5269  0.1660
 1051TIP3   OH224787   1.091   6.289   7.634 -0.5892 -0.0371  0.4869
 1051TIP3    H124788   1.013   6.302   7.688  0.3949  1.8920  1.5414
 1051TIP3    H224789   1.061   6.302   7.544 -1.4499  1.0104  0.9037
 1052TIP3   OH224790   2.374   5.557   1.775 -0.3447 -0.5475 -0.1565
 1052TIP3    H124791   2.318   5.496   1.728 -1.0392  0.6113 -0.8896
 1052TIP3    H224792   2.314   5.609   1.829  0.3256 -1.0952  1.1768
 1053TIP3   OH224793   3.679   6.357   1.022  0.1960 -0.3001 -0.7928
 1053TIP3    H124794   3.586   6.352   1.043  0.5166 -1.0510  0.5994
 1053TIP3    H224795   3.692   6.445   0.987 -0.7728  0.3562  0.4186
 1054TIP3   OH224796   6.917   4.552   7.087  0.2091  0.0144  0.3799
 1054TIP3    H124797   6.977   4.604   7.034 -0.7198  0.7001 -0.0281
 1054TIP3    H224798   6.908   4.601   7.168 -0.0663  0.0927  0.3019
 1055TIP3   OH224799   3.446   3.383   1.317 -0.1114  0.5675  0.2664
 1055TIP3    H124800   3.429   3.430   1.398 -1.0095  0.7862 -0.0447
 1055TIP3    H224801   3.422   3.292   1.336  1.0668  0.3257  0.6845
 1056TIP3   OH224802   3.314   3.131   1.304 -0.1560 -0.7162  0.7759
 1056TIP3    H124803   3.244   3.085   1.352 -0.1791 -1.5571 -0.0373
 1056TIP3    H224804   3.380   3.063   1.290  0.5454 -0.0802  0.9796
 1057TIP3   OH224805   6.273   6.535   6.939  0.7173 -0.3540  0.2896
 1057TIP3    H124806   6.191   6.509   6.898  0.0186  1.9568  0.0592
 1057TIP3    H224807   6.336   6.540   6.867  0.8165 -1.1205  0.3112
 1058TIP3   OH224808   3.091   6.267   1.689  0.4461 -0.3622 -0.3126
 1058TIP3    H124809   3.061   6.278   1.780 -0.3591  1.1003 -0.7277
 1058TIP3    H224810   3.111   6.174   1.682  0.5103 -0.5087  1.3636
 1059TIP3   OH224811   3.198   5.748   0.246 -0.3311 -0.7829 -0.2689
 1059TIP3    H124812   3.281   5.714   0.212  0.3021 -0.6684  1.0818
 1059TIP3    H224813   3.179   5.825   0.192 -0.5334 -1.8521 -1.7867
 1060TIP3   OH224814   5.276   4.740   7.780  0.2590 -0.0641 -0.4040
 1060TIP3    H124815   5.229   4.656   7.779 -0.3797  0.2847 -0.2291
 1060TIP3    H224816   5.349   4.727   7.720 -0.0195 -0.6393 -0.6282
 1061TIP3   OH224817   6.010   5.285   0.873 -0.1159  0.0021  0.3141
 1061TIP3    H124818   5.939   5.236   0.831 -0.4809  0.8971 -0.1450
 1061TIP3    H224819   6.086   5.228   0.865 -0.7557 -0.9253  0.7177
 1062TIP3   OH224820   1.590   4.116   1.878  0.1233 -0.3075  0.5584
 1062TIP3    H124821   1.643   4.121   1.798  0.7449 -0.8285  0.9194
 1062TIP3    H224822   1.649   4.077   1.943 -0.4573 -0.1450  1.1983
 1063TIP3   OH224823   6.361   1.473   7.561  0.4804  0.4205 -0.2772
 1063TIP3    H124824   6.360   1.378   7.574  0.2545  0.3384 -0.8737
 1063TIP3    H224825   6.399   1.484   7.474 -0.4460  0.8270 -0.6338
 1064TIP3   OH224826   5.602   1.752   1.021 -0.4378  0.1598  0.4405
 1064TIP3    H124827   5.590   1.753   1.116 -1.8420  0.1558  0.2766
 1064TIP3    H224828   5.571   1.665   0.994  0.2906  0.0235  0.0055
 1065TIP3   OH224829   1.133   4.663   1.386  0.2298 -0.0883 -0.8343
 1065TIP3    H124830   1.211   4.699   1.345 -0.5705 -0.9586 -3.2890
 1065TIP3    H224831   1.066   4.730   1.373  0.7123  1.1795  2.2945
 1066TIP3   OH224832   1.992   4.648   8.056  0.1980 -0.2358 -0.6065
 1066TIP3    H124833   1.973   4.716   7.991 -0.3306  0.8545  0.6312
 1066TIP3    H224834   1.957   4.567   8.017 -1.5992  0.6723 -1.0139
 1067TIP3   OH224835   2.963   3.997   0.164 -0.2544  0.4056  0.0367
 1067TIP3    H124836   2.883   3.952   0.192  0.0593 -0.0382  0.2357
 1067TIP3    H224837   2.992   3.947   0.087  0.5791 -0.2989  0.7819
 1068TIP3   OH224838   1.134   1.805   6.724  0.8147 -0.9312  0.1583
 1068TIP3    H124839   1.117   1.788   6.816  0.4920 -1.2374  0.0447
 1068TIP3    H224840   1.228   1.786   6.713  0.7943 -1.1550  0.3637
 1069TIP3   OH224841   4.355   0.107   7.243  0.1671 -0.4499  0.2812
 1069TIP3    H124842   4.369   0.025   7.196  1.3178  0.1653 -0.4994
 1069TIP3    H224843   4.374   0.086   7.335 -4.0414 -2.1828  0.9813
 1070TIP3   OH224844   5.598   4.604   7.361  0.0028  0.0366  0.6315
 1070TIP3    H124845   5.678   4.551   7.357  0.8712  1.3333  0.3609
 1070TIP3    H224846   5.594   4.647   7.275  0.2868  1.7818  1.4571
 1071TIP3   OH224847   2.519   6.345   2.494 -0.2578  0.2110 -0.0640
 1071TIP3    H124848   2.459   6.288   2.447 -0.2789  0.1228  0.0689
 1071TIP3    H224849   2.605   6.325   2.457 -0.4677  1.3207 -1.2273
 1072TIP3   OH224850   1.167   1.110   8.444 -0.0818  0.0151 -0.3620
 1072TIP3    H124851   1.178   1.062   8.362 -0.3148  0.1326 -0.4622
 1072TIP3    H224852   1.211   1.193   8.429  0.8762 -0.3987  0.0244
 1073TIP3   OH224853   6.020   4.333   7.471  1.1817 -0.2368 -0.4542
 1073TIP3    H124854   6.023   4.243   7.503 -0.1871 -0.1882 -0.1580
 1073TIP3    H224855   6.053   4.385   7.544 -0.8018 -0.2443  0.5110
 1074TIP3   OH224856   0.777   0.908   7.920 -0.3011 -0.5727  0.2663
 1074TIP3    H124857   0.682   0.898   7.927 -0.5382  0.9338 -0.3613
 1074TIP3    H224858   0.807   0.826   7.883 -1.6305 -0.3542 -1.4544
 1075TIP3   OH224859   1.324   4.593   0.453 -1.1182 -0.4097  0.2861
 1075TIP3    H124860   1.291   4.655   0.518 -0.3493 -0.0153  0.3144
 1075TIP3    H224861   1.388   4.643   0.402 -0.9219 -1.0119 -0.0704
 1076TIP3   OH224862   0.597   3.368   8.428 -0.0535 -0.2387  0.2821
 1076TIP3    H124863   0.646   3.438   8.385  0.8950 -0.8404  0.3575
 1076TIP3    H224864   0.536   3.337   8.361  0.6306 -0.4098 -0.2731
 1077TIP3   OH224865   2.784   6.379   7.673  0.1284  0.8355 -0.0128
 1077TIP3    H124866   2.857   6.392   7.733  0.8897  1.1973 -1.0054
 1077TIP3    H224867   2.780   6.284   7.661  0.6149  0.8353 -0.1802
 1078TIP3   OH224868   2.384   5.012   0.401  0.2879 -0.2830  0.0317
 1078TIP3    H124869   2.299   5.051   0.422  0.7135  1.4272 -1.2052
 1078TIP3    H224870   2.368   4.917   0.406 -0.9117 -0.0257  2.6616
 1079TIP3   OH224871   3.312   1.995   2.354  0.0543  0.0186  0.7277
 1079TIP3    H124872   3.311   1.905   2.322 -0.4397 -0.5242  2.1608
 1079TIP3    H224873   3.225   2.008   2.391  0.4424  0.7589  1.4141
 1080TIP3   OH224874   4.906   3.035   7.111  0.7823  0.3526 -0.1545
 1080TIP3    H124875   4.948   2.963   7.065 -0.6386  0.0240 -1.0118
 1080TIP3    H224876   4.921   3.111   7.055  1.3430  0.4908  0.1893
 1081TIP3   OH224877   4.014   3.130   1.552 -0.0709 -0.0066  0.7281
 1081TIP3    H124878   4.014   3.098   1.642  1.7418  3.0016  1.9710
 1081TIP3    H224879   4.050   3.059   1.501  0.1948 -1.3056  2.6139
 1082TIP3   OH224880   6.001   2.291   0.780  0.5456 -0.1271  0.1930
 1082TIP3    H124881   6.079   2.278   0.835  0.5480 -1.2880 -0.0637
 1082TIP3    H224882   5.994   2.386   0.772  1.2339  0.0332  1.2223
 1083TIP3   OH224883   4.594   1.185   1.172  0.2054 -0.9270 -0.0896
 1083TIP3    H124884   4.650   1.213   1.244 -0.9047 -0.8924  0.7950
 1083TIP3    H224885   4.577   1.093   1.189 -0.3460 -0.8326 -0.1078
 1084TIP3   OH224886   4.214   1.412   8.100 -0.1612  0.4658  0.0887
 1084TIP3    H124887   4.155   1.418   8.175  0.0466 -1.0271  0.4024
 1084TIP3    H224888   4.292   1.367   8.134 -0.2436 -0.6256 -1.1192
 1085TIP3   OH224889   4.673   3.638   7.619  0.1271 -0.6364  0.0451
 1085TIP3    H124890   4.705   3.720   7.655 -0.8430 -0.0907 -0.2917
 1085TIP3    H224891   4.751   3.583   7.609  1.2321  1.1617 -2.1521
 1086TIP3   OH224892   1.339   0.324   1.485  0.4207 -0.6015  0.2381
 1086TIP3    H124893   1.345   0.419   1.474  0.3212 -0.5942  0.2457
 1086TIP3    H224894   1.415   0.289   1.438  0.7715 -0.4836  0.7139
 1087TIP3   OH224895   1.701   0.494   0.187 -0.7366  0.4321  0.0722
 1087TIP3    H124896   1.670   0.408   0.215 -0.8222  0.3671 -0.2114
 1087TIP3    H224897   1.796   0.489   0.194 -0.7618  0.4654  0.4773
 1088TIP3   OH224898   3.409   3.247   8.147  0.4018 -0.2925 -0.1096
 1088TIP3    H124899   3.389   3.299   8.069  0.1937  0.0849  0.1889
 1088TIP3    H224900   3.457   3.307   8.204 -1.7000  0.2981  1.1679
 1089TIP3   OH224901   0.872   6.908   0.436  0.9544 -0.5371 -0.0635
 1089TIP3    H124902   0.784   6.943   0.430  0.7553 -1.2311 -1.6030
 1089TIP3    H224903   0.859   6.815   0.458  1.2265 -0.8987 -1.3384
 1090TIP3   OH224904   4.535   6.656   0.728 -0.4915  0.8914  0.6162
 1090TIP3    H124905   4.544   6.678   0.635 -0.3614  0.5993  0.5580
 1090TIP3    H224906   4.445   6.679   0.749 -1.3091 -1.2448 -0.2001
 1091TIP3   OH224907   0.987   5.685   8.336  0.0567 -0.3123 -0.2175
 1091TIP3    H124908   1.045   5.714   8.406  0.0429 -1.8544  0.4732
 1091TIP3    H224909   1.024   5.600   8.308 -0.5036 -0.1938 -1.3999
 1092TIP3   OH224910   3.639   2.311   6.871  0.1797 -0.4354  0.7221
 1092TIP3    H124911   3.630   2.310   6.776  0.9903  0.5888  0.6147
 1092TIP3    H224912   3.683   2.228   6.892  2.1654  0.3537 -0.0733
 1093TIP3   OH224913   0.619   2.137   0.674 -0.2392 -0.3795 -0.7700
 1093TIP3    H124914   0.586   2.096   0.753 -0.0844 -2.3478 -1.6728
 1093TIP3    H224915   0.603   2.231   0.687 -2.6926 -0.8797  0.4350
 1094TIP3   OH224916   6.813   6.531   6.900  0.1066  0.9661  0.0832
 1094TIP3    H124917   6.809   6.552   6.807 -0.5736  1.0290  0.1237
 1094TIP3    H224918   6.729   6.489   6.919  0.3617  0.6731  0.6026
 1095TIP3   OH224919   0.609   1.993   7.628 -0.9272  0.3825 -0.0573
 1095TIP3    H124920   0.533   1.939   7.608 -0.7547  0.5619 -1.2962
 1095TIP3    H224921   0.684   1.939   7.606 -0.7008  0.3496  0.7811
 1096TIP3   OH224922   2.197   2.771   7.067 -0.4641 -0.1477  0.4281
 1096TIP3    H124923   2.183   2.730   7.153  1.5168  0.3384  1.0395
 1096TIP3    H224924   2.246   2.706   7.017  1.0953  0.7150  0.7749
 1097TIP3   OH224925   6.247   6.737   0.952 -0.3024  0.0065  0.2220
 1097TIP3    H124926   6.256   6.761   1.044  2.4530  2.3438 -0.4925
 1097TIP3    H224927   6.153   6.738   0.936 -0.9759 -1.8040  3.2385
 1098TIP3   OH224928   3.526   0.842   1.315  0.1385  0.1971  0.2127
 1098TIP3    H124929   3.459   0.835   1.382 -0.2928 -1.2579 -0.3249
 1098TIP3    H224930   3.551   0.751   1.296  2.7689  0.6814  0.8693
 1099TIP3   OH224931   1.317   3.673   1.741  0.1687  0.4543 -0.3183
 1099TIP3    H124932   1.295   3.665   1.833  0.8023 -0.9723 -0.2705
 1099TIP3    H224933   1.259   3.613   1.696  1.3156 -0.4830 -0.5946
 1100TIP3   OH224934   3.812   1.482   1.749 -0.4554 -0.0666  0.1820
 1100TIP3    H124935   3.854   1.446   1.828  0.1048  0.2374  0.0270
 1100TIP3    H224936   3.756   1.551   1.782  2.2401  2.3395  0.0991
 1101TIP3   OH224937   0.104   1.702   0.264 -0.3469  0.1841  0.0759
 1101TIP3    H124938   0.191   1.690   0.303  0.7580  0.0690 -2.2185
 1101TIP3    H224939   0.121   1.749   0.182 -2.5155  0.4996 -0.2511
 1102TIP3   OH224940   1.488   3.516   1.334 -0.2560 -0.0351  0.1969
 1102TIP3    H124941   1.556   3.453   1.312 -0.7677 -1.4993  2.4366
 1102TIP3    H224942   1.407   3.477   1.301 -0.5206 -0.3341  1.1877
 1103TIP3   OH224943   4.178   3.643   1.605 -0.1665  0.3373  0.0307
 1103TIP3    H124944   4.178   3.575   1.537 -1.0836  1.5260 -1.2148
 1103TIP3    H224945   4.271   3.656   1.625  0.1789  0.4829 -1.5463
 1104TIP3   OH224946   2.647   3.516   7.850 -0.3098  0.1661  0.0020
 1104TIP3    H124947   2.557   3.484   7.844 -0.1398 -0.1767 -0.7502
 1104TIP3    H224948   2.695   3.445   7.893  0.1380 -0.7686 -1.9729
 1105TIP3   OH224949   6.474   5.921   2.884  0.3560  0.3275 -0.2816
 1105TIP3    H124950   6.553   5.945   2.835  0.1512 -0.4290 -0.9920
 1105TIP3    H224951   6.422   5.869   2.823  0.5624 -1.5377  1.0422
 1106TIP3   OH224952   5.660   1.582   2.202  0.0811  0.0631  0.2272
 1106TIP3    H124953   5.579   1.633   2.194 -1.4363 -1.9880  1.5606
 1106TIP3    H224954   5.646   1.506   2.146 -0.1964 -1.7764  2.6602
 1107TIP3   OH224955   0.887   4.114   1.684  0.2900  0.2542  0.5418
 1107TIP3    H124956   0.802   4.072   1.697  1.1759 -1.8053 -0.0239
 1107TIP3    H224957   0.923   4.123   1.773 -0.1683  0.4289  0.7145
 1108TIP3   OH224958   6.137   3.227   8.109 -0.2374 -0.0356 -0.4043
 1108TIP3    H124959   6.184   3.306   8.082 -0.4162  0.1710 -0.1218
 1108TIP3    H224960   6.061   3.223   8.051 -0.7502  0.5394  0.2148
 1109TIP3   OH224961   0.968   3.493   0.196  0.5635  0.3881 -0.6809
 1109TIP3    H124962   1.025   3.458   0.264  0.4337  1.1148 -0.1943
 1109TIP3    H224963   1.020   3.488   0.116  1.4274  1.3491 -0.1912
 1110TIP3   OH224964   5.898   3.527   2.623 -0.0545 -0.7143 -0.5078
 1110TIP3    H124965   5.879   3.472   2.547 -0.6184 -0.5467 -0.4911
 1110TIP3    H224966   5.994   3.524   2.632 -0.0619 -1.5154 -0.6365
 1111TIP3   OH224967   3.281   5.878   2.407  0.2673  0.2323 -0.6238
 1111TIP3    H124968   3.312   5.918   2.326  1.3390  1.5901  0.4185
 1111TIP3    H224969   3.301   5.942   2.475 -3.1107  0.4123  0.4244
 1112TIP3   OH224970   6.424   2.515   0.562  0.4586  0.0974  0.3138
 1112TIP3    H124971   6.450   2.423   0.560  0.6792  0.1675 -0.8627
 1112TIP3    H224972   6.503   2.561   0.591  0.7955  0.0370 -0.4755
 1113TIP3   OH224973   6.553   5.616   0.317  0.1651 -0.0332 -0.4633
 1113TIP3    H124974   6.476   5.646   0.268  0.8580  1.1285 -0.8899
 1113TIP3    H224975   6.622   5.611   0.251  0.1778 -2.3559 -0.3466
 1114TIP3   OH224976   4.406   1.203   0.968  0.3003  0.6270 -0.5626
 1114TIP3    H124977   4.372   1.291   0.953 -1.2279  0.6809  2.3975
 1114TIP3    H224978   4.474   1.214   1.035 -2.1082 -0.5983  2.3134
 1115TIP3   OH224979   0.623   1.919   2.202  0.5094 -0.0389  0.3181
 1115TIP3    H124980   0.548   1.867   2.172  0.1291  1.7923 -2.1180
 1115TIP3    H224981   0.700   1.869   2.173  0.1560  0.4093 -1.4888
 1116TIP3   OH224982   3.056   1.564   8.214 -0.2999  0.4814 -0.8172
 1116TIP3    H124983   3.071   1.541   8.305 -2.7322  1.7827 -0.0207
 1116TIP3    H224984   3.143   1.585   8.180  0.6555 -0.0699  1.1689
 1117TIP3   OH224985   2.426   2.966   0.199 -0.4045  0.4808 -0.3493
 1117TIP3    H124986   2.369   2.954   0.275 -1.4715  0.3203 -1.1355
 1117TIP3    H224987   2.469   2.882   0.187  0.6818  0.8534  0.7598
 1118TIP3   OH224988   4.156   5.871   8.385 -0.2546 -0.6968 -0.2043
 1118TIP3    H124989   4.232   5.910   8.341 -0.0110 -1.4917 -0.4972
 1118TIP3    H224990   4.084   5.883   8.324 -0.6503  1.1257  0.5678
 1119TIP3   OH224991   4.282   5.399   0.580  0.2750 -0.5267  0.3141
 1119TIP3    H124992   4.237   5.481   0.603  1.2711 -0.3416  1.7654
 1119TIP3    H224993   4.333   5.377   0.658  0.9088 -1.9463 -0.4565
 1120TIP3   OH224994   6.108   4.767   6.380  0.1320 -0.7044  0.5843
 1120TIP3    H124995   6.129   4.674   6.378 -2.2283 -1.3290 -1.3408
 1120TIP3    H224996   6.021   4.771   6.420 -0.7131  0.3437 -1.2004
 1121TIP3   OH224997   5.727   4.862   0.440  0.6013 -0.1628  0.1962
 1121TIP3    H124998   5.735   4.952   0.406 -0.7342  0.3971  1.2836
 1121TIP3    H224999   5.815   4.825   0.428  0.9766  0.9992 -1.0168
 1122TIP3   OH225000   2.328   4.937   7.698 -0.3898  0.1180 -0.8881
 1122TIP3    H125001   2.394   4.992   7.739 -2.2887  1.6964  0.2448
 1122TIP3    H225002   2.344   4.849   7.733  0.2073  0.7576  0.4893
 1123TIP3   OH225003   5.793   0.873   6.790  0.4534 -0.4318 -0.4198
 1123TIP3    H125004   5.855   0.810   6.827  1.3514  0.9530  0.5668
 1123TIP3    H225005   5.821   0.883   6.699 -0.5361 -2.3988 -0.9922
 1124TIP3   OH225006   1.166   2.016   8.401 -0.0496 -0.5607  0.1264
 1124TIP3    H125007   1.157   1.928   8.439  3.6090 -0.4703  1.5768
 1124TIP3    H225008   1.210   2.067   8.468 -0.6510  1.9768 -1.2868
 1125TIP3   OH225009   2.927   2.877   0.983  0.3706 -0.1549 -0.5126
 1125TIP3    H125010   2.948   2.904   0.894 -0.4730  2.6039  0.0122
 1125TIP3    H225011   2.885   2.792   0.974 -0.3056  0.3586 -2.8104
 1126TIP3   OH225012   1.053   1.478   0.785 -0.0485  0.2963 -0.0833
 1126TIP3    H125013   1.084   1.503   0.872  2.1229  1.2100 -1.0481
 1126TIP3    H225014   1.002   1.553   0.755 -1.1149 -0.1695  0.5057
 1127TIP3   OH225015   5.747   4.228   8.028  0.0741  0.0172  0.5089
 1127TIP3    H125016   5.714   4.318   8.021  0.9207  0.4303  1.4806
 1127TIP3    H225017   5.676   4.173   7.997 -0.3081  1.0488 -0.5056
 1128TIP3   OH225018   0.534   4.923   1.329 -0.5174 -0.1711 -0.8530
 1128TIP3    H125019   0.468   4.976   1.286 -0.2471  0.5274 -0.4265
 1128TIP3    H225020   0.554   4.853   1.267 -1.9417 -0.6300 -0.8099
 1129TIP3   OH225021   5.974   3.507   7.933  0.0527 -0.7036  0.4250
 1129TIP3    H125022   5.895   3.544   7.973  0.6659  0.3369  0.7300
 1129TIP3    H225023   5.947   3.423   7.898 -1.2249 -0.2968  0.4025
 1130TIP3   OH225024   5.359   3.832   0.198  0.1690 -0.7599 -0.1082
 1130TIP3    H125025   5.444   3.798   0.170  0.2016  0.4822 -1.6511
 1130TIP3    H225026   5.296   3.764   0.173  0.5347 -0.9666 -0.4866
 1131TIP3   OH225027   2.674   4.200   0.121 -0.1378  0.2893 -0.1547
 1131TIP3    H125028   2.750   4.148   0.147  0.4433  1.5454  0.7624
 1131TIP3    H225029   2.676   4.277   0.178 -2.6454 -0.0796  0.5735
 1132TIP3   OH225030   1.377   5.812   0.224 -0.4814  0.6825  0.3152
 1132TIP3    H125031   1.334   5.738   0.268 -0.8584 -0.4677 -1.8374
 1132TIP3    H225032   1.431   5.772   0.156  0.9487  2.3223  0.4154
 1133TIP3   OH225033   2.844   0.409   1.397  0.0271 -0.7459 -0.0766
 1133TIP3    H125034   2.805   0.387   1.313  1.2341 -0.9447 -0.6132
 1133TIP3    H225035   2.895   0.331   1.422  0.2415 -0.4350  0.4878
 1134TIP3   OH225036   3.830   2.789   1.304 -0.2601 -0.0494  0.0174
 1134TIP3    H125037   3.832   2.775   1.399  1.6240 -0.3908 -0.0252
 1134TIP3    H225038   3.854   2.881   1.293 -1.2574  0.1989 -0.1060
 1135TIP3   OH225039   3.628   6.908   6.675  0.7557 -0.2073  0.0385
 1135TIP3    H125040   3.644   6.970   6.746  0.3422  0.1030 -0.1300
 1135TIP3    H225041   3.647   6.822   6.713  1.9846  0.0629  0.0779
 1136TIP3   OH225042   5.426   3.225   0.762 -0.2534 -0.0475  0.0245
 1136TIP3    H125043   5.348   3.250   0.713 -0.2266  0.9604  0.4741
 1136TIP3    H225044   5.491   3.203   0.695 -0.4083  0.7210 -0.3874
 1137TIP3   OH225045   6.013   3.371   0.637  0.7971 -0.3762 -0.5116
 1137TIP3    H125046   6.073   3.405   0.571  1.2262  0.6163  0.3660
 1137TIP3    H225047   6.056   3.292   0.670  0.9635 -0.4285 -0.8496
 1138TIP3   OH225048   2.977   5.512   7.087  0.1955  0.1057 -0.5213
 1138TIP3    H125049   3.031   5.439   7.055 -0.0418 -0.3074  0.0221
 1138TIP3    H225050   2.887   5.481   7.077  0.1132 -0.7083  2.0561
 1139TIP3   OH225051   6.194   2.912   8.053 -0.0306 -0.0745  0.2067
 1139TIP3    H125052   6.206   2.998   8.014  0.7557 -0.4970 -0.5072
 1139TIP3    H225053   6.246   2.915   8.133  1.2650 -0.3802 -0.5924
 1140TIP3   OH225054   5.771   2.218   6.837 -0.1653  0.2819  0.5998
 1140TIP3    H125055   5.686   2.261   6.847 -1.4957 -2.0367  0.2184
 1140TIP3    H225056   5.761   2.165   6.758  1.9621  0.5695  0.0832
 1141TIP3   OH225057   6.957   5.308   0.316 -0.5325  0.2997 -1.1234
 1141TIP3    H125058   7.012   5.386   0.317 -0.5828  0.3332 -0.8287
 1141TIP3    H225059   7.016   5.237   0.291 -0.3822  0.3580 -0.9399
 1142TIP3   OH225060   4.855   2.056   6.657  0.5350 -0.4977  0.3889
 1142TIP3    H125061   4.777   2.024   6.703  0.8722  0.0614  1.3781
 1142TIP3    H225062   4.827   2.064   6.566 -0.2579 -1.2792  0.5501
 1143TIP3   OH225063   3.865   2.420   3.322  0.2499 -0.8794  0.0701
 1143TIP3    H125064   3.867   2.494   3.261  1.4465 -0.2899  0.7734
 1143TIP3    H225065   3.818   2.352   3.275  0.4340 -0.1729 -1.2028
 1144TIP3   OH225066   4.385   6.480   1.730 -0.4299  0.1574  0.3478
 1144TIP3    H125067   4.326   6.543   1.687  0.1374  0.5290  0.1018
 1144TIP3    H225068   4.351   6.395   1.704  1.1730  0.3298 -2.7551
 1145TIP3   OH225069   4.287   2.133   0.305  0.2350 -0.3759 -0.4475
 1145TIP3    H125070   4.364   2.184   0.330 -0.2391  0.2103 -0.1549
 1145TIP3    H225071   4.288   2.057   0.363  0.5477 -0.3347 -0.3985
 1146TIP3   OH225072   5.935   4.378   0.084  0.2957  0.0852 -0.2110
 1146TIP3    H125073   6.017   4.353   0.126  1.1762  3.1907  0.1733
 1146TIP3    H225074   5.882   4.416   0.154 -1.6521 -2.0376 -0.4101
 1147TIP3   OH225075   0.413   5.586   8.124 -0.2495 -0.7262 -0.1383
 1147TIP3    H125076   0.456   5.500   8.126 -0.2003 -0.7006 -0.1157
 1147TIP3    H225077   0.321   5.566   8.143 -0.3206 -0.8278 -0.5779
 1148TIP3   OH225078   4.858   6.885   7.950  0.1553 -0.5427  0.0361
 1148TIP3    H125079   4.842   6.965   7.999  0.3798  0.4333 -1.4173
 1148TIP3    H225080   4.773   6.843   7.943 -0.4960  0.9155 -1.4037
 1149TIP3   OH225081   0.465   0.858   7.391  0.2731 -0.0985  0.1006
 1149TIP3    H125082   0.524   0.797   7.347  1.0126 -1.1106  2.3395
 1149TIP3    H225083   0.381   0.814   7.394  0.3361 -0.2188  0.0931
 1150TIP3   OH225084   3.709   0.197   0.016 -0.0647  0.2417  0.1528
 1150TIP3    H125085   3.685   0.249   0.092  0.4071  0.8783 -0.1220
 1150TIP3    H225086   3.782   0.245  -0.024 -0.0828 -0.2600 -0.5039
 1151TIP3   OH225087   1.351   1.696   8.140  0.0269  0.2546 -0.0602
 1151TIP3    H125088   1.259   1.681   8.116 -0.3714 -1.8404  2.3183
 1151TIP3    H225089   1.399   1.689   8.058 -1.7289 -0.8050 -1.0566
 1152TIP3   OH225090   6.522   0.341   7.989 -0.3774 -0.4806 -0.4924
 1152TIP3    H125091   6.596   0.296   8.029 -0.4512  0.0484  0.2526
 1152TIP3    H225092   6.563   0.406   7.931 -0.1758  1.0675  1.2764
 1153TIP3   OH225093   3.746   5.461   6.971  0.3912  0.1786 -0.1449
 1153TIP3    H125094   3.679   5.400   7.002 -0.1598 -0.0487 -1.6881
 1153TIP3    H225095   3.702   5.513   6.904  1.6733  0.2258 -0.9841
 1154TIP3   OH225096   5.339   1.963   1.195  0.2737 -0.4869  1.5010
 1154TIP3    H125097   5.245   1.951   1.213  0.1431 -0.1389  1.0581
 1154TIP3    H225098   5.347   1.949   1.101  0.7458 -0.9843  1.6127
 1155TIP3   OH225099   6.662   0.504   6.277 -0.5292 -0.2982  0.5286
 1155TIP3    H125100   6.691   0.594   6.263 -1.1198  0.3414  3.0004
 1155TIP3    H225101   6.588   0.511   6.337 -2.2816 -2.2823 -1.2136
 1156TIP3   OH225102   4.357   3.515   0.696  0.5221 -0.0039 -0.0249
 1156TIP3    H125103   4.275   3.563   0.682 -0.7205 -1.9311  0.2914
 1156TIP3    H225104   4.356   3.446   0.630  2.8467  1.0209 -1.2448
 1157TIP3   OH225105   5.336   5.670   7.866  0.2011  0.6643 -0.6204
 1157TIP3    H125106   5.329   5.757   7.904 -1.0442  0.9820 -1.5195
 1157TIP3    H225107   5.314   5.681   7.773 -0.0785 -0.6104 -0.7357
 1158TIP3   OH225108   2.054   1.191   7.987  0.4813  0.2907 -0.8276
 1158TIP3    H125109   1.984   1.236   7.938 -1.3675 -0.8746  0.6066
 1158TIP3    H225110   2.072   1.250   8.060 -0.9951 -0.5936  0.3079
 1159TIP3   OH225111   1.579   0.222   0.794  0.1731  0.3794  0.2848
 1159TIP3    H125112   1.564   0.313   0.820 -1.0886  0.2587  0.0403
 1159TIP3    H225113   1.674   0.214   0.788  0.2758  1.9249 -0.5865
 1160TIP3   OH225114   1.716   1.685   1.614  0.0446  0.0548 -0.0778
 1160TIP3    H125115   1.752   1.744   1.681 -0.2131  1.2650 -0.9789
 1160TIP3    H225116   1.632   1.723   1.591 -0.3519 -0.9463 -0.3503
 1161TIP3   OH225117   0.885   0.382   0.406  0.0341  0.4421 -0.0985
 1161TIP3    H125118   0.961   0.341   0.365 -0.3755  2.0459 -2.6632
 1161TIP3    H225119   0.899   0.476   0.395 -2.5680  0.7849 -1.3056
 1162TIP3   OH225120   0.909   6.296   0.661  0.1268 -0.1779  0.2688
 1162TIP3    H125121   0.840   6.300   0.595  0.6040 -1.8634 -0.3877
 1162TIP3    H225122   0.922   6.202   0.676  2.0610  0.1054  0.5789
 1163TIP3   OH225123   6.215   3.639   1.959  0.3566 -0.9266 -0.2258
 1163TIP3    H125124   6.234   3.729   1.933  1.2614 -0.8293  0.6903
 1163TIP3    H225125   6.157   3.605   1.891 -0.9949  0.7294  0.0328
 1164TIP3   OH225126   4.167   5.732   6.574 -0.2469 -0.3042 -0.3044
 1164TIP3    H125127   4.250   5.723   6.621  0.1303  0.3432 -0.8208
 1164TIP3    H225128   4.157   5.826   6.562 -0.4397 -0.4476 -1.3228
 1165TIP3   OH225129   4.512   3.087   8.258 -0.0366 -0.0915  0.1618
 1165TIP3    H125130   4.432   3.107   8.210 -0.8603 -4.1282 -0.5102
 1165TIP3    H225131   4.497   3.122   8.346 -1.1609  1.9182 -0.7630
 1166TIP3   OH225132   3.739   2.250   3.162  0.0239 -0.1947  0.4593
 1166TIP3    H125133   3.738   2.223   3.070  0.4691 -0.1625  0.4413
 1166TIP3    H225134   3.649   2.238   3.192 -1.0532  3.1962 -0.9465
 1167TIP3   OH225135   0.919   1.654   1.260 -0.1776 -0.0630  0.2930
 1167TIP3    H125136   0.908   1.661   1.355 -0.0712 -2.2925  0.5178
 1167TIP3    H225137   1.005   1.691   1.243 -0.7722  1.6734  0.8367
 1168TIP3   OH225138   0.458   6.083   7.780  0.7391 -0.7104  0.2812
 1168TIP3    H125139   0.384   6.022   7.782  1.1216 -1.1733  0.4038
 1168TIP3    H225140   0.435   6.151   7.844 -0.3267  0.0313 -0.8517
 1169TIP3   OH225141   3.491   4.388   7.797 -0.0993 -0.0602  0.0959
 1169TIP3    H125142   3.402   4.385   7.831 -0.2405 -0.3690 -0.2988
 1169TIP3    H225143   3.496   4.316   7.735 -0.3820  1.5236 -1.8626
 1170TIP3   OH225144   5.776   6.893   1.274  0.3464 -0.4034  0.2915
 1170TIP3    H125145   5.832   6.927   1.204 -0.8945 -0.3960 -0.7328
 1170TIP3    H225146   5.827   6.820   1.311  0.3699 -1.5039 -1.7476
 1171TIP3   OH225147   4.206   0.757   2.556 -0.1207  0.3874  0.2084
 1171TIP3    H125148   4.302   0.762   2.552 -0.1190 -0.1319 -2.2108
 1171TIP3    H225149   4.178   0.848   2.564  0.5975  0.9664 -2.5272
 1172TIP3   OH225150   2.805   1.328   0.764 -0.3871  0.3517 -0.0881
 1172TIP3    H125151   2.810   1.276   0.844  0.8077  0.1338 -0.2874
 1172TIP3    H225152   2.795   1.418   0.795 -0.7668  0.1840  0.2863
 1173TIP3   OH225153   3.790   1.164   7.887  0.1437  0.2108 -0.7095
 1173TIP3    H125154   3.736   1.087   7.906 -0.8482  0.2499 -2.9911
 1173TIP3    H225155   3.865   1.155   7.946 -1.7981 -0.3901  1.8674
 1174TIP3   OH225156   3.460   1.286   7.345 -0.0053 -0.1049  0.6411
 1174TIP3    H125157   3.395   1.354   7.362  0.1979  0.1117  0.5543
 1174TIP3    H225158   3.446   1.221   7.415  0.9768  0.8945  1.8188
 1175TIP3   OH225159   0.368   0.628   1.728 -0.1425 -0.1780 -0.2902
 1175TIP3    H125160   0.365   0.651   1.635 -1.0980  0.6156 -0.0840
 1175TIP3    H225161   0.368   0.712   1.774 -0.5971 -0.5643  0.4372
 1176TIP3   OH225162   1.414   1.159   7.733 -0.1793  0.2308  0.1984
 1176TIP3    H125163   1.445   1.104   7.805 -1.6887  1.3690  1.8062
 1176TIP3    H225164   1.492   1.206   7.704  0.3466  0.2861  1.6183
 1177TIP3   OH225165   5.192   1.374   1.720  0.7167 -0.3007 -0.1634
 1177TIP3    H125166   5.128   1.329   1.775 -0.7776  0.0011 -1.5945
 1177TIP3    H225167   5.275   1.330   1.739 -0.1588 -1.6664  0.6594
 1178TIP3   OH225168   1.949   6.671   1.000  0.1728 -0.1859  0.0805
 1178TIP3    H125169   1.943   6.577   0.982  1.3807 -0.4371  0.8594
 1178TIP3    H225170   1.948   6.677   1.095  1.1878  0.4989  0.0580
 1179TIP3   OH225171   1.552   1.648   1.142 -0.5109  0.5285 -0.3050
 1179TIP3    H125172   1.508   1.564   1.135 -0.0543  0.2869 -0.3151
 1179TIP3    H225173   1.499   1.708   1.089 -0.9913  0.3152 -0.0703
 1180TIP3   OH225174   3.652   2.583   1.285 -0.2091  0.3831 -0.7911
 1180TIP3    H125175   3.681   2.672   1.262  0.0131  0.4310 -0.3431
 1180TIP3    H225176   3.727   2.545   1.330 -0.4070  0.0657 -0.7297
 1181TIP3   OH225177   2.339   1.024   0.926  0.0447 -0.8370 -0.2711
 1181TIP3    H125178   2.387   0.977   0.994 -0.2903 -0.0999  0.4987
 1181TIP3    H225179   2.385   1.002   0.844  0.6327 -1.5018  0.2268
 1182TIP3   OH225180   0.624   2.705   8.389  0.6605  0.0272  1.1691
 1182TIP3    H125181   0.550   2.715   8.449  0.8710 -0.0399  1.4411
 1182TIP3    H225182   0.649   2.795   8.367 -0.0572  0.0525  0.3786
 1183TIP3   OH225183   0.514   6.761   1.407  0.2085  0.2939 -0.3544
 1183TIP3    H125184   0.527   6.827   1.475 -1.4306  1.4985 -1.1404
 1183TIP3    H225185   0.420   6.741   1.411  0.4930 -1.2558 -0.8108
 1184TIP3   OH225186   2.609   2.947   1.965 -0.0899  0.0095  0.8407
 1184TIP3    H125187   2.525   2.915   1.996  0.3110 -0.7940  1.1152
 1184TIP3    H225188   2.613   3.038   1.995 -1.6413  0.6598 -0.7318
 1185TIP3   OH225189   6.396   0.709   8.215 -0.3295 -0.1453 -0.2274
 1185TIP3    H125190   6.450   0.666   8.282 -1.1324 -1.1784 -0.2090
 1185TIP3    H225191   6.357   0.637   8.166 -2.0717  0.5290  0.0735
 1186TIP3   OH225192   0.539   5.533   2.445 -0.4527  0.3408  0.2243
 1186TIP3    H125193   0.471   5.599   2.456 -0.0063  0.5218  2.2269
 1186TIP3    H225194   0.492   5.450   2.449 -0.7539  0.4907 -0.1279
 1187TIP3   OH225195   6.969   2.648   6.720 -0.2752  0.2907 -0.1008
 1187TIP3    H125196   7.028   2.719   6.694 -0.9119  0.9661  0.2520
 1187TIP3    H225197   6.993   2.629   6.810 -0.0903  0.0331 -0.2022
 1188TIP3   OH225198   3.438   1.654   7.628  0.7258 -0.0108  0.1388
 1188TIP3    H125199   3.495   1.587   7.593  1.2150  0.8899 -0.8465
 1188TIP3    H225200   3.494   1.705   7.688  1.3479  1.5802 -1.6918
 1189TIP3   OH225201   0.644   1.714   1.521 -0.1993 -0.2778  0.0152
 1189TIP3    H125202   0.666   1.732   1.613 -1.2668 -1.6412  0.5717
 1189TIP3    H225203   0.672   1.623   1.507 -1.4476 -0.5947 -0.5353
 1190TIP3   OH225204   4.658   1.180   6.982  0.4394  0.5023  0.3286
 1190TIP3    H125205   4.687   1.147   6.897 -0.4769 -0.7911  0.5026
 1190TIP3    H225206   4.615   1.106   7.024 -1.4458  1.8144  0.8551
 1191TIP3   OH225207   4.965   2.605   7.478  0.2861  0.0732 -0.2726
 1191TIP3    H125208   4.899   2.544   7.511  1.4768 -1.2997 -0.2885
 1191TIP3    H225209   4.919   2.659   7.414 -0.8458 -0.7657 -0.1936
 1192TIP3   OH225210   3.463   0.037   1.533  0.9049  0.3655  0.4454
 1192TIP3    H125211   3.424  -0.043   1.568  0.0522  0.6832  0.2584
 1192TIP3    H225212   3.507   0.010   1.453 -0.0952  0.2115 -0.0683
 1193TIP3   OH225213   5.304   0.999   2.420  0.2747  0.1813  0.0380
 1193TIP3    H125214   5.373   1.015   2.355  1.0990  0.2198  0.8920
 1193TIP3    H225215   5.352   0.980   2.501 -0.7295  0.0271  0.6122
 1194TIP3   OH225216   5.532   1.288   0.803  0.4731 -0.2485 -0.3843
 1194TIP3    H125217   5.620   1.250   0.803  1.4067  1.7805 -0.5696
 1194TIP3    H225218   5.486   1.241   0.733  1.4519 -1.2098 -0.4130
 1195TIP3   OH225219   5.981   4.128   1.915  0.1471  0.5564  0.2596
 1195TIP3    H125220   5.962   4.086   1.831 -0.6311  0.4294  0.4943
 1195TIP3    H225221   5.895   4.139   1.957  0.5384  0.4697  1.1098
 1196TIP3   OH225222   4.036   5.757   7.393 -0.2175 -0.1567 -0.5913
 1196TIP3    H125223   4.059   5.822   7.327 -0.5712  0.4231 -0.1482
 1196TIP3    H225224   4.039   5.674   7.346 -0.4909  0.2472 -1.3450
 1197TIP3   OH225225   1.385   3.268   8.030  0.3362  0.1594 -0.1798
 1197TIP3    H125226   1.342   3.353   8.036  1.1199  0.4984  1.0487
 1197TIP3    H225227   1.360   3.223   8.111  1.0297 -0.2390 -0.1806
 1198TIP3   OH225228   3.189   0.134   7.072  0.1675  0.0321  0.1337
 1198TIP3    H125229   3.204   0.040   7.076  0.9074  0.1320 -0.1632
 1198TIP3    H225230   3.139   0.148   6.992 -1.3457 -0.2742  0.9893
 1199TIP3   OH225231   6.738   3.649   2.264  0.4581  0.4607 -0.2640
 1199TIP3    H125232   6.830   3.677   2.271  1.0339 -1.5267  0.7584
 1199TIP3    H225233   6.699   3.678   2.346  1.1454 -1.8698  0.9584
 1200TIP3   OH225234   0.880   0.288   6.659  0.1080 -0.0448  0.3665
 1200TIP3    H125235   0.923   0.246   6.585 -0.0103  1.4973 -0.6326
 1200TIP3    H225236   0.890   0.382   6.642 -0.6407  0.3451  1.8933
 1201TIP3   OH225237   4.056   0.535   2.436  0.7782  0.6327 -0.2349
 1201TIP3    H125238   4.006   0.602   2.389 -0.9116  0.7932  1.6732
 1201TIP3    H225239   4.121   0.585   2.486 -0.0941  0.8679  0.7190
 1202TIP3   OH225240   5.554   3.667   0.429  0.4871  0.3631 -0.0171
 1202TIP3    H125241   5.521   3.632   0.346 -0.9786  1.8345 -0.1067
 1202TIP3    H225242   5.526   3.759   0.429  0.6871  0.4654  1.9870
 1203TIP3   OH225243   3.180   4.315   6.865 -0.3607  0.3780  0.3369
 1203TIP3    H125244   3.093   4.346   6.889 -0.6236 -0.0655 -0.0400
 1203TIP3    H225245   3.170   4.277   6.778  0.3533  0.9387 -0.0044
 1204TIP3   OH225246   4.897   0.623   2.523 -0.3545 -0.2091 -1.0323
 1204TIP3    H125247   4.805   0.618   2.496 -1.0465 -0.0032  1.0514
 1204TIP3    H225248   4.914   0.717   2.532 -0.7514 -0.2867  0.9493
 1205TIP3   OH225249   6.749   1.688   8.274  0.1970  0.4117  0.1268
 1205TIP3    H125250   6.655   1.674   8.275  0.0124  1.1658 -2.1736
 1205TIP3    H225251   6.762   1.770   8.322 -0.2108 -0.0218  1.0051
 1206TIP3   OH225252   5.266   4.966   7.171  0.2453 -0.0256  0.0052
 1206TIP3    H125253   5.348   4.950   7.123 -0.0889  1.8094 -1.3099
 1206TIP3    H225254   5.200   4.978   7.102 -0.7051  0.5698  0.9928
 1207TIP3   OH225255   5.828   3.675   0.529 -0.3190 -0.2365  0.1615
 1207TIP3    H125256   5.863   3.764   0.519 -1.4099  0.1384 -0.4498
 1207TIP3    H225257   5.745   3.676   0.483 -0.8196 -1.3127  0.9869
 1208TIP3   OH225258   0.465   2.853   0.784 -0.1272  0.1052  0.4728
 1208TIP3    H125259   0.497   2.943   0.778  0.1822  0.0658  1.3640
 1208TIP3    H225260   0.537   2.805   0.824 -1.2176 -0.0001  2.4502
 1209TIP3   OH225261   0.340   5.679   0.884 -0.5496 -0.4001 -0.3898
 1209TIP3    H125262   0.354   5.585   0.885  0.6102 -0.2584  1.5972
 1209TIP3    H225263   0.391   5.710   0.809 -0.0272 -1.2395 -0.3882
 1210TIP3   OH225264   6.345   2.229   8.094  0.0817  0.0990 -0.5711
 1210TIP3    H125265   6.355   2.137   8.068 -1.6700 -0.9607  2.0705
 1210TIP3    H225266   6.398   2.238   8.173 -0.1749  1.2376 -0.5093
 1211TIP3   OH225267   1.468   0.313   8.113  0.1541  0.1854  0.1541
 1211TIP3    H125268   1.403   0.352   8.172 -1.5073 -0.3352 -1.2293
 1211TIP3    H225269   1.481   0.225   8.149 -0.8626 -0.1368 -0.2215
 1212TIP3   OH225270   3.558   5.798   6.947 -0.0537 -0.4179 -0.3733
 1212TIP3    H125271   3.513   5.750   7.017  0.8274 -0.7173  0.0085
 1212TIP3    H225272   3.575   5.732   6.880  0.5818 -0.5151 -0.1300
 1213TIP3   OH225273   3.443   5.826   0.830 -0.1445 -0.5875  0.3966
 1213TIP3    H125274   3.473   5.909   0.866 -1.8091 -0.2498  1.1315
 1213TIP3    H225275   3.360   5.847   0.787 -0.1260 -1.6993 -0.2247
 1214TIP3   OH225276   1.817   2.973   6.253  0.1492 -1.1681  0.2454
 1214TIP3    H125277   1.833   2.961   6.159  0.1526  0.0006  0.0798
 1214TIP3    H225278   1.742   2.916   6.272  0.8043 -2.2248 -0.2267
 1215TIP3   OH225279   0.769   6.373   7.086 -0.3595 -0.1287 -0.9831
 1215TIP3    H125280   0.777   6.419   7.002 -0.6967  1.9825  0.0887
 1215TIP3    H225281   0.841   6.407   7.139 -0.9805 -0.3746  0.0444
 1216TIP3   OH225282   6.393   6.901   1.525 -0.0102  0.3210  0.0763
 1216TIP3    H125283   6.306   6.932   1.550  0.8994  1.1535  2.3970
 1216TIP3    H225284   6.386   6.806   1.530 -0.5617  0.4017  1.0545
 1217TIP3   OH225285   5.752   2.740   1.176  0.1761 -0.5466  0.2717
 1217TIP3    H125286   5.694   2.716   1.248 -0.2794  0.1801  0.1495
 1217TIP3    H225287   5.811   2.665   1.168 -1.6323 -1.9569 -0.5436
 1218TIP3   OH225288   6.811   6.660   1.811 -0.0863  0.1360 -0.9260
 1218TIP3    H125289   6.852   6.595   1.869  1.1781  0.3439 -1.5630
 1218TIP3    H225290   6.719   6.660   1.838 -0.1836 -2.0637 -1.0357
 1219TIP3   OH225291   3.692   1.198   6.756 -0.2103  0.0668  0.0536
 1219TIP3    H125292   3.727   1.259   6.691 -0.9107 -0.0025 -0.4027
 1219TIP3    H225293   3.732   1.225   6.839  0.9770 -0.0726 -0.4579
 1220TIP3   OH225294   0.452   2.415   6.959 -0.4222 -0.1367 -0.2215
 1220TIP3    H125295   0.479   2.336   7.007  0.8461 -1.6943 -3.2471
 1220TIP3    H225296   0.362   2.430   6.987 -0.4379 -2.1976  1.0366
 1221TIP3   OH225297   4.792   5.669   0.477 -0.1133 -0.5582 -0.0592
 1221TIP3    H125298   4.766   5.744   0.424 -0.9568 -0.9332 -0.1980
 1221TIP3    H225299   4.718   5.608   0.470  0.2009 -1.0471  0.7201
 1222TIP3   OH225300   0.121   0.748   6.150 -0.3469 -0.6051 -0.4672
 1222TIP3    H125301   0.189   0.708   6.203 -0.6412 -2.0671 -1.1410
 1222TIP3    H225302   0.163   0.768   6.066 -0.5392 -0.7706 -0.6058
 1223TIP3   OH225303   5.389   2.753   7.833 -0.2287 -0.0231  0.5399
 1223TIP3    H125304   5.459   2.812   7.804 -1.6004  1.4565  0.1304
 1223TIP3    H225305   5.316   2.771   7.775 -0.5636 -2.5607  0.0548
 1224TIP3   OH225306   5.082   3.383   1.338  0.6007  0.4140 -0.3965
 1224TIP3    H125307   5.094   3.303   1.286 -1.6784 -0.2751  0.0191
 1224TIP3    H225308   5.049   3.447   1.275  0.7028  0.4756 -0.3866
 1225TIP3   OH225309   4.665   1.834   1.962  0.0129  0.0226 -0.3035
 1225TIP3    H125310   4.758   1.834   1.941 -0.3140  3.2759 -2.6281
 1225TIP3    H225311   4.653   1.910   2.020 -1.1794 -0.2842 -0.1103
 1226TIP3   OH225312   4.756   5.376   0.029  1.1603  0.0837 -0.1872
 1226TIP3    H125313   4.837   5.415   0.063  0.4715 -0.3877  2.1770
 1226TIP3    H225314   4.686   5.422   0.075  0.1574 -0.9616 -0.6137
 1227TIP3   OH225315   4.450   0.060   0.961 -0.2612 -0.4638 -0.5676
 1227TIP3    H125316   4.428   0.136   1.015  0.2207 -1.2350  0.7338
 1227TIP3    H225317   4.430   0.089   0.872 -0.1975  1.1570 -0.0994
 1228TIP3   OH225318   5.007   1.993   7.281 -0.0794 -0.2150  0.6777
 1228TIP3    H125319   5.017   2.050   7.356  1.7908  1.6178 -0.8413
 1228TIP3    H225320   4.960   2.045   7.216  0.8385 -0.6783 -0.4142
 1229TIP3   OH225321   3.515   5.958   7.314 -0.0756 -0.5476  0.0774
 1229TIP3    H125322   3.579   6.026   7.336 -0.3782  0.8897 -3.0432
 1229TIP3    H225323   3.567   5.878   7.305  0.6724 -0.2156  1.2459
 1230TIP3   OH225324   1.676   2.129   6.351  0.3421  0.4572 -0.1647
 1230TIP3    H125325   1.660   2.177   6.269  1.3651  0.0742 -0.6106
 1230TIP3    H225326   1.762   2.159   6.380 -0.6666  1.8084  1.6825
 1231TIP3   OH225327   0.894   3.214   7.150 -0.0923 -0.1215 -0.3117
 1231TIP3    H125328   0.833   3.251   7.087 -0.5086  0.1475  0.2369
 1231TIP3    H225329   0.858   3.238   7.235  0.7416 -0.0176  0.0232
 1232TIP3   OH225330   4.099   4.657   7.645 -0.3376  0.4088 -0.7531
 1232TIP3    H125331   4.049   4.738   7.636 -0.8002  0.0857 -1.1960
 1232TIP3    H225332   4.069   4.603   7.572 -1.4093 -0.8767  0.5567
 1233TIP3   OH225333   3.132   1.272   2.214 -0.3601 -0.0004 -0.3134
 1233TIP3    H125334   3.187   1.350   2.217  0.0355 -0.2210 -1.3426
 1233TIP3    H225335   3.167   1.215   2.282  0.7908 -0.1816 -1.0279
 1234TIP3   OH225336   5.012   4.081   8.064 -0.1727 -0.7121 -0.6358
 1234TIP3    H125337   5.015   4.159   8.120 -0.9529 -1.0289 -0.1368
 1234TIP3    H225338   4.975   4.111   7.982 -1.0870 -0.6800 -0.2183
 1235TIP3   OH225339   0.742   3.535   0.835 -0.3249 -0.0400 -0.0664
 1235TIP3    H125340   0.669   3.498   0.884 -1.0001 -0.4960 -1.3916
 1235TIP3    H225341   0.802   3.462   0.823 -0.2847  0.0081 -0.1567
 1236TIP3   OH225342   2.690   5.104   0.450 -0.1526 -0.6200  0.0780
 1236TIP3    H125343   2.711   5.138   0.537  0.2829 -1.0734  0.1510
 1236TIP3    H225344   2.625   5.036   0.467 -0.5710 -0.2538 -0.0170
 1237TIP3   OH225345   2.464   5.632   1.110  0.2666 -0.3669  0.0920
 1237TIP3    H125346   2.473   5.556   1.168 -0.4570 -0.5987 -0.0937
 1237TIP3    H225347   2.539   5.687   1.131  0.3365 -0.7343  0.8234
 1238TIP3   OH225348   3.038   5.218   0.159 -0.0601  0.1244  0.0934
 1238TIP3    H125349   2.952   5.212   0.200 -1.1988  2.0504 -1.8442
 1238TIP3    H225350   3.057   5.312   0.155  1.7420 -0.2142 -0.3169
 1239TIP3   OH225351   4.845   4.646   1.680 -0.1158  0.0617 -0.5119
 1239TIP3    H125352   4.860   4.662   1.587  0.5302 -0.9269 -0.5941
 1239TIP3    H225353   4.890   4.563   1.698  0.6517  0.7597  0.9237
 1240TIP3   OH225354   6.670   6.530   1.494 -0.4524 -0.4744  0.5077
 1240TIP3    H125355   6.755   6.574   1.493  1.2705 -3.3173 -2.7096
 1240TIP3    H225356   6.685   6.451   1.547 -0.9413 -1.1465 -0.3239
 1241TIP3   OH225357   4.567   6.971   6.330  0.0443  0.0922  0.8566
 1241TIP3    H125358   4.596   6.895   6.381  0.1371  1.6454  3.2994
 1241TIP3    H225359   4.499   6.937   6.272  2.7268 -2.5675 -1.0431
 1242TIP3   OH225360   0.389   2.064   1.340 -0.2051  0.2553  0.3245
 1242TIP3    H125361   0.389   1.985   1.394  0.4968 -0.6935 -0.9838
 1242TIP3    H225362   0.320   2.119   1.376 -1.2581 -1.3087  0.7847
 1243TIP3   OH225363   3.294   3.118   7.107  0.5602  0.2283  0.0228
 1243TIP3    H125364   3.288   3.069   7.025  2.6074 -0.6514  0.3571
 1243TIP3    H225365   3.387   3.121   7.127  0.3588  2.8038  0.9413
 1244TIP3   OH225366   3.002   3.356   0.074 -0.0688 -0.8921  0.2433
 1244TIP3    H125367   2.997   3.302  -0.006 -0.7730  0.7008 -0.8360
 1244TIP3    H225368   3.066   3.311   0.129  0.0924 -2.2967 -1.0232
 1245TIP3   OH225369   4.232   2.530   1.842  0.3776  0.1546  0.6910
 1245TIP3    H125370   4.241   2.541   1.937  1.8582  0.6248  0.5262
 1245TIP3    H225371   4.283   2.451   1.823  0.3539  0.2475  0.2415
 1246TIP3   OH225372   4.993   2.333   1.356 -0.1707  0.2170 -0.5930
 1246TIP3    H125373   4.921   2.386   1.391 -0.7918 -0.4279 -0.8624
 1246TIP3    H225374   5.040   2.303   1.434 -1.7473 -1.4918 -0.2094
 1247TIP3   OH225375   4.361   3.094   7.876 -0.4094 -0.3059  0.2085
 1247TIP3    H125376   4.302   3.091   7.801  0.8689  1.4210 -0.9315
 1247TIP3    H225377   4.405   3.009   7.875  0.4345  0.1144 -1.7427
 1248TIP3   OH225378   5.941   2.103   2.513  0.1073 -0.2890  0.0119
 1248TIP3    H125379   5.987   2.126   2.594  1.7085  1.5610 -1.3244
 1248TIP3    H225380   5.963   2.174   2.452 -2.9278 -0.3770 -1.3573
 1249TIP3   OH225381   3.044   1.186   6.909  0.1829  0.1754  0.0625
 1249TIP3    H125382   3.091   1.172   6.827 -2.6568  2.1100 -2.0938
 1249TIP3    H225383   2.970   1.126   6.905 -1.1662  1.7870  0.1426
 1250TIP3   OH225384   3.712   4.745   0.528  0.3157 -0.1404  0.2624
 1250TIP3    H125385   3.789   4.784   0.486 -0.8001  1.6707 -0.2130
 1250TIP3    H225386   3.747   4.703   0.607  1.7752  0.6657  0.0895
 1251TIP3   OH225387   4.370   4.084   6.323 -0.1601  0.4255  0.1852
 1251TIP3    H125388   4.301   4.142   6.290  0.5572  0.7864 -0.7156
 1251TIP3    H225389   4.451   4.120   6.287  0.3183 -1.0625 -0.3007
 1252TIP3   OH225390   2.996   2.625   2.480  0.2093  0.0038  0.3135
 1252TIP3    H125391   2.913   2.578   2.465  1.5885 -2.2795 -0.7748
 1252TIP3    H225392   3.017   2.606   2.571  0.2727 -0.7119  0.1564
 1253TIP3   OH225393   4.989   2.331   0.183  0.4529  0.2237  0.6858
 1253TIP3    H125394   5.035   2.415   0.176  1.7240 -0.4267  0.9588
 1253TIP3    H225395   4.952   2.318   0.096  2.2616 -0.0266 -0.1064
 1254TIP3   OH225396   5.478   4.735   0.419 -0.1848  0.3213 -0.0953
 1254TIP3    H125397   5.568   4.770   0.420  0.1778 -0.6012  0.1586
 1254TIP3    H225398   5.428   4.795   0.474  0.2446  0.9057 -0.3255
 1255TIP3   OH225399   4.933   6.123   7.106  0.6450  0.0842  0.1706
 1255TIP3    H125400   4.906   6.132   7.197 -0.3673  0.7472 -0.1823
 1255TIP3    H225401   4.994   6.049   7.107 -2.3639 -2.5974  0.7848
 1256TIP3   OH225402   5.473   6.131   2.634 -0.2919 -0.3561  0.0144
 1256TIP3    H125403   5.544   6.080   2.671 -0.1830 -1.9332 -2.1723
 1256TIP3    H225404   5.398   6.113   2.691  0.3265 -1.0423  0.6332
 1257TIP3   OH225405   0.071   4.334   0.854 -0.3519  0.1522 -0.0341
 1257TIP3    H125406   0.038   4.326   0.943 -0.7315 -2.2124 -0.3254
 1257TIP3    H225407   0.016   4.275   0.802  2.0579 -1.2169 -1.1904
 1258TIP3   OH225408   0.151   4.557   2.312 -0.3193 -0.1052  0.0304
 1258TIP3    H125409   0.075   4.508   2.282  0.3736  0.0657 -2.1882
 1258TIP3    H225410   0.204   4.571   2.233  1.0779  1.4344  1.1561
 1259TIP3   OH225411   6.560   2.233   8.252  0.3727  0.2037 -0.0422
 1259TIP3    H125412   6.537   2.324   8.232 -0.5290 -0.6500 -3.6356
 1259TIP3    H225413   6.498   2.206   8.319  1.2012  2.3996  1.7332
 1260TIP3   OH225414   2.066   1.143   0.608  0.3288  0.0619 -0.0883
 1260TIP3    H125415   2.160   1.131   0.603  0.0350 -2.4110 -0.7696
 1260TIP3    H225416   2.053   1.197   0.686  2.2681  0.1971  0.1936
 1261TIP3   OH225417   0.328   0.984   0.306 -0.0510 -0.0925 -0.1692
 1261TIP3    H125418   0.281   1.053   0.354  0.7042 -0.1940  0.7349
 1261TIP3    H225419   0.298   0.994   0.216 -0.1052  1.3162 -0.0253
 1262TIP3   OH225420   6.089   1.468   7.604  0.1497 -0.1718 -0.4473
 1262TIP3    H125421   6.053   1.545   7.561  0.4094  0.4483  0.4107
 1262TIP3    H225422   6.183   1.472   7.587  0.3345  0.3863  0.6100
 1263TIP3   OH225423   4.899   4.085   7.344  0.2616 -0.0160  0.0926
 1263TIP3    H125424   4.984   4.128   7.333  0.3710 -0.3525 -0.4269
 1263TIP3    H225425   4.848   4.146   7.396  0.5588  0.5491 -0.2703
 1264TIP3   OH225426   1.751   3.943   8.101 -0.6320 -0.1905  0.3973
 1264TIP3    H125427   1.770   3.907   8.014 -1.6337  0.4658 -0.1007
 1264TIP3    H225428   1.829   3.994   8.124 -0.3529 -0.3955 -0.0930
 1265TIP3   OH225429   2.192   5.221   6.571 -0.5028 -0.0206 -0.2567
 1265TIP3    H125430   2.187   5.311   6.540  0.6943  0.3425  0.5084
 1265TIP3    H225431   2.156   5.224   6.660 -0.8430 -0.3766 -0.3823
 1266TIP3   OH225432   3.416   2.384   0.155 -0.5934  0.5482  0.1358
 1266TIP3    H125433   3.402   2.375   0.250  0.0760  0.5200  0.2370
 1266TIP3    H225434   3.441   2.297   0.126 -1.5571  0.3755 -0.2104
 1267TIP3   OH225435   4.798   2.498   0.355  0.0697 -0.1752  0.2177
 1267TIP3    H125436   4.830   2.409   0.340 -0.0980  0.0794 -2.0387
 1267TIP3    H225437   4.844   2.551   0.290 -3.0573  0.6096 -1.5652
 1268TIP3   OH225438   1.289   3.050   0.864  0.4386  0.2325  0.1480
 1268TIP3    H125439   1.245   2.987   0.922 -1.8662  2.2040  0.7192
 1268TIP3    H225440   1.249   3.036   0.779 -0.0189  0.8333  0.2576
 1269TIP3   OH225441   2.610   1.045   0.409 -0.0062  0.3680 -0.4415
 1269TIP3    H125442   2.682   1.065   0.470  0.9461 -1.1714 -1.0044
 1269TIP3    H225443   2.542   1.006   0.464 -0.0954  1.0588 -0.0392
 1270TIP3   OH225444   4.357   6.396   1.006  0.3720 -0.1079  0.0999
 1270TIP3    H125445   4.415   6.469   1.024  1.2608 -0.8959  0.4873
 1270TIP3    H225446   4.276   6.418   1.052  0.6484  0.5919  0.2705
 1271TIP3   OH225447   5.302   5.202   1.495 -0.0393  0.0651 -0.7592
 1271TIP3    H125448   5.362   5.217   1.422  0.5113 -1.3345 -0.6163
 1271TIP3    H225449   5.341   5.131   1.545 -1.0980  0.0895  0.1503
 1272TIP3   OH225450   4.863   1.591   0.192  0.5548  0.5714  0.0624
 1272TIP3    H125451   4.907   1.676   0.190  0.2887  0.7052 -1.0079
 1272TIP3    H225452   4.843   1.573   0.100 -2.7291  1.0680  0.5739
 1273TIP3   OH225453   4.028   3.838   7.036 -0.1837  0.4584  0.5142
 1273TIP3    H125454   4.045   3.795   7.120  3.2882 -0.7820 -0.6666
 1273TIP3    H225455   3.949   3.795   7.003  0.0153 -1.0634  1.8689
 1274TIP3   OH225456   6.121   4.304   0.292 -0.4363  0.1469 -0.9932
 1274TIP3    H125457   6.138   4.354   0.372 -2.1435 -0.3640 -0.2682
 1274TIP3    H225458   6.208   4.289   0.254  0.5462 -0.7360  1.4501
 1275TIP3   OH225459   5.602   1.486   0.055 -0.4976 -0.4565  0.4072
 1275TIP3    H125460   5.535   1.545   0.019 -1.1555 -0.4093  1.6408
 1275TIP3    H225461   5.653   1.459  -0.021 -0.9851  0.6883 -0.3688
 1276TIP3   OH225462   1.561   2.640   2.361  0.1782  0.6097  0.6721
 1276TIP3    H125463   1.558   2.721   2.411  1.4568  0.6042  0.7902
 1276TIP3    H225464   1.524   2.574   2.419  1.6459  0.5973  1.6622
 1277TIP3   OH225465   6.206   0.501   7.793 -0.5006  0.0019 -0.0029
 1277TIP3    H125466   6.248   0.441   7.731 -0.4610  1.0685 -1.0493
 1277TIP3    H225467   6.275   0.522   7.856  0.3082  1.0400 -1.1916
 1278TIP3   OH225468   4.158   6.296   1.491  0.1232 -0.3575 -0.4700
 1278TIP3    H125469   4.160   6.218   1.436  2.0217 -0.4231 -0.3838
 1278TIP3    H225470   4.212   6.273   1.567 -1.7577  0.0174  1.0765
 1279TIP3   OH225471   3.014   4.330   1.607 -0.2016  0.7707 -0.1824
 1279TIP3    H125472   3.021   4.413   1.561  0.6493  0.4263 -0.7000
 1279TIP3    H225473   3.011   4.354   1.700  0.6808  1.3654 -0.2921
 1280TIP3   OH225474   1.879   2.191   7.579 -0.5400  0.0008  0.3992
 1280TIP3    H125475   1.892   2.100   7.602 -0.3098 -1.0458 -3.2132
 1280TIP3    H225476   1.967   2.226   7.563 -0.7278 -0.0116 -0.8252
 1281TIP3   OH225477   2.418   4.508   8.410  0.0702 -0.2879 -0.1846
 1281TIP3    H125478   2.453   4.550   8.332  0.2497 -0.7180 -0.3387
 1281TIP3    H225479   2.402   4.580   8.471  0.5749 -0.0164 -0.3667
 1282TIP3   OH225480   0.597   4.099   7.131  0.0069 -0.5370 -0.1064
 1282TIP3    H125481   0.578   4.193   7.140  1.8630 -0.1054 -0.2449
 1282TIP3    H225482   0.520   4.063   7.088 -0.2561  1.1475 -1.1416
 1283TIP3   OH225483   0.235   4.005   7.411  0.3677 -0.3490 -0.3834
 1283TIP3    H125484   0.199   3.980   7.496  0.0157 -3.2445 -1.2828
 1283TIP3    H225485   0.209   3.935   7.352  0.9448  1.3557 -2.8438
 1284TIP3   OH225486   4.257   6.875   6.458 -0.0341 -0.4366 -0.1610
 1284TIP3    H125487   4.196   6.801   6.462  1.4881 -1.7246  0.0255
 1284TIP3    H225488   4.275   6.887   6.365  0.3588 -0.8623 -0.1433
 1285TIP3   OH225489   6.178   4.477   8.429  0.1274 -0.0737  0.3800
 1285TIP3    H125490   6.084   4.456   8.430 -0.0943  0.8185 -0.0563
 1285TIP3    H225491   6.190   4.534   8.504  0.3980 -0.4666  0.6367
 1286TIP3   OH225492   6.479   2.055   0.247  0.1601  0.0942 -0.2691
 1286TIP3    H125493   6.514   1.970   0.273 -0.6947  0.2828  1.6432
 1286TIP3    H225494   6.537   2.119   0.288 -2.1242  0.4079  2.8124
 1287TIP3   OH225495   4.839   2.342   7.123 -0.6094 -0.0920 -0.5044
 1287TIP3    H125496   4.927   2.322   7.155 -1.3378 -1.4592  0.7666
 1287TIP3    H225497   4.841   2.436   7.105  1.5405 -0.3462 -1.9977
 1288TIP3   OH225498   3.203   4.878   0.062  0.2319 -0.4568 -0.1863
 1288TIP3    H125499   3.283   4.863   0.114  0.1203 -1.3042 -0.2389
 1288TIP3    H225500   3.142   4.812   0.093  0.5634 -1.8199 -2.2275
 1289TIP3   OH225501   0.966   3.044   1.406 -0.4244  0.0865  1.0271
 1289TIP3    H125502   0.879   3.008   1.387 -0.5209  1.4837 -1.9387
 1289TIP3    H225503   0.950   3.138   1.414  0.6077  0.1688  2.2578
 1290TIP3   OH225504   2.748   5.459   6.378 -0.2185 -0.9518  0.0696
 1290TIP3    H125505   2.760   5.511   6.457  0.2499  0.2617 -0.7684
 1290TIP3    H225506   2.833   5.461   6.334 -0.5141 -1.4727 -0.5413
 1291TIP3   OH225507   2.729   4.555   1.831 -0.1040 -0.1419  0.6145
 1291TIP3    H125508   2.808   4.509   1.862  0.7112  0.4706 -0.4640
 1291TIP3    H225509   2.692   4.496   1.766 -0.6249 -0.4891  1.2178
 1292TIP3   OH225510   1.967   6.231   1.331 -0.3547  0.1088  0.2864
 1292TIP3    H125511   1.942   6.140   1.316  0.0890 -0.3865  2.2532
 1292TIP3    H225512   2.055   6.238   1.293 -0.4633 -0.2360 -0.0340
 1293TIP3   OH225513   1.813   1.044   0.588  0.0612 -0.2214 -0.2790
 1293TIP3    H125514   1.776   1.122   0.548  1.2006 -1.1341 -3.4538
 1293TIP3    H225515   1.906   1.065   0.600 -0.4208  0.5042  3.4857
 1294TIP3   OH225516   3.538   2.356   1.461 -0.3401 -0.3700 -0.5071
 1294TIP3    H125517   3.631   2.364   1.480 -0.3280  0.8388 -1.0070
 1294TIP3    H225518   3.501   2.442   1.483 -1.1567 -0.5166 -1.2400
 1295TIP3   OH225519   1.121   4.476   1.615  0.2222  0.4947  0.3344
 1295TIP3    H125520   1.127   4.567   1.585 -0.4823  0.5542  0.3502
 1295TIP3    H225521   1.027   4.456   1.613  0.5291 -1.1010 -2.2369
 1296TIP3   OH225522   2.406   4.041   6.997 -0.0014  0.3975  0.2202
 1296TIP3    H125523   2.473   3.973   7.003 -1.0213 -0.6163  0.8056
 1296TIP3    H225524   2.415   4.077   6.909 -0.4422 -1.6160 -0.7128
 1297TIP3   OH225525   4.029   3.860   1.844  0.1830 -0.2911 -0.2688
 1297TIP3    H125526   3.954   3.844   1.901 -1.0839  0.9200 -1.5253
 1297TIP3    H225527   4.081   3.925   1.891 -1.0510  0.9916 -0.6106
 1298TIP3   OH225528   1.899   3.274   0.531  0.3888 -0.2509 -0.2881
 1298TIP3    H125529   1.817   3.240   0.568  0.4061  1.1505  1.1799
 1298TIP3    H225530   1.943   3.314   0.606  2.4342 -0.9816 -1.0572
 1299TIP3   OH225531   6.470   5.151   8.096  0.2138  0.0955  0.0509
 1299TIP3    H125532   6.559   5.116   8.087  0.5044  0.2957  1.8877
 1299TIP3    H225533   6.440   5.121   8.181 -0.5224  2.1190  0.5629
 1300TIP3   OH225534   1.172   3.949   0.417 -0.4334  0.7273 -0.5120
 1300TIP3    H125535   1.237   3.947   0.347  0.4607  0.1943  0.2929
 1300TIP3    H225536   1.211   3.896   0.487 -2.2543 -0.6167 -0.4359
 1301TIP3   OH225537   3.530   4.601   0.835 -0.6730 -0.8058  0.5946
 1301TIP3    H125538   3.488   4.521   0.804 -0.9640 -0.9959  1.4456
 1301TIP3    H225539   3.475   4.672   0.799  1.0959 -0.8115 -2.4482
 1302TIP3   OH225540   0.117   3.394   7.137  0.1675 -0.0278 -0.0539
 1302TIP3    H125541   0.136   3.444   7.058  1.4062  0.7235  0.6988
 1302TIP3    H225542   0.152   3.307   7.119  0.2418  0.0770 -0.4145
 1303TIP3   OH225543   2.941   4.551   0.948 -0.1248  0.0362 -0.0004
 1303TIP3    H125544   2.964   4.597   0.866 -1.2725  2.4344  0.9052
 1303TIP3    H225545   2.860   4.506   0.927 -0.3634  0.5590 -0.2400
 1304TIP3   OH225546   2.787   6.788   8.096  0.1904 -0.4797 -0.2913
 1304TIP3    H125547   2.797   6.870   8.145 -1.9596 -0.2568 -0.1253
 1304TIP3    H225548   2.810   6.811   8.006  2.1479 -0.3784  0.1990
 1305TIP3   OH225549   3.148   3.066   0.025 -0.3569  0.0379  0.1506
 1305TIP3    H125550   3.072   3.114  -0.010 -1.0883 -0.2468  1.2864
 1305TIP3    H225551   3.183   3.019  -0.051 -0.5357  1.1772 -0.6641
 1306TIP3   OH225552   3.617   1.595   1.920  0.1771 -0.3755 -0.2617
 1306TIP3    H125553   3.531   1.637   1.925 -0.7996 -2.3063  0.3940
 1306TIP3    H225554   3.651   1.599   2.009  0.6053  0.0218 -0.4368
 1307TIP3   OH225555   6.872   1.146   1.070 -0.9290  0.3707  0.3266
 1307TIP3    H125556   6.916   1.069   1.036 -2.6506 -0.2127 -0.6802
 1307TIP3    H225557   6.912   1.220   1.024 -0.4770 -0.0830 -0.0090
 1308TIP3   OH225558   6.494   2.327   0.820 -0.0007  0.0780  0.3171
 1308TIP3    H125559   6.518   2.289   0.735  0.2678 -0.7647  0.7680
 1308TIP3    H225560   6.564   2.390   0.838  1.9237 -2.2762  1.5718
 1309TIP3   OH225561   6.968   1.552   2.547 -0.0907 -0.3870  0.3628
 1309TIP3    H125562   7.020   1.614   2.600  0.3581 -1.8216  1.6913
 1309TIP3    H225563   6.877   1.575   2.565  0.0266  1.4344 -1.1041
 1310TIP3   OH225564   4.396   6.892   1.853 -0.1760  0.5081  0.4925
 1310TIP3    H125565   4.475   6.922   1.809 -1.3672  1.6130 -1.0312
 1310TIP3    H225566   4.353   6.973   1.881 -0.3026 -0.1112  2.1934
 1311TIP3   OH225567   0.564   3.927   0.679  0.4050 -0.1183 -0.3598
 1311TIP3    H125568   0.650   3.892   0.703  0.1839  0.6077  1.7174
 1311TIP3    H225569   0.503   3.885   0.740 -0.4332  0.7859 -0.5548
 1312TIP3   OH225570   3.463   5.162   1.561  0.5040 -0.0246  0.4044
 1312TIP3    H125571   3.383   5.203   1.594  0.6171 -0.3492  1.1130
 1312TIP3    H225572   3.450   5.153   1.467  0.6270  2.0026  0.1435
 1313TIP3   OH225573   0.570   4.652   7.139 -0.4318  0.3779  0.5608
 1313TIP3    H125574   0.508   4.695   7.080 -2.5707 -1.9041  0.9591
 1313TIP3    H225575   0.527   4.655   7.225  0.1812 -0.8731  0.9410
 1314TIP3   OH225576   6.898   0.359   6.572 -0.1430  0.6392  0.1659
 1314TIP3    H125577   6.898   0.441   6.523 -1.6844  0.1003 -0.8070
 1314TIP3    H225578   6.840   0.376   6.647  1.2058  1.0647  1.1497
 1315TIP3   OH225579   4.576   2.610   7.233  0.0547 -0.6619 -0.4338
 1315TIP3    H125580   4.528   2.637   7.155  2.3807 -0.7492 -2.0080
 1315TIP3    H225581   4.543   2.522   7.252 -2.0014  0.1591 -0.0158
 1316TIP3   OH225582   4.483   5.366   0.763 -0.1202  0.6039  0.3259
 1316TIP3    H125583   4.521   5.432   0.821  0.7306  0.4792 -0.0636
 1316TIP3    H225584   4.452   5.297   0.822  1.0403  0.3179  0.6378
 1317TIP3   OH225585   4.383   6.663   7.846  0.4689 -0.4229 -0.3819
 1317TIP3    H125586   4.357   6.652   7.755  1.2578  2.2965 -1.0309
 1317TIP3    H225587   4.455   6.726   7.843 -0.0930  0.4720  2.1874
 1318TIP3   OH225588   0.213   1.100   7.227 -0.1202  0.4869  0.4606
 1318TIP3    H125589   0.236   1.186   7.193  0.8486  1.0608  2.4683
 1318TIP3    H225590   0.270   1.040   7.179  1.0808  1.2557  0.8817
 1319TIP3   OH225591   2.598   2.136   0.994 -0.1715 -0.1587  0.4047
 1319TIP3    H125592   2.680   2.161   0.952 -0.8295  0.0864 -0.7789
 1319TIP3    H225593   2.531   2.159   0.931 -1.4325  2.4082  2.4887
 1320TIP3   OH225594   6.114   6.413   0.849 -0.1710  0.3174 -0.2667
 1320TIP3    H125595   6.196   6.440   0.890 -0.0546  0.3271 -0.5093
 1320TIP3    H225596   6.070   6.360   0.916  0.3871 -0.3538 -0.4200
 1321TIP3   OH225597   2.791   2.615   1.885 -0.6064 -0.1304  0.1643
 1321TIP3    H125598   2.805   2.667   1.965  0.0867  0.2367 -0.1871
 1321TIP3    H225599   2.789   2.524   1.915 -0.5798  0.0214  0.6309
 1322TIP3   OH225600   3.424   1.282   1.874 -0.2163  0.1985 -0.7279
 1322TIP3    H125601   3.468   1.290   1.959  0.8436  2.0212 -1.3928
 1322TIP3    H225602   3.437   1.367   1.832 -1.2722 -0.4441 -2.4635
 1323TIP3   OH225603   6.258   3.991   8.069  0.0163  0.6362 -0.5004
 1323TIP3    H125604   6.173   3.983   8.027  0.2062 -0.0483 -0.7792
 1323TIP3    H225605   6.242   4.044   8.147 -0.9952 -0.8601  0.3586
 1324TIP3   OH225606   2.167   1.948   7.954 -0.1716  0.6047  0.5643
 1324TIP3    H125607   2.122   1.912   7.878  1.3864  0.7269 -0.4573
 1324TIP3    H225608   2.172   2.042   7.936  0.6343  0.5653  0.5851
 1325TIP3   OH225609   4.986   3.453   0.355  0.6737 -0.4041 -0.7021
 1325TIP3    H125610   4.892   3.456   0.337  0.4686  1.1239  0.3673
 1325TIP3    H225611   5.020   3.387   0.295 -1.0246 -0.7561 -1.3465
 1326TIP3   OH225612   2.522   0.150   7.311 -0.0446 -0.4967 -0.0716
 1326TIP3    H125613   2.562   0.086   7.370 -0.3036 -0.5163  0.0856
 1326TIP3    H225614   2.428   0.146   7.331  0.0299  0.5514  0.5552
 1327TIP3   OH225615   6.087   6.723   2.278 -0.3301 -0.1678  0.2190
 1327TIP3    H125616   6.022   6.674   2.328 -0.2912 -0.6955 -0.2379
 1327TIP3    H225617   6.162   6.731   2.337  0.2596 -2.0053 -0.1933
 1328TIP3   OH225618   0.173   6.803   8.279  0.6115 -0.2756 -0.2292
 1328TIP3    H125619   0.080   6.808   8.303  0.7050 -1.3077  0.4126
 1328TIP3    H225620   0.213   6.878   8.322  0.0873  0.1690 -0.4917
 1329TIP3   OH225621   1.239   0.352   7.938 -0.2070  0.0153  0.6361
 1329TIP3    H125622   1.194   0.289   7.882  0.8510 -0.4629  0.3040
 1329TIP3    H225623   1.332   0.332   7.928  0.1159  1.2154  1.0203
 1330TIP3   OH225624   6.870   3.071   1.732  0.3552  0.2841  0.2690
 1330TIP3    H125625   6.822   3.144   1.692  1.7024  1.5258  0.8238
 1330TIP3    H225626   6.928   3.113   1.795  1.3414 -1.2742  0.4393
 1331TIP3   OH225627   0.033   3.170   0.135  0.3690  0.2455 -0.2537
 1331TIP3    H125628   0.104   3.112   0.164 -0.1386 -2.1851 -3.3010
 1331TIP3    H225629   0.076   3.254   0.122  1.5961  0.1376  2.4156
 1332TIP3   OH225630   2.635   4.927   2.087 -0.4415  0.0308 -0.6093
 1332TIP3    H125631   2.634   5.014   2.127  2.2217  0.4415 -1.2314
 1332TIP3    H225632   2.614   4.868   2.159  1.4226  0.9594  0.8008
 1333TIP3   OH225633   4.218   1.075   6.971 -0.1232  0.8640 -0.0665
 1333TIP3    H125634   4.228   1.007   6.904  2.9821  2.2237 -1.1786
 1333TIP3    H225635   4.254   1.036   7.051  1.5040  1.0553 -0.6630
 1334TIP3   OH225636   6.952   3.613   8.073 -0.3746  0.0194  0.3678
 1334TIP3    H125637   6.961   3.586   8.164  2.5037  2.4382  0.9847
 1334TIP3    H225638   6.905   3.696   8.077  0.8266  0.7554 -0.1680
 1335TIP3   OH225639   1.984   5.199   1.203 -0.1789 -0.1144 -0.0019
 1335TIP3    H125640   1.958   5.118   1.247 -3.0960  0.9413  0.4956
 1335TIP3    H225641   1.956   5.187   1.112  2.0599 -0.7112 -0.6631
 1336TIP3   OH225642   0.479   5.499   8.440 -0.0612 -0.1315 -1.2437
 1336TIP3    H125643   0.548   5.526   8.501  0.7906 -0.6044 -1.9604
 1336TIP3    H225644   0.423   5.575   8.430  0.2978  0.2274 -0.5519
 1337TIP3   OH225645   1.539   1.156   0.716 -0.4036 -0.3645 -0.0111
 1337TIP3    H125646   1.588   1.218   0.770  0.8294 -1.6894  0.4782
 1337TIP3    H225647   1.448   1.181   0.727  0.0975  1.9683 -0.6631
 1338TIP3   OH225648   3.231   3.515   1.184 -0.1584  0.0267  0.0164
 1338TIP3    H125649   3.194   3.601   1.164 -1.3739 -0.7323 -1.1853
 1338TIP3    H225650   3.312   3.534   1.231 -0.0657  1.8374 -0.7890
 1339TIP3   OH225651   5.039   3.867   0.447  0.1749  0.1329 -0.2396
 1339TIP3    H125652   5.006   3.863   0.357  0.7862  0.2108 -0.4748
 1339TIP3    H225653   5.057   3.776   0.470 -0.9465  0.0081  0.1793
 1340TIP3   OH225654   4.528   1.135   2.756  0.1001 -0.0943  0.5800
 1340TIP3    H125655   4.457   1.117   2.695 -0.7717 -0.4492  1.6556
 1340TIP3    H225656   4.498   1.097   2.839  0.2026  2.2970  1.8252
 1341TIP3   OH225657   0.715   6.714   0.212 -0.0612  0.0116 -0.1812
 1341TIP3    H125658   0.703   6.711   0.307 -0.9320 -0.2302 -0.2881
 1341TIP3    H225659   0.809   6.705   0.200  0.4695  2.9590  0.7826
 1342TIP3   OH225660   2.971   1.311   8.131 -0.0926  0.0514  0.5189
 1342TIP3    H125661   3.023   1.302   8.051  1.1685  0.2063  1.2866
 1342TIP3    H225662   2.980   1.403   8.154 -0.5427  0.0288  0.7811
 1343TIP3   OH225663   0.758   1.015   7.354  0.5577  0.3737 -0.8159
 1343TIP3    H125664   0.696   0.942   7.352  0.5171  0.4017 -0.6179
 1343TIP3    H225665   0.806   1.003   7.436  2.0238 -0.6597 -1.7609
 1344TIP3   OH225666   5.205   6.079   2.214 -0.2563 -0.2532 -0.1359
 1344TIP3    H125667   5.165   6.001   2.176 -0.9279  0.4739 -0.9605
 1344TIP3    H225668   5.293   6.081   2.176  0.2908 -1.3797  1.0108
 1345TIP3   OH225669   2.461   5.478   7.834 -0.2553 -0.1241  0.2880
 1345TIP3    H125670   2.475   5.572   7.843 -1.6555  0.1605 -0.2236
 1345TIP3    H225671   2.392   5.457   7.897 -0.6368 -0.6038 -0.2690
 1346TIP3   OH225672   3.607   0.226   7.133 -0.3152  0.0471  0.3131
 1346TIP3    H125673   3.540   0.276   7.086 -0.6661 -1.2561 -0.6452
 1346TIP3    H225674   3.642   0.166   7.068 -0.9319 -1.9581  1.7270
 1347TIP3   OH225675   6.371   1.928   8.181 -0.3747 -0.6321  0.7581
 1347TIP3    H125676   6.412   1.942   8.266  0.8480 -0.1469  0.1187
 1347TIP3    H225677   6.442   1.895   8.126 -0.5087  1.3983 -0.7308
 1348TIP3   OH225678   5.503   1.419   0.490  0.4578 -0.1585  0.5806
 1348TIP3    H125679   5.566   1.452   0.554 -0.9114 -0.2395  2.0337
 1348TIP3    H225680   5.488   1.491   0.430  0.6672  0.4375  1.2351
 1349TIP3   OH225681   5.429   6.107   2.085 -0.1782  0.8455  0.3898
 1349TIP3    H125682   5.502   6.089   2.144 -0.6457 -0.5636  0.5785
 1349TIP3    H225683   5.432   6.035   2.021 -1.5382  0.6306  0.5481
 1350TIP3   OH225684   4.509   2.861   6.773  0.2001  0.2676  0.2447
 1350TIP3    H125685   4.510   2.859   6.678 -0.3162  2.0444  0.1672
 1350TIP3    H225686   4.440   2.924   6.795  1.0893  0.7676  1.7562
 1351TIP3   OH225687   4.241   5.870   2.296  0.1534 -0.5119  0.2821
 1351TIP3    H125688   4.258   5.782   2.262  0.4198 -0.5882  0.6063
 1351TIP3    H225689   4.196   5.915   2.224  1.6482 -0.3360 -0.6002
 1352TIP3   OH225690   6.912   6.841   8.399  0.2791  0.1103  0.4003
 1352TIP3    H125691   6.859   6.817   8.323  1.6507  1.5586 -1.1125
 1352TIP3    H225692   6.880   6.927   8.425 -0.8397 -0.7816  2.1679
 1353TIP3   OH225693   1.607   5.801   0.513 -0.3517 -0.0829 -0.1278
 1353TIP3    H125694   1.527   5.843   0.547 -0.8339 -0.0853 -1.2250
 1353TIP3    H225695   1.639   5.861   0.446 -1.7143 -1.9054 -2.5926
 1354TIP3   OH225696   4.134   0.274   7.156  0.2869  0.0899  0.4801
 1354TIP3    H125697   4.189   0.205   7.193 -0.7263 -0.9129  0.1639
 1354TIP3    H225698   4.129   0.340   7.225 -0.6279 -1.2081  1.7090
 1355TIP3   OH225699   4.976   2.084   8.105 -0.2519 -0.0106  0.3006
 1355TIP3    H125700   4.901   2.133   8.141 -1.1084 -2.5032  2.1885
 1355TIP3    H225701   5.010   2.035   8.179  0.5669 -2.2177 -1.4350
 1356TIP3   OH225702   4.087   4.973   7.814 -0.1376 -0.2270  1.3502
 1356TIP3    H125703   4.024   4.951   7.884  0.7854  2.3861  3.1627
 1356TIP3    H225704   4.172   4.962   7.855  0.4548  0.5866  0.3773
 1357TIP3   OH225705   4.266   0.415   0.206  0.8427  0.1591 -0.4680
 1357TIP3    H125706   4.272   0.507   0.181  1.8912  1.1695  2.9569
 1357TIP3    H225707   4.178   0.406   0.242  0.7444 -0.1554 -0.7928
 1358TIP3   OH225708   3.803   1.138   7.386 -0.1307  0.2170 -0.7751
 1358TIP3    H125709   3.737   1.072   7.405 -0.2278  0.5161 -0.0375
 1358TIP3    H225710   3.854   1.102   7.313 -1.3670  0.1721 -1.6461
 1359TIP3   OH225711   4.868   1.425   6.718  0.4170  0.1112 -0.0670
 1359TIP3    H125712   4.951   1.394   6.756  0.4338 -0.0730 -0.2539
 1359TIP3    H225713   4.890   1.511   6.681  0.2811  0.5149  0.7749
 1360TIP3   OH225714   4.558   3.505   1.223 -0.5884 -0.2291  0.0391
 1360TIP3    H125715   4.652   3.518   1.210 -0.4613  0.3353  1.3831
 1360TIP3    H225716   4.517   3.559   1.155  0.0497  0.4493  0.1738
 1361TIP3   OH225717   0.662   1.509   1.223  0.4233  0.1263  0.3701
 1361TIP3    H125718   0.673   1.513   1.318 -2.3860 -1.3398  0.8498
 1361TIP3    H225719   0.712   1.584   1.191  1.0880  0.9405  3.0261
 1362TIP3   OH225720   1.385   3.579   7.705  0.1545 -0.0362 -0.3916
 1362TIP3    H125721   1.377   3.523   7.627 -1.4726  0.7768 -0.8414
 1362TIP3    H225722   1.298   3.617   7.716  0.3116 -0.2546  1.9465
 1363TIP3   OH225723   3.732   2.070   0.697 -0.1089  0.0453  0.2818
 1363TIP3    H125724   3.693   2.088   0.612 -0.7556  0.8022  0.7280
 1363TIP3    H225725   3.710   1.979   0.715 -0.3609  0.0183 -0.1542
 1364TIP3   OH225726   3.142   3.136   1.834  0.2852 -0.1583 -0.5282
 1364TIP3    H125727   3.148   3.152   1.739  0.9816 -3.0842 -1.0778
 1364TIP3    H225728   3.233   3.143   1.864  0.1201  0.3464 -0.1417
 1365TIP3   OH225729   6.930   0.519   0.868  0.0965 -0.1395  0.2260
 1365TIP3    H125730   6.894   0.500   0.954  1.9539 -2.8038  0.5100
 1365TIP3    H225731   7.025   0.518   0.880  0.4034  0.0161 -1.7375
 1366TIP3   OH225732   6.618   2.117   2.253  0.0449 -0.8106 -0.3886
 1366TIP3    H125733   6.552   2.100   2.186 -0.2172 -1.5054  0.0318
 1366TIP3    H225734   6.582   2.078   2.333  0.3623 -0.0113  0.1535
 1367TIP3   OH225735   3.624   2.663   1.941  0.1277 -0.5502 -0.1036
 1367TIP3    H125736   3.692   2.719   1.905 -1.1212  1.3306  0.3351
 1367TIP3    H225737   3.651   2.646   2.031 -0.0422  0.3336  0.1229
 1368TIP3   OH225738   0.030   3.533   0.103  0.4535  0.9237  0.2973
 1368TIP3    H125739   0.015   3.563   0.193 -0.4346 -0.3718  0.6110
 1368TIP3    H225740   0.118   3.494   0.105  0.4278  0.8813  0.6075
 1369TIP3   OH225741   6.737   3.401   7.831  0.8697  0.6603  0.4407
 1369TIP3    H125742   6.652   3.392   7.788  0.4472 -1.8060  1.6361
 1369TIP3    H225743   6.719   3.452   7.910  0.4537  0.0878  0.7255
 1370TIP3   OH225744   5.898   6.380   7.826  0.0961 -0.4606 -0.3846
 1370TIP3    H125745   5.973   6.438   7.811  0.9105 -1.4243 -0.1721
 1370TIP3    H225746   5.932   6.312   7.884 -1.6912  0.5579  2.0368
 1371TIP3   OH225747   2.453   3.527   8.166  0.0788 -0.4888  0.0667
 1371TIP3    H125748   2.428   3.598   8.107  0.1256 -2.3545 -2.3753
 1371TIP3    H225749   2.371   3.481   8.184  0.0482  0.1232  1.6219
 1372TIP3   OH225750   1.005   2.241   7.629  0.8620  0.1158 -0.0465
 1372TIP3    H125751   0.991   2.264   7.537 -0.6811 -1.9696 -0.4098
 1372TIP3    H225752   1.078   2.179   7.627  0.2647 -0.6014  0.0020
 1373TIP3   OH225753   0.085   6.237   7.159 -0.6749 -0.2126  0.6057
 1373TIP3    H125754   0.056   6.217   7.248  1.3168  0.6724  1.5253
 1373TIP3    H225755   0.045   6.169   7.105 -1.2816 -1.2664  2.2928
 1374TIP3   OH225756   6.297   0.278   7.660 -0.2458 -0.2330  0.0884
 1374TIP3    H125757   6.325   0.223   7.734  0.2583  1.5416  1.2603
 1374TIP3    H225758   6.379   0.307   7.620 -0.4919  0.3363 -0.0071
 1375TIP3   OH225759   1.154   5.217   8.084 -0.1003  0.3281  0.3408
 1375TIP3    H125760   1.084   5.283   8.074 -0.6752 -0.0090  1.9027
 1375TIP3    H225761   1.121   5.157   8.151  1.9625  0.5039  1.5810
 1376TIP3   OH225762   2.967   2.149   6.648 -0.5387 -0.2583  0.5492
 1376TIP3    H125763   2.962   2.222   6.587 -1.9416 -1.6720 -1.0979
 1376TIP3    H225764   3.058   2.120   6.643 -0.0599  1.0991  0.9492
 1377TIP3   OH225765   5.176   4.715   1.290 -0.2758 -0.1980 -0.3564
 1377TIP3    H125766   5.268   4.740   1.280 -0.1214 -0.5540  0.1654
 1377TIP3    H225767   5.129   4.799   1.292 -0.2128 -0.0417 -2.7536
 1378TIP3   OH225768   3.584   1.810   8.205  1.0197  0.7116 -0.4973
 1378TIP3    H125769   3.676   1.837   8.211  1.6762 -1.7138  3.1089
 1378TIP3    H225770   3.587   1.730   8.154  0.7736  0.9734 -0.9298
 1379TIP3   OH225771   5.813   5.934   8.408 -0.1554  0.4817 -0.5214
 1379TIP3    H125772   5.867   5.863   8.443 -2.9875 -1.4802  0.2582
 1379TIP3    H225773   5.766   5.968   8.484 -1.6381  0.5579 -1.4261
 1380TIP3   OH225774   5.274   6.184   0.673 -0.4264 -0.4132 -0.1060
 1380TIP3    H125775   5.337   6.128   0.717 -0.1683  0.4472  0.6487
 1380TIP3    H225776   5.190   6.161   0.712  0.0841  2.0783  2.7816
 1381TIP3   OH225777   2.353   0.740   1.760  0.3685  0.0760 -0.1898
 1381TIP3    H125778   2.434   0.786   1.781  0.0197  0.7898 -0.3659
 1381TIP3    H225779   2.296   0.808   1.724 -0.1727 -0.4943 -0.4179
 1382TIP3   OH225780   6.044   0.671   0.399 -0.1921 -0.6232 -0.5089
 1382TIP3    H125781   5.989   0.729   0.347 -0.8704 -0.8695 -0.0786
 1382TIP3    H225782   6.133   0.687   0.367 -0.4071  0.4064 -0.6192
 1383TIP3   OH225783   3.260   4.954   1.849  0.0150  0.4963  0.1275
 1383TIP3    H125784   3.209   5.031   1.873 -2.4518 -1.1266  0.4736
 1383TIP3    H225785   3.260   4.899   1.927 -0.3061 -0.8835 -0.8012
 1384TIP3   OH225786   3.053   2.552   0.719  0.3066  0.2533 -0.0114
 1384TIP3    H125787   3.075   2.506   0.639  0.9327 -1.0334  0.8672
 1384TIP3    H225788   3.120   2.621   0.726  1.4927 -0.8884  0.3971
 1385TIP3   OH225789   1.521   1.123   0.352  0.4219 -0.3853  0.0978
 1385TIP3    H125790   1.529   1.211   0.389 -0.3018  0.0105 -0.6640
 1385TIP3    H225791   1.537   1.136   0.258 -0.3788 -0.9469 -0.1229
 1386TIP3   OH225792   1.861   1.318   7.283 -0.5035 -0.1783 -0.2754
 1386TIP3    H125793   1.908   1.291   7.204 -0.3952 -0.5220 -0.0921
 1386TIP3    H225794   1.861   1.414   7.278 -0.9553 -0.2070 -0.9591
 1387TIP3   OH225795   1.898   5.798   6.715  0.5074 -0.2556 -0.2014
 1387TIP3    H125796   1.928   5.791   6.806  0.6785 -1.2911 -0.3162
 1387TIP3    H225797   1.974   5.833   6.668  0.9253 -1.0680 -0.1676
 1388TIP3   OH225798   4.029   4.889   1.411 -0.5529  0.1106 -1.0311
 1388TIP3    H125799   4.101   4.826   1.414  0.1425  0.9052 -0.7294
 1388TIP3    H225800   3.998   4.884   1.320  0.9219  0.8749 -1.6219
 1389TIP3   OH225801   3.853   6.000   0.593  0.0646 -0.2919 -0.2681
 1389TIP3    H125802   3.787   6.049   0.544 -0.4803 -1.0236 -0.2924
 1389TIP3    H225803   3.858   5.916   0.548  0.6439 -0.4281  0.0424
 1390TIP3   OH225804   2.504   0.032   8.235  0.0016 -0.4703 -0.1368
 1390TIP3    H125805   2.439   0.071   8.293  0.0059  0.4979 -0.7633
 1390TIP3    H225806   2.466  -0.052   8.209 -0.5623 -0.3366  0.2516
 1391TIP3   OH225807   1.581   3.794   1.848 -0.0065 -0.3397  0.3242
 1391TIP3    H125808   1.537   3.761   1.770  0.9735 -0.9987  0.0328
 1391TIP3    H225809   1.662   3.834   1.815 -0.3903  0.9100  0.8411
 1392TIP3   OH225810   0.973   2.140   7.972 -0.9613 -0.0530  0.3860
 1392TIP3    H125811   1.017   2.131   7.888  0.1195  0.9386  0.8231
 1392TIP3    H225812   0.884   2.107   7.956 -0.0132 -2.4087 -0.4294
 1393TIP3   OH225813   6.379   3.292   7.434 -0.5005  0.2693  0.3851
 1393TIP3    H125814   6.300   3.321   7.388 -1.6341 -1.1168  1.3375
 1393TIP3    H225815   6.373   3.196   7.433  1.3579  0.1255  0.2178
 1394TIP3   OH225816   6.270   2.146   7.361  0.9121 -0.1360 -0.0031
 1394TIP3    H125817   6.232   2.139   7.449 -0.2244  2.3015 -0.2154
 1394TIP3    H225818   6.328   2.222   7.367  0.9433 -0.0447 -1.3155
 1395TIP3   OH225819   3.709   3.785   0.599 -0.5483 -0.1318 -0.1711
 1395TIP3    H125820   3.726   3.704   0.552  0.5676  0.1651 -0.3024
 1395TIP3    H225821   3.754   3.776   0.682 -2.5985 -0.6906  0.9453
 1396TIP3   OH225822   3.133   2.133   0.227 -0.2487 -0.1230 -0.1324
 1396TIP3    H125823   3.059   2.074   0.223 -0.9603  0.7441 -0.0771
 1396TIP3    H225824   3.104   2.212   0.181  0.0482  0.8383  1.2589
 1397TIP3   OH225825   1.171   0.126   8.134  0.2009  0.6107 -0.5857
 1397TIP3    H125826   1.106   0.113   8.203  0.6416  3.4100  0.4854
 1397TIP3    H225827   1.122   0.115   8.052 -1.0083  0.0831  0.1883
 1398TIP3   OH225828   6.862   4.363   6.622  0.0522  0.0710  0.0219
 1398TIP3    H125829   6.934   4.376   6.684  0.8362  1.6279 -1.1454
 1398TIP3    H225830   6.905   4.325   6.545 -0.5679 -0.0020 -0.2902
 1399TIP3   OH225831   2.833   5.737   7.490  0.0567 -0.3448  0.1374
 1399TIP3    H125832   2.866   5.827   7.500 -1.2050  0.0324  1.0814
 1399TIP3    H225833   2.793   5.736   7.403  0.3119 -0.0709  0.0137
 1400TIP3   OH225834   0.761   3.785   0.022 -0.0302 -0.8673 -0.4353
 1400TIP3    H125835   0.849   3.796   0.060  0.6722 -0.4210 -2.1172
 1400TIP3    H225836   0.769   3.707  -0.034 -1.0444 -1.5062  0.2687
 1401TIP3   OH225837   5.039   0.088   1.227  0.1118 -0.7545  0.7544
 1401TIP3    H125838   4.973   0.080   1.295  0.3564 -1.8663  0.8698
 1401TIP3    H225839   5.111   0.136   1.269 -0.7542  0.8255  0.5084
 1402TIP3   OH225840   6.495   1.948   0.613 -0.5334  0.6267  0.4069
 1402TIP3    H125841   6.501   2.040   0.590  3.1008  0.6028  0.6755
 1402TIP3    H225842   6.517   1.944   0.706 -1.5013 -0.4467  0.6152
 1403TIP3   OH225843   6.254   2.251   0.484  0.1015  0.1192 -0.4356
 1403TIP3    H125844   6.347   2.262   0.467 -0.0400  0.1496 -1.2456
 1403TIP3    H225845   6.212   2.315   0.426 -0.4043  0.3573  0.1871
 1404TIP3   OH225846   6.703   5.270   1.055  0.3128 -0.2279 -0.6878
 1404TIP3    H125847   6.734   5.302   0.970  1.2680  1.6221  0.3060
 1404TIP3    H225848   6.752   5.189   1.070  0.4394 -0.3509 -1.7005
 1405TIP3   OH225849   6.177   5.508   0.787  0.1646  1.0551 -0.2717
 1405TIP3    H125850   6.265   5.506   0.824  0.3086  1.0661 -0.6097
 1405TIP3    H225851   6.138   5.424   0.813 -0.0336  1.4089  0.6095
 1406TIP3   OH225852   5.511   5.102   7.764 -0.3038  0.5705  0.8687
 1406TIP3    H125853   5.432   5.052   7.786 -0.0672 -0.4012 -0.3730
 1406TIP3    H225854   5.481   5.168   7.702 -0.3003  0.8506  1.1599
 1407TIP3   OH225855   5.168   4.690   7.068  0.5055 -0.6748 -0.2314
 1407TIP3    H125856   5.164   4.780   7.103  0.9114 -0.6721 -0.1862
 1407TIP3    H225857   5.194   4.701   6.977 -0.0601 -0.7118 -0.3989
 1408TIP3   OH225858   1.183   4.259   8.428 -0.9693  0.0033 -0.0180
 1408TIP3    H125859   1.260   4.273   8.373 -1.1221  1.1233  0.0131
 1408TIP3    H225860   1.109   4.287   8.374 -1.4354 -1.5538 -0.2393
 1409TIP3   OH225861   2.913   6.031   1.352  0.2775 -0.4564  0.4505
 1409TIP3    H125862   2.853   6.022   1.425  1.1344 -0.7910  1.1253
 1409TIP3    H225863   2.919   5.943   1.314 -2.6537  0.2573 -2.0938
 1410TIP3   OH225864   6.843   4.206   7.652  0.2307 -0.1893  0.3869
 1410TIP3    H125865   6.877   4.119   7.632  1.0619 -0.0386  1.0586
 1410TIP3    H225866   6.750   4.192   7.669 -0.0558 -0.6228 -1.4280
 1411TIP3   OH225867   6.271   1.579   0.958  0.6713  0.1968 -0.3017
 1411TIP3    H125868   6.253   1.602   1.049 -0.8143 -0.5181 -0.3939
 1411TIP3    H225869   6.363   1.555   0.958  0.4896 -0.6383  1.1945
 1412TIP3   OH225870   5.307   0.898   7.463  0.2819  0.4618 -0.0528
 1412TIP3    H125871   5.281   0.969   7.404 -0.5408  0.7363  0.6180
 1412TIP3    H225872   5.246   0.905   7.536  1.3014  0.1459  0.8509
 1413TIP3   OH225873   1.534   3.715   6.719 -0.2772  0.3691  0.7630
 1413TIP3    H125874   1.585   3.728   6.799 -1.5821 -0.5894  1.7910
 1413TIP3    H225875   1.470   3.787   6.719 -0.3824  0.2759  0.6676
 1414TIP3   OH225876   3.891   3.463   2.105  0.0071  0.2442  0.4109
 1414TIP3    H125877   3.940   3.458   2.187  0.4195 -0.5457  0.1218
 1414TIP3    H225878   3.812   3.513   2.127  1.4349  2.5350  0.6468
 1415TIP3   OH225879   3.674   1.729   1.522  0.4165 -0.2560 -0.2359
 1415TIP3    H125880   3.670   1.805   1.464  1.0581  0.5771  0.7926
 1415TIP3    H225881   3.767   1.718   1.542  0.1926 -0.3892  0.8043
 1416TIP3   OH225882   1.653   3.879   0.351 -0.1993  0.3730 -0.0059
 1416TIP3    H125883   1.688   3.944   0.289 -1.5943  0.4842 -0.7293
 1416TIP3    H225884   1.724   3.863   0.412  1.5325 -0.3135 -2.0794
 1417TIP3   OH225885   3.107   4.207   0.536 -0.2369 -0.1058  0.2947
 1417TIP3    H125886   3.091   4.150   0.611  0.2378  2.3039  2.3537
 1417TIP3    H225887   3.187   4.173   0.497 -0.0503 -0.9561  1.3539
 1418TIP3   OH225888   6.052   3.606   7.366  0.2148  0.4267  0.4010
 1418TIP3    H125889   6.063   3.641   7.454 -0.3782 -0.0921  0.6868
 1418TIP3    H225890   6.025   3.515   7.379 -0.2816  0.4607 -0.3030
 1419TIP3   OH225891   0.888   2.803   7.925 -0.1096  0.2922 -0.2201
 1419TIP3    H125892   0.865   2.837   8.012 -1.6954  0.7287 -0.7702
 1419TIP3    H225893   0.919   2.714   7.942  0.5771  0.7156  0.8799
 1420TIP3   OH225894   5.141   1.866   1.379  0.6189  0.2047 -0.8780
 1420TIP3    H125895   5.074   1.824   1.433  1.3426  0.4565  0.2579
 1420TIP3    H225896   5.149   1.954   1.415 -0.0493  0.9515 -2.4802
 1421TIP3   OH225897   2.930   5.799   1.637 -0.5422 -0.2058 -0.1358
 1421TIP3    H125898   2.852   5.848   1.664 -0.4605  0.0890 -0.4254
 1421TIP3    H225899   2.908   5.768   1.549 -1.5040 -2.6184  0.8578
 1422TIP3   OH225900   0.640   1.056   1.578 -0.3784  0.2606 -0.0776
 1422TIP3    H125901   0.719   1.090   1.535  1.0436  0.6722  2.6737
 1422TIP3    H225902   0.635   0.965   1.550  1.0739  0.2282 -0.3192
 1423TIP3   OH225903   0.496   2.077   8.028  0.0540  0.1268  0.0293
 1423TIP3    H125904   0.576   2.045   7.985 -0.1847 -0.5773  0.0958
 1423TIP3    H225905   0.471   2.154   7.977  1.0434  0.6520  0.3062
 1424TIP3   OH225906   3.779   3.496   6.813  0.2487  0.6508  0.6244
 1424TIP3    H125907   3.820   3.412   6.836  1.3543  0.7264 -0.9595
 1424TIP3    H225908   3.834   3.532   6.744 -1.4445  1.6823 -0.2478
 1425TIP3   OH225909   6.206   4.037   7.481  0.0715  0.5880  0.4468
 1425TIP3    H125910   6.301   4.048   7.486 -0.0680  2.7102 -0.6116
 1425TIP3    H225911   6.186   4.042   7.388 -1.0661 -0.1934  0.6296
 1426TIP3   OH225912   4.457   1.746   0.012 -0.5583 -0.2618  0.2826
 1426TIP3    H125913   4.368   1.717  -0.008 -1.0743  1.5639 -0.2659
 1426TIP3    H225914   4.446   1.808   0.085  0.2130  0.2167  0.0097
 1427TIP3   OH225915   1.896   4.383   7.924 -0.5996  0.5788 -0.5660
 1427TIP3    H125916   1.886   4.388   7.829 -0.6036  0.2236 -0.5834
 1427TIP3    H225917   1.898   4.290   7.943 -0.7507  0.6507 -0.1981
 1428TIP3   OH225918   1.062   0.183   7.817 -0.0855 -0.9145  0.2792
 1428TIP3    H125919   1.055   0.118   7.748 -0.0745  0.7857 -1.4008
 1428TIP3    H225920   0.994   0.248   7.796  0.0153 -0.2742  1.7850
 1429TIP3   OH225921   3.608   2.506   6.481 -0.1009  0.0161 -0.1980
 1429TIP3    H125922   3.575   2.497   6.392 -2.0544 -1.1753  0.5906
 1429TIP3    H225923   3.587   2.597   6.505 -1.2802 -0.2020 -0.3369
 1430TIP3   OH225924   2.900   2.050   1.175 -0.0306  0.1256 -0.1220
 1430TIP3    H125925   2.984   2.010   1.198 -0.9562 -1.4115  0.7458
 1430TIP3    H225926   2.902   2.135   1.218 -0.2258 -1.2283  2.8242
 1431TIP3   OH225927   6.807   5.336   0.811 -0.3185 -0.6397 -0.2609
 1431TIP3    H125928   6.732   5.344   0.752 -0.5485 -2.3307 -0.2563
 1431TIP3    H225929   6.883   5.335   0.752 -0.2114  1.4801 -0.2413
 1432TIP3   OH225930   4.214   1.630   2.749  0.7451 -0.8582  0.2025
 1432TIP3    H125931   4.156   1.706   2.756  1.2467 -0.6024  2.2849
 1432TIP3    H225932   4.156   1.555   2.745  0.2365 -0.4979  0.6591
 1433TIP3   OH225933   6.284   0.886   8.033 -0.3726 -0.3269  0.2734
 1433TIP3    H125934   6.320   0.830   8.102 -1.7086  1.2309  2.3426
 1433TIP3    H225935   6.234   0.826   7.977 -1.1386 -1.3593  1.9816
 1434TIP3   OH225936   4.155   4.134   0.018 -0.7452 -0.1512 -0.3649
 1434TIP3    H125937   4.192   4.211  -0.024  0.7818 -0.4586  0.3592
 1434TIP3    H225938   4.196   4.131   0.104 -0.0422 -2.2677 -0.7049
 1435TIP3   OH225939   3.320   4.825   0.741  0.1880  0.3369 -0.1991
 1435TIP3    H125940   3.273   4.816   0.825  1.2806  1.4738  0.5757
 1435TIP3    H225941   3.255   4.800   0.675 -0.7282 -0.5297  0.9698
 1436TIP3   OH225942   4.637   2.903   1.057 -0.1143  0.1763 -0.2138
 1436TIP3    H125943   4.694   2.857   0.996 -0.0479  2.0292 -1.6439
 1436TIP3    H225944   4.608   2.980   1.008 -1.0802  1.0657  1.6814
 1437TIP3   OH225945   0.485   5.048   8.159 -0.0521  0.0052 -0.0366
 1437TIP3    H125946   0.573   5.085   8.174 -0.4836  0.5191  1.4208
 1437TIP3    H225947   0.498   4.984   8.089  1.3189  0.6965 -0.4602
 1438TIP3   OH225948   5.969   5.280   0.504 -0.2329 -0.1312 -0.6516
 1438TIP3    H125949   6.039   5.344   0.501  0.3512 -0.6387  0.9413
 1438TIP3    H225950   6.013   5.195   0.507 -0.6681 -0.4106  2.9697
 1439TIP3   OH225951   4.871   4.558   6.597 -0.5645  0.2390  0.6115
 1439TIP3    H125952   4.942   4.622   6.598 -0.9667  0.7293 -0.3815
 1439TIP3    H225953   4.793   4.609   6.621 -0.7798 -0.0186  0.4638
 1440TIP3   OH225954   6.217   5.894   0.922 -0.6399  0.4053  0.1567
 1440TIP3    H125955   6.165   5.945   0.860 -0.5162 -0.2958 -0.5350
 1440TIP3    H225956   6.159   5.879   0.996 -1.1754  0.2752 -0.2821
 1441TIP3   OH225957   5.958   2.321   2.122  0.4564  0.0930 -0.1784
 1441TIP3    H125958   5.882   2.370   2.092  0.6752  1.5325  1.4779
 1441TIP3    H225959   5.930   2.229   2.118 -1.2267  0.5683  0.0182
 1442TIP3   OH225960   4.565   1.361   6.807  0.0498  0.4303 -0.0915
 1442TIP3    H125961   4.643   1.395   6.763 -0.7192  2.3631 -0.0966
 1442TIP3    H225962   4.599   1.318   6.886  1.2373 -0.4968 -1.0773
 1443TIP3   OH225963   2.366   3.473   7.841  0.3340 -0.3594  0.2846
 1443TIP3    H125964   2.277   3.487   7.874  0.2012  1.0701 -0.6071
 1443TIP3    H225965   2.354   3.414   7.766  0.2344 -0.7235  0.5800
 1444TIP3   OH225966   0.822   1.198   0.063 -0.3006 -0.1421 -0.0891
 1444TIP3    H125967   0.883   1.238   0.124  0.5304  0.5007 -1.2879
 1444TIP3    H225968   0.861   1.113   0.042 -0.8425 -0.5834  0.6262
 1445TIP3   OH225969   3.928   2.252   7.445  0.1636 -0.2541  0.1397
 1445TIP3    H125970   3.886   2.338   7.434 -0.4296 -0.6143 -0.4703
 1445TIP3    H225971   3.969   2.235   7.360 -0.2196 -0.8324  0.0651
 1446TIP3   OH225972   2.695   2.127   6.945 -0.1446  0.0047 -0.2166
 1446TIP3    H125973   2.788   2.118   6.922  0.1879 -0.3594  1.1883
 1446TIP3    H225974   2.674   2.045   6.989 -1.1254  0.1170 -0.4619
 1447TIP3   OH225975   6.579   0.185   7.226 -0.5864 -1.0995 -0.1506
 1447TIP3    H125976   6.629   0.201   7.146 -0.1646 -1.5843  0.0130
 1447TIP3    H225977   6.645   0.174   7.294 -0.8495 -3.1299 -0.1736
 1448TIP3   OH225978   1.026   2.980   1.724 -0.7745  0.8648 -0.5103
 1448TIP3    H125979   1.092   2.996   1.792 -1.4661 -1.0172  0.6795
 1448TIP3    H225980   0.960   3.047   1.738 -0.8414  0.5808  0.6059
 1449TIP3   OH225981   0.579   2.867   1.100 -0.7673  0.0339  0.0498
 1449TIP3    H125982   0.593   2.844   1.009 -0.1258 -2.1431  0.6379
 1449TIP3    H225983   0.503   2.816   1.127 -0.5706  0.1503  0.8779
 1450TIP3   OH225984   6.307   6.673   6.511 -0.0725 -0.9798  0.4661
 1450TIP3    H125985   6.387   6.649   6.465  0.4798 -0.1341  0.9624
 1450TIP3    H225986   6.295   6.605   6.576 -1.0671 -2.4008 -1.1137
 1451TIP3   OH225987   4.493   0.163   0.194  0.2849  0.4748  0.3991
 1451TIP3    H125988   4.571   0.212   0.169 -0.5540  0.7937 -1.9181
 1451TIP3    H225989   4.477   0.104   0.120 -2.0705  0.9741  0.4070
 1452TIP3   OH225990   3.475   2.868   1.822  0.2595  0.3831  0.4208
 1452TIP3    H125991   3.557   2.853   1.774 -0.1275 -0.1169 -0.1129
 1452TIP3    H225992   3.468   2.792   1.880  0.1492  0.3869  0.4130
 1453TIP3   OH225993   4.616   2.871   0.341  0.6016  0.1289 -0.3100
 1453TIP3    H125994   4.658   2.874   0.255 -0.6689 -0.8510 -0.9925
 1453TIP3    H225995   4.574   2.956   0.350  1.4630  0.5631 -0.2603
 1454TIP3   OH225996   1.429   0.271   7.543 -0.9623  0.3186  0.0157
 1454TIP3    H125997   1.345   0.303   7.510 -0.7954  0.6330 -0.1069
 1454TIP3    H225998   1.492   0.339   7.519 -0.2923 -0.8783 -1.7541
 1455TIP3   OH225999   6.273   2.873   8.325 -0.0983 -0.4022 -0.3405
 1455TIP3    H126000   6.347   2.933   8.335 -0.6516  0.5658 -1.7001
 1455TIP3    H226001   6.232   2.870   8.412  0.8118  0.0096  0.1104
 1456TIP3   OH226002   4.661   0.000   1.140  0.1763 -0.1160  0.3435
 1456TIP3    H126003   4.584   0.025   1.089 -0.4188 -0.1725  1.2056
 1456TIP3    H226004   4.702   0.083   1.165 -0.4081 -0.0458  1.0929
 1457TIP3   OH226005   4.942   3.789   1.909 -0.7151 -0.5095 -0.5594
 1457TIP3    H126006   4.947   3.832   1.995 -0.2537  2.0842 -1.7966
 1457TIP3    H226007   4.855   3.749   1.908 -0.1550 -2.0195  1.6802
 1458TIP3   OH226008   4.274   4.390   8.420  0.0721  0.0726  0.6420
 1458TIP3    H126009   4.197   4.437   8.388  1.0409  0.7413 -0.7911
 1458TIP3    H226010   4.297   4.434   8.502  1.3020  2.5855 -0.9424
 1459TIP3   OH226011   5.711   4.226   0.008  0.3926  0.0940 -0.3208
 1459TIP3    H126012   5.733   4.140   0.044  0.3278  0.5672  0.8581
 1459TIP3    H226013   5.792   4.277   0.014 -0.3965  1.1633  2.0853
 1460TIP3   OH226014   0.709   5.878   8.281  0.4890  0.0154 -0.1820
 1460TIP3    H126015   0.795   5.866   8.241  0.3546  0.7784 -0.7281
 1460TIP3    H226016   0.728   5.916   8.367  0.6726  1.3463 -0.7801
 1461TIP3   OH226017   6.570   6.400   1.982  0.3879  0.2631 -0.2943
 1461TIP3    H126018   6.567   6.320   1.929  0.1150  1.6969 -2.5940
 1461TIP3    H226019   6.657   6.399   2.021  0.6351 -0.8458 -0.8259
 1462TIP3   OH226020   4.747   0.309   2.684 -0.8344  0.4844  0.7564
 1462TIP3    H126021   4.815   0.337   2.745 -0.1993  1.6750 -0.4396
 1462TIP3    H226022   4.676   0.372   2.696 -2.5939 -1.7422  3.2513
 1463TIP3   OH226023   5.848   5.590   8.330  0.2424  0.2620  0.1052
 1463TIP3    H126024   5.872   5.655   8.396 -0.3307 -0.4780  1.0734
 1463TIP3    H226025   5.808   5.641   8.260  2.2737  1.2429 -0.4152
 1464TIP3   OH226026   3.136   2.792   8.303 -0.1847  0.4253 -0.1119
 1464TIP3    H126027   3.140   2.860   8.236  0.8982  0.7726  0.2813
 1464TIP3    H226028   3.213   2.807   8.357 -0.2814 -0.7129  0.3805
 1465TIP3   OH226029   3.114   4.211   7.225  0.0765 -0.4042 -0.2332
 1465TIP3    H126030   3.129   4.295   7.269  0.2624 -0.3014 -0.4893
 1465TIP3    H226031   3.199   4.189   7.186  0.2913 -1.1984  0.6559
 1466TIP3   OH226032   2.518   5.097   0.169 -0.1233  0.2175 -0.1656
 1466TIP3    H126033   2.570   5.016   0.171 -0.7677 -0.2653 -1.6256
 1466TIP3    H226034   2.481   5.103   0.257  0.0170 -1.0340  0.0054
 1467TIP3   OH226035   5.589   5.838   7.346 -0.1505 -0.1536 -0.3832
 1467TIP3    H126036   5.571   5.893   7.422 -0.0652 -1.4210  0.5842
 1467TIP3    H226037   5.542   5.757   7.364 -0.8038 -0.1975 -2.0797
 1468TIP3   OH226038   0.120   1.960   8.230 -0.2874  0.0172  0.8512
 1468TIP3    H126039   0.204   1.937   8.190 -0.2656 -0.5287  1.2149
 1468TIP3    H226040   0.103   2.049   8.197 -0.1205 -0.2949 -0.1301
 1469TIP3   OH226041   5.315   4.131   8.023 -0.3278 -0.5770  0.2811
 1469TIP3    H126042   5.268   4.059   7.982 -0.7245 -0.4672  0.5350
 1469TIP3    H226043   5.338   4.099   8.110 -0.9714 -0.2158  0.5920
 1470TIP3   OH226044   2.279   0.714   0.612 -0.9107 -0.0384 -0.2938
 1470TIP3    H126045   2.202   0.683   0.563 -0.3157 -1.0444 -0.6119
 1470TIP3    H226046   2.353   0.672   0.569 -0.3917 -1.4423  1.8077
 1471TIP3   OH226047   1.976   3.511   7.211 -0.2140  0.1494 -0.4931
 1471TIP3    H126048   2.038   3.499   7.139  0.0438  0.5199 -0.3438
 1471TIP3    H226049   1.984   3.432   7.264 -1.0863 -0.5384 -1.3615
 1472TIP3   OH226050   4.358   0.273   2.381  0.6161 -0.0608 -0.0609
 1472TIP3    H126051   4.418   0.216   2.334  0.8899 -0.8931  1.2530
 1472TIP3    H226052   4.376   0.257   2.474 -0.9021  0.4494  0.3581
 1473TIP3   OH226053   6.231   0.581   7.507  0.3128  0.3969 -0.2989
 1473TIP3    H126054   6.158   0.523   7.485  2.6846 -2.9926  0.0056
 1473TIP3    H226055   6.255   0.623   7.424  0.3871 -1.4081 -1.2204
 1474TIP3   OH226056   5.859   5.242   6.852 -0.2982 -0.2378  0.0662
 1474TIP3    H126057   5.949   5.220   6.876  0.0944  1.3647  0.1634
 1474TIP3    H226058   5.815   5.257   6.936 -0.1773  0.6760 -0.0187
 1475TIP3   OH226059   6.243   2.987   1.097 -0.0278  0.1010 -0.0477
 1475TIP3    H126060   6.259   2.925   1.026  1.4879  2.1878 -1.6709
 1475TIP3    H226061   6.154   2.969   1.126  0.7932 -3.7061  0.5662
 1476TIP3   OH226062   3.909   4.061   6.427  0.1822 -0.8216  0.0503
 1476TIP3    H126063   3.938   4.059   6.518  0.1629 -1.6387  0.0451
 1476TIP3    H226064   3.874   3.974   6.411  0.4237 -0.7660 -0.8218
 1477TIP3   OH226065   0.389   4.381   8.111  0.2786 -0.3819 -0.2225
 1477TIP3    H126066   0.440   4.362   8.190  0.3160  0.2578 -0.0867
 1477TIP3    H226067   0.411   4.472   8.089 -0.5488 -0.2033 -0.3519
 1478TIP3   OH226068   4.471   2.346   7.330  0.0666  0.3698 -0.5278
 1478TIP3    H126069   4.426   2.296   7.262 -0.1079  0.1059 -0.2234
 1478TIP3    H226070   4.551   2.297   7.348  0.6146  0.9754 -1.2488
 1479TIP3   OH226071   0.176   4.217   0.247 -0.4773  0.0111 -0.2373
 1479TIP3    H126072   0.212   4.306   0.253  0.0420 -0.1889 -0.3018
 1479TIP3    H226073   0.207   4.185   0.162 -0.7852 -0.1816 -0.2789
 1480TIP3   OH226074   5.546   6.570   8.226 -0.1968  0.7828  0.5600
 1480TIP3    H126075   5.495   6.591   8.305 -1.2993  0.9362 -0.1711
 1480TIP3    H226076   5.624   6.526   8.259 -0.3958  1.2916  1.7747
 1481TIP3   OH226077   0.433   6.055   0.555 -0.4123 -0.7427  0.4125
 1481TIP3    H126078   0.348   6.059   0.510 -0.2902  0.5811  0.2657
 1481TIP3    H226079   0.481   6.131   0.523  0.1363 -0.4269  1.9009
 1482TIP3   OH226080   6.662   2.833   7.756 -0.4327 -0.2871  0.2819
 1482TIP3    H126081   6.691   2.743   7.741 -0.8878 -0.4608  0.3989
 1482TIP3    H226082   6.740   2.886   7.746 -0.4361 -0.5278 -1.3222
 1483TIP3   OH226083   1.611   6.849   0.467  0.3373 -0.1224  0.4178
 1483TIP3    H126084   1.536   6.908   0.476 -0.6071 -0.7861 -2.2031
 1483TIP3    H226085   1.686   6.902   0.494 -0.8853  0.9932  1.8128
 1484TIP3   OH226086   4.579   4.584   0.324  0.2955  0.1924 -0.4158
 1484TIP3    H126087   4.612   4.522   0.259  2.1927 -1.1210  1.6340
 1484TIP3    H226088   4.512   4.535   0.371  0.5350  0.3268  0.0690
 1485TIP3   OH226089   0.185   6.591   0.894 -0.2975  0.1836  0.3872
 1485TIP3    H126090   0.150   6.680   0.888  0.2890  0.3167 -1.7821
 1485TIP3    H226091   0.257   6.598   0.957 -1.7504  0.6766  2.0772
 1486TIP3   OH226092   6.896   5.050   7.019  0.4528 -0.4688  0.7382
 1486TIP3    H126093   6.810   5.060   6.978  0.1624 -0.9169  1.2221
 1486TIP3    H226094   6.910   5.132   7.066  0.8208  0.0766 -0.2905
 1487TIP3   OH226095   4.885   1.184   8.364 -0.2945  0.8758 -0.3136
 1487TIP3    H126096   4.980   1.179   8.351 -0.0331  2.1395  0.9276
 1487TIP3    H226097   4.848   1.164   8.278  1.1180  1.6987 -1.1460
 1488TIP3   OH226098   6.920   3.418   1.740 -0.5741 -0.1339  0.2193
 1488TIP3    H126099   6.865   3.394   1.815  0.6209  1.6532  1.7797
 1488TIP3    H226100   6.893   3.508   1.720  1.9396  0.9437  1.2940
 1489TIP3   OH226101   3.036   6.150   8.307 -0.7022  0.3830  0.0369
 1489TIP3    H126102   3.034   6.245   8.311 -1.8486  0.4407 -1.1602
 1489TIP3    H226103   2.946   6.125   8.284 -0.7849 -1.0772  1.6946
 1490TIP3   OH226104   2.394   6.794   1.449  0.2183 -0.4573 -0.1195
 1490TIP3    H126105   2.359   6.759   1.531 -0.7622  0.2384 -0.2250
 1490TIP3    H226106   2.356   6.738   1.381  1.7624 -1.6198 -0.0748
 1491TIP3   OH226107   3.337   3.849   1.532  0.1225  0.3922 -0.0363
 1491TIP3    H126108   3.430   3.870   1.533  0.2382  0.1397 -1.7117
 1491TIP3    H226109   3.317   3.838   1.439 -1.4895  0.0365  0.3320
 1492TIP3   OH226110   2.929   2.561   2.191 -0.1290  0.0819  0.7176
 1492TIP3    H126111   2.880   2.528   2.267 -1.8527 -2.5888 -1.3841
 1492TIP3    H226112   2.893   2.648   2.175 -0.0337  0.5314  2.6487
 1493TIP3   OH226113   0.399   6.394   7.519 -0.0388 -0.1206 -0.5041
 1493TIP3    H126114   0.455   6.350   7.456  0.2962  2.0617 -1.8187
 1493TIP3    H226115   0.460   6.440   7.577 -0.3994  0.4676 -0.5835
 1494TIP3   OH226116   4.392   1.784   7.346  0.3591 -0.0088  0.1564
 1494TIP3    H126117   4.475   1.787   7.299  0.1950  2.8786 -0.1540
 1494TIP3    H226118   4.331   1.835   7.292 -1.1041 -0.4912  1.2662
 1495TIP3   OH226119   3.940   5.133   1.284 -0.0568  0.1605 -0.3895
 1495TIP3    H126120   3.940   5.200   1.352 -0.3631  0.6972 -0.9122
 1495TIP3    H226121   4.026   5.091   1.292 -0.7253 -1.0168  1.5002
 1496TIP3   OH226122   6.645   2.277   1.640  0.2206 -0.5586 -0.0176
 1496TIP3    H126123   6.735   2.311   1.636  0.3229 -0.9353 -1.5388
 1496TIP3    H226124   6.596   2.330   1.578 -0.1006 -1.7286 -0.8068
 1497TIP3   OH226125   2.716   4.350   7.655 -0.0315  0.1788  0.1931
 1497TIP3    H126126   2.737   4.397   7.736  1.3528 -2.4139  1.4683
 1497TIP3    H226127   2.796   4.355   7.603 -0.8245  1.5941 -0.9549
 1498TIP3   OH226128   5.438   1.940   8.431  0.6362 -0.1261  0.0247
 1498TIP3    H126129   5.383   1.932   8.510  0.4686  1.8634  0.1601
 1498TIP3    H226130   5.491   2.018   8.448 -0.3571  1.1654 -2.3625
 1499TIP3   OH226131   3.761   3.726   0.276  0.5401 -0.5353  0.3921
 1499TIP3    H126132   3.756   3.808   0.325  0.7979 -1.1583  1.4970
 1499TIP3    H226133   3.853   3.702   0.280  0.2294 -1.6813  1.4817
 1500TIP3   OH226134   3.859   6.225   7.533  0.5221 -0.4171 -0.5907
 1500TIP3    H126135   3.954   6.213   7.542  0.5469 -0.2554 -0.6299
 1500TIP3    H226136   3.849   6.317   7.506  0.3958 -0.6268 -1.2661
 1501TIP3   OH226137   4.352   3.858   8.252 -0.1836  0.1017 -0.4616
 1501TIP3    H126138   4.375   3.786   8.311  1.7664  0.0966 -1.1371
 1501TIP3    H226139   4.348   3.818   8.165 -0.2687  0.5885 -0.6855
 1502TIP3   OH226140   0.510   6.198   1.795 -0.1704 -0.1167  0.4874
 1502TIP3    H126141   0.603   6.218   1.802 -0.4792  1.5962  0.1443
 1502TIP3    H226142   0.496   6.181   1.702  0.1373 -2.4489  0.8018
 1503TIP3   OH226143   1.760   0.349   8.421  0.0670 -0.0662  0.2655
 1503TIP3    H126144   1.734   0.422   8.477 -0.8773 -1.1649  1.3161
 1503TIP3    H226145   1.677   0.311   8.392  0.5265  0.2855 -1.6991
 1504TIP3   OH226146   1.153   5.194   1.255 -0.4745 -0.0699  0.2026
 1504TIP3    H126147   1.160   5.113   1.304  2.2802  0.5741  1.0457
 1504TIP3    H226148   1.103   5.253   1.312 -0.0682 -0.3306  0.8373
 1505TIP3   OH226149   0.356   1.965   7.470 -0.3123 -0.2629  0.1978
 1505TIP3    H126150   0.430   1.962   7.409  0.7215 -0.1005  1.4052
 1505TIP3    H226151   0.303   1.889   7.447  0.2137 -0.3829 -0.6829
 1506TIP3   OH226152   6.131   1.823   8.187 -0.1504  0.2481  0.0588
 1506TIP3    H126153   6.206   1.881   8.197 -0.9551  1.6643 -1.5083
 1506TIP3    H226154   6.109   1.796   8.276  1.2222  1.1001  0.6827
 1507TIP3   OH226155   3.566   0.550   7.917  0.2388  0.1809 -0.2625
 1507TIP3    H126156   3.606   0.568   8.002 -0.3134  0.8155 -0.1303
 1507TIP3    H226157   3.629   0.584   7.853  0.7578 -0.5029 -0.1216
 1508TIP3   OH226158   3.730   3.224   7.227 -0.3653  0.5007  0.5702
 1508TIP3    H126159   3.814   3.180   7.217 -1.8137 -2.2911 -0.4590
 1508TIP3    H226160   3.746   3.314   7.199  2.0034 -0.2186 -0.6340
 1509TIP3   OH226161   5.886   0.360   1.489 -0.5522 -0.5884  0.0319
 1509TIP3    H126162   5.840   0.393   1.566 -0.8522 -1.7563  0.3690
 1509TIP3    H226163   5.870   0.427   1.421 -0.8905  0.0932  0.7656
 1510TIP3   OH226164   0.428   1.187   6.875  0.1801 -0.4754  0.2170
 1510TIP3    H126165   0.465   1.271   6.904  0.2482 -0.3024 -0.3460
 1510TIP3    H226166   0.448   1.184   6.781  0.7631 -1.4263  0.3562
 1511TIP3   OH226167   2.660   5.216   6.244  0.2938  0.2416 -0.1013
 1511TIP3    H126168   2.653   5.255   6.157 -0.3242  0.7652  0.1780
 1511TIP3    H226169   2.665   5.291   6.303  1.6063 -0.1034  0.2632
 1512TIP3   OH226170   3.019   4.988   1.121  0.0339 -0.6261  0.6284
 1512TIP3    H126171   3.059   4.927   1.059 -1.3742 -1.4971  0.5321
 1512TIP3    H226172   2.983   4.933   1.190  0.8110  0.2836  1.8073
 1513TIP3   OH226173   1.246   2.005   2.396  0.9708 -0.0475  0.2984
 1513TIP3    H126174   1.159   1.974   2.373  0.9105  0.1233  0.2894
 1513TIP3    H226175   1.230   2.085   2.447  1.1369  0.6464 -0.6888
 1514TIP3   OH226176   6.308   6.527   2.530  0.2767  0.0207  0.4349
 1514TIP3    H126177   6.297   6.622   2.528 -0.1555 -0.0298 -0.0148
 1514TIP3    H226178   6.352   6.509   2.613  0.7800  0.6559  0.3158
 1515TIP3   OH226179   4.925   0.472   0.686 -0.4483 -0.3657 -0.0176
 1515TIP3    H126180   4.952   0.538   0.750  0.2137 -1.1632  0.5497
 1515TIP3    H226181   4.843   0.505   0.650 -0.0061  0.8760  0.0817
 1516TIP3   OH226182   2.703   6.243   1.504 -0.3315 -0.1424 -0.2779
 1516TIP3    H126183   2.730   6.319   1.451  0.0373 -0.0839 -0.0085
 1516TIP3    H226184   2.720   6.270   1.594 -0.7904 -0.3118 -0.1403
 1517TIP3   OH226185   0.587   6.731   8.413 -0.0476  0.3772  0.7659
 1517TIP3    H126186   0.533   6.652   8.409  0.6881 -0.0818 -1.0236
 1517TIP3    H226187   0.616   6.735   8.504 -2.6260  0.3649  1.6784
 1518TIP3   OH226188   1.679   4.241   7.817 -0.1280  0.3820 -0.0566
 1518TIP3    H126189   1.646   4.293   7.744  0.7654  0.3845 -0.4683
 1518TIP3    H226190   1.606   4.184   7.841 -0.4365  0.3964 -0.9352
 1519TIP3   OH226191   0.718   6.966   0.861 -0.6248 -0.6105 -0.0530
 1519TIP3    H126192   0.787   6.908   0.829 -0.7731 -0.3961 -0.7843
 1519TIP3    H226193   0.639   6.936   0.816 -0.2955  1.6453 -2.3755
 1520TIP3   OH226194   4.138   0.836   1.307  0.1362 -0.4531 -0.3256
 1520TIP3    H126195   4.158   0.914   1.256 -0.5074 -0.3959 -0.5010
 1520TIP3    H226196   4.182   0.850   1.391  1.0535 -0.4714 -0.7916
 1521TIP3   OH226197   4.945   3.472   2.087 -0.1300  0.0726  0.1372
 1521TIP3    H126198   4.902   3.445   2.006 -0.5930  0.0351  0.3893
 1521TIP3    H226199   5.025   3.421   2.090 -1.3878 -1.9877  1.0340
 1522TIP3   OH226200   0.620   0.509   1.481  0.5115 -0.1102  0.2884
 1522TIP3    H126201   0.678   0.438   1.453  1.4389  1.4292 -1.9750
 1522TIP3    H226202   0.587   0.547   1.400 -3.0309 -0.3035  1.4542
 1523TIP3   OH226203   6.218   3.476   0.490 -0.4855  0.5642 -0.3986
 1523TIP3    H126204   6.306   3.515   0.487  0.3408 -1.2353 -2.7138
 1523TIP3    H226205   6.181   3.493   0.404 -2.1210  0.6203  0.2935
 1524TIP3   OH226206   2.728   4.616   0.373 -0.3229 -0.6567 -0.3268
 1524TIP3    H126207   2.686   4.557   0.309  0.8249 -1.2663 -0.5592
 1524TIP3    H226208   2.696   4.586   0.458 -0.7971 -0.7402 -0.5330
 1525TIP3   OH226209   3.625   3.407   8.295 -0.0325 -0.0526  0.1007
 1525TIP3    H126210   3.694   3.465   8.262  0.1431  0.0486  0.6257
 1525TIP3    H226211   3.665   3.321   8.300 -0.7099 -0.5394 -2.0305
 1526TIP3   OH226212   5.949   2.843   7.200  0.2781  0.0181  0.1736
 1526TIP3    H126213   6.039   2.819   7.223  0.1693  0.5327  1.2256
 1526TIP3    H226214   5.899   2.762   7.209  0.4400 -0.0216  0.7454
 1527TIP3   OH226215   0.070   5.298   7.241  0.4288  0.3769 -0.0376
 1527TIP3    H126216  -0.005   5.355   7.258 -0.1448 -0.0272 -1.1197
 1527TIP3    H226217   0.146   5.354   7.255 -0.0048  0.5206  2.1103
 1528TIP3   OH226218   6.842   2.049   7.691 -0.4355 -0.1301 -0.2773
 1528TIP3    H126219   6.838   2.085   7.780 -0.2493 -1.7515  0.4060
 1528TIP3    H226220   6.933   2.022   7.681  0.0704  1.8823 -1.7519
 1529TIP3   OH226221   3.406   2.184   2.001  0.1925 -0.8369  0.0331
 1529TIP3    H126222   3.458   2.254   2.041 -0.0847 -0.7405  0.2237
 1529TIP3    H226223   3.336   2.167   2.064 -1.1062  0.3205 -1.0493
 1530TIP3   OH226224   6.905   2.115   0.016  0.1481  0.3453 -0.5925
 1530TIP3    H126225   6.968   2.181  -0.011  1.3426 -0.1054  0.9461
 1530TIP3    H226226   6.946   2.071   0.091 -2.0384  0.0976  0.5554
 1531TIP3   OH226227   0.393   0.965   7.028 -0.5692  0.4565  0.3019
 1531TIP3    H126228   0.388   1.048   6.979 -0.9447  0.3548  0.1649
 1531TIP3    H226229   0.326   0.910   6.988  1.2431 -0.7744 -1.2079
 1532TIP3   OH226230   1.411   5.477   6.354  0.0021  0.4576 -0.1315
 1532TIP3    H126231   1.371   5.502   6.271  1.4039 -0.0298 -0.9856
 1532TIP3    H226232   1.430   5.559   6.398 -1.4471  0.7044  0.0754
 1533TIP3   OH226233   4.764   4.992   0.315 -0.4346 -0.2925 -0.5118
 1533TIP3    H126234   4.727   4.949   0.392  0.5039  0.6975  0.5201
 1533TIP3    H226235   4.789   4.920   0.258  0.3602 -1.1326  0.8332
 1534TIP3   OH226236   2.746   3.619   8.220  0.4957  0.3598 -0.4011
 1534TIP3    H126237   2.651   3.610   8.232  0.2088  2.1537 -0.9316
 1534TIP3    H226238   2.756   3.703   8.174  2.4168  0.8750  0.8484
 1535TIP3   OH226239   1.773   0.345   0.501 -0.6516  0.2319  0.2168
 1535TIP3    H126240   1.864   0.322   0.483 -0.4836  0.8410  0.2607
 1535TIP3    H226241   1.776   0.438   0.524 -0.9618 -0.2630  2.5228
 1536TIP3   OH226242   1.606   2.745   6.928  0.3280 -0.0663 -0.1882
 1536TIP3    H126243   1.545   2.700   6.986 -0.9013  0.5367 -0.9684
 1536TIP3    H226244   1.692   2.731   6.967 -0.3958 -0.2137  1.4035
 1537TIP3   OH226245   5.493   3.233   2.084  0.5572 -0.1014 -0.0487
 1537TIP3    H126246   5.494   3.138   2.094 -0.3672  0.0391  1.7496
 1537TIP3    H226247   5.513   3.267   2.171 -0.4049  1.3373 -0.3461
 1538TIP3   OH226248   2.462   5.766   7.703  0.6832  0.0394 -0.4351
 1538TIP3    H126249   2.385   5.759   7.759  0.3090 -0.0569 -0.9544
 1538TIP3    H226250   2.430   5.744   7.615  0.9856  1.4057 -0.9117
 1539TIP3   OH226251   6.086   2.323   8.145  0.2530  0.6907  0.1853
 1539TIP3    H126252   6.163   2.285   8.103 -0.9450 -1.4238 -0.2315
 1539TIP3    H226253   6.076   2.273   8.226 -1.3089  0.1414 -0.3212
 1540TIP3   OH226254   6.798   0.378   7.635  0.5053 -0.1464 -0.3459
 1540TIP3    H126255   6.870   0.315   7.636  0.4781 -0.1906 -0.8413
 1540TIP3    H226256   6.816   0.437   7.709  0.4724 -0.7952  0.1936
 1541TIP3   OH226257   4.236   0.290   0.482 -0.0021 -0.0349 -0.1057
 1541TIP3    H126258   4.223   0.359   0.418  0.5042 -0.4627 -0.6856
 1541TIP3    H226259   4.149   0.255   0.499 -0.6936  2.5183  2.2650
 1542TIP3   OH226260   1.740   4.942   6.519  0.0045 -0.2962 -0.1994
 1542TIP3    H126261   1.832   4.962   6.535  0.0793  0.5940 -1.5423
 1542TIP3    H226262   1.715   5.000   6.447 -1.6173 -0.5112  0.1462
 1543TIP3   OH226263   4.190   4.045   1.974 -0.0869  0.6908 -0.5589
 1543TIP3    H126264   4.138   4.099   2.033 -0.8643 -0.7154  0.0896
 1543TIP3    H226265   4.261   4.011   2.029 -1.4907 -1.6088 -0.0064
 1544TIP3   OH226266   1.786   2.872   0.265 -0.0600  0.0484 -0.3166
 1544TIP3    H126267   1.818   2.957   0.294 -0.9649  1.2134 -2.4702
 1544TIP3    H226268   1.864   2.816   0.261  0.9940  1.5295 -1.3142
 1545TIP3   OH226269   0.839   3.066   1.104 -0.4435  0.3229 -0.4781
 1545TIP3    H126270   0.810   3.094   1.191 -2.0265 -1.6811 -0.2997
 1545TIP3    H226271   0.932   3.091   1.101  0.2282 -1.2720  2.6164
 1546TIP3   OH226272   3.482   2.658   2.320 -0.0652  0.3494 -0.5830
 1546TIP3    H126273   3.501   2.569   2.289  0.6384  0.6078 -0.8975
 1546TIP3    H226274   3.412   2.646   2.384 -0.9238 -0.2957 -1.6029
 1547TIP3   OH226275   0.831   6.322   7.762 -0.8956  0.2126  0.0406
 1547TIP3    H126276   0.748   6.370   7.768 -1.1232 -0.3363  1.8459
 1547TIP3    H226277   0.858   6.309   7.853  0.5289 -0.7410 -0.4824
 1548TIP3   OH226278   2.874   1.447   2.312  0.3106  0.0623  0.1445
 1548TIP3    H126279   2.913   1.398   2.240 -0.3351  0.7888 -0.7052
 1548TIP3    H226280   2.780   1.432   2.304  0.2005  0.4922  0.5773
 1549TIP3   OH226281   3.441   0.746   0.657  0.3304 -0.4065  0.8782
 1549TIP3    H126282   3.472   0.770   0.570  1.4334  0.0328  1.3670
 1549TIP3    H226283   3.506   0.784   0.717 -0.1131 -1.1540  1.8680
 1550TIP3   OH226284   2.774   1.639   7.428  0.3543 -0.8207 -0.5535
 1550TIP3    H126285   2.836   1.700   7.388  0.0969  0.3122  0.7017
 1550TIP3    H226286   2.819   1.607   7.506  0.1635 -1.6097 -0.7631
 1551TIP3   OH226287   3.545   4.343   1.154  0.0052 -0.3449 -0.2291
 1551TIP3    H126288   3.491   4.348   1.233 -1.7802 -1.1376 -1.3489
 1551TIP3    H226289   3.556   4.435   1.127  0.4676 -0.0803  0.7956
 1552TIP3   OH226290   1.878   3.853   7.843  0.3858 -0.0121  0.0069
 1552TIP3    H126291   1.862   3.779   7.784  0.9857  0.1483 -0.3635
 1552TIP3    H226292   1.899   3.926   7.785 -2.4514  1.1119  0.2095
 1553TIP3   OH226293   6.007   2.436   0.385 -0.1322 -0.3589  0.4360
 1553TIP3    H126294   6.058   2.487   0.449  0.6291 -0.5931  0.0291
 1553TIP3    H226295   6.034   2.470   0.300  0.3754 -1.4203  0.1602
 1554TIP3   OH226296   2.419   6.275   6.563 -0.5976  0.1856 -0.4377
 1554TIP3    H126297   2.453   6.191   6.534 -0.9055 -0.1885  0.2489
 1554TIP3    H226298   2.405   6.325   6.483  1.4055  0.3060 -0.7773
 1555TIP3   OH226299   6.672   0.526   8.315 -0.1224  0.5129  0.4990
 1555TIP3    H126300   6.611   0.452   8.312  1.9192 -1.3071  1.3585
 1555TIP3    H226301   6.679   0.548   8.408  0.6303  0.6083  0.4242
 1556TIP3   OH226302   0.811   4.761   8.308  0.2899  0.1458  0.3502
 1556TIP3    H126303   0.865   4.821   8.358  0.0134 -0.5908  1.5819
 1556TIP3    H226304   0.813   4.679   8.359 -0.5730 -0.4125 -0.4797
 1557TIP3   OH226305   5.910   4.012   0.762 -0.5869 -0.3137  0.0351
 1557TIP3    H126306   5.968   3.988   0.690  0.2877 -0.7178  0.8473
 1557TIP3    H226307   5.969   4.045   0.830 -1.2940 -0.8705  0.9416
 1558TIP3   OH226308   5.957   1.501   6.551 -0.4166 -0.0143 -0.1344
 1558TIP3    H126309   5.895   1.542   6.490  1.1614  0.5346 -1.4607
 1558TIP3    H226310   5.908   1.429   6.591 -2.3039  1.2429 -0.0785
 1559TIP3   OH226311   2.549   0.207   0.120 -0.9227  0.2258 -0.4090
 1559TIP3    H126312   2.596   0.127   0.098  0.7052  0.5590  1.5443
 1559TIP3    H226313   2.515   0.192   0.208  0.8414  2.1881  0.7051
 1560TIP3   OH226314   0.169   6.001   0.789 -0.5466  0.3907  0.4176
 1560TIP3    H126315   0.155   5.978   0.881 -0.2010 -1.0515  0.1245
 1560TIP3    H226316   0.133   5.928   0.740  0.9635  0.2660 -0.5435
 1561TIP3   OH226317   0.291   1.860   7.096 -0.2120 -0.5572  0.0515
 1561TIP3    H126318   0.346   1.783   7.111  1.0167  0.3134  0.1531
 1561TIP3    H226319   0.298   1.876   7.002 -0.2502 -0.4167  0.0723
 1562TIP3   OH226320   4.814   4.707   0.213 -0.0487  0.4412 -0.3457
 1562TIP3    H126321   4.737   4.696   0.269  0.9915 -1.4378  0.8284
 1562TIP3    H226322   4.858   4.622   0.215  1.0644  0.8802 -2.5345
 1563TIP3   OH226323   5.818   5.513   6.768  0.4075  0.0701  0.2864
 1563TIP3    H126324   5.839   5.422   6.792 -0.1994 -0.9861 -2.6898
 1563TIP3    H226325   5.891   5.564   6.803  2.5492 -2.0629 -0.7868
 1564TIP3   OH226326   6.676   4.865   0.815 -0.0430  0.2720 -0.3801
 1564TIP3    H126327   6.736   4.796   0.788 -1.3817  0.8276 -5.9698
 1564TIP3    H226328   6.606   4.819   0.862 -0.6644 -2.3199 -3.5243
 1565TIP3   OH226329   2.335   1.407   0.473  0.3145 -0.0703  0.0768
 1565TIP3    H126330   2.352   1.498   0.499  2.1099 -0.7618  1.5590
 1565TIP3    H226331   2.414   1.381   0.427 -0.1045 -0.9632 -0.1456
 1566TIP3   OH226332   0.662   6.951   7.830 -0.2009 -0.5413  0.1093
 1566TIP3    H126333   0.741   6.911   7.868 -0.2548 -1.6644 -0.8974
 1566TIP3    H226334   0.590   6.896   7.862 -0.3155 -1.0484 -0.9772
 1567TIP3   OH226335   1.974   0.794   1.488  0.1700  0.2357  0.2410
 1567TIP3    H126336   1.915   0.865   1.515 -1.3367 -1.4328  1.5672
 1567TIP3    H226337   2.061   0.826   1.514 -0.1189  2.5305 -1.2958
 1568TIP3   OH226338   1.659   6.577   6.075  0.8367 -0.4080  1.2825
 1568TIP3    H126339   1.615   6.662   6.081  0.4683 -0.5829  1.0686
 1568TIP3    H226340   1.590   6.513   6.094  0.7322 -0.7420 -0.1070
 1569TIP3   OH226341   1.438   4.005   7.738 -0.2334 -0.0939 -0.3959
 1569TIP3    H126342   1.375   4.076   7.731  0.6847  0.8597  0.6243
 1569TIP3    H226343   1.441   3.967   7.650 -2.7108 -0.6370 -0.3154
 1570TIP3   OH226344   3.835   4.425   2.191  0.5558  0.4331 -0.7965
 1570TIP3    H126345   3.787   4.402   2.270  0.8707  0.6115 -0.5507
 1570TIP3    H226346   3.805   4.513   2.169  0.6406  0.4744 -0.7452
 1571TIP3   OH226347   5.261   5.012   7.685  0.6702 -0.1663  0.6042
 1571TIP3    H126348   5.249   4.918   7.700  1.4709 -0.2800  0.5906
 1571TIP3    H226349   5.173   5.047   7.676  0.3333 -0.8078  1.3189
 1572TIP3   OH226350   0.957   2.138   8.259  0.6315 -0.4432 -0.1626
 1572TIP3    H126351   1.039   2.145   8.306  1.4287  0.9726 -1.6698
 1572TIP3    H226352   0.979   2.090   8.178 -0.1937 -0.7304 -0.2361
 1573TIP3   OH226353   5.643   4.510   1.685 -0.2136 -0.5765  0.1667
 1573TIP3    H126354   5.610   4.428   1.650  0.1693  0.0425 -1.7699
 1573TIP3    H226355   5.565   4.558   1.712 -0.4656 -1.4067  0.9528
 1574TIP3   OH226356   0.994   6.258   1.113  0.3870 -0.0735 -0.6651
 1574TIP3    H126357   1.069   6.212   1.150 -0.6743 -0.3017  1.3127
 1574TIP3    H226358   1.030   6.340   1.079  1.5891 -0.3864 -0.1934
 1575TIP3   OH226359   1.332   3.746   0.604 -0.1990  0.3446 -0.2058
 1575TIP3    H126360   1.415   3.766   0.645 -0.2776 -0.4407  0.3544
 1575TIP3    H226361   1.266   3.768   0.670 -0.3046 -1.2974  0.2758
 1576TIP3   OH226362   0.694   4.688   7.635  0.1587  0.5392 -0.4046
 1576TIP3    H126363   0.732   4.721   7.553  2.3423  1.0028  0.7130
 1576TIP3    H226364   0.719   4.596   7.638 -0.7451  0.2731 -0.6766
 1577TIP3   OH226365   4.570   2.121   8.368  0.4641 -0.1687  0.1847
 1577TIP3    H126366   4.595   2.165   8.449  0.6188  0.9759 -0.4691
 1577TIP3    H226367   4.477   2.142   8.357  0.5103 -0.0938 -0.0724
 1578TIP3   OH226368   4.119   1.515   7.858 -0.1031 -0.9355 -0.1485
 1578TIP3    H126369   4.097   1.602   7.893  0.8288 -0.4665 -0.7162
 1578TIP3    H226370   4.144   1.464   7.935 -0.7905 -0.7513  0.2055
 1579TIP3   OH226371   2.953   5.644   8.125  0.0032 -0.2895  0.3873
 1579TIP3    H126372   2.987   5.733   8.139 -0.9896  0.2828 -0.7069
 1579TIP3    H226373   3.030   5.588   8.131  0.4840  0.4901  2.3031
 1580TIP3   OH226374   2.298   4.969   7.431  0.7293  0.3456  0.9670
 1580TIP3    H126375   2.334   4.951   7.518 -0.8607  0.5725  1.7070
 1580TIP3    H226376   2.365   4.938   7.370  1.2334 -1.2147  2.2524
 1581TIP3   OH226377   2.453   6.731   0.624  0.3604 -0.0875 -0.2899
 1581TIP3    H126378   2.414   6.746   0.538  0.0984  1.4343  0.0679
 1581TIP3    H226379   2.536   6.687   0.605  0.8956  1.3395 -1.4270
 1582TIP3   OH226380   4.791   1.804   6.442  0.8731  0.3793  0.5812
 1582TIP3    H126381   4.865   1.797   6.502  0.4325 -0.6555  1.0213
 1582TIP3    H226382   4.728   1.739   6.472  0.0902  0.7200 -0.2383
 1583TIP3   OH226383   4.867   4.134   0.038 -0.2277  0.0481 -0.0580
 1583TIP3    H126384   4.875   4.220  -0.003  0.5067  0.2566  0.5112
 1583TIP3    H226385   4.892   4.072  -0.030 -3.2017  0.0680 -1.3173
 1584TIP3   OH226386   2.233   5.379   1.558 -0.3269  1.2446 -0.2981
 1584TIP3    H126387   2.244   5.303   1.502 -0.6344  0.5871  0.5116
 1584TIP3    H226388   2.140   5.377   1.582  0.1163  0.5986  1.4880
 1585TIP3   OH226389   1.542   0.436   7.864  0.0787  0.6947  0.5895
 1585TIP3    H126390   1.567   0.347   7.839 -1.0628  0.6611 -0.5735
 1585TIP3    H226391   1.508   0.428   7.953 -1.7084 -0.4082 -0.1396
 1586TIP3   OH226392   2.953   0.976   0.725 -0.0472 -0.6947  0.3461
 1586TIP3    H126393   3.022   0.912   0.739  1.4405  0.8226  0.3056
 1586TIP3    H226394   2.907   0.981   0.808  2.1451  0.7640  1.5625
 1587TIP3   OH226395   6.456   3.999   0.554  0.9948 -0.8594  0.2287
 1587TIP3    H126396   6.532   3.940   0.562  0.6244 -1.5230 -0.9409
 1587TIP3    H226397   6.419   3.979   0.469 -0.3101 -0.2947  0.6397
 1588TIP3   OH226398   3.563   6.426   7.992 -0.5112  0.5744 -0.6017
 1588TIP3    H126399   3.653   6.443   7.964 -0.0027 -0.6712  0.1836
 1588TIP3    H226400   3.557   6.462   8.080 -0.4903 -0.1571 -0.2943
 1589TIP3   OH226401   6.332   2.461   0.125  0.7084  0.3801  0.6385
 1589TIP3    H126402   6.404   2.453   0.188  2.3862  1.0179 -1.1084
 1589TIP3    H226403   6.354   2.399   0.056 -0.3947  0.6457  0.0274
 1590TIP3   OH226404   5.579   2.340   2.120 -0.9614  0.8176  0.2266
 1590TIP3    H126405   5.505   2.283   2.099  1.1604 -1.6259 -1.1403
 1590TIP3    H226406   5.634   2.338   2.042  0.3566  2.9822  0.9961
 1591TIP3   OH226407   6.080   6.592   8.105 -0.3047 -0.1878 -0.9037
 1591TIP3    H126408   6.005   6.537   8.126  0.9365 -1.8907 -0.7083
 1591TIP3    H226409   6.155   6.533   8.112  1.0571  1.4645 -1.0649
 1592TIP3   OH226410   4.475   5.355   7.750  0.3421 -0.4093  0.3131
 1592TIP3    H126411   4.528   5.339   7.672 -0.3888 -3.3506  0.3173
 1592TIP3    H226412   4.384   5.344   7.721  0.0135 -0.8257  1.4318
 1593TIP3   OH226413   2.463   5.292   6.547  0.0864  0.1218 -0.3713
 1593TIP3    H126414   2.520   5.219   6.571  0.4321  1.2313  2.5258
 1593TIP3    H226415   2.376   5.265   6.574  0.2383  0.8049  0.8480
 1594TIP3   OH226416   0.926   5.761   1.458 -0.0850 -0.3962 -0.1907
 1594TIP3    H126417   0.855   5.803   1.508 -0.6529 -1.5043 -0.0433
 1594TIP3    H226418   0.957   5.830   1.400  0.1690  0.7499  1.2302
 1595TIP3   OH226419   5.254   2.406   0.061 -0.1661 -0.7049  0.3364
 1595TIP3    H126420   5.301   2.372   0.137 -0.0672  0.1876  0.6776
 1595TIP3    H226421   5.322   2.434   0.001 -0.2547 -0.7976  0.1899
 1596TIP3   OH226422   4.639   3.241   7.313 -0.0395 -0.2107  0.5641
 1596TIP3    H126423   4.600   3.328   7.312 -3.4446 -1.5887  0.7160
 1596TIP3    H226424   4.678   3.230   7.227 -1.7770  0.5841 -0.3562
 1597TIP3   OH226425   3.109   0.303   1.346 -0.9788  0.2367 -0.1963
 1597TIP3    H126426   3.070   0.221   1.377  0.7588 -0.3381  0.5502
 1597TIP3    H226427   3.075   0.313   1.257 -1.3657 -1.1906 -0.2315
 1598TIP3   OH226428   6.669   5.197   1.803 -0.2100 -0.4145  0.6582
 1598TIP3    H126429   6.754   5.195   1.760 -0.3396  0.7294  0.3116
 1598TIP3    H226430   6.666   5.283   1.846 -0.9517 -0.6832  1.1621
 1599TIP3   OH226431   0.161   1.283   1.618 -0.2907 -0.2905 -0.0937
 1599TIP3    H126432   0.224   1.220   1.585  0.4374  0.0142  0.6703
 1599TIP3    H226433   0.133   1.248   1.703  2.2662  1.7048  1.7355
 1600TIP3   OH226434   2.105   0.311   2.319  0.0470  0.1003 -0.3394
 1600TIP3    H126435   2.024   0.335   2.363  0.7889 -0.9488  1.7684
 1600TIP3    H226436   2.089   0.222   2.286 -0.1374  0.4593 -1.2288
 1601TIP3   OH226437   3.132   1.709   7.589 -0.0818 -0.6164 -0.2363
 1601TIP3    H126438   3.201   1.775   7.588 -1.7935  1.3895  2.5207
 1601TIP3    H226439   3.071   1.738   7.521 -0.1155 -0.1913 -0.0253
 1602TIP3   OH226440   1.748   0.989   1.244 -1.2054  0.1736 -0.0101
 1602TIP3    H126441   1.797   1.037   1.311 -0.6442  0.2204 -0.4556
 1602TIP3    H226442   1.814   0.939   1.196 -1.6458 -0.1255 -0.3170
 1603TIP3   OH226443   0.795   4.135   6.933  0.0514  0.9388 -0.2795
 1603TIP3    H126444   0.743   4.148   7.013  3.0409 -0.8653  2.1978
 1603TIP3    H226445   0.745   4.070   6.883 -1.8303  2.0047  0.1136
 1604TIP3   OH226446   1.503   0.619   6.883 -0.0298  0.1366 -0.8272
 1604TIP3    H126447   1.559   0.543   6.870  0.0047  0.4252 -2.7281
 1604TIP3    H226448   1.465   0.636   6.796  0.7962  2.9183 -0.7532
 1605TIP3   OH226449   5.398   2.459   7.817 -0.0722  0.0321 -0.1091
 1605TIP3    H126450   5.490   2.475   7.797 -0.2896  0.2414 -0.9817
 1605TIP3    H226451   5.365   2.543   7.849  0.1334 -0.1533  0.6188
 1606TIP3   OH226452   3.829   1.088   1.098 -0.1786  0.0237 -0.4323
 1606TIP3    H126453   3.887   1.157   1.130 -1.7071  1.2764 -0.2795
 1606TIP3    H226454   3.842   1.088   1.003 -1.0281  1.3426 -0.5616
 1607TIP3   OH226455   1.265   6.773   7.477  0.4413 -0.0417  0.1421
 1607TIP3    H126456   1.279   6.720   7.555  0.6499  0.3458  0.3757
 1607TIP3    H226457   1.293   6.717   7.404 -0.0553 -0.5180  0.3125
 1608TIP3   OH226458   6.024   6.546   2.501  0.1528 -0.2671  0.2217
 1608TIP3    H126459   5.973   6.585   2.571  0.7151  0.4637  0.2421
 1608TIP3    H226460   6.109   6.528   2.541  0.5260  0.2919 -0.2993
 1609TIP3   OH226461   4.925   1.094   0.247 -0.3539  0.0518  0.1471
 1609TIP3    H126462   4.947   1.001   0.247 -2.8032 -0.6225  1.3702
 1609TIP3    H226463   4.981   1.132   0.315  2.3101  0.0261 -1.8828
 1610TIP3   OH226464   0.893   0.059   8.272 -0.7402  0.3120  0.6557
 1610TIP3    H126465   0.872   0.116   8.198  1.4056  1.5213  0.8869
 1610TIP3    H226466   0.822  -0.005   8.274 -1.0506  0.4085 -2.2629
 1611TIP3   OH226467   0.505   1.456   6.549 -0.4607 -0.1188  0.4338
 1611TIP3    H126468   0.448   1.379   6.539 -1.2869  0.6431 -1.1965
 1611TIP3    H226469   0.465   1.507   6.619 -2.1947  0.6879 -1.0702
 1612TIP3   OH226470   1.805   6.093   8.215 -0.9412  0.0001  0.6991
 1612TIP3    H126471   1.892   6.106   8.255 -0.9959  1.1017  0.4923
 1612TIP3    H226472   1.805   6.002   8.187  0.1914  0.0099  0.6232
 1613TIP3   OH226473   0.327   1.605   0.424  0.0940  0.4591  0.2992
 1613TIP3    H126474   0.360   1.522   0.458  2.8388  1.2624 -0.0884
 1613TIP3    H226475   0.363   1.671   0.484  2.0205  1.6485 -1.9829
 1614TIP3   OH226476   0.403   3.373   8.243 -0.1514 -0.0200  0.7942
 1614TIP3    H126477   0.406   3.425   8.162 -0.1800 -1.5036 -0.2027
 1614TIP3    H226478   0.346   3.299   8.222  0.4714 -0.8501  1.9054
 1615TIP3   OH226479   1.133   5.853   6.703  0.0722  0.0668 -0.1759
 1615TIP3    H126480   1.111   5.790   6.634 -1.3175 -1.4207  1.5292
 1615TIP3    H226481   1.057   5.910   6.710 -0.0657 -0.1933  0.5371
 1616TIP3   OH226482   5.798   6.792   0.051  0.4232  0.6706 -0.3198
 1616TIP3    H126483   5.869   6.848   0.084  1.2913 -0.0694 -0.8567
 1616TIP3    H226484   5.827   6.703   0.073 -0.9455  0.4143  0.5636
 1617TIP3   OH226485   1.825   0.667   8.077  0.0375 -0.1008  0.5366
 1617TIP3    H126486   1.745   0.711   8.047  0.2830  0.4055  0.6293
 1617TIP3    H226487   1.868   0.730   8.135  0.1230 -0.6643  1.0955
 1618TIP3   OH226488   4.307   4.690   8.359 -0.4719  0.5377  0.0494
 1618TIP3    H126489   4.382   4.746   8.376  0.1451 -0.2741  0.0368
 1618TIP3    H226490   4.336   4.631   8.290  0.4065 -2.5901  2.8518
 1619TIP3   OH226491   2.888   0.413   7.523 -0.9774 -0.5390  0.1265
 1619TIP3    H126492   2.839   0.331   7.530 -0.2658 -1.0950 -1.0663
 1619TIP3    H226493   2.946   0.413   7.600 -1.5380 -0.7677  0.5519
 1620TIP3   OH226494   2.689   0.138   0.649  0.1675 -0.5088  0.1247
 1620TIP3    H126495   2.784   0.129   0.657  0.3944 -3.9377 -3.5908
 1620TIP3    H226496   2.654   0.081   0.718  0.7870 -0.0738  0.8197
 1621TIP3   OH226497   6.452   3.991   7.868 -0.0173  0.5503 -0.2823
 1621TIP3    H126498   6.500   3.917   7.831  0.1413 -0.0789  1.1349
 1621TIP3    H226499   6.396   3.953   7.935 -0.1901  1.6757  0.2358
 1622TIP3   OH226500   0.971   2.038   2.414  0.5104 -0.7309 -0.5414
 1622TIP3    H126501   0.919   2.084   2.349  0.2098 -0.3612 -0.0534
 1622TIP3    H226502   0.906   1.994   2.470  0.5066  1.6292  1.5134
 1623TIP3   OH226503   0.356   1.362   2.027 -0.6716 -0.0282 -0.0717
 1623TIP3    H126504   0.332   1.288   1.971 -0.4719 -1.4292  1.6274
 1623TIP3    H226505   0.399   1.423   1.967 -1.5868 -0.8877 -1.6824
 1624TIP3   OH226506   0.203   0.490   1.533 -0.2591 -0.0266 -0.5005
 1624TIP3    H126507   0.239   0.485   1.622 -0.9681  2.9822  0.0537
 1624TIP3    H226508   0.280   0.478   1.476  1.2104  2.9411  0.6376
 1625TIP3   OH226509   1.231   6.916   1.152  0.2174 -0.6746  0.3487
 1625TIP3    H126510   1.318   6.904   1.190  0.4755  1.3293  0.4697
 1625TIP3    H226511   1.247   6.927   1.058  0.2229  0.5967  0.4778
 1626TIP3   OH226512   4.834   1.486   2.053 -0.1109  0.0420  0.7716
 1626TIP3    H126513   4.766   1.433   2.012  0.6047  0.7339 -1.4061
 1626TIP3    H226514   4.821   1.472   2.147 -0.4667 -3.3462  0.3524
 1627TIP3   OH226515   4.368   3.382   7.549  0.6420 -0.2970  0.4977
 1627TIP3    H126516   4.365   3.342   7.462 -0.7828  0.2293  0.2745
 1627TIP3    H226517   4.367   3.476   7.533 -1.6693 -0.1588  1.0566
 1628TIP3   OH226518   1.876   1.522   6.392  0.3974 -0.0134 -0.2166
 1628TIP3    H126519   1.847   1.449   6.337  0.3042 -1.3180  1.4624
 1628TIP3    H226520   1.939   1.482   6.453 -0.6357  1.0032  1.6179
 1629TIP3   OH226521   1.219   6.162   7.115  0.2644 -0.3242  0.5933
 1629TIP3    H126522   1.174   6.234   7.071 -0.3507 -1.0560 -0.0162
 1629TIP3    H226523   1.160   6.087   7.104  1.5206 -1.2668 -0.0321
 1630TIP3   OH226524   3.771   3.151   6.576 -0.3916  0.0536  0.3420
 1630TIP3    H126525   3.854   3.199   6.586 -0.2136 -0.3419  0.8486
 1630TIP3    H226526   3.789   3.088   6.506 -0.7041  0.8790 -0.4945
 1631TIP3   OH226527   0.358   1.744   8.141  0.3418  0.1693 -0.2803
 1631TIP3    H126528   0.310   1.701   8.213 -1.2667  0.2438 -1.2466
 1631TIP3    H226529   0.450   1.725   8.158 -0.0820 -0.7246  1.2020
 1632TIP3   OH226530   3.886   3.023   0.279 -0.3551 -0.0867  0.3913
 1632TIP3    H126531   3.940   3.065   0.212 -2.6628 -0.9783 -2.1953
 1632TIP3    H226532   3.919   2.933   0.283 -0.5522 -0.1789  0.0247
 1633TIP3   OH226533   6.291   3.232   0.750 -0.8984 -0.6712  0.6283
 1633TIP3    H126534   6.253   3.152   0.713  0.1051 -0.6485 -0.4814
 1633TIP3    H226535   6.376   3.240   0.707 -1.2433  1.3410  0.2645
 1634TIP3   OH226536   3.866   2.200   1.755  0.2217 -0.0947  0.2713
 1634TIP3    H126537   3.828   2.239   1.834  1.5408 -0.4092  1.0844
 1634TIP3    H226538   3.960   2.197   1.772  0.3417 -2.0905 -0.4504
 1635TIP3   OH226539   0.560   4.819   7.859 -0.1751 -0.0727 -0.0591
 1635TIP3    H126540   0.625   4.781   7.800 -1.1751 -0.5186 -0.9065
 1635TIP3    H226541   0.611   4.852   7.933  0.8702 -1.9608  0.1254
 1636TIP3   OH226542   6.529   2.699   8.094  0.6904  0.1760 -0.1384
 1636TIP3    H126543   6.492   2.666   8.176 -0.9290 -0.0582 -0.9271
 1636TIP3    H226544   6.457   2.694   8.031  1.7164  0.9419 -1.4303
 1637TIP3   OH226545   1.624   1.322   1.313 -0.7081  0.4556 -0.5357
 1637TIP3    H126546   1.672   1.301   1.233  0.3521 -2.1684  0.6809
 1637TIP3    H226547   1.534   1.295   1.295 -0.6563  0.6821 -1.1364
 1638TIP3   OH226548   3.394   5.346   8.045 -0.3181 -0.1282  0.4677
 1638TIP3    H126549   3.351   5.342   8.130  1.3558  0.8264  1.4189
 1638TIP3    H226550   3.364   5.428   8.006  2.6744  2.1236  2.4213
 1639TIP3   OH226551   2.637   3.663   0.449  0.4091 -1.0502 -0.1679
 1639TIP3    H126552   2.563   3.721   0.470  1.4092  0.4682 -0.6390
 1639TIP3    H226553   2.607   3.576   0.474 -0.8024 -0.2124  1.4965
 1640TIP3   OH226554   3.270   6.298   0.765 -0.1371  0.1417 -0.4208
 1640TIP3    H126555   3.281   6.211   0.728 -0.3552 -0.1088  0.0929
 1640TIP3    H226556   3.253   6.283   0.858 -2.4045  0.5866 -0.7063
 1641TIP3   OH226557   4.582   4.695   2.423  0.1726  0.1123  0.0046
 1641TIP3    H126558   4.630   4.620   2.457 -0.3228  0.0243  0.5140
 1641TIP3    H226559   4.506   4.658   2.378 -0.7934  0.3471  1.3970
 1642TIP3   OH226560   2.159   6.834   0.997 -0.0078 -0.1212 -0.2871
 1642TIP3    H126561   2.073   6.793   0.987  0.1976 -1.0685  1.4359
 1642TIP3    H226562   2.219   6.761   1.006  0.9499  0.5426 -1.0517
 1643TIP3   OH226563   3.804   0.119   0.942 -0.1755  0.1926  0.1448
 1643TIP3    H126564   3.809   0.030   0.977 -1.1663  0.0256 -0.1273
 1643TIP3    H226565   3.888   0.131   0.897  1.0892  0.3416  2.3616
 1644TIP3   OH226566   4.762   3.332   2.361  0.7603  0.5505 -0.5772
 1644TIP3    H126567   4.736   3.298   2.447  0.9690  0.6381 -0.4770
 1644TIP3    H226568   4.680   3.344   2.314  0.7283 -1.0721 -0.9858
 1645TIP3   OH226569   5.524   5.903   1.505  0.0157 -0.5657 -0.0519
 1645TIP3    H126570   5.612   5.929   1.532  0.4225 -0.3180 -1.4778
 1645TIP3    H226571   5.481   5.875   1.585  0.4070  2.0685  1.1795
 1646TIP3   OH226572   2.695   4.081   1.202  0.4787 -0.0328  0.0062
 1646TIP3    H126573   2.696   4.171   1.169 -1.4827 -0.1751 -0.5514
 1646TIP3    H226574   2.668   4.028   1.127 -2.6197 -0.5356  1.3124
 1647TIP3   OH226575   5.912   3.697   1.924 -1.0607 -0.1289 -0.1235
 1647TIP3    H126576   5.851   3.760   1.962 -0.9719  0.6406 -1.1978
 1647TIP3    H226577   5.958   3.747   1.856 -0.6898 -1.2474 -0.7143
 1648TIP3   OH226578   2.240   2.692   1.595  0.2983  0.3246  0.0580
 1648TIP3    H126579   2.322   2.719   1.552  1.1074  1.1620  2.0177
 1648TIP3    H226580   2.196   2.775   1.615 -0.0082 -0.0443  0.9226
 1649TIP3   OH226581   6.071   1.252   0.006  0.3147  0.9606  0.7033
 1649TIP3    H126582   6.132   1.281   0.075  2.1124  0.8082 -0.7479
 1649TIP3    H226583   6.117   1.270  -0.076 -0.2261 -2.1308 -0.4135
 1650TIP3   OH226584   6.218   1.610   7.295 -0.1763  0.7653  0.4497
 1650TIP3    H126585   6.139   1.602   7.242  1.0686  1.7461 -1.6836
 1650TIP3    H226586   6.258   1.524   7.291  0.4098  1.0776 -1.1263
 1651TIP3   OH226587   5.127   2.049   2.304  0.1270  0.1355 -0.2778
 1651TIP3    H126588   5.098   2.062   2.214 -0.7259 -0.5039 -0.1104
 1651TIP3    H226589   5.170   1.963   2.303  0.8372  0.4835 -0.2374
 1652TIP3   OH226590   4.980   1.265   1.874  0.1719 -0.2576 -0.0832
 1652TIP3    H126591   4.900   1.309   1.844 -0.2058  0.2756  1.5475
 1652TIP3    H226592   4.991   1.297   1.964  0.9607 -2.0708  0.5008
 1653TIP3   OH226593   4.606   1.599   6.497 -0.2328 -0.7388  0.2807
 1653TIP3    H126594   4.583   1.506   6.500 -0.1788 -0.7356  1.9699
 1653TIP3    H226595   4.552   1.639   6.566 -2.0842  0.9477 -1.9768
 1654TIP3   OH226596   1.763   1.523   0.609 -0.3783  0.1007 -0.1777
 1654TIP3    H126597   1.695   1.463   0.579  0.2600 -1.1601  0.8198
 1654TIP3    H226598   1.843   1.492   0.566  0.5561 -1.7239  2.5755
 1655TIP3   OH226599   0.758   4.718   6.875 -0.3814 -0.3266 -0.7205
 1655TIP3    H126600   0.767   4.624   6.890 -1.0219  0.0131  2.5112
 1655TIP3    H226601   0.668   4.738   6.902 -0.0720  1.2974 -0.7640
 1656TIP3   OH226602   5.008   3.801   7.911 -0.2456 -0.3786  0.2362
 1656TIP3    H126603   5.012   3.749   7.991 -1.7613  0.5959  1.0130
 1656TIP3    H226604   4.980   3.888   7.941 -0.3333  0.1567 -1.3013
 1657TIP3   OH226605   6.257   4.251   7.263 -0.5232 -0.0502  0.1739
 1657TIP3    H126606   6.183   4.223   7.209  1.0862 -0.1388 -2.1604
 1657TIP3    H226607   6.224   4.326   7.312 -3.2878 -2.4342  2.3396
 1658TIP3   OH226608   2.166   0.819   0.999  0.2780  0.3246 -0.4794
 1658TIP3    H126609   2.208   0.901   0.973 -1.7589  1.3701 -0.7231
 1658TIP3    H226610   2.189   0.809   1.091  1.8167  0.3311 -0.8446
 1659TIP3   OH226611   3.225   3.398   6.557 -0.0269  0.0731  0.0556
 1659TIP3    H126612   3.200   3.478   6.510  2.6209  0.1995 -1.3473
 1659TIP3    H226613   3.317   3.385   6.534 -0.3170 -3.3558  0.2987
 1660TIP3   OH226614   3.754   2.860   2.776 -0.3907  0.1794  0.6619
 1660TIP3    H126615   3.798   2.857   2.862 -1.0473 -0.8825  0.9715
 1660TIP3    H226616   3.667   2.893   2.795 -0.8694 -0.9842  0.5625
 1661TIP3   OH226617   5.573   2.499   2.336 -0.2085 -0.0722 -0.0534
 1661TIP3    H126618   5.486   2.529   2.310  0.0990 -0.3311 -1.4936
 1661TIP3    H226619   5.596   2.434   2.269 -0.6703 -3.2800  2.6499
 1662TIP3   OH226620   3.176   0.961   7.755  0.0090 -0.0310 -0.0877
 1662TIP3    H126621   3.109   0.902   7.722 -1.3197  1.0660  0.5580
 1662TIP3    H226622   3.160   0.966   7.850  0.8151  0.4674  0.0341
 1663TIP3   OH226623   3.159   2.019   1.284 -0.3283  0.2031 -0.2629
 1663TIP3    H126624   3.232   1.958   1.292 -0.6973 -0.0304  1.8193
 1663TIP3    H226625   3.193   2.089   1.228  1.9517  0.6879  1.5883
 1664TIP3   OH226626   6.536   2.501   8.323 -0.3096 -0.9149 -0.4805
 1664TIP3    H126627   6.446   2.511   8.355 -0.3097 -2.1951 -0.0460
 1664TIP3    H226628   6.589   2.542   8.391 -0.5091 -0.8629 -0.3533
 1665TIP3   OH226629   4.937   0.708   1.575  0.0084  0.2744 -0.4998
 1665TIP3    H126630   5.016   0.669   1.614 -0.3656  0.2672  0.2636
 1665TIP3    H226631   4.965   0.794   1.545  0.4210  0.0891 -0.6563
 1666TIP3   OH226632   1.895   0.017   8.211 -0.7380  0.3449 -0.4485
 1666TIP3    H126633   1.806   0.001   8.180 -1.7139  0.1329  2.1477
 1666TIP3    H226634   1.884   0.062   8.295  1.4497 -1.7297  1.1311
 1667TIP3   OH226635   5.572   3.193   7.961  0.1700 -0.2936  0.4510
 1667TIP3    H126636   5.531   3.249   7.895 -0.7350 -0.7475  0.6134
 1667TIP3    H226637   5.666   3.204   7.947 -0.0048 -0.1486 -0.7116
 1668TIP3   OH226638   3.560   1.039   1.543  0.5445  0.3477 -0.0583
 1668TIP3    H126639   3.535   1.044   1.451 -3.1187  0.7120  0.7705
 1668TIP3    H226640   3.612   1.118   1.559  2.8873 -0.6804 -2.1325
 1669TIP3   OH226641   1.760   6.535   1.883 -0.1972  0.0730  0.1747
 1669TIP3    H126642   1.838   6.563   1.930 -0.2020  0.3393  0.0293
 1669TIP3    H226643   1.690   6.537   1.948 -0.5564  2.0796 -0.1946
 1670TIP3   OH226644   6.486   2.988   0.513 -0.4517 -0.1030 -0.4782
 1670TIP3    H126645   6.402   2.941   0.521 -0.5850  0.3745  1.3837
 1670TIP3    H226646   6.466   3.064   0.459 -1.2436  0.0414  0.0067
 1671TIP3   OH226647   3.096   3.493   1.871  0.2196 -0.2940 -0.3847
 1671TIP3    H126648   3.006   3.483   1.903  0.0426 -2.0825 -1.3093
 1671TIP3    H226649   3.102   3.585   1.845 -0.1445  0.8464  3.0308
 1672TIP3   OH226650   1.550   3.388   0.443 -0.0047 -0.4063 -0.2021
 1672TIP3    H126651   1.631   3.355   0.480 -0.6719 -0.5172  1.2121
 1672TIP3    H226652   1.573   3.474   0.408  0.2550  0.6065  2.2639
 1673TIP3   OH226653   0.895   0.120   2.415 -0.3647  0.3951  0.4674
 1673TIP3    H126654   0.877   0.193   2.474 -1.1513  1.1622 -0.6949
 1673TIP3    H226655   0.948   0.060   2.467 -1.1986  0.9524  2.0250
 1674TIP3   OH226656   2.047   1.689   6.820 -0.3394 -0.3509 -0.4854
 1674TIP3    H126657   2.068   1.756   6.885  0.7709 -0.6631 -0.5042
 1674TIP3    H226658   1.954   1.671   6.833 -0.4103  0.4492  0.2056
 1675TIP3   OH226659   4.032   4.011   0.344 -0.0482 -0.0632 -0.1422
 1675TIP3    H126660   4.022   4.005   0.439 -0.6707  2.4139  0.0019
 1675TIP3    H226661   4.121   4.042   0.330  0.5792 -1.8763 -0.4959
 1676TIP3   OH226662   1.113   4.918   5.932 -0.1130 -0.0794  0.5035
 1676TIP3    H126663   1.155   4.966   6.003 -1.8433  2.4726 -0.0542
 1676TIP3    H226664   1.144   4.962   5.853 -2.5199  0.8976  0.0271
 1677TIP3   OH226665   2.883   4.963   7.538 -0.7893 -0.0806 -0.2549
 1677TIP3    H126666   2.963   4.993   7.496 -2.3753  0.3884 -3.2036
 1677TIP3    H226667   2.864   5.030   7.604  1.3647 -0.4219  0.8293
 1678TIP3   OH226668   0.366   4.162   0.035  0.0687  0.4203  0.4693
 1678TIP3    H126669   0.428   4.102   0.076  1.3538  0.2495 -1.5718
 1678TIP3    H226670   0.357   4.129  -0.055 -0.0284  2.6488 -0.3914
 1679TIP3   OH226671   4.213   1.821   6.910 -0.2035  0.3859  0.4341
 1679TIP3    H126672   4.229   1.838   6.817 -0.5099 -1.3049  0.0376
 1679TIP3    H226673   4.212   1.725   6.917  0.1505  0.4766  2.2454
 1680TIP3   OH226674   6.214   4.576   1.561 -0.5447  0.0541 -0.4113
 1680TIP3    H126675   6.146   4.521   1.522 -0.0650  0.2925 -1.6196
 1680TIP3    H226676   6.284   4.515   1.583 -1.1990 -0.2222  1.0203
 1681TIP3   OH226677   4.710   2.774   0.790  0.3946  0.4127 -0.3758
 1681TIP3    H126678   4.762   2.716   0.845  2.1874 -0.4668 -2.8077
 1681TIP3    H226679   4.725   2.742   0.701 -3.2157  1.0277 -1.3749
 1682TIP3   OH226680   2.706   0.411   8.010 -0.0969  0.5212  0.1371
 1682TIP3    H126681   2.781   0.372   7.964  0.8681  1.3426  0.9829
 1682TIP3    H226682   2.661   0.461   7.942  0.2804  0.2535 -0.3208
 1683TIP3   OH226683   6.361   6.153   0.543 -0.0853  0.1714  0.5852
 1683TIP3    H126684   6.357   6.066   0.504 -2.0676 -0.2702  1.6092
 1683TIP3    H226685   6.270   6.179   0.553  0.4252  1.6589  1.8388
 1684TIP3   OH226686   2.360   3.953   1.109  0.1140  0.3299  0.3188
 1684TIP3    H126687   2.352   3.896   1.033 -1.7881  0.2548  0.5237
 1684TIP3    H226688   2.376   4.040   1.072 -2.3244  0.5794 -0.3226
 1685TIP3   OH226689   1.515   2.767   6.659 -0.0273  0.0410  0.5409
 1685TIP3    H126690   1.518   2.691   6.600  1.4011 -0.1975  0.8984
 1685TIP3    H226691   1.525   2.729   6.747 -2.1985  0.3836  1.0062
 1686TIP3   OH226692   1.471   4.908   0.235 -0.3828 -0.6585  0.1480
 1686TIP3    H126693   1.534   4.838   0.249  0.8536  0.3182 -0.3464
 1686TIP3    H226694   1.514   4.967   0.174 -1.6235  0.2532  0.1157
 1687TIP3   OH226695   1.782   2.545   1.373 -0.9183 -0.4530 -0.3485
 1687TIP3    H126696   1.772   2.574   1.283 -0.9790 -0.5371 -0.3693
 1687TIP3    H226697   1.714   2.592   1.421 -0.8648 -0.3835 -0.3406
 1688TIP3   OH226698   6.770   3.127   8.404 -0.3737 -0.2693 -0.0111
 1688TIP3    H126699   6.806   3.113   8.492 -0.2390  0.7173  0.0962
 1688TIP3    H226700   6.837   3.176   8.357 -0.4560 -0.7700 -0.6703
 1689TIP3   OH226701   0.184   3.899   0.152  0.0312 -0.0522 -0.5613
 1689TIP3    H126702   0.191   3.867   0.062  1.0297  0.0994 -0.5451
 1689TIP3    H226703   0.264   3.869   0.194 -0.6687 -0.5861  0.4353
 1690TIP3   OH226704   6.281   3.965   2.337 -0.1903  0.0427 -0.2823
 1690TIP3    H126705   6.189   3.946   2.320 -0.4399 -0.5094  1.4464
 1690TIP3    H226706   6.281   4.004   2.425  1.0808  1.4832 -0.8717
 1691TIP3   OH226707   4.060   4.572   8.385 -0.2972  0.1107 -0.5053
 1691TIP3    H126708   3.995   4.607   8.325  1.9870  0.8430 -2.7541
 1691TIP3    H226709   4.127   4.641   8.390  0.3019 -0.5479  1.7972
 1692TIP3   OH226710   0.470   5.276   1.335 -0.3082 -0.1888 -0.0743
 1692TIP3    H126711   0.414   5.205   1.303 -0.6900 -1.1664  2.5177
 1692TIP3    H226712   0.411   5.351   1.343 -0.0618  0.2798 -2.1391
 1693TIP3   OH226713   0.836   3.583   1.660 -0.5779  0.3258 -0.1953
 1693TIP3    H126714   0.861   3.622   1.744 -1.0451 -0.0765  0.1344
 1693TIP3    H226715   0.742   3.598   1.654 -0.7357 -0.6027 -0.1403
 1694TIP3   OH226716   2.952   3.827   8.350 -0.0383 -0.7257  0.1990
 1694TIP3    H126717   3.032   3.866   8.315 -1.8133  2.6289 -0.4973
 1694TIP3    H226718   2.976   3.735   8.366  4.1069  0.2234  0.7212
 1695TIP3   OH226719   1.832   0.312   2.415  0.1254 -0.4220 -0.1085
 1695TIP3    H126720   1.756   0.364   2.387  0.3106 -1.2252 -2.2682
 1695TIP3    H226721   1.797   0.250   2.479 -0.3157  1.4897  1.6364
 1696TIP3   OH226722   4.038   4.875   0.994  0.1583  0.3727 -0.1273
 1696TIP3    H126723   4.111   4.831   0.951  1.9732  1.2005  1.9500
 1696TIP3    H226724   3.998   4.807   1.049 -1.3415 -0.3268 -1.9223
 1697TIP3   OH226725   4.017   0.727   7.181  0.0548 -0.1678 -0.0192
 1697TIP3    H126726   4.110   0.733   7.157 -0.1870  0.9227 -0.7712
 1697TIP3    H226727   3.993   0.637   7.159  1.3988 -1.1192  2.0624
 1698TIP3   OH226728   0.673   1.434   0.648 -0.0167 -0.2184  0.7235
 1698TIP3    H126729   0.593   1.412   0.601 -0.1799  0.2442  0.7840
 1698TIP3    H226730   0.737   1.369   0.617  0.2766  0.9098 -1.2335
 1699TIP3   OH226731   2.769   2.800   2.108  0.3423 -0.2421  0.4592
 1699TIP3    H126732   2.716   2.839   2.038  1.0000  0.4815  0.3471
 1699TIP3    H226733   2.710   2.738   2.151 -0.4524  0.2102  0.0524
 1700TIP3   OH226734   5.933   3.766   0.139 -0.2741 -0.0599  0.2629
 1700TIP3    H126735   5.938   3.761   0.043  0.3812 -0.3256  0.3041
 1700TIP3    H226736   5.945   3.675   0.167  0.8061  0.1877  0.6427
 1701TIP3   OH226737   2.868   5.647   1.411  0.4619 -1.1580  0.3069
 1701TIP3    H126738   2.842   5.557   1.389 -0.9040 -0.3496 -1.8003
 1701TIP3    H226739   2.922   5.675   1.337 -1.7259  0.7123 -0.7127
 1702TIP3   OH226740   1.247   5.067   0.389 -0.7269  0.1407  0.1257
 1702TIP3    H126741   1.219   5.153   0.360 -0.8590  0.6362  1.6595
 1702TIP3    H226742   1.266   5.019   0.308 -1.8079  1.2042 -0.7831
 1703TIP3   OH226743   4.801   5.842   7.187  0.2602  0.7518 -0.3936
 1703TIP3    H126744   4.794   5.747   7.180  1.4135  0.6173 -0.0789
 1703TIP3    H226745   4.875   5.865   7.131 -0.4616  1.5608 -1.0445
 1704TIP3   OH226746   3.273   2.569   6.519 -0.7460 -0.7190 -0.4347
 1704TIP3    H126747   3.210   2.511   6.562 -0.2907 -2.0484 -1.5166
 1704TIP3    H226748   3.331   2.511   6.471  2.2805  0.3452  1.6557
 1705TIP3   OH226749   1.406   6.596   0.985 -0.1854 -0.2688  0.1149
 1705TIP3    H126750   1.495   6.568   0.965  0.0068  0.0698  0.4702
 1705TIP3    H226751   1.406   6.609   1.080 -0.5893 -0.1886  0.1048
 1706TIP3   OH226752   5.743   0.435   0.112  0.4274  0.2585  0.4535
 1706TIP3    H126753   5.754   0.525   0.081  1.4580 -0.1104 -0.3204
 1706TIP3    H226754   5.694   0.443   0.194  1.4063  1.6044  0.9283
 1707TIP3   OH226755   2.918   0.890   1.199  0.9508 -0.1634 -0.0520
 1707TIP3    H126756   2.917   0.879   1.294  0.5162  1.3519  0.1453
 1707TIP3    H226757   2.953   0.807   1.165  2.0562 -0.3631  1.4801
 1708TIP3   OH226758   3.941   5.541   2.234  0.4543  0.1395  0.4528
 1708TIP3    H126759   3.858   5.494   2.245  0.7949 -0.5520  0.1082
 1708TIP3    H226760   4.002   5.496   2.291  0.6809  0.4367  0.4452
 1709TIP3   OH226761   3.442   1.366   7.798  0.2472 -0.2848 -0.1809
 1709TIP3    H126762   3.432   1.446   7.850 -0.3859 -0.8023  0.5216
 1709TIP3    H226763   3.536   1.347   7.802  0.3452  0.2037 -0.0225
 1710TIP3   OH226764   6.270   6.218   2.073  0.1495  0.6843 -0.5064
 1710TIP3    H126765   6.272   6.130   2.112 -2.5900  1.0590  0.6815
 1710TIP3    H226766   6.314   6.273   2.138 -0.7864  0.6473  0.1757
 1711TIP3   OH226767   4.437   6.703   7.079  0.5268 -0.2808 -0.1086
 1711TIP3    H126768   4.499   6.774   7.060 -0.3981  0.7393  0.5732
 1711TIP3    H226769   4.367   6.714   7.015  1.3535 -1.8870 -1.3643
 1712TIP3   OH226770   6.580   1.942   0.875  0.1326  0.5005  0.2220
 1712TIP3    H126771   6.586   1.857   0.918  1.4522  0.0135 -0.8404
 1712TIP3    H226772   6.640   1.998   0.923  0.7650  0.2668 -0.2858
 1713TIP3   OH226773   6.955   4.693   1.557 -0.5211 -0.4352  0.1178
 1713TIP3    H126774   6.880   4.750   1.536 -0.7964 -0.5375  0.8121
 1713TIP3    H226775   6.972   4.647   1.475 -0.3925  0.5251 -0.4110
 1714TIP3   OH226776   2.159   1.157   7.321 -0.4801  0.0920  0.2108
 1714TIP3    H126777   2.117   1.166   7.236  1.5514 -1.0756 -0.9790
 1714TIP3    H226778   2.173   1.247   7.351 -0.3526  0.5243 -1.1133
 1715TIP3   OH226779   6.555   2.824   7.419  0.6407  0.0875 -0.0492
 1715TIP3    H126780   6.489   2.871   7.469  1.4563  1.7978 -0.5141
 1715TIP3    H226781   6.564   2.740   7.464 -1.1380  0.2017  0.5793
 1716TIP3   OH226782   0.528   3.717   8.180 -0.1689  0.1905  0.1375
 1716TIP3    H126783   0.501   3.639   8.131 -0.2819  0.1021  0.3398
 1716TIP3    H226784   0.593   3.759   8.124  0.0323 -0.1510  0.1090
 1717TIP3   OH226785   4.777   0.129   0.330  0.3434 -0.3894 -0.0409
 1717TIP3    H126786   4.750   0.076   0.254  0.8606 -1.5700  0.5816
 1717TIP3    H226787   4.871   0.117   0.335  0.5018  0.7905 -0.0139
 1718TIP3   OH226788   5.776   5.194   7.915  0.2149  0.3328  0.0227
 1718TIP3    H126789   5.704   5.164   7.970  0.3951 -1.9612 -0.9003
 1718TIP3    H226790   5.737   5.261   7.860 -0.8434  0.1569  0.5277
 1719TIP3   OH226791   3.621   2.729   7.641 -0.3285  0.3308  0.0712
 1719TIP3    H126792   3.653   2.646   7.606  1.0067  1.1619 -0.7716
 1719TIP3    H226793   3.673   2.744   7.720  0.7039  1.1865 -0.7383
 1720TIP3   OH226794   1.499   1.607   0.406 -0.1834  0.3602 -0.1815
 1720TIP3    H126795   1.557   1.680   0.429 -1.5244  1.8526 -1.2861
 1720TIP3    H226796   1.546   1.529   0.436  1.8307  1.5730  0.0469
 1721TIP3   OH226797   6.037   6.127   1.728 -0.5369 -0.0045  0.0737
 1721TIP3    H126798   5.965   6.189   1.727 -1.6003 -1.2059 -0.0578
 1721TIP3    H226799   6.110   6.175   1.689  0.1877  2.8240  4.3005
 1722TIP3   OH226800   5.450   5.990   0.785 -0.2739 -0.3420  0.4903
 1722TIP3    H126801   5.533   5.944   0.774 -0.5620 -0.4604 -1.5902
 1722TIP3    H226802   5.455   6.030   0.872  1.7953 -0.6327  0.5400
 1723TIP3   OH226803   2.234   2.599   8.082 -0.1959  0.1200  0.0378
 1723TIP3    H126804   2.249   2.603   7.988 -2.0460 -1.6072 -0.4059
 1723TIP3    H226805   2.274   2.516   8.109 -0.2012  0.3149  0.6540
 1724TIP3   OH226806   6.430   6.610   2.104 -0.6324  0.4759 -0.4919
 1724TIP3    H126807   6.495   6.658   2.156 -0.3320 -0.1296 -0.3039
 1724TIP3    H226808   6.482   6.549   2.052 -1.0888 -0.5032  0.1739
 1725TIP3   OH226809   6.819   1.110   6.908  0.4273  0.0674  0.3160
 1725TIP3    H126810   6.768   1.190   6.923  1.6942  1.1148 -0.7378
 1725TIP3    H226811   6.906   1.141   6.883  1.6432 -1.6590  2.1043
 1726TIP3   OH226812   3.318   1.435   1.452 -0.2939  0.4418  0.0700
 1726TIP3    H126813   3.375   1.446   1.528 -1.3471 -0.2596  1.0051
 1726TIP3    H226814   3.338   1.347   1.420  0.5697  0.9574 -0.8527
 1727TIP3   OH226815   5.516   3.411   1.429 -0.0540  0.0674 -0.7221
 1727TIP3    H126816   5.474   3.335   1.389  0.8633  0.3923 -2.4074
 1727TIP3    H226817   5.585   3.374   1.484 -1.2614 -0.3825  0.5456
 1728TIP3   OH226818   6.152   1.901   1.127 -0.1014 -0.6437 -0.4636
 1728TIP3    H126819   6.180   1.812   1.151 -1.3201 -0.5822  1.4080
 1728TIP3    H226820   6.215   1.929   1.061  0.8098 -2.5871 -0.4879
 1729TIP3   OH226821   6.896   5.178   1.623 -0.4655  0.2097  0.1336
 1729TIP3    H126822   6.915   5.257   1.573 -0.8139  0.5579  0.5441
 1729TIP3    H226823   6.964   5.175   1.690 -0.1720 -0.0990 -0.1722
 1730TIP3   OH226824   1.324   2.688   8.178 -0.0077  0.2632  0.0223
 1730TIP3    H126825   1.357   2.609   8.136  0.1867  0.8038 -0.8752
 1730TIP3    H226826   1.321   2.753   8.108 -1.7706  0.5894  0.3482
 1731TIP3   OH226827   6.501   1.435   0.916 -0.1483 -0.2408 -0.7252
 1731TIP3    H126828   6.522   1.377   0.843  4.4380  0.8637 -0.5960
 1731TIP3    H226829   6.522   1.384   0.995 -1.5898 -0.2123 -0.2908
 1732TIP3   OH226830   0.604   1.015   0.561  0.1606 -0.0622  0.1437
 1732TIP3    H126831   0.624   1.006   0.654  0.5335 -0.1003  0.0617
 1732TIP3    H226832   0.687   0.998   0.517  0.0243  0.1195 -0.1892
 1733TIP3   OH226833   5.578   0.956   2.260 -0.1674 -0.0278 -0.0632
 1733TIP3    H126834   5.650   0.959   2.323 -0.4040 -0.3553  0.2243
 1733TIP3    H226835   5.561   1.048   2.239  0.4926  0.0420 -0.3166
 1734TIP3   OH226836   6.781   6.823   1.072  0.7434 -0.0379  0.1179
 1734TIP3    H126837   6.714   6.771   1.027  1.8802  0.3901 -2.2808
 1734TIP3    H226838   6.762   6.914   1.046  2.0219  0.1156 -0.3792
 1735TIP3   OH226839   6.841   2.131   0.407 -0.7174 -0.0791 -0.0098
 1735TIP3    H126840   6.860   2.041   0.432 -1.6639 -0.5637 -0.9272
 1735TIP3    H226841   6.748   2.143   0.427 -0.0369  1.6355  2.7192
 1736TIP3   OH226842   2.391   1.677   6.249 -0.2774  0.1844 -0.3955
 1736TIP3    H126843   2.427   1.666   6.162  1.1491 -0.8322  0.2893
 1736TIP3    H226844   2.345   1.595   6.267 -1.9771  1.0079 -0.7904
 1737TIP3   OH226845   6.812   2.184   1.314  0.2052  0.3947  0.5859
 1737TIP3    H126846   6.799   2.276   1.338  1.8787  0.9520 -0.5388
 1737TIP3    H226847   6.869   2.150   1.382  1.2116  0.7446 -0.0655
 1738TIP3   OH226848   6.923   2.409   2.172 -0.4116 -0.1601 -0.0201
 1738TIP3    H126849   6.851   2.423   2.234 -0.3620  3.2416 -0.5360
 1738TIP3    H226850   6.996   2.380   2.226 -1.3516 -0.8020  0.9534
 1739TIP3   OH226851   6.195   3.393   7.229  0.3693 -0.6278  0.2004
 1739TIP3    H126852   6.159   3.357   7.149  1.3812  0.2589 -0.6982
 1739TIP3    H226853   6.137   3.465   7.252  0.1460 -0.8071  0.1973
 1740TIP3   OH226854   5.022   1.693   2.311  0.0252 -0.2209 -0.1253
 1740TIP3    H126855   5.108   1.728   2.287 -0.2974  0.0472 -0.9237
 1740TIP3    H226856   5.036   1.653   2.397  0.4768  1.5317  0.6496
 1741TIP3   OH226857   2.281   2.233   0.282 -0.5514 -0.0849 -0.2692
 1741TIP3    H126858   2.307   2.325   0.288 -0.1096  0.0345 -2.8750
 1741TIP3    H226859   2.352   2.185   0.326  0.4291  0.6851 -0.9693
 1742TIP3   OH226860   3.285   6.454   6.814 -0.2833  0.6628 -0.0200
 1742TIP3    H126861   3.340   6.530   6.835 -0.4932  0.6088  0.7529
 1742TIP3    H226862   3.343   6.379   6.823 -0.4023  0.6291  0.5297
 1743TIP3   OH226863   1.191   1.804   1.248 -0.2920  0.1456 -0.1716
 1743TIP3    H126864   1.247   1.873   1.213  1.8387 -1.5460 -0.2335
 1743TIP3    H226865   1.209   1.804   1.342  1.2912 -1.5902 -0.4179
 1744TIP3   OH226866   3.786   1.870   6.643 -0.0008 -0.3013  0.1475
 1744TIP3    H126867   3.790   1.864   6.738 -0.6845 -0.1281  0.1874
 1744TIP3    H226868   3.769   1.780   6.613  0.6569 -0.4344  0.1602
 1745TIP3   OH226869   2.372   2.374   8.129 -0.4904 -0.4819  0.0618
 1745TIP3    H126870   2.448   2.364   8.072  0.2511 -0.1171  0.9627
 1745TIP3    H226871   2.366   2.291   8.176 -0.1631 -0.2258  0.5632
 1746TIP3   OH226872   4.579   2.726   2.372  0.2916  0.0428 -0.0701
 1746TIP3    H126873   4.586   2.634   2.349 -2.0880 -0.4945  1.1163
 1746TIP3    H226874   4.650   2.740   2.435  1.4574 -0.6048 -1.1806
 1747TIP3   OH226875   5.765   6.587   0.754 -0.0247 -0.0876 -0.3370
 1747TIP3    H126876   5.852   6.609   0.720  0.2680 -0.9693 -0.1801
 1747TIP3    H226877   5.747   6.654   0.820 -0.6372  1.7338 -2.2132
 1748TIP3   OH226878   0.525   3.588   7.043  0.3198 -0.3884  0.2011
 1748TIP3    H126879   0.612   3.629   7.045 -0.3002  0.9549  0.8904
 1748TIP3    H226880   0.499   3.582   7.135  0.5597 -2.8298  0.1901
 1749TIP3   OH226881   0.643   5.043   6.023 -0.3444 -0.4715 -0.9167
 1749TIP3    H126882   0.601   4.987   6.088 -1.2691 -0.1467 -1.2139
 1749TIP3    H226883   0.641   5.131   6.062  0.1164 -0.4577 -0.9137
 1750TIP3   OH226884   6.852   0.708   0.627 -0.0528  0.0652  0.3230
 1750TIP3    H126885   6.909   0.668   0.693  1.6550 -0.7831 -1.5354
 1750TIP3    H226886   6.828   0.793   0.664 -0.2832 -0.9113  2.5713
 1751TIP3   OH226887   5.783   3.380   8.179 -0.3362 -0.4760 -0.4491
 1751TIP3    H126888   5.741   3.461   8.149  0.9546  0.5987  0.4905
 1751TIP3    H226889   5.812   3.337   8.099 -0.5677  0.2718 -0.9450
 1752TIP3   OH226890   0.323   3.628   1.242  0.5370 -0.1242 -0.4162
 1752TIP3    H126891   0.404   3.651   1.196  1.7673 -1.8752  0.7525
 1752TIP3    H226892   0.294   3.547   1.200 -1.6543  1.3742 -2.0009
 1753TIP3   OH226893   6.593   1.141   0.499  0.1198 -0.0458  0.2688
 1753TIP3    H126894   6.510   1.130   0.452  0.4029  2.3110 -0.9457
 1753TIP3    H226895   6.658   1.098   0.443  0.0617  0.3490 -0.1076
 1754TIP3   OH226896   4.801   1.199   8.116  0.2827  0.0418  0.0068
 1754TIP3    H126897   4.715   1.209   8.076  0.5182  1.8872 -0.1445
 1754TIP3    H226898   4.852   1.151   8.052  0.0530  1.1187 -1.0269
 1755TIP3   OH226899   4.645   5.859   0.344 -0.3846  0.1651  0.4571
 1755TIP3    H126900   4.555   5.840   0.368  0.0317 -0.2087  1.8461
 1755TIP3    H226901   4.638   5.917   0.268 -1.8560  1.8911  1.7999
 1756TIP3   OH226902   0.993   2.732   0.559  0.5850  0.1422  0.1163
 1756TIP3    H126903   0.968   2.643   0.583 -0.2650  0.7570  1.7453
 1756TIP3    H226904   0.913   2.783   0.571  1.0937  1.1503 -0.6391
 1757TIP3   OH226905   0.652   5.978   8.054 -0.3819  0.0250 -0.1890
 1757TIP3    H126906   0.677   5.932   8.134 -1.7070 -1.1818 -0.4236
 1757TIP3    H226907   0.592   5.917   8.010  0.1268  0.7777 -1.9692
 1758TIP3   OH226908   6.081   1.347   0.887  0.4345  0.1346 -0.2673
 1758TIP3    H126909   6.132   1.269   0.907  0.4676  0.1429 -0.3199
 1758TIP3    H226910   6.145   1.417   0.876  0.6860 -0.4233 -3.1958
 1759TIP3   OH226911   2.730   6.542   7.094 -0.3612 -0.1832  0.2160
 1759TIP3    H126912   2.651   6.502   7.057 -0.2376 -0.1832 -0.0453
 1759TIP3    H226913   2.786   6.467   7.116 -0.4053 -0.1798  0.3413
 1760TIP3   OH226914   5.553   2.952   2.063  0.2732  0.1414  0.8880
 1760TIP3    H126915   5.635   2.928   2.106  0.1629 -1.4620  0.2664
 1760TIP3    H226916   5.489   2.889   2.096 -0.1175 -0.2527 -0.5651
 1761TIP3   OH226917   3.377   0.296   7.548 -0.6198  0.4645 -0.1399
 1761TIP3    H126918   3.300   0.293   7.490  0.7924  0.7107 -2.1452
 1761TIP3    H226919   3.408   0.206   7.551  0.2459  0.7081 -1.1551
 1762TIP3   OH226920   4.761   6.703   7.620  0.0835  0.1050 -0.4473
 1762TIP3    H126921   4.723   6.692   7.533  0.6468 -1.4366 -0.5314
 1762TIP3    H226922   4.760   6.615   7.658  0.8374  0.5604  0.6982
 1763TIP3   OH226923   5.209   4.696   2.513  0.2516  0.7852 -0.0301
 1763TIP3    H126924   5.259   4.635   2.568 -0.2055 -0.1583 -0.6321
 1763TIP3    H226925   5.263   4.775   2.509  0.3922  0.8225  1.6100
 1764TIP3   OH226926   1.959   1.991   0.397  0.4446 -0.1255 -0.3864
 1764TIP3    H126927   1.967   1.952   0.310  2.1061  0.2820 -0.4357
 1764TIP3    H226928   2.002   1.929   0.456 -0.1637 -0.1189  0.0772
 1765TIP3   OH226929   6.868   1.940   0.639 -0.6503 -0.7659 -0.1650
 1765TIP3    H126930   6.862   1.845   0.632  0.5405 -0.7995 -1.0320
 1765TIP3    H226931   6.778   1.969   0.651 -0.9491 -2.0562  0.9855
 1766TIP3   OH226932   2.143   3.748   0.545  0.1350  0.0264  0.6784
 1766TIP3    H126933   2.048   3.747   0.538  0.0119  1.2967  1.7035
 1766TIP3    H226934   2.173   3.686   0.479 -1.3785 -0.0538  0.0258
 1767TIP3   OH226935   0.896   2.311   2.076  0.6630  0.0286  0.2501
 1767TIP3    H126936   0.887   2.255   2.153 -0.1366  0.1224  0.2322
 1767TIP3    H226937   0.919   2.252   2.005  0.4613 -0.1822  0.3614
 1768TIP3   OH226938   4.773   0.725   7.273  0.4990 -0.0991  0.3910
 1768TIP3    H126939   4.733   0.714   7.359 -1.0343 -2.6591 -0.5257
 1768TIP3    H226940   4.854   0.773   7.290 -1.3908  2.5571  2.7623
 1769TIP3   OH226941   3.136   5.639   7.262  0.4434 -0.3868 -0.4793
 1769TIP3    H126942   3.075   5.691   7.314 -0.1757 -0.0024 -1.5502
 1769TIP3    H226943   3.082   5.595   7.197  1.1997 -0.7855 -0.8590
 1770TIP3   OH226944   0.506   0.440   2.365 -0.1280 -0.3042 -0.0545
 1770TIP3    H126945   0.558   0.362   2.382  0.0082 -0.0607  0.7073
 1770TIP3    H226946   0.542   0.506   2.425 -0.4740  0.2330 -0.4332
 1771TIP3   OH226947   3.558   2.194   7.997 -0.4385 -0.3137  0.4467
 1771TIP3    H126948   3.589   2.110   7.965  0.1765 -0.4056  1.2533
 1771TIP3    H226949   3.557   2.185   8.092 -3.2004 -0.3842  0.4848
 1772TIP3   OH226950   5.387   1.346   8.154 -0.4981  0.2738  0.1238
 1772TIP3    H126951   5.366   1.311   8.067 -3.4355  1.1046  0.3764
 1772TIP3    H226952   5.315   1.316   8.210  0.5865  0.9247  1.9562
 1773TIP3   OH226953   3.472   3.375   6.439 -0.4668  0.3590  0.4704
 1773TIP3    H126954   3.465   3.321   6.359 -0.7305 -0.7051  1.1854
 1773TIP3    H226955   3.551   3.427   6.426 -0.6400  0.3869 -0.5912
 1774TIP3   OH226956   6.170   4.241   6.201 -0.2240  0.4746  0.0291
 1774TIP3    H126957   6.225   4.217   6.126 -0.5969  0.6481 -0.3088
 1774TIP3    H226958   6.092   4.279   6.161 -0.8078 -0.2182  0.4887
 1775TIP3   OH226959   1.509   5.511   7.903 -0.4230  0.6096  0.3074
 1775TIP3    H126960   1.597   5.536   7.928 -0.1122 -0.3656  0.2415
 1775TIP3    H226961   1.456   5.589   7.919  0.3450  1.0231  0.8950
 1776TIP3   OH226962   0.507   0.483   0.212  0.2185 -0.7377 -0.3467
 1776TIP3    H126963   0.443   0.470   0.141 -0.0229  0.7194 -0.4241
 1776TIP3    H226964   0.547   0.397   0.223 -0.5684 -1.2844 -1.4517
 1777TIP3   OH226965   5.856   0.965   1.507 -0.6587  0.4481 -0.3826
 1777TIP3    H126966   5.866   0.931   1.419  2.4673  0.4390 -0.1097
 1777TIP3    H226967   5.808   1.047   1.496 -0.5845  0.2937 -2.0466
 1778TIP3   OH226968   0.300   4.806   6.760 -0.1891  0.0761 -0.1830
 1778TIP3    H126969   0.274   4.731   6.706  0.3507  0.0525 -0.4169
 1778TIP3    H226970   0.337   4.766   6.839  0.2501  0.0964 -0.3801
 1779TIP3   OH226971   0.250   4.856   8.101 -0.1199  0.2454  0.0868
 1779TIP3    H126972   0.157   4.874   8.097 -0.5553 -1.4538  1.4142
 1779TIP3    H226973   0.288   4.932   8.144 -0.6663  1.5178 -1.5708
 1780TIP3   OH226974   3.235   6.928   7.578  0.1570  0.0307 -0.0837
 1780TIP3    H126975   3.161   6.876   7.609  0.2367 -0.7829 -1.1706
 1780TIP3    H226976   3.220   6.937   7.484  0.9443  0.6747 -0.1563
 1781TIP3   OH226977   6.585   3.485   6.778  0.5355 -0.0518  0.3716
 1781TIP3    H126978   6.503   3.494   6.825 -0.4021  1.1050 -1.3611
 1781TIP3    H226979   6.609   3.393   6.789 -0.6851 -0.2744  1.3933
 1782TIP3   OH226980   6.415   4.286   2.180 -0.3703  0.2345  0.1235
 1782TIP3    H126981   6.506   4.313   2.194 -0.1739 -0.3470 -0.0066
 1782TIP3    H226982   6.418   4.230   2.103 -0.6679 -0.6462  0.7292
 1783TIP3   OH226983   0.165   5.327   2.317 -0.1499 -0.2309  0.4511
 1783TIP3    H126984   0.074   5.355   2.329 -0.0236 -0.0724  1.0359
 1783TIP3    H226985   0.158   5.234   2.293 -0.5239  0.0758 -0.7186
 1784TIP3   OH226986   2.288   0.916   6.916  0.1252 -0.7638 -0.5208
 1784TIP3    H126987   2.219   0.850   6.907  0.9462 -1.6500 -0.5416
 1784TIP3    H226988   2.242   0.999   6.914 -0.8894 -1.3123 -1.1627
 1785TIP3   OH226989   1.135   3.985   8.302  0.1015  0.2836 -0.0309
 1785TIP3    H126990   1.185   4.061   8.334  3.1089 -1.2410 -0.6864
 1785TIP3    H226991   1.108   3.939   8.381  1.1112  0.3590  0.3752
 1786TIP3   OH226992   2.246   3.991   7.260 -0.2420  0.1834  0.0246
 1786TIP3    H126993   2.267   3.946   7.342 -0.8490  1.5187  0.9388
 1786TIP3    H226994   2.236   3.920   7.196  0.6241 -0.8591  1.0004
 1787TIP3   OH226995   5.576   5.578   6.885 -0.6526  0.2624 -0.5438
 1787TIP3    H126996   5.659   5.569   6.838  0.0030  1.7824  0.2314
 1787TIP3    H226997   5.512   5.599   6.817 -0.1786  0.2072 -1.0134
 1788TIP3   OH226998   2.609   4.474   7.296 -0.0014 -0.4815  0.2188
 1788TIP3    H126999   2.693   4.519   7.311  0.1705 -0.8131  0.2479
 1788TIP3    H227000   2.554   4.541   7.255  0.2263 -0.2151  0.3370
 1789TIP3   OH227001   2.012   1.429   0.506 -0.1116  0.1197  0.2822
 1789TIP3    H127002   2.074   1.419   0.578  1.1606 -1.4628 -0.9393
 1789TIP3    H227003   2.056   1.389   0.431 -1.0811  2.2836 -1.5773
 1790TIP3   OH227004   6.947   5.712   0.879 -0.6411  0.5944 -0.5484
 1790TIP3    H127005   6.986   5.630   0.849  0.2894  0.5612  0.6663
 1790TIP3    H227006   7.008   5.745   0.944 -2.5259  0.6614  1.2994
 1791TIP3   OH227007   6.620   0.695   1.121  0.1066 -0.2423  0.1405
 1791TIP3    H127008   6.715   0.704   1.127  0.2665 -1.4034 -0.2949
 1791TIP3    H227009   6.588   0.725   1.206  1.1671 -3.0459  1.6893
 1792TIP3   OH227010   2.500   3.858   7.856 -0.2686  0.1089 -0.1848
 1792TIP3    H127011   2.423   3.834   7.906  1.0809 -2.3742  0.8570
 1792TIP3    H227012   2.511   3.787   7.793  0.8710  0.6761 -0.6556
 1793TIP3   OH227013   5.715   5.692   7.713 -0.8388  0.3518 -0.3250
 1793TIP3    H127014   5.739   5.652   7.796  1.2509 -0.3833 -1.2095
 1793TIP3    H227015   5.685   5.619   7.659 -1.0312  0.6390 -0.6096
 1794TIP3   OH227016   2.534   3.685   7.636  0.2307 -0.2461 -0.0492
 1794TIP3    H127017   2.571   3.610   7.683  1.6454  0.2812 -0.2711
 1794TIP3    H227018   2.536   3.659   7.544 -0.0053 -0.2379 -0.0560
 1795TIP3   OH227019   2.445   2.072   1.798  0.1585 -0.5538 -0.0227
 1795TIP3    H127020   2.374   2.053   1.737  0.0030 -0.1418  0.0308
 1795TIP3    H227021   2.520   2.025   1.762  0.1828  0.0433 -0.7725
 1796TIP3   OH227022   2.039   3.120   0.866  0.0914 -1.2517 -0.5304
 1796TIP3    H127023   2.103   3.049   0.868  0.5425 -0.8428 -0.2093
 1796TIP3    H227024   2.054   3.168   0.948  1.7694  0.9226 -2.0141
 1797TIP3   OH227025   0.358   6.135   7.242  0.8048  0.2555 -0.0878
 1797TIP3    H127026   0.274   6.127   7.288  1.6839 -0.5578  1.4585
 1797TIP3    H227027   0.335   6.128   7.149 -0.9425  1.1407  0.2261
 1798TIP3   OH227028   6.209   0.664   1.569  0.4202  0.5585  0.0693
 1798TIP3    H127029   6.273   0.645   1.638  1.5482  0.0326 -1.0825
 1798TIP3    H227030   6.138   0.710   1.614  0.8573 -0.2629  1.6859
 1799TIP3   OH227031   2.440   4.600   1.730 -0.1079 -0.2556  0.5996
 1799TIP3    H127032   2.475   4.638   1.810 -1.4586 -0.4991  1.3240
 1799TIP3    H227033   2.488   4.518   1.720  0.9661  0.3743  0.4492
 1800TIP3   OH227034   4.392   1.094   0.484  0.1561  0.6282  0.1707
 1800TIP3    H127035   4.462   1.040   0.520 -0.0981  0.2596  0.1093
 1800TIP3    H227036   4.313   1.041   0.492 -0.2889  1.3858  1.0859
 1801TIP3   OH227037   6.070   5.893   1.592 -0.3853  0.0207 -0.0286
 1801TIP3    H127038   6.051   5.970   1.645  2.4193 -0.2438  1.5735
 1801TIP3    H227039   6.140   5.921   1.534  2.6350 -1.8156  2.4129
 1802TIP3   OH227040   3.755   3.266   1.925 -0.1776  0.0440 -0.4426
 1802TIP3    H127041   3.819   3.199   1.901 -0.8659 -0.6081 -0.4974
 1802TIP3    H227042   3.806   3.334   1.968  0.7732  0.2564 -1.8568
 1803TIP3   OH227043   6.902   5.263   7.875 -0.3788 -0.3623 -0.3958
 1803TIP3    H127044   6.929   5.277   7.966 -3.0718  1.9369  0.1882
 1803TIP3    H227045   6.918   5.170   7.859  0.0624 -0.8634  2.4806
 1804TIP3   OH227046   0.975   3.305   7.487  0.3617 -0.0855 -0.1214
 1804TIP3    H127047   0.893   3.286   7.442 -1.5197  3.3832  1.4502
 1804TIP3    H227048   1.008   3.383   7.443  0.6521  0.9185  1.7783
 1805TIP3   OH227049   4.164   3.239   7.253  0.3580  0.1286 -0.0580
 1805TIP3    H127050   4.193   3.271   7.168  0.6901 -1.7539 -0.6975
 1805TIP3    H227051   4.244   3.205   7.294  0.3891  1.8888  1.4580
 1806TIP3   OH227052   5.517   6.192   2.368  0.7920 -0.4810  0.0566
 1806TIP3    H127053   5.499   6.149   2.452  0.9144 -0.2798  0.1883
 1806TIP3    H227054   5.590   6.251   2.387 -0.3477  0.9296  0.2667
 1807TIP3   OH227055   3.956   1.626   1.561 -0.0769 -0.6816  0.4211
 1807TIP3    H127056   3.900   1.596   1.633  0.3310 -2.3083  0.1199
 1807TIP3    H227057   4.026   1.676   1.604 -0.9830  0.1780  0.9304
 1808TIP3   OH227058   0.243   1.416   7.983 -0.2672 -0.3977 -0.3192
 1808TIP3    H127059   0.237   1.386   7.893  0.5561 -0.3899 -0.3839
 1808TIP3    H227060   0.152   1.426   8.011 -0.5277 -0.0721 -1.2492
 1809TIP3   OH227061   4.910   6.793   6.691  0.8783  0.4513  0.1489
 1809TIP3    H127062   4.961   6.867   6.725 -1.1365  1.8892  0.2011
 1809TIP3    H227063   4.872   6.827   6.610  0.1939 -0.6599 -0.0052
 1810TIP3   OH227064   3.131   0.002   7.873 -0.6497  0.4287 -0.4044
 1810TIP3    H127065   3.154   0.082   7.827  1.0345 -0.8483 -1.9302
 1810TIP3    H227066   3.079   0.031   7.948  0.0901  2.9307 -0.7824
 1811TIP3   OH227067   6.613   5.069   0.475 -0.0117 -0.0285  0.0815
 1811TIP3    H127068   6.645   5.124   0.403 -0.2377 -1.3236 -1.0546
 1811TIP3    H227069   6.677   5.080   0.544 -0.4777  2.3041  0.2396
 1812TIP3   OH227070   2.468   2.241   6.092  0.3230 -0.3102 -0.8987
 1812TIP3    H127071   2.503   2.328   6.072 -2.5363  1.3827  0.6776
 1812TIP3    H227072   2.399   2.227   6.028 -3.6737  1.7438  2.4428
 1813TIP3   OH227073   6.528   5.002   0.123 -0.3185 -0.2498 -0.3222
 1813TIP3    H127074   6.535   5.030   0.032 -0.5876  1.0783  0.0461
 1813TIP3    H227075   6.596   5.051   0.169 -1.6386  0.8275  0.5638
 1814TIP3   OH227076   5.285   0.957   1.678 -0.3242 -0.5973 -0.1772
 1814TIP3    H127077   5.355   0.900   1.708 -1.5038 -2.5673 -0.9274
 1814TIP3    H227078   5.320   1.046   1.686  1.8981 -1.4561  0.2796
 1815TIP3   OH227079   5.794   0.671   1.950  0.2790 -0.0752  0.0433
 1815TIP3    H127080   5.861   0.712   1.896  0.5738  0.0781  0.5200
 1815TIP3    H227081   5.786   0.582   1.914 -0.1930  0.3061 -0.8373
 1816TIP3   OH227082   4.758   3.137   0.858  0.4456  0.2257  0.1498
 1816TIP3    H127083   4.771   3.120   0.765 -0.4415 -0.6384  0.1756
 1816TIP3    H227084   4.684   3.198   0.861 -0.1346 -0.4714  0.3168
 1817TIP3   OH227085   5.858   2.892   8.054  0.3631 -0.3219  0.0208
 1817TIP3    H127086   5.811   2.972   8.032  0.7965  0.1151  0.6635
 1817TIP3    H227087   5.948   2.920   8.070 -0.0258 -0.4673  3.0204
 1818TIP3   OH227088   0.547   3.037   0.384  0.4281  0.3314 -0.2807
 1818TIP3    H127089   0.452   3.032   0.386  0.3050  1.3919 -1.9351
 1818TIP3    H227090   0.569   3.108   0.443 -0.1169  2.5926 -2.6291
 1819TIP3   OH227091   2.393   0.815   8.343 -0.0385  0.9160  0.6487
 1819TIP3    H127092   2.393   0.732   8.294 -0.9540  1.0719  0.3555
 1819TIP3    H227093   2.308   0.817   8.386 -0.2238  1.9278  0.2591
 1820TIP3   OH227094   4.926   6.645   2.125  0.2015  0.1825 -1.0070
 1820TIP3    H127095   4.925   6.558   2.087 -1.3431 -0.0627 -0.4483
 1820TIP3    H227096   4.977   6.697   2.062 -1.0407 -0.5310 -2.7055
 1821TIP3   OH227097   2.630   3.293   8.340 -0.0214  0.3602  0.0992
 1821TIP3    H127098   2.634   3.361   8.407  0.6607  1.0872 -0.6645
 1821TIP3    H227099   2.636   3.211   8.389  2.0387  0.9045  0.8310
 1822TIP3   OH227100   3.936   0.387   2.122  0.3412 -0.2693  0.4267
 1822TIP3    H127101   3.980   0.469   2.147 -1.4300  1.3330 -1.3667
 1822TIP3    H227102   3.863   0.379   2.183  0.0715 -0.0864  0.1317
 1823TIP3   OH227103   0.779   5.952   7.814  0.1088  0.7425  0.3362
 1823TIP3    H127104   0.750   5.958   7.905 -1.4613 -0.5883 -0.0508
 1823TIP3    H227105   0.799   5.859   7.801  1.0771  1.0456 -0.4724
 1824TIP3   OH227106   1.708   6.533   1.295 -0.4430 -0.4414  0.3976
 1824TIP3    H127107   1.717   6.490   1.210  2.2022 -0.2572  0.4972
 1824TIP3    H227108   1.630   6.587   1.287  0.8256  1.1596 -2.6588
 1825TIP3   OH227109   5.177   1.530   1.478  0.2141 -0.0017  0.6085
 1825TIP3    H127110   5.175   1.475   1.556 -0.5001  0.5859  1.0228
 1825TIP3    H227111   5.117   1.602   1.499 -1.1432 -0.5942 -1.0431
 1826TIP3   OH227112   1.466   5.736   1.483  0.5160  0.1515  0.3341
 1826TIP3    H127113   1.459   5.666   1.418 -2.1741 -1.2552  1.9809
 1826TIP3    H227114   1.487   5.691   1.565 -1.6162  1.1326  1.5015
 1827TIP3   OH227115   2.029   0.061   6.860 -0.1248 -0.5247 -0.0074
 1827TIP3    H127116   2.045  -0.032   6.874 -0.7209 -0.4652  1.1268
 1827TIP3    H227117   1.959   0.063   6.795 -0.1551 -0.8614  0.0118
 1828TIP3   OH227118   2.123   2.028   7.301 -0.8996 -0.0412 -0.0227
 1828TIP3    H127119   2.161   1.956   7.250 -2.2280 -0.0430 -1.0583
 1828TIP3    H227120   2.071   1.984   7.368  0.2396 -0.0312  0.9032
 1829TIP3   OH227121   2.252   0.178   7.649  0.8369 -0.3819 -0.4437
 1829TIP3    H127122   2.202   0.254   7.618 -1.7600 -0.3784  3.1337
 1829TIP3    H227123   2.295   0.144   7.570 -1.5975  2.0576 -3.0723
 1830TIP3   OH227124   0.133   3.203   7.549 -0.0855  0.8806  0.0510
 1830TIP3    H127125   0.086   3.126   7.516  1.1443 -0.0345  0.3677
 1830TIP3    H227126   0.093   3.222   7.634  0.9161 -0.6689  0.9043
 1831TIP3   OH227127   3.177   6.014   0.098 -0.0361 -0.1486  0.3005
 1831TIP3    H127128   3.174   6.089   0.158  1.5332 -0.3617  0.6968
 1831TIP3    H227129   3.121   6.040   0.025 -2.8797 -0.2930  2.2486
 1832TIP3   OH227130   5.507   1.850   7.842  0.0449  0.6652  0.1241
 1832TIP3    H127131   5.560   1.770   7.854  3.1839  2.1522 -2.2341
 1832TIP3    H227132   5.438   1.824   7.781 -2.0607 -1.2590  3.0374
 1833TIP3   OH227133   0.130   4.862   8.392 -0.3695  0.0357  0.1859
 1833TIP3    H127134   0.104   4.772   8.412  0.2837  0.0403  1.1227
 1833TIP3    H227135   0.205   4.878   8.450 -0.8206  1.3621  0.4210
 1834TIP3   OH227136   2.065   2.362   6.954  0.2719 -0.1321 -1.0990
 1834TIP3    H127137   2.003   2.418   6.908  1.7575  1.0867 -1.6941
 1834TIP3    H227138   2.040   2.272   6.930 -1.3032  0.3107 -1.2114
 1835TIP3   OH227139   6.733   4.595   6.206 -0.0822  0.4775 -0.5410
 1835TIP3    H127140   6.718   4.537   6.131 -0.3177 -1.1309  0.7057
 1835TIP3    H227141   6.826   4.619   6.200  0.4152 -1.2704 -0.2608
 1836TIP3   OH227142   6.361   1.527   0.352 -0.6563 -0.4465  1.0942
 1836TIP3    H127143   6.385   1.519   0.444 -0.9476 -1.8271  1.0710
 1836TIP3    H227144   6.330   1.440   0.327 -2.0006  0.2783  0.0799
 1837TIP3   OH227145   5.189   2.345   2.282 -0.1629  0.0517 -0.2790
 1837TIP3    H127146   5.121   2.284   2.253  0.2650 -1.1865  1.1839
 1837TIP3    H227147   5.150   2.432   2.270 -1.4161 -0.5725 -0.8889
 1838TIP3   OH227148   1.012   4.146   1.922  0.5272  0.2432 -0.4179
 1838TIP3    H127149   1.036   4.054   1.934 -1.0732 -0.0296  1.1227
 1838TIP3    H227150   1.087   4.185   1.877  3.4209 -0.7201  3.1412
 1839TIP3   OH227151   4.343   0.646   1.164 -0.3773 -0.1314 -0.2440
 1839TIP3    H127152   4.286   0.721   1.181 -0.9413 -1.2284  3.8965
 1839TIP3    H227153   4.285   0.571   1.159  0.4145 -0.7208 -1.0533
 1840TIP3   OH227154   5.072   3.250   7.844 -0.3432 -0.2834  0.8184
 1840TIP3    H127155   5.108   3.163   7.859  0.8785  0.2433  1.0834
 1840TIP3    H227156   5.016   3.240   7.767  0.4899 -1.1136  0.3030
 1841TIP3   OH227157   1.342   4.909   7.266 -0.1962 -0.1538  0.0918
 1841TIP3    H127158   1.296   4.949   7.340 -0.1768  0.4047 -0.1965
 1841TIP3    H227159   1.425   4.879   7.304  0.3777  1.2949  0.0390
 1842TIP3   OH227160   3.320   5.053   6.466 -0.1954 -0.2641 -0.1746
 1842TIP3    H127161   3.271   4.978   6.433 -0.8556  0.4482 -0.8482
 1842TIP3    H227162   3.374   5.082   6.392  0.7681 -0.6405  0.3630
 1843TIP3   OH227163   5.689   1.214   1.541  0.0193  0.5094 -0.1126
 1843TIP3    H127164   5.772   1.258   1.559 -0.3239  1.7039 -1.3088
 1843TIP3    H227165   5.635   1.281   1.500 -1.0424 -0.6460 -0.6519
 1844TIP3   OH227166   3.242   1.596   2.860  0.1710  0.5100  0.4464
 1844TIP3    H127167   3.271   1.687   2.858  0.5783  0.3808 -2.0601
 1844TIP3    H227168   3.298   1.551   2.796  0.4096 -1.6745  2.0552
 1845TIP3   OH227169   1.972   6.643   1.265 -0.3079 -0.6262  0.1327
 1845TIP3    H127170   2.054   6.643   1.313 -0.4816 -1.1972  0.4418
 1845TIP3    H227171   1.940   6.553   1.273 -0.9450 -0.4156 -0.0086
 1846TIP3   OH227172   0.596   3.884   6.825 -0.0278 -0.1652  0.4144
 1846TIP3    H127173   0.646   3.859   6.747 -0.9601 -2.8427  0.5878
 1846TIP3    H227174   0.507   3.853   6.807 -1.5687  3.6678  0.4957
 1847TIP3   OH227175   6.512   3.297   0.598  0.0755  0.4526  0.4147
 1847TIP3    H127176   6.455   3.282   0.523  1.0379  0.6203 -0.3761
 1847TIP3    H227177   6.489   3.384   0.629 -1.8074 -0.4433  1.6726
 1848TIP3   OH227178   5.933   6.622   7.486 -0.0371 -0.4780 -0.1177
 1848TIP3    H127179   5.849   6.616   7.530  0.2555 -1.2750  0.3698
 1848TIP3    H227180   5.913   6.653   7.398 -0.8763 -0.9742 -0.1099
 1849TIP3   OH227181   3.129   1.573   1.906  0.3446  0.6589  0.1562
 1849TIP3    H127182   3.092   1.489   1.931 -1.0014  1.4852  1.0303
 1849TIP3    H227183   3.104   1.583   1.814  2.0739 -0.6647 -0.5308
 1850TIP3   OH227184   4.116   2.921   0.730 -0.2990 -0.0732  0.2759
 1850TIP3    H127185   4.059   2.990   0.765 -0.4043 -0.2235  0.3992
 1850TIP3    H227186   4.200   2.935   0.773  0.2620  1.1738 -1.1037
 1851TIP3   OH227187   6.485   3.045   8.287 -0.4217 -0.3730 -0.0292
 1851TIP3    H127188   6.460   3.089   8.206 -0.0122  0.5318  0.3156
 1851TIP3    H227189   6.574   3.076   8.304 -0.4904 -0.5806  0.7487
 1852TIP3   OH227190   6.151   1.591   1.545  0.7255 -0.2647  0.2084
 1852TIP3    H127191   6.059   1.566   1.551  0.6910 -0.7666 -1.7100
 1852TIP3    H227192   6.191   1.521   1.492  2.1654  0.0441  0.8402
 1853TIP3   OH227193   6.339   5.094   8.356  0.2224 -0.0803  0.3905
 1853TIP3    H127194   6.289   5.017   8.329  0.8754  0.4632 -2.8104
 1853TIP3    H227195   6.273   5.161   8.371 -0.2392 -0.7033  1.2314
 1854TIP3   OH227196   5.197   2.942   0.010 -0.0226  0.7299 -0.1364
 1854TIP3    H127197   5.130   2.899  -0.043  0.5093  0.4978 -0.6312
 1854TIP3    H227198   5.277   2.932  -0.041  0.6076  0.0319  0.9543
 1855TIP3   OH227199   2.616   4.365   1.687  0.3409 -0.0870  0.4556
 1855TIP3    H127200   2.608   4.285   1.738  0.4023  0.3833  1.2139
 1855TIP3    H227201   2.587   4.341   1.599  1.3055 -1.2010  0.4166
 1856TIP3   OH227202   4.868   5.105   8.422  0.6533  0.0231 -0.1488
 1856TIP3    H127203   4.947   5.148   8.390  0.7440 -0.8141 -1.0995
 1856TIP3    H227204   4.803   5.176   8.429  1.4972  0.7312  0.7300
 1857TIP3   OH227205   1.320   1.328   8.407 -0.3670  0.2019 -0.1176
 1857TIP3    H127206   1.364   1.288   8.333  0.7286 -0.1176  0.6802
 1857TIP3    H227207   1.274   1.403   8.370  0.5367  0.3208 -1.0308
 1858TIP3   OH227208   0.671   2.302   7.252 -0.5144  0.2900 -0.0520
 1858TIP3    H127209   0.692   2.276   7.163 -1.1175 -0.8848  0.1327
 1858TIP3    H227210   0.690   2.225   7.305 -0.8312  0.7444  0.7426
 1859TIP3   OH227211   2.603   1.630   1.082  0.1497  0.5065  0.2612
 1859TIP3    H127212   2.580   1.653   0.992 -0.3462 -0.6244  0.0774
 1859TIP3    H227213   2.642   1.710   1.118  1.3102  0.6812 -1.2644
 1860TIP3   OH227214   2.291   6.496   8.106 -0.1390  0.0670  0.0142
 1860TIP3    H127215   2.339   6.540   8.176  0.2391  0.5614 -0.5384
 1860TIP3    H227216   2.350   6.500   8.031 -0.4684 -0.6069 -0.2855
 1861TIP3   OH227217   3.248   1.000   1.174  0.4990  0.1337  0.0731
 1861TIP3    H127218   3.297   0.981   1.094  0.0202  0.3151 -0.2716
 1861TIP3    H227219   3.164   0.955   1.163  0.8609 -0.8044  0.9914
 1862TIP3   OH227220   5.544   6.338   1.299 -0.3975  0.5877 -0.0940
 1862TIP3    H127221   5.626   6.289   1.302 -0.7503 -0.0953 -1.0644
 1862TIP3    H227222   5.496   6.308   1.375  0.5452  1.5547  0.9186
 1863TIP3   OH227223   3.488   0.114   6.511 -0.0602  0.0779 -0.3098
 1863TIP3    H127224   3.517   0.035   6.556  0.1289  0.4385  0.2153
 1863TIP3    H227225   3.453   0.083   6.428 -0.3170 -0.5926  0.0409
 1864TIP3   OH227226   0.373   3.159   6.317 -0.5628 -0.9475  0.1423
 1864TIP3    H127227   0.379   3.187   6.226 -0.4424 -0.5786  0.2658
 1864TIP3    H227228   0.408   3.070   6.317  0.3871 -0.5765  0.0093
 1865TIP3   OH227229   0.617   5.840   1.269 -0.5136  0.4741  0.6010
 1865TIP3    H127230   0.681   5.779   1.234 -0.7911  0.2284  0.5167
 1865TIP3    H227231   0.667   5.896   1.328 -0.3385 -0.1509  1.0637
 1866TIP3   OH227232   0.935   4.840   1.651 -0.3565  0.4183  0.0475
 1866TIP3    H127233   0.913   4.853   1.559  0.5382 -0.0265 -0.2425
 1866TIP3    H227234   0.875   4.771   1.680  1.2410 -1.5525 -1.0225
 1867TIP3   OH227235   1.668   3.131   8.420  0.4103  0.3765 -0.6298
 1867TIP3    H127236   1.711   3.063   8.368  1.6855  0.4962  0.2153
 1867TIP3    H227237   1.595   3.086   8.463  1.2940 -0.5032 -0.0075
 1868TIP3   OH227238   0.376   6.613   7.069 -0.3291  0.1795  0.2874
 1868TIP3    H127239   0.456   6.658   7.041  2.0793 -2.0621  2.9088
 1868TIP3    H227240   0.381   6.527   7.028 -2.0421  0.3709 -0.4026
 1869TIP3   OH227241   6.121   1.927   7.010 -0.1185 -0.2722 -1.0653
 1869TIP3    H127242   6.114   2.014   7.047  3.3383 -0.7284  1.0856
 1869TIP3    H227243   6.135   1.942   6.916  1.1160  1.5553 -0.6385
 1870TIP3   OH227244   5.728   6.837   8.244 -0.1990 -0.0874 -0.1001
 1870TIP3    H127245   5.746   6.810   8.335  0.9130  1.0633  0.0572
 1870TIP3    H227246   5.633   6.833   8.236 -0.4802  1.4349  1.6914
 1871TIP3   OH227247   3.203   4.365   1.223 -0.2134  0.7616 -0.3027
 1871TIP3    H127248   3.238   4.396   1.307  0.0405  1.6008 -0.7051
 1871TIP3    H227249   3.110   4.385   1.227 -0.4038 -0.1910  0.2075
 1872TIP3   OH227250   2.162   6.187   1.044  0.2486 -0.1880  0.3160
 1872TIP3    H127251   2.202   6.137   1.114 -0.2799 -0.6739  0.2832
 1872TIP3    H227252   2.176   6.134   0.965  0.5704  0.2055  0.1042
 1873TIP3   OH227253   2.456   0.359   7.749 -0.7203 -0.3155 -0.1959
 1873TIP3    H127254   2.446   0.433   7.808 -1.5265 -0.2088 -0.4505
 1873TIP3    H227255   2.377   0.307   7.763  0.2460 -1.6241  0.6436
 1874TIP3   OH227256   3.991   4.197   1.447 -0.1855  0.5402 -0.2724
 1874TIP3    H127257   3.996   4.124   1.508 -1.5847 -0.2205 -1.0257
 1874TIP3    H227258   4.064   4.254   1.472  0.2516 -0.5440  1.0468
 1875TIP3   OH227259   5.554   0.049   1.714 -0.0560  0.2529 -0.0488
 1875TIP3    H127260   5.516   0.073   1.799 -0.6161 -1.2590  0.1558
 1875TIP3    H227261   5.509   0.104   1.651  0.2210  1.2542  0.5992
 1876TIP3   OH227262   2.117   2.699   6.607  0.4381 -0.6002  0.0783
 1876TIP3    H127263   2.142   2.736   6.522  0.4933  2.4918  1.3044
 1876TIP3    H227264   2.199   2.693   6.656  0.2040 -0.9567  0.4372
 1877TIP3   OH227265   1.925   1.873   0.967 -0.1806 -0.2021 -0.1483
 1877TIP3    H127266   1.965   1.810   1.026  0.0965  0.8589  0.8258
 1877TIP3    H227267   1.833   1.877   0.994  0.0932  0.7913  0.6977
 1878TIP3   OH227268   3.463   2.795   0.743 -0.8699  0.1875 -0.2743
 1878TIP3    H127269   3.482   2.877   0.697 -0.1908  0.5188  0.5680
 1878TIP3    H227270   3.538   2.738   0.721 -0.0695  0.6580  1.1055
 1879TIP3   OH227271   0.855   6.656   7.398 -0.3618 -0.5498  0.2102
 1879TIP3    H127272   0.878   6.695   7.482  1.5381  1.1863 -1.0242
 1879TIP3    H227273   0.760   6.670   7.390 -0.4017  0.1240  1.6142
 1880TIP3   OH227274   2.536   1.846   6.409 -0.4153 -0.4128  0.0922
 1880TIP3    H127275   2.588   1.895   6.345  1.6490 -1.8691  0.5790
 1880TIP3    H227276   2.503   1.770   6.361  0.2178 -0.9303  0.4662
 1881TIP3   OH227277   1.553   2.235   0.496 -0.5346 -0.5685  0.0358
 1881TIP3    H127278   1.600   2.205   0.417 -0.6951 -1.3819  0.2373
 1881TIP3    H227279   1.489   2.298   0.463 -0.7915 -1.1097 -0.5257
 1882TIP3   OH227280   5.057   4.747   6.655 -0.9283 -0.8183 -0.1197
 1882TIP3    H127281   5.092   4.817   6.600 -1.4909 -0.5636 -0.1591
 1882TIP3    H227282   5.130   4.723   6.712 -0.7974 -0.0289  0.0620
 1883TIP3   OH227283   6.864   2.918   6.979 -0.1745  0.1805 -0.2016
 1883TIP3    H127284   6.769   2.914   6.990 -0.2807  1.0867 -0.7104
 1883TIP3    H227285   6.888   3.005   7.010  0.3239  0.3983 -1.1559
 1884TIP3   OH227286   0.317   0.778   6.353 -0.4501  0.1128  0.2896
 1884TIP3    H127287   0.266   0.858   6.354  0.8103  0.9582 -0.5311
 1884TIP3    H227288   0.408   0.806   6.361  0.0014 -1.2648  0.4119
 1885TIP3   OH227289   5.207   0.599   7.536 -0.0343 -0.2897  0.1310
 1885TIP3    H127290   5.173   0.679   7.577 -3.5799 -0.5036 -2.0372
 1885TIP3    H227291   5.222   0.539   7.610 -2.1767  0.7060  1.4948
 1886TIP3   OH227292   6.203   3.293   8.347  0.0011 -0.7688  0.1575
 1886TIP3    H127293   6.183   3.267   8.257 -0.0113 -2.7830  0.6909
 1886TIP3    H227294   6.181   3.216   8.400 -1.4864  0.8840  2.1008
 1887TIP3   OH227295   0.297   6.303   8.334  0.2244 -0.3540  0.9368
 1887TIP3    H127296   0.215   6.348   8.313  0.3838 -0.0435  0.9772
 1887TIP3    H227297   0.276   6.210   8.325  0.6829 -0.2700 -2.2542
 1888TIP3   OH227298   0.637   0.177   2.355 -0.7633 -0.4217 -0.6321
 1888TIP3    H127299   0.725   0.141   2.347 -0.4032  0.7694 -2.5050
 1888TIP3    H227300   0.618   0.174   2.449  0.1969 -3.1054 -0.4495
 1889TIP3   OH227301   1.768   5.821   2.017  0.0061 -0.1781  0.2848
 1889TIP3    H127302   1.855   5.848   2.046 -0.2058  1.0110 -0.1453
 1889TIP3    H227303   1.724   5.793   2.098  0.5340 -0.0741  0.6132
 1890TIP3   OH227304   2.327   4.503   0.615  0.0263  0.0890 -0.1644
 1890TIP3    H127305   2.359   4.493   0.525  0.0321  3.4024 -0.6220
 1890TIP3    H227306   2.404   4.530   0.664 -0.6730  1.8728  0.0263
 1891TIP3   OH227307   6.608   0.825   0.311 -0.3681 -0.6863 -0.3746
 1891TIP3    H127308   6.606   0.875   0.230 -0.8347 -1.0416 -0.5875
 1891TIP3    H227309   6.523   0.841   0.352  0.1579  0.1194  0.4400
 1892TIP3   OH227310   6.168   1.132   8.060  0.0710  0.0402 -0.4293
 1892TIP3    H127311   6.118   1.135   7.979  0.6675 -1.6593 -0.9051
 1892TIP3    H227312   6.235   1.065   8.044  0.4603 -0.0238  1.3138
 1893TIP3   OH227313   2.916   0.689   7.422 -0.3670 -0.3975 -0.1888
 1893TIP3    H127314   2.862   0.618   7.455 -0.0271 -0.2071  0.8215
 1893TIP3    H227315   2.923   0.750   7.496  1.0085 -0.3024 -0.3755
 1894TIP3   OH227316   2.325   5.484   6.048  0.4102  0.2802  0.2598
 1894TIP3    H127317   2.370   5.466   6.130  0.1156 -0.9761  0.1711
 1894TIP3    H227318   2.241   5.439   6.057  1.0648 -1.4128 -1.3967
 1895TIP3   OH227319   1.307   3.430   7.495  0.4312 -0.3494 -0.5225
 1895TIP3    H127320   1.302   3.340   7.462 -0.4178 -0.3673 -0.3600
 1895TIP3    H227321   1.257   3.481   7.431  2.3318  0.3124 -1.5795
 1896TIP3   OH227322   3.784   2.077   1.188  0.2738 -0.0742  0.0183
 1896TIP3    H127323   3.707   2.121   1.151 -0.7344 -2.9426 -1.6107
 1896TIP3    H227324   3.749   2.028   1.263  1.5333  2.3141  2.3455
 1897TIP3   OH227325   0.773   3.412   1.936 -0.6882 -0.2909 -0.0497
 1897TIP3    H127326   0.698   3.438   1.883  1.0029 -0.3173 -2.6091
 1897TIP3    H227327   0.829   3.490   1.937  0.1036 -0.8529  0.2235
 1898TIP3   OH227328   3.050   1.981   1.962  0.3614 -0.0534  0.2724
 1898TIP3    H127329   2.955   1.967   1.958  0.3671  0.2130 -2.1275
 1898TIP3    H227330   3.082   1.954   1.876  2.4168  0.2892  0.8868
 1899TIP3   OH227331   6.949   6.389   2.486 -0.3300  0.2173 -0.2292
 1899TIP3    H127332   7.027   6.347   2.521 -0.0302  1.3225  0.4589
 1899TIP3    H227333   6.879   6.325   2.499  0.3579 -0.5870 -0.4088
 1900TIP3   OH227334   1.201   4.806   6.808  0.1422  0.3083  0.0449
 1900TIP3    H127335   1.205   4.901   6.805 -3.0697  0.5487  0.3409
 1900TIP3    H227336   1.223   4.784   6.899  1.7106  0.6439 -0.2263
 1901TIP3   OH227337   4.115   5.208   0.522 -0.1142 -0.2541 -0.3226
 1901TIP3    H127338   4.120   5.143   0.592 -0.7245  0.5151  0.4469
 1901TIP3    H227339   4.174   5.278   0.549 -1.8507  0.9879  0.4605
 1902TIP3   OH227340   1.061   1.344   6.469  0.2557  0.1940 -0.5801
 1902TIP3    H127341   1.123   1.335   6.396  0.4597 -1.2646 -0.2571
 1902TIP3    H227342   1.051   1.255   6.503 -1.2133  0.5700  0.0460
 1903TIP3   OH227343   6.666   4.777   0.499 -0.0043 -0.0604  0.2228
 1903TIP3    H127344   6.748   4.774   0.549  0.8065  0.3674 -1.0277
 1903TIP3    H227345   6.635   4.867   0.510 -0.4872 -0.3063  0.9485
 1904TIP3   OH227346   2.666   1.672   7.759 -0.6450  0.2035  0.4161
 1904TIP3    H127347   2.645   1.689   7.850 -1.3878  1.6124  0.0055
 1904TIP3    H227348   2.688   1.758   7.722 -2.3176 -0.0006 -1.2114
 1905TIP3   OH227349   3.881   3.637   8.172  0.3516  0.4128  0.1634
 1905TIP3    H127350   3.855   3.694   8.244  1.1108  0.3217  0.5233
 1905TIP3    H227351   3.954   3.586   8.207  1.6896  1.3713 -1.0978
 1906TIP3   OH227352   4.486   2.795   2.140  0.3138  0.5853  0.1353
 1906TIP3    H127353   4.500   2.715   2.089 -2.2051 -0.4313  0.9103
 1906TIP3    H227354   4.545   2.786   2.214  0.8073 -0.0492 -0.3177
 1907TIP3   OH227355   2.870   4.175   8.318 -0.2650 -0.2323  0.1279
 1907TIP3    H127356   2.811   4.250   8.308  0.3013  0.5485  2.0993
 1907TIP3    H227357   2.879   4.164   8.413  0.2455 -2.3667 -0.1023
 1908TIP3   OH227358   5.137   0.883   6.490  0.6943  0.1851  0.2760
 1908TIP3    H127359   5.218   0.928   6.467  0.2161  1.2161  0.5423
 1908TIP3    H227360   5.149   0.857   6.581  1.4295 -1.3080 -0.2065
 1909TIP3   OH227361   6.446   3.526   1.838  0.4386  0.2716  0.3045
 1909TIP3    H127362   6.355   3.550   1.855  0.8533  1.4420  0.9506
 1909TIP3    H227363   6.494   3.558   1.914  1.4948  0.3217 -0.3665
 1910TIP3   OH227364   4.097   1.046   7.523  0.1865 -0.0572 -0.0760
 1910TIP3    H127365   4.010   1.038   7.563 -0.5209 -1.3583 -1.7398
 1910TIP3    H227366   4.100   1.137   7.493 -0.5438  0.0578  0.1607
 1911TIP3   OH227367   4.980   3.851   2.174 -0.0404 -0.1168 -0.5031
 1911TIP3    H127368   4.912   3.790   2.205  0.0383  0.2842  0.4874
 1911TIP3    H227369   4.947   3.938   2.197  1.6610  0.0029  1.7999
 1912TIP3   OH227370   2.464   1.008   7.729  0.3211 -0.4212  0.0152
 1912TIP3    H127371   2.513   1.079   7.687  0.1143  0.0096  0.4890
 1912TIP3    H227372   2.392   0.990   7.669  1.4503 -1.5729 -1.0562
 1913TIP3   OH227373   2.369   5.877   0.038  0.0166  0.1463  0.2148
 1913TIP3    H127374   2.356   5.955   0.092 -0.4912 -0.0767  0.4175
 1913TIP3    H227375   2.358   5.804   0.099 -2.4291 -0.1824 -0.5111
 1914TIP3   OH227376   0.990   2.718   5.936 -0.1209 -0.4125 -0.1321
 1914TIP3    H127377   1.054   2.741   5.868  0.4819 -2.7049 -0.4207
 1914TIP3    H227378   1.001   2.787   6.002  1.7211 -0.0001 -0.7842
 1915TIP3   OH227379   3.144   5.995   1.641  0.0129 -0.1003 -0.0898
 1915TIP3    H127380   3.155   5.907   1.606 -0.2945 -0.8359  1.5538
 1915TIP3    H227381   3.050   6.003   1.657  0.2701 -0.2872  1.6931
 1916TIP3   OH227382   0.431   6.016   6.677  0.0278 -0.0466 -0.1250
 1916TIP3    H127383   0.515   6.052   6.648  0.2212  1.1576  1.7758
 1916TIP3    H227384   0.365   6.070   6.634  0.2506 -0.0855 -0.5183
 1917TIP3   OH227385   5.768   5.921   1.657 -0.7044 -0.1502  0.0679
 1917TIP3    H127386   5.846   5.866   1.644 -0.1371  0.5920  0.2965
 1917TIP3    H227387   5.770   5.945   1.749  0.4645  2.3029 -0.5128
 1918TIP3   OH227388   5.759   5.355   0.002 -0.4159  0.5983  0.2844
 1918TIP3    H127389   5.826   5.299   0.042  0.2053  1.7602  0.9119
 1918TIP3    H227390   5.803   5.400  -0.069 -0.6685  0.9758  0.3632
 1919TIP3   OH227391   6.726   3.631   0.399  0.4532  0.0585  0.3626
 1919TIP3    H127392   6.729   3.552   0.345 -1.4262  0.0309  0.2477
 1919TIP3    H227393   6.779   3.695   0.351  0.2906 -0.5147 -0.6015
 1920TIP3   OH227394   2.560   5.839   0.344  0.3943 -0.5361  0.0300
 1920TIP3    H127395   2.587   5.788   0.267 -1.8061 -0.6321 -0.7330
 1920TIP3    H227396   2.611   5.802   0.416  2.3993 -0.5508 -1.3149
 1921TIP3   OH227397   6.815   0.101   0.740  0.7969 -0.3180 -0.1391
 1921TIP3    H127398   6.874   0.116   0.814  2.4045  1.6909 -1.6908
 1921TIP3    H227399   6.796   0.188   0.707  0.8426 -1.1627 -2.5742
 1922TIP3   OH227400   2.779   1.095   7.838  0.1279  0.7131  0.5619
 1922TIP3    H127401   2.715   1.137   7.895 -0.7760 -0.6100  0.5635
 1922TIP3    H227402   2.778   1.148   7.758 -1.4444  0.3802  0.3281
 1923TIP3   OH227403   6.790   1.920   7.461 -0.1957 -0.0374 -0.1418
 1923TIP3    H127404   6.823   1.943   7.548 -1.0877 -0.4805  0.3306
 1923TIP3    H227405   6.845   1.970   7.400  0.7205 -0.0536  0.6480
 1924TIP3   OH227406   3.559   0.277   1.616  0.1700 -0.1945 -0.1022
 1924TIP3    H127407   3.518   0.320   1.541 -0.0684 -0.2870 -0.0271
 1924TIP3    H227408   3.516   0.192   1.621  1.6447 -1.0401 -1.1312
 1925TIP3   OH227409   3.508   3.182   7.360 -0.1177  0.7853  1.1794
 1925TIP3    H127410   3.495   3.092   7.331 -0.3209  0.6406  1.7063
 1925TIP3    H227411   3.598   3.202   7.337 -0.5433  1.0165 -0.4436
 1926TIP3   OH227412   3.062   5.242   7.577 -0.4328  0.0912  0.0110
 1926TIP3    H127413   3.043   5.284   7.493  0.2283 -0.4962 -0.4453
 1926TIP3    H227414   3.125   5.300   7.620 -0.6643  0.3213  0.0429
 1927TIP3   OH227415   6.896   2.247   1.936  0.0183 -0.2130  0.5584
 1927TIP3    H127416   6.806   2.219   1.953 -0.6848  1.5134 -0.0843
 1927TIP3    H227417   6.916   2.310   2.005  1.0130 -1.0742  1.0954
 1928TIP3   OH227418   6.574   3.739   0.703  0.3006  0.0743  0.4052
 1928TIP3    H127419   6.521   3.750   0.782 -0.9306  1.2243 -0.5390
 1928TIP3    H227420   6.517   3.690   0.643  0.9010 -0.0303 -0.0881
 1929TIP3   OH227421   0.887   4.905   1.109  0.3688 -0.1243  0.0075
 1929TIP3    H127422   0.891   4.810   1.097  1.0819  0.1991 -3.7139
 1929TIP3    H227423   0.805   4.931   1.066  1.2108  1.0906 -0.9356
 1930TIP3   OH227424   6.033   6.043   0.757  0.2967 -0.2140 -0.7183
 1930TIP3    H127425   5.944   6.051   0.791  0.3650 -1.5089 -0.1754
 1930TIP3    H227426   6.048   6.125   0.710 -1.1302  0.0812 -0.7121
 1931TIP3   OH227427   2.878   3.033   2.222 -0.5678 -0.1946  0.2579
 1931TIP3    H127428   2.832   2.953   2.198 -0.4180 -0.4170  0.7045
 1931TIP3    H227429   2.825   3.071   2.292 -1.4036  0.8344 -0.8958
 1932TIP3   OH227430   4.453   5.887   0.854  0.0144 -0.5894  0.0622
 1932TIP3    H127431   4.416   5.960   0.903 -2.5842 -1.2861 -0.6984
 1932TIP3    H227432   4.428   5.809   0.903  0.9150 -1.0985 -0.2559
 1933TIP3   OH227433   0.802   1.639   6.916 -0.0871 -0.0890 -0.2507
 1933TIP3    H127434   0.873   1.640   6.981  1.8887  1.9263 -2.2258
 1933TIP3    H227435   0.825   1.568   6.856 -1.0753 -0.9497  0.3528
 1934TIP3   OH227436   5.809   4.800   7.556 -0.0064  0.1066  0.0429
 1934TIP3    H127437   5.746   4.817   7.626  0.8239  0.5384  0.7123
 1934TIP3    H227438   5.819   4.705   7.554  1.1636  0.1519  1.6480
 1935TIP3   OH227439   5.200   2.092   0.490  0.7558 -0.0755  0.3030
 1935TIP3    H127440   5.269   2.113   0.427  0.1026  0.0587 -0.3892
 1935TIP3    H227441   5.216   2.149   0.564  0.4470  1.1298 -0.5325
 1936TIP3   OH227442   1.727   1.046   0.142  0.2085  0.0355  0.0422
 1936TIP3    H127443   1.729   0.960   0.183 -2.9780  0.9389  2.4671
 1936TIP3    H227444   1.774   1.103   0.202 -1.0162  0.6435  0.4508
 1937TIP3   OH227445   3.688   5.031   0.904  0.1448  0.0885 -0.0712
 1937TIP3    H127446   3.740   5.109   0.921  0.7752 -0.2837 -0.2622
 1937TIP3    H227447   3.673   4.992   0.990 -0.6799  0.7309  0.0889
 1938TIP3   OH227448   0.412   6.926   0.924 -0.0467 -0.0859  0.3000
 1938TIP3    H127449   0.392   6.939   0.831  0.0333  0.8365  0.3987
 1938TIP3    H227450   0.339   6.874   0.957 -1.0587  1.1437  0.1094
 1939TIP3   OH227451   2.865   1.823   6.418  0.0823 -0.1132 -0.8385
 1939TIP3    H127452   2.825   1.818   6.331 -1.3102 -0.2945 -0.2273
 1939TIP3    H227453   2.958   1.807   6.403 -0.1185 -0.0532 -2.3013
 1940TIP3   OH227454   6.732   0.698   0.061  0.2877 -0.4327 -0.0034
 1940TIP3    H127455   6.661   0.763   0.055 -1.2708 -1.7280  2.4141
 1940TIP3    H227456   6.812   0.749   0.051 -0.8887  1.7078  0.6941
 1941TIP3   OH227457   0.814   5.293   0.804 -0.3052 -0.0213 -0.4146
 1941TIP3    H127458   0.865   5.236   0.861 -0.4458  1.4389  1.2497
 1941TIP3    H227459   0.742   5.325   0.860 -1.2987  0.3288 -1.8295
 1942TIP3   OH227460   3.340   4.391   2.205  0.1641 -0.3536 -0.5390
 1942TIP3    H127461   3.269   4.430   2.153 -0.3169  0.1165  0.4367
 1942TIP3    H227462   3.420   4.433   2.173 -0.3416  1.5298  0.5176
 1943TIP3   OH227463   6.814   5.538   1.091  0.2488 -0.4839  0.6861
 1943TIP3    H127464   6.838   5.602   1.024  0.1455 -1.4181 -0.2856
 1943TIP3    H227465   6.784   5.462   1.041 -3.4556  0.0690  1.7164
 1944TIP3   OH227466   5.317   2.453   1.386  0.6109  0.0690  0.2835
 1944TIP3    H127467   5.280   2.421   1.467  1.3044 -1.2913  0.0907
 1944TIP3    H227468   5.242   2.480   1.333 -0.0130 -1.2149  0.4819
 1945TIP3   OH227469   6.075   6.119   0.057 -0.1753 -0.4975  0.2723
 1945TIP3    H127470   6.076   6.031   0.018 -2.0573  0.1921 -1.5162
 1945TIP3    H227471   6.124   6.173  -0.005  1.0172 -0.2480  1.3899
 1946TIP3   OH227472   3.044   1.738   0.305  0.5005  0.2141  0.7753
 1946TIP3    H127473   2.991   1.671   0.347 -0.7507 -0.5362 -1.7555
 1946TIP3    H227474   2.980   1.803   0.274  1.1159 -0.0516 -1.2074
 1947TIP3   OH227475   5.624   5.993   0.365  0.1249  0.6924 -0.3892
 1947TIP3    H127476   5.643   6.086   0.355  2.9832  0.3390  0.7641
 1947TIP3    H227477   5.695   5.960   0.420  1.2387 -2.8463 -3.5733
 1948TIP3   OH227478   1.933   6.733   8.356  0.7286  0.4797 -0.2050
 1948TIP3    H127479   1.926   6.647   8.316 -0.2576  0.9033 -1.0087
 1948TIP3    H227480   1.973   6.788   8.288  0.4849  0.8553 -0.0522
 1949TIP3   OH227481   3.416   5.965   7.579  0.2888 -0.3996 -0.0344
 1949TIP3    H127482   3.432   6.002   7.492  0.4571 -0.1630  0.0981
 1949TIP3    H227483   3.464   6.022   7.639 -0.9480  0.2581  0.3619
 1950TIP3   OH227484   1.734   1.554   1.966 -0.3125  0.1862 -0.4575
 1950TIP3    H127485   1.790   1.605   2.024 -0.2014 -0.1381 -0.2752
 1950TIP3    H227486   1.661   1.612   1.946 -0.7424  0.0388  0.6211
 1951TIP3   OH227487   0.692   5.038   8.368 -0.0711  0.3270  0.3722
 1951TIP3    H127488   0.776   5.031   8.324 -0.1298 -0.7798  0.4313
 1951TIP3    H227489   0.664   5.129   8.351  0.8212  0.5055 -0.1847
 1952TIP3   OH227490   6.210   0.298   0.190 -0.1905  0.3514  0.3333
 1952TIP3    H127491   6.257   0.379   0.212  1.0469  0.1036 -1.1606
 1952TIP3    H227492   6.278   0.231   0.192 -0.7445 -0.2514 -0.6583
 1953TIP3   OH227493   4.672   3.434   8.064  0.0263  0.5283 -0.2465
 1953TIP3    H127494   4.758   3.430   8.105 -0.5453 -0.0313  0.9288
 1953TIP3    H227495   4.685   3.397   7.977  1.4431  2.5094 -0.9565
 1954TIP3   OH227496   5.785   1.450   0.263  0.2262  0.3700 -0.1003
 1954TIP3    H127497   5.710   1.456   0.205  0.1312 -1.8934 -0.3016
 1954TIP3    H227498   5.763   1.379   0.324  1.7739  0.3358  0.4697
 1955TIP3   OH227499   0.590   6.825   0.645  0.2338 -0.4578 -0.0974
 1955TIP3    H127500   0.529   6.788   0.581 -0.1278 -0.9581  0.5314
 1955TIP3    H227501   0.676   6.792   0.619  0.0782 -0.7143 -0.2802
 1956TIP3   OH227502   2.331   2.813   1.130 -0.0218  0.1199  0.2130
 1956TIP3    H127503   2.372   2.888   1.173  0.0200  1.8208 -2.5780
 1956TIP3    H227504   2.288   2.849   1.053  1.1454 -2.8250 -2.0462
 1957TIP3   OH227505   4.917   1.148   6.449 -0.2248  0.0376 -0.0050
 1957TIP3    H127506   4.960   1.062   6.455 -0.0975  0.1650  1.3009
 1957TIP3    H227507   4.989   1.210   6.441 -0.2918  0.0560 -0.4455
 1958TIP3   OH227508   5.682   5.399   7.776  0.5396 -0.8749 -0.0908
 1958TIP3    H127509   5.591   5.404   7.804  0.3408 -0.1824 -0.8261
 1958TIP3    H227510   5.681   5.425   7.684  1.6687  0.7067  0.2930
 1959TIP3   OH227511   6.499   5.062   6.623  0.2403 -0.1186 -0.2342
 1959TIP3    H127512   6.590   5.061   6.593  0.0840 -1.0481 -0.7061
 1959TIP3    H227513   6.455   4.998   6.568 -0.4158 -0.6556  0.8821
 1960TIP3   OH227514   5.311   4.414   0.358 -0.3165 -0.6640 -0.1138
 1960TIP3    H127515   5.242   4.375   0.411  0.3852  0.2436  1.5565
 1960TIP3    H227516   5.389   4.363   0.378  0.1424  0.2210  0.4135
 1961TIP3   OH227517   0.788   6.441   8.413  0.6249  0.1703 -0.5266
 1961TIP3    H127518   0.786   6.525   8.368  1.5070  1.7735  2.1887
 1961TIP3    H227519   0.881   6.418   8.417  0.8338  1.1567  2.1645
 1962TIP3   OH227520   6.479   3.126   7.757 -0.1291  0.1688 -0.4068
 1962TIP3    H127521   6.416   3.095   7.692 -0.2640  2.2121 -1.3229
 1962TIP3    H227522   6.554   3.156   7.706  1.0079 -0.8618  0.5938
 1963TIP3   OH227523   4.147   4.226   6.872 -0.0604  0.1604 -0.1521
 1963TIP3    H127524   4.191   4.145   6.898 -1.0915 -0.7845 -1.2216
 1963TIP3    H227525   4.200   4.296   6.911  1.3739 -0.9891  0.0504
 1964TIP3   OH227526   6.304   4.795   7.563  0.1129  0.1201  0.6528
 1964TIP3    H127527   6.251   4.865   7.602  1.5977  1.6889 -0.0551
 1964TIP3    H227528   6.356   4.761   7.636  0.5485  0.8606  0.6924
 1965TIP3   OH227529   2.998   3.993   6.507 -0.3537  0.1208  0.0981
 1965TIP3    H127530   2.905   3.977   6.528 -0.6377  0.9695 -0.4610
 1965TIP3    H227531   3.013   3.941   6.427 -0.7684  1.1266 -0.6583
 1966TIP3   OH227532   1.337   1.601   7.541 -0.4357  0.4195  0.2272
 1966TIP3    H127533   1.384   1.684   7.555  0.7604 -0.2902  0.6226
 1966TIP3    H227534   1.345   1.555   7.625  0.9739 -1.0637 -0.6525
 1967TIP3   OH227535   6.403   3.086   6.768 -0.1907  0.0858  0.4852
 1967TIP3    H127536   6.401   3.039   6.685 -0.5901 -0.1989  0.6505
 1967TIP3    H227537   6.442   3.024   6.830  1.2039  0.7123  0.2685
 1968TIP3   OH227538   4.888   3.997   0.946  0.4748 -0.5228 -0.2864
 1968TIP3    H127539   4.822   4.062   0.921  0.4603 -0.6673 -0.6324
 1968TIP3    H227540   4.906   3.950   0.865  1.4854 -0.0556 -0.3506
 1969TIP3   OH227541   2.265   5.190   7.095 -0.0444  0.2767 -0.3471
 1969TIP3    H127542   2.294   5.101   7.115 -1.4146 -0.2140 -0.4615
 1969TIP3    H227543   2.241   5.227   7.180  0.6642  0.6024 -0.2811
 1970TIP3   OH227544   3.299   4.257   1.619 -0.0666  0.0562 -0.3921
 1970TIP3    H127545   3.299   4.245   1.714 -0.6446 -2.1911 -0.6231
 1970TIP3    H227546   3.210   4.233   1.593  0.8384 -2.0361 -1.7595
 1971TIP3   OH227547   5.787   5.798   0.598  0.2098 -0.4451 -0.4542
 1971TIP3    H127548   5.821   5.737   0.663 -0.0944 -0.3235 -0.1745
 1971TIP3    H227549   5.694   5.774   0.589  0.1299 -0.1426 -0.4689
 1972TIP3   OH227550   1.671   1.784   0.592 -0.1616  0.1053 -1.1660
 1972TIP3    H127551   1.639   1.796   0.682  0.8209 -0.4174 -0.7236
 1972TIP3    H227552   1.744   1.723   0.601 -0.9676 -1.1292 -2.5096
 1973TIP3   OH227553   1.040   2.740   1.579  0.3270 -0.2178 -0.3545
 1973TIP3    H127554   0.953   2.700   1.571  0.2784 -0.6221  1.6059
 1973TIP3    H227555   1.024   2.828   1.612  0.6502 -0.1230 -0.4395
 1974TIP3   OH227556   2.016   5.219   7.301  0.3560 -0.4078 -0.1150
 1974TIP3    H127557   2.047   5.274   7.229  0.0838  0.3156  0.3180
 1974TIP3    H227558   1.920   5.224   7.295  0.3094  1.1352  1.3992
 1975TIP3   OH227559   0.945   1.728   1.557  0.1002  0.2344 -0.0486
 1975TIP3    H127560   0.932   1.694   1.646  0.8936 -0.3536 -0.1471
 1975TIP3    H227561   0.872   1.789   1.544  0.6666  1.3150  1.4760
 1976TIP3   OH227562   6.964   4.954   7.535 -0.5206 -0.6644  0.2849
 1976TIP3    H127563   6.930   4.948   7.446  0.1060 -0.5246  0.0323
 1976TIP3    H227564   6.937   4.872   7.577  0.2838 -1.3150 -0.4325
 1977TIP3   OH227565   1.364   4.356   2.145 -0.1197 -0.1134 -0.0123
 1977TIP3    H127566   1.327   4.270   2.162  0.1772 -0.3800 -0.6987
 1977TIP3    H227567   1.422   4.373   2.219 -0.1660 -0.5097  0.1139
 1978TIP3   OH227568   3.541   3.822   7.626 -0.2114 -0.3181 -0.1296
 1978TIP3    H127569   3.596   3.797   7.551 -0.6781 -1.4365 -0.1191
 1978TIP3    H227570   3.479   3.885   7.590 -0.2758 -0.6640 -0.6399
 1979TIP3   OH227571   0.910   3.892   7.528 -0.0737  0.0925 -0.0529
 1979TIP3    H127572   0.855   3.939   7.464  0.0846  0.1974 -0.1138
 1979TIP3    H227573   0.886   3.800   7.516 -0.5132  0.1728  0.1886
 1980TIP3   OH227574   3.799   1.748   0.461 -0.3527  0.0799  0.5630
 1980TIP3    H127575   3.773   1.708   0.378  0.0123 -0.1489  0.5586
 1980TIP3    H227576   3.772   1.685   0.528  0.3024 -0.2156  0.5508
 1981TIP3   OH227577   5.475   0.889   2.604 -0.0608 -0.5901  0.9041
 1981TIP3    H127578   5.551   0.945   2.621  0.5653 -1.5433  1.3532
 1981TIP3    H227579   5.488   0.813   2.661 -1.3102 -0.8107  0.9101
 1982TIP3   OH227580   5.040   2.657   8.235 -0.4916  0.2918 -0.1325
 1982TIP3    H127581   4.968   2.631   8.292  0.5034  0.8390  1.4345
 1982TIP3    H227582   5.119   2.627   8.281  0.2976 -0.5622 -1.9555
 1983TIP3   OH227583   1.986   5.846   7.499  0.3048  0.5139 -0.5757
 1983TIP3    H127584   1.946   5.932   7.486 -0.9064 -0.1644 -1.4579
 1983TIP3    H227585   1.920   5.795   7.546 -0.1512 -0.7661 -2.4650
 1984TIP3   OH227586   1.784   1.128   6.605 -0.0708  0.4778  0.4483
 1984TIP3    H127587   1.841   1.204   6.591 -0.4416  0.9136  1.2599
 1984TIP3    H227588   1.790   1.079   6.523  1.4374  0.5263  0.4934
 1985TIP3   OH227589   5.899   1.757   7.060 -0.3483 -0.0781  0.0633
 1985TIP3    H127590   5.927   1.713   6.979  0.7019 -0.5537  0.6577
 1985TIP3    H227591   5.977   1.803   7.090 -0.6883 -0.0269  0.8851
 1986TIP3   OH227592   5.359   3.058   8.060 -0.3693  0.6712  0.3801
 1986TIP3    H127593   5.428   3.085   7.999  2.6260 -0.4267  2.9943
 1986TIP3    H227594   5.301   3.002   8.008  1.4492  0.5867 -1.6940
 1987TIP3   OH227595   2.308   6.119   6.834 -0.1167 -0.0304 -0.4493
 1987TIP3    H127596   2.238   6.179   6.858 -0.8452 -0.0016 -2.4689
 1987TIP3    H227597   2.365   6.169   6.775  2.4579  0.3840  2.1181
 1988TIP3   OH227598   2.788   6.403   6.717  0.1058  0.1606 -0.1182
 1988TIP3    H127599   2.792   6.456   6.637 -1.0034  1.1466  0.4491
 1988TIP3    H227600   2.820   6.317   6.690  0.8404  0.7839 -1.3494
 1989TIP3   OH227601   5.223   3.874   7.093  0.6199  0.0850 -0.7784
 1989TIP3    H127602   5.290   3.939   7.074 -0.2479  1.6843  1.2432
 1989TIP3    H227603   5.144   3.925   7.111 -0.4413 -1.5911 -0.4005
 1990TIP3   OH227604   1.303   4.483   1.194 -0.4906  0.0918  0.2532
 1990TIP3    H127605   1.252   4.535   1.255 -1.1923 -0.3705  0.0737
 1990TIP3    H227606   1.302   4.534   1.113 -1.7690 -0.4913 -0.1333
 1991TIP3   OH227607   0.213   2.291   1.129 -0.0741  0.0474  0.9860
 1991TIP3    H127608   0.156   2.228   1.085  2.4711 -1.2178 -0.6810
 1991TIP3    H227609   0.188   2.285   1.222 -1.2886 -1.8844  0.5804
 1992TIP3   OH227610   4.952   5.076   1.069 -0.1005 -0.2063  0.0158
 1992TIP3    H127611   5.030   5.117   1.032 -0.0089 -0.1506  0.2665
 1992TIP3    H227612   4.880   5.134   1.046  0.2662  1.0972  1.9505
 1993TIP3   OH227613   1.934   4.096   5.734  0.1598  0.2381  0.3157
 1993TIP3    H127614   1.924   4.002   5.749  0.5051  0.2033  0.3441
 1993TIP3    H227615   2.012   4.120   5.783  0.0711  0.5421  0.3114
 1994TIP3   OH227616   4.402   1.231   8.450 -0.2702 -0.3825  0.0375
 1994TIP3    H127617   4.442   1.167   8.510 -0.7559  0.0371  0.8253
 1994TIP3    H227618   4.446   1.313   8.471  1.1903 -0.6396 -1.7759
 1995TIP3   OH227619   6.267   4.591   0.239  0.4431  0.0740  0.1251
 1995TIP3    H127620   6.361   4.595   0.253  0.8392  0.9743 -2.3532
 1995TIP3    H227621   6.233   4.544   0.316  2.8969 -0.4342  0.9777
 1996TIP3   OH227622   1.075   1.041   1.473 -0.9673  0.0104  0.1516
 1996TIP3    H127623   1.119   1.013   1.393 -0.7929  2.1712 -0.5822
 1996TIP3    H227624   1.146   1.062   1.534 -1.0576  0.3436  0.1430
 1997TIP3   OH227625   1.480   1.650   7.907 -0.1637 -0.0080 -0.2023
 1997TIP3    H127626   1.566   1.621   7.937  0.0437  0.4821 -0.3243
 1997TIP3    H227627   1.498   1.715   7.840 -0.6153  1.0456  0.6718
 1998TIP3   OH227628   4.351   1.442   1.358  0.8719  0.5321  0.0452
 1998TIP3    H127629   4.390   1.463   1.273 -0.5378 -0.0877 -0.7873
 1998TIP3    H227630   4.298   1.364   1.342 -1.1059  1.6134  1.0036
 1999TIP3   OH227631   1.703   1.239   6.072  0.1396  0.2056 -0.2564
 1999TIP3    H127632   1.617   1.198   6.084  0.2879 -0.9810 -2.5830
 1999TIP3    H227633   1.718   1.234   5.977  2.5434  0.9067  0.0329
 2000TIP3   OH227634   2.743   2.340   1.929 -0.1801 -0.4812 -0.1616
 2000TIP3    H127635   2.810   2.296   1.982 -1.6987 -1.1442  1.3445
 2000TIP3    H227636   2.668   2.349   1.989 -1.9653 -1.1187 -2.1448
 2001TIP3   OH227637   3.239   6.462   7.112 -0.1502  0.3283  0.3948
 2001TIP3    H127638   3.177   6.527   7.144  1.6762  1.8033  1.0924
 2001TIP3    H227639   3.224   6.386   7.168  0.3920  1.5570  2.3233
 2002TIP3   OH227640   1.129   6.431   1.415  0.0872  0.3430  0.6772
 2002TIP3    H127641   1.060   6.403   1.475 -0.4300  0.2436  0.0492
 2002TIP3    H227642   1.097   6.514   1.379 -0.3384 -0.3430 -0.6010
 2003TIP3   OH227643   6.348   1.405   7.887 -0.5886 -0.0079  0.4236
 2003TIP3    H127644   6.426   1.446   7.849  1.2419 -4.6596 -1.5886
 2003TIP3    H227645   6.300   1.477   7.928  2.5980  3.8136 -1.8855
 2004TIP3   OH227646   4.202   1.719   0.417 -0.0336  0.4158  0.0339
 2004TIP3    H127647   4.151   1.758   0.488 -0.8692  2.9521 -1.8182
 2004TIP3    H227648   4.293   1.732   0.443 -0.3152 -0.1381  1.3465
 2005TIP3   OH227649   3.841   2.817   7.244  0.3654 -0.2260  0.0277
 2005TIP3    H127650   3.866   2.837   7.154 -0.4673 -0.1631 -0.1991
 2005TIP3    H227651   3.843   2.721   7.249  0.8734 -0.2142  0.0832
 2006TIP3   OH227652   2.679   0.438   6.544  0.0263  0.1163  0.1948
 2006TIP3    H127653   2.685   0.374   6.615  1.0153 -0.0748 -0.0456
 2006TIP3    H227654   2.665   0.522   6.589  0.2867 -0.0526  0.6013
 2007TIP3   OH227655   6.083   1.739   8.447 -0.3076  0.6437  0.4905
 2007TIP3    H127656   6.048   1.650   8.447 -1.3587  1.0302  0.0812
 2007TIP3    H227657   6.165   1.733   8.495  0.6100 -0.9132 -1.1323
 2008TIP3   OH227658   5.688   0.683   2.405  0.2276  0.1057 -0.0358
 2008TIP3    H127659   5.598   0.675   2.375 -0.0585 -2.9411  1.3041
 2008TIP3    H227660   5.730   0.602   2.377  1.5569 -0.1300  2.3994
 2009TIP3   OH227661   5.825   5.092   7.615  0.0747 -0.1166 -0.2555
 2009TIP3    H127662   5.852   5.003   7.635 -1.0023 -0.3234  0.3217
 2009TIP3    H227663   5.782   5.123   7.694  0.6221  1.0072 -0.3719
 2010TIP3   OH227664   0.193   1.317   7.739  0.4962  0.2554 -0.7487
 2010TIP3    H127665   0.207   1.252   7.670  0.4198 -0.6099  0.0193
 2010TIP3    H227666   0.107   1.353   7.720  0.3251 -0.2275 -0.9172
 2011TIP3   OH227667   0.262   3.948   6.751  0.6939 -0.0426 -0.3698
 2011TIP3    H127668   0.280   4.037   6.780  0.5840  0.5106 -1.9436
 2011TIP3    H227669   0.167   3.947   6.734  0.8385 -0.1936 -1.1959
 2012TIP3   OH227670   2.887   0.132   1.439 -0.4823 -0.3810  0.3241
 2012TIP3    H127671   2.796   0.112   1.417  0.1300 -1.3849 -1.5108
 2012TIP3    H227672   2.923   0.048   1.467 -0.0497 -0.0350  0.8131
 2013TIP3   OH227673   2.111   5.859   8.062 -0.0128 -0.0926  0.6517
 2013TIP3    H127674   2.025   5.876   8.024 -0.3752 -0.5338  1.2600
 2013TIP3    H227675   2.098   5.871   8.156  0.9811  1.4553  0.6316
 2014TIP3   OH227676   5.390   1.811   8.110 -0.1084 -0.0823 -0.2538
 2014TIP3    H127677   5.433   1.820   8.025  1.6494 -0.7037  0.5336
 2014TIP3    H227678   5.388   1.900   8.146  0.1156  0.0175 -0.4874
 2015TIP3   OH227679   2.050   4.749   0.321  0.3356 -0.0119  0.1288
 2015TIP3    H127680   1.984   4.806   0.282 -0.5287  0.1203  1.6926
 2015TIP3    H227681   2.133   4.782   0.287 -0.3223  0.3139 -1.2724
 2016TIP3   OH227682   0.451   0.277   8.223  0.0000 -0.3723 -0.3335
 2016TIP3    H127683   0.387   0.232   8.168 -2.2734  1.0356  0.9831
 2016TIP3    H227684   0.504   0.327   8.160 -0.8035 -0.8519 -1.4385
 2017TIP3   OH227685   6.641   3.995   2.782  0.3753  0.2151 -0.1031
 2017TIP3    H127686   6.702   4.014   2.854 -0.9588  2.1678  0.6162
 2017TIP3    H227687   6.626   4.080   2.741  1.2214 -0.8773 -2.8871
 2018TIP3   OH227688   3.345   6.583   1.500 -0.2228  0.3269 -0.9617
 2018TIP3    H127689   3.430   6.590   1.542  0.8711  0.6825 -3.1279
 2018TIP3    H227690   3.282   6.585   1.573  1.6436 -3.3391  1.0210
 2019TIP3   OH227691   5.199   0.551   6.494  0.4645  0.2389  0.4292
 2019TIP3    H127692   5.149   0.484   6.540  0.5341 -1.3394 -1.6749
 2019TIP3    H227693   5.260   0.584   6.560 -0.8683 -0.3666  2.0443
 2020TIP3   OH227694   0.864   2.013   0.628  0.9912 -0.0258  0.3228
 2020TIP3    H127695   0.896   2.080   0.566  0.1403 -1.2739 -1.5553
 2020TIP3    H227696   0.771   2.033   0.639  0.8840 -0.4887  0.2789
 2021TIP3   OH227697   5.093   6.518   7.681 -0.1029  0.4355  0.0276
 2021TIP3    H127698   5.072   6.607   7.709 -1.2492 -0.0536  0.7949
 2021TIP3    H227699   5.070   6.515   7.589 -0.9633  0.6805  0.2249
 2022TIP3   OH227700   3.576   2.232   7.568 -0.3685  0.4234 -0.4214
 2022TIP3    H127701   3.539   2.264   7.650  1.4618 -0.0246  0.6446
 2022TIP3    H227702   3.520   2.270   7.500 -2.6591 -0.1272  1.0297
 2023TIP3   OH227703   5.305   1.265   6.302 -0.2961 -0.5657 -0.2886
 2023TIP3    H127704   5.376   1.307   6.350 -1.3362  0.4169  0.4575
 2023TIP3    H227705   5.227   1.285   6.353 -1.4173  0.2396 -2.2047
 2024TIP3   OH227706   3.943   2.156   2.665 -0.4259 -0.0494  0.4142
 2024TIP3    H127707   3.880   2.226   2.684 -0.5083  0.3517 -1.1662
 2024TIP3    H227708   4.025   2.202   2.647 -0.8124 -0.1669 -2.0734
 2025TIP3   OH227709   4.783   5.700   0.748  0.1846  0.3153  0.4813
 2025TIP3    H127710   4.764   5.794   0.751  0.1204  0.2894  1.9172
 2025TIP3    H227711   4.785   5.678   0.655 -1.4842  1.4004  0.1532
 2026TIP3   OH227712   6.180   1.684   2.637  0.5540  0.0082  0.4459
 2026TIP3    H127713   6.244   1.618   2.612  0.2214  0.1216 -0.7354
 2026TIP3    H227714   6.121   1.639   2.698  0.7737 -0.5667  0.2365
 2027TIP3   OH227715   2.625   2.377   7.317  0.3663 -0.2426  0.5265
 2027TIP3    H127716   2.633   2.422   7.402  0.2533  0.0961  0.3594
 2027TIP3    H227717   2.536   2.344   7.316  0.1104  0.4317  0.2131
 2028TIP3   OH227718   6.517   0.006   0.749 -0.6065 -0.0109  0.1046
 2028TIP3    H127719   6.607  -0.011   0.776  0.4187  1.5291 -2.0347
 2028TIP3    H227720   6.466  -0.064   0.790  1.8099 -2.0151 -0.0809
 2029TIP3   OH227721   3.854   4.441   2.676  0.4549 -0.2997  0.0502
 2029TIP3    H127722   3.766   4.460   2.643  1.8930  1.5564 -3.2578
 2029TIP3    H227723   3.856   4.479   2.764 -2.3322 -1.4989  0.7363
 2030TIP3   OH227724   3.996   4.092   6.678  0.6879 -0.1590 -0.7984
 2030TIP3    H127725   4.085   4.108   6.646  1.2445  1.7036  1.3653
 2030TIP3    H227726   3.990   4.146   6.758 -1.7125 -1.7763  0.2156
 2031TIP3   OH227727   6.968   3.161   0.709  0.1772 -0.1217  0.3702
 2031TIP3    H127728   6.895   3.153   0.648  1.1386 -1.2694 -0.6853
 2031TIP3    H227729   7.039   3.113   0.667  2.1380  2.4827  0.4879
 2032TIP3   OH227730   1.642   1.520   2.258  0.4250 -0.1654  0.3799
 2032TIP3    H127731   1.593   1.506   2.177  0.9901  0.3078 -0.0571
 2032TIP3    H227732   1.665   1.431   2.287 -1.1089 -0.4280  0.8880
 2033TIP3   OH227733   1.928   0.334   0.248 -0.1646  0.5106 -0.1999
 2033TIP3    H127734   1.995   0.298   0.307 -0.3625  1.4228  0.6075
 2033TIP3    H227735   1.865   0.263   0.237  0.3443  0.0267 -0.0372
 2034TIP3   OH227736   2.108   6.561   7.093 -0.1543 -0.4399 -0.3473
 2034TIP3    H127737   2.183   6.552   7.034 -0.2757 -0.4869 -0.4955
 2034TIP3    H227738   2.050   6.488   7.070  0.3485 -1.1819  0.6536
 2035TIP3   OH227739   6.177   5.696   7.687  0.1038 -0.0237  0.0838
 2035TIP3    H127740   6.252   5.679   7.630 -0.5150 -1.2879 -0.3898
 2035TIP3    H227741   6.102   5.657   7.640 -0.8238  1.0270  0.6332
 2036TIP3   OH227742   6.755   2.013   8.239  0.2481 -0.1416 -0.6255
 2036TIP3    H127743   6.690   2.081   8.259 -0.1944 -0.9612  0.9464
 2036TIP3    H227744   6.822   2.024   8.307  0.4086 -0.9635 -0.6432
 2037TIP3   OH227745   5.779   5.699   2.038 -0.9441  0.0622  0.2079
 2037TIP3    H127746   5.689   5.728   2.023 -0.5888  1.0834 -0.0288
 2037TIP3    H227747   5.829   5.780   2.048  0.0951 -0.4669 -0.5202
 2038TIP3   OH227748   4.882   6.317   7.348  0.0480  0.4106  0.6185
 2038TIP3    H127749   4.827   6.370   7.291  1.1649 -0.8196 -1.7819
 2038TIP3    H227750   4.957   6.372   7.369 -0.4948  0.9614  1.1258
 2039TIP3   OH227751   1.989   6.933   6.149 -0.1577 -0.3558  0.3314
 2039TIP3    H127752   2.080   6.907   6.134 -0.0149  1.3944 -2.7688
 2039TIP3    H227753   1.940   6.851   6.148  1.1279 -1.1440 -0.6697
 2040TIP3   OH227754   6.697   1.756   2.179 -0.2893  0.2870 -0.0349
 2040TIP3    H127755   6.752   1.829   2.207  2.2242 -0.6803 -2.0496
 2040TIP3    H227756   6.656   1.786   2.098 -0.8011  0.1155  0.1534
 2041TIP3   OH227757   2.202   3.740   7.037  0.1339 -0.3054  0.0344
 2041TIP3    H127758   2.196   3.778   6.950  1.5006  1.5842  0.6993
 2041TIP3    H227759   2.282   3.687   7.035 -0.6134 -1.4624 -0.2510
 2042TIP3   OH227760   3.602   3.140   7.617  1.0230  0.3207  1.0318
 2042TIP3    H127761   3.566   3.156   7.530 -1.0002 -1.5679  1.4391
 2042TIP3    H227762   3.527   3.144   7.676  1.2522 -3.7090  1.9417
 2043TIP3   OH227763   3.710   3.137   8.319  0.0498 -0.4474 -0.2201
 2043TIP3    H127764   3.697   3.107   8.409  1.0902 -0.6102 -0.1083
 2043TIP3    H227765   3.678   3.065   8.265 -2.0801  0.2925 -0.0327
 2044TIP3   OH227766   1.793   5.528   6.967 -0.3317 -0.2492  0.2253
 2044TIP3    H127767   1.850   5.529   7.043 -1.1185  0.0861  0.8225
 2044TIP3    H227768   1.714   5.573   6.995  0.2530  2.0322 -1.5103
 2045TIP3   OH227769   2.320   1.858   0.726  0.1527  0.4724  0.2664
 2045TIP3    H127770   2.414   1.856   0.748  0.5225  0.5650 -1.2047
 2045TIP3    H227771   2.277   1.886   0.806  1.3319 -0.1592  1.1492
 2046TIP3   OH227772   4.923   0.667   0.303  0.0239 -0.2529  0.0083
 2046TIP3    H127773   4.996   0.654   0.243 -1.3205 -1.5051 -1.4248
 2046TIP3    H227774   4.964   0.700   0.383  2.0156  0.1341 -1.1063
 2047TIP3   OH227775   4.759   2.098   6.405 -0.2180  0.5701  0.1093
 2047TIP3    H127776   4.675   2.116   6.446  0.2046  1.2670  0.6972
 2047TIP3    H227777   4.743   2.021   6.350 -1.0613  0.2805  0.7341
 2048TIP3   OH227778   1.986   1.412   1.073  0.0765  0.4008  0.1919
 2048TIP3    H127779   2.062   1.441   1.124  0.5866 -1.3756  0.5046
 2048TIP3    H227780   1.980   1.318   1.090 -0.1904 -0.1391 -2.4393
 2049TIP3   OH227781   0.411   1.392   1.265  0.6203 -0.1255 -0.1703
 2049TIP3    H127782   0.449   1.313   1.305  0.8044 -1.4058 -2.6794
 2049TIP3    H227783   0.488   1.443   1.238  0.6065 -1.1747 -2.3517
 2050TIP3   OH227784   6.771   5.637   0.175  0.3991  0.3788 -0.3100
 2050TIP3    H127785   6.857   5.680   0.178  1.2453 -1.1678 -1.0240
 2050TIP3    H227786   6.751   5.632   0.081 -0.5672  0.8960 -0.1378
 2051TIP3   OH227787   6.222   2.423   1.777  0.2319 -0.0595 -0.3407
 2051TIP3    H127788   6.214   2.421   1.873 -0.8207 -0.1960 -0.4227
 2051TIP3    H227789   6.180   2.343   1.747  0.1963  0.1759 -0.9373
 2052TIP3   OH227790   5.172   3.078   0.878  0.3013  0.2276  0.2919
 2052TIP3    H127791   5.198   3.063   0.787 -2.7954 -0.5953 -0.5818
 2052TIP3    H227792   5.165   3.173   0.886 -1.6622  0.2713 -1.1411
 2053TIP3   OH227793   1.919   4.732   6.671 -0.3990  0.3852 -0.1420
 2053TIP3    H127794   1.956   4.786   6.601 -0.8796  0.1654 -0.5667
 2053TIP3    H227795   1.860   4.671   6.627 -0.3132 -0.1015  0.3984
 2054TIP3   OH227796   1.415   3.498   6.450  0.1983  0.5064  0.7410
 2054TIP3    H127797   1.331   3.493   6.497  0.4873  1.0010  1.3171
 2054TIP3    H227798   1.390   3.500   6.358 -0.4243  0.6189  0.9036
 2055TIP3   OH227799   6.745   1.403   7.394  0.2038  0.2913 -0.2009
 2055TIP3    H127800   6.783   1.465   7.456  0.2688  1.1740 -1.1007
 2055TIP3    H227801   6.818   1.348   7.367 -0.0215 -0.7955  1.2688
 2056TIP3   OH227802   1.895   4.529   5.949  0.0166 -0.9826 -0.1309
 2056TIP3    H127803   1.944   4.500   5.872  1.1191 -1.0731  0.5848
 2056TIP3    H227804   1.920   4.468   6.018 -1.5413 -1.3657  0.1396
 2057TIP3   OH227805   0.399   3.899   7.755  0.4591 -0.4661  0.4596
 2057TIP3    H127806   0.458   3.907   7.831 -0.3781  1.8459  0.9828
 2057TIP3    H227807   0.406   3.808   7.728  2.0412 -0.9673  2.3065
 2058TIP3   OH227808   0.455   3.037   8.262  0.0493  0.1223  0.0814
 2058TIP3    H127809   0.369   2.996   8.251  0.1741 -0.2691  0.5319
 2058TIP3    H227810   0.468   3.087   8.182 -0.0911 -0.7556 -0.5076
 2059TIP3   OH227811   4.097   2.472   0.044  0.0266 -0.2325  0.5154
 2059TIP3    H127812   4.024   2.494  -0.015 -0.7423  0.4524  1.6706
 2059TIP3    H227813   4.059   2.411   0.107 -0.1238  1.5778  2.2699
 2060TIP3   OH227814   1.342   3.052   6.859 -0.3988 -0.5088  1.2913
 2060TIP3    H127815   1.338   3.006   6.943 -1.2590  0.9434  2.0781
 2060TIP3    H227816   1.433   3.040   6.830 -0.1009 -1.0810  2.3973
 2061TIP3   OH227817   1.603   5.966   1.404  0.5749 -0.0190 -0.1936
 2061TIP3    H127818   1.533   6.031   1.394  0.5924  0.0121 -0.1146
 2061TIP3    H227819   1.558   5.884   1.425  0.4368 -0.4148 -1.9360
 2062TIP3   OH227820   2.816   6.878   7.826  0.0013  0.7212  0.2252
 2062TIP3    H127821   2.837   6.952   7.883  1.1252  0.8938 -0.3710
 2062TIP3    H227822   2.895   6.867   7.772 -0.6599 -0.0559 -0.6145
 2063TIP3   OH227823   6.066   4.918   1.398 -0.4451 -0.0098 -0.2567
 2063TIP3    H127824   6.016   4.841   1.372  0.4663 -0.0956 -1.9333
 2063TIP3    H227825   6.018   4.992   1.362  1.7232 -0.2279 -4.1057
 2064TIP3   OH227826   1.517   6.246   1.174 -0.1970  0.0903  0.1260
 2064TIP3    H127827   1.556   6.310   1.115  0.7545  0.6711  1.3269
 2064TIP3    H227828   1.557   6.163   1.149 -2.7382 -0.4598 -2.6101
 2065TIP3   OH227829   2.125   4.338   0.515  0.5872 -0.3395 -0.2420
 2065TIP3    H127830   2.184   4.404   0.551  0.3514  0.0989 -0.6338
 2065TIP3    H227831   2.182   4.272   0.476  0.8250  0.4080 -1.1933
 2066TIP3   OH227832   6.724   3.972   0.105 -0.6292  0.1031  0.2335
 2066TIP3    H127833   6.656   4.038   0.102  0.8835  1.7327  0.1182
 2066TIP3    H227834   6.804   4.018   0.078  0.3601 -1.9366 -0.5660
 2067TIP3   OH227835   1.949   5.189   0.918 -0.3064  0.6129 -0.0171
 2067TIP3    H127836   2.020   5.126   0.907 -0.5858  0.2281  0.3497
 2067TIP3    H227837   1.888   5.169   0.847 -0.8292 -0.1306  0.6232
 2068TIP3   OH227838   6.351   5.866   7.129 -1.1386  0.1103 -0.3191
 2068TIP3    H127839   6.285   5.830   7.188 -1.2427 -0.2255 -0.6373
 2068TIP3    H227840   6.310   5.865   7.043  0.6865 -4.2258 -1.4139
 2069TIP3   OH227841   1.393   0.600   1.454 -0.0453  1.0444 -0.3112
 2069TIP3    H127842   1.357   0.669   1.399  0.5020  1.4864 -0.1348
 2069TIP3    H227843   1.487   0.599   1.432 -0.6887 -3.4918 -4.5786
 2070TIP3   OH227844   2.727   4.737   7.570  0.3594  0.1502  0.1884
 2070TIP3    H127845   2.798   4.800   7.555  0.6675 -0.3519 -0.5598
 2070TIP3    H227846   2.650   4.777   7.530  0.4877  0.1994 -0.0140
 2071TIP3   OH227847   5.583   0.647   0.627  0.4949 -0.5616  0.1516
 2071TIP3    H127848   5.510   0.701   0.656 -0.2327 -1.7551  0.6270
 2071TIP3    H227849   5.618   0.692   0.550 -0.2822  0.4030  0.3522
 2072TIP3   OH227850   3.582   0.739   2.115 -0.5097  0.0739 -0.0462
 2072TIP3    H127851   3.511   0.801   2.098  0.0430  0.4312 -1.1217
 2072TIP3    H227852   3.538   0.655   2.126 -1.1312  0.3559 -0.3379
 2073TIP3   OH227853   4.013   3.106   0.045 -0.6113 -0.2808  0.0832
 2073TIP3    H127854   4.094   3.061   0.070  0.6274  0.4085 -2.3453
 2073TIP3    H227855   3.973   3.049  -0.020 -0.2698  0.9335 -1.2428
 2074TIP3   OH227856   4.823   6.798   1.014 -0.6410  0.1868 -0.3048
 2074TIP3    H127857   4.818   6.861   0.942  0.6109  1.4063  0.6318
 2074TIP3    H227858   4.756   6.826   1.076  1.1573  1.8457  1.0053
 2075TIP3   OH227859   3.132   6.081   7.889  0.1358  0.5980 -0.0083
 2075TIP3    H127860   3.154   6.127   7.808  1.0990  0.4727  0.1670
 2075TIP3    H227861   3.178   6.130   7.958  2.0057 -1.1544  0.0757
 2076TIP3   OH227862   5.250   1.314   7.528  0.4067  0.7994 -0.1536
 2076TIP3    H127863   5.194   1.250   7.484 -0.2808  0.2839  1.4070
 2076TIP3    H227864   5.243   1.393   7.474 -1.5434  0.6300 -0.2015
 2077TIP3   OH227865   4.621   6.692   7.348 -0.5447  0.4869 -0.3297
 2077TIP3    H127866   4.636   6.786   7.334  0.0090  0.5865  0.7957
 2077TIP3    H227867   4.681   6.649   7.287 -0.3574  0.8798 -0.4274
 2078TIP3   OH227868   2.175   5.723   6.184 -0.6752  0.2856 -0.0541
 2078TIP3    H127869   2.211   5.644   6.144 -0.5265  0.1569  0.3309
 2078TIP3    H227870   2.146   5.776   6.110  1.9223  1.2177 -0.4973
 2079TIP3   OH227871   2.694   1.342   1.462 -0.1725  0.0633 -0.9752
 2079TIP3    H127872   2.774   1.387   1.437 -0.7829  1.7059 -0.0960
 2079TIP3    H227873   2.724   1.262   1.506  1.0159  1.1386  0.2570
 2080TIP3   OH227874   0.049   6.478   7.985  0.5239  0.4437  0.0966
 2080TIP3    H127875   0.106   6.401   7.984 -2.9091 -2.4187 -2.6988
 2080TIP3    H227876   0.055   6.513   7.896 -2.0719 -0.1917 -0.4302
 2081TIP3   OH227877   4.366   0.224   7.883  0.3555  0.0773 -0.2212
 2081TIP3    H127878   4.441   0.195   7.832  1.0168  1.9065 -0.3288
 2081TIP3    H227879   4.398   0.297   7.936 -0.8992 -0.2652  1.1048
 2082TIP3   OH227880   3.686   5.048   1.201  0.0428  0.0790  0.3061
 2082TIP3    H127881   3.711   4.958   1.222 -0.2528 -0.0248  0.2053
 2082TIP3    H227882   3.769   5.096   1.201  0.1969 -0.1853  0.3895
 2083TIP3   OH227883   1.457   3.774   2.105 -0.0943 -0.4864  0.4271
 2083TIP3    H127884   1.509   3.782   2.025 -2.0011  0.5526 -0.7982
 2083TIP3    H227885   1.384   3.716   2.080 -0.7394 -0.1077  1.3820
 2084TIP3   OH227886   6.953   5.096   0.919  0.5484 -0.5576  0.2161
 2084TIP3    H127887   6.885   5.048   0.966  0.4582  0.6741  1.3740
 2084TIP3    H227888   7.017   5.028   0.894 -0.9467 -1.6977 -0.7096
 2085TIP3   OH227889   4.506   0.923   1.760 -0.4058 -0.3798  0.1759
 2085TIP3    H127890   4.533   0.959   1.845 -2.4929 -1.4987  1.3923
 2085TIP3    H227891   4.419   0.959   1.744  0.1016  0.1204 -1.7275
 2086TIP3   OH227892   3.214   5.999   1.257 -0.4260  0.0494  0.1774
 2086TIP3    H127893   3.287   6.028   1.312 -1.5539  2.1076  0.7121
 2086TIP3    H227894   3.167   5.936   1.310  1.5495 -2.2306 -0.6216
 2087TIP3   OH227895   3.312   4.507   0.186  0.0552 -0.1448 -0.5166
 2087TIP3    H127896   3.310   4.532   0.094 -0.9605  1.3927 -0.1098
 2087TIP3    H227897   3.226   4.468   0.202 -0.2112  0.6346  0.0291
 2088TIP3   OH227898   1.467   3.022   6.593 -0.1873  0.2723  0.0247
 2088TIP3    H127899   1.488   2.931   6.610 -3.1328 -0.6993 -0.8366
 2088TIP3    H227900   1.439   3.023   6.501 -1.8419  1.6385  0.4843
 2089TIP3   OH227901   3.095   2.995   1.166 -0.1827  0.0264  0.1116
 2089TIP3    H127902   3.161   3.050   1.123 -0.5475  1.4305  1.2804
 2089TIP3    H227903   3.028   2.981   1.100  0.4813 -0.0133 -0.5660
 2090TIP3   OH227904   2.005   5.071   0.229 -0.6297  0.4618  0.5291
 2090TIP3    H127905   2.006   5.053   0.323  0.2624 -1.2176  0.2446
 2090TIP3    H227906   2.035   5.161   0.222  1.6318 -0.1054  1.7844
 2091TIP3   OH227907   2.491   3.019   1.297 -0.3295 -0.0692 -0.1313
 2091TIP3    H127908   2.559   3.077   1.333 -0.5741 -0.1100  0.4153
 2091TIP3    H227909   2.421   3.079   1.269  1.2516  0.2952 -3.8788
 2092TIP3   OH227910   0.944   5.754   0.927  0.3778 -0.2019 -0.1172
 2092TIP3    H127911   0.985   5.675   0.892  1.9913  0.3361  0.4751
 2092TIP3    H227912   0.884   5.722   0.995  0.5348 -0.9501 -0.3284
 2093TIP3   OH227913   3.376   5.825   8.422  0.1801  0.1839 -0.2858
 2093TIP3    H127914   3.356   5.782   8.339 -0.5892 -1.1723  0.5691
 2093TIP3    H227915   3.304   5.886   8.435  1.3081  1.8723 -1.5318
 2094TIP3   OH227916   5.730   4.043   6.507  0.2001  0.5566 -0.3610
 2094TIP3    H127917   5.815   4.067   6.470  0.7391  0.5194  0.7944
 2094TIP3    H227918   5.708   4.114   6.567  1.2526 -1.1403  2.1937
 2095TIP3   OH227919   0.188   1.030   1.185 -0.0362  0.4615 -0.3787
 2095TIP3    H127920   0.130   0.978   1.240  0.1503 -0.6258 -1.1734
 2095TIP3    H227921   0.270   1.035   1.234 -0.3066  0.7168  0.0611
 2096TIP3   OH227922   6.175   2.637   6.613  0.1935  0.1424 -0.0214
 2096TIP3    H127923   6.228   2.642   6.693  0.0905  0.1360  0.0469
 2096TIP3    H227924   6.135   2.724   6.606  2.6858  1.2668 -1.7846
 2097TIP3   OH227925   5.427   1.676   0.374 -0.1223 -0.1184 -0.7643
 2097TIP3    H127926   5.501   1.721   0.332 -1.4558  2.1054 -0.8864
 2097TIP3    H227927   5.450   1.674   0.467 -1.2891  3.7408 -0.2361
 2098TIP3   OH227928   1.143   1.781   7.563 -0.1285 -0.1254  0.3465
 2098TIP3    H127929   1.121   1.793   7.471  0.5333 -0.0381  0.1938
 2098TIP3    H227930   1.208   1.712   7.564  1.0845  0.9743  0.5785
 2099TIP3   OH227931   3.601   4.913   1.556 -0.0582  0.4725  0.5743
 2099TIP3    H127932   3.530   4.875   1.608 -0.3755 -0.3978 -0.4595
 2099TIP3    H227933   3.573   5.003   1.539  0.1676  0.8597  2.0938
 2100TIP3   OH227934   1.888   0.849   0.392  0.2818  0.5693 -0.1683
 2100TIP3    H127935   1.851   0.926   0.437  0.8398  0.4483  0.5090
 2100TIP3    H227936   1.862   0.775   0.446  0.9989  0.4243 -0.0184
 2101TIP3   OH227937   0.048   6.569   0.007  0.1547  0.0456 -0.5858
 2101TIP3    H127938   0.048   6.545  -0.085  1.9162  1.2360 -0.9464
 2101TIP3    H227939   0.060   6.664   0.007  1.0036 -0.0285  0.8471
 2102TIP3   OH227940   0.242   0.084   1.615  0.3630  0.6555 -0.1757
 2102TIP3    H127941   0.220   0.013   1.674 -1.6632  0.8539 -0.6275
 2102TIP3    H227942   0.315   0.130   1.658  0.1851 -0.3179  1.2087
 2103TIP3   OH227943   4.793   2.218   1.037  0.4067 -0.3413 -0.0588
 2103TIP3    H127944   4.881   2.187   1.057  1.1335  1.4039 -0.3221
 2103TIP3    H227945   4.773   2.279   1.108 -0.7981 -1.0842  0.2513
 2104TIP3   OH227946   3.637   3.674   1.764  0.2589  0.2700 -0.0766
 2104TIP3    H127947   3.660   3.727   1.840  1.9140  0.5294 -0.7255
 2104TIP3    H227948   3.630   3.737   1.692 -0.4883 -0.0741 -0.3190
 2105TIP3   OH227949   4.149   3.584   8.237 -0.0245  0.2860  0.0694
 2105TIP3    H127950   4.177   3.504   8.282  1.5397  1.6730  1.7764
 2105TIP3    H227951   4.149   3.562   8.144 -2.2053 -2.3915  0.5798
 2106TIP3   OH227952   3.190   3.761   1.030  0.1718  0.3262 -0.1286
 2106TIP3    H127953   3.261   3.802   0.980  0.7635  2.3354  2.1944
 2106TIP3    H227954   3.113   3.814   1.011  0.2394  0.6658  0.5227
 2107TIP3   OH227955   0.091   6.426   0.487 -0.0598 -0.5996  0.2302
 2107TIP3    H127956   0.054   6.424   0.575 -1.5767  0.2521 -0.3444
 2107TIP3    H227957   0.015   6.424   0.429  0.8395  0.2331 -1.0355
 2108TIP3   OH227958   1.501   6.859   1.191  0.5378  0.6973  0.4546
 2108TIP3    H127959   1.517   6.906   1.109 -0.1006 -0.1332 -0.1640
 2108TIP3    H227960   1.587   6.831   1.220  0.6241 -0.7321 -0.9991
 2109TIP3   OH227961   1.568   2.186   1.548  0.1686 -0.1085  0.6524
 2109TIP3    H127962   1.614   2.265   1.520 -0.1225  1.0257  3.0674
 2109TIP3    H227963   1.635   2.132   1.590  0.1667 -0.6633 -0.0477
 2110TIP3   OH227964   2.963   3.642   0.751  0.1938 -0.0790  0.5623
 2110TIP3    H127965   2.918   3.569   0.708 -0.0192  0.1766  0.3525
 2110TIP3    H227966   2.956   3.623   0.844  2.6868 -1.8910  0.5018
 2111TIP3   OH227967   1.596   4.527   2.249  0.5145 -0.2139 -0.0150
 2111TIP3    H127968   1.663   4.560   2.308  0.5027 -0.4118  0.1105
 2111TIP3    H227969   1.628   4.548   2.161  0.1442  0.8235  0.0836
 2112TIP3   OH227970   5.938   0.472   0.803 -0.4467 -0.3881  0.3272
 2112TIP3    H127971   5.906   0.561   0.821  0.4088  0.3005 -1.2446
 2112TIP3    H227972   5.871   0.433   0.747 -1.5707 -1.3481  2.2567
 2113TIP3   OH227973   3.240   1.187   8.294  0.4305 -0.2446 -0.2513
 2113TIP3    H127974   3.173   1.125   8.322  0.3129 -0.1464 -0.3183
 2113TIP3    H227975   3.205   1.227   8.214  0.6565 -0.3425 -0.4031
 2114TIP3   OH227976   4.188   4.736   1.748 -0.3176 -0.5955 -0.2030
 2114TIP3    H127977   4.232   4.765   1.667 -0.1819  0.2584  0.1685
 2114TIP3    H227978   4.139   4.812   1.777  0.1264 -0.6970  0.8559
 2115TIP3   OH227979   6.894   4.931   7.282  0.1529  0.0137  0.1130
 2115TIP3    H127980   6.984   4.960   7.266  0.0181  0.0624 -0.5925
 2115TIP3    H227981   6.857   4.917   7.194 -0.3690 -0.4908  0.4076
 2116TIP3   OH227982   5.370   5.086   0.789 -0.2827 -0.1562  0.5626
 2116TIP3    H127983   5.435   5.031   0.833  0.7558 -0.7680 -1.6179
 2116TIP3    H227984   5.419   5.162   0.758 -0.7890 -0.1613 -0.2875
 2117TIP3   OH227985   6.357   6.324   0.289 -0.4170 -0.9275 -0.2420
 2117TIP3    H127986   6.326   6.278   0.367  0.6781  0.0592  0.8111
 2117TIP3    H227987   6.372   6.255   0.225  1.1363 -2.0859  1.2770
 2118TIP3   OH227988   2.592   6.952   7.544  0.2608  0.0927  0.0431
 2118TIP3    H127989   2.563   6.898   7.617 -0.0472  2.1463  1.5508
 2118TIP3    H227990   2.684   6.930   7.532  0.6497  0.5032  1.8832
 2119TIP3   OH227991   0.969   1.726   6.237 -0.5397 -0.1311  0.2099
 2119TIP3    H127992   0.927   1.660   6.292 -1.1011  0.4193  0.4519
 2119TIP3    H227993   0.913   1.804   6.245 -0.3010  0.1484 -0.6550
 2120TIP3   OH227994   1.142   4.849   1.862  0.4330 -0.1537  0.2749
 2120TIP3    H127995   1.100   4.892   1.936 -0.4936 -1.2420  0.4133
 2120TIP3    H227996   1.072   4.841   1.796  0.8078 -0.6669 -0.0680
 2121TIP3   OH227997   0.850   3.513   8.357 -0.0149  0.1790  0.5743
 2121TIP3    H127998   0.860   3.543   8.266  0.2157 -0.1470  0.4905
 2121TIP3    H227999   0.936   3.478   8.380  0.4622  1.8526  1.5104
 2122TIP3   OH228000   1.880   5.695   7.771 -0.3575  0.0466  0.3942
 2122TIP3    H128001   1.857   5.647   7.851  0.2754 -0.7539  0.1036
 2122TIP3    H228002   1.864   5.787   7.794 -3.0340 -0.3666  0.4678
 2123TIP3   OH228003   3.318   2.904   2.573 -0.0182  0.3236 -0.6399
 2123TIP3    H128004   3.392   2.958   2.543  0.5597  0.7958  1.5183
 2123TIP3    H228005   3.357   2.817   2.586  0.7805  1.0413  2.5397
 2124TIP3   OH228006   3.894   2.504   8.295  0.3386 -0.9934 -0.7157
 2124TIP3    H128007   3.949   2.502   8.216  1.1809 -0.8385 -0.1459
 2124TIP3    H228008   3.805   2.507   8.262  0.7080  1.2441 -1.7206
 2125TIP3   OH228009   4.429   6.158   6.357  0.0602  0.2600  0.0206
 2125TIP3    H128010   4.399   6.078   6.400 -0.1940  0.4793  0.2559
 2125TIP3    H228011   4.367   6.171   6.285  0.1777  0.1766 -0.0966
 2126TIP3   OH228012   2.509   3.896   1.629 -0.6666  0.2991  0.2906
 2126TIP3    H128013   2.537   3.906   1.538 -0.8474  0.5010  0.2580
 2126TIP3    H228014   2.522   3.982   1.668 -2.0645  0.6483  0.0469
 2127TIP3   OH228015   5.838   4.190   0.338  0.3258  0.5281  0.1606
 2127TIP3    H128016   5.810   4.123   0.275 -1.6257  0.5739  0.9189
 2127TIP3    H228017   5.929   4.209   0.313 -0.3894  0.6376 -2.7017
 2128TIP3   OH228018   4.281   4.181   0.282 -0.2083  0.3018  0.3680
 2128TIP3    H128019   4.238   4.236   0.347  0.4177  1.1697  0.0710
 2128TIP3    H228020   4.364   4.225   0.265 -0.7620  0.6419 -1.7317
 2129TIP3   OH228021   6.624   5.015   7.385 -0.7471 -0.3827 -0.2361
 2129TIP3    H128022   6.578   4.932   7.381 -0.9498 -0.2748 -0.1343
 2129TIP3    H228023   6.716   4.991   7.399 -0.7563 -0.5978 -0.5369
 2130TIP3   OH228024   1.550   2.471   8.300  1.2031  0.2974  0.1464
 2130TIP3    H128025   1.639   2.442   8.279  1.2717 -2.9729  3.9001
 2130TIP3    H228026   1.499   2.452   8.222  3.1662 -0.9240 -0.9123
 2131TIP3   OH228027   6.727   1.665   7.093  0.2492  0.0817 -0.5611
 2131TIP3    H128028   6.674   1.618   7.158  2.4964  1.8253  2.8282
 2131TIP3    H228029   6.667   1.730   7.056 -1.3655 -1.6223 -1.0738
 2132TIP3   OH228030   3.111   1.768   0.771 -0.0085 -0.2668 -0.3247
 2132TIP3    H128031   3.183   1.718   0.732  1.8974 -0.2752  2.8592
 2132TIP3    H228032   3.142   1.859   0.771 -0.5018 -0.0923  0.0405
 2133TIP3   OH228033   3.705   5.661   1.486 -0.0592 -0.1987 -0.3423
 2133TIP3    H128034   3.674   5.667   1.576  0.8540  0.3151 -0.0557
 2133TIP3    H228035   3.663   5.582   1.451  0.8533 -1.3152  1.0280
 2134TIP3   OH228036   2.497   5.126   6.873  0.1639  0.3978  0.4937
 2134TIP3    H128037   2.433   5.088   6.813  0.5917  0.4059  0.0219
 2134TIP3    H228038   2.470   5.218   6.883  0.3951  0.5366 -0.1160
 2135TIP3   OH228039   0.005   3.632   1.981 -0.3591 -0.0752  0.2136
 2135TIP3    H128040  -0.060   3.634   2.051 -0.4590 -1.0888  0.1587
 2135TIP3    H228041   0.041   3.543   1.983 -0.7467 -0.2949 -1.3534
 2136TIP3   OH228042   0.471   1.724   1.867  0.4289  0.0360 -0.5174
 2136TIP3    H128043   0.473   1.687   1.955  0.5168 -1.6219 -1.1853
 2136TIP3    H228044   0.447   1.816   1.880 -1.1885 -0.5613  1.0962
 2137TIP3   OH228045   6.165   0.268   1.538  0.0558 -0.0197  0.1666
 2137TIP3    H128046   6.212   0.250   1.457 -1.3183 -0.4108 -0.5762
 2137TIP3    H228047   6.097   0.331   1.513  0.4196  0.8481  1.2933
 2138TIP3   OH228048   6.350   5.723   1.119 -0.4645  0.6289  0.4360
 2138TIP3    H128049   6.412   5.795   1.128 -0.9721  1.3184 -1.1415
 2138TIP3    H228050   6.284   5.756   1.058 -0.5259 -1.2724 -0.6123
 2139TIP3   OH228051   2.705   3.182   1.333 -0.9202 -0.4822  0.0273
 2139TIP3    H128052   2.737   3.173   1.244  1.1622  0.1272  0.6517
 2139TIP3    H228053   2.738   3.267   1.363 -0.3791 -1.2521  1.8021
 2140TIP3   OH228054   0.755   5.233   1.425  0.1373 -0.1201 -0.4942
 2140TIP3    H128055   0.664   5.244   1.398 -0.0220 -2.3414 -1.0878
 2140TIP3    H228056   0.755   5.253   1.519 -0.6999  1.0671 -0.7311
 2141TIP3   OH228057   3.014   4.668   0.139 -0.6553  0.2233 -0.4427
 2141TIP3    H128058   2.988   4.683   0.230  2.0920  1.7634  0.2121
 2141TIP3    H228059   3.046   4.578   0.138 -0.1124  0.3877  0.3333
 2142TIP3   OH228060   3.593   4.021   0.089  0.7747 -0.2904  0.3822
 2142TIP3    H128061   3.555   3.942   0.051  1.4193  0.4050 -1.8405
 2142TIP3    H228062   3.687   4.007   0.085  0.8870  0.5003  0.1522
 2143TIP3   OH228063   2.154   2.970   0.090 -0.1952  0.0037 -0.1436
 2143TIP3    H128064   2.107   2.909   0.147 -2.5161  1.8033 -0.0030
 2143TIP3    H228065   2.241   2.977   0.129 -1.0132 -0.5143  1.8739
 2144TIP3   OH228066   4.780   1.088   6.765  0.8875  0.2356  0.3456
 2144TIP3    H128067   4.874   1.103   6.755  0.8361  0.0067 -0.5263
 2144TIP3    H228068   4.751   1.058   6.679  0.1750 -0.5193  0.8284
 2145TIP3   OH228069   4.356   3.811   0.483 -0.1656  0.1406 -0.3505
 2145TIP3    H128070   4.334   3.787   0.573 -1.4114  2.0362 -0.0890
 2145TIP3    H228071   4.452   3.805   0.480 -0.1618 -0.8036  0.8259
 2146TIP3   OH228072   2.176   0.742   6.128  0.4846 -0.5865  0.3382
 2146TIP3    H128073   2.101   0.727   6.186 -1.2464 -0.4123 -1.7401
 2146TIP3    H228074   2.230   0.664   6.139  1.2713  0.2766  3.5801
 2147TIP3   OH228075   6.566   2.744   0.732  0.3857  0.0662 -0.1989
 2147TIP3    H128076   6.622   2.670   0.756  0.7897 -0.1190 -1.6023
 2147TIP3    H228077   6.587   2.761   0.640  1.8491  3.3049  0.6298
 2148TIP3   OH228078   4.572   5.549   1.677 -0.1393  0.2013 -0.8278
 2148TIP3    H128079   4.606   5.582   1.594 -0.1415 -0.0504 -0.9286
 2148TIP3    H228080   4.581   5.454   1.671  3.3460  0.2838  0.9406
 2149TIP3   OH228081   5.999   2.635   1.770 -0.5001  0.2755  0.0994
 2149TIP3    H128082   6.069   2.572   1.760 -0.9003 -0.4624  1.5958
 2149TIP3    H228083   5.949   2.630   1.689  0.4659 -0.0707 -0.4811
 2150TIP3   OH228084   0.097   2.579   1.677  0.4874 -0.0351  0.6636
 2150TIP3    H128085   0.081   2.567   1.584 -0.4631 -0.8618  0.9039
 2150TIP3    H228086   0.166   2.645   1.682  0.4431  0.1349 -0.6124
 2151TIP3   OH228087   5.496   4.165   7.613  0.0154  0.4520  0.4065
 2151TIP3    H128088   5.584   4.176   7.576 -0.3825  1.9645 -0.1407
 2151TIP3    H228089   5.472   4.252   7.644 -1.0821 -0.0629  1.0413
 2152TIP3   OH228090   0.230   5.663   7.753 -0.0764  0.6041  0.5438
 2152TIP3    H128091   0.211   5.577   7.789 -0.0674  0.3192 -0.1367
 2152TIP3    H228092   0.172   5.722   7.802  0.0366  0.2447  1.1283
 2153TIP3   OH228093   4.190   1.991   0.797 -0.1597 -0.3235 -0.0156
 2153TIP3    H128094   4.103   2.000   0.837 -1.1165  0.3602 -2.1090
 2153TIP3    H228095   4.174   1.944   0.715  1.4998 -0.5012 -0.2621
 2154TIP3   OH228096   6.583   4.222   7.781  0.6670 -0.5504 -0.0329
 2154TIP3    H128097   6.638   4.197   7.855  2.9951 -0.6063 -1.6990
 2154TIP3    H228098   6.535   4.142   7.759  3.3317 -1.9193 -1.3295
 2155TIP3   OH228099   3.510   1.273   2.134  0.0870  0.7732  0.3695
 2155TIP3    H128100   3.495   1.182   2.159 -0.6510  1.1284  1.2582
 2155TIP3    H228101   3.599   1.293   2.165 -0.3238  0.8076  1.5505
 2156TIP3   OH228102   0.384   0.578   0.440  0.3147  0.1652  0.8131
 2156TIP3    H128103   0.410   0.658   0.485  1.8911  0.2028 -0.0810
 2156TIP3    H228104   0.456   0.560   0.379 -0.1781 -1.7222  0.7166
 2157TIP3   OH228105   0.658   4.301   1.242  0.3033  0.2107 -0.4402
 2157TIP3    H128106   0.595   4.290   1.313 -0.1682  0.5812 -0.7926
 2157TIP3    H228107   0.607   4.342   1.171  0.8454  0.1547 -0.8672
 2158TIP3   OH228108   3.090   1.523   6.306 -0.2021  0.1209 -0.9611
 2158TIP3    H128109   3.111   1.457   6.240  1.4365 -1.8241  1.3404
 2158TIP3    H228110   3.175   1.552   6.338 -0.9537  1.7539 -0.3550
 2159TIP3   OH228111   5.105   0.993   7.130 -0.4288 -0.3600 -0.0936
 2159TIP3    H128112   5.177   1.007   7.068  0.2221 -0.1534  0.6883
 2159TIP3    H228113   5.026   1.001   7.078 -0.0779  3.3328 -0.3488
 2160TIP3   OH228114   1.594   3.209   6.376  0.6165  0.0998 -0.3117
 2160TIP3    H128115   1.535   3.282   6.358  0.4407  0.4221  1.3677
 2160TIP3    H228116   1.540   3.131   6.363  0.3533  0.3267 -0.6043
 2161TIP3   OH228117   0.814   6.241   1.784  0.1214 -0.4260  0.5087
 2161TIP3    H128118   0.820   6.219   1.877  4.2335  0.2334  0.6013
 2161TIP3    H228119   0.864   6.172   1.740  0.2754  0.5353 -0.9008
 2162TIP3   OH228120   0.928   4.868   1.364  0.7433 -0.1139  0.1414
 2162TIP3    H128121   0.875   4.788   1.364 -2.6337  1.8375  3.2022
 2162TIP3    H228122   0.912   4.907   1.278  1.4019 -2.0048 -0.8979
 2163TIP3   OH228123   0.416   1.582   0.171 -0.3511 -0.0971 -0.1478
 2163TIP3    H128124   0.481   1.512   0.178  1.1106  1.1438 -0.7251
 2163TIP3    H228125   0.381   1.592   0.259  0.5949 -0.4722  0.2801
 2164TIP3   OH228126   0.721   3.730   7.395  0.2576 -0.4880  0.1413
 2164TIP3    H128127   0.739   3.824   7.401  0.9557 -0.7094  2.9509
 2164TIP3    H228128   0.700   3.715   7.303 -0.1478  2.4521 -0.3314
 2165TIP3   OH228129   4.868   5.437   7.735 -0.3527  0.0550  0.0873
 2165TIP3    H128130   4.908   5.506   7.789  0.7194 -0.6811  0.2646
 2165TIP3    H228131   4.843   5.482   7.654  2.1425  0.3364 -0.6194
 2166TIP3   OH228132   3.888   0.812   1.188 -0.1960 -0.0443  0.6562
 2166TIP3    H128133   3.950   0.829   1.259  0.7484  2.5075 -0.6469
 2166TIP3    H228134   3.863   0.899   1.157 -3.0207 -1.0285 -0.1146
 2167TIP3   OH228135   5.460   3.671   6.523  0.1830  0.4296  0.1852
 2167TIP3    H128136   5.425   3.632   6.442 -1.8425  2.1770  0.1167
 2167TIP3    H228137   5.480   3.597   6.579 -0.6500 -0.7678 -1.0384
 2168TIP3   OH228138   5.090   5.459   1.094  0.2016 -0.1488 -0.4303
 2168TIP3    H128139   5.068   5.379   1.047 -0.4993  0.2311 -0.7563
 2168TIP3    H228140   5.060   5.443   1.184  2.0570 -1.0998  0.0804
 2169TIP3   OH228141   0.449   4.130   2.688 -0.5528  0.0832  0.8765
 2169TIP3    H128142   0.538   4.098   2.706 -0.5134  0.7543  1.9880
 2169TIP3    H228143   0.462   4.218   2.652 -0.7021 -0.6724 -1.1363
 2170TIP3   OH228144   1.917   4.908   5.846  0.0739  0.4467 -0.6644
 2170TIP3    H128145   1.898   4.820   5.812  2.6887 -0.5714  0.2166
 2170TIP3    H228146   1.861   4.916   5.924  1.1570 -1.3285  0.3884
 2171TIP3   OH228147   2.593   3.573   7.402 -0.1622  0.1507  0.4163
 2171TIP3    H128148   2.633   3.605   7.321  2.5657 -0.7749  1.2811
 2171TIP3    H228149   2.576   3.480   7.384 -0.4346  0.1679  0.5917
 2172TIP3   OH228150   4.827   0.914   7.074  0.6340 -0.5467 -0.0840
 2172TIP3    H128151   4.752   0.950   7.122  0.9810 -0.1744  0.1860
 2172TIP3    H228152   4.817   0.820   7.081 -0.2132 -0.5148 -0.6765
 2173TIP3   OH228153   4.982   3.184   2.290  0.2784 -0.3031  0.3478
 2173TIP3    H128154   5.047   3.219   2.229 -0.3803  0.7109  0.2104
 2173TIP3    H228155   4.919   3.255   2.301 -0.1858 -0.8607  1.3808
 2174TIP3   OH228156   3.320   2.181   7.416  0.2380 -0.5286  0.1715
 2174TIP3    H128157   3.352   2.102   7.372 -1.8019 -0.5146 -1.4899
 2174TIP3    H228158   3.360   2.253   7.368 -0.7347 -0.5381 -0.6855
 2175TIP3   OH228159   1.027   0.692   1.080 -0.2949 -0.2845 -0.1227
 2175TIP3    H128160   0.979   0.620   1.038  1.1491 -2.3590  1.5697
 2175TIP3    H228161   1.112   0.693   1.035 -1.0139  1.8577 -1.5715
 2176TIP3   OH228162   1.297   2.881   7.066  0.6941 -0.5475 -0.1973
 2176TIP3    H128163   1.366   2.859   7.130 -0.8691  0.2471  1.8670
 2176TIP3    H228164   1.219   2.895   7.119 -0.9117 -0.6534 -2.4024
 2177TIP3   OH228165   2.487   2.595   1.792 -0.0016 -0.0627 -0.0112
 2177TIP3    H128166   2.501   2.577   1.885 -1.0669  0.1939  0.2078
 2177TIP3    H228167   2.570   2.570   1.751 -0.3249 -2.5333  0.6568
 2178TIP3   OH228168   6.137   1.660   2.048  0.1932  0.4456 -0.3933
 2178TIP3    H128169   6.115   1.739   1.998 -0.0817  0.7838  0.2447
 2178TIP3    H228170   6.057   1.639   2.096 -0.1382 -0.9816 -1.5277
 2179TIP3   OH228171   5.364   1.094   0.022 -0.3463  0.3213  0.1211
 2179TIP3    H128172   5.453   1.114  -0.006 -0.3477 -1.7379 -1.6284
 2179TIP3    H228173   5.349   1.004  -0.007 -2.1098 -0.3175  2.7052
 2180TIP3   OH228174   3.182   0.848   0.163 -0.2442  0.4998 -0.0664
 2180TIP3    H128175   3.251   0.887   0.109 -0.7934  1.5086 -0.0714
 2180TIP3    H228176   3.218   0.765   0.192  0.6945  0.6854 -0.6518
 2181TIP3   OH228177   4.411   6.135   0.649 -0.1463 -0.2415 -0.0835
 2181TIP3    H128178   4.387   6.046   0.623  0.0609 -0.1208 -0.7150
 2181TIP3    H228179   4.330   6.174   0.682 -0.5805 -0.1952 -1.1532
 2182TIP3   OH228180   1.276   5.768   0.581 -0.3268  0.1598 -0.3372
 2182TIP3    H128181   1.326   5.836   0.535  0.1831  0.6736  0.9165
 2182TIP3    H228182   1.297   5.687   0.534  0.3269  0.6344 -0.8909
 2183TIP3   OH228183   5.930   4.063   8.329  0.2787 -0.2067 -0.2291
 2183TIP3    H128184   5.941   3.969   8.346 -0.2292 -0.0913  0.7761
 2183TIP3    H228185   6.019   4.099   8.335  0.0807  0.0157  3.5055
 2184TIP3   OH228186   2.239   6.609   1.316 -0.2093 -0.2618 -0.2418
 2184TIP3    H128187   2.260   6.587   1.225  0.6386  0.2988 -0.1910
 2184TIP3    H228188   2.208   6.527   1.354 -0.1885 -0.5941 -0.9219
 2185TIP3   OH228189   4.800   5.481   8.225 -0.0813 -0.1725  0.1070
 2185TIP3    H128190   4.814   5.458   8.317 -0.8733  0.1836  0.3214
 2185TIP3    H228191   4.705   5.480   8.214  0.0144 -0.3339 -0.7418
 2186TIP3   OH228192   2.382   5.413   6.884  0.1031  0.3932  0.3299
 2186TIP3    H128193   2.289   5.434   6.880  0.5167  2.5198  0.4353
 2186TIP3    H228194   2.422   5.477   6.824  1.5827  0.2022  1.0887
 2187TIP3   OH228195   0.570   4.387   0.955 -0.0198 -0.5676  0.2792
 2187TIP3    H128196   0.657   4.427   0.956 -0.2329  0.0445 -1.3128
 2187TIP3    H228197   0.574   4.324   0.883 -0.0869 -2.5492  1.9491
 2188TIP3   OH228198   6.366   1.803   1.691 -0.0102 -0.3663  0.1184
 2188TIP3    H128199   6.445   1.782   1.740 -0.7095 -0.1189  1.3919
 2188TIP3    H228200   6.355   1.898   1.702 -0.2191 -0.3213 -0.4519
 2189TIP3   OH228201   0.943   6.156   8.330 -0.0747 -0.2908 -0.0419
 2189TIP3    H128202   0.905   6.092   8.390 -0.1263 -1.5545 -1.3583
 2189TIP3    H228203   0.985   6.103   8.262  4.2208  0.9954  1.3134
 2190TIP3   OH228204   0.891   4.895   6.133  0.3668  0.2822  0.4652
 2190TIP3    H128205   0.820   4.933   6.082 -0.1281 -0.1515  0.8146
 2190TIP3    H228206   0.964   4.888   6.072 -0.1637 -0.0734 -0.1411
 2191TIP3   OH228207   0.993   0.447   8.065  0.5260 -0.1265 -0.3082
 2191TIP3    H128208   1.069   0.401   8.030 -0.2977 -1.0779 -0.8980
 2191TIP3    H228209   0.987   0.526   8.012 -0.8272 -1.6368 -2.5944
 2192TIP3   OH228210   0.550   1.383   8.151 -0.1684  0.5246  0.6860
 2192TIP3    H128211   0.551   1.476   8.175 -1.7159  0.4297  1.1893
 2192TIP3    H228212   0.460   1.366   8.124  0.3373 -0.5981 -0.3994
 2193TIP3   OH228213   4.284   2.329   2.057  0.3986 -0.0844  0.3672
 2193TIP3    H128214   4.273   2.382   2.137  0.8627 -1.2288  1.2091
 2193TIP3    H228215   4.244   2.245   2.078 -0.8053  0.0557 -1.1491
 2194TIP3   OH228216   3.225   3.789   0.153  0.2206  0.1281 -0.3638
 2194TIP3    H128217   3.170   3.716   0.179  1.5161 -0.6219  0.4047
 2194TIP3    H228218   3.243   3.775   0.060 -0.9697  0.4617 -0.6553
 2195TIP3   OH228219   5.294   1.752   7.669  0.6140  0.2747  0.1987
 2195TIP3    H128220   5.227   1.686   7.651 -0.1257  0.5788  1.6695
 2195TIP3    H228221   5.251   1.835   7.650  0.7940  0.4377  0.5037
 2196TIP3   OH228222   0.759   5.874   1.683  0.5277 -1.0195 -0.4781
 2196TIP3    H128223   0.840   5.924   1.698  0.7606 -1.6944  0.5943
 2196TIP3    H228224   0.689   5.938   1.698  0.8223  0.0731 -3.2241
 2197TIP3   OH228225   4.680   2.169   8.119  0.0581  0.2943 -0.3363
 2197TIP3    H128226   4.627   2.164   8.198 -0.4556 -0.0753 -0.7024
 2197TIP3    H228227   4.618   2.156   8.047  0.6254 -0.0805 -0.7682
 2198TIP3   OH228228   1.920   3.381   0.758  0.3523 -0.0412 -0.1967
 2198TIP3    H128229   1.951   3.455   0.810 -0.3809 -0.0962  0.3332
 2198TIP3    H228230   1.953   3.304   0.805 -0.7466 -0.1100  0.5153
 2199TIP3   OH228231   1.290   2.668   0.746 -0.0806 -0.9376  0.1883
 2199TIP3    H128232   1.327   2.756   0.735  1.1296 -1.5964 -1.5101
 2199TIP3    H228233   1.335   2.632   0.823 -0.1238 -0.3073  0.5148
 2200TIP3   OH228234   4.633   5.364   7.515  0.0211 -0.5321  0.2714
 2200TIP3    H128235   4.582   5.421   7.457  1.3807 -0.7730 -1.2311
 2200TIP3    H228236   4.722   5.370   7.482  0.5602 -1.9256  1.3756
 2201TIP3   OH228237   4.040   2.943   1.064 -0.3297  0.2032  0.5291
 2201TIP3    H128238   3.957   2.919   1.022  0.2771  0.0246 -0.6213
 2201TIP3    H228239   4.024   3.030   1.101 -0.8683  0.4214 -0.1859
 2202TIP3   OH228240   6.043   0.635   7.029 -0.0029  0.3436  0.0139
 2202TIP3    H128241   5.963   0.582   7.030  0.3264 -0.1892  2.4465
 2202TIP3    H228242   6.112   0.576   7.059  0.9326  1.3523 -0.0922
 2203TIP3   OH228243   4.441   6.909   6.659 -0.0476 -0.2077  0.5816
 2203TIP3    H128244   4.469   6.821   6.633  2.2638  0.6457 -0.0587
 2203TIP3    H228245   4.367   6.929   6.601  0.3633 -1.1451 -0.2921
 2204TIP3   OH228246   0.084   3.880   1.971  0.2717  0.1757  0.0211
 2204TIP3    H128247   0.077   3.785   1.964  0.9401  0.0510  0.8474
 2204TIP3    H228248   0.036   3.902   2.052 -1.2045  0.7291 -0.9648
 2205TIP3   OH228249   0.499   1.423   7.277 -0.0782 -0.5924  0.0322
 2205TIP3    H128250   0.526   1.336   7.245  0.0031 -0.7097  0.4153
 2205TIP3    H228251   0.571   1.450   7.335  0.7374  0.4862 -1.4114
 2206TIP3   OH228252   6.656   6.064   1.614  0.0619  0.2079 -0.2524
 2206TIP3    H128253   6.585   6.129   1.609  0.5897  0.7989 -0.2362
 2206TIP3    H228254   6.626   5.991   1.561 -0.9221  0.1013  0.4249
 2207TIP3   OH228255   5.879   2.492   1.099 -0.7586 -0.2129  0.1267
 2207TIP3    H128256   5.896   2.557   1.031  0.5085 -1.2883 -0.6439
 2207TIP3    H228257   5.833   2.421   1.053 -1.6748 -0.1000  0.8423
 2208TIP3   OH228258   4.284   2.095   2.232 -0.3385  0.0739  0.2991
 2208TIP3    H128259   4.317   2.057   2.151 -0.9570 -0.6276  0.3559
 2208TIP3    H228260   4.266   2.019   2.288  0.1390  0.5543  1.1156
 2209TIP3   OH228261   2.604   1.666   2.131  0.0957 -0.3484 -0.2861
 2209TIP3    H128262   2.596   1.591   2.190  0.2307  1.1934  1.7715
 2209TIP3    H228263   2.660   1.728   2.178 -0.8309  1.4789 -1.4861
 2210TIP3   OH228264   4.472   0.929   8.194 -0.3150 -0.5029  0.1826
 2210TIP3    H128265   4.499   0.919   8.285 -0.2280 -0.3210  0.1785
 2210TIP3    H228266   4.541   0.887   8.143 -0.1640 -0.2583  0.1833
 2211TIP3   OH228267   3.562   3.533   0.814 -0.1304 -0.3506  0.2373
 2211TIP3    H128268   3.480   3.572   0.845 -0.6787 -1.2160 -0.0697
 2211TIP3    H228269   3.549   3.524   0.720  0.3006 -0.5311  0.1952
 2212TIP3   OH228270   6.852   3.199   1.245 -0.0862 -0.3781  0.5816
 2212TIP3    H128271   6.861   3.246   1.328  2.0286  1.7029 -0.6939
 2212TIP3    H228272   6.801   3.258   1.189 -0.3290 -1.1392 -0.0214
 2213TIP3   OH228273   6.673   6.468   2.595 -0.2371 -0.6087 -0.3024
 2213TIP3    H128274   6.765   6.482   2.573 -0.1814 -0.4139  0.0558
 2213TIP3    H228275   6.641   6.409   2.526  1.0684 -3.6419  1.4963
 2214TIP3   OH228276   1.938   0.715   6.540 -0.2226  0.2029 -0.1041
 2214TIP3    H128277   1.996   0.787   6.565 -0.8196  0.4143  0.7059
 2214TIP3    H228278   1.926   0.726   6.446  1.5725 -0.2416 -0.4283
 2215TIP3   OH228279   2.715   5.032   7.217 -0.6714 -0.4597  0.0400
 2215TIP3    H128280   2.789   5.036   7.277 -0.6913  0.6287  0.0102
 2215TIP3    H228281   2.754   5.048   7.131 -1.2009  2.6269  0.2685
 2216TIP3   OH228282   1.838   1.874   7.933  0.3344 -0.2937 -0.2931
 2216TIP3    H128283   1.907   1.925   7.890  0.5472  0.0318  0.4246
 2216TIP3    H228284   1.773   1.858   7.864  2.3571 -2.9806 -1.7741
 2217TIP3   OH228285   0.191   5.216   1.045  0.8696  0.0700  0.5472
 2217TIP3    H128286   0.168   5.309   1.054  0.5975 -0.0801  1.6047
 2217TIP3    H228287   0.121   5.180   0.991  1.3271  0.6043 -0.4195
 2218TIP3   OH228288   4.973   2.010   7.825  0.8129  0.4924  0.0278
 2218TIP3    H128289   4.964   2.046   7.913 -0.2385 -0.7838  0.4822
 2218TIP3    H228290   4.918   2.065   7.771  0.0907  0.2509  0.5042
 2219TIP3   OH228291   1.889   1.303   8.385 -0.0314 -0.1150  0.5673
 2219TIP3    H128292   1.809   1.333   8.427  0.0646 -1.1454  1.5355
 2219TIP3    H228293   1.866   1.219   8.347  0.7879 -0.8486  1.6151
 2220TIP3   OH228294   5.203   2.360   1.938 -0.1658  0.0506  0.1167
 2220TIP3    H128295   5.174   2.298   2.005  2.1524  2.7958  4.0957
 2220TIP3    H228296   5.136   2.430   1.940  0.4450  0.6414  0.4288
 2221TIP3   OH228297   2.115   4.715   1.266 -0.3653 -0.1653 -0.2417
 2221TIP3    H128298   2.086   4.751   1.349  1.9232 -1.5615  1.2894
 2221TIP3    H228299   2.210   4.727   1.266  0.2078 -3.5940 -0.8267
 2222TIP3   OH228300   6.905   2.786   1.285 -0.3001 -0.3383  0.2697
 2222TIP3    H128301   6.898   2.780   1.380 -1.8712 -1.2014  0.1443
 2222TIP3    H228302   6.822   2.825   1.257  0.3971  0.4927 -0.7073
 2223TIP3   OH228303   3.454   6.729   1.751 -0.6182  0.1883  0.2361
 2223TIP3    H128304   3.467   6.673   1.828 -0.9465 -0.2669 -0.0337
 2223TIP3    H228305   3.540   6.766   1.734 -0.8845  1.6664  1.8566
 2224TIP3   OH228306   4.931   1.961   0.841 -0.1321  0.0498  0.1768
 2224TIP3    H128307   4.844   1.998   0.851  0.3832  1.2127  0.4524
 2224TIP3    H228308   4.949   1.967   0.747 -0.7326 -1.1362 -0.0400
 2225TIP3   OH228309   6.002   1.255   1.275  0.1486  0.1444  0.6606
 2225TIP3    H128310   6.052   1.173   1.270  1.2925  0.8279  0.3743
 2225TIP3    H228311   5.920   1.236   1.230  1.5046 -0.1023 -1.8968
 2226TIP3   OH228312   4.869   2.933   1.207 -0.3984  0.3971 -0.0613
 2226TIP3    H128313   4.920   2.872   1.153 -1.8680 -1.2543  0.3335
 2226TIP3    H228314   4.784   2.938   1.164 -1.3275 -0.3209  1.5880
 2227TIP3   OH228315   1.065   1.848   7.022 -0.4169 -0.3944  0.3218
 2227TIP3    H128316   0.975   1.875   7.005 -0.3407 -1.0402 -1.2901
 2227TIP3    H228317   1.057   1.770   7.077 -0.7535  0.6138  1.7459
 2228TIP3   OH228318   1.174   3.534   1.358 -0.0102 -0.2114  0.2389
 2228TIP3    H128319   1.172   3.629   1.373  0.8578  0.3868 -2.9062
 2228TIP3    H228320   1.144   3.497   1.442 -0.9889  2.8179  1.3805
 2229TIP3   OH228321   2.205   0.950   1.559 -0.2306  0.4962  0.1433
 2229TIP3    H128322   2.220   0.999   1.478  1.3369 -0.3218 -0.0929
 2229TIP3    H228323   2.194   1.018   1.625 -1.0252  1.1748 -0.6530
 2230TIP3   OH228324   2.676   5.767   8.157 -0.4422  0.2844 -0.1190
 2230TIP3    H128325   2.764   5.730   8.163 -0.5798 -0.1813 -0.8382
 2230TIP3    H228326   2.687   5.847   8.106 -0.2298  0.9715  0.9721
 2231TIP3   OH228327   2.643   5.827   6.711  0.0761  0.6043 -0.6984
 2231TIP3    H128328   2.601   5.757   6.662  0.8797  0.2031 -0.8313
 2231TIP3    H228329   2.672   5.889   6.643  0.4189  0.4758 -0.6707
 2232TIP3   OH228330   2.719   5.723   7.230 -0.5052 -0.2493 -0.0480
 2232TIP3    H128331   2.739   5.632   7.206  1.9130  0.5057 -1.2067
 2232TIP3    H228332   2.677   5.759   7.152 -2.3621 -0.5802  0.7559
 2233TIP3   OH228333   2.821   2.865   7.131  0.3542 -0.5487 -0.1953
 2233TIP3    H128334   2.749   2.820   7.087 -0.2735 -1.4383  1.6467
 2233TIP3    H228335   2.900   2.818   7.102  0.2880  0.5372 -2.3513
 2234TIP3   OH228336   1.463   2.278   1.047  0.3903  0.0638 -0.5191
 2234TIP3    H128337   1.438   2.203   0.993  3.4289 -0.5527 -1.2826
 2234TIP3    H228338   1.484   2.241   1.132 -0.6044  0.4589 -0.0941
 2235TIP3   OH228339   1.316   6.235   7.821 -0.4082  0.3491  0.3070
 2235TIP3    H128340   1.232   6.260   7.784  0.6153  0.5206 -2.1061
 2235TIP3    H228341   1.381   6.267   7.758  1.3443 -1.8791  0.8154
 2236TIP3   OH228342   1.477   2.248   1.814 -0.1800  0.0096  0.2001
 2236TIP3    H128343   1.385   2.274   1.813  0.5321  2.9014 -0.9517
 2236TIP3    H228344   1.495   2.222   1.724  0.9700  3.3628 -0.6872
 2237TIP3   OH228345   0.599   4.548   0.572 -0.3728 -0.2721 -0.1479
 2237TIP3    H128346   0.568   4.628   0.614  0.4253 -0.9850  1.8862
 2237TIP3    H228347   0.663   4.578   0.508  2.5022  0.6461  2.9125
 2238TIP3   OH228348   4.068   2.873   7.048 -0.2358  0.5438  0.5240
 2238TIP3    H128349   4.104   2.788   7.072  1.2772  0.9658 -0.1041
 2238TIP3    H228350   4.049   2.866   6.954 -0.5326  0.7629  0.5652
 2239TIP3   OH228351   0.765   5.121   7.850  0.4204  0.1525  0.2965
 2239TIP3    H128352   0.830   5.110   7.781  0.9743  1.8737  0.4820
 2239TIP3    H228353   0.777   5.046   7.907  1.4519 -0.1673 -0.3162
 2240TIP3   OH228354   1.927   4.555   0.705 -0.5803  0.1696 -0.0464
 2240TIP3    H128355   1.927   4.568   0.610 -1.4111 -0.1443 -0.0977
 2240TIP3    H228356   1.938   4.643   0.741  1.9179  0.1002 -0.4120
 2241TIP3   OH228357   5.458   1.168   1.733  0.4129  0.4048 -0.1751
 2241TIP3    H128358   5.482   1.147   1.824 -0.5827 -2.5989 -0.4926
 2241TIP3    H228359   5.541   1.163   1.685  0.5005 -1.6582  0.0673
 2242TIP3   OH228360   3.891   5.446   7.578  0.2054  0.1777 -0.0569
 2242TIP3    H128361   3.817   5.490   7.619  0.4353 -0.0709  0.6438
 2242TIP3    H228362   3.907   5.369   7.633  2.7878  1.7061  1.5188
 2243TIP3   OH228363   1.099   4.163   6.592  0.0206  0.3580 -0.7404
 2243TIP3    H128364   1.190   4.152   6.566  0.2273  1.2449 -0.4212
 2243TIP3    H228365   1.082   4.257   6.582 -0.7488  0.2529 -0.4643
 2244TIP3   OH228366   6.767   4.095   6.970  0.1455 -0.1823  0.2077
 2244TIP3    H128367   6.712   4.136   6.903 -0.3373  0.8093  1.1751
 2244TIP3    H228368   6.784   4.165   7.033  0.6231 -1.0771  1.1051
 2245TIP3   OH228369   6.864   2.154   7.961  0.1336 -0.1720 -0.3635
 2245TIP3    H128370   6.772   2.175   7.975  0.3634  1.3796 -0.8730
 2245TIP3    H228371   6.909   2.189   8.038  0.3527 -0.4285 -0.3721
 2246TIP3   OH228372   0.731   4.740   2.015  0.1586  0.3265  0.7910
 2246TIP3    H128373   0.797   4.809   2.018  0.5144  0.0300  0.0329
 2246TIP3    H228374   0.750   4.686   2.092  0.4252  0.5798  0.9067
 2247TIP3   OH228375   6.696   6.384   6.658 -0.3511  0.2945  0.2933
 2247TIP3    H128376   6.750   6.331   6.716 -0.6603  1.1507  1.3812
 2247TIP3    H228377   6.746   6.464   6.644  0.6546 -0.6665 -2.2815
 2248TIP3   OH228378   5.566   3.016   1.369 -0.3490 -0.5506  0.2261
 2248TIP3    H128379   5.515   2.990   1.445 -0.3295 -1.2322  0.0064
 2248TIP3    H228380   5.502   3.036   1.302 -0.4520  1.8140  0.9432
 2249TIP3   OH228381   6.118   6.536   7.738  0.1538 -0.5286  1.1855
 2249TIP3    H128382   6.077   6.571   7.659  1.2066  0.1895  0.9283
 2249TIP3    H228383   6.141   6.614   7.789  1.8349 -0.8373  0.9712
 2250TIP3   OH228384   4.802   3.658   1.065  0.6680  0.1267 -0.1898
 2250TIP3    H128385   4.744   3.685   0.994 -1.6344 -0.4963  1.3255
 2250TIP3    H228386   4.856   3.735   1.082 -2.9051  2.5804  1.3002
 2251TIP3   OH228387   2.514   1.356   7.145 -0.1310 -0.0632 -0.1244
 2251TIP3    H128388   2.545   1.445   7.161  2.6923 -1.3123  2.4464
 2251TIP3    H228389   2.530   1.342   7.051 -0.4203  2.0061 -0.5432
 2252TIP3   OH228390   3.575   3.584   2.382  0.0156  0.1470 -0.1719
 2252TIP3    H128391   3.582   3.488   2.385 -1.5591  0.0180 -0.0957
 2252TIP3    H228392   3.640   3.610   2.317 -0.1775 -1.0512 -0.8734
 2253TIP3   OH228393   1.477   2.586   7.109 -0.1045  0.4284 -0.1619
 2253TIP3    H128394   1.407   2.604   7.171 -0.8294  1.1142 -1.1604
 2253TIP3    H228395   1.543   2.539   7.161 -2.4419 -2.7781  0.1978
 2254TIP3   OH228396   5.625   2.968   1.035 -0.4419 -0.0289  0.6575
 2254TIP3    H128397   5.533   2.986   1.054 -1.0150 -1.4209 -0.5490
 2254TIP3    H228398   5.643   2.887   1.083 -0.4943 -0.8970 -0.7212
 2255TIP3   OH228399   4.834   1.138   7.290  0.4005  0.2056 -0.4677
 2255TIP3    H128400   4.762   1.077   7.271 -0.0506  0.9477 -1.1883
 2255TIP3    H228401   4.876   1.152   7.206  1.8290 -0.7312  0.0537
 2256TIP3   OH228402   6.944   5.328   5.944  0.0788  0.4274  0.2734
 2256TIP3    H128403   7.024   5.378   5.960 -0.5363  1.2551  0.8231
 2256TIP3    H228404   6.975   5.244   5.909  1.1532  0.9834 -0.1575
 2257TIP3   OH228405   5.965   4.656   0.571  0.1098 -0.0128  0.1935
 2257TIP3    H128406   6.016   4.717   0.623  0.0702 -0.9057  1.3319
 2257TIP3    H228407   5.963   4.576   0.624 -1.4007 -0.3932 -0.3950
 2258TIP3   OH228408   0.920   3.623   1.974  0.4000  0.0532  0.3250
 2258TIP3    H128409   0.980   3.609   2.047  0.4681 -0.5776  0.1540
 2258TIP3    H228410   0.845   3.668   2.013 -0.4090 -1.9349  1.1912
 2259TIP3   OH228411   1.676   0.775   0.169 -0.1316  0.3279 -0.3152
 2259TIP3    H128412   1.592   0.766   0.213  0.3286  0.9278  0.7547
 2259TIP3    H228413   1.726   0.699   0.198  0.3525  0.9907  0.6872
 2260TIP3   OH228414   2.276   0.007   1.863  0.0406 -0.0557 -0.0408
 2260TIP3    H128415   2.347   0.012   1.926 -0.3330 -0.2929  0.4006
 2260TIP3    H228416   2.235  -0.078   1.878 -2.2753  1.2416  1.8449
 2261TIP3   OH228417   4.219   2.401   1.337 -0.5247  0.3590  0.1534
 2261TIP3    H128418   4.253   2.438   1.419 -2.2979 -0.2878  1.2295
 2261TIP3    H228419   4.167   2.471   1.299  0.0187  0.5452 -0.2502
 2262TIP3   OH228420   0.445   2.442   7.335 -0.0771 -0.1410  0.6008
 2262TIP3    H128421   0.525   2.475   7.375  0.1878 -1.4207  1.1695
 2262TIP3    H228422   0.475   2.378   7.270 -0.5805  0.5416 -0.3272
 2263TIP3   OH228423   2.303   2.504   6.988  0.3244  0.0549  0.2075
 2263TIP3    H128424   2.227   2.458   7.025 -1.1282  0.8080 -1.6725
 2263TIP3    H228425   2.366   2.434   6.969 -1.0749 -0.9853 -0.8404
 2264TIP3   OH228426   1.575   1.435   0.814  0.1693 -0.1917 -0.4675
 2264TIP3    H128427   1.658   1.459   0.772  0.8247 -0.5308  0.6137
 2264TIP3    H228428   1.525   1.517   0.816  0.9085  0.2632 -0.1719
 2265TIP3   OH228429   1.362   4.148   6.539  0.4120  0.3222 -0.1059
 2265TIP3    H128430   1.439   4.129   6.592  0.5176  1.4191  0.1434
 2265TIP3    H228431   1.395   4.199   6.465  0.2031 -0.8394 -1.0371
 2266TIP3   OH228432   0.123   5.544   0.316  0.0226  0.1813  0.4929
 2266TIP3    H128433   0.046   5.578   0.361  1.1356  2.3118  0.9344
 2266TIP3    H228434   0.125   5.590   0.232  0.4385 -0.3541  0.2000
 2267TIP3   OH228435   5.909   0.493   7.757 -0.0245  0.0404  0.0923
 2267TIP3    H128436   5.990   0.543   7.763 -0.5275  0.9067 -0.0281
 2267TIP3    H228437   5.936   0.402   7.753  0.9031  0.2640  0.9162
 2268TIP3   OH228438   0.043   0.892   1.363  0.2310  0.5832 -0.1919
 2268TIP3    H128439  -0.027   0.885   1.299  0.7917  0.3800 -0.7947
 2268TIP3    H228440   0.021   0.827   1.430 -0.6224  1.1524  0.0919
 2269TIP3   OH228441   1.351   0.762   1.719  0.6037 -0.3654  0.0979
 2269TIP3    H128442   1.367   0.677   1.760 -0.4955  0.1915  1.7882
 2269TIP3    H228443   1.364   0.747   1.625  0.9973 -2.2431  0.4249
 2270TIP3   OH228444   3.366   4.502   6.970 -0.1266  0.6007  0.1053
 2270TIP3    H128445   3.410   4.444   7.032  0.4535  1.0030  0.0745
 2270TIP3    H228446   3.295   4.449   6.934 -0.0191  0.1319  0.5783
 2271TIP3   OH228447   3.242   6.718   0.386 -0.2424 -0.3873  0.1543
 2271TIP3    H128448   3.172   6.653   0.377 -0.4657 -0.1975  0.5123
 2271TIP3    H228449   3.197   6.803   0.383  0.2014 -0.1716 -1.8871
 2272TIP3   OH228450   0.369   0.837   0.540 -0.0998 -0.0797 -0.3549
 2272TIP3    H128451   0.359   0.894   0.463  0.2263  1.3128  0.5862
 2272TIP3    H228452   0.445   0.872   0.586  0.7049 -1.9152 -0.2222
 2273TIP3   OH228453   6.363   6.097   1.052 -0.6071  0.6905 -0.3450
 2273TIP3    H128454   6.437   6.059   1.003  1.0382  0.8467  1.8895
 2273TIP3    H228455   6.287   6.051   1.018  0.7637 -1.1306 -1.1442
 2274TIP3   OH228456   3.352   4.254   8.413  0.1296 -0.1368 -0.0996
 2274TIP3    H128457   3.317   4.208   8.489  2.2042 -1.0557  0.3537
 2274TIP3    H228458   3.426   4.304   8.447  0.0794  0.7563 -1.2336
 2275TIP3   OH228459   3.710   6.306   6.406  0.0753  0.2045 -0.0730
 2275TIP3    H128460   3.722   6.358   6.326 -0.6764  0.9272  0.2689
 2275TIP3    H228461   3.679   6.369   6.471 -1.4982 -0.7945  0.1791
 2276TIP3   OH228462   3.850   3.514   1.765 -0.0093 -0.0233 -0.4446
 2276TIP3    H128463   3.846   3.437   1.709  1.0942 -0.4288  0.0085
 2276TIP3    H228464   3.770   3.562   1.745 -1.3136 -1.8438  0.0595
 2277TIP3   OH228465   2.333   1.156   0.612 -0.0947  0.9088 -0.3599
 2277TIP3    H128466   2.297   1.207   0.540 -2.1647 -1.5517 -1.2108
 2277TIP3    H228467   2.398   1.213   0.652  0.0852  2.9061 -3.2573
 2278TIP3   OH228468   5.626   5.482   0.284  0.5133 -0.4278 -0.2622
 2278TIP3    H128469   5.653   5.540   0.214  1.7007 -1.1154 -0.3987
 2278TIP3    H228470   5.583   5.409   0.239  0.5047 -0.4572 -0.2067
 2279TIP3   OH228471   6.070   2.569   1.431  0.2514  0.2247  0.2348
 2279TIP3    H128472   5.990   2.615   1.456  0.4764  0.3710  0.6782
 2279TIP3    H228473   6.045   2.476   1.432  0.1292  0.2602  0.5147
 2280TIP3   OH228474   3.623   0.336   1.274 -0.3789 -0.0035  0.6676
 2280TIP3    H128475   3.540   0.325   1.320 -1.1487  1.9016 -0.1404
 2280TIP3    H228476   3.631   0.431   1.261  1.0211 -0.2812 -0.8904
 2281TIP3   OH228477   3.072   5.099   8.374 -0.7588 -0.2078 -0.5247
 2281TIP3    H128478   3.087   5.156   8.449  0.2907 -1.3073  0.1320
 2281TIP3    H228479   3.126   5.022   8.391 -0.6154 -0.5503 -2.3413
 2282TIP3   OH228480   4.009   4.755   0.741  0.1605 -0.0116 -0.8616
 2282TIP3    H128481   4.084   4.789   0.789  1.3968  0.2631 -2.8404
 2282TIP3    H228482   3.957   4.708   0.806  1.3675  0.8874  0.8241
 2283TIP3   OH228483   5.536   5.690   0.520  0.4668  0.1024 -0.0483
 2283TIP3    H128484   5.498   5.762   0.469 -0.6289  0.6839  1.4856
 2283TIP3    H228485   5.541   5.617   0.460 -1.1210  0.6477 -0.8955
 2284TIP3   OH228486   4.479   5.678   8.055 -0.1299 -0.1476  0.1774
 2284TIP3    H128487   4.565   5.720   8.054 -1.0611  1.8730  0.3495
 2284TIP3    H228488   4.442   5.698   7.969 -1.4990  1.4444  1.0769
 2285TIP3   OH228489   4.164   1.556   6.856  0.6511  0.2892  0.0898
 2285TIP3    H128490   4.081   1.555   6.807  1.1761 -2.0548 -0.8995
 2285TIP3    H228491   4.153   1.487   6.922  1.9513 -0.3291 -0.3198
 2286TIP3   OH228492   5.174   0.376   2.309  0.8718 -0.2074  0.0768
 2286TIP3    H128493   5.162   0.406   2.400 -0.6593  0.3159 -0.2722
 2286TIP3    H228494   5.267   0.353   2.304  1.4610  1.7105  1.1948
 2287TIP3   OH228495   0.510   0.722   6.961  0.5963  0.3360 -0.6721
 2287TIP3    H128496   0.473   0.783   7.025  0.3469 -0.5127  0.0040
 2287TIP3    H228497   0.449   0.724   6.887 -1.5102 -1.8970  0.8791
 2288TIP3   OH228498   6.465   3.594   0.442 -0.0476 -0.3301  0.0573
 2288TIP3    H128499   6.560   3.590   0.452 -0.1646 -0.7106  1.0799
 2288TIP3    H228500   6.452   3.613   0.349  1.0459  1.3686  0.2213
 2289TIP3   OH228501   6.768   2.563   8.441  0.1056  0.5586 -0.1745
 2289TIP3    H128502   6.734   2.618   8.512 -1.9016 -0.6442 -0.1368
 2289TIP3    H228503   6.856   2.597   8.426 -0.2771  2.4037  1.2558
 2290TIP3   OH228504   4.898   1.284   7.676 -0.0112 -0.2744  0.1988
 2290TIP3    H128505   4.978   1.322   7.712 -0.4790  0.1833  0.7716
 2290TIP3    H228506   4.830   1.308   7.739 -0.6839 -0.2437 -0.5355
 2291TIP3   OH228507   0.320   5.094   6.056  0.3899  0.0985 -0.4891
 2291TIP3    H128508   0.331   5.147   6.134 -2.6409  1.9547 -1.1599
 2291TIP3    H228509   0.263   5.022   6.083 -1.4895  1.2855 -1.0839
 2292TIP3   OH228510   3.505   5.166   0.127  0.2503 -0.4110  0.5199
 2292TIP3    H128511   3.444   5.237   0.147  0.3430  0.1384 -0.9842
 2292TIP3    H228512   3.460   5.115   0.059  1.5220  0.1434 -0.7850
 2293TIP3   OH228513   2.841   3.421   2.038  0.3148 -0.1129  0.3199
 2293TIP3    H128514   2.769   3.369   2.004 -0.0505  0.6966 -0.1743
 2293TIP3    H228515   2.809   3.511   2.038  1.2594  0.2421  0.2470
 2294TIP3   OH228516   1.193   4.535   7.247 -0.2740  0.7208 -0.2110
 2294TIP3    H128517   1.255   4.491   7.190  0.4876 -1.9518  2.4341
 2294TIP3    H228518   1.114   4.481   7.242 -0.0903  0.2642  1.4029
 2295TIP3   OH228519   3.852   6.757   8.147 -0.1823  0.5411  0.1156
 2295TIP3    H128520   3.905   6.697   8.199 -0.6777 -0.1159 -0.1226
 2295TIP3    H228521   3.845   6.836   8.200  0.2806  0.2975  0.5388
 2296TIP3   OH228522   3.318   3.727   2.204  0.2682 -0.1972  0.0913
 2296TIP3    H128523   3.406   3.741   2.241  0.8092 -0.1295 -1.1574
 2296TIP3    H228524   3.329   3.654   2.143 -1.0596 -1.7094  1.5674
 2297TIP3   OH228525   6.033   2.170   1.125 -0.1116  0.0350  0.5720
 2297TIP3    H128526   6.066   2.086   1.157 -0.0120  0.1562  0.7888
 2297TIP3    H228527   6.107   2.211   1.082 -0.4865 -0.5388 -0.6667
 2298TIP3   OH228528   5.726   1.231   2.356  0.0534  0.3819  0.0502
 2298TIP3    H128529   5.778   1.203   2.281  3.0315 -0.6055  2.2848
 2298TIP3    H228530   5.779   1.207   2.432 -3.9102 -1.0948  2.6633
 2299TIP3   OH228531   0.039   2.495   7.942  0.3470  0.5434  0.0413
 2299TIP3    H128532  -0.035   2.466   7.995  1.2645 -1.7067  0.1752
 2299TIP3    H228533   0.001   2.561   7.883 -0.8112  2.7132  2.9969
 2300TIP3   OH228534   5.550   6.424   0.018 -0.5944 -0.4971 -0.1898
 2300TIP3    H128535   5.563   6.512   0.055 -1.2228 -0.6386  0.3912
 2300TIP3    H228536   5.460   6.402   0.041 -0.2134 -1.5932  0.3161
 2301TIP3   OH228537   6.951   6.530   7.688  0.1785  0.2438 -0.4020
 2301TIP3    H128538   7.029   6.475   7.682 -0.1760 -0.5182  1.3766
 2301TIP3    H228539   6.892   6.496   7.621  0.6312 -0.4494 -0.4569
 2302TIP3   OH228540   5.450   0.185   6.647 -0.1596  0.4290 -0.6529
 2302TIP3    H128541   5.377   0.241   6.674 -0.4838  0.7384 -2.0873
 2302TIP3    H228542   5.410   0.119   6.590  0.4643 -0.3415 -0.2224
 2303TIP3   OH228543   5.440   5.640   7.546 -0.5549 -0.2244  0.1402
 2303TIP3    H128544   5.498   5.566   7.533 -1.7365 -1.7326  2.7718
 2303TIP3    H228545   5.352   5.602   7.550 -1.4238  1.5868 -0.4893
 2304TIP3   OH228546   1.552   6.399   6.271  0.2242 -0.4869 -0.5189
 2304TIP3    H128547   1.589   6.381   6.357  0.9929 -0.5765 -0.8624
 2304TIP3    H228548   1.457   6.389   6.283  0.2087  0.7180  0.6101
 2305TIP3   OH228549   1.662   3.468   6.627  0.2167 -0.1031 -0.9111
 2305TIP3    H128550   1.734   3.526   6.655  0.7913 -0.7464 -1.0296
 2305TIP3    H228551   1.583   3.521   6.639  0.6885  0.5451 -0.5731
 2306TIP3   OH228552   6.416   0.987   1.474  0.4611  0.2728  0.0439
 2306TIP3    H128553   6.335   1.011   1.430 -0.6617 -2.0249  0.6837
 2306TIP3    H228554   6.442   1.066   1.521  0.5213  2.1190 -2.8885
 2307TIP3   OH228555   4.135   3.072   6.608 -0.3925  0.1025 -0.6329
 2307TIP3    H128556   4.088   3.155   6.606 -0.7424 -0.0577  0.5153
 2307TIP3    H228557   4.130   3.040   6.518 -0.7183  1.0601 -0.9691
 2308TIP3   OH228558   3.143   0.267   7.776  0.6030  0.4049 -0.3298
 2308TIP3    H128559   3.125   0.226   7.691  0.2091  1.6447 -0.8806
 2308TIP3    H228560   3.228   0.310   7.764  2.7418 -2.9849  1.3262
 2309TIP3   OH228561   2.693   5.971   1.497 -0.1204  0.6131  0.5486
 2309TIP3    H128562   2.611   5.957   1.543  0.1977 -0.0273  0.9301
 2309TIP3    H228563   2.697   6.066   1.483 -1.2734  0.5716 -0.1495
 2310TIP3   OH228564   5.937   6.537   0.117  0.2232 -0.6618  0.5753
 2310TIP3    H128565   5.937   6.580   0.202 -1.3943  1.0464 -0.2031
 2310TIP3    H228566   5.913   6.447   0.136 -0.4489 -0.2358  1.9092
 2311TIP3   OH228567   3.818   5.719   0.520 -0.2393  0.4406 -0.4728
 2311TIP3    H128568   3.756   5.760   0.459 -0.1044  2.0168  0.3940
 2311TIP3    H228569   3.801   5.625   0.512 -2.1191  0.7749 -0.9291
 2312TIP3   OH228570   4.831   3.426   7.157  0.0316  0.2076 -0.0673
 2312TIP3    H128571   4.844   3.462   7.069 -0.3113 -0.6156 -0.4679
 2312TIP3    H228572   4.916   3.435   7.200  0.2766  0.3559 -0.5825
 2313TIP3   OH228573   4.081   4.369   6.485 -0.0621  0.0769  0.1068
 2313TIP3    H128574   4.088   4.305   6.414 -0.3250  0.1797 -0.0117
 2313TIP3    H228575   4.156   4.350   6.542 -0.6232 -0.9025  0.5429
 2314TIP3   OH228576   2.783   2.990   8.240 -0.0279  0.0173  0.2871
 2314TIP3    H128577   2.786   2.901   8.206 -0.7258  0.4575 -1.0084
 2314TIP3    H228578   2.721   2.986   8.313 -0.9294 -0.3664 -0.4709
 2315TIP3   OH228579   1.971   5.086   8.242 -0.0153 -0.5058 -0.9396
 2315TIP3    H128580   1.960   4.996   8.211  0.5098 -1.2648  0.9158
 2315TIP3    H228581   2.039   5.080   8.309 -0.8005  1.0726  0.0601
 2316TIP3   OH228582   5.005   5.149   0.328 -1.4048  0.1701 -0.1328
 2316TIP3    H128583   4.912   5.125   0.325 -1.5003  0.4291  0.5128
 2316TIP3    H228584   5.011   5.211   0.401 -0.4776 -0.9525  0.7770
 2317TIP3   OH228585   6.525   4.044   1.407 -0.4194  0.1061  0.0069
 2317TIP3    H128586   6.435   4.050   1.374 -0.7655 -0.7619  0.7539
 2317TIP3    H228587   6.530   4.115   1.472 -0.4450  0.3935 -0.3030
 2318TIP3   OH228588   4.861   2.291   8.402 -0.0999  0.1661  0.4258
 2318TIP3    H128589   4.928   2.316   8.338 -0.0175  0.9311  0.8088
 2318TIP3    H228590   4.778   2.316   8.361  0.0879  5.0850  2.4150
 2319TIP3   OH228591   5.535   2.271   7.656  0.0711 -0.2807 -0.3071
 2319TIP3    H128592   5.451   2.290   7.699 -1.1643 -1.9818 -1.8144
 2319TIP3    H228593   5.596   2.259   7.728 -0.7694  1.7347  0.8264
 2320TIP3   OH228594   0.268   3.536   6.928 -0.2708 -0.2685 -0.3576
 2320TIP3    H128595   0.309   3.465   6.878 -0.9003  0.5482 -2.1232
 2320TIP3    H228596   0.337   3.565   6.988  0.4974 -1.3579 -0.6729
 2321TIP3   OH228597   4.876   0.373   8.443  0.1001 -0.1316 -0.2689
 2321TIP3    H128598   4.902   0.342   8.530  1.6044 -1.2438 -1.0822
 2321TIP3    H228599   4.821   0.450   8.461  1.4971  0.4991  1.6480
 2322TIP3   OH228600   6.286   1.144   8.293  0.0618 -0.1434  0.0566
 2322TIP3    H128601   6.377   1.150   8.264  0.6452 -0.3229  1.7432
 2322TIP3    H228602   6.234   1.156   8.213  1.5214  1.7798 -0.6785
 2323TIP3   OH228603   3.362   3.928   0.911 -0.8445  0.1825 -1.0746
 2323TIP3    H128604   3.419   4.001   0.935  1.4895 -2.0129  0.5338
 2323TIP3    H228605   3.397   3.897   0.828  0.8083 -1.4740  0.1481
 2324TIP3   OH228606   6.837   4.925   1.538 -0.0996 -0.0165 -0.0281
 2324TIP3    H128607   6.875   5.010   1.559  0.5439 -0.0374 -1.0511
 2324TIP3    H228608   6.771   4.944   1.472 -0.4934 -0.2258  0.3022
 2325TIP3   OH228609   3.761   4.666   6.254 -0.6238  0.4373  0.3377
 2325TIP3    H128610   3.754   4.581   6.210 -0.7839  0.8656 -0.4858
 2325TIP3    H228611   3.670   4.690   6.273 -0.5566  0.2727  0.8667
 2326TIP3   OH228612   4.118   0.886   0.471  0.0241 -0.0481  0.6154
 2326TIP3    H128613   4.038   0.861   0.518  0.3775 -1.0290  0.7247
 2326TIP3    H228614   4.088   0.948   0.404 -0.7777 -0.1328  0.8821
 2327TIP3   OH228615   2.403   3.245   0.176 -0.3742  0.3248 -0.5233
 2327TIP3    H128616   2.497   3.232   0.172 -0.4704 -0.1391 -2.1900
 2327TIP3    H228617   2.369   3.169   0.222  0.0129  0.1253 -0.5647
 2328TIP3   OH228618   2.870   1.619   0.776  0.1966 -0.4470  0.4620
 2328TIP3    H128619   2.908   1.565   0.707 -1.1711 -0.7697 -0.0640
 2328TIP3    H228620   2.929   1.694   0.783  0.2934 -0.3511 -1.1355
 2329TIP3   OH228621   3.458   6.423   0.397  0.1483 -0.2023 -0.2960
 2329TIP3    H128622   3.387   6.378   0.350  1.4834 -2.0396 -0.6931
 2329TIP3    H228623   3.513   6.459   0.327  0.0506  0.4964 -0.0153
 2330TIP3   OH228624   6.489   1.771   7.017  0.9024  0.0152  1.0168
 2330TIP3    H128625   6.424   1.760   6.947  0.6907 -0.7477  1.3254
 2330TIP3    H228626   6.439   1.803   7.091  0.9840  0.0261  1.0675
 2331TIP3   OH228627   0.413   4.895   5.568 -0.0667  0.4269 -0.5847
 2331TIP3    H128628   0.495   4.886   5.518  0.2988  0.0881  0.0578
 2331TIP3    H228629   0.437   4.948   5.644  0.0214 -1.1880  0.5747
 2332TIP3   OH228630   5.986   1.876   7.767  0.7108 -0.2629  0.4216
 2332TIP3    H128631   5.938   1.819   7.707  0.6893 -1.1593  1.2618
 2332TIP3    H228632   6.007   1.819   7.842  4.2248 -0.3258 -0.4247
 2333TIP3   OH228633   1.572   1.810   2.034  0.1982  0.4602  0.2623
 2333TIP3    H128634   1.648   1.799   2.090  1.2176  0.4407 -1.0602
 2333TIP3    H228635   1.509   1.860   2.086  1.1073  0.4574  1.3805
 2334TIP3   OH228636   0.175   0.326   1.010  0.2327 -0.6212 -0.2003
 2334TIP3    H128637   0.215   0.405   0.975 -1.3510  0.7601  0.9343
 2334TIP3    H228638   0.213   0.316   1.098 -1.0475  0.1035  0.4706
 2335TIP3   OH228639   4.842   0.282   7.045 -0.0456  0.6330 -0.3110
 2335TIP3    H128640   4.845   0.347   6.974 -0.1277  2.9876  1.7089
 2335TIP3    H228641   4.927   0.238   7.041 -0.3858  0.0782 -2.3916
 2336TIP3   OH228642   1.226   6.340   0.855  0.0665 -0.0594 -0.0385
 2336TIP3    H128643   1.207   6.389   0.935  4.0584 -0.3280  1.2510
 2336TIP3    H228644   1.242   6.407   0.789  0.7796  0.3012  0.4842
 2337TIP3   OH228645   0.450   1.563   0.903  0.3304 -0.2757  0.2645
 2337TIP3    H128646   0.447   1.621   0.827  2.1799 -0.3371  0.1076
 2337TIP3    H228647   0.543   1.547   0.918 -0.0714 -1.8421  1.3553
 2338TIP3   OH228648   6.491   0.125   8.264 -0.4935 -0.4311 -0.1572
 2338TIP3    H128649   6.538   0.171   8.333  1.1878 -0.6420 -1.1005
 2338TIP3    H228650   6.538   0.148   8.184 -2.7032  0.2530 -1.3432
 2339TIP3   OH228651   1.336   4.438   7.025  0.0611 -0.1748 -0.4895
 2339TIP3    H128652   1.342   4.346   7.002  1.2913 -0.5111  1.0090
 2339TIP3    H228653   1.427   4.470   7.024 -0.1467  0.5439  0.7267
 2340TIP3   OH228654   2.805   3.759   0.226 -0.1578 -0.3278 -0.1312
 2340TIP3    H128655   2.760   3.689   0.178 -1.1326 -0.0296  0.3278
 2340TIP3    H228656   2.781   3.746   0.317  0.4752  0.0028  0.0894
 2341TIP3   OH228657   1.462   4.387   0.560 -0.0052 -0.2556 -0.0200
 2341TIP3    H128658   1.516   4.358   0.486  0.1485 -0.2372  0.0830
 2341TIP3    H228659   1.409   4.458   0.525 -0.7528 -0.9829 -0.4076
 2342TIP3   OH228660   5.302   1.101   6.649 -0.3731  0.0375 -1.3954
 2342TIP3    H128661   5.354   1.030   6.613  0.9408  0.4814 -0.4282
 2342TIP3    H228662   5.353   1.134   6.723 -2.1982  0.2417 -0.1548
 2343TIP3   OH228663   1.239   1.983   8.096 -0.1287  0.2265  0.4142
 2343TIP3    H128664   1.324   1.967   8.056 -0.1325  0.5810  0.2615
 2343TIP3    H228665   1.247   1.947   8.185  0.4968  1.1186  0.7265
 2344TIP3   OH228666   1.728   0.134   6.354  0.1414  0.0982 -0.4493
 2344TIP3    H128667   1.779   0.169   6.281  1.5589 -0.0677  0.4440
 2344TIP3    H228668   1.693   0.212   6.397  1.8785  0.3924  0.5161
 2345TIP3   OH228669   6.819   1.974   2.068  0.1381  0.1780  0.1429
 2345TIP3    H128670   6.862   1.995   1.985  3.4120  0.3297  1.7035
 2345TIP3    H228671   6.785   2.058   2.099  0.4746  0.4678 -0.2594
 2346TIP3   OH228672   5.052   6.517   7.409  0.4365  0.2295 -0.1977
 2346TIP3    H128673   5.139   6.493   7.377 -0.1424  0.4729 -2.0753
 2346TIP3    H228674   5.030   6.597   7.361 -0.4816  0.6665  0.9034
 2347TIP3   OH228675   5.240   3.642   1.095  0.2566 -0.5945  0.4017
 2347TIP3    H128676   5.275   3.625   1.008 -0.0229  0.1732  0.1321
 2347TIP3    H228677   5.163   3.586   1.101 -0.9727  0.8967 -0.6875
 2348TIP3   OH228678   4.944   0.875   2.590  0.0914 -0.0194 -0.2916
 2348TIP3    H128679   4.929   0.968   2.569  0.2728  0.2253  0.5886
 2348TIP3    H228680   5.028   0.875   2.635 -0.4094 -0.4539  0.6710
 2349TIP3   OH228681   5.102   2.095   0.137  0.4067 -0.2068  0.1907
 2349TIP3    H128682   5.076   2.182   0.167 -0.3930 -0.4234  0.1424
 2349TIP3    H228683   5.178   2.073   0.191 -0.5704 -0.2935  1.5632
 2350TIP3   OH228684   6.681   2.330   7.478  0.5256 -0.6752  0.7702
 2350TIP3    H128685   6.627   2.256   7.449  0.9457 -1.8770  2.8827
 2350TIP3    H228686   6.618   2.394   7.511  0.2531 -0.7184  0.3570
 2351TIP3   OH228687   6.509   0.159   1.548 -0.5267 -0.4116  0.4999
 2351TIP3    H128688   6.473   0.175   1.461  2.0945  0.6969 -0.4862
 2351TIP3    H228689   6.459   0.084   1.581 -1.1769 -1.2886 -2.1963
 2352TIP3   OH228690   5.136   1.062   8.278  0.1036 -0.0787 -0.2899
 2352TIP3    H128691   5.138   1.052   8.183 -1.3218 -2.8501 -0.1052
 2352TIP3    H228692   5.199   0.998   8.311  0.3512  0.6307  0.6823
 2353TIP3   OH228693   5.952   0.788   1.758  0.2583  0.2352 -0.0890
 2353TIP3    H128694   5.880   0.829   1.711 -0.7264 -1.5094 -0.2158
 2353TIP3    H228695   6.004   0.860   1.793 -2.8500  1.6194  2.0175
 2354TIP3   OH228696   1.228   5.561   0.871 -0.5490  0.2836 -0.3755
 2354TIP3    H128697   1.173   5.557   0.793 -0.6838 -2.0722 -0.2432
 2354TIP3    H228698   1.274   5.645   0.865 -0.4341  0.0933 -3.0536
 2355TIP3   OH228699   2.312   1.512   7.286  0.3469  0.3442  0.2492
 2355TIP3    H128700   2.291   1.557   7.204 -2.5808 -1.0887  0.0842
 2355TIP3    H228701   2.361   1.435   7.259 -1.7763 -0.8649 -0.4296
 2356TIP3   OH228702   0.748   6.622   1.431 -0.5869  0.1530 -0.0866
 2356TIP3    H128703   0.673   6.679   1.414 -0.7698 -0.2507 -0.6716
 2356TIP3    H228704   0.757   6.570   1.351 -0.5486 -0.7785  0.5173
 2357TIP3   OH228705   0.483   5.560   1.946 -0.3930 -0.0193 -0.0151
 2357TIP3    H128706   0.524   5.638   1.983 -0.8539  0.4417 -0.4695
 2357TIP3    H228707   0.413   5.538   2.008 -1.3063  0.8795 -0.6955
 2358TIP3   OH228708   6.414   2.707   1.131  0.5940  0.4178  0.2007
 2358TIP3    H128709   6.334   2.739   1.090  0.2951 -0.1846  0.3082
 2358TIP3    H228710   6.484   2.735   1.072  0.2806  0.7025 -0.0360
 2359TIP3   OH228711   0.835   6.408   2.059  0.8024 -0.3971  0.2153
 2359TIP3    H128712   0.926   6.406   2.088  0.4552  0.7852  1.4478
 2359TIP3    H228713   0.797   6.327   2.093  1.5514 -1.2828 -0.9622
 2360TIP3   OH228714   0.983   5.527   0.761 -0.2730  0.1245 -0.4329
 2360TIP3    H128715   0.972   5.509   0.668  0.5255 -1.5187 -0.2454
 2360TIP3    H228716   0.930   5.461   0.805 -1.2269  1.3367  0.3024
 2361TIP3   OH228717   0.147   4.646   0.697 -0.5009  0.1815 -0.1499
 2361TIP3    H128718   0.163   4.602   0.613  0.2570 -0.4311  0.2952
 2361TIP3    H228719   0.215   4.611   0.754  1.0327  2.9661 -0.1258
 2362TIP3   OH228720   3.595   6.349   6.959 -0.0955  0.1621 -0.1065
 2362TIP3    H128721   3.550   6.430   6.983 -0.7691 -0.3948  0.5753
 2362TIP3    H228722   3.655   6.374   6.889 -1.5289  0.9230 -1.1079
 2363TIP3   OH228723   0.062   6.361   6.794 -0.2597 -0.1410  0.3031
 2363TIP3    H128724   0.032   6.450   6.779 -0.3872 -0.4276 -1.3003
 2363TIP3    H228725  -0.017   6.312   6.813 -0.5544 -0.4156 -1.4962
 2364TIP3   OH228726   1.329   2.143   0.123  0.1576  0.0687  0.2348
 2364TIP3    H128727   1.349   2.223   0.074  0.9169  0.9526  1.9057
 2364TIP3    H228728   1.411   2.094   0.122  0.0281 -0.1456  0.1793
 2365TIP3   OH228729   3.573   3.857   8.250  0.7324  0.5154 -0.2638
 2365TIP3    H128730   3.544   3.937   8.207 -0.8486  0.8322  1.2745
 2365TIP3    H228731   3.493   3.815   8.281  1.5058 -1.7599 -1.1217
 2366TIP3   OH228732   4.199   4.282   0.536 -0.0235 -0.4191 -0.5021
 2366TIP3    H128733   4.123   4.228   0.555  1.2581 -2.2056 -0.2430
 2366TIP3    H228734   4.221   4.323   0.620  0.1794 -1.0680 -0.2365
 2367TIP3   OH228735   6.573   1.886   8.013  0.3656  0.1488  0.0563
 2367TIP3    H128736   6.538   1.824   7.948  0.4538 -1.4721  1.4774
 2367TIP3    H228737   6.666   1.866   8.017  0.0407 -1.3116  2.1603
 2368TIP3   OH228738   4.597   3.200   7.015 -0.5217 -0.2666 -0.4540
 2368TIP3    H128739   4.677   3.238   6.979 -0.6848 -1.2582 -1.9110
 2368TIP3    H228740   4.526   3.237   6.962 -1.0414  0.3709  0.6318
 2369TIP3   OH228741   4.140   2.189   1.793 -0.6567  0.0906 -0.2222
 2369TIP3    H128742   4.219   2.243   1.800 -0.4870 -0.2513  0.5460
 2369TIP3    H228743   4.138   2.161   1.701  0.2303 -0.0695 -0.2003
 2370TIP3   OH228744   0.726   2.305   6.943 -0.7427 -0.2312  0.0834
 2370TIP3    H128745   0.745   2.347   6.859 -0.4694  1.4066  0.9184
 2370TIP3    H228746   0.632   2.288   6.940 -0.6133 -0.8747 -0.8350
 2371TIP3   OH228747   3.882   1.409   8.125  0.1796  0.0984 -0.3462
 2371TIP3    H128748   3.930   1.490   8.109  1.2604 -0.3465  0.5185
 2371TIP3    H228749   3.809   1.412   8.064 -0.2885  2.1191  0.2514
 2372TIP3   OH228750   1.855   0.324   6.677  0.6038 -0.2164  0.1676
 2372TIP3    H128751   1.783   0.353   6.621  0.4750 -1.3091 -0.2646
 2372TIP3    H228752   1.816   0.262   6.738  0.8826  0.4280  1.0146
 2373TIP3   OH228753   0.478   6.745   2.045 -0.0075 -0.3047  0.9991
 2373TIP3    H128754   0.464   6.675   1.980  0.4551  2.3092 -2.1598
 2373TIP3    H228755   0.390   6.765   2.077 -0.1893 -1.9777  1.6779
 2374TIP3   OH228756   0.200   5.937   7.887 -0.6693  0.1618 -0.5054
 2374TIP3    H128757   0.169   5.974   7.804 -2.0926  1.8389  0.6982
 2374TIP3    H228758   0.132   5.874   7.911 -0.0147 -0.6800 -0.8195
 2375TIP3   OH228759   1.477   6.113   7.422  0.3295  0.0223 -0.1418
 2375TIP3    H128760   1.462   6.054   7.347 -2.7204  0.5322 -0.0496
 2375TIP3    H228761   1.568   6.096   7.448  0.3734 -2.7445 -1.7299
 2376TIP3   OH228762   0.767   3.632   2.628  0.1885  0.1716 -0.3041
 2376TIP3    H128763   0.860   3.644   2.647 -0.0625  1.0325  0.4755
 2376TIP3    H228764   0.748   3.543   2.658  0.2553  0.8103  1.8323
 2377TIP3   OH228765   2.928   3.836   1.855 -0.4600 -0.0161  0.0393
 2377TIP3    H128766   2.978   3.868   1.930 -1.3897  2.0311 -0.1682
 2377TIP3    H228767   2.989   3.779   1.808  0.6001 -0.1609  1.5416
 2378TIP3   OH228768   4.857   0.418   7.785  0.0676 -0.0108  0.2689
 2378TIP3    H128769   4.848   0.397   7.691  1.3100 -1.7824  0.4948
 2378TIP3    H228770   4.943   0.384   7.809  0.2115  1.3687  1.8457
 2379TIP3   OH228771   2.777   2.090   8.335 -0.6640  0.5852  0.2200
 2379TIP3    H128772   2.767   2.093   8.239  0.2408  1.0419  0.1260
 2379TIP3    H228773   2.744   2.004   8.360  2.8890 -1.3675 -1.0177
 2380TIP3   OH228774   0.844   0.950   8.267  0.1456 -0.3935  0.0519
 2380TIP3    H128775   0.836   0.860   8.236  2.2453 -0.0313 -1.7418
 2380TIP3    H228776   0.906   0.945   8.340 -0.4472 -0.4988  0.5571
 2381TIP3   OH228777   0.083   2.489   6.293  0.1520 -0.0820  0.1209
 2381TIP3    H128778   0.102   2.563   6.236  0.1216 -0.3051 -0.1832
 2381TIP3    H228779   0.160   2.433   6.286  0.5787  0.3618  1.0729
 2382TIP3   OH228780   2.388   0.107   0.331 -0.4048 -0.2220  0.0725
 2382TIP3    H128781   2.358   0.088   0.420 -2.5738  1.5192 -0.2144
 2382TIP3    H228782   2.307   0.115   0.280  0.6401  1.9479 -1.3782
 2383TIP3   OH228783   5.239   6.388   0.303 -0.1823  0.1866 -0.1237
 2383TIP3    H128784   5.297   6.420   0.372  1.1417  0.2166 -1.2279
 2383TIP3    H228785   5.227   6.295   0.324  2.5394 -0.5477 -1.3504
 2384TIP3   OH228786   5.082   6.606   1.826  0.4059 -0.1185 -0.4667
 2384TIP3    H128787   5.113   6.541   1.889  0.8247  0.5571  0.0432
 2384TIP3    H228788   5.079   6.688   1.876 -0.9451  0.1001 -0.8629
 2385TIP3   OH228789   4.712   5.873   1.214  0.6206 -0.4893  0.0771
 2385TIP3    H128790   4.744   5.947   1.162 -0.8884 -0.5904 -1.0870
 2385TIP3    H228791   4.734   5.796   1.163  3.4793 -1.0735  1.9587
 2386TIP3   OH228792   6.238   2.432   7.023  0.0914  0.0720 -0.3074
 2386TIP3    H128793   6.187   2.488   7.081  0.0109  0.4961 -0.7848
 2386TIP3    H228794   6.265   2.489   6.952  0.3252 -0.4096 -0.6105
 2387TIP3   OH228795   3.535   2.168   1.113  0.1679  0.4809 -0.1768
 2387TIP3    H128796   3.441   2.155   1.096  0.5128 -0.7272 -1.4120
 2387TIP3    H228797   3.540   2.251   1.160 -1.6800 -0.3305  1.5966
 2388TIP3   OH228798   3.976   1.553   1.297 -0.1918  0.2894 -0.3928
 2388TIP3    H128799   3.941   1.559   1.386  0.8906 -1.9943  0.2435
 2388TIP3    H228800   4.068   1.581   1.305 -0.0750  0.0290 -0.7857
 2389TIP3   OH228801   0.386   2.871   6.313  0.3023  0.2353  0.2208
 2389TIP3    H128802   0.423   2.783   6.309 -0.5247 -0.0734 -1.1718
 2389TIP3    H228803   0.295   2.860   6.288 -0.4250  1.1856  2.2440
 2390TIP3   OH228804   1.256   0.649   0.863 -0.9974  0.1565 -0.2619
 2390TIP3    H128805   1.269   0.559   0.893 -1.1662  0.4608  0.7932
 2390TIP3    H228806   1.212   0.640   0.779 -1.2933 -0.7558 -0.0278
 2391TIP3   OH228807   1.301   3.503   6.817 -0.0858  0.5659  0.1620
 2391TIP3    H128808   1.355   3.535   6.889  0.8421  1.2050 -0.7918
 2391TIP3    H228809   1.301   3.575   6.753 -0.7766 -0.0358 -0.5343
 2392TIP3   OH228810   6.148   4.515   2.595 -0.3678 -0.2295  0.3731
 2392TIP3    H128811   6.192   4.476   2.520  0.1068 -0.5089  0.7932
 2392TIP3    H228812   6.110   4.440   2.642 -1.2753  0.0018  0.0327
 2393TIP3   OH228813   5.314   0.900   1.023  0.2492  0.0476 -0.5245
 2393TIP3    H128814   5.333   0.947   0.942  0.2088 -0.4992 -0.8525
 2393TIP3    H228815   5.223   0.923   1.044  1.0153  2.2562  0.7703
 2394TIP3   OH228816   3.854   5.077   1.576 -0.1041  1.1114 -0.8439
 2394TIP3    H128817   3.770   5.032   1.567 -0.1742  1.0923 -0.1074
 2394TIP3    H228818   3.911   5.036   1.510 -0.5698  0.9004 -1.1174
 2395TIP3   OH228819   2.721   5.300   0.949 -0.1710 -0.5684 -0.2891
 2395TIP3    H128820   2.790   5.356   0.983  0.3679 -0.0900 -2.1017
 2395TIP3    H228821   2.640   5.341   0.978  0.2438 -0.9688  1.5972
 2396TIP3   OH228822   5.998   3.358   0.973 -0.0978  0.1981 -0.3939
 2396TIP3    H128823   6.009   3.388   1.064  1.9892  0.3414 -0.6402
 2396TIP3    H228824   5.992   3.439   0.923  0.3712  0.1388 -0.5451
 2397TIP3   OH228825   4.802   4.443   7.325  0.6078  0.1218 -0.1500
 2397TIP3    H128826   4.870   4.414   7.386 -0.6373 -0.3161  1.1207
 2397TIP3    H228827   4.847   4.496   7.260  2.2375 -0.6965  0.2695
 2398TIP3   OH228828   0.338   5.076   1.214 -0.1627  0.5044 -0.0395
 2398TIP3    H128829   0.273   5.007   1.221  0.3606 -0.0240 -0.2564
 2398TIP3    H228830   0.314   5.125   1.135  0.3771 -0.4287 -0.8090
 2399TIP3   OH228831   6.165   4.879   2.371 -0.2674  0.3291 -0.6117
 2399TIP3    H128832   6.252   4.849   2.343 -0.5626  0.3322 -1.5694
 2399TIP3    H228833   6.164   4.864   2.465  0.6140 -0.0889 -0.6566
 2400TIP3   OH228834   2.430   6.729   7.230  0.4143 -0.1976 -0.0071
 2400TIP3    H128835   2.439   6.712   7.136  1.4545  0.3059 -0.0074
 2400TIP3    H228836   2.361   6.796   7.235 -0.8760 -1.4588 -0.2738
 2401TIP3   OH228837   6.644   3.224   2.160 -0.4880 -0.3839 -0.3354
 2401TIP3    H128838   6.558   3.263   2.149  0.5060  1.9722 -0.2903
 2401TIP3    H228839   6.640   3.179   2.244 -1.4079  0.4106  0.0626
 2402TIP3   OH228840   3.899   1.097   0.539  0.2797 -0.2765 -0.5285
 2402TIP3    H128841   3.869   1.151   0.466  0.9439  0.9168  0.0480
 2402TIP3    H228842   3.979   1.140   0.570 -0.5234 -0.1449  1.5524
 2403TIP3   OH228843   3.455   3.593   7.717  0.0907  0.0183 -0.6381
 2403TIP3    H128844   3.366   3.625   7.701  0.2598 -0.3497 -2.4343
 2403TIP3    H228845   3.512   3.659   7.677  0.8351  1.6236  2.6672
 2404TIP3   OH228846   1.168   1.405   6.239 -0.0529 -0.4209 -0.4876
 2404TIP3    H128847   1.225   1.476   6.269 -1.6596  0.1149  1.4934
 2404TIP3    H228848   1.112   1.446   6.173 -0.6453  0.0707  0.2971
 2405TIP3   OH228849   2.972   0.344   8.129  0.0569  0.2415  0.6042
 2405TIP3    H128850   2.975   0.426   8.079 -0.6707  0.1940  0.4702
 2405TIP3    H228851   2.912   0.362   8.201  1.0999  0.3061  1.4767
 2406TIP3   OH228852   0.548   3.189   2.016  0.0261  0.2247  0.1094
 2406TIP3    H128853   0.529   3.171   2.108  0.4641  0.4204  0.2410
 2406TIP3    H228854   0.643   3.201   2.013  0.1459 -0.7460 -0.5271
 2407TIP3   OH228855   5.052   0.856   0.010 -0.3262 -0.1146 -0.2466
 2407TIP3    H128856   4.992   0.824  -0.057 -0.0172 -0.5125 -0.3335
 2407TIP3    H228857   5.072   0.946  -0.018  0.3775 -0.5204 -1.0891
 2408TIP3   OH228858   3.937   5.027   0.728  0.1599 -0.4610  0.1264
 2408TIP3    H128859   4.031   5.040   0.724  0.2525 -0.7293  1.1227
 2408TIP3    H228860   3.927   4.931   0.730 -0.0266 -0.4338  1.6863
 2409TIP3   OH228861   2.903   3.349   1.694  0.2881  0.2469 -0.2147
 2409TIP3    H128862   2.971   3.359   1.760  1.5808 -0.0780 -1.4578
 2409TIP3    H228863   2.885   3.437   1.663  0.5609  0.2716 -0.2987
 2410TIP3   OH228864   5.084   6.218   6.294 -0.3463  0.4654  0.2272
 2410TIP3    H128865   5.010   6.255   6.245  0.0518 -1.3611 -1.9463
 2410TIP3    H228866   5.043   6.166   6.363 -1.4283 -2.8079 -2.5765
 2411TIP3   OH228867   2.996   2.427   7.502 -0.4335  0.4365  0.1960
 2411TIP3    H128868   3.064   2.471   7.451 -0.8995 -0.2349 -1.0441
 2411TIP3    H228869   2.984   2.342   7.459  0.0874 -0.7474  2.2151
 2412TIP3   OH228870   5.402   5.566   2.287 -0.2676 -0.9145  0.6192
 2412TIP3    H128871   5.422   5.558   2.194  1.5340  1.0493  0.7606
 2412TIP3    H228872   5.366   5.654   2.297  0.6934 -0.6295  1.8962
 2413TIP3   OH228873   5.056   2.842   0.994  0.1720 -0.0826  0.1835
 2413TIP3    H128874   5.106   2.924   0.988  0.3733 -0.0113  2.0982
 2413TIP3    H228875   5.092   2.787   0.924  1.9569  0.4957  0.5889
 2414TIP3   OH228876   2.771   0.031   8.270  0.1536  0.2238 -0.8582
 2414TIP3    H128877   2.780   0.019   8.365  0.2500 -0.5115 -0.9508
 2414TIP3    H228878   2.680   0.009   8.253  0.1824  0.1821 -0.9561
 2415TIP3   OH228879   5.802   5.403   1.506  0.2407 -0.2193 -0.6394
 2415TIP3    H128880   5.727   5.423   1.449  0.4568 -0.5672 -1.0511
 2415TIP3    H228881   5.875   5.450   1.465  0.6345 -1.3659 -1.2951
 2416TIP3   OH228882   0.723   2.031   7.886 -0.3045 -0.2811 -0.0985
 2416TIP3    H128883   0.718   1.936   7.871  0.4770 -0.0675 -2.0742
 2416TIP3    H228884   0.716   2.069   7.798 -2.6227  1.6178  0.8016
 2417TIP3   OH228885   0.863   4.182   0.745 -0.6939  0.1114  0.1899
 2417TIP3    H128886   0.909   4.257   0.782 -2.3573  0.7043  1.1393
 2417TIP3    H228887   0.908   4.106   0.783 -1.6374  0.6926  2.6387
 2418TIP3   OH228888   3.488   2.423   7.388  0.2363 -0.0026 -0.4869
 2418TIP3    H128889   3.583   2.431   7.382  0.3661 -0.8969  0.1552
 2418TIP3    H228890   3.455   2.479   7.319  1.1893  1.4417  0.1711
 2419TIP3   OH228891   4.618   1.854   8.282 -0.1448 -0.7199 -0.4348
 2419TIP3    H128892   4.568   1.807   8.349  1.0176 -1.2793  0.0630
 2419TIP3    H228893   4.606   1.946   8.305 -0.2190 -0.8820  0.2107
 2420TIP3   OH228894   0.183   4.842   1.182  0.0084 -0.1436 -0.2350
 2420TIP3    H128895   0.166   4.758   1.226  2.9103 -1.0008 -0.5385
 2420TIP3    H228896   0.210   4.817   1.093  0.8277  1.1186 -0.3658
 2421TIP3   OH228897   2.482   3.039   6.722 -0.4932 -0.6073  0.0441
 2421TIP3    H128898   2.464   3.005   6.635  0.5588  1.0281 -0.8662
 2421TIP3    H228899   2.563   2.996   6.748  0.6467  0.8061 -0.9607
 2422TIP3   OH228900   2.114   3.304   0.238  0.0378 -0.0939  0.0485
 2422TIP3    H128901   2.023   3.279   0.219 -0.2024  0.4937  0.3988
 2422TIP3    H228902   2.162   3.278   0.160  0.0190 -2.6573  0.7995
 2423TIP3   OH228903   3.199   0.728   7.446  0.0061 -0.1226  0.3892
 2423TIP3    H128904   3.127   0.671   7.420 -1.3321  1.5983  0.1730
 2423TIP3    H228905   3.190   0.806   7.391  1.0551  0.8287  1.4905
 2424TIP3   OH228906   3.600   5.587   0.389 -0.1113  0.6007 -0.1526
 2424TIP3    H128907   3.566   5.610   0.476 -1.9256 -0.5690 -0.4960
 2424TIP3    H228908   3.537   5.626   0.328  1.1992  1.4935 -0.9667
 2425TIP3   OH228909   5.358   0.608   8.234  0.0598  0.0021  0.1981
 2425TIP3    H128910   5.338   0.554   8.310 -0.4692 -1.4707 -0.9272
 2425TIP3    H228911   5.358   0.546   8.160  1.1994  1.2568 -0.9125
 2426TIP3   OH228912   4.204   0.615   8.177 -0.4820 -0.0818 -0.2180
 2426TIP3    H128913   4.119   0.629   8.135 -0.2608  0.4545 -0.4855
 2426TIP3    H228914   4.260   0.684   8.143  0.2278 -0.7725 -0.4861
 2427TIP3   OH228915   2.118   2.155   6.799 -0.2607  0.1481  0.0207
 2427TIP3    H128916   2.205   2.149   6.760 -0.3197  0.3875 -0.1516
 2427TIP3    H228917   2.060   2.110   6.737 -0.8764  3.2076 -1.8109
 2428TIP3   OH228918   5.363   6.953   2.437  0.4629  0.1865 -0.1492
 2428TIP3    H128919   5.434   7.014   2.419 -0.4625  1.2589 -0.2487
 2428TIP3    H228920   5.332   6.977   2.524  1.1703 -1.2484  0.5297
 2429TIP3   OH228921   4.098   0.473   1.146  0.3799 -0.0444 -0.2994
 2429TIP3    H128922   4.090   0.476   1.242 -1.1822 -1.9063 -0.3228
 2429TIP3    H228923   4.012   0.447   1.115  1.2974 -1.1343 -2.1223
 2430TIP3   OH228924   0.489   0.866   1.158  0.6044  0.2394  0.1691
 2430TIP3    H128925   0.582   0.844   1.168  0.1322 -1.4197  1.2711
 2430TIP3    H228926   0.471   0.925   1.231  0.8566  0.8252 -0.2364
 2431TIP3   OH228927   2.606   3.290   1.956 -0.8749 -0.4110  0.0868
 2431TIP3    H128928   2.565   3.259   2.036 -1.9269  0.9162  0.0961
 2431TIP3    H228929   2.533   3.309   1.897 -0.2396  0.9652 -0.2936
 2432TIP3   OH228930   1.399   1.391   6.435  0.0157  0.1387  0.3581
 2432TIP3    H128931   1.429   1.369   6.347 -0.1099  2.0553 -0.1955
 2432TIP3    H228932   1.478   1.413   6.483  0.0156 -0.2476  0.5425
 2433TIP3   OH228933   3.200   6.187   6.588 -0.5025 -0.7235 -0.1895
 2433TIP3    H128934   3.274   6.191   6.649  0.3744  0.3354 -1.2794
 2433TIP3    H228935   3.224   6.118   6.526 -0.8651 -1.0279  0.0117
 2434TIP3   OH228936   5.237   6.724   2.376 -0.0864  0.2030 -0.1106
 2434TIP3    H128937   5.268   6.809   2.407  3.8605 -1.1591  0.1775
 2434TIP3    H228938   5.248   6.729   2.281  0.4153 -0.0799 -0.0670
 2435TIP3   OH228939   6.854   5.616   0.454 -0.6487  0.0917  0.1542
 2435TIP3    H128940   6.774   5.606   0.506 -3.0461  0.4883 -3.1816
 2435TIP3    H228941   6.824   5.622   0.364  3.3751 -3.9965 -1.8515
 2436TIP3   OH228942   3.549   1.472   0.426  0.0732 -0.0941  0.4434
 2436TIP3    H128943   3.467   1.501   0.386  0.5701  0.6485 -0.0666
 2436TIP3    H228944   3.523   1.408   0.493 -0.9882  0.9142  1.0100
 2437TIP3   OH228945   3.662   5.016   7.373  0.3060 -0.3864 -0.5093
 2437TIP3    H128946   3.618   4.932   7.386 -0.6239  0.0913 -0.5088
 2437TIP3    H228947   3.707   5.033   7.456  1.9689 -1.6998 -1.0833
 2438TIP3   OH228948   1.990   4.556   1.547 -0.6133 -0.3392  0.2624
 2438TIP3    H128949   1.932   4.604   1.606  0.1288  0.2329  0.5563
 2438TIP3    H228950   1.938   4.541   1.469 -0.4082  2.4909 -0.5550
 2439TIP3   OH228951   4.646   6.111   1.015 -0.1173  0.1401 -0.1233
 2439TIP3    H128952   4.642   6.177   1.084  0.5995  0.2374 -0.1637
 2439TIP3    H228953   4.556   6.102   0.984 -0.5113 -0.1946  1.0980
 2440TIP3   OH228954   1.739   4.750   8.253  0.0916 -0.3030  0.0285
 2440TIP3    H128955   1.658   4.707   8.227 -0.2394  0.1580  0.2806
 2440TIP3    H228956   1.757   4.812   8.183  1.4422 -1.9370 -1.1575
 2441TIP3   OH228957   4.164   4.420   7.445  0.2945  0.0642  0.8542
 2441TIP3    H128958   4.126   4.333   7.433  2.9726 -1.0244 -0.7528
 2441TIP3    H228959   4.239   4.405   7.504  2.7737  0.5188 -1.9548
 2442TIP3   OH228960   3.127   6.921   1.074 -0.3949 -0.3685 -0.6959
 2442TIP3    H128961   3.144   6.969   0.993  1.8168  1.7789  0.8914
 2442TIP3    H228962   3.187   6.846   1.071 -0.8089 -0.6923 -1.2822
 2443TIP3   OH228963   1.953   2.375   0.759  0.6452 -0.2045 -0.4244
 2443TIP3    H128964   1.888   2.371   0.829  0.5295  0.5344 -0.4818
 2443TIP3    H228965   1.967   2.284   0.734  0.2022 -0.4243  0.1154
 2444TIP3   OH228966   3.198   5.609   7.638 -0.0620  0.1657 -0.3573
 2444TIP3    H128967   3.267   5.545   7.653 -0.4787 -0.8994 -2.4886
 2444TIP3    H228968   3.125   5.578   7.692  0.2835 -0.2036 -0.0926
 2445TIP3   OH228969   3.380   6.322   2.529  0.0776  0.9218  0.2121
 2445TIP3    H128970   3.314   6.381   2.567  0.6795  1.6217  0.1910
 2445TIP3    H228971   3.421   6.373   2.459 -0.5852 -0.1349 -0.9898
 2446TIP3   OH228972   4.463   0.309   7.595  0.2356 -0.4894 -0.6579
 2446TIP3    H128973   4.548   0.334   7.559  1.6416 -2.0725  1.3267
 2446TIP3    H228974   4.436   0.233   7.542  0.2397 -0.2287 -1.0388
 2447TIP3   OH228975   1.163   3.251   0.176 -0.0519  0.0981 -0.7908
 2447TIP3    H128976   1.159   3.311   0.101 -0.7398  0.7827 -0.2305
 2447TIP3    H228977   1.080   3.204   0.173 -0.3631  0.5824 -0.1105
 2448TIP3   OH228978   6.071   0.992   1.864 -0.2228  0.1909 -0.5759
 2448TIP3    H128979   6.081   1.027   1.953 -0.0487  0.1945 -0.5957
 2448TIP3    H228980   6.104   1.061   1.807 -2.6807  1.2656 -0.8254
 2449TIP3   OH228981   5.183   6.222   1.009 -0.2441 -0.2524 -0.0859
 2449TIP3    H128982   5.214   6.132   1.008  2.5224  0.5837 -1.3587
 2449TIP3    H228983   5.221   6.260   1.088 -0.8643 -0.0264  0.1103
 2450TIP3   OH228984   1.503   0.577   7.244 -0.5825  0.1938  0.1246
 2450TIP3    H128985   1.415   0.554   7.212 -2.0881  2.1826  2.4416
 2450TIP3    H228986   1.509   0.671   7.231  0.2159  0.4584  2.1192
 2451TIP3   OH228987   1.091   2.966   7.447  0.1872 -0.0371 -0.2758
 2451TIP3    H128988   1.114   3.009   7.365  0.3377  0.1374 -0.1426
 2451TIP3    H228989   1.030   3.026   7.489 -0.8498 -0.6896 -0.8178
 2452TIP3   OH228990   0.991   1.315   7.424  0.0649  0.4255 -0.3937
 2452TIP3    H128991   1.072   1.296   7.471  0.8899  0.6161 -1.6899
 2452TIP3    H228992   0.990   1.252   7.351 -0.4924  1.0237 -0.9152
 2453TIP3   OH228993   5.966   3.531   7.094 -0.7780 -0.0568 -0.6289
 2453TIP3    H128994   5.986   3.619   7.126 -0.4779 -0.4138  0.2135
 2453TIP3    H228995   6.000   3.530   7.005 -1.2293  0.8329 -0.8240
 2454TIP3   OH228996   5.295   5.417   0.200  0.2100 -0.8371  0.0509
 2454TIP3    H128997   5.270   5.327   0.181 -1.2626 -0.4974  0.2992
 2454TIP3    H228998   5.296   5.422   0.295 -1.1097 -0.2279  0.0425
 2455TIP3   OH228999   5.333   1.598   1.244  0.2508  0.2864  0.7234
 2455TIP3    H129000   5.418   1.641   1.258 -0.5172  1.6542  1.4488
 2455TIP3    H229001   5.295   1.591   1.332 -1.4171  1.9509  0.1921
 2456TIP3   OH229002   3.069   5.225   6.410  0.1219  0.4203 -0.0735
 2456TIP3    H129003   3.108   5.310   6.430 -0.8117  1.2310 -1.5629
 2456TIP3    H229004   3.144   5.170   6.387  0.7355  0.8146  0.9262
 2457TIP3   OH229005   4.468   3.996   0.217 -0.2078 -0.2207 -0.4963
 2457TIP3    H129006   4.394   3.948   0.181 -0.7274  1.3698 -1.6258
 2457TIP3    H229007   4.431   4.046   0.290  0.0030 -0.3140 -0.3240
 2458TIP3   OH229008   2.633   1.536   8.063  0.4881 -0.1154 -0.0845
 2458TIP3    H129009   2.686   1.556   8.140  1.0048  1.1547 -0.7367
 2458TIP3    H229010   2.548   1.576   8.081 -0.2901 -2.0759  0.9219
 2459TIP3   OH229011   6.444   4.617   8.444  0.1727 -0.9258  0.3695
 2459TIP3    H129012   6.422   4.660   8.527  1.4103  0.7402 -0.1183
 2459TIP3    H229013   6.393   4.665   8.378  2.0445  0.2878 -0.2591
 2460TIP3   OH229014   0.179   2.473   7.035 -0.9326  0.0660 -0.1903
 2460TIP3    H129015   0.145   2.414   7.102 -0.1928 -0.6851 -0.4557
 2460TIP3    H229016   0.127   2.553   7.044 -2.5648 -0.9295 -0.4103
 2461TIP3   OH229017   1.387   5.844   1.755 -0.2605 -0.0922 -0.2924
 2461TIP3    H129018   1.395   5.871   1.664  0.7281  1.5752  0.2551
 2461TIP3    H229019   1.471   5.868   1.795 -1.3059  0.8494  1.4536
 2462TIP3   OH229020   2.744   5.197   8.037  0.5994  0.6340 -0.3288
 2462TIP3    H129021   2.756   5.285   8.001  1.6044  0.8763  0.5457
 2462TIP3    H229022   2.808   5.143   7.990 -0.8842  0.0716 -1.7747
 2463TIP3   OH229023   4.119   2.929   8.225 -0.5834 -0.0132 -0.2244
 2463TIP3    H129024   4.057   2.959   8.159  0.2219  0.9337 -0.5726
 2463TIP3    H229025   4.194   2.898   8.175  0.5981  1.9718  0.2290
 2464TIP3   OH229026   6.824   1.112   2.065  0.1599 -0.1930  0.1490
 2464TIP3    H129027   6.893   1.113   2.132 -1.0878  0.5191  1.4939
 2464TIP3    H229028   6.803   1.205   2.053 -0.8458 -0.4286  0.0767
 2465TIP3   OH229029   0.602   5.462   7.715 -0.1480 -0.2578 -0.2943
 2465TIP3    H129030   0.527   5.489   7.661  0.0017 -0.5053 -0.6276
 2465TIP3    H229031   0.645   5.394   7.663 -0.5596 -1.1894  0.5590
 2466TIP3   OH229032   4.189   2.079   7.989 -0.4104  0.1446 -0.2901
 2466TIP3    H129033   4.165   2.058   8.079  1.3797  1.5468  0.5835
 2466TIP3    H229034   4.245   2.005   7.962  0.6650  0.6363  0.4932
 2467TIP3   OH229035   1.166   5.555   0.083  0.0930 -0.1341  0.1672
 2467TIP3    H129036   1.160   5.570   0.177  0.5671  1.5583 -0.0411
 2467TIP3    H229037   1.210   5.633   0.049 -1.5295  0.0634 -1.6584
 2468TIP3   OH229038   4.983   3.675   0.763  0.8275  0.2798 -0.2555
 2468TIP3    H129039   4.958   3.583   0.766 -2.4268  1.0690  0.2752
 2468TIP3    H229040   5.030   3.690   0.845  0.1419 -0.6208  0.3229
 2469TIP3   OH229041   3.104   3.615   2.373  0.2308  0.4979  0.4036
 2469TIP3    H129042   3.184   3.661   2.348  0.5338 -0.3315 -0.2051
 2469TIP3    H229043   3.033   3.662   2.329  0.5880  0.0834 -0.6341
 2470TIP3   OH229044   2.953   3.777   7.171  0.0634 -0.0656 -0.1518
 2470TIP3    H129045   2.940   3.870   7.154 -1.4114 -0.2721 -0.2838
 2470TIP3    H229046   2.974   3.739   7.086  0.0109  0.0502 -0.2154
 2471TIP3   OH229047   5.840   2.116   0.209  0.1232  0.5220 -0.0008
 2471TIP3    H129048   5.828   2.065   0.129 -1.3380  0.5909  0.1470
 2471TIP3    H229049   5.863   2.204   0.178 -2.7705  1.1999 -0.5120
 2472TIP3   OH229050   3.188   6.864   1.971 -0.0017 -0.5898  0.2094
 2472TIP3    H129051   3.102   6.864   1.929  0.6199 -0.8369 -1.1220
 2472TIP3    H229052   3.238   6.931   1.923  0.0479  0.8358  2.1074
 2473TIP3   OH229053   0.648   5.636   0.787 -0.0414  0.0754  0.3951
 2473TIP3    H129054   0.596   5.712   0.761 -0.9020 -0.1291  1.4535
 2473TIP3    H229055   0.686   5.660   0.871  0.7480 -0.1806  0.1211
 2474TIP3   OH229056   4.589   5.643   7.698  0.1836 -0.1515  0.6152
 2474TIP3    H129057   4.580   5.553   7.669  0.3399  0.0972 -0.2328
 2474TIP3    H229058   4.505   5.664   7.739 -0.3010 -0.2961 -0.2906
 2475TIP3   OH229059   2.959   4.026   7.069 -0.7576  0.2935 -0.2099
 2475TIP3    H129060   2.957   4.056   6.978  0.2628 -2.3742 -1.2095
 2475TIP3    H229061   3.034   4.071   7.107 -0.2831  0.3056 -1.1350
 2476TIP3   OH229062   5.134   4.243   1.334 -0.6240  0.3108 -0.0586
 2476TIP3    H129063   5.113   4.316   1.392  0.5698  0.3794  0.3201
 2476TIP3    H229064   5.110   4.165   1.384 -0.5468  0.4060  0.1297
 2477TIP3   OH229065   2.191   0.148   7.914 -0.3634  0.5784 -0.2195
 2477TIP3    H129066   2.106   0.179   7.943  0.6638  2.0510  1.3735
 2477TIP3    H229067   2.198   0.178   7.823 -1.6659  0.0681 -0.5193
 2478TIP3   OH229068   1.781   6.468   1.567  0.2964  0.3049 -0.0261
 2478TIP3    H129069   1.769   6.536   1.500  0.5273 -0.4834 -0.8884
 2478TIP3    H229070   1.724   6.495   1.639 -0.6509  0.7114 -0.8979
 2479TIP3   OH229071   3.056   2.878   1.880  0.0424 -0.2862 -0.4376
 2479TIP3    H129072   2.983   2.888   1.819  1.8590  1.9452 -2.4732
 2479TIP3    H229073   3.107   2.959   1.869  2.8652 -1.7491  0.7924
 2480TIP3   OH229074   6.053   4.889   7.020 -0.4579 -0.0888  0.4383
 2480TIP3    H129075   6.114   4.827   7.060  0.4930 -0.0703 -0.9340
 2480TIP3    H229076   5.973   4.837   7.006  0.1181 -0.8527 -0.1195
 2481TIP3   OH229077   3.553   4.121   7.213  0.3634 -0.5224  0.5793
 2481TIP3    H129078   3.564   4.026   7.207 -1.1881 -0.7098  0.2295
 2481TIP3    H229079   3.521   4.147   7.127  1.1742  0.3891  0.5409
 2482TIP3   OH229080   2.967   4.674   0.693 -0.4649  0.2606  0.1368
 2482TIP3    H129081   2.957   4.769   0.693 -0.5965  0.2776  1.7772
 2482TIP3    H229082   2.887   4.641   0.652 -0.4306  0.8477 -0.4123
 2483TIP3   OH229083   3.215   0.483   7.127  0.0090 -0.1619  0.6327
 2483TIP3    H129084   3.222   0.423   7.201  0.3798 -0.9381 -0.0166
 2483TIP3    H229085   3.130   0.525   7.137 -0.4998 -1.2054  0.8039
 2484TIP3   OH229086   0.111   6.272   6.463  0.5980 -0.3652 -0.7186
 2484TIP3    H129087   0.167   6.223   6.523  0.1622  0.3146  0.2689
 2484TIP3    H229088   0.163   6.350   6.441 -0.0020  0.3846  0.3837
 2485TIP3   OH229089   0.512   2.846   8.063  0.5457 -0.3539 -0.4477
 2485TIP3    H129090   0.433   2.845   8.118  0.8601 -0.4188  0.0098
 2485TIP3    H229091   0.538   2.938   8.061 -1.1378  0.1750 -2.9523
 2486TIP3   OH229092   1.702   2.872   1.747 -0.7572 -0.3763  0.2855
 2486TIP3    H129093   1.785   2.913   1.772 -1.3555  0.3139  1.2115
 2486TIP3    H229094   1.636   2.940   1.760 -2.0686 -2.0438  3.6796
 2487TIP3   OH229095   6.894   3.179   7.056  0.2255  0.2423 -0.2431
 2487TIP3    H129096   6.839   3.250   7.090  0.2390 -0.1345  0.5956
 2487TIP3    H229097   6.983   3.207   7.075  0.2042 -0.3212  0.7878
 2488TIP3   OH229098   2.109   3.094   1.184  0.4162 -0.2493  0.0763
 2488TIP3    H129099   2.189   3.139   1.160  0.9132 -1.0466  0.1869
 2488TIP3    H229100   2.106   3.100   1.280  0.9951 -1.2638  0.1725
 2489TIP3   OH229101   5.876   1.599   1.644 -0.2019 -0.4540 -0.0246
 2489TIP3    H129102   5.787   1.564   1.650  0.1151 -1.0981  1.6828
 2489TIP3    H229103   5.924   1.552   1.713  1.3446  0.2155 -0.6094
 2490TIP3   OH229104   1.122   6.714   8.051  0.3117  0.2317  0.5807
 2490TIP3    H129105   1.123   6.664   7.969  0.1846 -0.3336  0.9205
 2490TIP3    H229106   1.209   6.699   8.088  0.3837  0.5225  0.5348
 2491TIP3   OH229107   1.868   3.805   0.517  0.4408  0.0453  0.0473
 2491TIP3    H129108   1.887   3.839   0.604 -0.2323  0.3946  0.0554
 2491TIP3    H229109   1.800   3.739   0.531  0.5405 -0.1081 -0.1799
 2492TIP3   OH229110   3.103   4.523   7.075  0.0896 -0.1704 -0.2548
 2492TIP3    H129111   3.157   4.497   7.149  3.0822 -1.9440 -2.7783
 2492TIP3    H229112   3.015   4.491   7.096  0.9094 -0.9232  2.3029
 2493TIP3   OH229113   1.098   1.793   0.083 -0.7515  0.6060 -0.0336
 2493TIP3    H129114   1.029   1.834   0.135 -2.6800  0.1126 -2.0497
 2493TIP3    H229115   1.147   1.740   0.145 -2.4774  0.6077  1.3923
 2494TIP3   OH229116   3.028   0.139   6.847  0.2155  0.3792 -0.1115
 2494TIP3    H129117   2.950   0.148   6.793 -0.9144 -1.4166  1.0987
 2494TIP3    H229118   3.054   0.048   6.836  0.1845  0.0707  2.0111
 2495TIP3   OH229119   4.723   4.853   2.264  0.3217  0.8175 -0.3942
 2495TIP3    H129120   4.665   4.811   2.328 -0.2002  0.2761 -1.2130
 2495TIP3    H229121   4.748   4.936   2.306  0.7812  0.0414  0.9260
 2496TIP3   OH229122   0.755   4.879   8.033 -0.4926 -0.1001  0.1276
 2496TIP3    H129123   0.827   4.839   7.985  0.9700  2.7241 -0.2651
 2496TIP3    H229124   0.765   4.849   8.123 -0.7550 -2.1811 -0.5007
 2497TIP3   OH229125   5.486   2.177   6.617 -0.8208  0.1579 -0.0954
 2497TIP3    H129126   5.501   2.235   6.692  0.1694 -1.8966  1.4192
 2497TIP3    H229127   5.570   2.134   6.604 -1.8420 -1.9077 -0.2183
 2498TIP3   OH229128   2.987   3.265   1.410  0.5609  0.2443  0.3930
 2498TIP3    H129129   2.976   3.298   1.321 -2.1073  2.9239  1.5432
 2498TIP3    H229130   2.930   3.188   1.415  0.9379 -0.0860 -0.2550
 2499TIP3   OH229131   0.241   0.181   8.034 -0.2335  0.4026  0.6883
 2499TIP3    H129132   0.189   0.253   8.000  0.1630 -0.3383 -1.6703
 2499TIP3    H229133   0.197   0.156   8.116 -3.7284 -0.2488 -1.2063
 2500TIP3   OH229134   6.620   5.289   2.488 -0.1260  0.1876 -0.1940
 2500TIP3    H129135   6.544   5.240   2.456  0.8657 -0.1760 -2.1451
 2500TIP3    H229136   6.671   5.224   2.537 -0.1174 -0.0737 -0.5436
 2501TIP3   OH229137   5.255   3.690   7.411  0.6161 -0.2049  0.4484
 2501TIP3    H129138   5.261   3.772   7.362 -1.1225 -0.3647 -0.1110
 2501TIP3    H229139   5.337   3.685   7.460  1.9365  0.5135 -1.5705
 2502TIP3   OH229140   5.000   2.676   1.521  0.2995 -0.4139  0.4384
 2502TIP3    H129141   4.947   2.604   1.485  0.0259 -1.4131  2.6313
 2502TIP3    H229142   4.939   2.726   1.575  1.1633 -0.4834  1.5209
 2503TIP3   OH229143   3.507   2.888   1.308  0.9715 -0.4384 -0.1560
 2503TIP3    H129144   3.523   2.872   1.215 -0.6695 -1.1706 -0.3558
 2503TIP3    H229145   3.488   2.802   1.345 -2.0599  0.1869  0.0383
 2504TIP3   OH229146   4.286   0.707   7.148 -0.5282 -0.4331 -0.1661
 2504TIP3    H129147   4.263   0.634   7.090 -0.0444 -0.8780  0.1928
 2504TIP3    H229148   4.379   0.722   7.131 -0.6123  0.0628 -0.1924
 2505TIP3   OH229149   2.785   2.671   0.756 -0.2964 -0.1647  0.5881
 2505TIP3    H129150   2.717   2.614   0.720 -0.0568 -0.7342  1.0188
 2505TIP3    H229151   2.857   2.612   0.776  1.0082  0.6409 -1.4166
 2506TIP3   OH229152   3.450   2.603   1.572 -0.0347 -0.0098 -0.4653
 2506TIP3    H129153   3.461   2.571   1.662  1.6474 -1.9058 -1.2673
 2506TIP3    H229154   3.390   2.677   1.580 -0.3472 -0.4507  2.1456
 2507TIP3   OH229155   0.661   2.883   7.772 -0.2060  0.2545  0.8651
 2507TIP3    H129156   0.732   2.844   7.823  0.1615  0.3166  0.4045
 2507TIP3    H229157   0.704   2.947   7.715 -0.5943  0.1323  0.4234
 2508TIP3   OH229158   1.987   4.085   8.191  0.2787  0.6569  0.2893
 2508TIP3    H129159   2.050   4.052   8.254  0.4296  0.2115 -0.0881
 2508TIP3    H229160   2.040   4.112   8.116 -0.0498 -0.7678 -0.4883
 2509TIP3   OH229161   0.063   4.313   2.038 -0.0121  0.3897  0.1006
 2509TIP3    H129162   0.036   4.339   2.126  2.0081 -0.9829  1.2294
 2509TIP3    H229163   0.096   4.393   1.997 -0.4279  0.9308  0.8126
 2510TIP3   OH229164   2.999   2.542   6.650 -0.0708 -0.3760 -0.0998
 2510TIP3    H129165   2.938   2.613   6.630 -0.2717 -0.6442 -0.4519
 2510TIP3    H229166   2.970   2.508   6.734  1.0183  1.0224  0.8827
 2511TIP3   OH229167   2.771   6.011   6.527 -0.1388 -0.4921 -0.0317
 2511TIP3    H129168   2.820   6.087   6.557 -1.7803  0.0902  1.3590
 2511TIP3    H229169   2.835   5.958   6.480  1.5536  0.6985  0.8243
 2512TIP3   OH229170   0.348   3.977   7.068 -0.0971  0.2474 -0.0373
 2512TIP3    H129171   0.301   3.924   7.132 -2.8883  2.2026 -0.3244
 2512TIP3    H229172   0.333   3.934   6.984 -0.5456  0.3351 -0.0002
 2513TIP3   OH229173   6.946   0.968   7.762 -0.1426 -0.0204 -0.2125
 2513TIP3    H129174   7.035   0.996   7.742 -0.6202  0.5363 -1.7133
 2513TIP3    H229175   6.926   0.902   7.696  0.2722 -2.6630  2.1019
 2514TIP3   OH229176   0.157   3.689   7.516  0.1445  0.0879  0.4186
 2514TIP3    H129177   0.228   3.664   7.574 -0.1373  1.1775  1.2645
 2514TIP3    H229178   0.130   3.607   7.475  0.0292 -0.8082  2.1897
 2515TIP3   OH229179   1.219   6.743   0.866  0.2480 -0.3505  0.2612
 2515TIP3    H129180   1.268   6.668   0.898  0.5187 -0.3076 -0.0420
 2515TIP3    H229181   1.283   6.814   0.861  0.7420 -0.8680 -2.2853
 2516TIP3   OH229182   2.034   4.332   1.724  0.2892  0.0918  0.3789
 2516TIP3    H129183   2.057   4.385   1.647  2.1758  0.7305  1.3058
 2516TIP3    H229184   1.995   4.395   1.785  0.2933 -0.0717  0.5507
 2517TIP3   OH229185   1.330   4.282   7.761  0.7057  0.5119 -0.0660
 2517TIP3    H129186   1.240   4.251   7.773  1.0266 -0.9207 -1.0096
 2517TIP3    H229187   1.336   4.361   7.814  0.0939 -1.5190  3.3660
 2518TIP3   OH229188   1.617   4.937   7.555  0.1426  0.4575 -0.1045
 2518TIP3    H129189   1.663   4.864   7.514 -1.6018  0.3565 -2.0344
 2518TIP3    H229190   1.662   5.015   7.522  0.1142  0.3134 -0.4926
 2519TIP3   OH229191   5.786   3.902   1.442  0.3425 -0.2700  0.0097
 2519TIP3    H129192   5.823   3.849   1.371  1.1616  0.6384 -0.2549
 2519TIP3    H229193   5.698   3.867   1.454  0.2803 -0.6122 -1.2812
 2520TIP3   OH229194   3.328   4.201   7.042 -0.5496 -0.2467 -0.7779
 2520TIP3    H129195   3.278   4.246   6.974  1.4191  0.6751 -1.6893
 2520TIP3    H229196   3.405   4.166   6.996 -0.0312 -1.0964  0.6675
 2521TIP3   OH229197   5.460   2.454   0.466 -0.1545 -0.0462  0.0751
 2521TIP3    H129198   5.549   2.433   0.437 -0.6471 -0.6076 -1.0901
 2521TIP3    H229199   5.452   2.548   0.453 -0.8447 -0.4411 -3.1805
 2522TIP3   OH229200   3.997   4.219   2.079  0.1734 -0.2128  0.1190
 2522TIP3    H129201   3.919   4.274   2.075 -0.4257 -1.0397  0.0312
 2522TIP3    H229202   4.027   4.226   2.170  0.1088  0.2548  0.1052
 2523TIP3   OH229203   5.564   1.728   1.292  0.0765 -0.0977  0.1978
 2523TIP3    H129204   5.499   1.761   1.354  0.7424 -0.3754  1.0541
 2523TIP3    H229205   5.646   1.730   1.340  0.4453 -1.2161 -0.3608
 2524TIP3   OH229206   0.855   4.462   7.561  0.6868 -0.2353 -0.8187
 2524TIP3    H129207   0.803   4.432   7.487 -1.4013 -0.1445  0.5290
 2524TIP3    H229208   0.945   4.438   7.538  0.0363 -0.7751 -3.0682
 2525TIP3   OH229209   5.251   0.033   7.131 -0.3026  0.3996 -0.0660
 2525TIP3    H129210   5.193   0.075   7.066  0.1485  1.5740  0.2653
 2525TIP3    H229211   5.337   0.031   7.088 -0.1770  0.4419  0.1837
 2526TIP3   OH229212   6.741   5.193   6.842  0.3662 -0.5373 -0.1583
 2526TIP3    H129213   6.801   5.164   6.773 -0.3938  1.1340 -1.5957
 2526TIP3    H229214   6.673   5.242   6.796 -0.5502  0.0582  1.7268
 2527TIP3   OH229215   0.665   6.395   0.214  0.1247  0.0811  0.8250
 2527TIP3    H129216   0.711   6.391   0.130 -1.8430 -0.3349 -0.2952
 2527TIP3    H229217   0.625   6.482   0.215 -0.4380 -0.1766  1.0082
 2528TIP3   OH229218   4.347   6.606   8.273  0.0828 -0.5058 -0.4858
 2528TIP3    H129219   4.309   6.606   8.185 -2.9660 -2.7315  0.6264
 2528TIP3    H229220   4.309   6.684   8.315 -0.4153 -0.7593 -0.4546
 2529TIP3   OH229221   2.319   3.267   7.664 -0.0771  0.6965 -0.7245
 2529TIP3    H129222   2.253   3.241   7.600  1.1943  0.2399 -1.8837
 2529TIP3    H229223   2.391   3.206   7.651  1.6397  2.7112 -1.2559
 2530TIP3   OH229224   4.723   0.283   0.801 -0.4009  0.6020  0.6553
 2530TIP3    H129225   4.797   0.309   0.746 -0.4119 -1.1708 -0.2815
 2530TIP3    H229226   4.646   0.315   0.754 -0.3574 -0.1019  0.0795
 2531TIP3   OH229227   2.309   6.477   7.448 -0.7588  0.1266 -0.3011
 2531TIP3    H129228   2.267   6.451   7.530  2.0036 -1.6701  0.6788
 2531TIP3    H229229   2.365   6.403   7.425  1.6694  2.1973 -1.5957
 2532TIP3   OH229230   3.119   3.378   7.459  0.4402 -0.3460  0.0753
 2532TIP3    H129231   3.103   3.300   7.407  1.2462 -1.8045  1.9040
 2532TIP3    H229232   3.083   3.358   7.545 -1.3888  2.2148  0.0153
 2533TIP3   OH229233   1.695   3.484   1.046 -0.5502 -0.0263  0.4114
 2533TIP3    H129234   1.749   3.489   1.125  1.1527  0.8009 -0.7464
 2533TIP3    H229235   1.649   3.401   1.054  1.2722 -1.0214  1.2605
 2534TIP3   OH229236   4.132   3.302   0.698 -0.1258 -0.4708  0.4800
 2534TIP3    H129237   4.200   3.268   0.640  0.2992 -0.0332  0.7154
 2534TIP3    H229238   4.095   3.224   0.740  1.0020 -0.6435  1.2000
 2535TIP3   OH229239   5.206   6.407   1.940  0.5735  0.5237 -0.3479
 2535TIP3    H129240   5.165   6.320   1.937  0.9132  0.3902 -1.6284
 2535TIP3    H229241   5.298   6.389   1.958  0.4875  0.6836  0.2692
 2536TIP3   OH229242   6.210   6.199   7.243 -0.0621  0.3396  0.5082
 2536TIP3    H129243   6.170   6.245   7.317 -1.5249  2.0100 -1.2030
 2536TIP3    H229244   6.286   6.252   7.219  0.7582 -0.5231  1.1517
 2537TIP3   OH229245   1.715   2.095   8.105  0.1467  0.2074 -0.2232
 2537TIP3    H129246   1.766   2.142   8.039  0.0015  0.3182 -0.2574
 2537TIP3    H229247   1.681   2.163   8.163 -2.6820  0.5013 -2.0608
 2538TIP3   OH229248   1.563   4.348   0.965  0.0873 -0.0138 -0.1345
 2538TIP3    H129249   1.647   4.393   0.957  0.4156 -0.3937  1.0410
 2538TIP3    H229250   1.547   4.342   1.059 -0.6330 -1.0789 -0.3031
 2539TIP3   OH229251   6.523   6.290   2.429 -0.0203  0.1038  0.1443
 2539TIP3    H129252   6.431   6.301   2.455  0.0872 -0.5813  0.8434
 2539TIP3    H229253   6.548   6.206   2.465 -0.0191 -1.2143 -2.6625
 2540TIP3   OH229254   6.767   1.003   6.528  0.0240  0.0252  0.3322
 2540TIP3    H129255   6.682   0.989   6.485 -0.5907  3.1715  0.2565
 2540TIP3    H229256   6.828   0.948   6.479 -1.4917 -0.1148 -1.5253
 2541TIP3   OH229257   5.586   6.274   7.993  0.7659 -0.3117 -0.2412
 2541TIP3    H129258   5.648   6.204   7.972  1.1466 -0.1907  0.4418
 2541TIP3    H229259   5.547   6.247   8.076  1.1142  0.4124  0.1681
 2542TIP3   OH229260   6.502   0.218   0.167  0.0544 -0.2017  0.5376
 2542TIP3    H129261   6.480   0.179   0.252  0.3332 -0.0605  0.6731
 2542TIP3    H229262   6.541   0.146   0.117 -1.0753 -0.5666  0.1505
 2543TIP3   OH229263   1.768   4.824   7.333  0.0957  0.0524  0.0015
 2543TIP3    H129264   1.856   4.843   7.299  0.3608  0.0209  0.6526
 2543TIP3    H229265   1.709   4.863   7.269  0.5932  2.8811  1.1190
 2544TIP3   OH229266   0.980   3.266   1.748  0.1609  0.2267  0.2469
 2544TIP3    H129267   0.920   3.292   1.818  0.9557  0.9283  0.6849
 2544TIP3    H229268   0.927   3.272   1.668  0.0842  2.5251  0.4118
 2545TIP3   OH229269   5.693   1.521   7.789  0.1178  0.0790 -0.1022
 2545TIP3    H129270   5.653   1.580   7.726  1.0084 -0.4151 -1.1736
 2545TIP3    H229271   5.691   1.568   7.872 -2.4677  0.1493 -0.1262
 2546TIP3   OH229272   6.006   2.769   7.507 -0.7415 -0.1794 -0.7975
 2546TIP3    H129273   6.052   2.767   7.592 -0.9672 -2.0267 -0.6642
 2546TIP3    H229274   6.075   2.754   7.443 -0.7484 -0.1064 -0.8211
 2547TIP3   OH229275   3.775   6.969   0.495  0.4270 -0.5468  0.1171
 2547TIP3    H129276   3.769   6.972   0.400 -0.6579 -4.4084 -0.0833
 2547TIP3    H229277   3.834   7.041   0.517 -0.6733  1.6057 -3.2516
 2548TIP3   OH229278   0.453   5.366   7.041 -0.7964 -0.3558  0.2274
 2548TIP3    H129279   0.526   5.422   7.065 -1.4163  0.5858 -0.0196
 2548TIP3    H229280   0.494   5.287   7.004  0.0856 -0.0164  0.4589
 2549TIP3   OH229281   5.397   0.756   0.789 -0.2723 -0.4319 -0.0111
 2549TIP3    H129282   5.392   0.851   0.801 -0.7071 -0.2751 -1.3124
 2549TIP3    H229283   5.385   0.720   0.877 -0.8066  0.6975  0.3928
 2550TIP3   OH229284   5.496   1.432   6.461 -0.1968  0.1404  0.1452
 2550TIP3    H129285   5.547   1.509   6.435  2.0713 -1.8055 -1.6934
 2550TIP3    H229286   5.507   1.426   6.556 -0.8360  2.2922  0.3952
 2551TIP3   OH229287   5.116   2.497   1.184  0.5325  0.6426  0.4790
 2551TIP3    H129288   5.051   2.435   1.219 -0.4190  2.1929  1.5948
 2551TIP3    H229289   5.095   2.504   1.091 -0.0926  0.1701  0.5793
 2552TIP3   OH229290   4.558   4.758   1.375 -0.5674 -0.1986  0.0222
 2552TIP3    H129291   4.514   4.767   1.290 -2.2939 -2.4293  0.5978
 2552TIP3    H229292   4.622   4.689   1.362  0.1723  0.4458  0.1836
 2553TIP3   OH229293   5.708   3.621   2.805  0.8726  0.1348 -0.1131
 2553TIP3    H129294   5.687   3.546   2.860  0.1495 -0.3209 -0.9859
 2553TIP3    H229295   5.738   3.583   2.722 -1.6755  0.7289 -1.4095
 2554TIP3   OH229296   3.610   1.095   1.255  0.1041  0.4183  0.1897
 2554TIP3    H129297   3.684   1.079   1.196 -1.2077  0.3252 -1.4923
 2554TIP3    H229298   3.570   1.009   1.267  2.1392 -0.2137  3.8549
 2555TIP3   OH229299   4.421   1.210   8.174  0.3344 -0.2081  0.1709
 2555TIP3    H129300   4.418   1.220   8.269 -1.2141 -0.6698  0.2004
 2555TIP3    H229301   4.441   1.117   8.160  1.5218  0.0593  0.0237
 2556TIP3   OH229302   2.091   5.701   0.923 -0.0286  0.3476  0.5951
 2556TIP3    H129303   2.084   5.607   0.911  0.8668  0.5644 -2.4341
 2556TIP3    H229304   2.054   5.738   0.843  1.6334  2.4861  0.7392
 2557TIP3   OH229305   4.499   2.490   8.172 -0.0182  0.0959 -0.4370
 2557TIP3    H129306   4.590   2.471   8.148  0.4043  1.0840  0.2849
 2557TIP3    H229307   4.450   2.481   8.091  0.6353 -0.9679 -0.7321
 2558TIP3   OH229308   2.137   3.476   7.980  0.2741  0.0049 -0.6489
 2558TIP3    H129309   2.193   3.457   8.055  1.9725  2.3088 -1.2245
 2558TIP3    H229310   2.048   3.458   8.011  1.1548 -2.4246  0.7432
 2559TIP3   OH229311   6.480   3.004   1.974 -0.4199 -0.1232  0.1105
 2559TIP3    H129312   6.502   3.097   1.969  0.2536 -0.2520  0.6013
 2559TIP3    H229313   6.457   2.980   1.884 -1.3393  0.6850  0.1068
 2560TIP3   OH229314   4.276   5.291   7.513 -0.2630  0.4156 -0.1645
 2560TIP3    H129315   4.284   5.299   7.418  0.2020 -1.0533 -0.2715
 2560TIP3    H229316   4.255   5.198   7.528 -2.2921  0.9931  1.0587
 2561TIP3   OH229317   2.723   4.807   1.524  0.1730 -0.4426 -0.4654
 2561TIP3    H129318   2.670   4.820   1.602  0.3642 -0.7100 -0.2897
 2561TIP3    H229319   2.725   4.712   1.513  1.2070 -0.4741 -0.0619
 2562TIP3   OH229320   0.296   2.639   0.298  0.3593  0.3455 -0.0403
 2562TIP3    H129321   0.224   2.630   0.359 -1.1130  4.5467 -0.7923
 2562TIP3    H229322   0.369   2.670   0.352 -0.1369  1.4549  0.0253
 2563TIP3   OH229323   3.242   4.059   7.723  0.2768 -0.0168  0.5660
 2563TIP3    H129324   3.170   4.027   7.669 -0.8109 -0.8684  2.3970
 2563TIP3    H229325   3.308   4.090   7.661  0.3611 -3.5361 -1.3620
 2564TIP3   OH229326   1.589   5.064   8.057  0.6364  0.0424  0.6293
 2564TIP3    H129327   1.506   5.074   8.009  0.1175  0.2530  1.5339
 2564TIP3    H229328   1.567   5.091   8.146  1.1021 -2.1012  1.4389
 2565TIP3   OH229329   4.028   2.832   0.168 -0.8071 -0.4766  0.2443
 2565TIP3    H129330   3.961   2.802   0.107 -0.5798  1.6813 -1.1776
 2565TIP3    H229331   4.103   2.855   0.114 -0.5148  1.3099  1.3038
 2566TIP3   OH229332   5.051   0.967   2.295  0.0463  0.6696  0.6685
 2566TIP3    H129333   4.986   0.993   2.360 -0.2772 -0.2516  0.7305
 2566TIP3    H229334   5.135   0.996   2.332 -0.3201  1.9027  0.5671
 2567TIP3   OH229335   2.913   2.272   6.376  0.0773  0.2875 -0.0406
 2567TIP3    H129336   2.987   2.227   6.335  0.7930  0.2536  1.2288
 2567TIP3    H229337   2.912   2.359   6.337  2.1249  1.0248  1.3828
 2568TIP3   OH229338   3.301   1.105   2.412 -0.7266  0.2073  0.1335
 2568TIP3    H129339   3.232   1.049   2.449  0.0208 -1.1938 -0.5030
 2568TIP3    H229340   3.369   1.043   2.384  0.3386  1.4874 -0.1896
 2569TIP3   OH229341   5.444   1.650   8.339  0.0129 -0.6197  0.0666
 2569TIP3    H129342   5.369   1.606   8.298 -0.0687 -1.7389  1.3326
 2569TIP3    H229343   5.433   1.742   8.317 -1.0203 -0.9389 -0.8615
 2570TIP3   OH229344   0.082   6.032   7.355  0.4074 -0.4246 -0.7338
 2570TIP3    H129345   0.115   5.955   7.309 -0.5651  0.2759 -2.7561
 2570TIP3    H229346  -0.004   6.007   7.387  0.8003 -0.6989  0.1180
 2571TIP3   OH229347   1.646   4.899   1.805 -0.1071  1.0131  0.3123
 2571TIP3    H129348   1.573   4.840   1.823  0.4520 -1.0257 -3.1275
 2571TIP3    H229349   1.713   4.876   1.870 -0.4971 -1.1212  0.0175
 2572TIP3   OH229350   1.988   2.211   1.972 -0.1270 -0.3745  0.0990
 2572TIP3    H129351   2.045   2.289   1.965 -0.7759  0.2625  1.5911
 2572TIP3    H229352   1.906   2.238   1.931 -0.5245 -0.0829  1.0681
 2573TIP3   OH229353   3.375   0.277   8.046  0.5749  0.2416  0.5490
 2573TIP3    H129354   3.465   0.262   8.075  0.4674 -1.5733  0.0236
 2573TIP3    H229355   3.384   0.316   7.959  0.8396  2.3775  1.4644
 2574TIP3   OH229356   2.886   0.076   0.962 -0.0006  0.0703 -0.3003
 2574TIP3    H129357   2.942   0.064   1.039  1.3142  0.2224 -1.2026
 2574TIP3    H229358   2.797   0.056   0.993  0.5770 -0.3839  1.1137
 2575TIP3   OH229359   5.364   5.626   1.304 -0.0494  0.0200 -0.2547
 2575TIP3    H129360   5.350   5.721   1.300  0.8233  0.1218 -1.3405
 2575TIP3    H229361   5.276   5.589   1.308 -0.3955  0.8972  1.3585
 2576TIP3   OH229362   0.599   0.822   2.089 -0.1928  0.2671  0.0482
 2576TIP3    H129363   0.689   0.800   2.115  0.2827  0.3982 -1.4056
 2576TIP3    H229364   0.549   0.742   2.106  0.1612  0.2379  0.9975
 2577TIP3   OH229365   6.379   4.770   0.905  0.0622  0.0802 -0.1468
 2577TIP3    H129366   6.315   4.818   0.959  0.2953  1.3617 -0.9645
 2577TIP3    H229367   6.448   4.746   0.966  0.3182  1.4948  0.1734
 2578TIP3   OH229368   2.354   3.085   1.773 -0.0498  0.0775 -0.1497
 2578TIP3    H129369   2.288   3.021   1.801 -0.9399  1.7913  2.0016
 2578TIP3    H229370   2.340   3.160   1.832  1.2399  2.0682 -2.2333
 2579TIP3   OH229371   5.254   2.748   0.265  0.1800  0.3075  0.3183
 2579TIP3    H129372   5.260   2.687   0.191  1.3751 -0.2661  0.8549
 2579TIP3    H229373   5.233   2.832   0.224  0.3300 -0.0934 -0.6244
 2580TIP3   OH229374   0.636   1.868   0.300  0.5903 -0.1344 -0.1564
 2580TIP3    H129375   0.657   1.790   0.351 -1.4296 -1.4057 -1.1474
 2580TIP3    H229376   0.603   1.834   0.216  1.1573  1.8263 -1.2323
 2581TIP3   OH229377   2.481   6.342   6.832  0.3213  0.1578  0.5510
 2581TIP3    H129378   2.510   6.361   6.742  2.8144  0.7942  1.4069
 2581TIP3    H229379   2.429   6.419   6.857 -1.0415 -0.3548 -0.5400
 2582TIP3   OH229380   3.399   1.206   7.069  0.0095 -0.4584  0.3891
 2582TIP3    H129381   3.421   1.261   7.144  1.6944 -0.1896 -0.2608
 2582TIP3    H229382   3.433   1.119   7.092  0.2462 -0.4507  0.0774
 2583TIP3   OH229383   3.606   6.013   6.791  0.8792 -0.2209 -0.6271
 2583TIP3    H129384   3.580   5.940   6.847  2.1718  0.3512  0.7649
 2583TIP3    H229385   3.677   5.978   6.737  1.0928 -0.1818 -0.3767
 2584TIP3   OH229386   0.832   2.955   0.552  0.2939 -0.3437  0.1871
 2584TIP3    H129387   0.895   3.008   0.502  1.1995 -0.7326  0.8766
 2584TIP3    H229388   0.768   3.018   0.584  0.5161  0.1159 -0.2545
 2585TIP3   OH229389   6.902   6.831   0.644  0.3383 -0.2806 -0.6020
 2585TIP3    H129390   6.841   6.768   0.682  0.2220  1.0191  1.5622
 2585TIP3    H229391   6.861   6.916   0.658  2.3568  0.6033  0.4979
 2586TIP3   OH229392   0.865   1.652   8.061  0.3188 -0.2148 -0.2089
 2586TIP3    H129393   0.899   1.594   8.129  3.0342  1.0023 -0.3693
 2586TIP3    H229394   0.944   1.685   8.017 -1.2862  0.3078 -2.8941
 2587TIP3   OH229395   0.483   4.914   7.056  0.3433 -0.4319  0.5710
 2587TIP3    H129396   0.574   4.924   7.085  0.8795 -0.7428 -0.9030
 2587TIP3    H229397   0.455   5.003   7.033  0.1627 -0.2938  1.2960
 2588TIP3   OH229398   0.283   1.040   0.024 -0.2515  0.2009  0.0622
 2588TIP3    H129399   0.239   1.018  -0.058  0.4723  0.1543 -0.3226
 2588TIP3    H229400   0.375   1.051  -0.000  0.6555 -3.1641  1.3841
 2589TIP3   OH229401   1.320   4.087   6.253  0.1001  0.2292 -0.4667
 2589TIP3    H129402   1.387   4.155   6.244  0.5904 -0.0687  0.6789
 2589TIP3    H229403   1.239   4.136   6.267  0.3587  0.5868 -0.1969
 2590TIP3   OH229404   4.443   2.706   7.014 -0.2404 -0.6995 -0.3972
 2590TIP3    H129405   4.458   2.789   7.059  0.8577 -1.5638  0.9255
 2590TIP3    H229406   4.428   2.731   6.922  1.2566  0.8900 -0.2701
 2591TIP3   OH229407   6.708   0.760   7.068 -0.3927  0.1682 -0.3044
 2591TIP3    H129408   6.676   0.843   7.032  0.1334  0.4384 -0.1599
 2591TIP3    H229409   6.776   0.733   7.007  1.4173  1.2790  1.1330
 2592TIP3   OH229410   6.004   4.210   7.168 -0.1354 -0.5581 -0.4508
 2592TIP3    H129411   5.924   4.244   7.207  0.5013  0.2389  0.2023
 2592TIP3    H229412   5.982   4.121   7.140 -1.1064 -0.5149  0.1520
 2593TIP3   OH229413   4.388   2.536   1.020  0.3118 -0.5567  0.2452
 2593TIP3    H129414   4.469   2.526   0.971  0.9465 -0.7169  1.2871
 2593TIP3    H229415   4.404   2.610   1.079 -0.2108 -0.7370  0.6242
 2594TIP3   OH229416   3.882   4.027   8.175  0.7414 -0.4827 -0.2032
 2594TIP3    H129417   3.823   4.044   8.249  1.6945 -0.1388  0.5045
 2594TIP3    H229418   3.939   3.956   8.206  1.9766  0.5196 -0.1105
 2595TIP3   OH229419   3.330   5.799   7.769 -0.1672 -0.4525  0.4951
 2595TIP3    H129420   3.256   5.753   7.731 -0.6702 -0.2193  1.1720
 2595TIP3    H229421   3.349   5.870   7.707 -1.1737  0.1075  0.8082
 2596TIP3   OH229422   6.966   2.456   1.461 -0.2672  0.2765  0.1662
 2596TIP3    H129423   6.936   2.486   1.375  0.2635  1.3393  0.3317
 2596TIP3    H229424   6.913   2.506   1.523  0.4973  0.7405  0.4536
 2597TIP3   OH229425   2.454   5.646   1.467 -0.2041  0.2724  0.2130
 2597TIP3    H129426   2.404   5.611   1.541 -1.7885  2.1577  0.1056
 2597TIP3    H229427   2.440   5.582   1.397  0.3014 -0.9068  1.1613
 2598TIP3   OH229428   4.303   6.480   2.002  0.3754 -1.0332 -0.2398
 2598TIP3    H129429   4.301   6.385   2.015  2.3404 -0.9139  1.4551
 2598TIP3    H229430   4.323   6.491   1.909 -4.0075 -2.1086 -1.5829
 2599TIP3   OH229431   4.219   1.562   7.488 -0.3716  0.1255  0.7164
 2599TIP3    H129432   4.216   1.599   7.400  1.2095  1.9065  1.3379
 2599TIP3    H229433   4.291   1.499   7.485 -0.3491  0.1506  0.7253
 2600TIP3   OH229434   4.986   2.919   2.708  0.0315  0.5483  0.2932
 2600TIP3    H129435   5.074   2.882   2.714 -0.4167 -0.5473  0.3490
 2600TIP3    H229436   4.998   3.000   2.657  0.7431 -0.7639 -1.7845
 2601TIP3   OH229437   1.393   2.685   7.451 -0.6407  0.2174 -0.0264
 2601TIP3    H129438   1.346   2.705   7.370  0.5285 -1.3294 -1.1480
 2601TIP3    H229439   1.326   2.687   7.519 -2.1467 -0.8525 -1.4034
 2602TIP3   OH229440   6.716   4.955   8.308  0.0633 -0.5260  0.4773
 2602TIP3    H129441   6.761   4.888   8.359 -1.9862 -0.1757  2.9175
 2602TIP3    H229442   6.641   4.911   8.270  0.0046 -0.1227  0.1120
 2603TIP3   OH229443   4.809   2.616   0.995 -0.0792  0.1358  0.7559
 2603TIP3    H129444   4.753   2.539   0.978  0.2257 -0.2175  1.3231
 2603TIP3    H229445   4.898   2.583   0.980 -0.0169  0.7690 -0.4222
 2604TIP3   OH229446   5.783   5.549   0.997 -0.2143 -0.0347 -0.0877
 2604TIP3    H129447   5.782   5.568   0.903  0.6668 -0.5646 -0.2255
 2604TIP3    H229448   5.867   5.585   1.028  1.2564 -2.9566 -0.2530
 2605TIP3   OH229449   0.904   1.491   6.699  0.1811  0.2071 -0.2651
 2605TIP3    H129450   0.956   1.459   6.626  0.5281 -3.2634  1.3119
 2605TIP3    H229451   0.832   1.429   6.707  0.0598  0.5615  2.1690
 2606TIP3   OH229452   1.067   3.230   7.724 -0.5627  0.2219  0.3815
 2606TIP3    H129453   1.162   3.241   7.720 -0.2060 -2.3266 -0.0307
 2606TIP3    H229454   1.036   3.265   7.641  0.0397  0.8735  0.4193
 2607TIP3   OH229455   5.774   0.044   7.589  0.3066  0.0626 -0.3621
 2607TIP3    H129456   5.826   0.019   7.513  0.2763 -1.3865  0.0723
 2607TIP3    H229457   5.683   0.033   7.562  0.2852 -0.0621 -0.2396
 2608TIP3   OH229458   2.945   2.022   0.499  0.4791  0.1328 -0.3919
 2608TIP3    H129459   2.991   2.048   0.580  0.3487 -1.2958  0.1713
 2608TIP3    H229460   3.010   1.973   0.450  0.2496  0.1289 -0.6931
 2609TIP3   OH229461   2.430   4.055   0.799 -0.1226 -0.4879  0.9551
 2609TIP3    H129462   2.458   4.103   0.721 -3.3134 -0.1778 -0.1287
 2609TIP3    H229463   2.346   4.017   0.775  0.5715 -3.7369  2.9706
 2610TIP3   OH229464   6.324   4.835   1.329 -0.0159 -0.3551 -0.2116
 2610TIP3    H129465   6.230   4.847   1.326 -0.0735  0.3397  2.1786
 2610TIP3    H229466   6.356   4.875   1.248 -1.7583 -0.9644 -1.2577
 2611TIP3   OH229467   6.740   4.050   0.390 -0.7033  0.3148  0.0191
 2611TIP3    H129468   6.708   3.986   0.327  0.2244 -1.9371  1.6770
 2611TIP3    H229469   6.815   4.092   0.347 -1.7897  0.8861 -1.3732
 2612TIP3   OH229470   6.348   4.313   8.033  0.0303  0.3912  0.4565
 2612TIP3    H129471   6.374   4.375   8.102 -0.0411 -0.6638  1.4545
 2612TIP3    H229472   6.403   4.236   8.048  1.3633  0.8124 -1.8304
 2613TIP3   OH229473   2.011   2.669   7.497  0.0049  0.5970 -0.3104
 2613TIP3    H129474   1.939   2.730   7.510 -0.8092 -0.2721 -0.6639
 2613TIP3    H229475   1.989   2.593   7.551  1.0084  0.5992  0.1327
 2614TIP3   OH229476   4.023   3.377   7.749  0.4999  0.3296 -0.0269
 2614TIP3    H129477   3.928   3.380   7.748  0.5038  0.4785 -0.1418
 2614TIP3    H229478   4.047   3.344   7.662  0.5570  0.4598 -0.0609
 2615TIP3   OH229479   5.149   2.077   6.974 -0.0736 -0.1422 -0.1174
 2615TIP3    H129480   5.154   2.047   7.064  0.0946  2.5190  0.8647
 2615TIP3    H229481   5.215   2.146   6.968 -0.9416  0.6035 -1.8856
 2616TIP3   OH229482   2.224   5.342   1.200  0.4597 -1.2106  0.1078
 2616TIP3    H129483   2.226   5.321   1.107  0.8615  0.2877 -0.2606
 2616TIP3    H229484   2.151   5.291   1.235  0.9989 -2.6411 -0.7949
 2617TIP3   OH229485   3.051   0.640   1.721  1.2079  0.1679  0.4048
 2617TIP3    H129486   3.119   0.621   1.786  0.2536 -1.5484  0.9776
 2617TIP3    H229487   2.971   0.603   1.759  0.9114 -2.5494 -2.4739
 2618TIP3   OH229488   2.055   6.614   8.070 -0.1495  0.3595 -0.0529
 2618TIP3    H129489   2.075   6.704   8.043 -0.4507  0.2956 -0.4931
 2618TIP3    H229490   2.140   6.576   8.092 -0.1665  1.2993  1.8897
 2619TIP3   OH229491   1.825   2.236   7.862  0.3732  0.1904 -0.0558
 2619TIP3    H129492   1.912   2.212   7.894 -0.8778 -0.8301  3.0277
 2619TIP3    H229493   1.823   2.204   7.772  2.7133 -1.0067  0.2278
 2620TIP3   OH229494   3.334   4.115   1.198  0.1019  0.1923 -0.4751
 2620TIP3    H129495   3.270   4.183   1.220 -0.5933 -0.1578 -1.3723
 2620TIP3    H229496   3.354   4.129   1.106  0.7871 -0.1463 -0.3859
 2621TIP3   OH229497   6.613   6.291   1.331 -0.2719  0.3038  0.0548
 2621TIP3    H129498   6.616   6.383   1.357 -0.6194  0.6292 -0.9911
 2621TIP3    H229499   6.519   6.271   1.325 -0.2001 -0.2986  0.8652
 2622TIP3   OH229500   4.488   2.070   7.144  0.3481 -0.2443  0.2647
 2622TIP3    H129501   4.497   1.989   7.093  1.1632  0.9330 -1.5577
 2622TIP3    H229502   4.393   2.082   7.153  0.2049 -1.8918  1.4550
 2623TIP3   OH229503   6.730   5.872   7.148 -0.2362 -0.0062  0.6518
 2623TIP3    H129504   6.703   5.897   7.059  0.7494 -1.0821  0.0144
 2623TIP3    H229505   6.662   5.908   7.205 -0.9766  0.5723 -0.5509
 2624TIP3   OH229506   0.987   6.887   0.837  0.1752 -0.5765 -0.5354
 2624TIP3    H129507   1.059   6.834   0.869  1.0210  0.5686 -0.5023
 2624TIP3    H229508   1.013   6.914   0.748  0.4944  1.0507  0.0101
 2625TIP3   OH229509   2.776   3.070   7.319 -0.0040 -0.5335 -0.4552
 2625TIP3    H129510   2.785   2.975   7.315  1.0111 -0.6539  2.3496
 2625TIP3    H229511   2.764   3.089   7.413  0.1000  2.1243 -0.9002
 2626TIP3   OH229512   5.819   4.527   7.659  0.0481  0.4445 -0.5900
 2626TIP3    H129513   5.898   4.488   7.623  0.0130 -0.5349  0.3461
 2626TIP3    H229514   5.753   4.458   7.652 -0.3242  0.7277  0.0167
 2627TIP3   OH229515   5.760   6.513   1.112  0.1705 -0.2381  0.5108
 2627TIP3    H129516   5.692   6.503   1.045 -0.0368  1.0216  0.5163
 2627TIP3    H229517   5.712   6.543   1.189  0.6885  0.3267  0.6144
 2628TIP3   OH229518   2.685   6.302   1.776  0.2156  0.2162  0.3731
 2628TIP3    H129519   2.603   6.255   1.764  1.7071 -2.6527  0.5493
 2628TIP3    H229520   2.688   6.321   1.870  0.7194 -1.7540  0.7984
 2629TIP3   OH229521   2.998   1.788   7.340  0.6103 -0.3128 -0.4445
 2629TIP3    H129522   2.982   1.835   7.258 -1.6234  0.5226  0.4292
 2629TIP3    H229523   3.056   1.716   7.314 -0.3270 -0.2931 -2.8533
 2630TIP3   OH229524   5.135   5.289   7.444 -0.0070 -0.4929 -0.9200
 2630TIP3    H129525   5.123   5.217   7.382 -0.3127 -1.1352 -0.1431
 2630TIP3    H229526   5.134   5.368   7.391 -3.3747 -0.7785 -1.4547
 2631TIP3   OH229527   2.543   3.705   6.880 -0.4666 -0.2868 -0.4626
 2631TIP3    H129528   2.573   3.785   6.922  0.0654 -0.0733 -1.2337
 2631TIP3    H229529   2.487   3.735   6.809 -1.8384 -0.6575  0.4213
 2632TIP3   OH229530   0.636   2.504   6.475  0.2996 -0.1284  0.2335
 2632TIP3    H129531   0.670   2.563   6.408 -1.9647  1.4088  0.2947
 2632TIP3    H229532   0.595   2.433   6.426 -0.2746  0.3561 -0.0085
 2633TIP3   OH229533   1.930   3.825   5.799  0.2774 -0.3440 -0.3601
 2633TIP3    H129534   1.867   3.784   5.857 -0.5221 -0.7190 -1.4660
 2633TIP3    H229535   1.929   3.772   5.719  1.1205  0.3250 -0.8500
 2634TIP3   OH229536   5.350   4.299   1.870 -0.1323  0.3264  0.3058
 2634TIP3    H129537   5.410   4.371   1.893  0.3853  0.4936 -1.4391
 2634TIP3    H229538   5.267   4.324   1.910  0.0841  1.8207 -0.1010
 2635TIP3   OH229539   6.586   1.816   1.924  0.2922  0.2741  0.0355
 2635TIP3    H129540   6.648   1.862   1.867 -0.0862  0.0622 -0.5480
 2635TIP3    H229541   6.523   1.884   1.949  0.9337  0.5764  0.9117
 2636TIP3   OH229542   0.182   4.853   6.466 -0.3377 -0.2072 -0.1512
 2636TIP3    H129543   0.144   4.854   6.378 -2.5764 -0.4384  0.7332
 2636TIP3    H229544   0.222   4.940   6.475 -2.6667  0.9975 -0.4107
 2637TIP3   OH229545   1.409   6.249   8.301 -0.0023  0.9405 -0.0559
 2637TIP3    H129546   1.364   6.285   8.224 -0.1307 -1.8312 -1.4048
 2637TIP3    H229547   1.424   6.157   8.278  0.8120  0.2601  2.8900
 2638TIP3   OH229548   1.994   4.195   0.718 -0.4981  0.1832  0.6247
 2638TIP3    H129549   1.898   4.190   0.713 -0.3938 -0.7376 -1.0384
 2638TIP3    H229550   2.018   4.255   0.648  0.1824  0.0171  0.7158
 2639TIP3   OH229551   4.993   6.188   1.829  0.3382  0.2777  0.2245
 2639TIP3    H129552   5.077   6.161   1.793  0.1588  0.5292 -0.3888
 2639TIP3    H229553   4.948   6.232   1.757 -0.6094 -0.4592  0.3412
 2640TIP3   OH229554   0.300   3.289   2.277 -0.2295 -0.7663  0.4020
 2640TIP3    H129555   0.355   3.323   2.348  1.6230 -2.3214 -0.1960
 2640TIP3    H229556   0.349   3.214   2.242 -2.7576 -2.2656 -0.2052
 2641TIP3   OH229557   3.743   1.563   0.651 -0.1420 -0.1604 -0.2617
 2641TIP3    H129558   3.733   1.484   0.599  0.3033  0.6198 -1.5939
 2641TIP3    H229559   3.773   1.532   0.736 -1.5220 -1.5238 -0.2296
 2642TIP3   OH229560   0.880   0.963   0.981 -0.2156 -0.4776  0.3523
 2642TIP3    H129561   0.968   0.926   0.979 -0.3016 -0.7543  1.2042
 2642TIP3    H229562   0.893   1.058   0.977  0.1876 -0.4662  1.5517
 2643TIP3   OH229563   5.275   6.859   7.926 -0.1766 -0.0585 -0.3045
 2643TIP3    H129564   5.362   6.822   7.910 -0.5786 -0.5811 -1.4470
 2643TIP3    H229565   5.270   6.934   7.867  0.0068  0.8501  0.7945
 2644TIP3   OH229566   0.507   5.516   0.513 -0.2105 -0.1733  0.2541
 2644TIP3    H129567   0.430   5.492   0.565 -1.0864  0.0904 -0.8839
 2644TIP3    H229568   0.565   5.559   0.576  0.0454 -2.4087  1.6564
 2645TIP3   OH229569   0.113   4.817   7.059  0.3024 -0.1993 -0.1243
 2645TIP3    H129570   0.163   4.890   7.095  0.4016 -0.0351 -0.5871
 2645TIP3    H229571   0.038   4.859   7.016  0.3959 -0.3680 -0.4485
 2646TIP3   OH229572   0.857   0.341   1.364 -0.0239 -0.0430 -0.0826
 2646TIP3    H129573   0.858   0.428   1.324 -0.4882  0.7433  1.4989
 2646TIP3    H229574   0.902   0.284   1.301 -0.0518  1.2581 -1.3203
 2647TIP3   OH229575   1.674   5.041   7.157 -0.7298 -0.1665 -0.1013
 2647TIP3    H129576   1.720   5.059   7.075 -0.1347 -0.0365  0.2578
 2647TIP3    H229577   1.702   5.111   7.216 -0.8003 -0.5178  0.3571
 2648TIP3   OH229578   3.205   2.249   1.131  0.5388 -0.4304  0.2316
 2648TIP3    H129579   3.182   2.294   1.050  2.6705  1.0792  0.3866
 2648TIP3    H229580   3.146   2.286   1.197 -0.5396 -0.9495 -0.4239
 2649TIP3   OH229581   0.737   1.575   0.044 -0.7399 -0.4437 -0.3922
 2649TIP3    H129582   0.658   1.529   0.072 -0.4962 -0.2327  0.6894
 2649TIP3    H229583   0.707   1.661   0.016 -0.8796 -0.2903  0.2160
 2650TIP3   OH229584   2.388   6.301   7.883 -0.3803  0.5258  0.2139
 2650TIP3    H129585   2.319   6.235   7.888 -0.2947  0.3196 -1.0410
 2650TIP3    H229586   2.458   6.266   7.937 -0.2996 -0.4803 -0.5064
 2651TIP3   OH229587   5.742   4.232   7.144  0.2772 -0.5351 -0.1162
 2651TIP3    H129588   5.787   4.208   7.063  1.1669  1.3431 -0.2106
 2651TIP3    H229589   5.671   4.290   7.116  0.6585  0.2153  0.4598
 2652TIP3   OH229590   4.951   5.570   0.073 -0.2064  0.3968  0.3107
 2652TIP3    H129591   4.919   5.660   0.071 -1.5009 -0.0542 -0.0924
 2652TIP3    H229592   5.019   5.567   0.005 -1.7340  0.5302 -1.2889
 2653TIP3   OH229593   6.240   4.788   8.284  0.6295 -0.1813 -0.0901
 2653TIP3    H129594   6.228   4.710   8.229  2.5319  1.3497 -2.9391
 2653TIP3    H229595   6.152   4.823   8.296 -0.0512 -1.7306 -0.3300
 2654TIP3   OH229596   5.262   5.945   1.050  0.1079  0.2169  0.0955
 2654TIP3    H129597   5.271   5.861   1.006 -2.5941  0.1565 -0.5148
 2654TIP3    H229598   5.301   5.930   1.137  1.0108 -1.1798 -0.5088
 2655TIP3   OH229599   4.852   5.575   7.479  0.0488 -0.2921 -0.0679
 2655TIP3    H129600   4.854   5.661   7.520 -0.6295 -1.1799  1.9669
 2655TIP3    H229601   4.813   5.589   7.394  1.3813  1.6355 -0.4235
 2656TIP3   OH229602   2.262   2.995   0.422  0.2871  0.1655  0.4621
 2656TIP3    H129603   2.171   3.025   0.423  0.4313  0.6382  0.0145
 2656TIP3    H229604   2.261   2.912   0.470 -0.8392 -1.1768 -1.7772
 2657TIP3   OH229605   3.434   6.047   0.344 -0.0984  0.5203  0.4467
 2657TIP3    H129606   3.526   6.045   0.316 -0.6272 -1.3663 -1.4663
 2657TIP3    H229607   3.428   5.979   0.411 -0.1721  0.3361  0.2549
 2658TIP3   OH229608   0.604   0.612   8.056  0.0395 -0.3874  0.0248
 2658TIP3    H129609   0.547   0.686   8.034  0.6371  0.0754  0.0261
 2658TIP3    H229610   0.557   0.536   8.022 -0.0887  0.0899 -0.9037
 2659TIP3   OH229611   4.246   6.771   0.657  0.3005  0.4353 -0.2003
 2659TIP3    H129612   4.276   6.845   0.709  0.8996 -0.0784  0.2049
 2659TIP3    H229613   4.168   6.739   0.702 -0.4354  1.3076 -0.8298
 2660TIP3   OH229614   6.125   3.091   6.902  0.1407 -0.7011 -0.3153
 2660TIP3    H129615   6.203   3.083   6.848  0.4802 -2.3110  0.3559
 2660TIP3    H229616   6.072   3.157   6.858  0.7134 -1.4448 -2.2168
 2661TIP3   OH229617   4.489   4.185   8.409 -0.2808  0.4647  0.1594
 2661TIP3    H129618   4.401   4.222   8.401 -0.7603 -0.8254 -1.1001
 2661TIP3    H229619   4.479   4.114   8.473  0.3715  1.7134  1.6957
 2662TIP3   OH229620   5.254   3.435   1.543 -0.0994 -0.5775 -0.3199
 2662TIP3    H129621   5.176   3.426   1.488 -0.0007  0.4908 -0.6479
 2662TIP3    H229622   5.327   3.438   1.481 -0.0189  1.0458 -0.1967
 2663TIP3   OH229623   6.818   2.410   8.156 -0.3100  0.1620  0.1428
 2663TIP3    H129624   6.795   2.456   8.237 -0.6703 -0.6746  0.5283
 2663TIP3    H229625   6.743   2.422   8.099  0.3787  1.6799 -0.5096
 2664TIP3   OH229626   0.814   3.802   0.770  0.1013 -0.1715  0.4409
 2664TIP3    H129627   0.883   3.847   0.819 -0.1331 -0.4781  1.0564
 2664TIP3    H229628   0.796   3.723   0.821  1.8954 -2.0662 -1.6274
 2665TIP3   OH229629   5.826   3.034   2.165 -0.0570  0.0913  0.0887
 2665TIP3    H129630   5.831   3.110   2.107 -1.8859  1.6691  1.8611
 2665TIP3    H229631   5.886   3.054   2.237  0.0430 -0.5367  0.1932
 2666TIP3   OH229632   6.423   0.853   7.515 -0.0226 -0.0025 -0.0537
 2666TIP3    H129633   6.468   0.811   7.442  0.6964  0.0347  0.3621
 2666TIP3    H229634   6.344   0.891   7.476  0.5205  0.2956 -0.8714
 2667TIP3   OH229635   4.194   3.852   0.982 -0.6699 -0.2616 -0.2019
 2667TIP3    H129636   4.198   3.938   1.024  1.0646 -0.9190  1.1247
 2667TIP3    H229637   4.200   3.790   1.055 -0.9645 -1.5062 -1.2055
 2668TIP3   OH229638   3.138   4.101   6.242  0.4659  0.6874  0.0780
 2668TIP3    H129639   3.073   4.166   6.268 -0.8019 -0.0815 -1.0610
 2668TIP3    H229640   3.109   4.020   6.284 -0.4428 -0.0974 -1.9666
 2669TIP3   OH229641   5.627   5.420   6.601  0.1108 -0.3815  0.0955
 2669TIP3    H129642   5.699   5.456   6.653  0.7735 -0.5059 -0.7211
 2669TIP3    H229643   5.567   5.493   6.590  1.6495  0.6969 -1.9233
 2670TIP3   OH229644   1.935   3.845   6.173  0.3675 -0.5316  0.0394
 2670TIP3    H129645   1.909   3.809   6.088  0.4755 -1.9340  0.5781
 2670TIP3    H229646   1.947   3.769   6.229 -0.9029  0.4083  1.6856
 2671TIP3   OH229647   4.285   6.801   0.397 -0.1765 -0.1352 -0.0050
 2671TIP3    H129648   4.327   6.880   0.429  1.6581 -0.8415 -0.5129
 2671TIP3    H229649   4.309   6.733   0.460  3.0586 -1.4291 -2.3283
 2672TIP3   OH229650   1.061   0.598   1.731  0.3304  0.5089  0.1077
 2672TIP3    H129651   1.124   0.531   1.704 -0.4930 -0.3094  0.1651
 2672TIP3    H229652   1.071   0.605   1.826  1.0268  1.1110 -0.0030
 2673TIP3   OH229653   3.409   3.536   6.920  0.1706  0.2291 -0.1263
 2673TIP3    H129654   3.445   3.492   6.843  0.3277 -0.8500  0.5440
 2673TIP3    H229655   3.481   3.537   6.983 -0.8666 -2.0135  1.2533
 2674TIP3   OH229656   2.080   2.983   7.658 -0.0061 -0.1851  0.0243
 2674TIP3    H129657   2.116   3.016   7.741 -0.9909 -0.1976  0.4732
 2674TIP3    H229658   2.082   3.058   7.599  2.8047 -0.7250 -0.7017
 2675TIP3   OH229659   6.131   0.365   6.642 -0.2593 -0.1773 -0.2992
 2675TIP3    H129660   6.151   0.419   6.565  0.5775 -1.0491 -0.7077
 2675TIP3    H229661   6.048   0.322   6.620 -1.2917  1.3970  0.3001
 2676TIP3   OH229662   0.666   0.694   0.787  0.7104  0.7360 -0.6918
 2676TIP3    H129663   0.746   0.697   0.735  0.8418  1.2692 -0.4709
 2676TIP3    H229664   0.639   0.786   0.795  2.0531  1.0014  2.2217
 2677TIP3   OH229665   0.499   0.755   0.176  0.2004 -0.3172 -0.4467
 2677TIP3    H129666   0.509   0.660   0.177  1.1482 -0.2372  1.1106
 2677TIP3    H229667   0.405   0.770   0.190 -0.1029 -1.0062 -1.6296
 2678TIP3   OH229668   0.485   1.273   1.517  0.6280  0.4952  0.1752
 2678TIP3    H129669   0.566   1.232   1.549  0.8136  1.0871  0.4903
 2678TIP3    H229670   0.472   1.347   1.576 -0.2769  0.2661  0.2666
 2679TIP3   OH229671   1.773   2.967   7.188  0.0725 -0.2974 -0.1931
 2679TIP3    H129672   1.790   2.873   7.188  0.9205 -0.1524 -0.0841
 2679TIP3    H229673   1.771   2.991   7.095 -2.7347 -0.8424 -0.3523
 2680TIP3   OH229674   2.062   4.896   1.514 -0.0472  0.2547 -0.1779
 2680TIP3    H129675   2.061   4.961   1.583  0.1003  0.2060 -0.1285
 2680TIP3    H229676   1.976   4.856   1.517  0.2737 -0.4079  0.6135
 2681TIP3   OH229677   6.736   2.875   1.911 -0.0507  0.1456  0.4452
 2681TIP3    H129678   6.790   2.951   1.888  0.2172 -0.5833 -1.5375
 2681TIP3    H229679   6.716   2.887   2.003  0.6254  2.2250  0.3741
 2682TIP3   OH229680   3.428   0.446   0.488 -0.2169 -0.4407 -0.0661
 2682TIP3    H129681   3.422   0.412   0.577 -0.2147 -1.1230 -0.3229
 2682TIP3    H229682   3.372   0.389   0.435  1.0475 -1.0581 -0.7862
 2683TIP3   OH229683   3.227   4.695   1.488  0.2009  0.2004 -0.1829
 2683TIP3    H129684   3.281   4.707   1.566  3.2002 -1.7537 -1.7444
 2683TIP3    H229685   3.275   4.630   1.437 -2.7898 -0.2584 -2.6371
 2684TIP3   OH229686   2.569   2.377   6.546 -0.5642 -0.5298 -0.4428
 2684TIP3    H129687   2.606   2.449   6.494 -1.6578 -0.0612 -0.5940
 2684TIP3    H229688   2.646   2.327   6.575  0.5164  2.1741  1.9192
 2685TIP3   OH229689   2.986   1.300   1.998 -0.4150  0.5496 -0.4873
 2685TIP3    H129690   3.036   1.294   2.079 -2.2934  0.4095  0.7363
 2685TIP3    H229691   2.983   1.211   1.964 -1.1003  0.2769  0.2626
 2686TIP3   OH229692   2.933   6.852   1.851  0.9949 -0.1681  0.1630
 2686TIP3    H129693   2.841   6.856   1.879  0.8870  0.8742 -0.2899
 2686TIP3    H229694   2.929   6.861   1.756  1.5515 -0.4945  0.1054
 2687TIP3   OH229695   4.201   5.562   0.833 -0.1077 -0.3162 -0.1637
 2687TIP3    H129696   4.136   5.496   0.857  1.2466 -1.2568  1.1039
 2687TIP3    H229697   4.262   5.563   0.907  0.8448  1.1446 -0.9369
 2688TIP3   OH229698   3.688   6.863   1.767  0.3195  0.0544 -0.8215
 2688TIP3    H129699   3.735   6.792   1.722 -0.1741  0.7407 -2.4823
 2688TIP3    H229700   3.751   6.936   1.769 -0.4975  0.8586 -2.7316
 2689TIP3   OH229701   3.022   0.450   0.217  0.0459  0.1312 -0.1360
 2689TIP3    H129702   3.082   0.409   0.279  1.3921  0.7146 -1.0167
 2689TIP3    H229703   3.077   0.476   0.143 -1.1926  1.1845 -0.7332
 2690TIP3   OH229704   5.445   4.421   0.750 -0.2499 -0.0113 -0.0407
 2690TIP3    H129705   5.387   4.352   0.719 -0.3089 -0.1586  0.3929
 2690TIP3    H229706   5.390   4.500   0.753 -0.6146 -0.2921  1.0193
 2691TIP3   OH229707   0.519   0.159   1.331 -0.5026 -0.5207 -0.4807
 2691TIP3    H129708   0.601   0.112   1.316 -0.4505 -0.7644  0.4997
 2691TIP3    H229709   0.506   0.211   1.252  2.0390  1.6538  0.3773
 2692TIP3   OH229710   4.563   0.518   7.232 -0.3513  0.2475  0.6778
 2692TIP3    H129711   4.624   0.591   7.243  0.4610 -0.3265  0.1084
 2692TIP3    H229712   4.500   0.528   7.304  0.8830  0.4132  1.7766
 2693TIP3   OH229713   2.308   3.206   1.524  0.2296 -0.0258  0.0837
 2693TIP3    H129714   2.318   3.140   1.593 -0.9415 -0.3090 -0.0084
 2693TIP3    H229715   2.217   3.199   1.496  0.5434  0.4461 -1.1330
 2694TIP3   OH229716   0.579   2.321   6.270 -0.1283  0.5159  0.1677
 2694TIP3    H129717   0.573   2.229   6.294  0.4934  0.4010 -0.1110
 2694TIP3    H229718   0.626   2.322   6.186 -0.3158  1.0680  0.0605
 2695TIP3   OH229719   0.366   6.453   8.042 -0.1450 -0.1040  0.1916
 2695TIP3    H129720   0.371   6.383   7.977  0.3579 -0.4461  0.5931
 2695TIP3    H229721   0.394   6.412   8.124 -2.0790 -0.0436  0.9397
 2696TIP3   OH229722   2.911   3.708   2.202  0.0763 -0.6158  0.2247
 2696TIP3    H129723   2.869   3.644   2.259  1.9454 -3.4987 -1.4100
 2696TIP3    H229724   2.843   3.730   2.137 -0.4883 -1.2171  0.5979
 2697TIP3   OH229725   2.758   1.837   2.283  0.0298  0.1213 -0.2489
 2697TIP3    H129726   2.790   1.918   2.324 -1.2196 -0.4339  1.9951
 2697TIP3    H229727   2.710   1.793   2.352 -0.3782 -1.9825 -1.7812
 2698TIP3   OH229728   6.204   2.000   7.681  0.4140  0.3616  0.3707
 2698TIP3    H129729   6.113   1.997   7.711  0.2074  3.5448  0.4075
 2698TIP3    H229730   6.217   1.917   7.636 -1.8427 -1.0509  2.1224
 2699TIP3   OH229731   0.221   6.928   0.311  0.1777 -0.6558 -0.1687
 2699TIP3    H129732   0.188   7.013   0.283  1.1618  0.9453  3.0087
 2699TIP3    H229733   0.290   6.907   0.248 -1.8005 -0.5043 -2.5502
 2700TIP3   OH229734   0.626   2.178   1.419  0.9262 -0.3715  0.3998
 2700TIP3    H129735   0.656   2.098   1.461  1.2968 -0.5116 -0.1246
 2700TIP3    H229736   0.536   2.159   1.392  0.0854  0.2587  2.5258
 2701TIP3   OH229737   5.999   1.116   0.338 -0.5417 -0.1062  0.2235
 2701TIP3    H129738   5.976   1.115   0.245 -0.6016 -0.8379  0.2369
 2701TIP3    H229739   5.917   1.133   0.384 -0.7839 -1.1420  0.1982
 2702TIP3   OH229740   1.722   5.689   7.368 -0.4424 -0.5361  0.1321
 2702TIP3    H129741   1.679   5.698   7.453 -0.3127  1.2542  0.0517
 2702TIP3    H229742   1.667   5.739   7.307 -0.1382 -1.1757 -0.6873
 2703TIP3   OH229743   5.990   6.613   6.847  0.0342 -0.3191  0.6515
 2703TIP3    H129744   5.933   6.658   6.784  1.0123  0.0456 -0.0022
 2703TIP3    H229745   6.024   6.538   6.800 -1.5135 -1.7561  1.7120
 2704TIP3   OH229746   2.616   1.395   2.240  0.0429  0.2426 -0.1230
 2704TIP3    H129747   2.587   1.333   2.174 -0.3175 -0.5624  0.7769
 2704TIP3    H229748   2.540   1.453   2.254  0.1945  0.5527 -0.5645
 2705TIP3   OH229749   5.318   2.103   7.190  0.2718  0.0034 -0.0566
 2705TIP3    H129750   5.393   2.160   7.205 -0.0281  0.3579  0.0965
 2705TIP3    H229751   5.324   2.037   7.259  0.6967 -0.2357 -0.3174
 2706TIP3   OH229752   0.914   3.137   0.166 -0.0119  0.5515 -0.2093
 2706TIP3    H129753   0.833   3.184   0.143 -1.0002 -0.1862  1.5703
 2706TIP3    H229754   0.894   3.045   0.145  1.4000  0.6603 -2.3351
 2707TIP3   OH229755   2.173   0.536   1.697  0.4490  0.1173 -0.3985
 2707TIP3    H129756   2.161   0.494   1.782  2.7465 -1.8611 -0.9295
 2707TIP3    H229757   2.238   0.603   1.712  0.3075  0.2691 -0.4614
 2708TIP3   OH229758   0.254   1.612   1.337 -0.0868 -0.0695 -0.3973
 2708TIP3    H129759   0.308   1.533   1.337  1.8812  1.1815  1.1422
 2708TIP3    H229760   0.268   1.650   1.250  0.6454 -0.3345 -0.4085
 2709TIP3   OH229761   2.228   5.637   6.809 -0.4707  0.6542  0.1782
 2709TIP3    H129762   2.208   5.720   6.767 -1.9219  0.6615  0.8291
 2709TIP3    H229763   2.154   5.580   6.787 -0.3209  0.0625  1.1243
 2710TIP3   OH229764   4.540   3.870   7.375 -0.3630 -0.1336 -0.3250
 2710TIP3    H129765   4.521   3.783   7.410  0.6194 -0.7370 -1.2629
 2710TIP3    H229766   4.615   3.857   7.317 -0.0973  1.3692 -0.3477
 2711TIP3   OH229767   5.645   2.970   6.515  0.2150 -0.5542 -0.0869
 2711TIP3    H129768   5.678   2.884   6.542 -0.7240 -1.3001 -1.2567
 2711TIP3    H229769   5.565   2.982   6.567  1.4415  0.6079  1.6615
 2712TIP3   OH229770   5.632   6.049   8.173 -0.2791 -0.6997  0.4357
 2712TIP3    H129771   5.696   6.089   8.232  0.4926  0.4750 -1.1212
 2712TIP3    H229772   5.548   6.083   8.203  0.1629  0.3902  0.4953
 2713TIP3   OH229773   2.888   2.691   1.370 -0.4919  0.0426 -0.0036
 2713TIP3    H129774   2.867   2.646   1.451 -0.0643 -2.0367 -0.9966
 2713TIP3    H229775   2.803   2.700   1.325 -0.3313 -1.7911 -0.7570
 2714TIP3   OH229776   2.227   6.050   7.872  0.2019  0.2067 -0.6258
 2714TIP3    H129777   2.189   5.975   7.918 -0.5948  0.9957  0.0341
 2714TIP3    H229778   2.212   6.032   7.780  0.7495 -0.8272 -0.5314
 2715TIP3   OH229779   1.870   1.984   2.069 -0.2614  0.3731  0.1910
 2715TIP3    H129780   1.812   2.042   2.117 -0.1617 -0.6577  1.6370
 2715TIP3    H229781   1.912   2.040   2.004 -1.1528  1.6106  0.6410
 2716TIP3   OH229782   1.831   4.894   1.160 -0.0301  0.6462  0.1210
 2716TIP3    H129783   1.749   4.881   1.112  0.9150 -2.5172 -0.8896
 2716TIP3    H229784   1.898   4.901   1.092  0.8146  0.9893  0.9639
 2717TIP3   OH229785   6.889   4.163   6.155  0.0906 -0.2463  0.3378
 2717TIP3    H129786   6.843   4.242   6.125  0.7612  0.7677  1.8514
 2717TIP3    H229787   6.820   4.098   6.165 -1.0708  1.1561  2.2842
 2718TIP3   OH229788   3.768   0.651   6.753  0.1280 -0.4534  0.0801
 2718TIP3    H129789   3.860   0.674   6.740  0.2163 -0.4654  0.6558
 2718TIP3    H229790   3.769   0.557   6.773  0.0494 -0.3289  0.6819
 2719TIP3   OH229791   3.954   4.659   7.108 -0.5765  0.0448 -0.1467
 2719TIP3    H129792   4.045   4.632   7.117 -0.4186  0.4796 -0.3921
 2719TIP3    H229793   3.958   4.740   7.056 -0.8975  1.3879  1.7928
 2720TIP3   OH229794   2.274   4.628   8.119 -0.1495  0.0626 -0.3393
 2720TIP3    H129795   2.209   4.688   8.083 -0.7079  1.0095  2.0558
 2720TIP3    H229796   2.222   4.566   8.171  0.4347 -2.4689 -2.5698
 2721TIP3   OH229797   0.616   4.246   1.987 -0.5961  0.0202 -0.3322
 2721TIP3    H129798   0.550   4.267   2.054  0.6194  0.5274  0.7530
 2721TIP3    H229799   0.678   4.189   2.032  1.2801  1.8758 -0.4108
 2722TIP3   OH229800   3.090   1.441   7.010  0.2384 -0.4415 -0.2229
 2722TIP3    H129801   3.077   1.420   7.102  0.2213  0.5273  0.0044
 2722TIP3    H229802   3.069   1.360   6.964  0.3139 -0.9533  0.6257
 2723TIP3   OH229803   0.530   1.265   0.444 -0.1198 -0.6546  0.3941
 2723TIP3    H129804   0.560   1.181   0.480 -1.1634 -1.0235  0.4269
 2723TIP3    H229805   0.435   1.261   0.450 -0.2563 -0.1046 -1.0480
 2724TIP3   OH229806   6.289   5.366   8.113 -0.0790  0.7343  0.0413
 2724TIP3    H129807   6.348   5.414   8.055 -0.0929  0.1320 -0.4803
 2724TIP3    H229808   6.319   5.276   8.109 -1.3134  0.3246 -0.6095
 2725TIP3   OH229809   4.665   0.781   6.762 -0.0069 -0.4992  0.1065
 2725TIP3    H129810   4.744   0.728   6.766 -0.7281 -1.6345 -0.1431
 2725TIP3    H229811   4.686   0.851   6.702  1.1147 -0.2407  0.7698
 2726TIP3   OH229812   4.270   1.706   8.175 -0.4376  0.1238  0.6150
 2726TIP3    H129813   4.194   1.685   8.122 -1.2407 -1.0727  2.1510
 2726TIP3    H229814   4.253   1.664   8.259  0.9356  1.6263  1.7144
 2727TIP3   OH229815   4.641   3.502   6.284  0.0874  0.1364  0.4982
 2727TIP3    H129816   4.572   3.448   6.246  0.8448  0.7303 -1.9038
 2727TIP3    H229817   4.699   3.440   6.329  0.3945 -0.9856 -1.3355
 2728TIP3   OH229818   6.053   3.876   7.931 -0.1633 -0.2734 -1.1835
 2728TIP3    H129819   5.969   3.874   7.886 -0.0667  2.7538 -1.6638
 2728TIP3    H229820   6.096   3.795   7.903 -2.2043 -1.0721 -2.2586
 2729TIP3   OH229821   6.519   3.200   8.036 -0.6938 -0.3419 -0.0088
 2729TIP3    H129822   6.477   3.199   7.950  0.0339  0.4173 -0.3915
 2729TIP3    H229823   6.555   3.111   8.047 -0.4965 -0.3426 -0.6426
 2730TIP3   OH229824   5.311   1.392   6.792  0.0531  0.5810 -0.0569
 2730TIP3    H129825   5.256   1.371   6.867 -0.1931  0.0927 -0.3691
 2730TIP3    H229826   5.259   1.453   6.739  0.5691  1.6099  0.5969
 2731TIP3   OH229827   2.403   1.670   6.745  0.3453  0.5024 -0.0927
 2731TIP3    H129828   2.448   1.622   6.675 -1.0101  0.2250 -0.8163
 2731TIP3    H229829   2.451   1.753   6.752  0.1636  0.7936 -1.7877
 2732TIP3   OH229830   1.741   1.353   8.117  0.0329  1.3045 -0.0859
 2732TIP3    H129831   1.792   1.280   8.151  0.0795  1.3894  0.0259
 2732TIP3    H229832   1.650   1.328   8.133  0.0563  1.3784  0.1752
 2733TIP3   OH229833   5.175   1.307   2.526 -0.5910  0.0830 -0.2292
 2733TIP3    H129834   5.199   1.297   2.434  0.7191  0.3065  0.0623
 2733TIP3    H229835   5.140   1.395   2.533  1.5240  0.9867 -0.1170
 2734TIP3   OH229836   2.715   5.919   2.318  0.7042 -0.2908 -0.3237
 2734TIP3    H129837   2.711   6.006   2.280 -1.5064  0.7408  1.9968
 2734TIP3    H229838   2.808   5.904   2.335  1.0791  1.8338 -0.2968
 2735TIP3   OH229839   2.412   0.509   0.769 -0.0411  0.1348 -0.2590
 2735TIP3    H129840   2.443   0.599   0.782  1.6502 -0.8038  4.0788
 2735TIP3    H229841   2.476   0.469   0.711  0.8639  1.0214  0.0921
 2736TIP3   OH229842   6.912   6.638   7.142 -0.1564  0.6343  0.6833
 2736TIP3    H129843   6.888   6.592   7.062 -0.4261  1.6441  0.1724
 2736TIP3    H229844   6.996   6.678   7.123 -0.8666  2.0366  0.4021
 2737TIP3   OH229845   0.674   5.955   0.814  0.3542 -0.0920 -0.0134
 2737TIP3    H129846   0.742   5.982   0.875  0.9277 -0.4322 -0.4965
 2737TIP3    H229847   0.712   5.971   0.727 -0.2964  0.0113 -0.2868
 2738TIP3   OH229848   1.194   3.816   6.997  0.1426 -0.6423  0.4832
 2738TIP3    H129849   1.191   3.834   6.903 -0.6990 -1.8535  0.2548
 2738TIP3    H229850   1.185   3.721   7.003 -0.2989 -0.5329  1.8088
 2739TIP3   OH229851   3.322   3.519   2.036 -0.0869  0.2680 -0.1054
 2739TIP3    H129852   3.396   3.511   1.976 -0.2523  2.4436 -0.6978
 2739TIP3    H229853   3.245   3.504   1.980 -0.1566 -0.1421  0.1010
 2740TIP3   OH229854   2.867   4.908   0.629 -0.0960  0.1437  0.1711
 2740TIP3    H129855   2.775   4.934   0.623 -0.3579 -0.7332  0.3143
 2740TIP3    H229856   2.901   4.959   0.703 -0.2925  0.9441 -0.2731
 2741TIP3   OH229857   5.768   0.687   0.867  0.0475 -0.2745  0.3779
 2741TIP3    H129858   5.710   0.748   0.821  0.6469 -1.7474 -2.5321
 2741TIP3    H229859   5.830   0.744   0.914 -0.3734  1.3538 -0.9484
 2742TIP3   OH229860   2.247   2.511   0.379 -0.4367  0.1697  0.3387
 2742TIP3    H129861   2.255   2.600   0.415 -2.6044  0.8175 -0.6624
 2742TIP3    H229862   2.230   2.456   0.456  2.6432  0.2419  1.2147
 2743TIP3   OH229863   5.685   3.023   0.522 -0.1958  0.4706 -0.1244
 2743TIP3    H129864   5.712   2.983   0.604 -1.1793 -1.4560 -0.6833
 2743TIP3    H229865   5.594   2.995   0.510  0.0157  0.4509 -1.9888
 2744TIP3   OH229866   6.507   5.980   7.311 -0.0255  0.7328 -0.0504
 2744TIP3    H129867   6.482   5.945   7.397 -2.8201  1.2142 -0.6043
 2744TIP3    H229868   6.447   5.939   7.250  0.1093  2.4847 -1.4301
 2745TIP3   OH229869   2.895   5.489   1.106  0.0067  0.1541  0.6123
 2745TIP3    H129870   2.895   5.501   1.201  1.2878  1.3341  0.4875
 2745TIP3    H229871   2.970   5.433   1.088 -1.3495 -1.7356  0.4177
 2746TIP3   OH229872   5.045   4.834   7.398 -0.3347  0.6612 -0.2710
 2746TIP3    H129873   5.041   4.762   7.461  0.7805  0.0114 -0.9064
 2746TIP3    H229874   5.138   4.841   7.375 -0.5388  1.7584 -0.8423
 2747TIP3   OH229875   0.956   5.452   8.098 -0.2733  0.3951 -0.2431
 2747TIP3    H129876   0.997   5.498   8.026 -2.2667  0.2343 -1.5530
 2747TIP3    H229877   0.867   5.486   8.101 -0.3799  0.0654  1.8780
 2748TIP3   OH229878   4.814   4.759   6.873 -0.4741 -0.4594 -0.0113
 2748TIP3    H129879   4.896   4.764   6.825 -0.0269  0.2558  0.7899
 2748TIP3    H229880   4.747   4.751   6.806  0.3086 -1.9966 -0.6518
 2749TIP3   OH229881   5.473   4.440   7.669 -0.6426  0.1121 -0.2017
 2749TIP3    H129882   5.503   4.530   7.678 -1.1368  0.5755 -2.5655
 2749TIP3    H229883   5.377   4.447   7.663 -0.8240 -0.7587  1.2736
 2750TIP3   OH229884   4.821   0.506   1.783 -0.0877 -0.6821 -0.1474
 2750TIP3    H129885   4.897   0.480   1.835  0.5940 -0.1609 -0.8591
 2750TIP3    H229886   4.842   0.593   1.751  0.5376 -1.7891 -3.1028
 2751TIP3   OH229887   0.777   4.125   0.465  0.2678 -0.1740 -0.2132
 2751TIP3    H129888   0.821   4.046   0.433  3.7585  1.4707  0.1100
 2751TIP3    H229889   0.805   4.133   0.556 -0.9094  0.9161  0.0893
 2752TIP3   OH229890   5.732   4.990   1.730 -0.0815 -0.3252  0.2121
 2752TIP3    H129891   5.747   4.937   1.808 -0.2072  0.6283  0.8999
 2752TIP3    H229892   5.740   4.928   1.657  0.9844 -1.0501  0.9133
 2753TIP3   OH229893   6.730   0.634   1.483 -0.3582  0.4099 -0.1147
 2753TIP3    H129894   6.660   0.670   1.428  1.1725  1.7244 -1.2987
 2753TIP3    H229895   6.701   0.651   1.573 -1.7162  0.5861 -0.5516
 2754TIP3   OH229896   0.027   1.787   2.677  0.3951 -0.5360  0.0802
 2754TIP3    H129897  -0.018   1.855   2.626  1.9593  0.0810 -0.5570
 2754TIP3    H229898  -0.021   1.783   2.759  0.1386  1.2168  0.0549
 2755TIP3   OH229899   1.827   1.662   1.127 -0.3358  0.1899 -0.0749
 2755TIP3    H129900   1.870   1.578   1.110 -0.2057  0.4757 -1.2855
 2755TIP3    H229901   1.740   1.638   1.158  0.5575 -0.3930  2.1487
 2756TIP3   OH229902   1.805   2.502   7.621  0.1213 -0.0746  0.2841
 2756TIP3    H129903   1.712   2.482   7.631  0.2264 -0.3314  0.7417
 2756TIP3    H229904   1.838   2.437   7.559 -0.6037  1.7298 -2.1483
 2757TIP3   OH229905   1.113   3.482   1.638 -0.2278  0.2146 -0.0358
 2757TIP3    H129906   1.084   3.439   1.718 -0.4573 -1.3341 -0.9019
 2757TIP3    H229907   1.033   3.513   1.596 -0.0377  1.8517  0.7444
 2758TIP3   OH229908   6.799   0.532   2.420 -0.9122  0.5530  0.1752
 2758TIP3    H129909   6.879   0.510   2.467 -0.2076  1.6727 -0.4784
 2758TIP3    H229910   6.729   0.516   2.484 -0.0262  1.4479  1.4223
 2759TIP3   OH229911   5.470   0.553   7.332  0.2543  0.1071  0.5242
 2759TIP3    H129912   5.401   0.603   7.376 -2.0029 -2.4955  0.1936
 2759TIP3    H229913   5.522   0.517   7.403  0.2184  0.6725  0.8439
 2760TIP3   OH229914   2.973   0.602   2.496  0.3292 -0.5297 -0.2138
 2760TIP3    H129915   2.942   0.513   2.481  1.0451 -1.0371  1.2025
 2760TIP3    H229916   2.895   0.657   2.483 -0.1241 -1.3384 -1.0499
 2761TIP3   OH229917   3.700   0.524   0.455  0.3094  0.6433 -0.2898
 2761TIP3    H129918   3.737   0.491   0.537  0.5604  1.8335  0.0832
 2761TIP3    H229919   3.605   0.515   0.466 -0.0071  4.4824  1.8508
 2762TIP3   OH229920   3.529   5.030   6.665  0.7965  0.5109  0.4896
 2762TIP3    H129921   3.548   4.944   6.702 -0.3871 -0.3816 -0.8694
 2762TIP3    H229922   3.461   5.014   6.600  1.4399  2.2847 -0.7099
 2763TIP3   OH229923   0.631   3.565   7.796 -0.2136 -0.3479 -0.5214
 2763TIP3    H129924   0.698   3.580   7.729  0.9866 -0.3206  0.6495
 2763TIP3    H229925   0.623   3.649   7.841  0.0123 -0.7316  0.2585
 2764TIP3   OH229926   4.643   0.165   7.799  0.1606 -0.0358  0.1519
 2764TIP3    H129927   4.638   0.224   7.724 -0.2774  2.5790  2.0926
 2764TIP3    H229928   4.717   0.199   7.850 -0.0457 -1.2695  1.3077
 2765TIP3   OH229929   5.856   0.827   0.214  0.5427 -0.3010 -0.8525
 2765TIP3    H129930   5.826   0.786   0.133  1.6127 -0.0351 -1.4070
 2765TIP3    H229931   5.899   0.908   0.185  1.4565 -0.4872 -0.0768
 2766TIP3   OH229932   6.538   4.353   6.206  0.4978  0.5058 -0.1163
 2766TIP3    H129933   6.496   4.278   6.165  1.7693 -0.2696 -0.0437
 2766TIP3    H229934   6.514   4.347   6.298 -0.4657  0.9516 -0.3180
 2767TIP3   OH229935   0.935   1.206   7.754 -0.7212 -0.0283 -0.2367
 2767TIP3    H129936   1.017   1.228   7.710 -1.1888  0.8806 -0.6876
 2767TIP3    H229937   0.960   1.141   7.820 -0.0994 -1.9398 -2.2389
 2768TIP3   OH229938   3.828   5.870   7.044  0.2822  0.1154  0.1410
 2768TIP3    H129939   3.769   5.809   7.090  0.7818 -0.1626  0.4179
 2768TIP3    H229940   3.827   5.839   6.953 -1.9051  1.5769 -0.4163
 2769TIP3   OH229941   0.615   1.024   0.257 -0.8489  0.5795  0.4607
 2769TIP3    H129942   0.583   0.941   0.222 -0.4278  1.1406 -1.3617
 2769TIP3    H229943   0.537   1.079   0.266 -0.7030  1.3852 -2.3964
 2770TIP3   OH229944   5.194   1.478   7.344  0.6366  0.5711  0.2541
 2770TIP3    H129945   5.166   1.569   7.350 -0.6748  0.0904  2.3725
 2770TIP3    H229946   5.114   1.427   7.351  0.9916 -0.8408 -3.5281
 2771TIP3   OH229947   1.712   2.268   1.984 -0.0602 -0.4897  0.1168
 2771TIP3    H129948   1.684   2.211   2.055 -0.6979 -3.0907 -2.0387
 2771TIP3    H229949   1.631   2.291   1.939  0.4467 -0.3286 -0.7379
 2772TIP3   OH229950   5.200   4.065   7.508 -0.0669 -0.2004 -0.8851
 2772TIP3    H129951   5.235   4.151   7.488  0.8910 -0.9876 -2.9265
 2772TIP3    H229952   5.265   4.004   7.471  0.2288 -1.8651  2.0711
 2773TIP3   OH229953   3.792   3.497   7.144 -0.7829 -0.3842 -0.2635
 2773TIP3    H129954   3.788   3.464   7.054  0.8357 -1.6082  0.0822
 2773TIP3    H229955   3.880   3.535   7.152 -1.8449  2.2444  0.0057
 2774TIP3   OH229956   6.862   2.324   2.874  0.4913  0.0922  0.7334
 2774TIP3    H129957   6.771   2.324   2.845  1.6023  1.8865 -3.5193
 2774TIP3    H229958   6.876   2.410   2.912  0.2027 -0.6721  2.7283
 2775TIP3   OH229959   6.124   2.148   0.002 -0.2392  0.7822  0.3081
 2775TIP3    H129960   6.032   2.119   0.003  0.0057 -0.1245 -0.5122
 2775TIP3    H229961   6.161   2.115   0.084  0.1419 -1.8136 -0.7794
 2776TIP3   OH229962   6.373   0.098   0.987 -0.0879  0.1727 -0.5607
 2776TIP3    H129963   6.455   0.147   0.994  0.7801 -1.2686 -0.3043
 2776TIP3    H229964   6.366   0.050   1.070 -1.5551  0.7897 -0.2848
 2777TIP3   OH229965   3.804   3.651   0.839  0.2338  0.6820 -0.5513
 2777TIP3    H129966   3.717   3.615   0.823 -0.8551  2.7495  0.3120
 2777TIP3    H229967   3.800   3.684   0.928  1.9932  0.6286 -0.4320
 2778TIP3   OH229968   0.210   2.174   7.062  0.0100 -0.1524 -0.0926
 2778TIP3    H129969   0.136   2.220   7.023 -1.1263 -1.0334  0.9585
 2778TIP3    H229970   0.186   2.162   7.154  1.5972 -0.1872  0.3425
 2779TIP3   OH229971   6.541   3.225   0.117  0.2154 -0.1737 -0.6964
 2779TIP3    H129972   6.487   3.145   0.112  0.8698 -0.6458 -0.3419
 2779TIP3    H229973   6.601   3.217   0.043  2.0123 -1.3181  0.7953
 2780TIP3   OH229974   3.802   4.974   7.128 -0.1348 -0.2360 -0.7336
 2780TIP3    H129975   3.765   4.978   7.217 -1.7064  0.7402 -1.3720
 2780TIP3    H229976   3.779   5.059   7.090 -0.8671 -1.2079 -2.5771
 2781TIP3   OH229977   2.844   4.132   1.550  0.5573  1.2818  0.5946
 2781TIP3    H129978   2.921   4.178   1.584  2.6419 -1.6824  0.2001
 2781TIP3    H229979   2.823   4.068   1.618 -1.7426  2.0938  0.7471
 2782TIP3   OH229980   0.639   4.237   2.316  0.1425 -0.4184 -0.1905
 2782TIP3    H129981   0.677   4.316   2.355  0.3566  0.2799 -1.7123
 2782TIP3    H229982   0.711   4.199   2.266 -0.4326 -0.5695 -0.9241
 2783TIP3   OH229983   1.724   3.892   7.259  0.1986 -0.5210 -0.7328
 2783TIP3    H129984   1.806   3.906   7.213  2.3800 -0.0940  2.9290
 2783TIP3    H229985   1.737   3.811   7.307 -0.5133  0.7706  1.7970
 2784TIP3   OH229986   4.847   0.115   1.421 -0.1962 -0.2799 -0.2417
 2784TIP3    H129987   4.764   0.150   1.390 -0.0715  0.1263 -0.1229
 2784TIP3    H229988   4.863   0.160   1.504  0.8991  0.8121 -1.0078
 2785TIP3   OH229989   4.355   0.188   2.013  0.0199  0.2265  0.1004
 2785TIP3    H129990   4.376   0.280   1.999  0.3738  0.1241 -0.0705
 2785TIP3    H229991   4.419   0.158   2.078  0.7595 -0.2159 -0.7979
 2786TIP3   OH229992   3.577   6.611   2.041  0.3545 -0.8164 -0.0901
 2786TIP3    H129993   3.647   6.671   2.063 -0.9948  1.7110 -2.1274
 2786TIP3    H229994   3.612   6.524   2.062  4.0939  0.2777 -1.0639
 2787TIP3   OH229995   4.306   4.958   7.962 -0.2354  0.3901 -0.4859
 2787TIP3    H129996   4.347   5.030   8.011  0.0189 -0.1268  0.0837
 2787TIP3    H229997   4.380   4.913   7.920 -0.4248  0.6527 -1.0956
 2788TIP3   OH229998   5.215   6.914   7.570  0.1486 -0.0596 -0.4503
 2788TIP3    H129999   5.159   6.910   7.492  0.0514 -1.0761 -0.3369
 2788TIP3    H230000   5.163   6.871   7.638  0.2074  0.8779  0.1998
 2789TIP3   OH230001   4.919   0.286   1.657 -0.9779  0.4194  0.3116
 2789TIP3    H130002   4.964   0.363   1.624 -0.2714 -0.2446 -0.3017
 2789TIP3    H230003   4.836   0.320   1.692 -0.4303  1.5264  0.5945
 2790TIP3   OH230004   5.676   4.994   7.152  0.1973 -0.8856  0.0893
 2790TIP3    H130005   5.757   4.969   7.198  0.3015 -1.8800 -0.6127
 2790TIP3    H230006   5.694   4.977   7.060 -0.9222 -1.4382 -0.0444
 2791TIP3   OH230007   0.173   4.188   6.137  0.0251 -0.1485  0.1099
 2791TIP3    H130008   0.179   4.214   6.045  0.1730  2.2012  0.7250
 2791TIP3    H230009   0.087   4.218   6.165 -0.4902 -1.8865  0.4755
 2792TIP3   OH230010   4.797   3.138   0.306  0.3276 -0.0983  0.5674
 2792TIP3    H130011   4.803   3.051   0.266 -0.7557  0.3645 -0.6671
 2792TIP3    H230012   4.872   3.186   0.270  0.1664 -0.1208  0.1971
 2793TIP3   OH230013   4.427   5.857   7.228  0.1282  0.1826  0.6841
 2793TIP3    H130014   4.503   5.874   7.172 -0.1760  2.0097  0.7585
 2793TIP3    H230015   4.460   5.803   7.299  0.8312 -0.9786 -0.4744
 2794TIP3   OH230016   1.369   4.642   8.396  0.0266  0.7365  0.1667
 2794TIP3    H130017   1.305   4.671   8.461  0.0839 -0.5044  0.8025
 2794TIP3    H230018   1.347   4.692   8.317  0.9109  3.3865  1.5079
 2795TIP3   OH230019   4.606   0.058   1.740 -0.3125 -0.1612 -0.4177
 2795TIP3    H130020   4.641   0.146   1.750  0.8142 -0.5478 -0.8402
 2795TIP3    H230021   4.671   0.012   1.687 -0.2826 -1.6130  0.8120
 2796TIP3   OH230022   2.618   6.883   0.390 -0.3507 -0.2512  0.1075
 2796TIP3    H130023   2.564   6.962   0.380  1.9889  1.2982 -1.3007
 2796TIP3    H230024   2.672   6.901   0.467  1.3407  0.3349 -1.1504
 2797TIP3   OH230025   4.915   1.871   0.239  0.3337 -0.0155 -0.6250
 2797TIP3    H130026   4.956   1.856   0.324 -0.1697  0.2036 -0.3380
 2797TIP3    H230027   4.963   1.944   0.201  0.5451 -0.0984 -0.5142
 2798TIP3   OH230028   2.445   0.568   7.937 -0.3856  0.0489  0.0212
 2798TIP3    H130029   2.467   0.660   7.948  0.3804 -0.2797  1.6404
 2798TIP3    H230030   2.367   0.556   7.992 -1.4171  0.0275 -1.3861
 2799TIP3   OH230031   1.412   3.215   7.376  0.3354 -0.2708  0.3333
 2799TIP3    H130032   1.449   3.131   7.403  2.0193  0.7562  1.4248
 2799TIP3    H230033   1.475   3.280   7.408 -1.4538  1.4738  0.4993
 2800TIP3   OH230034   1.171   1.849   1.747  0.6234  0.4265 -0.1343
 2800TIP3    H130035   1.229   1.895   1.808  0.7352 -0.2430  0.2735
 2800TIP3    H230036   1.160   1.910   1.674  0.3964  1.2894  0.5999
 2801TIP3   OH230037   6.149   1.743   0.294  0.0538 -0.4788 -1.7043
 2801TIP3    H130038   6.101   1.679   0.241  0.8176 -2.8406  0.2394
 2801TIP3    H230039   6.241   1.718   0.285  0.2212 -1.0060  0.6241
 2802TIP3   OH230040   5.902   3.763   8.299  0.3837  0.1427  0.2854
 2802TIP3    H130041   5.827   3.768   8.239  1.1883  0.0192 -0.7391
 2802TIP3    H230042   5.965   3.705   8.255  1.4476  0.9347  0.7371
 2803TIP3   OH230043   3.530   4.294   8.053 -0.4006 -0.0491  0.0344
 2803TIP3    H130044   3.503   4.338   7.973 -0.3253  0.5034  0.3131
 2803TIP3    H230045   3.598   4.233   8.024 -0.8233 -0.3156 -0.4191
 2804TIP3   OH230046   4.065   3.636   0.730  0.3236  0.0697  0.4825
 2804TIP3    H130047   4.057   3.732   0.725 -0.1322  0.0719  1.1239
 2804TIP3    H230048   4.023   3.613   0.813 -0.7362 -0.8218 -0.2752
 2805TIP3   OH230049   4.531   1.666   0.899  0.7400  0.1150  0.0057
 2805TIP3    H130050   4.579   1.731   0.846  2.5883 -1.2224 -0.0534
 2805TIP3    H230051   4.540   1.584   0.850 -1.9694 -0.1784 -0.1685
 2806TIP3   OH230052   6.202   4.513   6.342 -0.4200  0.6765  0.4679
 2806TIP3    H130053   6.188   4.450   6.272  1.2086  2.3909 -1.5529
 2806TIP3    H230054   6.243   4.464   6.413 -1.5963 -0.9999  0.0270
 2807TIP3   OH230055   1.621   4.302   7.533  0.5460  0.0902 -0.1950
 2807TIP3    H130056   1.707   4.339   7.551  0.9780 -1.6125  1.5182
 2807TIP3    H230057   1.639   4.213   7.501 -0.5582  0.1005 -0.9070
 2808TIP3   OH230058   1.593   6.069   8.035  0.8604  0.5869 -0.1419
 2808TIP3    H130059   1.669   6.090   8.090  0.1323  2.0956  0.3417
 2808TIP3    H230060   1.525   6.046   8.098  0.0573  2.1885 -0.3800
 2809TIP3   OH230061   3.907   1.310   1.962 -0.5125  0.0316 -0.2971
 2809TIP3    H130062   3.883   1.226   1.921 -0.5438 -0.0464 -0.1187
 2809TIP3    H230063   3.863   1.308   2.047  1.3281 -0.7808  0.6915
 2810TIP3   OH230064   0.495   5.616   1.632 -0.2265 -0.2893 -0.9023
 2810TIP3    H130065   0.512   5.642   1.723 -0.7308  0.0740 -0.9037
 2810TIP3    H230066   0.580   5.591   1.598  0.0583  0.0771 -0.4799
 2811TIP3   OH230067   6.388   6.734   0.315 -0.0634 -0.4592  0.0927
 2811TIP3    H130068   6.361   6.669   0.379  0.3451 -1.0865 -0.3561
 2811TIP3    H230069   6.479   6.755   0.338 -0.5848  0.9339  1.0201
 2812TIP3   OH230070   4.090   4.856   8.281 -0.0316  0.2968 -1.0425
 2812TIP3    H130071   4.096   4.789   8.213 -1.2829 -4.1237  2.6857
 2812TIP3    H230072   4.178   4.859   8.319 -0.6005 -1.4488  0.5275
 2813TIP3   OH230073   4.294   4.021   1.435 -0.5411  0.0347  0.3639
 2813TIP3    H130074   4.306   4.113   1.412 -1.0138  0.1138  0.4085
 2813TIP3    H230075   4.347   4.008   1.513  0.8806 -0.1728 -0.6111
 2814TIP3   OH230076   4.510   0.478   0.382 -0.7315  0.2739 -0.1508
 2814TIP3    H130077   4.492   0.559   0.430  0.8121  2.8795 -3.5488
 2814TIP3    H230078   4.425   0.454   0.343 -1.1604  0.3649  0.7145
 2815TIP3   OH230079   4.896   4.126   1.887 -0.0643  0.7180 -0.5054
 2815TIP3    H130080   4.981   4.081   1.886 -0.1413  0.5823 -1.1660
 2815TIP3    H230081   4.847   4.083   1.957  0.1441  0.2987 -0.6116
 2816TIP3   OH230082   4.528   2.692   1.470 -0.1608  0.4040 -0.1256
 2816TIP3    H130083   4.535   2.685   1.374  0.2026  0.4458 -0.1045
 2816TIP3    H230084   4.501   2.604   1.498  1.1784 -0.0450 -0.1455
 2817TIP3   OH230085   0.147   6.958   0.700  0.3178 -0.5712 -0.0446
 2817TIP3    H130086   0.067   6.906   0.698  0.1876 -0.4842  1.6768
 2817TIP3    H230087   0.145   7.002   0.785  2.0450 -0.3193 -0.1053
 2818TIP3   OH230088   3.017   4.871   8.168  0.2559  0.8709 -0.4852
 2818TIP3    H130089   2.992   4.923   8.245 -2.0383  1.8633 -1.8002
 2818TIP3    H230090   2.948   4.806   8.160 -0.6609  2.0238 -2.7780
 2819TIP3   OH230091   4.938   6.165   2.118  0.0185  0.0917  0.0894
 2819TIP3    H130092   5.025   6.135   2.143 -0.0380 -1.4602 -1.4150
 2819TIP3    H230093   4.940   6.169   2.022 -1.4027  0.5221  0.0525
 2820TIP3   OH230094   3.631   5.799   7.996  0.3678 -0.3277 -0.0261
 2820TIP3    H130095   3.614   5.780   7.904 -0.5730  0.3660 -0.0121
 2820TIP3    H230096   3.545   5.820   8.032  0.3652 -2.5434  1.4946
 2821TIP3   OH230097   4.760   4.830   0.815  0.4383  0.3336 -0.1424
 2821TIP3    H130098   4.695   4.823   0.885 -0.2221  1.3129 -0.6268
 2821TIP3    H230099   4.758   4.923   0.790  0.3635 -0.0622 -1.7264
 2822TIP3   OH230100   5.173   4.472   7.750 -0.1504 -0.4001 -0.4350
 2822TIP3    H130101   5.143   4.384   7.728  1.4381 -1.2761  0.7679
 2822TIP3    H230102   5.136   4.489   7.836  0.3593 -0.2991 -0.2330
 2823TIP3   OH230103   6.009   3.094   7.469  0.5898 -0.3159  1.0643
 2823TIP3    H130104   5.987   3.012   7.424 -0.7460  0.8675 -0.5962
 2823TIP3    H230105   6.096   3.079   7.505  1.6232 -1.5155 -1.6581
 2824TIP3   OH230106   1.257   5.984   1.197  0.2853  0.4567  0.0669
 2824TIP3    H130107   1.262   6.075   1.224 -0.1441  0.4608  0.1385
 2824TIP3    H230108   1.336   5.970   1.144  0.9730  0.5339  1.0508
 2825TIP3   OH230109   5.631   5.173   6.705  0.5859 -0.0226  0.0187
 2825TIP3    H130110   5.706   5.183   6.764 -0.2242 -0.2203  1.1087
 2825TIP3    H230111   5.635   5.250   6.648  0.8327  0.6742  0.9651
 2826TIP3   OH230112   4.687   5.172   1.963 -0.2204  0.1703  0.0363
 2826TIP3    H130113   4.676   5.163   2.058  1.2506 -0.6542  0.1480
 2826TIP3    H230114   4.747   5.246   1.952 -0.4897  0.3496 -0.2645
 2827TIP3   OH230115   1.034   1.800   0.430  0.0510 -0.5245 -0.3905
 2827TIP3    H130116   0.965   1.813   0.364 -1.1041  3.0589  1.3012
 2827TIP3    H230117   1.101   1.864   0.407  0.3622 -0.3316  0.9990
 2828TIP3   OH230118   4.847   0.157   8.086  0.7632 -0.0548  0.6238
 2828TIP3    H130119   4.907   0.137   8.159  2.8698  1.6401 -0.5027
 2828TIP3    H230120   4.815   0.245   8.105 -1.3884 -0.8922  1.1391
 2829TIP3   OH230121   2.539   5.438   8.368 -0.2406  0.2771 -0.3204
 2829TIP3    H130122   2.623   5.459   8.408  1.2929 -1.9486 -2.1477
 2829TIP3    H230123   2.530   5.343   8.378 -1.3727  0.1197 -2.2438
 2830TIP3   OH230124   4.941   5.470   1.816  0.1961  0.0967 -0.9174
 2830TIP3    H130125   4.947   5.435   1.904 -0.8105 -1.1713 -1.3306
 2830TIP3    H230126   4.996   5.413   1.763  0.0123  0.2566 -1.2860
 2831TIP3   OH230127   4.262   5.023   7.624 -0.5693 -0.0250 -0.6239
 2831TIP3    H130128   4.340   4.990   7.667  0.3802  1.0184 -1.4981
 2831TIP3    H230129   4.189   4.988   7.676  0.5146  0.9651  1.6745
 2832TIP3   OH230130   6.011   0.753   0.974 -0.3342 -0.2047 -0.2546
 2832TIP3    H130131   6.057   0.672   0.951  0.6288 -0.3941  2.0109
 2832TIP3    H230132   6.078   0.821   0.964 -0.7490  0.1211 -0.8342
 2833TIP3   OH230133   2.624   2.561   8.212  1.1242  0.1787 -0.6320
 2833TIP3    H130134   2.622   2.558   8.117  1.6038 -1.2507 -0.6177
 2833TIP3    H230135   2.534   2.543   8.239  1.0039  0.5085 -0.8178
 2834TIP3   OH230136   2.771   4.045   1.797 -0.0309 -0.4969  0.0052
 2834TIP3    H130137   2.689   4.069   1.840 -0.4422  0.1398 -1.0855
 2834TIP3    H230138   2.793   3.960   1.834 -1.3048 -0.7931  0.1426
 2835TIP3   OH230139   3.841   4.061   6.977 -0.2769 -0.3184 -0.8470
 2835TIP3    H130140   3.863   4.124   7.045 -1.5384 -0.1711 -0.5561
 2835TIP3    H230141   3.899   3.986   6.994 -0.4436 -0.2018  0.2720
 2836TIP3   OH230142   4.502   4.086   7.212 -0.1001  0.4159  0.5833
 2836TIP3    H130143   4.527   4.052   7.126 -2.7488 -0.2712 -0.0229
 2836TIP3    H230144   4.534   4.022   7.274 -1.4489 -1.1502 -0.2526
 2837TIP3   OH230145   2.998   6.606   1.444  0.0217  0.7009  0.2823
 2837TIP3    H130146   3.084   6.625   1.406 -0.2478  0.3919 -0.5023
 2837TIP3    H230147   3.015   6.538   1.509  0.4566  1.0534  0.5386
 2838TIP3   OH230148   6.610   1.152   1.028  0.1540  0.1221 -0.2359
 2838TIP3    H130149   6.697   1.162   1.068  0.2900 -1.7052  0.0535
 2838TIP3    H230150   6.549   1.167   1.100  0.2963 -0.1174 -0.0627
 2839TIP3   OH230151   1.434   3.981   1.104  0.0870 -0.5307 -0.4920
 2839TIP3    H130152   1.396   4.038   1.171  0.1903 -0.5218 -0.4407
 2839TIP3    H230153   1.528   3.997   1.109  0.0371  0.0148 -1.1412
 2840TIP3   OH230154   5.917   1.645   2.255  0.3427  0.3905  0.0877
 2840TIP3    H130155   5.833   1.602   2.239  0.0121  0.7737  0.7446
 2840TIP3    H230156   5.971   1.578   2.297  1.0599 -0.4768 -2.0556
 2841TIP3   OH230157   5.742   2.484   6.706 -0.2447  0.2083  0.4641
 2841TIP3    H130158   5.665   2.431   6.726 -0.2121  0.2718  0.7696
 2841TIP3    H230159   5.798   2.427   6.653 -0.6918  0.3047 -0.1321
 2842TIP3   OH230160   1.982   1.365   6.617 -0.3154  0.5921 -0.1212
 2842TIP3    H130161   2.006   1.383   6.708 -0.3449 -0.8770  0.2068
 2842TIP3    H230162   2.058   1.318   6.581 -0.5959  0.5206 -0.6340
 2843TIP3   OH230163   2.445   2.470   1.105  0.0429 -0.2341  0.2159
 2843TIP3    H130164   2.414   2.560   1.106  0.0290 -0.1514 -1.8801
 2843TIP3    H230165   2.385   2.425   1.045 -0.5312 -1.8937  1.9160
 2844TIP3   OH230166   3.408   5.646   7.155  0.5173  0.3541  0.2855
 2844TIP3    H130167   3.352   5.586   7.105 -1.3115  1.3315  1.0727
 2844TIP3    H230168   3.358   5.666   7.234  2.0078  1.2680  1.0488
 2845TIP3   OH230169   4.595   2.823   1.786 -0.1944  0.4760  0.0986
 2845TIP3    H130170   4.596   2.901   1.841  0.8351 -0.4242  1.4211
 2845TIP3    H230171   4.673   2.774   1.812 -1.0003 -1.1687 -0.4262
 2846TIP3   OH230172   6.376   0.511   0.528 -0.7493  0.2540 -0.2784
 2846TIP3    H130173   6.366   0.432   0.582  2.2901  0.0187  0.1006
 2846TIP3    H230174   6.332   0.580   0.578  0.1645 -0.3927  1.4877
 2847TIP3   OH230175   3.282   0.565   0.770 -0.3713 -0.0257 -0.3551
 2847TIP3    H130176   3.324   0.629   0.712 -1.0743 -0.2814 -1.1657
 2847TIP3    H230177   3.350   0.541   0.832  0.6282 -0.2976 -1.5240
 2848TIP3   OH230178   2.261   1.481   1.412  0.1750  0.0259  0.6278
 2848TIP3    H130179   2.355   1.468   1.400 -0.2438 -1.4000 -1.8114
 2848TIP3    H230180   2.240   1.555   1.355 -0.2256  0.1863  0.9772
 2849TIP3   OH230181   4.726   6.346   2.180  0.3095  0.3807  0.1332
 2849TIP3    H130182   4.734   6.388   2.095  0.6889 -1.0175 -0.5499
 2849TIP3    H230183   4.787   6.272   2.176 -0.7287 -0.5574  1.0742
 2850TIP3   OH230184   6.411   1.137   0.265 -0.0727  0.0785  0.3025
 2850TIP3    H130185   6.495   1.155   0.223  0.7113 -1.7595  0.9589
 2850TIP3    H230186   6.369   1.072   0.209 -1.7479  1.9766 -0.7640
 2851TIP3   OH230187   1.180   6.562   6.921 -0.1950 -0.2225  0.4068
 2851TIP3    H130188   1.172   6.467   6.926  0.4277 -0.2421  1.2096
 2851TIP3    H230189   1.101   6.590   6.876 -1.2529 -0.9786  1.7120
 2852TIP3   OH230190   6.844   6.110   0.612  0.1644 -0.0825 -0.4668
 2852TIP3    H130191   6.877   6.142   0.528  0.4771 -1.3952 -0.8744
 2852TIP3    H230192   6.876   6.020   0.618 -0.9520 -0.4535  0.4514
 2853TIP3   OH230193   0.720   0.709   1.065  0.6433 -1.0479  0.5623
 2853TIP3    H130194   0.688   0.693   0.977  1.4795  0.1903  0.0015
 2853TIP3    H230195   0.775   0.787   1.057 -1.2742  0.6832  2.6125
 2854TIP3   OH230196   6.743   6.852   7.205  0.3568 -0.4626  0.2402
 2854TIP3    H130197   6.697   6.878   7.125  1.6954 -0.5432 -0.5781
 2854TIP3    H230198   6.797   6.778   7.179  0.2440 -0.9693  1.4059
 2855TIP3   OH230199   2.321   0.601   7.356  0.0007 -0.2666  0.0965
 2855TIP3    H130200   2.401   0.561   7.323  0.0015 -0.2425  0.0694
 2855TIP3    H230201   2.295   0.663   7.288  0.0507 -0.1530  0.1797
 2856TIP3   OH230202   0.219   6.214   7.948  0.1772  0.0114 -0.0184
 2856TIP3    H130203   0.214   6.175   8.035  0.6978 -0.1102 -0.0369
 2856TIP3    H230204   0.176   6.150   7.891  3.5964 -2.0835 -0.5410
 2857TIP3   OH230205   1.766   2.094   1.712  0.4301  0.4945  0.5259
 2857TIP3    H130206   1.842   2.086   1.653 -1.1552  0.4232 -1.6353
 2857TIP3    H230207   1.764   2.186   1.737  0.8126  0.6517 -0.0115
 2858TIP3   OH230208   0.924   5.345   7.058 -0.0598  0.4129 -0.9935
 2858TIP3    H130209   0.995   5.404   7.081 -1.5641  0.8028  3.5447
 2858TIP3    H230210   0.955   5.258   7.083 -1.0906  0.6030  1.1483
 2859TIP3   OH230211   2.495   1.579   0.068 -0.2541  0.1941 -0.2347
 2859TIP3    H130212   2.422   1.635   0.094 -1.1155 -0.4824 -1.1007
 2859TIP3    H230213   2.455   1.511   0.014  0.5561 -1.9533  1.6957
 2860TIP3   OH230214   0.721   5.639   7.954  1.0533  0.3373 -0.0317
 2860TIP3    H130215   0.712   5.566   7.894 -0.0558  1.1785 -0.9383
 2860TIP3    H230216   0.634   5.680   7.955  1.0187  0.3322  2.1765
 2861TIP3   OH230217   5.483   0.039   8.412 -0.1816 -0.0210  0.2331
 2861TIP3    H130218   5.413   0.015   8.474  0.8952 -2.9992  0.4699
 2861TIP3    H230219   5.561   0.046   8.466  0.0756  1.5484 -0.2872
 2862TIP3   OH230220   1.690   1.115   7.307  0.4120  0.2402  0.0235
 2862TIP3    H130221   1.757   1.173   7.269 -1.4282  1.0033 -2.3165
 2862TIP3    H230222   1.638   1.173   7.363 -0.5486  0.5905 -1.1808
 2863TIP3   OH230223   4.718   1.303   6.531 -0.7459 -0.3240 -0.3923
 2863TIP3    H130224   4.770   1.382   6.544 -0.3363 -0.7933  0.9714
 2863TIP3    H230225   4.780   1.231   6.541 -1.4331 -0.8615  0.1025
 2864TIP3   OH230226   2.207   3.950   0.714  0.2439  0.0805  0.2721
 2864TIP3    H130227   2.220   3.892   0.639 -0.2654  0.1176  0.1548
 2864TIP3    H230228   2.122   3.992   0.698  0.3627  0.4641  0.6171
 2865TIP3   OH230229   3.971   0.468   7.075  0.1633  0.3929 -0.5899
 2865TIP3    H130230   3.909   0.462   7.002 -1.1328  0.9835  0.4114
 2865TIP3    H230231   4.015   0.383   7.077 -0.4761  0.0284 -1.4495
 2866TIP3   OH230232   3.776   6.021   7.733 -1.1913 -0.1811 -0.0762
 2866TIP3    H130233   3.750   5.935   7.698  0.1959 -1.7266  2.3901
 2866TIP3    H230234   3.827   6.060   7.663 -2.2440 -1.1368 -1.4378
 2867TIP3   OH230235   1.492   0.964   1.040 -0.0721 -0.2021 -0.4681
 2867TIP3    H130236   1.490   1.052   1.002 -1.3944  1.2413  2.6273
 2867TIP3    H230237   1.568   0.965   1.099 -0.3189 -1.0355 -0.1238
 2868TIP3   OH230238   3.984   6.616   1.121  0.4551 -0.1139  0.1777
 2868TIP3    H130239   3.925   6.612   1.196  2.1991  0.6666  1.6630
 2868TIP3    H230240   4.068   6.587   1.155  1.0438 -0.8891 -1.7956
 2869TIP3   OH230241   6.154   1.359   2.146  0.0086  0.2445 -0.0279
 2869TIP3    H130242   6.128   1.404   2.226  0.6312 -0.6513  0.6955
 2869TIP3    H230243   6.239   1.397   2.123 -0.5735  1.1356 -0.7855
 2870TIP3   OH230244   1.755   5.059   0.785  0.0361  0.2920 -0.0209
 2870TIP3    H130245   1.685   5.119   0.759  0.6081  0.1039 -2.2459
 2870TIP3    H230246   1.711   4.975   0.801 -0.4477  0.6292  0.4277
 2871TIP3   OH230247   2.685   6.214   7.262 -0.1501  0.7270  0.0775
 2871TIP3    H130248   2.601   6.253   7.284  0.1806  2.8982 -2.0969
 2871TIP3    H230249   2.683   6.204   7.167  1.4069 -0.8658  0.1487
 2872TIP3   OH230250   4.386   1.422   1.923  0.5837 -0.0566 -0.7509
 2872TIP3    H130251   4.449   1.459   1.985 -0.8987  1.1936  0.0604
 2872TIP3    H230252   4.300   1.438   1.962 -0.2717 -1.9967 -1.6831
 2873TIP3   OH230253   5.740   4.600   6.899 -0.1575 -0.0307  0.4578
 2873TIP3    H130254   5.680   4.672   6.879  0.0051  0.1510  0.6122
 2873TIP3    H230255   5.756   4.558   6.815  0.4036  0.6335  0.2182
 2874TIP3   OH230256   1.680   3.203   8.045  0.2544  0.3006 -0.2840
 2874TIP3    H130257   1.644   3.114   8.052  1.0037  0.0381  0.5415
 2874TIP3    H230258   1.606   3.257   8.018 -0.7463 -0.2387  1.2176
 2875TIP3   OH230259   5.363   4.968   0.523  0.1441  0.5679  0.3081
 2875TIP3    H130260   5.348   5.002   0.612  2.2393  2.0291  0.1620
 2875TIP3    H230261   5.362   5.046   0.468 -0.4394 -0.2619 -0.8918
 2876TIP3   OH230262   2.234   0.577   8.331  0.6476 -0.2688  0.4913
 2876TIP3    H130263   2.312   0.521   8.329  1.3982  0.7325  1.0163
 2876TIP3    H230264   2.219   0.600   8.239 -1.0247 -3.0930 -0.0584
 2877TIP3   OH230265   3.817   2.815   8.448 -0.7201  0.1422  0.3366
 2877TIP3    H130266   3.763   2.831   8.370 -0.8969  0.0473  0.4382
 2877TIP3    H230267   3.800   2.723   8.469 -0.9932  0.2835  0.7351
 2878TIP3   OH230268   3.250   2.135   8.154  0.4380 -0.5882  0.0557
 2878TIP3    H130269   3.248   2.111   8.246 -1.3390 -0.4334  0.1068
 2878TIP3    H230270   3.168   2.099   8.118  0.9197 -0.3400 -1.3717
 2879TIP3   OH230271   1.888   3.172   0.164  0.7176 -0.1902  0.5402
 2879TIP3    H130272   1.837   3.145   0.088  1.2374 -0.1365  0.1601
 2879TIP3    H230273   1.829   3.163   0.238  0.4186 -0.9303  0.2200
 2880TIP3   OH230274   2.337   3.555   1.476 -0.1300 -0.0972  0.2262
 2880TIP3    H130275   2.356   3.551   1.570  1.6597 -0.1901 -0.1003
 2880TIP3    H230276   2.356   3.645   1.451  1.4266 -0.5611 -0.3958
 2881TIP3   OH230277   4.389   0.101   0.707 -0.0822 -0.1418 -0.1731
 2881TIP3    H130278   4.403   0.195   0.716  2.6631 -0.5726  1.0597
 2881TIP3    H230279   4.398   0.084   0.614  0.0573  0.7539 -0.3297
 2882TIP3   OH230280   5.895   4.354   1.652 -0.0763 -0.2763 -0.2113
 2882TIP3    H130281   5.868   4.262   1.647 -0.3080 -0.3021  1.0984
 2882TIP3    H230282   5.819   4.399   1.688  0.2088  0.3368 -0.3716
 2883TIP3   OH230283   6.156   3.940   1.986 -0.3283  0.1325 -0.2455
 2883TIP3    H130284   6.160   3.952   2.081  1.2339  1.5279 -0.4380
 2883TIP3    H230285   6.096   4.007   1.956  0.0380  0.4166 -0.3439
 2884TIP3   OH230286   1.856   4.107   7.661 -0.3074  0.0712 -0.2914
 2884TIP3    H130287   1.814   4.098   7.576 -0.0112  1.2367 -0.5702
 2884TIP3    H230288   1.787   4.143   7.718  0.0228  1.1033 -0.5220
 2885TIP3   OH230289   1.263   3.149   8.293 -0.7341 -0.6403  0.4102
 2885TIP3    H130290   1.232   3.061   8.273  0.8894 -0.5640 -3.1271
 2885TIP3    H230291   1.208   3.206   8.240  1.2001 -0.0025 -1.0080
 2886TIP3   OH230292   3.001   4.552   1.450  0.1939 -1.0040  0.1568
 2886TIP3    H130293   3.060   4.627   1.451 -2.2560  1.1141 -1.2396
 2886TIP3    H230294   2.990   4.531   1.357 -0.8506 -1.6784  0.4153
 2887TIP3   OH230295   4.911   3.266   1.053  0.0808  0.2707  0.0830
 2887TIP3    H130296   4.872   3.239   0.970 -1.3346  0.6349  0.5942
 2887TIP3    H230297   4.836   3.277   1.112  0.9477  1.3166  1.0357
 2888TIP3   OH230298   4.050   6.055   1.133 -0.3024  0.0643 -0.2488
 2888TIP3    H130299   4.075   6.010   1.053 -1.2008  2.4100 -1.9758
 2888TIP3    H230300   3.954   6.060   1.129 -0.2631  1.5949  0.1505
 2889TIP3   OH230301   6.934   0.463   1.394  1.1820 -0.3829  0.2692
 2889TIP3    H130302   6.864   0.518   1.431 -0.6888 -2.1425 -0.4941
 2889TIP3    H230303   6.996   0.453   1.466  1.1956  2.0299  0.6797
 2890TIP3   OH230304   3.067   2.523   8.314  0.1967 -0.2936  0.1921
 2890TIP3    H130305   3.121   2.461   8.265 -2.7189 -1.1175 -2.3168
 2890TIP3    H230306   3.102   2.609   8.291  1.2431 -0.8404 -0.2911
 2891TIP3   OH230307   6.933   5.668   7.070 -0.1402  0.2093 -0.1727
 2891TIP3    H130308   6.852   5.706   7.103  0.3369 -0.2819  1.6986
 2891TIP3    H230309   6.951   5.715   6.989 -1.7658  0.9980 -0.1085
 2892TIP3   OH230310   3.767   6.090   7.303  0.1652  0.1378  0.0262
 2892TIP3    H130311   3.831   6.021   7.285 -1.4094 -2.0325  2.0591
 2892TIP3    H230312   3.792   6.123   7.390 -1.7840 -1.2458  1.1772
 2893TIP3   OH230313   1.865   0.178   6.080  0.2217 -0.4946 -0.1649
 2893TIP3    H130314   1.925   0.246   6.049 -0.2699 -0.6351 -1.4830
 2893TIP3    H230315   1.920   0.100   6.090  0.3198 -0.5686 -1.1711
 2894TIP3   OH230316   4.991   2.213   7.517  0.3809 -0.0787 -0.2266
 2894TIP3    H130317   4.921   2.228   7.580  0.1714  0.9994 -0.6912
 2894TIP3    H230318   5.072   2.215   7.569  0.1979  0.6130  0.0453
 2895TIP3   OH230319   1.100   4.456   2.554 -0.3174 -0.2899  0.0963
 2895TIP3    H130320   1.164   4.511   2.508 -0.0579  0.3497  1.1923
 2895TIP3    H230321   1.078   4.505   2.633  0.5252 -2.0792  1.5135
 2896TIP3   OH230322   0.619   5.330   7.980 -0.0847 -0.2391 -0.4351
 2896TIP3    H130323   0.690   5.273   7.952 -0.6345 -1.0287 -0.2552
 2896TIP3    H230324   0.583   5.365   7.898 -0.3010 -0.8363 -0.5965
 2897TIP3   OH230325   0.959   4.116   7.260  0.0832 -0.7250 -0.2966
 2897TIP3    H130326   0.869   4.116   7.294 -0.1812 -1.7397 -0.9413
 2897TIP3    H230327   0.972   4.026   7.229  0.2263  0.1961 -3.0933
 2898TIP3   OH230328   2.937   4.464   1.196 -0.3206 -0.4669  0.5822
 2898TIP3    H130329   2.960   4.505   1.113 -0.2655 -0.0925  0.7789
 2898TIP3    H230330   2.841   4.460   1.195 -0.2689 -2.3176 -0.3779
 2899TIP3   OH230331   3.737   3.405   7.773  0.2203  0.3181  0.3402
 2899TIP3    H130332   3.725   3.498   7.795  2.5788  0.6280  0.6026
 2899TIP3    H230333   3.675   3.389   7.702 -2.2607  1.2995  2.1213
 2900TIP3   OH230334   3.236   6.263   7.712  0.5935 -0.0611  0.4397
 2900TIP3    H130335   3.273   6.350   7.729 -0.9091  1.5265 -3.3190
 2900TIP3    H230336   3.310   6.210   7.685  1.2526  0.5805  0.9348
 2901TIP3   OH230337   2.901   1.502   7.619 -0.8271 -0.0222  0.0112
 2901TIP3    H130338   2.841   1.504   7.693 -1.6969  2.1322 -0.6953
 2901TIP3    H230339   2.988   1.502   7.658 -1.2684 -0.4129  1.0145
 2902TIP3   OH230340   2.332   3.790   8.122 -0.0483 -0.0551 -0.0145
 2902TIP3    H130341   2.276   3.800   8.045  1.3689  2.6560 -0.8191
 2902TIP3    H230342   2.314   3.868   8.174  2.1230  0.2994  0.2641
 2903TIP3   OH230343   0.726   4.118   2.700  0.1740  0.1308  0.2046
 2903TIP3    H130344   0.753   4.200   2.659 -0.6713  0.0308 -0.6051
 2903TIP3    H230345   0.806   4.081   2.735  0.4436  1.7011  1.3422
 2904TIP3   OH230346   5.198   4.895   0.075 -0.3046 -0.0865  0.0898
 2904TIP3    H130347   5.247   4.824   0.117  0.4716  1.3267  1.7231
 2904TIP3    H230348   5.260   4.935   0.015  0.1897  0.9076  1.2224
 2905TIP3   OH230349   4.604   3.472   1.662  0.4817  0.1924  0.2440
 2905TIP3    H130350   4.606   3.566   1.641  1.2612  0.1524  0.0950
 2905TIP3    H230351   4.580   3.469   1.755 -0.1682  0.5023  0.0967
 2906TIP3   OH230352   1.956   0.047   1.514  0.3868  0.4035 -0.0064
 2906TIP3    H130353   2.031   0.084   1.561 -0.0646  1.3966 -0.0327
 2906TIP3    H230354   1.891   0.117   1.514 -0.5161 -0.4181 -0.0600
 2907TIP3   OH230355   1.733   3.977   8.430 -0.1169 -0.3178  0.4317
 2907TIP3    H130356   1.750   3.883   8.421  0.0206 -0.2910  0.4072
 2907TIP3    H230357   1.808   4.019   8.388  0.5465 -0.1961  1.6776
 2908TIP3   OH230358   2.060   3.810   7.597  0.3178 -0.0924 -0.9391
 2908TIP3    H130359   2.136   3.797   7.540  1.6547 -2.2403  1.1308
 2908TIP3    H230360   2.004   3.734   7.581  0.1938 -0.1712 -0.1834
 2909TIP3   OH230361   6.250   1.227   7.707  0.4639 -0.4054  0.1813
 2909TIP3    H130362   6.257   1.293   7.777  0.4317  1.4615 -1.4896
 2909TIP3    H230363   6.175   1.173   7.732  0.3257  0.3387  1.4773
 2910TIP3   OH230364   0.391   2.130   0.869 -0.2037  0.6493  0.8670
 2910TIP3    H130365   0.308   2.142   0.823 -1.0384  0.1995  2.2047
 2910TIP3    H230366   0.367   2.083   0.949  1.0303  2.3385  2.2800
 2911TIP3   OH230367   2.350   3.325   0.920 -0.3829 -0.1575  0.7819
 2911TIP3    H130368   2.429   3.272   0.907  0.3350  1.0916 -0.1343
 2911TIP3    H230369   2.340   3.373   0.838  0.2380  2.7378  2.2472
 2912TIP3   OH230370   0.692   1.312   6.679 -0.2546  0.1412  0.1187
 2912TIP3    H130371   0.615   1.358   6.644 -1.6082 -0.9545  1.4882
 2912TIP3    H230372   0.684   1.223   6.647  0.2508 -0.0719  0.5631
 2913TIP3   OH230373   3.724   1.421   7.858 -0.2033 -0.6016  0.3709
 2913TIP3    H130374   3.761   1.457   7.778 -1.1543  1.0678  0.6497
 2913TIP3    H230375   3.752   1.329   7.858 -0.3828 -0.6993 -1.9690
 2914TIP3   OH230376   5.169   0.690   1.750 -0.1007  0.2174 -0.1716
 2914TIP3    H130377   5.229   0.763   1.765 -1.4451  1.5903 -1.1182
 2914TIP3    H230378   5.149   0.657   1.838 -0.8888  2.2252  0.4565
 2915TIP3   OH230379   5.207   2.362   1.645 -0.7472 -0.3009  0.4333
 2915TIP3    H130380   5.174   2.280   1.609 -0.7324 -0.6088  1.1141
 2915TIP3    H230381   5.212   2.347   1.739 -0.0898  0.2500  0.4925
 2916TIP3   OH230382   6.630   2.931   2.160  0.3745  0.0439 -0.3086
 2916TIP3    H130383   6.564   2.970   2.103  1.7808 -0.5325 -2.4370
 2916TIP3    H230384   6.609   2.837   2.159  0.7080 -0.0315 -0.2779
 2917TIP3   OH230385   3.793   5.271   0.691 -0.1080  0.0967 -0.2909
 2917TIP3    H130386   3.764   5.291   0.781 -1.2166 -0.2665 -0.5506
 2917TIP3    H230387   3.837   5.187   0.698  0.4516  0.4107  0.0285
 2918TIP3   OH230388   0.373   3.268   6.555 -0.1585  0.5870 -0.2064
 2918TIP3    H130389   0.337   3.356   6.561  0.2779  0.8093 -0.7231
 2918TIP3    H230390   0.371   3.247   6.461 -0.2625  0.0440 -0.0885
 2919TIP3   OH230391   0.432   6.386   6.731  0.3110 -0.6553 -0.2956
 2919TIP3    H130392   0.465   6.304   6.695 -1.4366 -1.0611 -1.0756
 2919TIP3    H230393   0.416   6.368   6.823 -0.0700 -1.1994 -0.4663
 2920TIP3   OH230394   4.795   2.169   7.707  0.5151 -0.2519  0.0089
 2920TIP3    H130395   4.760   2.089   7.668 -0.9517 -0.5902  1.8703
 2920TIP3    H230396   4.729   2.196   7.771  1.3976  1.9475  0.1032
 2921TIP3   OH230397   4.906   6.190   8.093  0.2291  0.4021  0.2439
 2921TIP3    H130398   4.978   6.179   8.155 -0.6208  1.2517  1.4302
 2921TIP3    H230399   4.946   6.181   8.007  1.6153  0.1422  0.8941
 2922TIP3   OH230400   5.656   2.327   1.317 -0.5563 -0.1333 -0.7154
 2922TIP3    H130401   5.748   2.306   1.304 -0.6948 -1.0717 -0.2450
 2922TIP3    H230402   5.641   2.406   1.264  0.7525  0.6236 -0.0082
 2923TIP3   OH230403   1.481   2.971   2.170  0.1650  0.2931  0.2126
 2923TIP3    H130404   1.474   2.882   2.136 -0.7148  0.5583 -0.3377
 2923TIP3    H230405   1.484   3.026   2.091 -1.0145  0.8598  0.5338
 2924TIP3   OH230406   2.539   0.317   1.484  0.0422  0.2198  0.3252
 2924TIP3    H130407   2.528   0.223   1.491 -0.8380  0.2575 -0.3945
 2924TIP3    H230408   2.482   0.343   1.411  1.0457  1.1687 -0.1498
 2925TIP3   OH230409   0.829   3.220   2.142  0.2368 -0.1706 -0.6498
 2925TIP3    H130410   0.924   3.224   2.152  0.1074  0.3454  0.5023
 2925TIP3    H230411   0.808   3.297   2.089  0.4545 -0.2953 -0.9228
 2926TIP3   OH230412   6.207   1.303   0.231 -0.4147 -0.1728  0.0577
 2926TIP3    H130413   6.285   1.247   0.235 -1.6054 -1.9332 -0.1594
 2926TIP3    H230414   6.160   1.284   0.312 -1.3939 -0.3909 -0.5324
 2927TIP3   OH230415   0.010   4.622   1.285 -0.3085 -0.1763  0.1424
 2927TIP3    H130416  -0.052   4.666   1.226  1.2819  0.2288 -1.3207
 2927TIP3    H230417   0.013   4.532   1.253  2.3511  0.5689 -2.1346
 2928TIP3   OH230418   5.674   6.285   6.835  0.0498 -0.3869  0.3575
 2928TIP3    H130419   5.599   6.342   6.820  0.4254 -0.2209 -0.9693
 2928TIP3    H230420   5.636   6.198   6.848 -0.4584 -0.0349  1.3515
 2929TIP3   OH230421   5.795   4.086   6.849  0.0387  0.0330 -0.0691
 2929TIP3    H130422   5.889   4.074   6.835  0.2822  2.3554 -0.8188
 2929TIP3    H230423   5.766   4.138   6.774 -1.8856 -0.6749  0.1258
 2930TIP3   OH230424   0.207   3.341   1.366 -0.1319 -0.1744  0.5980
 2930TIP3    H130425   0.130   3.349   1.422 -0.3400 -0.0144  0.2939
 2930TIP3    H230426   0.204   3.251   1.334 -1.5999  0.5268 -1.4017
 2931TIP3   OH230427   2.397   5.867   1.316 -0.6952 -0.7349 -0.1669
 2931TIP3    H130428   2.461   5.828   1.376  0.3852 -0.0295 -0.8120
 2931TIP3    H230429   2.367   5.794   1.262 -0.2744 -1.0507  0.0144
 2932TIP3   OH230430   0.936   0.434   7.474  0.2184  0.2472  0.2901
 2932TIP3    H130431   0.879   0.510   7.481  1.2993  1.0432  0.7553
 2932TIP3    H230432   0.897   0.380   7.405 -2.5873 -0.5582  2.3173
 2933TIP3   OH230433   1.714   2.412   0.930  0.0854  0.1015  0.5340
 2933TIP3    H130434   1.679   2.347   0.991  0.9033 -1.2234 -0.3679
 2933TIP3    H230435   1.647   2.420   0.862  0.6866 -1.0577 -0.2206
 2934TIP3   OH230436   4.008   2.777   2.562  0.1740  0.1796 -0.1368
 2934TIP3    H130437   4.013   2.839   2.635  0.1098  0.0318 -0.0055
 2934TIP3    H230438   4.066   2.706   2.588  0.2985  0.2140 -0.3170
 2935TIP3   OH230439   2.378   0.889   1.182  0.0062 -0.5205 -0.2889
 2935TIP3    H130440   2.341   0.963   1.230  0.3807 -0.5968  0.1207
 2935TIP3    H230441   2.340   0.812   1.224  1.7670 -0.6655  1.1423
 2936TIP3   OH230442   2.291   5.296   0.148  0.0674 -0.3033  0.2816
 2936TIP3    H130443   2.231   5.290   0.074  0.5148 -2.3991  0.0279
 2936TIP3    H230444   2.368   5.245   0.122  0.5114 -0.5496  1.9330
 2937TIP3   OH230445   0.417   5.809   0.660  0.3420  0.0854  0.0773
 2937TIP3    H130446   0.341   5.802   0.602 -0.2155  1.8858  0.5051
 2937TIP3    H230447   0.447   5.899   0.648  0.2662  0.4914  2.4721
 2938TIP3   OH230448   1.659   3.762   1.176 -0.2108  0.2405 -0.6641
 2938TIP3    H130449   1.636   3.696   1.110 -0.4484 -0.3436 -0.0039
 2938TIP3    H230450   1.755   3.762   1.176 -0.2087  0.0087 -0.7750
 2939TIP3   OH230451   2.618   0.120   8.019 -0.0957 -0.6523  0.1675
 2939TIP3    H130452   2.578   0.111   8.106  0.7837 -1.2730  0.5169
 2939TIP3    H230453   2.612   0.213   7.999  2.3906  0.0407  2.2257
 2940TIP3   OH230454   6.807   0.241   1.334  0.4220 -0.2772 -0.0831
 2940TIP3    H130455   6.766   0.289   1.262  1.8401 -0.0178 -0.7455
 2940TIP3    H230456   6.860   0.307   1.379  0.1191 -0.6006  0.7604
 2941TIP3   OH230457   5.797   6.117   1.426  0.1339  0.3041 -0.1143
 2941TIP3    H130458   5.869   6.180   1.435  2.3490 -1.8432 -1.4752
 2941TIP3    H230459   5.809   6.058   1.500  0.1848 -0.4451 -0.7166
 2942TIP3   OH230460   2.301   6.923   0.015 -0.7141 -0.2528 -0.1318
 2942TIP3    H130461   2.385   6.936   0.058 -0.4002  0.9079 -1.0643
 2942TIP3    H230462   2.275   6.834   0.040 -0.1812  0.0827  1.7904
 2943TIP3   OH230463   2.374   6.713   7.714  0.3802  0.3273  0.1701
 2943TIP3    H130464   2.412   6.774   7.777 -0.6054 -0.9119  2.0449
 2943TIP3    H230465   2.420   6.631   7.729 -0.6810 -0.2971  0.1457
 2944TIP3   OH230466   5.062   2.545   0.927  0.0397  0.1532  0.7864
 2944TIP3    H130467   5.091   2.474   0.871 -1.0808 -0.3213  0.7851
 2944TIP3    H230468   5.103   2.623   0.890  1.1888 -0.4570  0.7225
 2945TIP3   OH230469   3.982   1.297   1.214  0.0898 -0.1757  0.1633
 2945TIP3    H130470   4.036   1.244   1.274 -0.1474  0.1622  0.6775
 2945TIP3    H230471   3.983   1.385   1.252 -0.1847  0.0105 -0.2561
 2946TIP3   OH230472   3.798   6.485   7.469  0.3953  0.2701 -0.2272
 2946TIP3    H130473   3.765   6.489   7.379  1.2127  2.5292 -0.4982
 2946TIP3    H230474   3.756   6.559   7.513  2.9676  1.6333  0.1251
 2947TIP3   OH230475   2.544   4.585   0.976 -0.4153  0.2093 -0.2317
 2947TIP3    H130476   2.538   4.489   0.975  3.5771 -0.1692 -0.8166
 2947TIP3    H230477   2.571   4.609   0.887  2.0254  1.4801  0.7612
 2948TIP3   OH230478   6.881   3.090   2.152  0.0782 -0.6523 -0.0461
 2948TIP3    H130479   6.855   3.019   2.211 -0.5795 -0.5244 -0.1754
 2948TIP3    H230480   6.799   3.132   2.128  0.5854  1.4717  1.6728
 2949TIP3   OH230481   3.990   1.194   0.056  0.0399  0.5698 -0.4290
 2949TIP3    H130482   4.033   1.130  -0.001 -0.4113 -0.0182 -0.1285
 2949TIP3    H230483   4.040   1.190   0.138 -2.7841 -3.0672  1.4125
 2950TIP3   OH230484   4.304   6.509   0.524 -0.5357  0.0237  0.3183
 2950TIP3    H130485   4.380   6.458   0.553  2.2636  3.1511 -0.8088
 2950TIP3    H230486   4.264   6.542   0.605 -0.3728 -1.1759  0.9105
 2951TIP3   OH230487   2.015   4.804   8.272 -0.0961  0.7555 -0.6426
 2951TIP3    H130488   1.938   4.795   8.329  0.3105  1.3911  0.0236
 2951TIP3    H230489   1.993   4.752   8.194 -1.3840  1.2684 -0.6512
 2952TIP3   OH230490   1.790   3.639   7.350  0.2261 -0.2421  0.0460
 2952TIP3    H130491   1.860   3.584   7.314  0.6447  0.8468 -0.8554
 2952TIP3    H230492   1.809   3.644   7.444 -0.2453 -2.2247  0.2828
 2953TIP3   OH230493   1.170   2.460   8.277 -0.9367  0.2105  0.4057
 2953TIP3    H130494   1.213   2.538   8.242 -0.2102  0.7035  2.2788
 2953TIP3    H230495   1.240   2.394   8.280 -0.7450  0.4435  1.6826
 2954TIP3   OH230496   4.793   1.541   6.980  0.1345  0.2441  0.4086
 2954TIP3    H130497   4.835   1.513   6.899 -0.9427 -2.7649  0.7660
 2954TIP3    H230498   4.723   1.600   6.951  2.1933  2.3951 -0.4436
 2955TIP3   OH230499   2.407   5.560   0.851  0.3265  0.1474  0.4683
 2955TIP3    H130500   2.479   5.616   0.821 -0.2499  0.5646 -0.1562
 2955TIP3    H230501   2.400   5.577   0.945  1.8253 -0.7925  0.7884
 2956TIP3   OH230502   0.486   2.165   7.045  0.1570 -0.4253  0.6263
 2956TIP3    H130503   0.392   2.151   7.053  0.0814 -0.5487 -0.3509
 2956TIP3    H230504   0.526   2.093   7.095 -0.2528 -0.0663  1.4965
 2957TIP3   OH230505   6.208   6.155   6.949  0.3031  0.3209  0.2585
 2957TIP3    H130506   6.180   6.179   7.037 -0.5982  0.7146 -0.1292
 2957TIP3    H230507   6.184   6.062   6.941 -0.2420  0.4643  0.1885
 2958TIP3   OH230508   0.434   1.415   6.175  0.6616  0.4305 -0.2379
 2958TIP3    H130509   0.396   1.468   6.245  0.6634 -0.3640  0.3845
 2958TIP3    H230510   0.397   1.328   6.189  3.1138 -0.5425  0.7894
 2959TIP3   OH230511   2.334   2.186   0.832  0.1534  0.5157  0.4750
 2959TIP3    H130512   2.296   2.102   0.860  0.1990  0.0528 -0.8073
 2959TIP3    H230513   2.268   2.251   0.856 -0.1543  0.0450  0.9214
 2960TIP3   OH230514   4.027   4.368   1.145 -0.4225  0.3519  0.3141
 2960TIP3    H130515   4.006   4.444   1.199 -0.9733 -0.0427  0.6592
 2960TIP3    H230516   3.956   4.307   1.161 -0.0297 -0.2000 -0.0352
 2961TIP3   OH230517   1.967   6.720   6.897  0.3519 -0.1136 -0.1519
 2961TIP3    H130518   1.921   6.769   6.965  2.0484  0.6171  0.5201
 2961TIP3    H230519   2.022   6.657   6.945  0.2788 -0.7701 -0.9095
 2962TIP3   OH230520   0.963   2.298   1.473  0.2331  0.0084 -0.1979
 2962TIP3    H130521   0.895   2.261   1.529 -0.5273  1.3238 -0.2268
 2962TIP3    H230522   1.044   2.283   1.522 -0.3778  0.8577  1.1459
 2963TIP3   OH230523   6.959   5.280   8.149 -0.0196 -0.7570 -0.5524
 2963TIP3    H130524   7.018   5.230   8.205  2.1058  0.4289 -1.5895
 2963TIP3    H230525   6.944   5.361   8.197  1.8072  0.2625 -1.5729
 2964TIP3   OH230526   2.620   1.236   7.379  0.1575 -0.1064  0.4008
 2964TIP3    H130527   2.710   1.223   7.351  1.2547  2.5850  2.3188
 2964TIP3    H230528   2.574   1.265   7.300  1.0983 -0.8457 -0.4391
 2965TIP3   OH230529   0.490   0.465   0.870 -0.6679 -0.0686  0.1167
 2965TIP3    H130530   0.475   0.440   0.779 -1.5988  1.7395 -0.2704
 2965TIP3    H230531   0.558   0.532   0.866  1.0697 -1.6663  1.0336
 2966TIP3   OH230532   1.525   6.396   6.694 -0.3301 -0.4178 -0.5900
 2966TIP3    H130533   1.430   6.384   6.691 -0.7247  2.0296 -0.0626
 2966TIP3    H230534   1.537   6.490   6.703  2.1998 -0.5712 -1.5698
 2967TIP3   OH230535   6.676   3.030   7.291  0.0826  0.3583 -0.1643
 2967TIP3    H130536   6.670   2.992   7.203 -0.3577 -2.0366  0.8284
 2967TIP3    H230537   6.640   2.962   7.349  0.2141  1.9287  1.8644
 2968TIP3   OH230538   6.282   2.966   1.376  0.1239  0.6058 -0.0548
 2968TIP3    H130539   6.253   2.993   1.289 -0.2102  0.5076  0.0228
 2968TIP3    H230540   6.336   2.889   1.361  1.2517  1.4212 -0.2979
 2969TIP3   OH230541   3.999   3.294   7.476  0.5278 -0.7377  0.1805
 2969TIP3    H130542   4.066   3.269   7.412  0.1173 -2.4066  0.3391
 2969TIP3    H230543   3.938   3.220   7.476  0.4944 -0.7756  2.4799
 2970TIP3   OH230544   0.596   4.800   0.045 -0.1106 -0.2017  0.2984
 2970TIP3    H130545   0.595   4.716  -0.001  1.8531 -1.5217  2.4129
 2970TIP3    H230546   0.651   4.856  -0.010 -0.2767 -0.7464 -0.4403
 2971TIP3   OH230547   3.918   3.548   7.529 -0.3115 -0.1265  0.0527
 2971TIP3    H130548   3.966   3.469   7.504 -0.0388  0.3231 -0.8667
 2971TIP3    H230549   3.827   3.527   7.512 -0.1500  0.0990 -1.1620
 2972TIP3   OH230550   6.088   1.013   7.776  0.5445 -0.5409 -0.3025
 2972TIP3    H130551   5.998   1.022   7.746 -0.6378 -2.5371  2.2316
 2972TIP3    H230552   6.111   0.922   7.757  1.3120 -0.5982  0.7548
 2973TIP3   OH230553   1.259   6.235   1.295  0.3824  0.7528 -0.7687
 2973TIP3    H130554   1.343   6.271   1.266  0.2292  1.2880 -0.5574
 2973TIP3    H230555   1.218   6.307   1.343 -0.0710  0.3972 -0.6226
 2974TIP3   OH230556   3.039   2.370   1.926 -0.4700 -0.0846  0.2956
 2974TIP3    H130557   3.028   2.301   1.861 -2.6103  0.4762 -0.0313
 2974TIP3    H230558   3.065   2.447   1.876 -3.2312  0.6519 -0.1894
 2975TIP3   OH230559   4.209   1.717   2.093  0.0525 -0.5263 -0.0854
 2975TIP3    H130560   4.194   1.809   2.074  0.8166 -0.2494  0.5826
 2975TIP3    H230561   4.296   1.699   2.055  0.1016 -0.8530  0.1801
 2976TIP3   OH230562   4.559   4.314   7.374  0.0017 -0.0162 -0.4427
 2976TIP3    H130563   4.544   4.268   7.291 -2.2043 -0.5604  0.1758
 2976TIP3    H230564   4.643   4.358   7.362  0.1033 -0.6675 -2.6885
 2977TIP3   OH230565   6.694   3.798   8.103 -0.0450 -0.0435  0.1965
 2977TIP3    H130566   6.734   3.729   8.156 -1.8907 -0.3182  1.3335
 2977TIP3    H230567   6.678   3.757   8.018  0.5845 -0.4190  0.2551
 2978TIP3   OH230568   2.167   3.775   7.882 -0.3415 -0.0106  0.1815
 2978TIP3    H130569   2.076   3.787   7.856 -0.5177  1.2635  1.2887
 2978TIP3    H230570   2.194   3.695   7.838 -1.0256  1.2444 -2.7444
 2979TIP3   OH230571   1.053   6.266   6.944 -0.3499 -0.1500  0.6036
 2979TIP3    H130572   0.958   6.256   6.953 -0.1534 -0.8320  2.2629
 2979TIP3    H230573   1.066   6.293   6.853 -2.0835 -0.6907  0.1606
 2980TIP3   OH230574   4.069   6.676   6.441  0.3409 -0.1307 -0.2187
 2980TIP3    H130575   4.008   6.708   6.374  0.5662 -3.0849 -2.0090
 2980TIP3    H230576   4.013   6.652   6.515 -0.2476  0.5721 -0.4272
 2981TIP3   OH230577   5.716   1.999   1.550 -0.5873  0.8080 -0.0296
 2981TIP3    H130578   5.678   2.028   1.467  1.1236  2.2149 -0.3732
 2981TIP3    H230579   5.751   1.911   1.530  1.0248  1.6670 -1.2438
 2982TIP3   OH230580   2.372   6.180   2.317  0.5595  0.5271 -0.6008
 2982TIP3    H130581   2.435   6.159   2.248  1.7321  0.7700  0.3688
 2982TIP3    H230582   2.327   6.097   2.336  1.0743  0.1978 -0.8203
 2983TIP3   OH230583   4.747   3.166   1.756 -0.0716  0.2773 -0.0929
 2983TIP3    H130584   4.782   3.240   1.805 -0.8990  0.1058  0.8017
 2983TIP3    H230585   4.823   3.114   1.732  0.5850  1.7613 -1.3451
 2984TIP3   OH230586   0.422   3.815   0.230 -0.7390 -0.3186  0.1187
 2984TIP3    H130587   0.465   3.754   0.170 -0.5651 -1.2021  1.1084
 2984TIP3    H230588   0.488   3.832   0.298 -1.4639 -0.5984  0.9085
 2985TIP3   OH230589   3.849   4.630   1.509  0.8157 -0.2587 -0.5639
 2985TIP3    H130590   3.901   4.691   1.457  1.5431  1.4323  1.9832
 2985TIP3    H230591   3.914   4.578   1.557  0.2108  0.4047  1.0260
 2986TIP3   OH230592   3.578   3.288   0.908 -0.0162  0.3253 -0.5880
 2986TIP3    H130593   3.545   3.365   0.862  1.1182  0.3306 -1.4245
 2986TIP3    H230594   3.650   3.320   0.962 -1.3071  0.3145  1.2436
 2987TIP3   OH230595   4.620   5.552   0.904  1.0941  0.1434 -0.2972
 2987TIP3    H130596   4.680   5.577   0.975  0.9657  2.0988 -0.8171
 2987TIP3    H230597   4.646   5.608   0.830 -0.6509  0.2585 -0.8716
 2988TIP3   OH230598   0.877   2.491   7.076  0.3149  0.3065 -0.2579
 2988TIP3    H130599   0.845   2.418   7.023  0.4855  2.2899 -3.3394
 2988TIP3    H230600   0.803   2.552   7.081  0.6601  0.6585  0.8816
 2989TIP3   OH230601   4.328   2.244   8.352  0.8973 -0.5084  0.2685
 2989TIP3    H130602   4.261   2.176   8.346  0.4795 -0.0313 -0.5611
 2989TIP3    H230603   4.278   2.326   8.356  1.3877 -0.2407  1.4327
 2990TIP3   OH230604   6.887   5.994   6.615  0.4792  0.6459  0.2108
 2990TIP3    H130605   6.858   5.944   6.538 -1.0990 -0.9648  1.7338
 2990TIP3    H230606   6.842   6.078   6.608 -0.2534  0.2242 -0.2492
 2991TIP3   OH230607   2.744   3.692   1.978  0.4663 -0.0631 -0.4498
 2991TIP3    H130608   2.807   3.742   1.926 -1.7207  0.6488 -2.6020
 2991TIP3    H230609   2.667   3.685   1.921 -0.0536 -4.2679  0.4805
 2992TIP3   OH230610   6.563   5.812   7.601 -0.1818 -0.1953 -0.0846
 2992TIP3    H130611   6.521   5.757   7.667 -0.2412 -0.5791 -0.4395
 2992TIP3    H230612   6.640   5.848   7.644 -0.4088 -0.1695  0.3007
 2993TIP3   OH230613   5.325   4.575   7.266 -0.1606 -0.1570  0.0827
 2993TIP3    H130614   5.401   4.632   7.254  1.8949 -2.7358 -0.0103
 2993TIP3    H230615   5.257   4.613   7.210  2.4545 -0.0888 -3.3774
 2994TIP3   OH230616   0.080   1.440   2.302 -0.9517  0.0949 -0.1116
 2994TIP3    H130617   0.124   1.506   2.249 -0.0829  0.5137  1.0931
 2994TIP3    H230618   0.031   1.489   2.368 -2.9916 -0.3784 -1.1910
 2995TIP3   OH230619   5.440   2.049   1.611  0.2817  0.3108  0.0685
 2995TIP3    H130620   5.504   2.001   1.559  1.0852  0.6518  0.7358
 2995TIP3    H230621   5.467   2.141   1.605  0.5509  0.3283  1.3053
 2996TIP3   OH230622   5.066   2.395   6.862 -0.4181 -0.1046  0.1757
 2996TIP3    H130623   5.160   2.407   6.848 -0.3869 -1.6193 -1.1419
 2996TIP3    H230624   5.060   2.347   6.945 -0.0261 -0.1457  0.1820
 2997TIP3   OH230625   4.580   2.575   7.851 -0.0663 -0.1202 -0.5562
 2997TIP3    H130626   4.652   2.564   7.913  1.7751 -1.3696 -2.7937
 2997TIP3    H230627   4.516   2.508   7.877  0.5334 -0.4336  0.1595
 2998TIP3   OH230628   5.876   6.341   6.648  0.5878 -0.2528 -0.4902
 2998TIP3    H130629   5.806   6.319   6.710 -0.8539 -0.2240 -2.0374
 2998TIP3    H230630   5.866   6.435   6.633  2.4236  0.2316  0.9460
 2999TIP3   OH230631   3.973   2.057   7.736 -0.1870  0.2341  0.8821
 2999TIP3    H130632   3.912   2.038   7.665  0.2987 -0.0808  0.5405
 2999TIP3    H230633   4.059   2.035   7.700  0.5338  3.4736  0.2719
 3000TIP3   OH230634   6.367   5.121   1.306 -0.1860 -0.0787 -0.4998
 3000TIP3    H130635   6.395   5.182   1.375  1.1317 -0.5624 -0.5809
 3000TIP3    H230636   6.299   5.068   1.347 -0.4350  0.5928 -0.0240
 3001TIP3   OH230637   4.627   1.196   0.329 -0.0589 -0.2016  0.8115
 3001TIP3    H130638   4.710   1.176   0.287 -1.1907 -0.8035 -1.2769
 3001TIP3    H230639   4.629   1.148   0.412  2.0744  0.6757  1.3159
 3002TIP3   OH230640   3.260   6.967   6.666  0.3690 -0.3141 -0.2541
 3002TIP3    H130641   3.201   6.913   6.719  1.3611 -1.3048 -0.1193
 3002TIP3    H230642   3.324   7.000   6.728 -0.4483  1.3877 -0.2690
 3003TIP3   OH230643   1.968   2.047   1.534  1.3346  0.2106 -0.4000
 3003TIP3    H130644   1.988   1.988   1.461  2.2132  2.2685 -1.9367
 3003TIP3    H230645   1.948   2.131   1.492  2.1475  1.5598  1.7380
 3004TIP3   OH230646   3.348   5.368   0.169 -0.2904 -0.3847 -0.4360
 3004TIP3    H130647   3.279   5.357   0.103  0.1900 -1.5961 -0.7787
 3004TIP3    H230648   3.302   5.385   0.250 -0.9431  0.0356 -0.8883
 3005TIP3   OH230649   6.010   3.920   0.501 -0.1972 -0.0167 -0.3207
 3005TIP3    H130650   6.005   4.013   0.523  2.2372 -0.3304  2.2165
 3005TIP3    H230651   6.064   3.917   0.422 -0.1054  0.7160 -0.2927
 3006TIP3   OH230652   4.781   5.024   6.990 -0.1007  0.1545  0.2658
 3006TIP3    H130653   4.735   4.992   7.067  1.9997 -0.0185  1.5226
 3006TIP3    H230654   4.811   4.945   6.945 -1.8142  0.2303 -1.1224
 3007TIP3   OH230655   5.237   5.744   0.357 -0.1101 -0.4281  0.0562
 3007TIP3    H130656   5.228   5.657   0.398 -2.5046 -0.4165 -0.3221
 3007TIP3    H230657   5.214   5.806   0.426  0.8119 -0.0991  0.0899
 3008TIP3   OH230658   2.913   1.965   0.153 -0.2480  0.1261  0.4839
 3008TIP3    H130659   2.961   1.966   0.071 -0.8337  0.1246  0.1397
 3008TIP3    H230660   2.848   1.895   0.143 -0.1781 -0.0265  1.0313
 3009TIP3   OH230661   2.107   6.414   0.729 -0.4271 -0.0250 -0.2507
 3009TIP3    H130662   2.134   6.323   0.729 -3.3377 -0.9933  0.4514
 3009TIP3    H230663   2.071   6.429   0.641  0.2215  0.5377 -0.4311
 3010TIP3   OH230664   6.366   6.886   0.080 -0.4354 -0.1080  0.1643
 3010TIP3    H130665   6.375   6.845   0.166 -0.7150 -0.2413  0.1334
 3010TIP3    H230666   6.455   6.893   0.046 -0.3567 -0.3637  0.3213
 3011TIP3   OH230667   1.742   5.821   0.900 -0.4629 -0.0287 -0.4314
 3011TIP3    H130668   1.829   5.858   0.881 -0.3830  0.0268  0.0270
 3011TIP3    H230669   1.734   5.747   0.841 -0.0745 -0.0706 -0.4346
 3012TIP3   OH230670   1.420   5.174   6.306 -0.0596  1.1078  0.0375
 3012TIP3    H130671   1.440   5.265   6.328  1.1894  0.5441  1.3867
 3012TIP3    H230672   1.506   5.132   6.297 -0.5349  0.5828 -3.1042
 3013TIP3   OH230673   0.630   3.141   0.147  0.0773  0.1754 -0.1383
 3013TIP3    H130674   0.575   3.129   0.224  0.3683 -1.3538 -0.1550
 3013TIP3    H230675   0.597   3.222   0.107 -1.5395 -0.1918  0.3726
 3014TIP3   OH230676   6.176   6.029   1.380 -0.3056 -0.9162  0.4646
 3014TIP3    H130677   6.233   6.098   1.347 -1.9141  0.7615  1.0481
 3014TIP3    H230678   6.106   6.023   1.314 -1.6298 -0.0259  1.7307
 3015TIP3   OH230679   5.465   2.784   2.256 -0.2544 -0.1470  0.1201
 3015TIP3    H130680   5.435   2.710   2.203 -0.1796  0.4839 -0.8101
 3015TIP3    H230681   5.405   2.784   2.332  0.9110 -2.3013  1.1354
 3016TIP3   OH230682   6.726   0.738   7.627 -0.3095 -0.4718 -0.1129
 3016TIP3    H130683   6.778   0.782   7.560 -1.1483  0.4033 -0.2063
 3016TIP3    H230684   6.653   0.699   7.580 -0.3054 -0.8053  0.1517
 3017TIP3   OH230685   4.099   6.674   0.843  0.1462 -0.3645  0.5533
 3017TIP3    H130686   4.180   6.709   0.880 -1.0037  1.3824  1.5469
 3017TIP3    H230687   4.047   6.649   0.920 -0.7490 -0.3141 -0.0293
 3018TIP3   OH230688   1.543   5.407   0.175 -0.1690 -0.7628  0.0547
 3018TIP3    H130689   1.581   5.494   0.179  0.1477 -0.8101 -1.2332
 3018TIP3    H230690   1.604   5.357   0.120 -0.8420 -1.5144 -0.0299
 3019TIP3   OH230691   1.414   2.843   1.050 -0.4931 -1.0226 -0.6229
 3019TIP3    H130692   1.488   2.860   0.991 -0.8781  2.0449 -0.3588
 3019TIP3    H230693   1.455   2.820   1.133  0.3020  1.6245 -0.1982
 3020TIP3   OH230694   1.115   2.953   8.158 -0.1569  0.4020 -0.2741
 3020TIP3    H130695   1.030   2.996   8.162  0.1502  0.9600  1.2670
 3020TIP3    H230696   1.104   2.872   8.208  0.9058  1.8909  2.5972
 3021TIP3   OH230697   3.206   2.717   1.148  0.6803  0.9926  0.0901
 3021TIP3    H130698   3.154   2.791   1.180  0.0310  0.4089  0.4058
 3021TIP3    H230699   3.209   2.729   1.053  0.3051  1.2496  0.1077
 3022TIP3   OH230700   1.322   2.575   1.294 -0.4014 -0.0368  0.0905
 3022TIP3    H130701   1.264   2.507   1.259 -0.7768  0.5939 -0.5400
 3022TIP3    H230702   1.309   2.571   1.388 -0.1023 -1.1183  0.0989
 3023TIP3   OH230703   1.246   1.067   1.213  0.4489 -0.5937  0.0889
 3023TIP3    H130704   1.314   1.082   1.147  0.6288 -0.3954  0.3206
 3023TIP3    H230705   1.211   1.154   1.231  1.4765 -0.4378  1.4180
 3024TIP3   OH230706   5.142   3.286   2.107  0.1015 -0.4313  0.0353
 3024TIP3    H130707   5.164   3.197   2.078  2.0989  0.0025  0.0838
 3024TIP3    H230708   5.227   3.330   2.116 -0.8530  1.5681 -0.2377
 3025TIP3   OH230709   2.126   2.974   6.025 -0.0132 -0.1205  0.6525
 3025TIP3    H130710   2.187   2.974   6.099 -0.7566  0.7905  1.2844
 3025TIP3    H230711   2.066   3.045   6.043  0.8192  1.3116 -1.7010
 3026TIP3   OH230712   5.871   4.721   6.538  0.1409  0.0737  0.3925
 3026TIP3    H130713   5.819   4.657   6.586 -0.1887  1.2094  1.5922
 3026TIP3    H230714   5.879   4.795   6.597  2.7056  0.1663  0.0454
 3027TIP3   OH230715   6.074   1.465   2.396  0.5851 -0.6812 -0.3567
 3027TIP3    H130716   6.004   1.404   2.418  1.1288 -1.6596 -1.2355
 3027TIP3    H230717   6.144   1.445   2.457  0.5276 -0.4777 -0.2209
 3028TIP3   OH230718   1.120   6.559   7.821 -0.4725 -0.0444  0.0014
 3028TIP3    H130719   1.208   6.531   7.795  0.5401  1.9070  1.1149
 3028TIP3    H230720   1.067   6.480   7.813  1.5843 -1.5322  0.1891
 3029TIP3   OH230721   5.752   6.804   0.914  0.3296  0.4538 -0.8506
 3029TIP3    H130722   5.682   6.833   0.972 -0.9434 -0.7996 -1.6675
 3029TIP3    H230723   5.827   6.791   0.971 -0.6933 -0.1359  0.4240
 3030TIP3   OH230724   3.665   1.910   0.214 -0.3971 -0.3845  0.3874
 3030TIP3    H130725   3.723   1.941   0.284 -0.6686  1.0929 -0.0077
 3030TIP3    H230726   3.723   1.867   0.152 -0.0716 -1.1548  1.2132
 3031TIP3   OH230727   2.840   2.727   8.161 -0.1256 -0.2812  0.8738
 3031TIP3    H130728   2.903   2.656   8.145 -0.1108  0.3389 -2.7677
 3031TIP3    H230729   2.764   2.683   8.198  0.2711 -2.0750 -0.2724
 3032TIP3   OH230730   2.724   6.040   0.395  0.3676  0.2693  0.3537
 3032TIP3    H130731   2.718   6.070   0.486 -1.7980 -0.9331  0.6688
 3032TIP3    H230732   2.661   5.968   0.389  0.5761  0.2028 -2.0716
 3033TIP3   OH230733   0.263   6.370   7.017  0.2979 -0.0219  0.7241
 3033TIP3    H130734   0.220   6.405   6.940  0.1109  1.6068  1.5279
 3033TIP3    H230735   0.195   6.321   7.062 -0.3110  1.1715  1.1427
 3034TIP3   OH230736   5.102   2.361   8.277  0.1375  0.8292  0.0585
 3034TIP3    H130737   5.122   2.372   8.370 -1.0273  1.0543  0.3103
 3034TIP3    H230738   5.187   2.363   8.233  0.8842 -1.1320  1.2741
 3035TIP3   OH230739   0.990   2.003   6.633 -0.7529 -0.2054  0.1829
 3035TIP3    H130740   1.033   1.924   6.667 -0.0222 -1.3318 -3.0277
 3035TIP3    H230741   1.058   2.070   6.635 -0.1944 -0.7276 -0.5719
 3036TIP3   OH230742   6.062   3.144   0.427 -0.4925 -0.1633  0.1177
 3036TIP3    H130743   6.004   3.171   0.499 -0.7477 -0.7199  0.1238
 3036TIP3    H230744   6.004   3.128   0.353 -0.2286  0.4168 -0.2249
 3037TIP3   OH230745   5.554   0.454   7.809 -0.1933  0.1192 -0.3337
 3037TIP3    H130746   5.595   0.501   7.882 -0.1140 -2.4904  1.4307
 3037TIP3    H230747   5.463   0.442   7.835 -0.5664  0.4519 -1.3983
 3038TIP3   OH230748   1.507   4.610   0.756 -0.6636 -0.9378  0.1910
 3038TIP3    H130749   1.490   4.518   0.774 -0.3305 -1.1781 -0.6921
 3038TIP3    H230750   1.581   4.610   0.696 -1.3917 -0.1481 -0.7449
 3039TIP3   OH230751   2.195   1.995   0.188  0.7004 -0.0492 -0.0120
 3039TIP3    H130752   2.190   2.078   0.234 -0.7391 -1.4084  2.5582
 3039TIP3    H230753   2.106   1.981   0.155  1.1712 -0.1589 -1.3022
 3040TIP3   OH230754   0.060   3.460   7.419  0.5139  0.4347  0.2728
 3040TIP3    H130755   0.084   3.436   7.329 -2.1629  0.7812 -0.6188
 3040TIP3    H230756   0.057   3.376   7.466  2.6226  0.3166  0.2832
 3041TIP3   OH230757   3.858   2.392   0.443  0.2155  0.1043 -1.0333
 3041TIP3    H130758   3.865   2.434   0.529 -0.5837 -0.2054 -0.8048
 3041TIP3    H230759   3.808   2.455   0.390 -2.9363 -1.3673 -0.0682
 3042TIP3   OH230760   5.579   2.594   0.140 -0.0523 -0.0211  0.3031
 3042TIP3    H130761   5.508   2.624   0.196 -0.7773 -1.3135  0.1145
 3042TIP3    H230762   5.647   2.563   0.201 -0.7694 -1.2701  0.5053
 3043TIP3   OH230763   5.313   0.715   2.163 -0.4695  0.6302  0.2620
 3043TIP3    H130764   5.323   0.729   2.258  1.2773 -2.6041  0.6840
 3043TIP3    H230765   5.402   0.720   2.129 -0.7060 -1.1131 -0.7131
 3044TIP3   OH230766   5.092   5.421   1.423 -0.5359  0.7175 -0.3947
 3044TIP3    H130767   5.144   5.355   1.470  0.0998  1.3640 -0.1694
 3044TIP3    H230768   5.002   5.390   1.431 -0.4418  0.7796  1.2305
 3045TIP3   OH230769   1.692   1.529   8.401  0.4582 -0.0317 -0.7100
 3045TIP3    H130770   1.758   1.592   8.430  0.3424  0.2310 -1.0137
 3045TIP3    H230771   1.690   1.539   8.305  0.2273 -0.2841 -0.7321
 3046TIP3   OH230772   5.831   5.487   2.845  0.0757  0.2575  0.0113
 3046TIP3    H130773   5.744   5.475   2.883  0.6651  1.6139  1.9771
 3046TIP3    H230774   5.856   5.576   2.870  2.0722 -0.1463 -0.3492
 3047TIP3   OH230775   1.994   5.500   2.016  0.5924  0.2262  0.4136
 3047TIP3    H130776   2.039   5.425   2.053  0.6693  0.0180 -0.1016
 3047TIP3    H230777   2.064   5.564   1.999  0.4979  0.5108  1.0757
 3048TIP3   OH230778   4.800   5.018   8.057  0.3391 -0.5501 -0.4440
 3048TIP3    H130779   4.819   4.965   7.980  0.1028 -0.5965 -0.4710
 3048TIP3    H230780   4.763   5.099   8.022 -0.4534 -0.8631 -0.3524
 3049TIP3   OH230781   1.048   1.735   1.937  0.3009 -0.6670  0.6693
 3049TIP3    H130782   1.100   1.771   1.865  0.2740 -0.0657  0.9481
 3049TIP3    H230783   1.091   1.652   1.958 -1.0723 -2.0360 -1.5945
 3050TIP3   OH230784   3.862   6.796   1.456 -0.7326  0.3157 -0.0352
 3050TIP3    H130785   3.821   6.729   1.401 -1.3460  1.9340 -1.6673
 3050TIP3    H230786   3.802   6.871   1.450 -0.0098  1.0600  1.6204
 3051TIP3   OH230787   3.338   2.266   6.730 -0.0790 -0.4814 -0.4566
 3051TIP3    H130788   3.423   2.288   6.693 -0.4883 -1.1038 -1.8166
 3051TIP3    H230789   3.303   2.198   6.672 -2.2733  0.9993 -1.0029
 3052TIP3   OH230790   2.288   0.370   2.571  0.1722 -0.3030 -0.1658
 3052TIP3    H130791   2.238   0.308   2.518 -1.8524  1.5572 -0.5717
 3052TIP3    H230792   2.364   0.392   2.517 -0.7530 -0.0434 -1.4045
 3053TIP3   OH230793   3.081   5.224   1.384  0.1662 -0.2512  0.2068
 3053TIP3    H130794   3.170   5.201   1.413  0.3020 -0.5238 -0.4279
 3053TIP3    H230795   3.025   5.161   1.429  0.4406 -1.1295 -0.6675
 3054TIP3   OH230796   4.689   3.128   7.995  0.1087  0.1549  0.3839
 3054TIP3    H130797   4.614   3.071   7.976  0.9670 -1.1166  0.7016
 3054TIP3    H230798   4.687   3.193   7.925 -0.6831 -0.4894 -0.2233
 3055TIP3   OH230799   1.929   0.383   8.224 -0.2580 -0.3594 -0.1634
 3055TIP3    H130800   1.912   0.477   8.217 -2.3726 -0.7641 -1.4363
 3055TIP3    H230801   1.872   0.353   8.295 -1.0567 -0.9596 -1.0377
 3056TIP3   OH230802   3.111   1.723   0.035 -0.2951  0.0384  0.1209
 3056TIP3    H130803   3.204   1.711   0.052 -0.1303  1.7388  0.5557
 3056TIP3    H230804   3.069   1.707   0.120 -0.6913 -2.8172 -0.4876
 3057TIP3   OH230805   0.601   0.802   1.463  0.4809 -0.4733 -0.4697
 3057TIP3    H130806   0.513   0.770   1.446  0.6084 -1.6324  0.9242
 3057TIP3    H230807   0.636   0.745   1.531  1.7213  0.9645  0.1825
 3058TIP3   OH230808   1.100   4.609   0.123  0.5352 -0.0511 -0.3302
 3058TIP3    H130809   1.099   4.542   0.191  0.0713 -1.2019 -1.4388
 3058TIP3    H230810   1.042   4.575   0.055 -0.5489  1.9636 -0.4856
 3059TIP3   OH230811   0.297   5.488   2.111  0.6716  0.1621  0.1915
 3059TIP3    H130812   0.241   5.440   2.171  1.4427 -0.2991  0.5506
 3059TIP3    H230813   0.255   5.574   2.102  0.1262 -0.0444  0.7538
 3060TIP3   OH230814   4.784   2.627   8.357  0.2285 -0.2001  0.3489
 3060TIP3    H130815   4.749   2.709   8.323  0.0457 -0.7577 -0.8479
 3060TIP3    H230816   4.707   2.576   8.382  0.3405 -0.0171  1.0803
 3061TIP3   OH230817   1.610   6.583   8.091  0.5222 -0.0657 -0.1022
 3061TIP3    H130818   1.602   6.494   8.057  0.7401 -0.0752 -0.1305
 3061TIP3    H230819   1.702   6.591   8.117  0.1683 -0.3495  1.3079
 3062TIP3   OH230820   2.163   0.663   6.920 -0.1858 -0.0888  0.6100
 3062TIP3    H130821   2.094   0.604   6.890 -0.3157  0.4891 -0.2730
 3062TIP3    H230822   2.160   0.658   7.015  0.1082 -1.8371  0.5577
 3063TIP3   OH230823   2.257   1.326   6.682 -0.0338 -0.2191  0.2072
 3063TIP3    H130824   2.346   1.350   6.710  0.9045 -0.8706 -1.9631
 3063TIP3    H230825   2.266   1.236   6.652 -0.9089  0.3666 -1.9947
 3064TIP3   OH230826   3.206   6.107   0.969 -0.0261  0.2830 -0.0940
 3064TIP3    H130827   3.225   6.041   1.036  0.3242 -1.1690 -1.5370
 3064TIP3    H230828   3.174   6.056   0.894 -1.1139  1.9137 -0.7881
 3065TIP3   OH230829   5.855   6.657   0.341 -0.1277 -0.1520  0.0902
 3065TIP3    H130830   5.760   6.667   0.340 -0.2005 -0.6133  1.1631
 3065TIP3    H230831   5.888   6.746   0.351 -0.4231  0.0563 -0.7243
 3066TIP3   OH230832   2.885   0.615   8.425 -0.0575 -0.1534  0.3937
 3066TIP3    H130833   2.851   0.542   8.374 -0.4214 -1.2741  2.1755
 3066TIP3    H230834   2.954   0.653   8.370 -0.5099 -1.2178 -0.9597
 3067TIP3   OH230835   0.410   2.344   7.908 -0.4306 -0.1128  0.0525
 3067TIP3    H130836   0.320   2.318   7.888 -1.2750  1.4847  1.4883
 3067TIP3    H230837   0.432   2.408   7.840 -1.5048  1.6711  1.2957
 3068TIP3   OH230838   2.644   3.239   0.705  0.0511  0.0575  0.5849
 3068TIP3    H130839   2.681   3.313   0.752  0.9786 -0.4387  0.6603
 3068TIP3    H230840   2.639   3.269   0.614 -0.8177  0.6637  0.8162
 3069TIP3   OH230841   5.221   5.883   0.586 -0.8102  0.1324 -0.0328
 3069TIP3    H130842   5.164   5.841   0.651 -0.5610 -0.3693 -0.1334
 3069TIP3    H230843   5.270   5.948   0.637 -0.6678 -0.2085  0.2676
 3070TIP3   OH230844   6.653   3.287   7.202  0.3569  0.2050 -0.5865
 3070TIP3    H130845   6.569   3.290   7.156  0.2748  1.9023 -0.3657
 3070TIP3    H230846   6.664   3.195   7.225 -1.8639  0.0705  0.1466
 3071TIP3   OH230847   6.893   3.868   7.490  0.2618 -0.1916  0.1516
 3071TIP3    H130848   6.918   3.824   7.408  1.9510  2.0368 -0.6435
 3071TIP3    H230849   6.801   3.893   7.476 -0.1476 -1.7301 -0.1247
 3072TIP3   OH230850   0.891   3.689   6.337 -0.3011  0.5401 -0.1362
 3072TIP3    H130851   0.844   3.724   6.262  3.2204  1.6369 -2.0407
 3072TIP3    H230852   0.863   3.743   6.411 -1.0569  1.9648 -1.4138
 3073TIP3   OH230853   1.103   5.634   1.867  0.1100  0.1321  0.3990
 3073TIP3    H130854   1.080   5.605   1.779  0.7744 -0.0869  0.2926
 3073TIP3    H230855   1.101   5.554   1.920 -0.8707  0.3491  0.7233
 3074TIP3   OH230856   1.777   6.341   2.243  0.4598 -0.2779  0.0362
 3074TIP3    H130857   1.801   6.411   2.303  0.4597  1.7382 -2.1498
 3074TIP3    H230858   1.860   6.302   2.216  0.4872 -0.8520  0.9145
 3075TIP3   OH230859   4.368   2.407   7.951 -0.6607  0.1723  0.1368
 3075TIP3    H130860   4.412   2.326   7.926 -1.7015  0.0349 -1.4257
 3075TIP3    H230861   4.293   2.379   8.004 -0.0277  0.2503  1.0755
 3076TIP3   OH230862   0.300   0.663   1.151  0.7810 -0.8313 -0.1781
 3076TIP3    H130863   0.218   0.691   1.110 -0.2458  0.3713  2.3941
 3076TIP3    H230864   0.362   0.733   1.132  1.1845 -1.6332 -1.9418
 3077TIP3   OH230865   1.794   4.094   0.244 -0.0092 -0.0289  0.0078
 3077TIP3    H130866   1.827   4.183   0.251 -1.6494  0.8110 -2.1255
 3077TIP3    H230867   1.774   4.082   0.151 -2.1933 -1.7318  0.6083
 3078TIP3   OH230868   2.087   4.914   6.792 -0.6046 -0.3141 -0.1558
 3078TIP3    H130869   2.134   4.876   6.867  1.1709  0.4462 -0.8173
 3078TIP3    H230870   2.040   4.840   6.754  1.4300 -1.5462 -0.4389
 3079TIP3   OH230871   0.207   2.942   8.260 -0.1372  0.7620  0.3189
 3079TIP3    H130872   0.122   2.917   8.225 -0.8189  2.6795  0.4644
 3079TIP3    H230873   0.212   2.899   8.345 -0.4744 -0.2304 -0.1477
 3080TIP3   OH230874   4.757   5.751   8.115 -0.6144 -0.2241  0.0006
 3080TIP3    H130875   4.800   5.676   8.154  0.6899 -0.3776 -1.6331
 3080TIP3    H230876   4.798   5.827   8.156  0.4879 -0.3890 -0.7583
 3081TIP3   OH230877   6.804   6.146   0.981  0.2748 -0.2087 -0.5473
 3081TIP3    H130878   6.832   6.058   1.007 -0.0146 -0.2095 -0.2356
 3081TIP3    H230879   6.864   6.205   1.027 -0.7695 -0.1817  0.8091
 3082TIP3   OH230880   0.064   1.826   0.006  0.1233 -0.2705  0.1633
 3082TIP3    H130881   0.032   1.738  -0.012  0.7879 -0.3644 -0.6168
 3082TIP3    H230882   0.091   1.860  -0.080  3.1720 -0.6128  0.8956
 3083TIP3   OH230883   1.483   5.968   7.805  0.6553 -0.1027 -0.5626
 3083TIP3    H130884   1.441   6.044   7.765 -0.4096 -0.3081  0.1158
 3083TIP3    H230885   1.513   5.999   7.890  0.5234 -0.3515 -0.4238
 3084TIP3   OH230886   2.365   3.959   0.432  0.1159  0.1838 -0.2432
 3084TIP3    H130887   2.318   4.020   0.376 -0.0817 -0.3385 -0.6561
 3084TIP3    H230888   2.329   3.873   0.410  1.5877 -0.2984 -0.9314
 3085TIP3   OH230889   0.713   6.699   1.753  0.3485  0.3115 -0.1523
 3085TIP3    H130890   0.698   6.674   1.662 -0.6207  0.1334  0.0400
 3085TIP3    H230891   0.657   6.640   1.803 -2.5085  3.1248  0.3077
 3086TIP3   OH230892   3.328   2.582   0.393  0.1034 -0.0629  0.0436
 3086TIP3    H130893   3.351   2.556   0.482 -0.5251  0.9573  0.5188
 3086TIP3    H230894   3.406   2.628   0.361  0.0016  0.3494  0.3870
 3087TIP3   OH230895   2.267   6.665   1.663  0.5665  0.0748  0.1054
 3087TIP3    H130896   2.216   6.661   1.744  0.7228  0.4027  0.2220
 3087TIP3    H230897   2.343   6.609   1.680 -0.0894 -0.9573 -0.3133
 3088TIP3   OH230898   6.273   6.297   8.388  0.4745  0.6830  0.3279
 3088TIP3    H130899   6.259   6.391   8.402  0.2110  1.1661 -2.5675
 3088TIP3    H230900   6.266   6.286   8.293 -0.8792 -2.5091  0.6908
 3089TIP3   OH230901   6.419   5.341   1.132 -0.3683  0.0703  0.6416
 3089TIP3    H130902   6.500   5.308   1.093  0.2433  0.9951  1.0865
 3089TIP3    H230903   6.399   5.279   1.203 -0.7068 -0.8127 -0.2034
 3090TIP3   OH230904   6.446   3.262   6.977  0.4049 -0.0840 -0.0448
 3090TIP3    H130905   6.390   3.334   6.947 -0.2907 -0.7475 -0.3682
 3090TIP3    H230906   6.477   3.220   6.897 -2.3465 -2.5527  0.0199
 3091TIP3   OH230907   5.419   0.117   8.137  0.9881 -0.6093 -0.1212
 3091TIP3    H130908   5.473   0.116   8.215 -1.6068  0.6856  1.8495
 3091TIP3    H230909   5.351   0.052   8.154 -0.2060  0.4152 -0.8188
 3092TIP3   OH230910   1.233   5.546   6.889 -0.4797  0.1343 -0.3457
 3092TIP3    H130911   1.204   5.513   6.974 -1.9571 -0.6531 -1.1150
 3092TIP3    H230912   1.263   5.635   6.906 -1.7730  0.3675  0.8323
 3093TIP3   OH230913   4.807   0.444   1.010  0.2218 -0.0775  0.0445
 3093TIP3    H130914   4.731   0.503   1.011  0.2643  0.0082 -1.0508
 3093TIP3    H230915   4.785   0.376   0.947  0.8058 -0.3949  0.1722
 3094TIP3   OH230916   2.759   3.286   0.222 -0.0411  1.0672 -0.2477
 3094TIP3    H130917   2.785   3.197   0.199 -0.1087  0.7000  0.9881
 3094TIP3    H230918   2.796   3.341   0.153  0.5850  0.1467 -0.6648
 3095TIP3   OH230919   6.640   4.874   1.718  0.1581  0.4334 -0.1030
 3095TIP3    H130920   6.608   4.963   1.705  1.0806  0.7347 -0.3699
 3095TIP3    H230921   6.722   4.870   1.669 -1.2577 -1.4328 -2.5197
 3096TIP3   OH230922   6.521   4.724   7.324 -0.2049 -0.4612 -0.1393
 3096TIP3    H130923   6.476   4.644   7.294 -1.5988  0.6972 -1.2873
 3096TIP3    H230924   6.505   4.726   7.419 -1.0600 -0.9970 -0.2587
 3097TIP3   OH230925   0.075   4.577   8.435 -0.1069  0.3394  0.1325
 3097TIP3    H130926   0.149   4.555   8.492  1.0427  1.6460 -0.8083
 3097TIP3    H230927   0.024   4.496   8.431  0.9260 -0.4176  1.2967
 3098TIP3   OH230928   6.745   3.419   2.803  0.1396  0.2930 -0.0839
 3098TIP3    H130929   6.752   3.345   2.743  0.9506  0.9848 -0.8733
 3098TIP3    H230930   6.815   3.404   2.867 -0.9310 -0.6126  0.9016
 3099TIP3   OH230931   5.597   5.587   1.665  0.1666  0.5033  0.4190
 3099TIP3    H130932   5.600   5.680   1.645 -0.5420  0.4805  0.1701
 3099TIP3    H230933   5.570   5.545   1.583  0.1922  0.1114  0.6049
 3100TIP3   OH230934   4.221   1.680   1.365 -0.1057  0.1925  0.0020
 3100TIP3    H130935   4.278   1.608   1.339 -0.1505  0.8369 -2.0567
 3100TIP3    H230936   4.215   1.673   1.460  1.3017 -1.4448  0.0140
 3101TIP3   OH230937   5.806   3.540   2.205  0.3084 -0.4362  0.5408
 3101TIP3    H130938   5.719   3.569   2.232  1.1600  0.8203  2.1211
 3101TIP3    H230939   5.830   3.472   2.268  0.7530 -0.3027  0.5195
 3102TIP3   OH230940   3.187   1.253   0.518 -0.1099 -0.2998 -0.4243
 3102TIP3    H130941   3.148   1.330   0.559 -1.1809  0.0203 -1.9374
 3102TIP3    H230942   3.119   1.220   0.459  0.7807 -1.6602 -0.7472
 3103TIP3   OH230943   6.614   4.829   6.842 -0.5770 -0.1668  0.5119
 3103TIP3    H130944   6.673   4.807   6.915 -0.0523 -0.9553 -0.1311
 3103TIP3    H230945   6.654   4.787   6.766 -1.7411 -0.3485 -0.0234
 3104TIP3   OH230946   1.553   5.160   1.081 -0.6704  0.2130  0.4970
 3104TIP3    H130947   1.473   5.209   1.101 -1.5014  0.0840 -2.1462
 3104TIP3    H230948   1.596   5.210   1.011 -1.1665 -2.2918 -1.7865
 3105TIP3   OH230949   6.671   6.143   6.547  0.2832  0.1902 -0.3871
 3105TIP3    H130950   6.694   6.236   6.547  2.1625 -0.2342 -0.0726
 3105TIP3    H230951   6.582   6.141   6.581  0.5069  1.8178  0.4357
 3106TIP3   OH230952   6.699   3.215   6.817  0.9438 -0.4756 -0.4900
 3106TIP3    H130953   6.780   3.208   6.869  0.5607 -1.1027  0.0261
 3106TIP3    H230954   6.727   3.197   6.728  1.6597  0.8584 -0.5735
 3107TIP3   OH230955   2.015   4.892   0.983  0.5105 -0.0220  0.7926
 3107TIP3    H130956   2.098   4.858   1.016  1.7580  2.1700  0.1046
 3107TIP3    H230957   2.017   4.874   0.889  0.4203  0.4546  0.6979
 3108TIP3   OH230958   2.852   1.500   7.882  0.2406 -0.0346 -0.1176
 3108TIP3    H130959   2.770   1.494   7.932  1.4522  0.3190  2.0679
 3108TIP3    H230960   2.879   1.591   7.892  0.9465 -0.1745 -0.7018
 3109TIP3   OH230961   0.847   5.103   0.197 -0.7068 -0.1058 -0.1134
 3109TIP3    H130962   0.802   5.080   0.278  0.1546 -0.3907  0.2956
 3109TIP3    H230963   0.780   5.096   0.129 -0.9310 -2.0311  0.2585
 3110TIP3   OH230964   0.762   6.799   8.202 -0.6337  0.0251 -0.3753
 3110TIP3    H130965   0.804   6.715   8.183  1.2220  0.6200  0.8083
 3110TIP3    H230966   0.705   6.781   8.277  0.5427  0.0023  0.5420
 3111TIP3   OH230967   1.050   2.111   1.870  0.4948 -0.1793  0.0018
 3111TIP3    H130968   1.038   2.079   1.781 -1.0664 -0.9059  0.4276
 3111TIP3    H230969   1.119   2.177   1.864  1.2420 -1.0558 -1.5294
 3112TIP3   OH230970   5.083   6.402   7.143  0.2061 -0.1179 -0.0687
 3112TIP3    H130971   5.148   6.385   7.074  0.7463  0.2858  0.3285
 3112TIP3    H230972   5.076   6.319   7.190  0.3507 -0.1993 -0.1877
 3113TIP3   OH230973   4.283   3.950   6.907 -0.1749  0.0223 -0.3898
 3113TIP3    H130974   4.259   3.882   6.844  1.1126 -2.4343  1.5617
 3113TIP3    H230975   4.203   3.966   6.957 -0.4789 -0.1036 -0.8286
 3114TIP3   OH230976   5.774   3.434   1.722  0.3108 -0.1651  0.4232
 3114TIP3    H130977   5.690   3.419   1.765  0.4580  0.9747  1.1603
 3114TIP3    H230978   5.792   3.353   1.675 -1.6290 -0.1021 -0.5188
 3115TIP3   OH230979   3.021   2.941   1.423 -0.1196  0.0093 -0.0500
 3115TIP3    H130980   2.969   2.863   1.403  0.4384 -0.9625  2.0300
 3115TIP3    H230981   3.064   2.963   1.341  0.1342 -2.2233 -0.5777
 3116TIP3   OH230982   0.050   2.243   8.210  0.4517  0.0478 -0.7178
 3116TIP3    H130983   0.123   2.302   8.230  0.5588 -0.3501  0.1179
 3116TIP3    H230984  -0.029   2.295   8.228  0.5339 -0.5359  1.6500
 3117TIP3   OH230985   2.136   4.252   7.986  0.0456  0.1955 -0.4922
 3117TIP3    H130986   2.212   4.260   7.929  1.2206 -0.0016  0.9857
 3117TIP3    H230987   2.097   4.339   7.986  0.5528  0.4309 -0.8867
 3118TIP3   OH230988   5.612   6.841   7.330  0.6512  0.0610 -0.6230
 3118TIP3    H130989   5.622   6.913   7.268 -0.0600  1.3033  0.6334
 3118TIP3    H230990   5.523   6.851   7.364  1.4249  0.2139  1.4988
 3119TIP3   OH230991   6.903   6.121   6.281  0.3445  0.5297  0.2156
 3119TIP3    H130992   6.933   6.174   6.356  0.6952 -1.2574  1.4123
 3119TIP3    H230993   6.882   6.036   6.319 -0.8043 -0.0203 -1.5421
 3120TIP3   OH230994   2.313   6.623   0.835 -0.2918 -0.2049 -0.1882
 3120TIP3    H130995   2.364   6.654   0.761 -0.5480 -0.0033 -0.2845
 3120TIP3    H230996   2.250   6.562   0.797 -1.0371  0.6032 -0.2797
 3121TIP3   OH230997   5.200   1.523   0.918 -0.4168  0.2686  0.2783
 3121TIP3    H130998   5.161   1.459   0.978  0.3705  0.1977  0.7285
 3121TIP3    H230999   5.204   1.604   0.968 -0.8600  0.5253 -0.0923
 3122TIP3   OH231000   6.137   2.572   7.237  0.2849 -0.3327  0.2297
 3122TIP3    H131001   6.151   2.522   7.318  2.8137 -0.1379 -0.0148
 3122TIP3    H231002   6.192   2.649   7.247 -1.9680  1.4280 -0.2877
 3123TIP3   OH231003   4.357   5.743   1.081 -0.1866 -0.6189  0.2516
 3123TIP3    H131004   4.393   5.785   1.160  1.1275 -1.0840 -0.0618
 3123TIP3    H231005   4.322   5.659   1.112  0.2429 -0.7594  0.3660
 3124TIP3   OH231006   2.848   5.594   6.609  0.2236 -0.3481  0.0046
 3124TIP3    H131007   2.858   5.557   6.696  0.4114 -2.8500 -0.9872
 3124TIP3    H231008   2.933   5.631   6.588 -0.5458  2.8827  1.8572
 3125TIP3   OH231009   5.575   2.595   1.365  0.2059 -0.0316  0.2601
 3125TIP3    H131010   5.630   2.580   1.442 -0.1139 -1.7716  0.1980
 3125TIP3    H231011   5.492   2.554   1.388 -0.0848 -0.0418 -0.7965
 3126TIP3   OH231012   3.358   1.330   0.056  0.2097 -0.1205  0.1772
 3126TIP3    H131013   3.289   1.387   0.087  1.2873  1.2370  0.1766
 3126TIP3    H231014   3.329   1.302  -0.031  1.5715  4.1191 -1.9300
 3127TIP3   OH231015   4.836   4.196   7.816  0.4454 -0.2357 -0.0725
 3127TIP3    H131016   4.753   4.185   7.769  0.1047  0.8661  0.2315
 3127TIP3    H231017   4.810   4.202   7.908  0.6112  2.1214 -0.1156
 3128TIP3   OH231018   0.559   6.267   6.935 -0.2772  0.0153  0.3791
 3128TIP3    H131019   0.598   6.310   7.011 -0.1150 -1.8106  1.3801
 3128TIP3    H231020   0.633   6.235   6.885 -0.3962  0.9397 -0.4194
 3129TIP3   OH231021   1.447   6.373   0.580  0.2330 -0.0650 -0.1010
 3129TIP3    H131022   1.355   6.376   0.552  0.0578 -0.5243  0.4108
 3129TIP3    H231023   1.447   6.316   0.657  1.2364 -1.6026 -1.1675
 3130TIP3   OH231024   0.530   1.250   7.665  0.6703  0.0235 -0.4974
 3130TIP3    H131025   0.482   1.172   7.694  0.3779  0.7903  1.1832
 3130TIP3    H231026   0.537   1.239   7.570 -2.6403 -0.2272 -0.8319
 3131TIP3   OH231027   2.999   4.177   0.992 -0.2031  0.1503 -0.3620
 3131TIP3    H131028   2.982   4.220   1.076 -0.1859 -0.0077 -0.2767
 3131TIP3    H231029   3.074   4.225   0.956  0.7710 -0.7316  0.4103
 3132TIP3   OH231030   1.547   4.751   7.932  0.4623 -0.1152 -0.5650
 3132TIP3    H131031   1.483   4.769   7.862  1.6200 -0.0632 -1.6446
 3132TIP3    H231032   1.625   4.801   7.906  1.3381 -1.1119  0.1038
 3133TIP3   OH231033   6.460   1.234   2.522 -0.1693 -0.0455  0.3793
 3133TIP3    H131034   6.515   1.224   2.444 -0.3764 -0.6983  0.3086
 3133TIP3    H231035   6.509   1.293   2.579 -0.0050  0.4254 -0.2345
 3134TIP3   OH231036   5.583   3.254   0.239  0.4196  0.5540 -0.1516
 3134TIP3    H131037   5.554   3.169   0.206  1.1849  0.3436 -0.2872
 3134TIP3    H231038   5.545   3.258   0.328 -1.1036  0.8557 -0.7789
 3135TIP3   OH231039   3.768   4.150   1.267 -0.3559  0.2774 -0.2418
 3135TIP3    H131040   3.816   4.185   1.342 -0.4591  1.5403 -0.7449
 3135TIP3    H231041   3.676   4.157   1.291 -0.4032  0.9967 -0.6041
 3136TIP3   OH231042   6.789   3.892   0.644 -0.1021 -0.0648  0.0436
 3136TIP3    H131043   6.782   3.914   0.551  0.2084  0.1670  0.0774
 3136TIP3    H231044   6.715   3.832   0.659  0.4458 -0.9318 -0.5943
 3137TIP3   OH231045   1.515   4.083   8.099 -0.5643  0.0378  0.3061
 3137TIP3    H131046   1.513   4.106   8.192 -0.7333 -0.0039  0.3138
 3137TIP3    H231047   1.604   4.052   8.083 -0.1757  1.1530  0.1899
 3138TIP3   OH231048   6.324   2.488   8.017  0.0496 -0.1640 -0.1975
 3138TIP3    H131049   6.301   2.406   8.060  2.1689 -1.0699 -0.6557
 3138TIP3    H231050   6.285   2.481   7.930  1.1188 -1.2411 -0.6302
 3139TIP3   OH231051   3.891   3.105   1.288  0.1595 -0.3942  0.5819
 3139TIP3    H131052   3.944   3.169   1.242  3.2003 -3.0687 -0.0304
 3139TIP3    H231053   3.920   3.110   1.379 -1.5509  0.8052  1.1255
 3140TIP3   OH231054   1.018   2.246   6.943  0.2061 -1.2685 -0.1405
 3140TIP3    H131055   0.923   2.241   6.952 -0.1671  0.6441 -2.0041
 3140TIP3    H231056   1.035   2.213   6.855  1.3261 -1.8686  0.2816
 3141TIP3   OH231057   0.842   0.675   8.169  0.0504 -0.2882  0.1848
 3141TIP3    H131058   0.759   0.657   8.124  1.2675 -2.3423 -1.3785
 3141TIP3    H231059   0.881   0.589   8.183  3.3001  0.6997 -1.7908
 3142TIP3   OH231060   1.954   5.985   0.473  0.4152 -0.4831  0.1291
 3142TIP3    H131061   1.878   5.994   0.415  1.7819  2.3256 -1.4065
 3142TIP3    H231062   2.008   5.919   0.431  0.3897 -0.0201 -0.6450
 3143TIP3   OH231063   1.371   2.392   0.359 -1.0066 -0.2611 -0.4686
 3143TIP3    H131064   1.338   2.474   0.395 -1.9257 -1.3458  1.3094
 3143TIP3    H231065   1.371   2.406   0.264 -1.4558  1.6548 -0.2314
 3144TIP3   OH231066   4.307   2.199   6.894  0.0041 -0.0147 -0.5090
 3144TIP3    H131067   4.344   2.285   6.878  1.1348  0.0447  1.9697
 3144TIP3    H231068   4.329   2.148   6.816 -0.1122  1.7123 -1.7337
 3145TIP3   OH231069   4.331   2.509   7.509 -0.1603  0.3253 -0.1596
 3145TIP3    H131070   4.315   2.465   7.592  1.7785  0.6377  0.4111
 3145TIP3    H231071   4.398   2.457   7.466  0.3871  1.3300 -0.5644
 3146TIP3   OH231072   2.088   3.565   5.897  0.6416  0.5042  0.6037
 3146TIP3    H131073   2.031   3.642   5.901  0.6241  0.4491  1.5572
 3146TIP3    H231074   2.046   3.507   5.834  0.6338  1.2595 -0.0971
 3147TIP3   OH231075   1.865   5.986   1.298  0.3829  0.2628  0.4495
 3147TIP3    H131076   1.769   5.984   1.297  0.3581  0.9062 -1.4910
 3147TIP3    H231077   1.891   5.905   1.254  0.6965  0.7261 -0.2320
 3148TIP3   OH231078   1.772   6.383   7.455 -0.0813 -0.2131  0.4491
 3148TIP3    H131079   1.742   6.414   7.369 -1.2841  1.2234  1.3432
 3148TIP3    H231080   1.803   6.461   7.500 -0.4086 -0.7698  1.6977
 3149TIP3   OH231081   0.237   3.061   1.744  0.6265  0.3565 -0.0787
 3149TIP3    H131082   0.171   3.111   1.792 -0.0447  0.7146 -1.3186
 3149TIP3    H231083   0.306   3.125   1.727  0.9152  0.2007  0.4944
 3150TIP3   OH231084   4.977   6.892   0.434 -0.3658  0.3218  0.3358
 3150TIP3    H131085   4.894   6.854   0.462  0.0240 -0.9610 -0.1675
 3150TIP3    H231086   5.032   6.888   0.513 -1.0741  2.2032  0.9964
 3151TIP3   OH231087   2.927   6.215   6.577 -0.9137  0.1382 -0.2619
 3151TIP3    H131088   2.917   6.305   6.548  3.0214  0.3135 -1.7641
 3151TIP3    H231089   3.020   6.206   6.597 -1.2445 -3.4311  0.4748
 3152TIP3   OH231090   6.344   4.285   1.426 -0.3071 -0.2083 -0.1213
 3152TIP3    H131091   6.425   4.319   1.462 -0.2661  0.7805 -1.1206
 3152TIP3    H231092   6.295   4.362   1.397 -1.1845 -0.8541 -0.4218
 3153TIP3   OH231093   1.953   1.916   8.241  0.9658 -0.5330 -0.2390
 3153TIP3    H131094   1.867   1.875   8.230  0.4114  0.6680 -0.4991
 3153TIP3    H231095   1.943   2.003   8.204  1.9333  0.0792  0.8741
 3154TIP3   OH231096   5.979   0.177   0.321 -0.6553  0.0632 -0.6886
 3154TIP3    H131097   6.015   0.264   0.340  0.0704 -0.5221  0.8278
 3154TIP3    H231098   5.903   0.170   0.379 -0.1536 -0.6481 -0.0968
 3155TIP3   OH231099   0.071   6.782   7.858  0.5572 -0.6591  0.2816
 3155TIP3    H131100   0.051   6.706   7.803  1.6128 -0.2293 -0.7219
 3155TIP3    H231101   0.139   6.751   7.918  1.4451 -0.3574 -0.5442
 3156TIP3   OH231102   6.439   0.923   7.761 -0.8015 -0.6048 -0.7501
 3156TIP3    H131103   6.343   0.922   7.771 -1.0913  1.7280 -2.4538
 3156TIP3    H231104   6.453   0.899   7.670  0.2568 -0.9815 -0.4939
 3157TIP3   OH231105   2.683   6.881   7.218 -0.2102  0.1881  0.4257
 3157TIP3    H131106   2.659   6.867   7.127  0.4524 -0.7755  0.3788
 3157TIP3    H231107   2.629   6.818   7.266  0.3143 -0.1539  0.5730
 3158TIP3   OH231108   0.863   2.869   0.115  0.2881 -0.1767  0.1673
 3158TIP3    H131109   0.788   2.885   0.058  1.6246  1.6989 -1.2010
 3158TIP3    H231110   0.828   2.818   0.188 -2.1122 -0.0809 -0.8392
 3159TIP3   OH231111   1.259   0.366   8.288  0.0779 -0.2056  0.0972
 3159TIP3    H131112   1.207   0.310   8.230 -1.7076 -0.2255  1.6413
 3159TIP3    H231113   1.264   0.317   8.370  1.9386  0.1511  0.2480
 3160TIP3   OH231114   4.005   4.886   6.959 -0.4084  0.2617 -0.3691
 3160TIP3    H131115   3.925   4.932   6.982 -0.0479  0.3965  0.6974
 3160TIP3    H231116   4.006   4.884   6.864 -0.7758  1.8488 -0.4282
 3161TIP3   OH231117   2.119   4.222   5.942 -0.9722 -0.0611 -0.5540
 3161TIP3    H131118   2.159   4.139   5.970  2.1382  2.0449  2.0141
 3161TIP3    H231119   2.078   4.256   6.021 -1.0939  1.3983 -1.2221
 3162TIP3   OH231120   4.812   0.253   6.674 -0.0677 -0.6457  0.5079
 3162TIP3    H131121   4.749   0.256   6.602 -1.6369  0.0631  1.8359
 3162TIP3    H231122   4.891   0.215   6.636 -0.8985 -0.4440 -1.5255
 3163TIP3   OH231123   2.262   4.856   0.637 -0.5879 -0.4137 -0.2905
 3163TIP3    H131124   2.265   4.911   0.715  0.5848 -2.6331  1.3549
 3163TIP3    H231125   2.227   4.913   0.569 -0.6489  1.9480  1.5696
 3164TIP3   OH231126   0.311   3.267   0.783  0.4152  0.3081 -0.3992
 3164TIP3    H131127   0.280   3.217   0.858  0.4046  1.2094  0.2120
 3164TIP3    H231128   0.329   3.201   0.716 -4.2197 -0.2443 -1.4064
 3165TIP3   OH231129   1.416   6.627   1.292 -0.2381  0.0005  0.1415
 3165TIP3    H131130   1.443   6.716   1.269 -1.2000  0.4013  0.5235
 3165TIP3    H231131   1.336   6.639   1.343 -1.0751 -1.1564 -0.8707
 3166TIP3   OH231132   4.890   4.364   8.319 -0.1110 -0.4296 -0.6368
 3166TIP3    H131133   4.847   4.448   8.304  0.2650 -0.0327  0.4582
 3166TIP3    H231134   4.981   4.378   8.291  0.8536  0.6095  2.6326
 3167TIP3   OH231135   4.881   5.156   1.516 -0.3377 -0.4410 -0.0759
 3167TIP3    H131136   4.806   5.213   1.496 -0.8094 -0.5416  1.2385
 3167TIP3    H231137   4.848   5.067   1.503 -0.2003 -0.4660 -0.2558
 3168TIP3   OH231138   1.711   5.570   1.436 -0.0658  0.1688  0.0789
 3168TIP3    H131139   1.672   5.521   1.364  0.9401 -0.2877 -0.1790
 3168TIP3    H231140   1.660   5.545   1.513 -0.6105  0.0027 -0.3348
 3169TIP3   OH231141   4.439   3.414   8.217  0.2250 -0.0379  0.2130
 3169TIP3    H131142   4.520   3.415   8.165  0.9395 -2.9218  1.0683
 3169TIP3    H231143   4.386   3.345   8.177 -1.5500  1.3409  0.1008
 3170TIP3   OH231144   0.189   1.672   7.764 -0.5863  0.0305  0.1429
 3170TIP3    H131145   0.107   1.646   7.805 -1.0202  2.6820  1.1190
 3170TIP3    H231146   0.224   1.741   7.820  0.9863  0.7954 -1.6436
 3171TIP3   OH231147   5.162   5.608   7.611  0.1715  0.5273  0.6911
 3171TIP3    H131148   5.131   5.538   7.554 -0.3605 -1.5306  3.3317
 3171TIP3    H231149   5.099   5.679   7.598 -0.3246 -0.1302 -0.7354
 3172TIP3   OH231150   0.572   3.126   8.014  0.0041 -0.3870  0.7747
 3172TIP3    H131151   0.645   3.157   7.960 -0.9102 -2.4193 -1.8315
 3172TIP3    H231152   0.494   3.159   7.970 -0.7947  1.5902  3.4222
 3173TIP3   OH231153   5.931   1.167   2.510  0.1883 -0.2921  0.0846
 3173TIP3    H131154   5.976   1.163   2.594 -0.3292 -1.0392  0.3436
 3173TIP3    H231155   5.887   1.082   2.502  0.6100 -0.4279 -1.1595
 3174TIP3   OH231156   1.368   3.670   2.351 -0.1953  0.2842  0.2526
 3174TIP3    H131157   1.289   3.720   2.372  0.7669  1.3183  1.5684
 3174TIP3    H231158   1.404   3.715   2.274 -0.4109  0.3307  0.1752
 3175TIP3   OH231159   3.568   3.077   7.963 -0.2238  0.1481 -0.7869
 3175TIP3    H131160   3.591   3.012   8.030  0.8982 -0.0054 -1.2863
 3175TIP3    H231161   3.542   3.154   8.012 -0.4294 -0.3030 -0.1746
 3176TIP3   OH231162   6.033   5.505   1.353 -0.1167 -0.0711 -0.4213
 3176TIP3    H131163   6.063   5.477   1.267  0.9945 -0.8170  0.1876
 3176TIP3    H231164   6.089   5.458   1.415 -1.5363 -0.3152  0.7369
 3177TIP3   OH231165   3.787   4.171   7.980  0.2671  0.2142 -0.1935
 3177TIP3    H131166   3.824   4.128   8.057 -0.0881 -0.2481 -0.2796
 3177TIP3    H231167   3.760   4.099   7.923  0.7387  0.5495 -0.8542
 3178TIP3   OH231168   1.816   4.796   1.426  0.0065  0.3250 -0.2025
 3178TIP3    H131169   1.801   4.707   1.394 -1.9685  0.0281  1.3293
 3178TIP3    H231170   1.832   4.847   1.347 -2.7101 -0.7107 -1.5523
 3179TIP3   OH231171   6.187   2.617   0.478 -0.3106  0.0342 -0.2410
 3179TIP3    H131172   6.178   2.706   0.445  0.4875  0.1575 -0.1474
 3179TIP3    H231173   6.280   2.596   0.466 -0.4803 -0.7763 -0.2443
 3180TIP3   OH231174   5.401   5.932   8.004 -0.4913 -0.6900 -0.1243
 3180TIP3    H131175   5.496   5.938   8.011 -0.5906  1.2252  0.1407
 3180TIP3    H231176   5.371   5.921   8.094 -0.5596 -0.0237 -0.0567
 3181TIP3   OH231177   0.747   1.442   7.417 -0.4029 -0.2726 -0.1169
 3181TIP3    H131178   0.826   1.388   7.415 -0.2414 -0.0276 -0.3083
 3181TIP3    H231179   0.736   1.466   7.510  0.0291  0.1107 -0.1643
 3182TIP3   OH231180   5.132   0.374   1.324 -0.5298  0.7419  0.2079
 3182TIP3    H131181   5.194   0.322   1.374 -0.9080 -1.3621 -1.3734
 3182TIP3    H231182   5.175   0.459   1.314  1.1178  0.0480  0.9765
 3183TIP3   OH231183   4.743   2.400   0.617  0.0886 -0.2372 -0.0641
 3183TIP3    H131184   4.783   2.470   0.567 -1.5532 -0.2364 -1.4592
 3183TIP3    H231185   4.733   2.328   0.555  0.3331 -1.1702  0.9388
 3184TIP3   OH231186   0.297   2.331   6.252 -0.0200 -0.2915  0.3201
 3184TIP3    H131187   0.300   2.238   6.231  1.0708 -0.8341  2.6333
 3184TIP3    H231188   0.388   2.356   6.267 -0.4122  0.8201  1.0482
 3185TIP3   OH231189   4.714   6.411   7.620 -0.2640  0.2050  0.0010
 3185TIP3    H131190   4.786   6.372   7.570 -0.1351  1.0615 -0.4935
 3185TIP3    H231191   4.729   6.381   7.710 -0.6329 -1.5468 -0.4863
 3186TIP3   OH231192   4.605   0.246   0.509  0.5862 -0.5665 -0.2275
 3186TIP3    H131193   4.671   0.222   0.444  2.4489  0.2618  1.2473
 3186TIP3    H231194   4.563   0.324   0.473  2.2910  0.4880 -0.0602
 3187TIP3   OH231195   6.886   4.132   0.736 -0.9047  0.7240  0.2927
 3187TIP3    H131196   6.830   4.056   0.753  1.3718 -0.9846  0.5408
 3187TIP3    H231197   6.905   4.127   0.642  1.3374 -0.6147  0.7539
 3188TIP3   OH231198   3.417   5.720   7.475 -0.4234  0.0403 -0.0211
 3188TIP3    H131199   3.419   5.807   7.516 -0.4678 -0.1677  0.4312
 3188TIP3    H231200   3.341   5.677   7.516  0.9669 -1.0631  1.5379
 3189TIP3   OH231201   1.514   0.281   0.002  0.4510  0.3821  0.0598
 3189TIP3    H131202   1.452   0.332   0.054  1.8265  1.4312  0.7639
 3189TIP3    H231203   1.495   0.190   0.023 -1.1845  0.6361 -0.1800
 3190TIP3   OH231204   5.079   0.641   2.924 -0.2495 -0.1565 -0.1356
 3190TIP3    H131205   5.020   0.696   2.974  1.7253  1.0631  1.0039
 3190TIP3    H231206   5.127   0.701   2.866  0.4895 -0.9480 -0.3844
 3191TIP3   OH231207   4.148   2.910   1.410  0.4618 -0.6638  0.0111
 3191TIP3    H131208   4.127   2.831   1.360  0.1889 -0.1853 -0.6445
 3191TIP3    H231209   4.230   2.889   1.455  0.3655 -1.3344 -0.1192
 3192TIP3   OH231210   2.805   3.562   6.470  0.5937  0.2806 -0.3875
 3192TIP3    H131211   2.901   3.566   6.461  0.4882 -1.4089 -3.7635
 3192TIP3    H231212   2.776   3.651   6.449  1.3281 -0.0773 -3.3433
 3193TIP3   OH231213   2.841   1.144   0.551  0.0495 -0.3009 -0.0353
 3193TIP3    H131214   2.810   1.219   0.601 -1.1774 -1.4859  1.0912
 3193TIP3    H231215   2.885   1.089   0.616  1.2141 -0.4219 -0.9031
 3194TIP3   OH231216   5.931   0.930   0.648 -0.3759  0.3426 -0.0474
 3194TIP3    H131217   5.846   0.902   0.613 -1.0123 -0.5585  2.0671
 3194TIP3    H231218   5.913   0.952   0.739  1.3338  1.9367 -0.0563
 3195TIP3   OH231219   5.064   5.923   0.207  0.3670 -0.6712  0.8438
 3195TIP3    H131220   5.122   5.849   0.221  3.5030  1.1742 -1.1655
 3195TIP3    H231221   5.106   5.995   0.255 -0.7467  0.5625  0.0332
 3196TIP3   OH231222   2.498   1.343   6.865 -0.0290 -0.2613  0.4423
 3196TIP3    H131223   2.516   1.260   6.820 -0.7904  0.1473 -0.6449
 3196TIP3    H231224   2.541   1.409   6.812 -1.2225  0.2677  0.1045
 3197TIP3   OH231225   0.031   6.410   0.760  0.2408 -0.0732  0.0134
 3197TIP3    H131226  -0.051   6.410   0.810 -0.9768 -1.2782 -1.8305
 3197TIP3    H231227   0.082   6.482   0.797 -0.9102 -0.3528  2.3629
 3198TIP3   OH231228   5.836   2.658   1.520 -0.6732 -0.3293  0.4053
 3198TIP3    H131229   5.755   2.642   1.568 -0.0808 -0.4307  1.3980
 3198TIP3    H231230   5.839   2.754   1.511 -1.8222 -0.4089 -1.3106
 3199TIP3   OH231231   1.748   6.635   7.699  0.0462 -0.4075  1.1271
 3199TIP3    H131232   1.835   6.616   7.664  0.6121  2.5386  0.7356
 3199TIP3    H231233   1.688   6.615   7.627  0.5281 -0.8263  0.8332
 3200TIP3   OH231234   6.571   3.247   1.696  0.5128 -0.4051  0.2946
 3200TIP3    H131235   6.616   3.318   1.743  0.6949 -0.9221  0.9089
 3200TIP3    H231236   6.610   3.248   1.608 -1.5245  2.1663 -0.7044
 3201TIP3   OH231237   6.549   2.428   1.413  0.1674  0.6738  0.1764
 3201TIP3    H131238   6.472   2.389   1.373  0.1634  0.3309  0.5171
 3201TIP3    H231239   6.514   2.487   1.480  0.1284  2.0829 -1.0238
 3202TIP3   OH231240   1.392   0.622   7.750  0.4245 -0.2346 -0.0227
 3202TIP3    H131241   1.433   0.536   7.762 -1.5921 -1.1717  0.4808
 3202TIP3    H231242   1.449   0.667   7.687  2.1042 -1.5182  0.5148
 3203TIP3   OH231243   1.121   4.902   8.030 -0.2849  0.0858  0.1673
 3203TIP3    H131244   1.120   4.838   8.101  2.3036 -0.3137 -0.0514
 3203TIP3    H231245   1.056   4.871   7.968 -0.2090 -1.4500  0.8255
 3204TIP3   OH231246   6.193   2.890   0.425  0.2945  0.5303 -0.2254
 3204TIP3    H131247   6.183   2.970   0.373  4.3176  1.7787  0.5405
 3204TIP3    H231248   6.181   2.919   0.516  1.1451  0.1623  0.0168
 3205TIP3   OH231249   2.610   6.871   0.124 -0.0858 -0.1150  0.1074
 3205TIP3    H131250   2.612   6.864   0.219 -0.3569 -2.9247 -0.0092
 3205TIP3    H231251   2.700   6.897   0.101  0.2179 -0.2458  1.0781
 3206TIP3   OH231252   5.423   3.047   0.123  0.2154  0.3325 -0.0242
 3206TIP3    H131253   5.334   3.015   0.110  1.3467 -2.2809 -2.0594
 3206TIP3    H231254   5.442   3.098   0.044  0.6276  0.7136  0.3144
 3207TIP3   OH231255   3.382   4.738   8.053 -0.1839  0.0872 -0.2359
 3207TIP3    H131256   3.444   4.702   8.116 -0.9783  3.2687  2.6198
 3207TIP3    H231257   3.299   4.695   8.073  0.2084 -1.2679 -1.3878
 3208TIP3   OH231258   0.976   6.460   7.229  0.6573  0.2566  0.3094
 3208TIP3    H131259   1.067   6.489   7.224  0.1039  1.9453 -0.7859
 3208TIP3    H231260   0.939   6.511   7.302  0.1656  0.9157 -0.3833
 3209TIP3   OH231261   1.480   6.242   7.129 -0.5179 -0.5577  0.3086
 3209TIP3    H131262   1.528   6.215   7.050  0.5218  0.0416  0.7163
 3209TIP3    H231263   1.403   6.185   7.130 -0.5552 -0.5886 -1.1339
 3210TIP3   OH231264   0.676   2.978   8.380  0.3447 -0.4484  0.1962
 3210TIP3    H131265   0.664   3.028   8.461 -1.1718  0.1287 -0.3505
 3210TIP3    H231266   0.595   2.991   8.332  1.7898  0.5424 -2.1492
 3211TIP3   OH231267   2.749   1.336   1.828 -0.4180  0.7541 -0.0862
 3211TIP3    H131268   2.709   1.252   1.851 -1.5560  1.0951 -0.7474
 3211TIP3    H231269   2.806   1.356   1.903 -0.7590 -0.2087  0.4546
 3212TIP3   OH231270   1.582   4.459   8.376 -0.1067  0.0320  0.6015
 3212TIP3    H131271   1.511   4.520   8.397 -0.7636 -0.2945 -0.5935
 3212TIP3    H231272   1.575   4.445   8.282  2.0115  0.5436  0.3164
 3213TIP3   OH231273   6.267   4.494   0.757 -0.0631  0.3835  0.0720
 3213TIP3    H131274   6.353   4.470   0.792 -1.1333 -1.1467  1.8454
 3213TIP3    H231275   6.209   4.494   0.833 -2.1649 -1.2799 -1.4072
 3214TIP3   OH231276   5.096   4.373   1.987 -0.0369  0.0350  0.1981
 3214TIP3    H131277   5.086   4.291   2.036 -0.6509  1.3948  2.5302
 3214TIP3    H231278   5.049   4.358   1.905 -1.0908 -1.5760  1.0440
 3215TIP3   OH231279   4.331   2.191   1.156  0.3395  0.0823  0.4829
 3215TIP3    H131280   4.337   2.263   1.218  4.7535  0.1195  0.2828
 3215TIP3    H231281   4.316   2.114   1.211 -1.4723  0.7138  0.9534
 3216TIP3   OH231282   0.084   0.274   6.791 -0.3581 -0.2687 -0.3456
 3216TIP3    H131283   0.171   0.309   6.771 -0.3826  0.8662  1.3180
 3216TIP3    H231284   0.030   0.300   6.717  0.0033  1.9619  0.0947
 3217TIP3   OH231285   5.851   0.088   6.833  0.5019  0.4022 -0.0004
 3217TIP3    H131286   5.907   0.089   6.911 -1.0949  2.6780  1.2577
 3217TIP3    H231287   5.882   0.162   6.781 -0.0858  0.4750 -0.2504
 3218TIP3   OH231288   1.744   5.004   0.326 -0.3275  0.1573  0.3425
 3218TIP3    H131289   1.796   4.977   0.250 -0.7711 -1.9684  0.7371
 3218TIP3    H231290   1.807   5.010   0.397 -0.4917 -2.1019  0.7454
 3219TIP3   OH231291   4.058   1.858   2.679 -0.1841  0.4309  0.0881
 3219TIP3    H131292   4.057   1.954   2.677 -0.4264  0.5304  2.2180
 3219TIP3    H231293   3.966   1.833   2.676 -0.0947  0.1664 -1.5721
 3220TIP3   OH231294   1.089   6.960   1.668  0.0540  0.3917 -0.0547
 3220TIP3    H131295   1.088   6.943   1.762 -0.1559  1.6745  0.1984
 3220TIP3    H231296   0.999   6.943   1.639  0.3507 -0.9664 -0.2265
 3221TIP3   OH231297   6.822   0.395   1.821 -0.1360 -0.1067 -0.4710
 3221TIP3    H131298   6.729   0.372   1.824  0.4282 -2.4418  2.1464
 3221TIP3    H231299   6.861   0.330   1.763  0.0422  0.2599 -0.7682
 3222TIP3   OH231300   1.175   5.140   0.853  0.2822  0.5347  0.5287
 3222TIP3    H131301   1.101   5.153   0.912 -0.8809 -0.2317 -0.6970
 3222TIP3    H231302   1.242   5.201   0.884 -1.5174  2.6122  0.5511
 3223TIP3   OH231303   6.290   2.599   8.322  0.2554  0.3286 -0.0493
 3223TIP3    H131304   6.328   2.683   8.297 -0.7556  0.8292  0.0315
 3223TIP3    H231305   6.209   2.593   8.271  0.0313 -0.3348  0.3633
 3224TIP3   OH231306   2.475   0.924   0.625 -0.0201  0.2705  0.3078
 3224TIP3    H131307   2.429   0.840   0.635  0.7302 -0.0005  1.9211
 3224TIP3    H231308   2.406   0.987   0.607 -0.9551 -0.2889  1.6947
 3225TIP3   OH231309   2.711   3.943   6.601  0.1476  0.3688  0.5981
 3225TIP3    H131310   2.638   3.884   6.619  0.7989 -1.2885 -1.6314
 3225TIP3    H231311   2.671   4.028   6.589 -1.1885 -0.1497  1.2045
 3226TIP3   OH231312   3.194   4.071   7.978 -0.6836  0.7352  0.4246
 3226TIP3    H131313   3.236   4.156   7.988 -1.5401  1.2902 -0.5311
 3226TIP3    H231314   3.218   4.043   7.890  0.6285 -0.6227  1.1593
 3227TIP3   OH231315   3.807   0.706   7.829  0.7132 -0.7012  0.1807
 3227TIP3    H131316   3.869   0.670   7.765  1.0281  0.5026 -0.2221
 3227TIP3    H231317   3.854   0.705   7.912  1.6574  1.0632 -0.2882
 3228TIP3   OH231318   5.904   0.689   8.217 -0.3857 -0.4504  0.2596
 3228TIP3    H131319   5.879   0.638   8.139 -2.9895 -0.1294  0.7944
 3228TIP3    H231320   5.923   0.777   8.183 -0.2831 -0.6258 -0.1454
 3229TIP3   OH231321   5.849   2.260   6.535 -0.1611  0.0129 -0.4526
 3229TIP3    H131322   5.774   2.290   6.485 -1.0671  1.3653  1.5694
 3229TIP3    H231323   5.819   2.181   6.580 -0.8648  1.1778  1.2584
 3230TIP3   OH231324   3.438   0.972   0.061 -0.4824  0.8702 -0.4475
 3230TIP3    H131325   3.409   1.054   0.020  0.3097  1.1733 -0.4110
 3230TIP3    H231326   3.527   0.990   0.089 -0.3109 -0.0088 -0.4251
 3231TIP3   OH231327   2.225   1.980   8.246 -0.0546  0.2940 -0.3073
 3231TIP3    H131328   2.198   1.963   8.155 -2.6861  2.3182 -0.0578
 3231TIP3    H231329   2.144   2.010   8.289  0.7401 -1.9213  3.1369
 3232TIP3   OH231330   5.828   0.423   6.990  0.0308 -0.5068 -0.1874
 3232TIP3    H131331   5.770   0.414   7.066  0.9814 -0.1910  0.6116
 3232TIP3    H231332   5.770   0.419   6.914 -1.0714  0.1620  0.5894
 3233TIP3   OH231333   4.228   2.454   2.299  0.0122  0.4540 -0.5177
 3233TIP3    H131334   4.166   2.526   2.308 -2.1240 -1.3270 -0.1600
 3233TIP3    H231335   4.297   2.473   2.362 -1.1018  1.6132  0.3824
 3234TIP3   OH231336   4.719   1.631   1.632 -0.1180  0.2537  0.0172
 3234TIP3    H131337   4.650   1.565   1.632  0.1487 -0.0580 -1.4569
 3234TIP3    H231338   4.696   1.690   1.704 -1.7022 -0.0620 -0.1989
 3235TIP3   OH231339   2.224   5.889   6.715 -0.1836 -0.3672 -0.0880
 3235TIP3    H131340   2.254   5.968   6.760 -0.1254 -0.2759 -0.2898
 3235TIP3    H231341   2.169   5.921   6.644 -1.9847 -0.5445  1.1469
 3236TIP3   OH231342   3.511   1.015   2.219  0.1050 -0.1407 -0.1016
 3236TIP3    H131343   3.589   1.037   2.268 -0.7306 -1.3717  1.8828
 3236TIP3    H231344   3.490   0.925   2.245 -0.5337 -0.8022 -2.5633
 3237TIP3   OH231345   0.259   6.499   0.225  0.6715  0.5716  0.4826
 3237TIP3    H131346   0.213   6.519   0.144  1.3399  0.1578 -0.0128
 3237TIP3    H231347   0.190   6.492   0.291  0.0125 -0.1196 -0.2563
 3238TIP3   OH231348   3.416   5.448   1.728  0.2501  0.3706  0.4544
 3238TIP3    H131349   3.496   5.501   1.734  1.5000 -0.9603 -2.6454
 3238TIP3    H231350   3.396   5.425   1.819  0.2241  5.0994  1.9389
 3239TIP3   OH231351   6.896   5.197   6.578  0.6580  0.0345 -0.5421
 3239TIP3    H131352   6.849   5.280   6.581 -0.7261 -0.7356  0.0327
 3239TIP3    H231353   6.964   5.210   6.512  0.0595  1.3968 -0.9213
 3240TIP3   OH231354   3.335   3.860   0.400  0.3724 -0.3481  0.4630
 3240TIP3    H131355   3.266   3.815   0.449 -0.5058  0.6563  0.1936
 3240TIP3    H231356   3.305   3.859   0.310 -0.0627  1.4333  0.5594
 3241TIP3   OH231357   0.240   6.506   6.345  0.3080  0.0955  0.2375
 3241TIP3    H131358   0.215   6.452   6.270 -0.2147  0.3846  0.1930
 3241TIP3    H231359   0.161   6.557   6.364  1.2681  2.0937 -0.7958
 3242TIP3   OH231360   6.209   1.375   1.392  0.5414 -0.0405 -0.3719
 3242TIP3    H131361   6.148   1.319   1.344  1.2306 -0.9952 -0.1659
 3242TIP3    H231362   6.267   1.313   1.438  0.4033  0.8376  1.0419
 3243TIP3   OH231363   3.830   2.978   2.243  0.5677 -0.0237  0.1036
 3243TIP3    H131364   3.906   3.035   2.231  1.6158 -1.1609  1.1447
 3243TIP3    H231365   3.768   3.031   2.293  1.1062  0.5484  0.1750
 3244TIP3   OH231366   1.756   0.357   1.965  0.4964  0.5378  0.2469
 3244TIP3    H131367   1.682   0.341   2.023 -0.2299 -1.4086 -1.1115
 3244TIP3    H231368   1.738   0.443   1.927  0.3732  1.3027  1.9117
 3245TIP3   OH231369   0.380   3.521   1.509 -0.6613  0.0438  0.4069
 3245TIP3    H131370   0.358   3.613   1.495  2.0168  0.6426 -0.3996
 3245TIP3    H231371   0.328   3.473   1.444 -1.0621  1.1093 -0.0678
 3246TIP3   OH231372   2.303   4.970   0.874 -0.4903  0.3219  0.7031
 3246TIP3    H131373   2.262   5.005   0.953  1.0393  1.5280  0.9967
 3246TIP3    H231374   2.386   4.933   0.904 -1.0616 -1.6021  0.0397
 3247TIP3   OH231375   4.465   4.073   2.256  0.4502  0.2025 -0.2506
 3247TIP3    H131376   4.422   4.142   2.308  0.9067  0.9300 -0.8097
 3247TIP3    H231377   4.439   3.991   2.298 -1.0278  0.6502 -0.2353
 3248TIP3   OH231378   0.903   0.458   0.905  0.3343 -0.1828 -0.6177
 3248TIP3    H131379   0.944   0.388   0.956 -1.5446  0.5935  2.1921
 3248TIP3    H231380   0.826   0.418   0.866 -0.9731  0.3036  1.3313
 3249TIP3   OH231381   2.206   6.434   6.721 -0.3564 -0.1329  0.7816
 3249TIP3    H131382   2.282   6.388   6.685  0.8749  1.9783  0.4766
 3249TIP3    H231383   2.184   6.386   6.800 -0.7362 -2.6551 -0.7271
 3250TIP3   OH231384   4.045   0.718   0.979  0.3086 -0.3633  0.3210
 3250TIP3    H131385   4.066   0.628   1.004  0.8041 -0.0864  0.9674
 3250TIP3    H231386   3.998   0.753   1.055 -0.9036 -0.4172 -0.3913
 3251TIP3   OH231387   3.112   1.170   7.167 -0.1051  0.3219 -0.2800
 3251TIP3    H131388   3.207   1.184   7.162  0.2136 -1.6756 -0.4674
 3251TIP3    H231389   3.083   1.172   7.076 -0.0927 -0.0542 -0.2908
 3252TIP3   OH231390   6.598   6.736   0.857  0.7911  0.1375  0.0349
 3252TIP3    H131391   6.658   6.696   0.795 -0.9316 -1.9142 -0.4326
 3252TIP3    H231392   6.520   6.681   0.854 -1.4764  3.0767  0.0120
 3253TIP3   OH231393   6.328   3.502   0.788  0.2804 -0.2967  0.0252
 3253TIP3    H131394   6.293   3.413   0.778 -0.8424 -0.0609  1.4652
 3253TIP3    H231395   6.257   3.559   0.757 -0.0717  0.1413  1.5253
 3254TIP3   OH231396   6.852   4.791   1.080 -0.1746 -0.1519  0.0477
 3254TIP3    H131397   6.857   4.882   1.108  0.9129  0.0232 -0.6758
 3254TIP3    H231398   6.916   4.783   1.009  1.4998 -2.0147  1.6188
 3255TIP3   OH231399   6.342   3.193   0.399 -0.3642  0.0700 -0.3105
 3255TIP3    H131400   6.252   3.213   0.425 -0.0817  1.8934 -0.5734
 3255TIP3    H231401   6.337   3.176   0.305 -0.2596  1.8184 -0.6771
 3256TIP3   OH231402   0.801   4.619   1.754  0.0688  0.3454  0.7879
 3256TIP3    H131403   0.728   4.571   1.716 -0.2929  1.5532 -0.1167
 3256TIP3    H231404   0.773   4.640   1.843 -0.1397 -0.3190  0.8826
 3257TIP3   OH231405   6.218   1.339   0.525 -0.2453  0.1832  0.1049
 3257TIP3    H131406   6.289   1.290   0.567 -0.4846 -0.2126  0.0569
 3257TIP3    H231407   6.206   1.416   0.580 -0.4556 -0.2548  0.6887
 3258TIP3   OH231408   1.654   4.072   7.062 -0.2537  0.4478  0.7987
 3258TIP3    H131409   1.644   4.020   7.141 -0.0966  0.2057  0.6624
 3258TIP3    H231410   1.735   4.122   7.076  0.9194 -1.1309 -0.0466
 3259TIP3   OH231411   5.033   0.748   1.263  0.2714  0.3245  0.0669
 3259TIP3    H131412   5.077   0.811   1.321  0.4295  1.7586 -1.5190
 3259TIP3    H231413   4.959   0.797   1.227 -1.0747 -1.2055  0.6167
 3260TIP3   OH231414   3.424   0.389   0.164  0.0586  0.2639  0.0659
 3260TIP3    H131415   3.335   0.403   0.131  0.9658  0.3803 -2.5454
 3260TIP3    H231416   3.467   0.473   0.153  1.0098 -0.2782 -0.4429
 3261TIP3   OH231417   0.300   4.840   2.703  0.2138  0.6657  0.8003
 3261TIP3    H131418   0.379   4.881   2.739  1.7260 -2.7008  1.6412
 3261TIP3    H231419   0.324   4.815   2.614  0.4806 -1.2062  1.3663
 3262TIP3   OH231420   1.536   1.930   6.518  0.0755 -0.1486 -0.3434
 3262TIP3    H131421   1.485   1.877   6.457  0.1497 -0.6797  0.0484
 3262TIP3    H231422   1.606   1.968   6.465 -1.2144  1.2893 -1.0665
 3263TIP3   OH231423   0.961   6.928   1.930  0.1042 -0.2033  0.4842
 3263TIP3    H131424   0.868   6.949   1.933  0.3017  0.5896  1.7346
 3263TIP3    H231425   0.963   6.832   1.928 -0.7512 -0.3459  2.8599
 3264TIP3   OH231426   6.432   6.203   1.549 -0.0483 -1.0722 -0.2578
 3264TIP3    H131427   6.367   6.210   1.619 -0.9875 -0.2343 -1.1767
 3264TIP3    H231428   6.389   6.242   1.472  2.0709  0.9927 -0.5269
 3265TIP3   OH231429   4.364   1.603   6.657 -0.6644 -0.1879  0.2478
 3265TIP3    H131430   4.344   1.696   6.645 -1.6994 -0.4796 -0.4292
 3265TIP3    H231431   4.290   1.569   6.707 -2.4770 -1.4833 -3.0334
 3266TIP3   OH231432   4.243   4.300   1.530 -0.2071  0.1931  0.1148
 3266TIP3    H131433   4.277   4.259   1.609 -0.1583  1.1678  0.6182
 3266TIP3    H231434   4.263   4.393   1.541  1.0601  0.1858 -1.6935
 3267TIP3   OH231435   6.704   4.310   1.066  0.1537  0.6072 -0.3836
 3267TIP3    H131436   6.798   4.290   1.071 -0.1649 -0.5953  1.7669
 3267TIP3    H231437   6.692   4.384   1.125 -0.6016 -0.8339  1.3352
 3268TIP3   OH231438   2.327   4.353   7.246 -0.0346 -0.0014  0.3284
 3268TIP3    H131439   2.400   4.400   7.286  0.6433  0.1803 -1.0570
 3268TIP3    H231440   2.250   4.405   7.267  0.5497  1.0747 -0.1246
 3269TIP3   OH231441   4.128   2.985   6.321 -0.2004 -0.2024 -0.4840
 3269TIP3    H131442   4.125   3.002   6.227 -0.1384  1.5397 -0.1968
 3269TIP3    H231443   4.208   2.934   6.334 -0.4495 -0.8614 -1.4126
 3270TIP3   OH231444   3.792   0.392   7.535 -0.5979 -0.4369 -0.0736
 3270TIP3    H131445   3.774   0.325   7.470  0.0453  0.2499 -0.9801
 3270TIP3    H231446   3.714   0.448   7.533 -0.3498 -0.1086 -0.6486
 3271TIP3   OH231447   5.817   1.879   1.180  0.6505 -0.0452 -0.6082
 3271TIP3    H131448   5.778   1.918   1.103 -0.6341 -0.8510 -0.3917
 3271TIP3    H231449   5.757   1.901   1.252  1.6873  0.4784  0.1422
 3272TIP3   OH231450   2.054   1.319   1.471  0.0911 -0.2823  0.4871
 3272TIP3    H131451   1.978   1.373   1.491  0.0606 -0.7765  1.8153
 3272TIP3    H231452   2.121   1.381   1.442  0.0292  0.4968  1.8865
 3273TIP3   OH231453   2.211   6.066   1.286  0.5627 -0.0918 -0.6510
 3273TIP3    H131454   2.272   5.995   1.304  0.1935 -0.3761 -0.5200
 3273TIP3    H231455   2.245   6.140   1.336  1.8884  0.3158 -2.0750
 3274TIP3   OH231456   1.170   3.781   6.480  0.1899  0.3813 -0.4900
 3274TIP3    H131457   1.137   3.694   6.503  0.2528  0.5634  0.3366
 3274TIP3    H231458   1.149   3.791   6.388 -0.7860 -0.0866 -0.3364
 3275TIP3   OH231459   1.400   1.248   6.174  0.7028  0.1683 -0.2989
 3275TIP3    H131460   1.425   1.189   6.102  0.9900  0.5361 -0.5033
 3275TIP3    H231461   1.314   1.283   6.148 -1.4945 -3.1970  1.6615
 3276TIP3   OH231462   3.572   3.072   0.751  0.3191 -0.3496 -0.3552
 3276TIP3    H131463   3.593   3.111   0.665 -0.5524  0.9197 -0.0226
 3276TIP3    H231464   3.596   3.140   0.814 -0.0169 -0.8681  0.3402
 3277TIP3   OH231465   4.974   2.889   2.005 -0.3913 -0.7081 -0.2937
 3277TIP3    H131466   4.991   2.977   1.970  0.4561 -0.6786  0.1390
 3277TIP3    H231467   4.935   2.905   2.091 -2.4434 -0.7792 -1.1639
 3278TIP3   OH231468   0.224   5.051   7.192  0.2605 -0.0606 -0.5081
 3278TIP3    H131469   0.168   5.124   7.167 -2.8049 -1.7102  0.9395
 3278TIP3    H231470   0.284   5.087   7.257 -0.3094  1.4493 -0.7912
 3279TIP3   OH231471   0.464   2.725   6.598 -0.2509  0.6511 -0.0155
 3279TIP3    H131472   0.536   2.732   6.661 -0.6465  0.2626  0.4906
 3279TIP3    H231473   0.492   2.657   6.537 -0.6167 -0.2500  0.7875
 3280TIP3   OH231474   4.091   2.220   0.527  0.6877 -0.0994  0.1217
 3280TIP3    H131475   4.057   2.257   0.609  0.4728  0.2750 -0.1347
 3280TIP3    H231476   4.177   2.184   0.552  1.3468  1.4351  0.1904
 3281TIP3   OH231477   2.659   1.955   7.742  1.0508  0.2736 -0.0108
 3281TIP3    H131478   2.604   1.996   7.810  0.6317  0.6856 -0.5826
 3281TIP3    H231479   2.748   1.961   7.776  1.0300  1.8861 -0.1678
 3282TIP3   OH231480   1.852   6.109   7.422 -0.3771  0.8216 -0.1011
 3282TIP3    H131481   1.803   6.190   7.439  0.3188  0.9832  1.2894
 3282TIP3    H231482   1.907   6.130   7.347 -0.7313  1.4007 -0.2065
 3283TIP3   OH231483   6.398   6.782   7.555 -0.1455 -0.1437 -0.1467
 3283TIP3    H131484   6.423   6.754   7.643 -0.1277 -1.2880 -0.5007
 3283TIP3    H231485   6.472   6.836   7.525  0.1706 -0.3477  0.2538
 3284TIP3   OH231486   3.155   6.684   2.191  0.2985 -0.4870  0.8915
 3284TIP3    H131487   3.198   6.737   2.124 -1.5868 -1.2170 -1.0161
 3284TIP3    H231488   3.174   6.729   2.273 -0.3098  2.5539 -0.5046
 3285TIP3   OH231489   3.935   0.887   0.200 -0.0259  0.9782  0.7391
 3285TIP3    H131490   3.924   0.821   0.269  0.9532 -0.5563 -0.5003
 3285TIP3    H231491   4.020   0.927   0.219 -0.2414  1.3099  1.0161
 3286TIP3   OH231492   1.303   1.455   7.099 -0.6231 -0.1110 -0.1145
 3286TIP3    H131493   1.330   1.530   7.047  0.6239 -0.5517 -0.1300
 3286TIP3    H231494   1.262   1.493   7.177  0.2058  0.5985 -0.0036
 3287TIP3   OH231495   6.003   0.352   2.654  0.1856 -0.0348 -0.7667
 3287TIP3    H131496   6.020   0.309   2.571  0.1092 -1.8831  0.1258
 3287TIP3    H231497   5.942   0.294   2.699  0.8565  0.4923  0.9091
 3288TIP3   OH231498   3.714   6.285   0.519  0.3651 -0.3204 -0.0157
 3288TIP3    H131499   3.809   6.295   0.511  0.3598  0.0373  0.3164
 3288TIP3    H231500   3.679   6.362   0.474  0.2995  0.9663  2.1142
 3289TIP3   OH231501   4.841   4.511   7.746 -0.6200  0.2909 -0.4544
 3289TIP3    H131502   4.828   4.423   7.712  1.5098 -0.4702  0.5283
 3289TIP3    H231503   4.919   4.504   7.802 -0.8071  2.6422  0.2014
 3290TIP3   OH231504   2.508   1.310   0.745 -0.0766 -0.2520 -0.3940
 3290TIP3    H131505   2.539   1.236   0.797 -0.0248  0.7091  0.9937
 3290TIP3    H231506   2.587   1.349   0.709 -0.0988 -0.7893 -1.0656
 3291TIP3   OH231507   1.581   4.900   1.005  0.6303 -0.2274  0.1734
 3291TIP3    H131508   1.569   4.993   1.028  0.6066  0.4006 -2.0717
 3291TIP3    H231509   1.513   4.884   0.939 -1.1362 -2.6521  2.3624
 3292TIP3   OH231510   6.033   0.020   1.105  0.2495  0.0693 -0.5686
 3292TIP3    H131511   6.086  -0.059   1.117 -0.4705 -0.3687 -0.1948
 3292TIP3    H231512   6.075   0.085   1.162  0.2755 -0.3285 -0.1182
 3293TIP3   OH231513   4.739   6.542   0.860 -0.4855  0.4039  0.1394
 3293TIP3    H131514   4.662   6.592   0.832 -0.3795  0.6056  0.2001
 3293TIP3    H231515   4.796   6.543   0.783 -0.3693  0.6072  0.2261
 3294TIP3   OH231516   0.957   1.771   0.687 -0.2114  0.6197  0.2452
 3294TIP3    H131517   0.936   1.861   0.713  0.7614  1.5776 -2.0506
 3294TIP3    H231518   0.966   1.774   0.592 -0.7534 -2.0694  0.0116
 3295TIP3   OH231519   0.489   0.861   7.947 -0.0911  0.6158 -0.0280
 3295TIP3    H131520   0.484   0.916   8.025 -0.0259  1.5610 -0.6800
 3295TIP3    H231521   0.442   0.910   7.879 -0.3057 -0.2735 -0.5451
 3296TIP3   OH231522   4.112   4.424   7.988  0.4211 -0.3546 -0.2956
 3296TIP3    H131523   4.141   4.335   8.009  0.6395 -0.4491 -0.9659
 3296TIP3    H231524   4.147   4.440   7.901 -2.1100 -0.7603 -1.4858
 3297TIP3   OH231525   0.575   6.196   1.512  0.6343  0.2323  0.0234
 3297TIP3    H131526   0.667   6.196   1.486  0.5733 -0.0559 -0.1940
 3297TIP3    H231527   0.561   6.109   1.550  1.0778  1.0726  2.2832
 3298TIP3   OH231528   3.687   4.541   1.780 -0.5282 -0.1223  0.7645
 3298TIP3    H131529   3.739   4.603   1.729 -1.0912  0.1746  0.5416
 3298TIP3    H231530   3.596   4.563   1.759 -0.7616 -0.2694  1.5685
 3299TIP3   OH231531   2.295   3.790   7.440  0.4782 -0.0344 -0.0983
 3299TIP3    H131532   2.368   3.802   7.501  0.2379 -0.3884  0.2666
 3299TIP3    H231533   2.314   3.707   7.396  0.2632 -0.1639  0.0487
 3300TIP3   OH231534   0.033   0.220   7.082 -0.0849 -0.3352  0.1618
 3300TIP3    H131535   0.098   0.212   7.152  0.0804 -0.2870  0.0147
 3300TIP3    H231536   0.053   0.148   7.023 -0.0687 -0.2286  0.0370
 3301TIP3   OH231537   2.183   0.143   0.156  0.2097 -0.1059  0.0232
 3301TIP3    H131538   2.201   0.067   0.100 -0.3634 -1.6617  1.8195
 3301TIP3    H231539   2.195   0.219   0.099  0.1351 -1.5614 -2.0496
 3302TIP3   OH231540   1.470   4.028   8.354 -0.2418  0.0048 -0.5715
 3302TIP3    H131541   1.563   4.016   8.372 -0.5368 -0.8121  0.4805
 3302TIP3    H231542   1.427   3.951   8.391 -1.0986 -1.0289 -3.4385
 3303TIP3   OH231543   3.520   5.217   7.724  0.0925 -0.4828 -0.5027
 3303TIP3    H131544   3.510   5.124   7.743  2.5832 -0.7141  0.0471
 3303TIP3    H231545   3.570   5.251   7.798  0.2411  1.0449 -1.2693
 3304TIP3   OH231546   1.697   0.445   6.497 -0.5970 -0.3691  0.4651
 3304TIP3    H131547   1.673   0.508   6.428 -1.0350 -0.3663  0.6204
 3304TIP3    H231548   1.615   0.400   6.518 -0.1612 -1.4596 -0.1119
 3305TIP3   OH231549   4.487   4.918   2.050 -0.7538  0.2111 -0.0066
 3305TIP3    H131550   4.531   4.992   2.093 -0.1368 -0.9548  1.4422
 3305TIP3    H231551   4.395   4.945   2.046 -0.4188  1.3967 -0.2540
 3306TIP3   OH231552   4.838   6.209   0.248  0.1557 -0.0634  0.2069
 3306TIP3    H131553   4.834   6.230   0.342 -0.3945  1.1785 -0.0660
 3306TIP3    H231554   4.748   6.188   0.225  0.7335 -3.2836  0.5283
 3307TIP3   OH231555   4.572   6.204   7.352 -0.1963  0.3535 -0.5539
 3307TIP3    H131556   4.650   6.248   7.385  0.1233 -0.0097 -0.8192
 3307TIP3    H231557   4.529   6.168   7.430 -1.8161  3.2205  0.0295
 3308TIP3   OH231558   5.496   4.705   7.568 -0.3921 -0.0468  0.1250
 3308TIP3    H131559   5.455   4.776   7.519  0.6999  0.0052 -0.7536
 3308TIP3    H231560   5.532   4.647   7.501 -1.0223 -1.2997  0.8339
 3309TIP3   OH231561   0.225   4.634   0.229  0.2601 -0.2636 -0.0675
 3309TIP3    H131562   0.272   4.555   0.206  0.1079 -0.5402  0.5573
 3309TIP3    H231563   0.283   4.705   0.201 -0.1809 -0.5487 -1.8837
 3310TIP3   OH231564   3.138   1.723   1.124  0.5537  0.1948  0.0460
 3310TIP3    H131565   3.137   1.783   1.049 -1.2180  0.7762  0.4798
 3310TIP3    H231566   3.075   1.654   1.100 -0.1799  0.4879  1.0455
 3311TIP3   OH231567   6.039   0.313   1.181 -0.6506 -0.9216 -0.3112
 3311TIP3    H131568   6.042   0.361   1.263 -2.2736 -0.8232 -0.2829
 3311TIP3    H231569   6.031   0.381   1.114 -1.0668 -1.0686 -0.4128
 3312TIP3   OH231570   1.474   3.349   6.163 -0.0012  0.2176  0.6196
 3312TIP3    H131571   1.420   3.428   6.164 -2.0595 -0.9048 -3.0137
 3312TIP3    H231572   1.556   3.377   6.122 -0.4927  0.6388 -0.1026
 3313TIP3   OH231573   1.842   6.738   7.165 -0.3142  0.1244 -0.7385
 3313TIP3    H131574   1.764   6.700   7.204  0.4019 -0.4974  0.1219
 3313TIP3    H231575   1.907   6.739   7.235  0.4307  0.7048 -1.4083
 3314TIP3   OH231576   3.410   0.323   6.978 -0.2349 -0.7666 -0.0637
 3314TIP3    H131577   3.327   0.354   7.014  0.2100 -0.7653  1.0236
 3314TIP3    H231578   3.405   0.343   6.885 -1.7510 -1.4294 -0.1646
 3315TIP3   OH231579   2.135   0.236   7.283 -0.4534  0.0866  0.0287
 3315TIP3    H131580   2.076   0.185   7.339  0.3414 -0.4089  0.4443
 3315TIP3    H231581   2.174   0.300   7.342 -0.7747  0.5872 -0.3009
 3316TIP3   OH231582   1.348   3.574   8.017 -0.4560  0.3151  0.0791
 3316TIP3    H131583   1.381   3.634   7.950  1.5616  0.6313  1.2728
 3316TIP3    H231584   1.297   3.630   8.075  0.0566  0.5790  0.2848
 3317TIP3   OH231585   4.771   1.319   0.925  0.4124  0.3108  0.2116
 3317TIP3    H131586   4.730   1.388   0.873 -0.6531  0.8635  1.7317
 3317TIP3    H231587   4.708   1.301   0.995 -0.4565 -3.7722 -1.3070
 3318TIP3   OH231588   0.528   3.393   0.961 -0.4403  0.3320 -0.0436
 3318TIP3    H131589   0.434   3.399   0.978 -0.4565 -0.1417  0.0428
 3318TIP3    H231590   0.547   3.299   0.964 -0.2721  0.2877 -1.6905
 3319TIP3   OH231591   5.442   0.017   6.948 -0.0184 -0.3228  0.1692
 3319TIP3    H131592   5.398   0.078   6.888 -0.9194 -0.3125  0.8253
 3319TIP3    H231593   5.531   0.053   6.957  0.1136 -0.2760 -1.0759
 3320TIP3   OH231594   4.318   4.373   6.676  0.3897  0.1071  0.9295
 3320TIP3    H131595   4.305   4.429   6.753 -0.3018 -1.0070  1.6496
 3320TIP3    H231596   4.275   4.291   6.698  2.8927 -1.3897  0.6196
 3321TIP3   OH231597   3.753   2.771   7.863  0.3948  0.1091 -0.2486
 3321TIP3    H131598   3.714   2.754   7.948 -1.8487 -0.6291 -1.3466
 3321TIP3    H231599   3.772   2.865   7.863  0.1103  0.1816  0.9175
 3322TIP3   OH231600   4.685   1.310   1.914 -0.1295  0.3536  0.7152
 3322TIP3    H131601   4.651   1.224   1.939 -0.0242 -0.2503 -1.0660
 3322TIP3    H231602   4.623   1.342   1.848 -0.0232  1.5386  1.1590
 3323TIP3   OH231603   2.190   2.580   1.256  0.2590  0.1717  0.6037
 3323TIP3    H131604   2.246   2.648   1.219 -1.4109  1.2136 -0.1402
 3323TIP3    H231605   2.115   2.575   1.196 -1.5509  0.4544  2.7053
 3324TIP3   OH231606   0.369   4.546   0.811  0.1493 -0.2877  0.2494
 3324TIP3    H131607   0.411   4.587   0.887  0.9837  1.1032 -0.8999
 3324TIP3    H231608   0.418   4.580   0.736 -1.6136 -0.3935 -1.0159
 3325TIP3   OH231609   5.330   2.460   2.531  0.1119 -0.0083  0.3958
 3325TIP3    H131610   5.266   2.465   2.460 -0.4660  1.7006  0.9718
 3325TIP3    H231611   5.346   2.551   2.555  0.0051 -0.5232  2.6867
 3326TIP3   OH231612   6.100   6.387   6.767  0.3527 -0.2577  0.2998
 3326TIP3    H131613   6.151   6.313   6.799 -0.0488  0.0904  1.8291
 3326TIP3    H231614   6.032   6.348   6.713  0.2305 -0.9903  0.9729
 3327TIP3   OH231615   2.848   4.911   1.320 -0.4411 -0.4809  0.3935
 3327TIP3    H131616   2.799   4.877   1.395 -1.2189 -0.2434 -0.0004
 3327TIP3    H231617   2.799   4.881   1.243 -0.6957  0.8286  0.0154
 3328TIP3   OH231618   4.526   4.057   6.930  0.1295 -0.0152 -0.2105
 3328TIP3    H131619   4.442   4.018   6.905 -0.4480  0.1078  1.4201
 3328TIP3    H231620   4.589   4.019   6.869 -0.4857 -3.1053  0.8960
 3329TIP3   OH231621   6.633   4.286   1.934 -0.3783 -0.6588 -0.4027
 3329TIP3    H131622   6.539   4.270   1.937 -0.5131 -0.1389 -1.3508
 3329TIP3    H231623   6.655   4.319   2.021 -0.4643 -3.7551  0.8892
 3330TIP3   OH231624   2.676   5.396   0.453 -0.0919 -0.2367 -0.2567
 3330TIP3    H131625   2.702   5.305   0.439  2.4180  0.6204 -1.7037
 3330TIP3    H231626   2.612   5.392   0.524  1.9320 -2.8542  1.5956
 3331TIP3   OH231627   1.915   4.341   0.339 -0.0963  0.3150  0.6291
 3331TIP3    H131628   1.963   4.388   0.271  0.5357  0.5468  1.2195
 3331TIP3    H231629   1.978   4.333   0.411 -1.1146  1.0763  1.6185
 3332TIP3   OH231630   2.302   1.605   6.994  0.2458 -0.0358  0.0629
 3332TIP3    H131631   2.248   1.611   6.915  0.1699 -1.1924  0.0169
 3332TIP3    H231632   2.389   1.583   6.962  0.0463 -1.2981  0.3327
 3333TIP3   OH231633   2.402   5.710   6.545 -0.3766 -0.0906  0.0819
 3333TIP3    H131634   2.349   5.774   6.591 -0.2595 -0.2212  0.4009
 3333TIP3    H231635   2.423   5.644   6.611 -1.7989 -1.2841 -0.6002
 3334TIP3   OH231636   0.893   0.382   7.739 -0.1224  0.2175 -0.1092
 3334TIP3    H131637   0.801   0.358   7.747 -0.5510  1.6625 -0.3811
 3334TIP3    H231638   0.904   0.406   7.647  0.8553 -1.1329 -0.3775
 3335TIP3   OH231639   1.153   2.971   0.648 -0.7493  0.0510  0.5652
 3335TIP3    H131640   1.118   2.882   0.641  0.3718 -0.3431 -0.3235
 3335TIP3    H231641   1.100   3.022   0.586  0.3208 -0.5792 -0.9102
 3336TIP3   OH231642   6.630   3.320   1.445  0.6381 -0.0324  0.1728
 3336TIP3    H131643   6.652   3.410   1.468 -0.0368  0.0737  0.4188
 3336TIP3    H231644   6.566   3.328   1.374 -0.9317 -0.2737  1.5251
 3337TIP3   OH231645   1.544   5.262   6.595  0.3101  0.1905 -0.1823
 3337TIP3    H131646   1.486   5.336   6.614  0.0429  0.6676 -2.4971
 3337TIP3    H231647   1.603   5.258   6.670 -2.4958 -0.1778  2.1732
 3338TIP3   OH231648   4.724   3.110   7.572  0.0270 -0.5652  0.3753
 3338TIP3    H131649   4.818   3.126   7.579  0.8433 -3.1711 -2.3643
 3338TIP3    H231650   4.695   3.171   7.504 -0.0915 -0.3402  0.6266
 3339TIP3   OH231651   5.446   0.937   8.072 -0.5445  0.1868 -0.0323
 3339TIP3    H131652   5.443   0.860   8.016 -1.7722 -0.3090  0.6861
 3339TIP3    H231653   5.470   1.009   8.012  3.4452 -1.0563 -0.2698
 3340TIP3   OH231654   3.304   0.447   8.239  0.0050  0.5823 -0.5737
 3340TIP3    H131655   3.306   0.518   8.176  2.5527  0.2357 -0.9890
 3340TIP3    H231656   3.323   0.368   8.188 -2.2339 -0.3878 -0.0350
 3341TIP3   OH231657   6.406   1.331   8.450  0.4759  0.3003  0.3978
 3341TIP3    H131658   6.462   1.358   8.376 -0.1428  4.2696  1.1357
 3341TIP3    H231659   6.342   1.271   8.411  2.0248 -0.2105 -1.5679
 3342TIP3   OH231660   1.470   6.861   7.903  0.2580 -0.0578  0.2370
 3342TIP3    H131661   1.428   6.888   7.821 -1.0127  0.5864  1.0721
 3342TIP3    H231662   1.551   6.818   7.875  0.0663  0.5322 -1.3335
 3343TIP3   OH231663   2.902   3.087   7.892  0.2759 -0.2065  0.0825
 3343TIP3    H131664   2.975   3.079   7.953 -0.3608 -0.8744  0.7772
 3343TIP3    H231665   2.832   3.034   7.931 -0.8271  0.9892 -0.1869
 3344TIP3   OH231666   3.707   6.240   1.553  0.3585 -0.0318  0.1013
 3344TIP3    H131667   3.628   6.290   1.572  1.4285  1.0801  1.8778
 3344TIP3    H231668   3.698   6.216   1.460 -1.8209  0.4288  0.1349
 3345TIP3   OH231669   6.760   0.080   1.585 -0.3504  0.1218 -0.6261
 3345TIP3    H131670   6.745   0.129   1.504 -1.5568  1.9249  0.6189
 3345TIP3    H231671   6.674   0.075   1.627  0.0490 -1.7233  0.0842
 3346TIP3   OH231672   1.006   2.752   7.062  0.1418  0.0431 -0.0754
 3346TIP3    H131673   0.973   2.739   7.151 -0.4792 -0.7215 -0.4082
 3346TIP3    H231674   0.937   2.803   7.019 -1.5678 -3.0065 -1.2858
 3347TIP3   OH231675   3.602   1.001   7.492 -0.3136 -0.1559 -0.4820
 3347TIP3    H131676   3.590   1.068   7.558  0.5322 -0.4838  0.0163
 3347TIP3    H231677   3.539   0.932   7.516 -2.3731  1.0999 -1.9310
 3348TIP3   OH231678   0.431   1.557   7.713  0.2473  0.2480 -0.7555
 3348TIP3    H131679   0.347   1.591   7.746  0.3822 -0.0420 -0.0853
 3348TIP3    H231680   0.425   1.462   7.727  1.3112  0.3770  0.8334
 3349TIP3   OH231681   0.648   3.308   1.278 -0.1954  0.1160  0.0708
 3349TIP3    H131682   0.611   3.392   1.307  1.1324 -0.0032  2.3504
 3349TIP3    H231683   0.651   3.315   1.183 -0.9968  2.2819  0.1436
 3350TIP3   OH231684   4.945   1.260   2.204  0.2685 -0.1583  0.2480
 3350TIP3    H131685   4.909   1.336   2.250  0.2077  0.6482 -1.0876
 3350TIP3    H231686   4.869   1.203   2.189 -0.1414  0.6408 -0.8463
 3351TIP3   OH231687   5.154   3.401   7.118 -0.1197  0.1363  0.0051
 3351TIP3    H131688   5.148   3.487   7.077  0.2576 -0.6742 -1.8130
 3351TIP3    H231689   5.111   3.341   7.057 -0.0070 -1.0498  1.0382
 3352TIP3   OH231690   6.046   5.009   8.316 -0.4259  0.1967  0.4412
 3352TIP3    H131691   6.022   5.034   8.227  3.2667 -1.5218 -1.2251
 3352TIP3    H231692   6.000   4.927   8.332 -0.4541  0.0930 -0.1734
 3353TIP3   OH231693   2.540   4.859   0.965  0.1275  0.0571 -0.0080
 3353TIP3    H131694   2.506   4.774   0.993 -0.4560 -0.3969 -1.9139
 3353TIP3    H231695   2.635   4.849   0.968  0.0598 -0.6182 -0.0599
 3354TIP3   OH231696   1.554   2.111   7.569 -0.5647 -0.3560  0.0610
 3354TIP3    H131697   1.642   2.131   7.536 -0.0440  2.8838  2.7994
 3354TIP3    H231698   1.501   2.096   7.491  2.0111 -0.4682 -1.7757
 3355TIP3   OH231699   4.193   1.934   1.928  0.4637 -0.5787  0.1553
 3355TIP3    H131700   4.176   2.026   1.908 -0.0094 -0.3163  1.6313
 3355TIP3    H231701   4.192   1.890   1.842 -3.2502  0.1601 -0.3466
 3356TIP3   OH231702   2.854   3.667   7.594 -0.6400  0.2153 -0.3820
 3356TIP3    H131703   2.903   3.633   7.670  0.6691  1.9859 -0.3574
 3356TIP3    H231704   2.808   3.591   7.559 -2.8562 -0.3567  3.2760
 3357TIP3   OH231705   4.459   0.480   8.026 -0.3237  0.1473 -0.3248
 3357TIP3    H131706   4.396   0.552   8.029  0.1326  0.5381  0.0159
 3357TIP3    H231707   4.520   0.504   7.956  0.1246  0.3484  0.1278
 3358TIP3   OH231708   4.811   5.422   2.058  0.6814 -0.1656 -0.1534
 3358TIP3    H131709   4.826   5.382   2.144 -1.1724  0.0349  0.3127
 3358TIP3    H231710   4.794   5.514   2.077  2.5404  0.3856 -0.9899
 3359TIP3   OH231711   0.237   3.433   7.870 -0.6641 -0.2837 -0.3263
 3359TIP3    H131712   0.147   3.405   7.854 -0.6580 -0.7684  0.4184
 3359TIP3    H231713   0.290   3.369   7.822 -0.6758 -1.1072  0.7146
 3360TIP3   OH231714   3.699   3.481   6.079  0.0863 -0.3974  0.1395
 3360TIP3    H131715   3.638   3.499   6.007 -0.8097 -2.4638  0.2900
 3360TIP3    H231716   3.657   3.518   6.156 -1.1071 -1.8859  0.2592
 3361TIP3   OH231717   0.139   3.958   7.718 -0.4699  0.2958 -0.1991
 3361TIP3    H131718   0.231   3.944   7.739 -0.8053 -0.4346  0.8404
 3361TIP3    H231719   0.119   4.044   7.754 -0.3613  0.1645  0.1807
 3362TIP3   OH231720   3.281   6.044   0.634  0.2384  0.7861 -0.3257
 3362TIP3    H131721   3.332   5.982   0.583 -0.9519  0.6746 -1.4365
 3362TIP3    H231722   3.214   6.076   0.573  0.1352  2.3128  0.5478
 3363TIP3   OH231723   2.929   0.625   0.693  0.1517  0.6571  0.1724
 3363TIP3    H131724   3.023   0.634   0.676  0.3859 -0.0816  1.0497
 3363TIP3    H231725   2.888   0.666   0.616  1.1769  1.1640 -0.1352
 3364TIP3   OH231726   1.190   5.101   6.814 -0.5099  0.4447  0.3029
 3364TIP3    H131727   1.278   5.129   6.839 -0.8275  0.4292  1.4941
 3364TIP3    H231728   1.198   5.079   6.721  1.3983 -2.1687  0.9619
 3365TIP3   OH231729   6.749   4.984   6.525 -0.0132 -0.0818  0.2613
 3365TIP3    H131730   6.802   4.912   6.561 -0.0869  0.0779  0.7038
 3365TIP3    H231731   6.801   5.063   6.542 -0.6237  0.1352  1.1856
 3366TIP3   OH231732   0.378   2.784   0.074  0.1619 -0.6262  0.0206
 3366TIP3    H131733   0.357   2.877   0.063  0.3928 -0.5274  0.4100
 3366TIP3    H231734   0.339   2.760   0.158  2.0899 -0.2891  1.0637
 3367TIP3   OH231735   5.878   0.100   0.776  0.1953  0.7872 -0.2166
 3367TIP3    H131736   5.955   0.154   0.756 -0.2139  1.4026 -0.1669
 3367TIP3    H231737   5.904   0.048   0.852  1.6030 -1.2309 -1.9645
 3368TIP3   OH231738   0.904   1.460   1.715  0.1140  0.3996  0.1449
 3368TIP3    H131739   0.878   1.435   1.803 -1.1726 -1.1675 -0.6256
 3368TIP3    H231740   0.996   1.483   1.722 -0.1593  1.0586  2.0184
 3369TIP3   OH231741   6.263   6.314   8.107 -0.7949  0.0685  0.0823
 3369TIP3    H131742   6.338   6.362   8.074 -0.1791  0.4189  1.8613
 3369TIP3    H231743   6.226   6.271   8.030  1.0668  0.0797 -0.8690
 3370TIP3   OH231744   4.500   1.440   1.670  0.2165 -0.4642 -0.1719
 3370TIP3    H131745   4.450   1.492   1.607  1.5139  1.2629  0.1498
 3370TIP3    H231746   4.440   1.426   1.743 -0.4004 -0.0543 -0.5902
 3371TIP3   OH231747   4.706   4.409   0.829 -0.4076  0.0812  0.5508
 3371TIP3    H131748   4.659   4.431   0.749 -0.5616  0.1130  0.6493
 3371TIP3    H231749   4.784   4.463   0.827  1.2245 -2.1597 -1.1395
 3372TIP3   OH231750   4.718   1.349   7.475  0.0669  0.3587 -0.5505
 3372TIP3    H131751   4.735   1.305   7.392 -0.4054  1.1609 -1.0857
 3372TIP3    H231752   4.785   1.315   7.534  1.4837  1.0379 -1.7110
 3373TIP3   OH231753   4.610   2.986   7.177  0.0642  0.0072  0.4458
 3373TIP3    H131754   4.580   3.049   7.112  0.5130 -0.9166 -0.6923
 3373TIP3    H231755   4.686   3.028   7.218 -1.7999  1.7273  2.3216
 3374TIP3   OH231756   1.604   5.249   0.497  0.0226 -0.3142 -0.1129
 3374TIP3    H131757   1.588   5.159   0.469 -1.5981 -0.2843  0.6053
 3374TIP3    H231758   1.678   5.278   0.443 -1.5382 -0.9670 -2.7717
 3375TIP3   OH231759   1.284   5.040   7.496  0.3577  0.5496  0.3972
 3375TIP3    H131760   1.329   5.005   7.572  0.3778 -0.1504  0.0791
 3375TIP3    H231761   1.314   5.130   7.488  1.3399  0.2325  0.4658
 3376TIP3   OH231762   4.522   6.409   8.201  0.4270 -0.1643  0.4240
 3376TIP3    H131763   4.554   6.378   8.286  1.3410  1.1098  0.5868
 3376TIP3    H231764   4.470   6.487   8.222  1.2160  0.5600 -0.2117
 3377TIP3   OH231765   3.523   0.849   0.413 -0.6118 -0.0540  0.5078
 3377TIP3    H131766   3.464   0.922   0.429 -1.3022  0.0018 -1.9259
 3377TIP3    H231767   3.587   0.883   0.352  0.1416 -0.9949  0.7540
 3378TIP3   OH231768   5.922   1.181   2.165  0.3054  0.1192 -0.5774
 3378TIP3    H131769   5.992   1.205   2.226 -0.2094 -0.2284  0.1542
 3378TIP3    H231770   5.960   1.112   2.111  0.0256 -1.1799  0.8458
 3379TIP3   OH231771   6.414   5.543   0.552 -0.2148 -0.9000  0.1615
 3379TIP3    H131772   6.379   5.626   0.582  0.4132 -1.0133  1.2561
 3379TIP3    H231773   6.473   5.566   0.481  1.0514 -0.2471  1.3833
 3380TIP3   OH231774   0.405   4.313   2.174  0.2818  0.0432 -0.2378
 3380TIP3    H131775   0.480   4.294   2.231  1.0836  1.4794 -0.7600
 3380TIP3    H231776   0.394   4.408   2.179 -0.7447 -0.0054 -1.1175
 3381TIP3   OH231777   4.647   2.198   1.581 -0.5486  0.0657 -0.1767
 3381TIP3    H131778   4.602   2.150   1.651  0.8356  0.0340  0.7236
 3381TIP3    H231779   4.601   2.172   1.501  0.1966 -2.8969  0.2342
 3382TIP3   OH231780   5.044   6.102   0.796  0.4840 -0.2950  0.1251
 3382TIP3    H131781   5.073   6.156   0.869  1.2392 -0.4306 -0.0627
 3382TIP3    H231782   4.954   6.077   0.817  0.4830  0.1930  0.6963
 3383TIP3   OH231783   5.022   3.132   1.907  0.3190  0.4860 -0.1902
 3383TIP3    H131784   5.072   3.132   1.825  0.0668  1.3094 -0.3502
 3383TIP3    H231785   5.008   3.224   1.927  1.0378  0.3250  1.1980
 3384TIP3   OH231786   0.775   6.158   2.144 -0.4410 -0.8930 -0.5280
 3384TIP3    H131787   0.801   6.084   2.089 -0.7939 -2.1700  0.9749
 3384TIP3    H231788   0.738   6.118   2.223  0.9150  0.8516  1.0871
 3385TIP3   OH231789   1.219   4.732   7.069  0.1031  0.3118  0.3946
 3385TIP3    H131790   1.164   4.678   7.125  0.7984  1.1099  1.9012
 3385TIP3    H231791   1.269   4.787   7.130  0.5200  1.5738 -1.0341
 3386TIP3   OH231792   6.806   2.197   6.564  0.0528  0.3034  0.5250
 3386TIP3    H131793   6.849   2.283   6.560  2.4095 -0.8304 -0.4312
 3386TIP3    H231794   6.736   2.204   6.499  1.8989  0.7209 -1.5538
 3387TIP3   OH231795   6.517   1.163   7.933 -0.4120  0.8580  0.1392
 3387TIP3    H131796   6.435   1.204   7.903 -1.1858 -0.3188  0.5660
 3387TIP3    H231797   6.541   1.105   7.861  0.2188  1.4080 -0.1033
 3388TIP3   OH231798   1.725   4.523   7.030  0.6331  0.3344  0.1544
 3388TIP3    H131799   1.682   4.596   6.985  3.8919  1.9014 -0.7770
 3388TIP3    H231800   1.735   4.456   6.963 -1.6190 -0.7342  0.7957
 3389TIP3   OH231801   2.053   5.351   6.035  0.3810  0.3052 -0.3189
 3389TIP3    H131802   2.020   5.298   5.962  1.0187  0.1236 -0.4834
 3389TIP3    H231803   1.981   5.410   6.056  0.1872  0.3613 -1.1010
 3390TIP3   OH231804   2.519   5.789   2.121  0.2587 -0.8578  0.4823
 3390TIP3    H131805   2.433   5.828   2.101 -1.0135 -2.2954  2.6922
 3390TIP3    H231806   2.561   5.852   2.179  0.6262 -0.2800 -0.3835
 3391TIP3   OH231807   3.082   6.153   2.160 -0.2673  0.1907 -0.2089
 3391TIP3    H131808   2.991   6.170   2.137 -0.5633  3.0839  2.3946
 3391TIP3    H231809   3.119   6.240   2.176  1.9791 -1.0533  2.0288
 3392TIP3   OH231810   0.329   6.914   7.488 -0.4311 -0.5529  0.0500
 3392TIP3    H131811   0.302   6.823   7.502 -0.8112 -0.4093  0.2898
 3392TIP3    H231812   0.384   6.911   7.410 -0.9006 -0.9089 -0.2771
 3393TIP3   OH231813   0.223   0.556   0.865  0.2874 -0.3077 -0.0481
 3393TIP3    H131814   0.314   0.533   0.845  0.2289 -1.1122  0.5501
 3393TIP3    H231815   0.217   0.649   0.846  1.5097 -0.0238  0.8460
 3394TIP3   OH231816   4.159   6.843   8.225  0.6316  0.5090 -0.3417
 3394TIP3    H131817   4.169   6.764   8.173 -0.3836  0.2534 -0.1534
 3394TIP3    H231818   4.113   6.904   8.169 -1.4399 -0.1276  0.5569
 3395TIP3   OH231819   3.224   4.547   0.582 -0.1911 -0.5562 -0.4684
 3395TIP3    H131820   3.168   4.567   0.656  1.2981  0.7519  0.3767
 3395TIP3    H231821   3.201   4.611   0.515  1.3043  1.0486  0.4701
 3396TIP3   OH231822   0.598   0.815   6.589 -0.0350  0.3332  0.6006
 3396TIP3    H131823   0.632   0.774   6.509 -2.4861 -0.2471 -0.2255
 3396TIP3    H231824   0.524   0.760   6.615  0.6007  0.5892  3.2427
 3397TIP3   OH231825   1.722   2.936   8.222 -0.0333  0.2957  0.3134
 3397TIP3    H131826   1.664   2.934   8.145 -1.1135  1.4156  1.0513
 3397TIP3    H231827   1.718   2.847   8.257  1.0512 -0.4364 -1.3057
 3398TIP3   OH231828   6.589   4.587   2.063 -0.2691  0.1662 -0.1684
 3398TIP3    H131829   6.500   4.618   2.080 -0.2539 -0.0801  0.3791
 3398TIP3    H231830   6.613   4.538   2.141  0.3389  0.2027 -0.3259
 3399TIP3   OH231831   4.610   3.357   0.013  0.0451 -0.0466  0.3658
 3399TIP3    H131832   4.546   3.378  -0.055 -0.6677  0.4608  1.1582
 3399TIP3    H231833   4.635   3.442   0.049  1.6602 -0.2016 -0.3479
 3400TIP3   OH231834   2.435   4.717   0.449 -0.0687  0.3532  0.4133
 3400TIP3    H131835   2.531   4.717   0.450 -0.0652 -0.7521  0.5417
 3400TIP3    H231836   2.410   4.722   0.541 -0.1554  1.6272  0.3412
 3401TIP3   OH231837   2.428   1.861   7.409 -0.3309 -0.4357  0.0213
 3401TIP3    H131838   2.419   1.923   7.482  1.1388  0.9973 -0.9512
 3401TIP3    H231839   2.516   1.878   7.374 -0.4512 -2.0988 -1.1911
 3402TIP3   OH231840   1.256   6.316   8.093 -0.2045 -0.6648  0.0202
 3402TIP3    H131841   1.293   6.302   8.006  1.8402 -1.0181  0.8786
 3402TIP3    H231842   1.231   6.408   8.095 -3.5856 -1.3646 -2.0383
 3403TIP3   OH231843   3.285   0.667   0.378 -0.0519 -0.0613  0.1626
 3403TIP3    H131844   3.341   0.591   0.398  0.0052 -0.7613 -2.3066
 3403TIP3    H231845   3.311   0.733   0.442 -0.0336 -2.0500  2.3616
 3404TIP3   OH231846   0.873   4.667   6.597  0.4405 -0.6730  0.4185
 3404TIP3    H131847   0.885   4.725   6.672 -0.2401 -0.7707  0.6103
 3404TIP3    H231848   0.847   4.725   6.526 -0.0904 -0.7227  0.5708
 3405TIP3   OH231849   4.615   4.689   1.829  0.2760 -0.1038 -0.1447
 3405TIP3    H131850   4.691   4.675   1.773 -0.4414 -0.7712 -0.9799
 3405TIP3    H231851   4.589   4.780   1.811  0.0180 -0.3297 -0.9470
 3406TIP3   OH231852   3.251   3.731   7.086  0.3062 -0.5419  0.2421
 3406TIP3    H131853   3.322   3.670   7.065  0.1007 -0.0506 -2.1412
 3406TIP3    H231854   3.171   3.682   7.065  0.1018  0.1497 -0.6319
 3407TIP3   OH231855   5.665   4.059   8.221 -0.3159  0.7928 -0.4283
 3407TIP3    H131856   5.714   4.116   8.162  0.4076  0.6106 -0.0200
 3407TIP3    H231857   5.691   4.089   8.309 -2.1378  1.7359 -0.1575
 3408TIP3   OH231858   0.352   0.334   7.004 -0.2444 -0.1754 -0.4363
 3408TIP3    H131859   0.322   0.353   6.916  0.7511  0.2776 -0.6942
 3408TIP3    H231860   0.388   0.245   6.999 -1.9490 -0.9363 -0.0001
 3409TIP3   OH231861   1.103   5.538   7.891  0.0308 -0.0327 -0.5187
 3409TIP3    H131862   1.091   5.580   7.806 -1.6995 -1.3036 -0.9467
 3409TIP3    H231863   1.127   5.448   7.871 -1.2378 -0.5837  0.3083
 3410TIP3   OH231864   0.901   6.031   0.948 -0.2267 -0.2242 -0.3299
 3410TIP3    H131865   0.950   5.949   0.952  1.2884  0.6858  1.3190
 3410TIP3    H231866   0.968   6.098   0.933 -1.1282  0.9253  0.5899
 3411TIP3   OH231867   0.860   1.237   0.604  0.0444  0.1790  0.2108
 3411TIP3    H131868   0.871   1.146   0.632 -0.2835 -1.2755 -3.7067
 3411TIP3    H231869   0.946   1.263   0.573 -0.3758  0.2845 -0.9170
 3412TIP3   OH231870   1.501   5.212   0.752  0.3407  0.0303 -0.1893
 3412TIP3    H131871   1.498   5.289   0.808 -0.7350 -0.7918  0.9495
 3412TIP3    H231872   1.492   5.246   0.663 -1.9179  1.1158  0.3905
 3413TIP3   OH231873   0.890   3.964   1.432 -0.2772 -0.4270 -0.3151
 3413TIP3    H131874   0.903   3.982   1.526  1.0120 -0.8220 -0.3994
 3413TIP3    H231875   0.798   3.939   1.425 -0.0883 -1.6304  1.0545
 3414TIP3   OH231876   4.968   3.373   2.651  0.0139 -0.5134 -0.2570
 3414TIP3    H131877   5.009   3.290   2.631  1.5084 -0.4430  2.1032
 3414TIP3    H231878   4.988   3.429   2.576  2.6735 -1.0571 -0.0436
 3415TIP3   OH231879   0.124   2.048   1.789  0.0864 -0.0579 -0.2026
 3415TIP3    H131880   0.033   2.042   1.761  0.7049 -1.0666 -2.1798
 3415TIP3    H231881   0.142   2.142   1.791 -0.3620  0.1227 -2.1533
 3416TIP3   OH231882   5.007   0.992   1.004  0.8646  0.4738  0.1909
 3416TIP3    H131883   4.949   0.984   0.928  1.2615  0.8252 -0.1567
 3416TIP3    H231884   4.960   0.948   1.075 -0.0106  1.1147  0.0221
 3417TIP3   OH231885   1.415   6.941   7.647  0.2391  0.4490  0.0967
 3417TIP3    H131886   1.405   6.899   7.562 -3.5794 -1.4833  1.2647
 3417TIP3    H231887   1.400   7.034   7.630 -0.4956  0.0928 -1.3176
 3418TIP3   OH231888   1.973   4.099   1.882 -0.0314  0.2396 -0.0397
 3418TIP3    H131889   1.994   4.131   1.969 -0.8118 -0.4378  0.4171
 3418TIP3    H231890   2.008   4.165   1.822 -0.2577  1.1455  0.8146
 3419TIP3   OH231891   4.798   2.675   1.892 -0.6981 -0.5543 -0.2733
 3419TIP3    H131892   4.887   2.678   1.856 -0.9632 -0.4066 -0.9265
 3419TIP3    H231893   4.808   2.706   1.982 -0.1591 -0.0687 -0.4905
 3420TIP3   OH231894   1.829   1.101   1.762 -0.7668  0.6098 -0.0142
 3420TIP3    H131895   1.782   1.180   1.789 -0.0327  1.1508 -0.2962
 3420TIP3    H231896   1.793   1.032   1.818  0.2268  1.5703  1.9293
 3421TIP3   OH231897   6.184   1.010   0.535  0.2285 -0.7806  0.4090
 3421TIP3    H131898   6.103   1.011   0.587  1.4046  0.3645  2.3340
 3421TIP3    H231899   6.158   1.046   0.450 -1.1439  0.3489  1.2618
 3422TIP3   OH231900   6.887   2.460   1.183 -0.1333  0.1758  0.1997
 3422TIP3    H131901   6.936   2.539   1.158 -1.5374  1.3146  0.8483
 3422TIP3    H231902   6.892   2.403   1.106 -2.3757  2.5609 -1.9011
 3423TIP3   OH231903   0.202   4.527   1.927 -0.4899 -0.6125 -0.0006
 3423TIP3    H131904   0.234   4.513   1.838 -0.8481 -2.2477  0.1030
 3423TIP3    H231905   0.275   4.571   1.972 -0.6934  1.2124 -1.3337
 3424TIP3   OH231906   2.971   2.071   8.095  0.2172 -0.0253  0.0063
 3424TIP3    H131907   2.963   2.049   8.188  1.2481 -0.9765 -0.1078
 3424TIP3    H231908   3.004   1.991   8.054 -1.6531 -0.1110 -1.4563
 3425TIP3   OH231909   2.861   6.417   8.076  0.0542 -0.1089  0.2446
 3425TIP3    H131910   2.789   6.467   8.039  0.5603  0.8274  0.4874
 3425TIP3    H231911   2.903   6.376   8.001 -0.3209 -0.1052  0.0310
 3426TIP3   OH231912   2.678   6.801   1.671 -0.0753 -0.2548  0.1664
 3426TIP3    H131913   2.662   6.827   1.762  1.3990 -2.4254  1.1439
 3426TIP3    H231914   2.634   6.717   1.662  2.1687 -1.4576 -0.1781
 3427TIP3   OH231915   1.281   6.342   7.291  0.4586  0.1126  0.2981
 3427TIP3    H131916   1.351   6.307   7.345  0.0894 -2.5624 -0.8010
 3427TIP3    H231917   1.296   6.302   7.205  0.0263  2.8488 -1.1528
 3428TIP3   OH231918   2.332   1.038   2.308 -0.2881 -0.0117  1.2652
 3428TIP3    H131919   2.313   1.100   2.239 -0.6893 -1.2624  0.2123
 3428TIP3    H231920   2.265   1.054   2.375  0.4629  1.6018  1.6732
 3429TIP3   OH231921   5.761   4.249   7.769 -0.2444 -0.2423  0.1772
 3429TIP3    H131922   5.815   4.264   7.846 -0.1115 -0.3452  0.1052
 3429TIP3    H231923   5.818   4.203   7.708 -0.2513  0.1233 -0.1079
 3430TIP3   OH231924   3.947   0.487   0.278  0.2425 -0.9877  0.2405
 3430TIP3    H131925   3.917   0.432   0.206  0.6588  0.9437 -1.4776
 3430TIP3    H231926   3.872   0.492   0.337 -0.8021 -1.0202 -1.0446
 3431TIP3   OH231927   1.569   2.762   7.749 -0.3403 -0.0250 -0.4826
 3431TIP3    H131928   1.496   2.716   7.790  0.2039 -0.5447 -0.0808
 3431TIP3    H231929   1.531   2.845   7.719 -1.0588 -0.2253 -0.1495
 3432TIP3   OH231930   1.372   6.317   7.552 -0.2533 -0.0817 -0.5432
 3432TIP3    H131931   1.405   6.239   7.508  0.3004  0.1787 -0.5958
 3432TIP3    H231932   1.278   6.301   7.561  0.0876 -1.5241  0.9928
 3433TIP3   OH231933   6.581   0.236   7.636  0.2487  0.0446 -0.4420
 3433TIP3    H131934   6.643   0.308   7.635  3.1502 -2.2749 -0.1155
 3433TIP3    H231935   6.589   0.198   7.724  1.0657 -2.3914 -1.4781
 3434TIP3   OH231936   1.729   2.281   0.193  0.3402  0.9204 -0.2589
 3434TIP3    H131937   1.684   2.363   0.216 -2.8458 -0.7834  0.1067
 3434TIP3    H231938   1.681   2.248   0.117  0.6023 -1.2800  0.4626
 3435TIP3   OH231939   3.058   2.620   6.947 -0.0920  0.3276  0.0178
 3435TIP3    H131940   3.137   2.567   6.953 -0.7767 -0.6479  0.9874
 3435TIP3    H231941   2.987   2.556   6.947 -0.8656  1.1246 -2.0522
 3436TIP3   OH231942   2.333   4.225   2.093 -0.6188  0.2150  0.1275
 3436TIP3    H131943   2.238   4.219   2.084 -0.3920 -1.2925 -2.0082
 3436TIP3    H231944   2.357   4.148   2.145 -0.4621 -0.3110 -0.6978
 3437TIP3   OH231945   4.589   0.989   7.172  0.1082  0.4739 -0.1691
 3437TIP3    H131946   4.549   0.936   7.102  0.8945  1.3373 -1.3040
 3437TIP3    H231947   4.522   0.991   7.241 -1.2239  0.6350 -1.4018
 3438TIP3   OH231948   1.121   4.432   0.358  0.0684 -0.3710 -0.2576
 3438TIP3    H131949   1.113   4.369   0.430  0.3758 -0.4229 -0.2671
 3438TIP3    H231950   1.184   4.496   0.389  0.1063 -0.3235 -0.4316
 3439TIP3   OH231951   1.099   6.532   8.361  0.7601  0.4284  0.2375
 3439TIP3    H131952   1.085   6.625   8.379  0.9479  0.6250 -0.5805
 3439TIP3    H231953   1.194   6.523   8.354  0.6994  0.3389 -0.4993
 3440TIP3   OH231954   4.918   0.768   6.057  0.4890 -0.1452  0.3509
 3440TIP3    H131955   4.966   0.733   6.131  0.9565 -1.9709 -0.7610
 3440TIP3    H231956   4.905   0.861   6.079  0.6706 -0.5961  2.6362
 3441TIP3   OH231957   5.920   2.454   6.934  0.3010 -0.1861 -0.1257
 3441TIP3    H131958   5.855   2.437   6.865 -0.6526  2.0722  0.1260
 3441TIP3    H231959   5.955   2.541   6.913  1.6917 -0.4507  0.9720
 3442TIP3   OH231960   5.909   3.605   1.465  0.7485 -0.0545  0.0707
 3442TIP3    H131961   5.883   3.539   1.530  1.0784 -0.4911 -0.2358
 3442TIP3    H231962   5.910   3.687   1.514 -0.9664 -0.0447  0.1543
 3443TIP3   OH231963   0.835   2.526   0.003 -0.2711  0.5914  0.1856
 3443TIP3    H131964   0.829   2.451  -0.057 -0.7863  1.4543 -0.8725
 3443TIP3    H231965   0.757   2.578  -0.017 -0.1109  1.2201  1.1724
 3444TIP3   OH231966   4.293   4.555   0.185  0.0194 -0.5813 -0.0128
 3444TIP3    H131967   4.321   4.635   0.141 -0.3449  0.0544  0.8947
 3444TIP3    H231968   4.338   4.556   0.269 -0.3143 -1.1161  0.1764
 3445TIP3   OH231969   4.266   1.145   7.774  0.4835 -0.4108  0.0141
 3445TIP3    H131970   4.232   1.124   7.861  0.2299 -0.5768 -0.1232
 3445TIP3    H231971   4.191   1.133   7.716  0.9838 -1.6164 -0.4096
 3446TIP3   OH231972   2.040   0.255   0.525  0.1715  0.0186  0.0257
 3446TIP3    H131973   2.052   0.297   0.610  1.7909 -0.7423  0.2161
 3446TIP3    H231974   2.108   0.188   0.521 -0.2125 -0.3355 -1.6544
 3447TIP3   OH231975   4.410   2.684   8.343  0.7690 -0.6579 -0.1435
 3447TIP3    H131976   4.391   2.642   8.428  0.7180 -1.9109 -0.7558
 3447TIP3    H231977   4.429   2.611   8.284  1.0719  0.2206 -1.1559
 3448TIP3   OH231978   0.160   4.561   6.408 -0.5653  0.4136  0.3176
 3448TIP3    H131979   0.078   4.588   6.366 -0.6733  0.3820  0.5093
 3448TIP3    H231980   0.223   4.554   6.335 -0.9472 -0.3859  0.0622
 3449TIP3   OH231981   5.754   5.965   7.652 -0.3057 -0.1174  0.2201
 3449TIP3    H131982   5.730   5.873   7.665 -0.0843 -0.4174 -1.2415
 3449TIP3    H231983   5.671   6.007   7.628 -0.0920 -0.3586 -1.0201
 3450TIP3   OH231984   2.806   2.469   8.399 -0.0577  0.3572 -0.5449
 3450TIP3    H131985   2.735   2.513   8.352  0.6763  2.2359  0.0421
 3450TIP3    H231986   2.886   2.500   8.357  0.4766 -1.5399 -1.0297
 3451TIP3   OH231987   5.887   4.535   7.919  0.3700 -0.2229  0.2411
 3451TIP3    H131988   5.947   4.461   7.930  1.1027  0.5663  1.8531
 3451TIP3    H231989   5.874   4.540   7.825  1.1209 -1.7569  0.0066
 3452TIP3   OH231990   6.789   2.912   0.950  0.4699  0.0969 -0.0268
 3452TIP3    H131991   6.731   2.966   0.896 -0.7053 -0.0814  1.0313
 3452TIP3    H231992   6.870   2.963   0.955 -0.5966  1.7973  0.9062
 3453TIP3   OH231993   3.950   5.156   0.996 -0.5814  0.5400  0.5880
 3453TIP3    H131994   3.940   5.072   0.951  2.9130  0.3562 -0.0757
 3453TIP3    H231995   3.953   5.134   1.089 -1.5021  0.1827  0.5403
 3454TIP3   OH231996   2.857   0.000   0.073  0.4535  0.1839  0.4722
 3454TIP3    H131997   2.950  -0.014   0.057  0.0725 -1.6341 -0.4152
 3454TIP3    H231998   2.854   0.047   0.156  2.1726  1.2048  0.0247
 3455TIP3   OH231999   0.373   4.417   0.159  0.1963  0.4131  0.3196
 3455TIP3    H132000   0.449   4.442   0.211 -0.0394 -0.9266  1.3457
 3455TIP3    H232001   0.393   4.329   0.126 -1.4441 -0.5608  1.7738
 3456TIP3   OH232002   2.319   3.774   0.911 -0.2868 -0.1905 -1.0327
 3456TIP3    H132003   2.263   3.805   0.840 -1.0472  1.0081  0.0577
 3456TIP3    H232004   2.298   3.681   0.919  0.4809 -0.5862 -2.9529
 3457TIP3   OH232005   0.237   4.177   8.032  0.0866  0.1775  0.2669
 3457TIP3    H132006   0.210   4.195   7.942 -1.7839  0.0791  0.7524
 3457TIP3    H232007   0.292   4.251   8.056  0.3019  0.3910 -0.8396
 3458TIP3   OH232008   5.227   3.516   0.445 -0.2089 -0.0093  0.0974
 3458TIP3    H132009   5.141   3.495   0.410 -0.2397 -1.2830  0.8959
 3458TIP3    H232010   5.289   3.479   0.382 -0.2626 -2.3867  1.3481
 3459TIP3   OH232011   1.031   5.957   7.351  0.4028  0.2207 -0.6097
 3459TIP3    H132012   1.052   6.049   7.335 -0.6498  0.2887 -1.7543
 3459TIP3    H232013   0.950   5.943   7.303 -1.1441 -0.5210  2.0642
 3460TIP3   OH232014   3.402   0.076   6.881  0.8635 -0.2117 -0.3675
 3460TIP3    H132015   3.496   0.084   6.866  0.9613 -1.6902 -0.7371
 3460TIP3    H232016   3.384   0.134   6.955  1.5371  2.2675 -2.0413
 3461TIP3   OH232017   6.335   5.220   7.599 -0.4147  0.3090  0.1632
 3461TIP3    H132018   6.285   5.159   7.652  0.8905 -0.1957  0.8710
 3461TIP3    H232019   6.420   5.227   7.644  0.9899 -0.6406 -2.1467
 3462TIP3   OH232020   6.135   6.429   1.832  0.5632  0.3466  0.3670
 3462TIP3    H132021   6.211   6.371   1.828 -0.1472 -0.6035 -0.0991
 3462TIP3    H232022   6.117   6.452   1.741 -1.5069 -1.9697  0.0693
 3463TIP3   OH232023   4.253   2.792   2.337  0.0459  0.2963  0.1470
 3463TIP3    H132024   4.332   2.738   2.342  0.3862 -0.0347 -4.5059
 3463TIP3    H232025   4.286   2.881   2.326 -0.5005  1.1706  4.0848
 3464TIP3   OH232026   3.885   5.376   8.095 -0.5078  0.0688 -0.5250
 3464TIP3    H132027   3.965   5.419   8.123 -0.9349  0.5970 -0.0949
 3464TIP3    H232028   3.910   5.285   8.079 -0.3139 -0.3530  1.8975
 3465TIP3   OH232029   4.242   3.405   0.966 -0.2369  0.5187  0.5006
 3465TIP3    H132030   4.181   3.469   1.002 -1.8301 -0.8691  0.4131
 3465TIP3    H232031   4.229   3.409   0.871  0.6718  1.0226  0.3892
 3466TIP3   OH232032   3.276   6.754   7.014  0.8012  0.1245  0.1161
 3466TIP3    H132033   3.307   6.722   7.099  1.1079  0.6596  0.2068
 3466TIP3    H232034   3.309   6.690   6.951  1.7635  0.4707  0.2556
 3467TIP3   OH232035   0.649   0.246   0.394 -0.0641 -0.1231 -0.4751
 3467TIP3    H132036   0.731   0.288   0.420  0.5530 -0.6499 -1.5101
 3467TIP3    H232037   0.670   0.152   0.391 -0.1778 -0.1377 -2.4455
 3468TIP3   OH232038   4.116   4.242   2.329 -0.1625  0.0857  0.5747
 3468TIP3    H132039   4.170   4.230   2.407 -1.5967 -2.3996  1.3044
 3468TIP3    H232040   4.056   4.313   2.351  0.4653  0.4524  1.1263
 3469TIP3   OH232041   2.675   5.191   2.225 -0.2683  0.0123 -0.1125
 3469TIP3    H132042   2.695   5.274   2.182 -0.9989  0.5673  0.5997
 3469TIP3    H232043   2.706   5.203   2.315 -1.1051 -0.1912  0.2076
 3470TIP3   OH232044   6.622   4.229   7.366  0.2897 -0.4222 -0.6477
 3470TIP3    H132045   6.693   4.264   7.313 -0.6548  0.7108 -1.2348
 3470TIP3    H232046   6.586   4.306   7.410 -0.8354 -0.8940 -0.7025
 3471TIP3   OH232047   3.023   0.353   1.013 -0.6161 -0.0661 -0.3635
 3471TIP3    H132048   2.978   0.271   0.993  0.4016 -1.0317  1.0702
 3471TIP3    H232049   2.955   0.420   1.007 -1.8804 -1.2535  0.1115
 3472TIP3   OH232050   4.502   5.259   7.241 -0.2737 -0.7220 -0.6690
 3472TIP3    H132051   4.409   5.280   7.235 -0.4257 -1.4869 -1.0265
 3472TIP3    H232052   4.545   5.326   7.188 -0.5911 -0.1909 -0.2622
 3473TIP3   OH232053   3.857   0.722   7.472  0.2679  0.4913 -0.0132
 3473TIP3    H132054   3.769   0.715   7.507  0.5597 -2.1764  0.4209
 3473TIP3    H232055   3.847   0.708   7.378  0.2038  0.1211  0.0452
 3474TIP3   OH232056   6.556   5.258   7.803 -0.3371  0.0687 -0.7508
 3474TIP3    H132057   6.519   5.240   7.890  0.3654  2.3080  0.0872
 3474TIP3    H232058   6.644   5.219   7.806 -0.7362 -0.8506 -0.8881
 3475TIP3   OH232059   4.466   6.171   0.353  0.1617  0.2267  0.4017
 3475TIP3    H132060   4.398   6.153   0.418 -0.9254  1.4450 -0.3536
 3475TIP3    H232061   4.518   6.241   0.391  0.2657  0.1123  0.4705
 3476TIP3   OH232062   6.939   3.012   7.380  0.7471 -0.3136 -0.0666
 3476TIP3    H132063   6.898   2.929   7.406  0.0815  0.5010  1.5650
 3476TIP3    H232064   6.865   3.071   7.364  1.2125  0.7508  1.5075
 3477TIP3   OH232065   2.350   0.405   6.908 -0.4641  0.0630  0.3267
 3477TIP3    H132066   2.407   0.332   6.929 -0.1602 -0.2074 -1.2933
 3477TIP3    H232067   2.264   0.379   6.940 -0.4662 -1.2503 -0.6907
 3478TIP3   OH232068   4.023   5.616   6.935 -0.5379  0.6019 -0.2617
 3478TIP3    H132069   3.963   5.595   7.006 -0.6640 -0.3706 -0.6433
 3478TIP3    H232070   4.109   5.622   6.977 -0.5400 -0.4297 -0.0791
 3479TIP3   OH232071   1.315   4.634   0.956  0.1589 -0.1049 -0.3302
 3479TIP3    H132072   1.373   4.624   0.881 -0.6967  0.1418 -1.0431
 3479TIP3    H232073   1.294   4.728   0.957  1.2914  0.1780  1.0940
 3480TIP3   OH232074   2.667   6.090   0.663  0.5045 -0.1334  0.4083
 3480TIP3    H132075   2.674   6.184   0.680 -0.7009 -0.0491  0.5186
 3480TIP3    H232076   2.638   6.053   0.746  0.9749 -0.6161  0.3646
 3481TIP3   OH232077   6.499   3.697   0.132 -0.6443  0.6480  0.0070
 3481TIP3    H132078   6.471   3.609   0.106 -0.1804  0.4424  0.1969
 3481TIP3    H232079   6.594   3.690   0.144 -0.8120  0.7900  1.5623
 3482TIP3   OH232080   5.757   0.691   8.442  0.0752  0.2336  0.0236
 3482TIP3    H132081   5.779   0.709   8.351 -1.6060 -0.4830 -0.5703
 3482TIP3    H232082   5.670   0.731   8.454 -0.3770 -0.9295  0.8658
 3483TIP3   OH232083   3.865   6.949   7.794 -0.6014 -0.0335 -0.0124
 3483TIP3    H132084   3.950   6.941   7.837  0.5946 -0.7703 -2.3439
 3483TIP3    H232085   3.821   6.866   7.813 -0.6047  0.1443  0.7850
 3484TIP3   OH232086   2.500   2.198   1.266 -0.1778  0.4416  0.2351
 3484TIP3    H132087   2.549   2.211   1.185 -0.5437  0.2002 -0.0279
 3484TIP3    H232088   2.545   2.125   1.310 -0.2120  0.3151  0.0624
 3485TIP3   OH232089   0.595   6.807   1.118 -0.5887 -0.6572 -0.4746
 3485TIP3    H132090   0.547   6.808   1.201  0.3125  2.0515  0.0987
 3485TIP3    H232091   0.538   6.854   1.057  0.2753  0.4886 -0.4174
 3486TIP3   OH232092   5.940   3.847   1.038  0.0734 -0.2528 -0.3597
 3486TIP3    H132093   5.979   3.817   1.120 -1.5674 -0.0668  0.5356
 3486TIP3    H232094   5.846   3.832   1.050 -0.2504  0.2728 -2.0102
 3487TIP3   OH232095   3.756   6.000   1.091 -0.8578  0.2819 -0.2257
 3487TIP3    H132096   3.708   5.934   1.141  0.0600 -0.3574 -0.1616
 3487TIP3    H232097   3.774   5.959   1.007 -0.5438  0.5672 -0.3025
 3488TIP3   OH232098   4.072   2.277   0.241 -0.5446 -0.2181 -0.0723
 3488TIP3    H132099   4.038   2.308   0.325  0.9002  1.6038 -0.1105
 3488TIP3    H232100   4.148   2.223   0.264 -0.6699 -0.4488 -0.1899
 3489TIP3   OH232101   0.274   3.031   1.073  0.3137 -0.5995 -0.7821
 3489TIP3    H132102   0.233   3.068   1.151  0.9961 -1.6461  0.1030
 3489TIP3    H232103   0.200   3.005   1.017 -0.2466 -1.8474  0.4926
 3490TIP3   OH232104   2.505   5.408   1.291  0.4839  0.1030 -0.1928
 3490TIP3    H132105   2.416   5.373   1.279  0.6533  0.0006 -1.2634
 3490TIP3    H232106   2.557   5.333   1.317  0.5334 -0.1451 -0.9717
 3491TIP3   OH232107   3.891   5.210   6.900 -0.0992  0.1983  0.6076
 3491TIP3    H132108   3.849   5.153   6.837 -0.6442 -1.7511  2.6178
 3491TIP3    H232109   3.852   5.296   6.884 -1.2465 -0.5341 -0.7492
 3492TIP3   OH232110   3.262   6.223   0.261  0.1537 -0.1161 -0.2699
 3492TIP3    H132111   3.179   6.216   0.307  0.8769  1.8023  1.5172
 3492TIP3    H232112   3.314   6.150   0.294 -0.0741 -0.0089  0.3392
 3493TIP3   OH232113   2.204   6.333   0.441 -0.1999 -0.6790  0.1884
 3493TIP3    H132114   2.124   6.334   0.388  0.6782  2.4130 -1.3588
 3493TIP3    H232115   2.273   6.309   0.378  0.7915  2.5488 -0.1583
 3494TIP3   OH232116   0.677   0.532   6.732  0.2024  0.0813  0.2150
 3494TIP3    H132117   0.746   0.591   6.763  0.1390  0.0621  0.3946
 3494TIP3    H232118   0.596   0.582   6.744  0.3309  0.8171 -1.7057
 3495TIP3   OH232119   3.397   2.751   6.713 -0.0927  0.0466  0.0825
 3495TIP3    H132120   3.346   2.702   6.649 -0.4957  1.5247 -0.7569
 3495TIP3    H232121   3.431   2.684   6.773  0.4937 -1.4076 -1.7801
 3496TIP3   OH232122   5.954   5.762   7.989 -0.2923  0.3278 -0.5448
 3496TIP3    H132123   5.869   5.736   8.025  0.0848 -0.4295 -0.1708
 3496TIP3    H232124   6.000   5.679   7.974  0.2490  0.7122 -1.0820
 3497TIP3   OH232125   0.696   1.036   6.975  0.5748  0.5477  0.4865
 3497TIP3    H132126   0.602   1.034   6.956 -0.1959 -2.0649  3.5279
 3497TIP3    H232127   0.732   0.962   6.925  0.7573  0.7348  0.3413
 3498TIP3   OH232128   5.141   2.606   7.955 -0.5199 -0.2960  0.1786
 3498TIP3    H132129   5.176   2.690   7.924 -0.4815 -1.1073 -2.1316
 3498TIP3    H232130   5.109   2.625   8.043  1.4873  1.6023  0.5947
 3499TIP3   OH232131   3.964   5.384   0.204  0.9316  0.5679 -0.4760
 3499TIP3    H132132   3.946   5.384   0.298  2.1067 -1.0984 -0.2084
 3499TIP3    H232133   3.924   5.465   0.172 -0.4476  0.6300  1.2619
 3500TIP3   OH232134   2.054   2.118   0.692 -0.5858  0.2404 -0.1819
 3500TIP3    H132135   2.065   2.035   0.738  1.6825 -0.3325 -1.5937
 3500TIP3    H232136   2.026   2.093   0.604 -1.0889  1.0603 -0.2606
 3501TIP3   OH232137   5.043   4.245   7.668  0.0190  0.2858 -0.6473
 3501TIP3    H132138   4.968   4.244   7.727  0.3558  0.5610 -0.2107
 3501TIP3    H232139   5.064   4.153   7.654  0.5061  0.2325  0.3934
 3502TIP3   OH232140   0.578   4.053   1.732  0.0826 -0.5638  0.1835
 3502TIP3    H132141   0.501   4.097   1.768 -1.1559 -1.7830 -0.8656
 3502TIP3    H232142   0.620   4.013   1.809  0.8383  1.7552  1.0449
 3503TIP3   OH232143   2.254   4.534   1.471  0.3986 -0.9249 -0.2989
 3503TIP3    H132144   2.163   4.556   1.493  0.4006 -0.7199 -0.5022
 3503TIP3    H232145   2.305   4.572   1.543  0.4237 -0.0636 -0.7655
 3504TIP3   OH232146   4.426   2.054   7.445 -0.2854  0.4943  0.8965
 3504TIP3    H132147   4.465   2.085   7.364  0.5169  1.8871  1.7697
 3504TIP3    H232148   4.449   1.961   7.450  0.2531  0.5709 -0.1173
 3505TIP3   OH232149   5.414   4.681   0.121 -0.0886  0.3417  0.4122
 3505TIP3    H132150   5.371   4.652   0.202 -1.1220  0.1728 -0.1732
 3505TIP3    H232151   5.491   4.730   0.151  0.3577 -0.9521  1.4600
 3506TIP3   OH232152   2.621   3.363   0.436 -0.1304 -1.1228 -0.2545
 3506TIP3    H132153   2.528   3.358   0.414 -0.7366 -3.7495  2.1897
 3506TIP3    H232154   2.667   3.335   0.356 -1.3524  0.5457 -1.6030
 3507TIP3   OH232155   3.515   3.422   1.844 -0.0773  0.1348 -0.2511
 3507TIP3    H132156   3.542   3.491   1.784 -0.5474  0.7712  0.2598
 3507TIP3    H232157   3.596   3.376   1.865  0.8615  2.5408  1.9376
 3508TIP3   OH232158   6.048   6.976   0.104  0.2945  1.1277 -0.7968
 3508TIP3    H132159   6.043   7.005   0.195  0.2665  1.5291 -0.9235
 3508TIP3    H232160   6.132   6.931   0.098  0.4868  1.4660 -0.6759
 3509TIP3   OH232161   6.687   4.736   7.080 -0.2783 -0.3253 -0.6558
 3509TIP3    H132162   6.662   4.733   7.173  1.4504  1.0020 -0.0907
 3509TIP3    H232163   6.722   4.649   7.062  0.9824 -0.1014  0.4802
 3510TIP3   OH232164   5.698   0.097   7.119 -0.4127 -0.0229 -0.2977
 3510TIP3    H132165   5.722   0.159   7.050 -0.3745  0.0286 -0.2379
 3510TIP3    H232166   5.763   0.027   7.112  0.5133  0.7068  0.6630
 3511TIP3   OH232167   1.017   0.259   0.677 -0.2508 -0.2223  0.0347
 3511TIP3    H132168   0.927   0.270   0.645 -0.7920 -0.0187  1.5790
 3511TIP3    H232169   1.008   0.215   0.761  1.2613 -2.5918 -0.9195
 3512TIP3   OH232170   1.461   6.969   8.445 -0.0344  0.9676 -0.6939
 3512TIP3    H132171   1.453   6.883   8.487 -1.4788  1.2617 -0.3103
 3512TIP3    H232172   1.435   6.954   8.354 -0.3584  0.9941 -0.6095
 3513TIP3   OH232173   4.941   3.845   1.228 -0.0408 -0.3308  0.3714
 3513TIP3    H132174   5.000   3.903   1.180 -0.9491  0.0147 -0.3475
 3513TIP3    H232175   4.978   3.842   1.317  0.8631  0.1410  0.0234
 3514TIP3   OH232176   4.015   1.612   7.239  0.1127  0.5255  0.7062
 3514TIP3    H132177   3.976   1.579   7.157 -1.1734  4.5198 -0.5437
 3514TIP3    H232178   4.109   1.601   7.227 -0.0849  0.3934 -1.0496
 3515TIP3   OH232179   0.393   3.415   2.491 -0.1606 -0.1546 -0.2454
 3515TIP3    H132180   0.323   3.399   2.555  0.3902 -1.7893  0.0023
 3515TIP3    H232181   0.474   3.396   2.538  0.4118  0.9269 -0.7660
 3516TIP3   OH232182   5.996   3.282   1.350 -0.3593 -0.3588 -0.9028
 3516TIP3    H132183   6.075   3.273   1.404 -0.5938  0.2094 -0.4561
 3516TIP3    H232184   6.012   3.360   1.298 -1.3405  0.8071  0.4571
 3517TIP3   OH232185   2.663   2.112   8.050 -0.0865 -0.8330 -0.1906
 3517TIP3    H132186   2.598   2.060   8.003 -1.6101 -0.5804  1.5681
 3517TIP3    H232187   2.644   2.202   8.025 -1.1387 -0.6637  1.1190
 3518TIP3   OH232188   6.898   5.908   1.151  0.7482  0.2143  0.0338
 3518TIP3    H132189   6.988   5.881   1.133  1.7462  1.6001  2.4028
 3518TIP3    H232190   6.906   5.973   1.221 -2.0641  0.9047 -0.1491
 3519TIP3   OH232191   1.663   5.945   7.277  0.2065 -0.2575  0.0776
 3519TIP3    H132192   1.722   6.000   7.227 -0.3042  1.9866  1.7906
 3519TIP3    H232193   1.698   5.947   7.366 -0.6672 -1.5183  0.4863
 3520TIP3   OH232194   2.985   2.735   0.083  0.0146  0.4964 -0.6803
 3520TIP3    H132195   2.891   2.721   0.068  0.2390 -2.1828 -0.1382
 3520TIP3    H232196   3.024   2.736  -0.004 -0.2163 -1.6276 -0.8735
 3521TIP3   OH232197   3.227   0.778   8.310  0.4516 -0.5740 -0.0302
 3521TIP3    H132198   3.317   0.809   8.327  0.3206  0.6822 -1.3509
 3521TIP3    H232199   3.174   0.822   8.376  0.4804  0.8870 -0.9363
 3522TIP3   OH232200   3.387   2.788   8.410  0.1619 -0.2090 -0.4860
 3522TIP3    H132201   3.474   2.817   8.379 -0.1711  1.1210 -0.2666
 3522TIP3    H232202   3.367   2.847   8.482 -0.2282 -1.5767  0.5594
 3523TIP3   OH232203   4.711   0.280   1.222  0.1011 -0.2263 -0.5746
 3523TIP3    H132204   4.791   0.319   1.187  0.0162  0.0959 -0.4176
 3523TIP3    H232205   4.641   0.338   1.191 -0.1950 -1.1319 -1.6726
 3524TIP3   OH232206   4.848   4.977   7.642  0.3141 -0.1701 -0.0387
 3524TIP3    H132207   4.924   5.035   7.638  0.2266 -0.0860 -0.5714
 3524TIP3    H232208   4.783   5.018   7.585  0.6159 -1.3030 -1.2692
 3525TIP3   OH232209   1.211   4.838   0.188  0.3138 -0.6431 -0.3786
 3525TIP3    H132210   1.304   4.849   0.208 -0.0687  0.9368  0.7735
 3525TIP3    H232211   1.196   4.744   0.193  1.5111 -0.7978  1.1211
 3526TIP3   OH232212   1.516   4.260   0.141 -0.9504  0.0266 -0.0637
 3526TIP3    H132213   1.497   4.297   0.054 -2.2414 -1.3602 -0.4168
 3526TIP3    H232214   1.441   4.284   0.194 -0.5146  0.2224  0.4705
 3527TIP3   OH232215   0.757   1.949   1.491  0.0575 -0.4212 -0.3734
 3527TIP3    H132216   0.812   1.962   1.415 -1.5473 -0.4171 -1.5979
 3527TIP3    H232217   0.707   1.869   1.471  0.5630 -1.1943  1.2839
 3528TIP3   OH232218   6.484   5.922   1.447  0.1936  0.1916  0.0023
 3528TIP3    H132219   6.483   5.889   1.357 -1.2829  1.9469 -0.6819
 3528TIP3    H232220   6.485   6.017   1.438 -2.4352  0.5075  1.7394
 3529TIP3   OH232221   5.391   4.771   8.291 -1.2334 -0.6180 -0.2519
 3529TIP3    H132222   5.362   4.854   8.254 -0.5798 -0.6710 -0.9099
 3529TIP3    H232223   5.448   4.795   8.364  0.8251 -0.3919 -1.8231
 3530TIP3   OH232224   2.722   1.732   0.195  0.0851  0.1235  0.4220
 3530TIP3    H132225   2.643   1.689   0.162  1.9024 -2.0236 -1.4824
 3530TIP3    H232226   2.718   1.720   0.290 -0.7012 -2.1859  0.1652
 3531TIP3   OH232227   6.378   4.459   8.249 -0.0305 -0.1094 -0.1146
 3531TIP3    H132228   6.450   4.434   8.307  0.1976  2.8236  1.0512
 3531TIP3    H232229   6.301   4.461   8.307 -0.2155  0.7793 -0.3766
 3532TIP3   OH232230   3.829   3.064   7.766 -0.4381  0.1140  0.6040
 3532TIP3    H132231   3.849   3.143   7.817 -1.7360  0.8100  0.0958
 3532TIP3    H232232   3.743   3.082   7.727 -0.3713 -1.2114 -0.2199
 3533TIP3   OH232233   4.732   3.505   0.307  0.0820 -0.0559  0.2690
 3533TIP3    H132234   4.750   3.579   0.249  2.5929  0.9162  2.1290
 3533TIP3    H232235   4.708   3.545   0.390 -2.5824 -1.4196  0.2672
 3534TIP3   OH232236   2.150   4.328   7.568  0.2775 -0.0416  0.0611
 3534TIP3    H132237   2.244   4.335   7.551  0.4637 -1.5077  0.3582
 3534TIP3    H232238   2.140   4.246   7.617 -1.4827 -1.6191 -2.6518
 3535TIP3   OH232239   3.173   0.151   8.181  0.4213 -0.6893  1.4569
 3535TIP3    H132240   3.107   0.216   8.205  0.1780 -0.5820  0.5200
 3535TIP3    H232241   3.229   0.195   8.117 -1.2547 -2.1409 -1.1910
 3536TIP3   OH232242   4.407   4.365   7.595 -0.1153 -0.4844  0.2552
 3536TIP3    H132243   4.456   4.345   7.515 -0.4359 -1.8610  0.3856
 3536TIP3    H232244   4.464   4.426   7.643  0.4878 -0.3646 -0.5904
 3537TIP3   OH232245   4.240   0.985   1.102 -0.2603  0.3935 -0.0437
 3537TIP3    H132246   4.227   0.945   1.016 -2.1330  1.7308 -0.4465
 3537TIP3    H232247   4.281   1.069   1.083 -4.0803  2.4392 -0.1312
 3538TIP3   OH232248   3.436   2.460   1.184 -0.0187  0.1888 -0.3257
 3538TIP3    H132249   3.392   2.410   1.253 -1.2273  0.0031 -1.2057
 3538TIP3    H232250   3.513   2.497   1.227 -0.9042  0.3333  1.2163
 3539TIP3   OH232251   1.545   3.782   7.890  0.4392 -0.0486 -0.2063
 3539TIP3    H132252   1.640   3.794   7.885  0.4960 -0.6219 -0.5822
 3539TIP3    H232253   1.509   3.860   7.847  0.7349  0.1494 -0.1034
 3540TIP3   OH232254   5.159   3.613   0.117 -0.4778 -0.0074 -0.2053
 3540TIP3    H132255   5.169   3.561   0.037  0.9431  1.1716 -0.8508
 3540TIP3    H232256   5.201   3.561   0.185 -0.1279 -0.2599 -0.6045
 3541TIP3   OH232257   2.499   4.736   6.400 -0.1717 -0.0474  0.1075
 3541TIP3    H132258   2.571   4.704   6.453  1.0969  2.2340 -0.0900
 3541TIP3    H232259   2.475   4.662   6.344  1.4247 -1.1292  0.7903
 3542TIP3   OH232260   0.386   3.853   0.895 -0.2350 -0.3111 -0.0543
 3542TIP3    H132261   0.426   3.826   0.977  2.3188 -0.0333 -1.1227
 3542TIP3    H232262   0.320   3.917   0.921  1.9982  1.4546  1.7122
 3543TIP3   OH232263   0.960   3.867   6.764 -0.3660  0.0423  0.0904
 3543TIP3    H132264   0.957   3.907   6.677 -1.0312 -0.1149  0.0348
 3543TIP3    H232265   1.051   3.878   6.792 -0.1882  0.2619 -0.5440
 3544TIP3   OH232266   1.386   6.095   6.376  0.0627  0.0299 -0.3779
 3544TIP3    H132267   1.341   6.010   6.378 -1.0601  0.5863 -0.9521
 3544TIP3    H232268   1.421   6.102   6.287  1.6061 -0.5375  0.1596
 3545TIP3   OH232269   6.875   0.842   6.825  0.7364 -0.7707  0.9327
 3545TIP3    H132270   6.856   0.924   6.870  1.1859 -0.8061  1.2014
 3545TIP3    H232271   6.858   0.860   6.733  2.5732  0.1994  0.7301
 3546TIP3   OH232272   6.516   4.143   8.446  0.7702 -0.1494 -0.0761
 3546TIP3    H132273   6.488   4.061   8.405  1.0921 -0.9616  1.2783
 3546TIP3    H232274   6.582   4.179   8.386  1.3624 -1.3880 -0.1874
 3547TIP3   OH232275   5.767   3.199   1.119 -0.1143 -0.3130 -0.3028
 3547TIP3    H132276   5.694   3.144   1.089  0.1598 -0.2638 -1.0998
 3547TIP3    H232277   5.837   3.137   1.140 -0.7093 -0.4391  1.5080
 3548TIP3   OH232278   6.464   0.916   1.063 -0.7511 -0.0061  0.3085
 3548TIP3    H132279   6.528   0.985   1.047  0.0736 -0.4828  1.3996
 3548TIP3    H232280   6.514   0.835   1.057 -1.4249 -0.4306  0.3596
 3549TIP3   OH232281   3.337   1.174   1.356  0.0822 -0.1437  0.1293
 3549TIP3    H132282   3.419   1.187   1.309 -0.7769  3.7599 -0.6806
 3549TIP3    H232283   3.285   1.118   1.299  1.8628 -2.1468  0.3634
 3550TIP3   OH232284   0.764   4.586   1.367  0.4705 -0.3490 -0.2745
 3550TIP3    H132285   0.681   4.539   1.356 -0.1603  0.0140  2.3026
 3550TIP3    H232286   0.818   4.526   1.417  0.4416  0.7955  1.1693
 3551TIP3   OH232287   6.545   1.202   6.655  0.1696  0.1517  0.2032
 3551TIP3    H132288   6.484   1.160   6.716  0.4853 -0.0751  0.3639
 3551TIP3    H232289   6.589   1.129   6.610  1.3561  0.2850  1.1037
 3552TIP3   OH232290   6.382   3.005   1.717 -0.0942  0.0926 -0.3165
 3552TIP3    H132291   6.420   3.092   1.701  0.6941 -0.4961 -1.9307
 3552TIP3    H232292   6.288   3.016   1.699 -0.4467  1.1155  1.8249
 3553TIP3   OH232293   4.267   6.242   2.347  0.0528 -0.0709 -0.4312
 3553TIP3    H132294   4.251   6.252   2.253 -2.8815 -0.9522 -0.1194
 3553TIP3    H232295   4.185   6.207   2.382 -0.0295  2.9270  2.9406
 3554TIP3   OH232296   1.490   0.034   1.464 -0.1061  0.4706  0.6514
 3554TIP3    H132297   1.534  -0.018   1.397 -0.1938  1.8154 -0.4987
 3554TIP3    H232298   1.489   0.123   1.429 -0.2515  1.2025  2.4122
 3555TIP3   OH232299   0.651   6.114   6.546 -0.1358  0.1719 -0.2860
 3555TIP3    H132300   0.688   6.029   6.569 -0.8393 -0.4212 -1.2600
 3555TIP3    H232301   0.715   6.178   6.578  0.0268 -0.6723  1.1722
 3556TIP3   OH232302   4.844   6.065   1.509 -0.4203 -0.5294 -0.0652
 3556TIP3    H132303   4.827   6.147   1.556 -0.5003 -0.0062 -0.9808
 3556TIP3    H232304   4.757   6.028   1.493 -0.4481 -0.2488 -0.5837
 3557TIP3   OH232305   0.007   0.759   0.003 -0.2658 -0.2636  0.1710
 3557TIP3    H132306   0.002   0.848   0.037  1.9833  0.1342 -0.3304
 3557TIP3    H232307   0.014   0.703   0.080 -4.3104 -0.3997  0.6454
 3558TIP3   OH232308   4.542   2.687   7.512 -0.0205  0.1400  0.0303
 3558TIP3    H132309   4.465   2.636   7.538  0.4979 -0.2350  0.8889
 3558TIP3    H232310   4.576   2.641   7.436 -2.0602  1.7456 -1.9854
 3559TIP3   OH232311   2.613   0.037   1.484 -0.5802  0.2290 -0.0101
 3559TIP3    H132312   2.556  -0.013   1.425  0.8918 -0.8131 -0.6282
 3559TIP3    H232313   2.646  -0.029   1.546  1.9803  0.1728 -1.2817
 3560TIP3   OH232314   0.008   5.425   7.666 -0.3249  0.4060 -0.7353
 3560TIP3    H132315   0.092   5.412   7.710  0.5951 -0.5164 -2.6456
 3560TIP3    H232316  -0.053   5.368   7.712  0.7828 -1.1074 -1.0853
 3561TIP3   OH232317   3.867   3.051   7.419  0.0840  0.3310 -0.1043
 3561TIP3    H132318   3.807   3.037   7.493  0.1776  1.6863  0.2575
 3561TIP3    H232319   3.843   2.983   7.356  1.2328 -2.0954  1.8913
 3562TIP3   OH232320   5.662   5.132   0.941 -0.2708  0.3269 -0.3096
 3562TIP3    H132321   5.622   5.210   0.902 -0.9114  0.5463  0.7462
 3562TIP3    H232322   5.732   5.108   0.880 -0.9765  0.8887 -1.3651
 3563TIP3   OH232323   6.394   6.382   7.153  0.4465  0.9192 -0.0592
 3563TIP3    H132324   6.368   6.442   7.082 -0.1115  2.0031  1.0289
 3563TIP3    H232325   6.487   6.365   7.137 -0.2139 -0.9943 -2.5716
 3564TIP3   OH232326   5.737   1.220   0.415  0.6887  0.6480  0.1605
 3564TIP3    H132327   5.706   1.283   0.480 -2.7703  1.9526 -2.4685
 3564TIP3    H232328   5.691   1.139   0.437  0.2032  0.8400 -0.1437
 3565TIP3   OH232329   2.935   2.343   7.116  0.3799  0.1570 -0.1179
 3565TIP3    H132330   3.018   2.346   7.163  0.0529  0.2725  0.4640
 3565TIP3    H232331   2.869   2.331   7.184 -0.1651  1.0225 -0.4659
 3566TIP3   OH232332   2.141   3.429   1.305 -0.3275  0.4935  0.3881
 3566TIP3    H132333   2.103   3.341   1.315  3.0267 -1.3192 -0.9113
 3566TIP3    H232334   2.194   3.440   1.384  2.5541 -0.6638 -1.2080
 3567TIP3   OH232335   5.645   3.027   1.816 -0.0681  0.2514  0.5380
 3567TIP3    H132336   5.633   3.013   1.910 -0.5154  0.0302  0.4528
 3567TIP3    H232337   5.557   3.044   1.783 -0.0819 -0.7710 -0.0100
 3568TIP3   OH232338   6.371   4.976   1.576 -0.2406 -0.9058  0.2411
 3568TIP3    H132339   6.369   4.953   1.669 -0.0647 -0.3987  0.3741
 3568TIP3    H232340   6.341   4.897   1.531  1.9314 -1.9628  0.5560
 3569TIP3   OH232341   6.342   2.128   2.166  0.2841  0.3098  0.2773
 3569TIP3    H132342   6.268   2.068   2.178  1.0212 -0.6067  0.2680
 3569TIP3    H232343   6.344   2.179   2.247 -0.0095 -0.0500  0.5149
 3570TIP3   OH232344   2.943   4.535   7.526 -0.4139  0.2066 -0.6288
 3570TIP3    H132345   2.860   4.578   7.541 -0.3677  0.3911 -0.9084
 3570TIP3    H232346   3.008   4.592   7.568 -0.2352  0.9435 -1.8839
 3571TIP3   OH232347   5.286   5.007   8.169 -0.1461 -0.3258  0.0372
 3571TIP3    H132348   5.233   4.961   8.104  0.1991 -0.4529 -0.1526
 3571TIP3    H232349   5.225   5.070   8.209 -0.6936 -1.1284  0.4976
 3572TIP3   OH232350   0.183   1.005   1.604  0.2337  0.3028  0.5020
 3572TIP3    H132351   0.157   0.931   1.659  0.2079 -0.6048 -0.6718
 3572TIP3    H232352   0.112   1.015   1.541  0.7878  0.5287 -0.1073
 3573TIP3   OH232353   6.072   2.699   8.188 -0.2460  0.6313 -0.0853
 3573TIP3    H132354   6.020   2.679   8.110  0.1890 -0.6659 -0.0776
 3573TIP3    H232355   6.133   2.767   8.160  0.7547 -0.6933 -1.2722
 3574TIP3   OH232356   6.972   2.681   7.160 -0.2988  0.2486 -0.0586
 3574TIP3    H132357   6.897   2.732   7.130 -0.4472  0.4809  0.6883
 3574TIP3    H232358   6.940   2.634   7.238  0.8408  1.8323  1.4359
 3575TIP3   OH232359   2.181   3.149   7.459 -0.1261 -0.0551  1.1140
 3575TIP3    H132360   2.254   3.106   7.414 -0.4852  0.5946 -0.1286
 3575TIP3    H232361   2.107   3.140   7.399 -0.3706  1.7085  1.1067
 3576TIP3   OH232362   5.874   1.845   0.678  0.3022 -0.1262  0.4335
 3576TIP3    H132363   5.912   1.794   0.607 -1.4276 -0.8769 -0.0157
 3576TIP3    H232364   5.847   1.779   0.743  0.3209  0.4166  1.0102
 3577TIP3   OH232365   1.103   6.506   1.036 -0.2515  0.2058  0.0310
 3577TIP3    H132366   1.057   6.552   0.965  2.2731  1.5979 -0.8380
 3577TIP3    H232367   1.097   6.566   1.111 -0.2032  0.1939  0.0444
 3578TIP3   OH232368   3.423   6.220   1.193  0.3549 -0.2184  0.1056
 3578TIP3    H132369   3.427   6.154   1.262  1.6307  1.5869  1.8763
 3578TIP3    H232370   3.403   6.170   1.114  1.4331 -2.7464  1.2890
 3579TIP3   OH232371   0.440   4.690   6.430 -0.0336 -0.5523 -0.5964
 3579TIP3    H132372   0.348   4.714   6.442 -0.1882 -1.4196  0.0426
 3579TIP3    H232373   0.448   4.669   6.337  0.5003  3.4586 -1.6450
 3580TIP3   OH232374   5.346   3.142   1.266  0.2570 -1.2512 -0.3315
 3580TIP3    H132375   5.250   3.145   1.262  0.2681  0.3153 -0.3617
 3580TIP3    H232376   5.374   3.165   1.177  0.6246  0.1921  0.1266
 3581TIP3   OH232377   5.027   5.593   7.917 -0.4933  0.0973  0.0764
 3581TIP3    H132378   5.036   5.650   7.994  0.0116 -0.4206  0.4117
 3581TIP3    H232379   5.109   5.607   7.869 -1.1164  0.9784 -0.7656
 3582TIP3   OH232380   3.327   2.965   0.190  0.5299 -0.7799  0.4640
 3582TIP3    H132381   3.250   3.009   0.156  1.3570  0.8588  0.6258
 3582TIP3    H232382   3.294   2.911   0.262 -0.2383  1.5732  1.9867
 3583TIP3   OH232383   2.287   3.568   1.111  0.4664 -0.1940  0.6491
 3583TIP3    H132384   2.257   3.518   1.187  0.4351 -0.0235  0.7516
 3583TIP3    H232385   2.348   3.632   1.147 -0.2156  0.4733  0.6643
 3584TIP3   OH232386   1.756   5.234   7.371  0.0594 -0.6213 -0.4961
 3584TIP3    H132387   1.767   5.212   7.463 -3.0903 -2.8967 -0.4744
 3584TIP3    H232388   1.729   5.326   7.371 -4.2463 -1.6065  1.5072
 3585TIP3   OH232389   4.605   3.642   0.034  0.2056  0.2427  0.3112
 3585TIP3    H132390   4.624   3.698   0.109 -1.0281  1.9334 -0.5764
 3585TIP3    H232391   4.510   3.647   0.024  0.1150 -1.6465 -0.1134
 3586TIP3   OH232392   4.392   2.000   1.649 -0.3148 -0.1876 -0.4416
 3586TIP3    H132393   4.457   1.984   1.581  0.1295 -0.0628 -0.0519
 3586TIP3    H232394   4.321   2.045   1.604 -0.0681 -0.1953 -0.8442
 3587TIP3   OH232395   2.386   5.987   0.544 -0.1732 -0.1222  0.3375
 3587TIP3    H132396   2.433   5.920   0.495 -0.6174 -0.4405  0.3485
 3587TIP3    H232397   2.454   6.030   0.596  0.0327 -0.8931  0.7102
 3588TIP3   OH232398   4.760   5.094   0.724 -0.7887 -0.1688 -0.2183
 3588TIP3    H132399   4.782   5.159   0.790 -0.7057 -0.1852 -0.2302
 3588TIP3    H232400   4.714   5.143   0.656  0.6920  0.1817 -1.0092
 3589TIP3   OH232401   2.549   6.499   7.720  0.1619  0.3618  0.5726
 3589TIP3    H132402   2.495   6.424   7.745  0.8998 -1.1791 -2.0693
 3589TIP3    H232403   2.628   6.460   7.682  0.0792  2.3757 -1.9789
 3590TIP3   OH232404   1.686   0.141   2.216 -0.1903 -0.2930  0.1067
 3590TIP3    H132405   1.614   0.199   2.191 -0.0926 -0.1124  0.2459
 3590TIP3    H232406   1.743   0.195   2.270  1.4682  0.3599 -2.1611
 3591TIP3   OH232407   6.325   5.743   7.921 -0.4717 -0.0641  0.1652
 3591TIP3    H132408   6.269   5.716   7.848 -0.5414 -0.5364  0.3940
 3591TIP3    H232409   6.274   5.811   7.965 -1.3321 -1.1818  0.9720
 3592TIP3   OH232410   2.550   6.538   1.656 -0.7237  0.2027  0.4300
 3592TIP3    H132411   2.599   6.516   1.577 -1.2101  0.3940  0.0673
 3592TIP3    H232412   2.534   6.454   1.699 -0.7188  0.0643  0.1655
 3593TIP3   OH232413   1.686   5.982   0.317  0.2825  0.2525 -0.2947
 3593TIP3    H132414   1.669   6.012   0.228  0.9187 -0.4570 -0.6639
 3593TIP3    H232415   1.616   6.022   0.369  0.7585  1.8816 -0.8385
 3594TIP3   OH232416   0.405   2.382   2.255  0.1154  0.1219  0.1107
 3594TIP3    H132417   0.434   2.396   2.165 -0.0883  1.7939  0.2675
 3594TIP3    H232418   0.484   2.394   2.308 -0.2179  1.7181  0.3120
 3595TIP3   OH232419   1.935   2.675   6.824  0.2753  0.5914  0.0395
 3595TIP3    H132420   1.876   2.601   6.809  2.1005 -1.4748  2.1801
 3595TIP3    H232421   1.983   2.684   6.742 -0.9784  0.3790 -0.7435
 3596TIP3   OH232422   3.123   3.416   7.076 -0.1733  0.2677 -0.1401
 3596TIP3    H132423   3.218   3.415   7.084 -0.2672  0.0423  1.3286
 3596TIP3    H232424   3.092   3.375   7.157 -1.5194  0.5186 -0.5024
 3597TIP3   OH232425   3.937   2.030   0.959 -0.0320 -0.1732  0.0167
 3597TIP3    H132426   3.888   2.064   0.884  0.2446  0.0838 -0.0475
 3597TIP3    H232427   3.882   2.052   1.035 -0.0020  0.1445 -0.0526
 3598TIP3   OH232428   6.028   6.657   0.726 -0.8018  0.0603  0.5753
 3598TIP3    H132429   6.058   6.571   0.755  1.2900  0.3191 -0.6379
 3598TIP3    H232430   6.108   6.709   0.717 -2.0475  2.3850  1.9257
 3599TIP3   OH232431   5.118   4.900   1.567  0.3814  0.5811  0.2217
 3599TIP3    H132432   5.212   4.918   1.569  0.4466  0.2401  0.3091
 3599TIP3    H232433   5.085   4.949   1.492  0.7042  0.3357 -0.0777
 3600TIP3   OH232434   1.231   5.903   7.896 -0.8433 -0.3966 -0.5440
 3600TIP3    H132435   1.177   5.911   7.818  0.2035 -0.9527 -1.3581
 3600TIP3    H232436   1.321   5.919   7.865 -0.6841  3.2411  1.2192
 3601TIP3   OH232437   5.275   5.530   1.744 -0.0409 -0.8033  0.4484
 3601TIP3    H132438   5.185   5.563   1.742  0.3786  0.3331 -0.4073
 3601TIP3    H232439   5.291   5.511   1.837 -0.0825  2.1660  1.1687
 3602TIP3   OH232440   4.163   1.865   2.356 -0.0274  0.2276 -0.1248
 3602TIP3    H132441   4.158   1.847   2.450  0.3164 -0.7419 -0.2870
 3602TIP3    H232442   4.192   1.783   2.317  0.6508  0.8618 -0.9987
 3603TIP3   OH232443   0.167   3.687   8.385  0.2781 -0.7380  0.1236
 3603TIP3    H132444   0.117   3.627   8.439 -1.2229  1.0708  0.8394
 3603TIP3    H232445   0.257   3.682   8.419 -0.2499 -1.0670  1.5147
 3604TIP3   OH232446   4.689   2.858   8.237  0.1562  0.1594 -0.2326
 3604TIP3    H132447   4.633   2.932   8.261  2.7487  1.7844  1.3135
 3604TIP3    H232448   4.765   2.898   8.195  0.8893 -1.8148 -0.9148
 3605TIP3   OH232449   0.792   5.037   7.306  0.0344  0.3304  0.1300
 3605TIP3    H132450   0.773   5.046   7.213  0.6712 -1.8554 -0.2678
 3605TIP3    H232451   0.887   5.049   7.312 -0.2298  2.4034  0.8211
 3606TIP3   OH232452   6.487   3.111   1.134 -0.2432  0.4176  0.0461
 3606TIP3    H132453   6.409   3.072   1.095 -0.5670  0.0777  0.9994
 3606TIP3    H232454   6.453   3.179   1.192  0.0521 -0.7788  1.6770
 3607TIP3   OH232455   5.627   0.985   0.493 -0.2196  0.7247  0.1506
 3607TIP3    H132456   5.638   0.925   0.419  1.0789 -0.9577  1.6119
 3607TIP3    H232457   5.554   0.949   0.543 -0.1932  1.0455  0.4249
 3608TIP3   OH232458   0.373   3.256   7.734 -0.5356  0.0097 -0.4862
 3608TIP3    H132459   0.339   3.169   7.712 -0.5656  0.2258 -1.3430
 3608TIP3    H232460   0.431   3.278   7.661  1.3118 -0.2515  0.8282
 3609TIP3   OH232461   4.172   3.356   6.999 -0.0540 -0.1253 -0.1659
 3609TIP3    H132462   4.196   3.364   6.906  2.5098 -1.6264  0.2478
 3609TIP3    H232463   4.176   3.445   7.033  1.8868  0.1499 -0.9536
 3610TIP3   OH232464   1.797   6.588   6.573 -0.2150 -0.1601  0.0714
 3610TIP3    H132465   1.855   6.616   6.502 -1.4207  1.5356 -0.2934
 3610TIP3    H232466   1.728   6.653   6.575 -1.4236 -1.4122  1.3649
 3611TIP3   OH232467   3.906   5.845   8.304 -0.4487  0.0364  0.2877
 3611TIP3    H132468   3.817   5.838   8.269  0.3714 -0.7789 -1.7866
 3611TIP3    H232469   3.926   5.758   8.338  0.0039 -0.1257 -0.3941
 3612TIP3   OH232470   1.622   6.661   7.370 -0.2407  0.3011  0.1058
 3612TIP3    H132471   1.593   6.604   7.299  1.4760  1.2870 -1.4656
 3612TIP3    H232472   1.558   6.646   7.440 -1.9038 -0.8583 -1.5548
 3613TIP3   OH232473   1.638   5.787   7.626  0.4762 -0.3122 -0.6108
 3613TIP3    H132474   1.630   5.699   7.662  1.7997 -0.3629 -0.3695
 3613TIP3    H232475   1.586   5.842   7.684 -0.2694 -0.9149 -0.7005
 3614TIP3   OH232476   0.146   6.878   6.753 -0.1193 -0.0123 -0.5136
 3614TIP3    H132477   0.150   6.931   6.673  1.1307 -1.7424 -1.6504
 3614TIP3    H232478   0.130   6.789   6.723  0.2605 -0.6940  1.1860
 3615TIP3   OH232479   5.070   1.267   1.026 -0.3297 -0.0966 -0.7777
 3615TIP3    H132480   5.089   1.173   1.022 -1.5246 -0.3350 -1.4513
 3615TIP3    H232481   4.979   1.274   0.998 -0.1088  1.3207 -1.2359
 3616TIP3   OH232482   3.245   1.004   6.821  0.1508  0.6631  0.9097
 3616TIP3    H132483   3.220   0.978   6.909 -0.6645 -0.5103  0.3600
 3616TIP3    H232484   3.337   0.979   6.813 -0.5660 -2.1424  0.4367
 3617TIP3   OH232485   1.258   3.087   2.263 -0.1489 -0.3087  0.2327
 3617TIP3    H132486   1.323   3.133   2.316  1.2689 -1.3942 -0.4773
 3617TIP3    H232487   1.302   3.005   2.238 -1.4759 -0.6741 -1.0191
 3618TIP3   OH232488   1.689   1.762   7.725 -0.4140 -0.1748 -0.1655
 3618TIP3    H132489   1.745   1.827   7.683  3.0216 -2.0749  1.0869
 3618TIP3    H232490   1.691   1.687   7.666 -1.0245 -0.5508  0.2802
 3619TIP3   OH232491   4.620   6.033   0.153 -0.3910 -0.4725  0.1092
 3619TIP3    H132492   4.593   6.068   0.068 -2.5370  2.7462  1.9170
 3619TIP3    H232493   4.550   6.057   0.213  1.8955 -0.8799  3.2089
 3620TIP3   OH232494   6.136   5.463   7.311  0.3357 -0.3949  0.1225
 3620TIP3    H132495   6.092   5.400   7.368  1.0752 -0.2013  0.9330
 3620TIP3    H232496   6.219   5.481   7.355 -0.1509  1.7042  0.3029
 3621TIP3   OH232497   0.612   1.401   6.966 -0.5721  0.1318 -0.3297
 3621TIP3    H132498   0.666   1.323   6.960 -0.5757  0.0888  0.1641
 3621TIP3    H232499   0.653   1.453   7.036 -0.7468  0.4273 -0.4474
 3622TIP3   OH232500   0.153   2.014   0.714 -0.2948 -0.0448  0.0716
 3622TIP3    H132501   0.187   1.932   0.750 -0.6204 -0.5114 -0.6570
 3622TIP3    H232502   0.059   1.998   0.703 -0.2365  0.1588 -0.7644
 3623TIP3   OH232503   5.262   1.770   0.633  0.3837  0.0532 -0.8655
 3623TIP3    H132504   5.247   1.794   0.725 -2.1662  0.6810 -1.3664
 3623TIP3    H232505   5.356   1.781   0.621  0.5819  1.4232  1.2732
 3624TIP3   OH232506   5.931   5.756   0.350 -0.1451  0.6434 -0.2348
 3624TIP3    H132507   5.994   5.812   0.395 -1.3842  2.1034 -0.2451
 3624TIP3    H232508   5.861   5.742   0.414  0.6353 -1.9078  0.1940
 3625TIP3   OH232509   3.297   0.808   2.098  0.4705 -0.3729  0.6447
 3625TIP3    H132510   3.287   0.732   2.041  0.7827 -0.4819  0.7334
 3625TIP3    H232511   3.222   0.804   2.158 -1.0428  0.8874 -1.0540
 3626TIP3   OH232512   2.773   1.949   6.648  0.2647  0.4789 -0.0411
 3626TIP3    H132513   2.785   1.907   6.562 -1.1921  0.4748 -0.2722
 3626TIP3    H232514   2.837   2.020   6.649  1.5645 -0.6363 -0.3662
 3627TIP3   OH232515   4.695   3.834   0.212 -0.0257 -0.5634 -0.2114
 3627TIP3    H132516   4.627   3.897   0.188 -0.0444 -1.3120 -2.2906
 3627TIP3    H232517   4.777   3.878   0.191  0.0545 -0.5016  0.2153
 3628TIP3   OH232518   1.369   0.128   6.919 -0.2474 -0.1009 -0.2932
 3628TIP3    H132519   1.391   0.042   6.883 -0.4728  0.0679 -0.8580
 3628TIP3    H232520   1.346   0.112   7.010  0.7804 -0.4803 -0.0950
 3629TIP3   OH232521   1.314   2.896   7.979 -0.5443 -0.2699  0.0154
 3629TIP3    H132522   1.300   2.946   7.899 -0.7955 -0.0486  0.1899
 3629TIP3    H232523   1.238   2.918   8.034 -0.0600  0.0784  0.5605
 3630TIP3   OH232524   6.484   4.856   8.181  0.1133  0.4722 -0.8663
 3630TIP3    H132525   6.399   4.822   8.210  0.4690  0.3802  0.0806
 3630TIP3    H232526   6.509   4.798   8.109 -1.0220  1.0324 -1.7618
 3631TIP3   OH232527   5.965   0.016   7.386 -0.1562  0.4247  0.2075
 3631TIP3    H132528   5.939  -0.001   7.296  1.1271  2.4587 -0.6216
 3631TIP3    H232529   6.028  -0.053   7.406 -1.7547 -1.1073  0.2459
 3632TIP3   OH232530   0.530   2.097   0.401 -0.3726 -0.8009 -0.8909
 3632TIP3    H132531   0.563   2.012   0.370 -1.3029 -1.1773 -0.8738
 3632TIP3    H232532   0.565   2.106   0.489 -1.8472 -2.0937 -0.1251
 3633TIP3   OH232533   0.322   4.886   0.106 -0.0542  0.3621  0.2007
 3633TIP3    H132534   0.401   4.883   0.051 -0.2075  1.9522 -0.1588
 3633TIP3    H232535   0.342   4.952   0.173 -0.8681  0.3646  0.4500
 3634TIP3   OH232536   6.654   1.692   1.042 -0.5587  0.5829  0.2095
 3634TIP3    H132537   6.726   1.703   1.105  0.4246 -1.0577 -0.5745
 3634TIP3    H232538   6.580   1.664   1.096  0.3603 -1.1277  0.6579
 3635TIP3   OH232539   0.054   2.673   1.074  0.0892  0.1202 -0.1877
 3635TIP3    H132540   0.031   2.733   1.144  0.0145  0.7331 -0.7285
 3635TIP3    H232541   0.149   2.663   1.080  0.0293 -0.1792  0.2752
 3636TIP3   OH232542   1.682   5.910   6.570 -0.0922 -0.1397  0.3490
 3636TIP3    H132543   1.735   5.962   6.510 -0.1452 -0.0494  0.3787
 3636TIP3    H232544   1.745   5.863   6.624 -0.0493 -0.4772  0.0010
 3637TIP3   OH232545   0.321   4.677   7.277 -0.5262  0.3002  0.6489
 3637TIP3    H132546   0.315   4.715   7.189  0.3285 -0.3013  0.3075
 3637TIP3    H232547   0.234   4.641   7.294 -0.0685 -1.8434 -1.0436
 3638TIP3   OH232548   3.862   6.849   1.019  0.0647  0.1506  0.4487
 3638TIP3    H132549   3.777   6.813   1.045  0.2029 -1.6915 -1.3978
 3638TIP3    H232550   3.921   6.774   1.022  0.5793  0.3341 -2.6580
 3639TIP3   OH232551   0.306   0.461   7.583  0.3712 -0.1465 -0.0240
 3639TIP3    H132552   0.256   0.412   7.518 -0.9946 -0.9131  1.5133
 3639TIP3    H232553   0.373   0.508   7.533 -1.1883  0.0227 -2.0585
 3640TIP3   OH232554   6.095   3.721   0.707 -0.1613  0.2146  0.6829
 3640TIP3    H132555   6.077   3.773   0.629 -0.4048  0.0414  0.6232
 3640TIP3    H232556   6.009   3.686   0.732 -0.0049 -0.1093  0.7576
 3641TIP3   OH232557   2.382   6.132   7.109  0.2216 -0.5901  0.5473
 3641TIP3    H132558   2.433   6.208   7.136  0.2154 -0.4700  0.2314
 3641TIP3    H232559   2.388   6.132   7.013  1.5768 -1.9075  0.5864
 3642TIP3   OH232560   5.717   6.062   1.883  0.3369 -0.2143 -0.1095
 3642TIP3    H132561   5.762   6.129   1.831  1.6387 -2.3841 -1.9884
 3642TIP3    H232562   5.787   6.023   1.937 -0.4779  0.1326  1.2494
 3643TIP3   OH232563   0.628   6.921   7.533  0.0275 -0.1603  0.2218
 3643TIP3    H132564   0.589   6.943   7.618 -0.8253  1.1865 -0.4752
 3643TIP3    H232565   0.561   6.947   7.469  0.4859 -1.5283 -0.8559
 3644TIP3   OH232566   3.131   5.375   7.337 -0.4313  0.4184 -0.5442
 3644TIP3    H132567   3.143   5.465   7.305  0.0383 -0.0166 -1.6519
 3644TIP3    H232568   3.203   5.326   7.297 -0.6002 -0.4312  0.1647
 3645TIP3   OH232569   0.520   2.385   8.149  0.0236  0.2530  0.1148
 3645TIP3    H132570   0.479   2.388   8.062  2.0795  0.7513 -0.9051
 3645TIP3    H232571   0.566   2.468   8.157 -0.5293  0.4266  1.9280
 3646TIP3   OH232572   5.644   0.787   1.591 -0.0480  0.2659 -0.0680
 3646TIP3    H132573   5.704   0.860   1.576  0.2776  0.4983  2.0299
 3646TIP3    H232574   5.608   0.803   1.678 -1.1772 -1.2646 -0.2032
 3647TIP3   OH232575   6.699   1.468   1.630  0.2252 -0.1288  0.3851
 3647TIP3    H132576   6.619   1.421   1.607 -0.1845 -0.0212  1.4891
 3647TIP3    H232577   6.736   1.495   1.547 -0.2191 -1.2799 -0.2141
 3648TIP3   OH232578   6.272   4.362   0.516 -0.6637 -0.3567  0.1431
 3648TIP3    H132579   6.256   4.422   0.589 -0.2783 -2.4737  2.0553
 3648TIP3    H232580   6.367   4.353   0.513 -0.5596  0.8053 -1.6284
 3649TIP3   OH232581   6.545   4.204   1.627  0.0834 -0.1777 -0.0899
 3649TIP3    H132582   6.623   4.208   1.683  0.2695  1.7305 -0.4148
 3649TIP3    H232583   6.471   4.208   1.688  0.2130 -1.6519  0.1970
 3650TIP3   OH232584   6.735   5.127   8.098 -0.1856  0.5009 -0.1669
 3650TIP3    H132585   6.727   5.084   8.183 -1.3264 -0.2327 -0.6158
 3650TIP3    H232586   6.815   5.179   8.105  1.2552 -1.6524  0.4287
 3651TIP3   OH232587   0.730   1.546   0.908  0.1918 -0.0719  0.3571
 3651TIP3    H132588   0.798   1.514   0.968  2.0297  1.1555 -0.9624
 3651TIP3    H232589   0.738   1.489   0.832 -1.4313 -0.9637  0.8113
 3652TIP3   OH232590   0.723   6.866   6.266 -0.1065 -0.2226  0.6874
 3652TIP3    H132591   0.793   6.893   6.326  0.5673  0.0407 -0.2048
 3652TIP3    H232592   0.673   6.946   6.251 -0.5319 -0.3797  1.2103
 3653TIP3   OH232593   3.169   5.742   1.503  0.0706 -0.0955  0.0962
 3653TIP3    H132594   3.189   5.710   1.415 -1.1443 -1.2391  0.2036
 3653TIP3    H232595   3.149   5.663   1.553 -0.3668  0.6302  1.1016
 3654TIP3   OH232596   5.038   4.679   0.043 -0.0724  0.1095 -0.1641
 3654TIP3    H132597   4.946   4.695   0.063 -0.4273  0.0201 -1.6159
 3654TIP3    H232598   5.079   4.766   0.049  0.0013 -0.0123  1.5611
 3655TIP3   OH232599   1.823   5.954   6.188  0.1473  1.0411 -0.0507
 3655TIP3    H132600   1.870   5.956   6.272 -0.5089  0.4504  0.3382
 3655TIP3    H232601   1.787   6.042   6.180  0.9612  1.3703 -0.1462
 3656TIP3   OH232602   3.569   6.242   7.206 -0.4048 -0.1129 -0.8364
 3656TIP3    H132603   3.579   6.267   7.114  0.9585 -1.3919 -1.0792
 3656TIP3    H232604   3.643   6.184   7.223 -0.1046  0.8153  1.3435
 3657TIP3   OH232605   3.154   4.001   0.725  0.2443 -0.2506  0.4241
 3657TIP3    H132606   3.172   3.923   0.672 -1.4422 -1.2981  1.3055
 3657TIP3    H232607   3.194   3.982   0.810  0.8449  0.3900  0.3018
 3658TIP3   OH232608   1.477   1.838   1.575 -0.3966  0.1784 -0.2528
 3658TIP3    H132609   1.473   1.890   1.656  1.7807  0.4302 -0.2517
 3658TIP3    H232610   1.390   1.799   1.568 -1.1274  1.3730  1.3900
 3659TIP3   OH232611   0.427   4.620   7.594  0.6217  0.1810  0.5021
 3659TIP3    H132612   0.393   4.697   7.548  1.1883 -0.5532 -1.2281
 3659TIP3    H232613   0.518   4.641   7.612  0.4057  0.4605  1.3207
 3660TIP3   OH232614   0.394   6.705   7.759  0.4747 -0.6181  0.1750
 3660TIP3    H132615   0.405   6.799   7.775  1.7481 -0.5601 -0.8586
 3660TIP3    H232616   0.353   6.672   7.839  0.6281  0.7023  0.8305
 3661TIP3   OH232617   4.774   4.070   1.187 -0.5461  0.4026 -0.0148
 3661TIP3    H132618   4.776   3.987   1.139  0.3744  0.4112  0.0024
 3661TIP3    H232619   4.816   4.051   1.271 -0.8275  0.7565  0.2148
 3662TIP3   OH232620   1.566   2.793   0.391 -0.0043 -0.1357  0.4357
 3662TIP3    H132621   1.645   2.815   0.341 -1.2554  1.9872 -0.7541
 3662TIP3    H232622   1.495   2.838   0.345 -1.8317 -1.3555  1.8932
 3663TIP3   OH232623   3.183   3.522   8.145  0.0282 -0.3687 -0.0329
 3663TIP3    H132624   3.128   3.472   8.085  0.8206 -1.3424  0.0104
 3663TIP3    H232625   3.232   3.582   8.089 -1.8472  1.3350  0.0371
 3664TIP3   OH232626   3.266   2.513   2.086  0.1242 -0.1393 -0.0442
 3664TIP3    H132627   3.340   2.486   2.141  0.0758  0.9414  0.5833
 3664TIP3    H232628   3.273   2.608   2.082 -1.4956  0.0264  0.4061
 3665TIP3   OH232629   6.689   3.927   1.234  0.7498  0.6106  0.6756
 3665TIP3    H132630   6.778   3.958   1.246  0.8261  0.7831 -0.2829
 3665TIP3    H232631   6.636   3.982   1.292  1.0121  1.8572 -0.2211
 3666TIP3   OH232632   1.806   1.261   6.310  0.2563 -0.1112  0.2226
 3666TIP3    H132633   1.771   1.268   6.221  0.9233  1.4416  0.0364
 3666TIP3    H232634   1.865   1.186   6.307  1.1448  0.6010 -0.9900
 3667TIP3   OH232635   5.674   1.858   8.339  0.8600 -0.1494  0.0863
 3667TIP3    H132636   5.590   1.867   8.383  1.1524  1.5363  0.3639
 3667TIP3    H232637   5.656   1.882   8.248  0.9293 -0.3683  0.0139
 3668TIP3   OH232638   0.552   3.131   0.676 -0.2454  0.4068 -0.0594
 3668TIP3    H132639   0.542   3.219   0.638 -1.6795  0.8196  1.1640
 3668TIP3    H232640   0.634   3.136   0.725  1.2014  0.1123 -2.3316
 3669TIP3   OH232641   3.335   5.591   7.950  0.2411 -0.4278  0.3106
 3669TIP3    H132642   3.423   5.600   7.987  0.7248  0.9363 -1.0564
 3669TIP3    H232643   3.326   5.666   7.890 -1.0182 -1.7295 -1.2361
 3670TIP3   OH232644   0.907   4.691   7.135  0.5359 -0.4031  0.3325
 3670TIP3    H132645   0.933   4.602   7.112  1.9490  0.8196 -3.5054
 3670TIP3    H232646   0.838   4.712   7.073  1.7221  1.8514 -0.3233
 3671TIP3   OH232647   3.905   0.473   0.661  0.3402  0.1959 -0.0769
 3671TIP3    H132648   3.997   0.463   0.638  0.6939  0.9009  0.9566
 3671TIP3    H232649   3.894   0.567   0.675 -1.1500  0.4601 -2.5888
 3672TIP3   OH232650   5.390   3.182   8.342 -0.1896 -0.2557 -0.1727
 3672TIP3    H132651   5.482   3.196   8.318 -0.6326  0.8524 -1.2987
 3672TIP3    H232652   5.340   3.212   8.267 -1.5823  1.3169  1.2983
 3673TIP3   OH232653   6.941   3.282   8.217 -0.4691 -0.2431  0.5175
 3673TIP3    H132654   7.012   3.314   8.162 -0.8023 -0.3926 -0.0137
 3673TIP3    H232655   6.881   3.238   8.155  0.3104 -2.5198  1.2683
 3674TIP3   OH232656   4.813   3.659   2.207 -0.5452 -0.4592 -0.3941
 3674TIP3    H132657   4.847   3.576   2.173  0.4939  0.7884 -2.6723
 3674TIP3    H232658   4.719   3.654   2.193 -0.6147 -1.6112  0.3807
 3675TIP3   OH232659   2.916   4.065   6.801 -0.3311 -0.4404  0.0210
 3675TIP3    H132660   2.834   4.114   6.802  0.7898  1.5142  0.9943
 3675TIP3    H232661   2.964   4.099   6.725  0.2821 -0.3214  0.4549
 3676TIP3   OH232662   2.287   4.498   0.314 -0.3252  0.4285 -0.3342
 3676TIP3    H132663   2.200   4.538   0.311 -0.5679  0.0032  0.5851
 3676TIP3    H232664   2.344   4.569   0.344 -0.4921  0.4970 -0.1710
 3677TIP3   OH232665   6.948   6.365   1.037  0.2369  0.0805 -0.0858
 3677TIP3    H132666   6.967   6.430   1.105  1.2835  0.5710 -0.8230
 3677TIP3    H232667   7.022   6.371   0.977 -0.8352 -0.0987 -1.4614
 3678TIP3   OH232668   5.968   6.709   1.332 -0.8865 -0.0495  0.5761
 3678TIP3    H132669   5.975   6.745   1.420 -0.0140 -1.1941  1.0037
 3678TIP3    H232670   5.934   6.620   1.345  0.2928 -0.6256 -0.1335
 3679TIP3   OH232671   5.585   2.371   0.701 -0.4237  0.3703  0.5270
 3679TIP3    H132672   5.523   2.391   0.630  1.1880 -0.4494 -1.1882
 3679TIP3    H232673   5.663   2.422   0.679  0.2454 -0.2075  1.5283
 3680TIP3   OH232674   3.663   6.872   0.016 -0.2586  1.1198 -0.3642
 3680TIP3    H132675   3.744   6.869   0.065 -0.9319  1.6607  0.8209
 3680TIP3    H232676   3.650   6.965  -0.003 -1.1092  1.1525  0.3382
 3681TIP3   OH232677   4.165   2.569   2.623  0.0079 -0.0177 -0.1174
 3681TIP3    H132678   4.149   2.485   2.665 -0.7843  0.0391 -0.2983
 3681TIP3    H232679   4.258   2.586   2.639 -0.3755  0.2727  2.0750
 3682TIP3   OH232680   0.116   5.473   0.834  0.0747 -0.1720  0.2328
 3682TIP3    H132681   0.081   5.420   0.763 -0.0639 -3.8976  2.7744
 3682TIP3    H232682   0.208   5.448   0.839  0.4520  1.1724  0.4983
 3683TIP3   OH232683   3.954   4.927   0.071  0.1206  0.3148 -0.7018
 3683TIP3    H132684   4.010   4.910  -0.005  1.4404  0.3535  0.2329
 3683TIP3    H232685   3.869   4.891   0.047  0.0150  1.8354 -2.8875
 3684TIP3   OH232686   1.609   4.678   0.295  0.4739 -0.0866 -0.1710
 3684TIP3    H132687   1.683   4.722   0.252  1.3831 -1.2396  0.1603
 3684TIP3    H232688   1.625   4.585   0.281  0.9434 -0.5385  2.8026
 3685TIP3   OH232689   2.805   1.039   6.989  0.1354 -0.0256  0.0671
 3685TIP3    H132690   2.745   0.990   6.933 -0.9124  1.1654  0.0912
 3685TIP3    H232691   2.816   0.984   7.066 -4.0668  1.2659  1.8671
 3686TIP3   OH232692   2.171   1.976   0.911 -0.3930  0.0998  0.0687
 3686TIP3    H132693   2.079   1.955   0.926 -0.1590  0.3290  2.1402
 3686TIP3    H232694   2.203   2.006   0.997  1.6979 -0.2999 -0.5211
 3687TIP3   OH232695   0.879   3.841   0.485  0.0742  0.0395  0.2639
 3687TIP3    H132696   0.920   3.836   0.572 -0.0980 -3.1220  0.2857
 3687TIP3    H232697   0.950   3.824   0.424 -0.3711 -1.1649  0.0484
 3688TIP3   OH232698   0.944   3.857   7.192 -0.6906  0.0438  0.0752
 3688TIP3    H132699   0.982   3.856   7.104 -2.4794 -1.7292 -0.7655
 3688TIP3    H232700   0.995   3.792   7.240 -0.6001 -0.0012 -0.0794
 3689TIP3   OH232701   4.089   6.639   7.348 -0.5839 -0.1900 -0.3349
 3689TIP3    H132702   4.055   6.597   7.427 -1.5057 -0.0561 -0.6541
 3689TIP3    H232703   4.055   6.728   7.352 -0.6114 -0.1744 -0.8802
 3690TIP3   OH232704   3.149   3.451   2.568 -0.0679 -0.2767 -0.4191
 3690TIP3    H132705   3.221   3.490   2.618  0.2350 -0.6542 -0.5538
 3690TIP3    H232706   3.128   3.517   2.501 -0.4969  0.2400  0.2219
 3691TIP3   OH232707   0.916   1.499   8.308  0.0640 -0.1781 -0.9690
 3691TIP3    H132708   0.864   1.428   8.271  0.0115 -1.3652  1.2205
 3691TIP3    H232709   0.873   1.519   8.391  0.9859  1.3761 -0.8315
 3692TIP3   OH232710   0.702   3.178   6.634 -0.0713  0.6426 -0.0469
 3692TIP3    H132711   0.640   3.130   6.579  0.5391 -2.7692  1.9075
 3692TIP3    H232712   0.788   3.142   6.608  0.6676  2.2131  0.1445
 3693TIP3   OH232713   0.878   4.293   2.515  0.2989  0.0548 -0.1020
 3693TIP3    H132714   0.823   4.350   2.461 -0.2607  1.8296  2.1773
 3693TIP3    H232715   0.959   4.343   2.526 -0.0475  0.2750  1.6251
 3694TIP3   OH232716   5.825   0.940   2.434  0.4995  0.4666  0.5424
 3694TIP3    H132717   5.914   0.931   2.400  0.7536 -0.5828  1.4285
 3694TIP3    H232718   5.790   0.851   2.434 -0.2063  0.7341  1.0983
 3695TIP3   OH232719   0.542   6.652   7.299 -0.2118  0.7413  0.0911
 3695TIP3    H132720   0.524   6.625   7.209  0.0350  2.6526 -0.5797
 3695TIP3    H232721   0.504   6.739   7.306  1.9676  1.7028  1.0277
 3696TIP3   OH232722   5.426   1.975   7.459 -0.6376 -0.4790 -0.8285
 3696TIP3    H132723   5.355   2.014   7.510  0.6630  0.1173  0.6051
 3696TIP3    H232724   5.494   1.957   7.523  0.4627 -1.1793 -2.1442
 3697TIP3   OH232725   5.060   2.707   2.416 -0.2929 -0.0097 -0.1329
 3697TIP3    H132726   5.153   2.727   2.432 -0.8532  1.9926  0.9685
 3697TIP3    H232727   5.037   2.760   2.340 -0.2154 -1.6838 -1.3895
 3698TIP3   OH232728   3.956   3.103   7.133 -0.5694 -0.4702 -0.0441
 3698TIP3    H132729   4.005   3.023   7.111 -2.3612 -1.2099 -1.5799
 3698TIP3    H232730   4.023   3.164   7.164  1.4696 -1.2092 -2.6495
 3699TIP3   OH232731   0.407   1.106   7.450 -0.0044 -0.2753  0.2752
 3699TIP3    H132732   0.373   1.125   7.363  1.5544 -1.4241 -0.6271
 3699TIP3    H232733   0.435   1.015   7.446 -0.8431 -0.6766  2.3162
 3700TIP3   OH232734   4.886   2.514   7.834 -0.7215  0.3871  0.1422
 3700TIP3    H132735   4.866   2.499   7.741  0.2193  2.1000 -0.3866
 3700TIP3    H232736   4.969   2.469   7.848 -1.7518 -1.4568  0.6988
 3701TIP3   OH232737   1.488   6.568   7.572  0.5595 -0.6072  0.0507
 3701TIP3    H132738   1.449   6.485   7.545  1.3655 -0.8560 -0.3877
 3701TIP3    H232739   1.472   6.573   7.666 -2.3206  0.2883 -0.4079
 3702TIP3   OH232740   2.500   3.066   7.679 -0.2644  0.0157 -0.0289
 3702TIP3    H132741   2.448   2.990   7.652  1.8349 -1.0681 -1.2823
 3702TIP3    H232742   2.493   3.067   7.774  0.3236 -2.3135  0.1057
 3703TIP3   OH232743   5.560   4.420   7.056 -0.5122 -0.6715 -0.3372
 3703TIP3    H132744   5.541   4.479   7.129 -2.0915  1.0076 -1.9857
 3703TIP3    H232745   5.605   4.476   6.992  0.3523 -1.9583 -0.8863
 3704TIP3   OH232746   4.049   0.196   7.508 -0.0833 -0.0662  0.3235
 3704TIP3    H132747   3.985   0.257   7.542  0.3956  1.9859 -2.1370
 3704TIP3    H232748   4.131   0.245   7.508  0.6975 -1.3163 -0.1443
 3705TIP3   OH232749   1.381   5.584   1.844 -0.2131 -0.1208  0.1548
 3705TIP3    H132750   1.290   5.581   1.875 -2.2820 -2.1092 -4.9944
 3705TIP3    H232751   1.393   5.675   1.814  0.1838  0.5769  2.3045
 3706TIP3   OH232752   3.156   4.987   1.543 -0.4033  0.1866 -0.2234
 3706TIP3    H132753   3.061   5.001   1.545 -0.5417 -0.7008  0.2417
 3706TIP3    H232754   3.168   4.909   1.489  0.1236  0.6679 -0.8151
 3707TIP3   OH232755   5.489   4.145   6.756 -0.3104  0.2471 -0.2476
 3707TIP3    H132756   5.560   4.198   6.722 -0.9818  0.4652 -1.3564
 3707TIP3    H232757   5.502   4.059   6.717 -0.0495 -0.0073  0.3948
 3708TIP3   OH232758   2.507   0.423   1.011 -0.5325  0.3284  0.2531
 3708TIP3    H132759   2.452   0.430   0.934  0.7128  1.2478 -0.5910
 3708TIP3    H232760   2.547   0.510   1.020 -0.2650  0.0874  1.6340
 3709TIP3   OH232761   4.752   1.417   7.870  0.2466 -0.2059  0.2315
 3709TIP3    H132762   4.663   1.395   7.896  0.5021 -1.1690  0.3472
 3709TIP3    H232763   4.804   1.408   7.950  0.5306 -0.1600  0.0553
 3710TIP3   OH232764   5.573   5.099   8.127 -0.5414 -0.1012  0.0112
 3710TIP3    H132765   5.502   5.058   8.078  0.8882  0.4507 -2.7055
 3710TIP3    H232766   5.531   5.168   8.177 -2.0474 -0.4357 -0.7373
 3711TIP3   OH232767   1.041   4.578   0.622 -0.1795 -0.1681  0.8704
 3711TIP3    H132768   1.071   4.499   0.669 -1.0295  0.2143  2.1142
 3711TIP3    H232769   1.119   4.634   0.619  0.5216 -1.1526 -0.2995
 3712TIP3   OH232770   2.968   4.563   8.168 -0.0488  0.2473 -0.3872
 3712TIP3    H132771   2.942   4.474   8.194 -0.6707  0.5952  0.2308
 3712TIP3    H232772   2.891   4.616   8.184  0.8646  1.2311  1.0213
 3713TIP3   OH232773   6.646   2.330   0.101  0.3750  0.2964  0.0005
 3713TIP3    H132774   6.684   2.250   0.064  1.6175  0.9082 -0.0778
 3713TIP3    H232775   6.673   2.399   0.041 -1.1617  0.7356 -0.2449
 3714TIP3   OH232776   0.277   3.117   0.431 -0.4057  0.5866  0.3396
 3714TIP3    H132777   0.254   3.205   0.461 -0.6662 -0.0430  2.0785
 3714TIP3    H232778   0.224   3.058   0.484 -1.2080 -0.6220 -1.6991
 3715TIP3   OH232779   6.766   1.168   7.700 -0.0481 -0.3534 -0.0017
 3715TIP3    H132780   6.825   1.100   7.734  1.1390  0.7167  0.1365
 3715TIP3    H232781   6.823   1.243   7.683 -1.7010  1.5833  2.4034
 3716TIP3   OH232782   6.636   3.661   2.725 -0.1650 -0.6351 -0.6694
 3716TIP3    H132783   6.697   3.588   2.737  0.8331 -0.0136 -1.6966
 3716TIP3    H232784   6.684   3.738   2.755 -1.3705 -0.4262  0.8280
 3717TIP3   OH232785   2.263   1.540   1.132  0.1335  0.3465  0.0673
 3717TIP3    H132786   2.280   1.449   1.153  0.8447  0.5906  0.5740
 3717TIP3    H232787   2.289   1.549   1.040  2.3122  0.5709  0.6519
 3718TIP3   OH232788   3.859   3.736   1.535 -0.3138  0.1129 -0.1700
 3718TIP3    H132789   3.928   3.777   1.484  1.8004  0.1318  2.4722
 3718TIP3    H232790   3.903   3.706   1.615 -2.6506 -3.2289  0.0477
 3719TIP3   OH232791   0.145   0.848   6.616 -0.3520  0.5414  0.2386
 3719TIP3    H132792   0.084   0.790   6.571  0.7521  0.1404 -0.7865
 3719TIP3    H232793   0.161   0.919   6.555  0.2200  0.6305  0.4835
 3720TIP3   OH232794   0.679   4.941   0.461 -0.1427 -0.4173  0.1269
 3720TIP3    H132795   0.729   4.859   0.468  0.7844 -0.0619 -1.5732
 3720TIP3    H232796   0.740   5.009   0.490 -0.5107 -0.2194  0.4400
 3721TIP3   OH232797   5.577   0.893   0.055  0.0937 -0.2519 -0.3603
 3721TIP3    H132798   5.614   0.980   0.063 -0.2594 -0.0071 -1.2604
 3721TIP3    H232799   5.504   0.891   0.117  0.6349 -0.2182  0.2943
 3722TIP3   OH232800   4.165   5.461   8.400 -0.4304 -0.2713 -0.1996
 3722TIP3    H132801   4.210   5.400   8.458  0.7567 -0.3356 -1.1662
 3722TIP3    H232802   4.145   5.537   8.456  0.0710 -0.6183  0.4577
 3723TIP3   OH232803   5.007   3.827   0.177 -0.2187 -0.0173  0.3827
 3723TIP3    H132804   5.045   3.744   0.149  0.1828  0.1476  0.4339
 3723TIP3    H232805   5.022   3.886   0.104 -0.3860  0.0456  0.3994
 3724TIP3   OH232806   4.158   5.117   0.279 -0.3526  0.7526  0.5660
 3724TIP3    H132807   4.121   5.152   0.361 -0.1886 -1.6831  1.7602
 3724TIP3    H232808   4.230   5.061   0.307 -0.9227 -0.9400 -1.1727
 3725TIP3   OH232809   6.659   5.327   1.347 -0.5845  0.1003  0.0136
 3725TIP3    H132810   6.685   5.321   1.255 -0.4351 -0.6752  0.1003
 3725TIP3    H232811   6.615   5.412   1.354 -1.3440 -0.1927 -0.9610
 3726TIP3   OH232812   2.492   5.671   6.295  0.1546  0.4654  0.0297
 3726TIP3    H132813   2.475   5.756   6.254  0.0457 -0.0423 -0.9927
 3726TIP3    H232814   2.461   5.681   6.385 -0.6455  1.2361 -0.3232
 3727TIP3   OH232815   1.217   2.080   7.559 -0.2289  0.2186 -0.6729
 3727TIP3    H132816   1.276   2.061   7.486  3.0915  0.6828  1.6405
 3727TIP3    H232817   1.204   1.996   7.601 -0.8031  0.2070 -0.8691
 3728TIP3   OH232818   3.425   6.614   0.795  0.3423 -0.0907  0.5618
 3728TIP3    H132819   3.456   6.636   0.707  1.6360  0.8185  1.2137
 3728TIP3    H232820   3.341   6.572   0.781 -0.0889  1.2066 -1.0507
 3729TIP3   OH232821   2.030   6.746   1.557  0.4431 -0.1116 -0.0170
 3729TIP3    H132822   2.016   6.838   1.582  1.4154  0.1716 -0.4325
 3729TIP3    H232823   2.120   6.728   1.586 -0.1930 -1.3610  1.2818
 3730TIP3   OH232824   5.134   4.594   1.045  0.8676 -0.6949 -0.2972
 3730TIP3    H132825   5.132   4.555   1.133  2.5447  0.0713  0.1085
 3730TIP3    H232826   5.069   4.665   1.049 -1.2676 -2.4911 -0.6544
 3731TIP3   OH232827   2.549   3.683   1.787  0.4923 -0.3811  0.4818
 3731TIP3    H132828   2.465   3.637   1.785  1.6528 -2.6577  0.1325
 3731TIP3    H232829   2.534   3.763   1.737 -0.6580 -2.3209 -2.5743
 3732TIP3   OH232830   0.905   2.155   1.087  0.2766  0.6886 -0.1109
 3732TIP3    H132831   0.862   2.233   1.122 -0.1863  0.2776  0.2457
 3732TIP3    H232832   0.834   2.105   1.048  0.6310  0.6215 -0.6799
 3733TIP3   OH232833   5.472   3.487   8.405 -0.1230 -0.5019 -0.1107
 3733TIP3    H132834   5.443   3.485   8.314  0.3798 -0.5640 -0.2683
 3733TIP3    H232835   5.495   3.396   8.425 -1.4631 -0.7451  0.4832
 3734TIP3   OH232836   3.206   4.110   0.147  0.1596  0.0908  0.0174
 3734TIP3    H132837   3.112   4.095   0.162  0.1987 -0.5395 -0.3518
 3734TIP3    H232838   3.244   4.022   0.142  0.2839  0.2427 -2.9095
 3735TIP3   OH232839   0.334   4.152   6.388  0.3283  0.5682 -0.0587
 3735TIP3    H132840   0.400   4.160   6.319  1.0464  0.1838  0.5710
 3735TIP3    H232841   0.378   4.181   6.468 -0.6910  1.6304  0.1425
 3736TIP3   OH232842   6.322   3.034   0.176  0.5377 -0.2757  0.0982
 3736TIP3    H132843   6.334   2.939   0.170  0.5249 -0.2315 -0.7879
 3736TIP3    H232844   6.241   3.050   0.127  0.7924  0.2511 -0.1485
 3737TIP3   OH232845   6.586   6.062   7.844 -0.2668 -0.2146 -0.1799
 3737TIP3    H132846   6.532   6.084   7.768  0.3239  2.6365  0.1089
 3737TIP3    H232847   6.641   6.139   7.857 -0.6300 -0.3914  3.3952
 3738TIP3   OH232848   2.039   6.620   6.410  0.2241  0.5041 -0.0552
 3738TIP3    H132849   2.084   6.568   6.344 -1.0629 -1.5940  0.6077
 3738TIP3    H232850   2.087   6.602   6.491 -0.3110  0.2017  0.2028
 3739TIP3   OH232851   5.769   5.277   1.161 -0.0306  0.6002 -0.1313
 3739TIP3    H132852   5.774   5.359   1.113 -2.5391  0.2473 -1.1481
 3739TIP3    H232853   5.791   5.210   1.096 -0.1991  0.3298  0.0867
 3740TIP3   OH232854   1.272   5.016   6.142 -0.1607 -0.2047 -0.5169
 3740TIP3    H132855   1.338   5.079   6.173  0.3052 -1.2586  0.7295
 3740TIP3    H232856   1.229   4.985   6.221 -0.2345 -1.6093 -1.0721
 3741TIP3   OH232857   6.417   0.528   0.264  0.3048 -0.1358  0.5679
 3741TIP3    H132858   6.417   0.621   0.287  1.2657  0.0305 -0.0354
 3741TIP3    H232859   6.410   0.482   0.347  0.7312  0.4752  0.9460
 3742TIP3   OH232860   1.610   2.735   1.538 -0.3121  0.1891  0.1166
 3742TIP3    H132861   1.523   2.733   1.577 -0.2447  0.2810  0.2706
 3742TIP3    H232862   1.664   2.782   1.601 -0.0900 -0.1004  0.1444
 3743TIP3   OH232863   4.626   4.070   1.466 -0.1938  0.0122 -0.5252
 3743TIP3    H132864   4.679   4.106   1.538 -0.2509 -0.1192 -0.4179
 3743TIP3    H232865   4.613   4.145   1.407  2.1299 -0.4706 -1.7924
 3744TIP3   OH232866   6.647   5.062   1.395 -0.1156  0.4137 -0.1830
 3744TIP3    H132867   6.556   5.031   1.401 -0.1077  0.5250  0.5984
 3744TIP3    H232868   6.640   5.157   1.387 -0.1896  0.2479 -3.8111
 3745TIP3   OH232869   6.976   6.434   7.331  0.1994 -0.3412  0.5894
 3745TIP3    H132870   6.940   6.508   7.282 -0.2702 -0.6669  0.4382
 3745TIP3    H232871   7.036   6.393   7.269  2.1482  1.1574  1.3650
 3746TIP3   OH232872   0.487   0.262   1.065 -0.2857 -0.2451 -0.5548
 3746TIP3    H132873   0.473   0.333   1.003 -0.2972  1.6655  1.5098
 3746TIP3    H232874   0.424   0.195   1.039  1.1185 -0.4685 -3.8132
 3747TIP3   OH232875   2.955   0.155   0.714 -0.0335  0.4454 -0.1378
 3747TIP3    H132876   2.927   0.117   0.797 -0.1093  0.1317 -0.3074
 3747TIP3    H232877   3.041   0.193   0.733  1.1021 -1.7729 -0.5033
 3748TIP3   OH232878   6.638   0.653   1.731  0.6677  0.5019 -0.1435
 3748TIP3    H132879   6.574   0.596   1.688  0.5261  0.1699  0.4905
 3748TIP3    H232880   6.630   0.631   1.824  1.2752  0.8944  0.0032
 3749TIP3   OH232881   3.471   2.964   6.443  0.0978  0.1336 -0.0729
 3749TIP3    H132882   3.469   3.048   6.397 -1.3514  0.3656  0.3557
 3749TIP3    H232883   3.442   2.984   6.532 -0.2011 -0.8088  0.0602
 3750TIP3   OH232884   5.610   2.160   0.005 -0.0652 -0.0283  0.8630
 3750TIP3    H132885   5.575   2.230  -0.050 -2.7369 -1.5535  0.4433
 3750TIP3    H232886   5.687   2.199   0.047 -1.3619  3.1360  0.6131
 3751TIP3   OH232887   2.968   1.922   1.464  0.0106 -1.0050  0.4150
 3751TIP3    H132888   2.991   1.922   1.557 -1.0332  1.1309  0.7519
 3751TIP3    H232889   3.045   1.958   1.419 -0.2829  0.1263  0.7712
 3752TIP3   OH232890   5.914   1.966   8.423  0.2062 -0.3676 -0.0831
 3752TIP3    H132891   5.966   1.892   8.456  0.7035 -0.2940 -0.6843
 3752TIP3    H232892   5.836   1.927   8.386 -1.0997 -0.3649  2.4757
 3753TIP3   OH232893   4.369   6.358   7.259 -0.6893 -0.4777  0.0177
 3753TIP3    H132894   4.299   6.337   7.320  0.3713 -0.1131  1.4026
 3753TIP3    H232895   4.447   6.316   7.296  0.0061 -0.1204 -1.0066
 3754TIP3   OH232896   3.555   1.343   0.713 -0.3646  0.4503  0.1796
 3754TIP3    H132897   3.589   1.388   0.790 -0.8770  1.1847 -0.0113
 3754TIP3    H232898   3.468   1.312   0.740  0.1904 -0.9049  0.4799
 3755TIP3   OH232899   1.415   0.602   8.381  0.0617  0.2943  0.3278
 3755TIP3    H132900   1.332   0.650   8.380 -0.0649  0.1542 -2.0281
 3755TIP3    H232901   1.392   0.515   8.346  1.4171  0.8067 -2.0737
 3756TIP3   OH232902   2.146   4.029   6.932 -0.0109 -0.2823  0.0085
 3756TIP3    H132903   2.169   4.039   6.840 -2.3080  0.4764 -0.5534
 3756TIP3    H232904   2.229   4.009   6.976  1.1536 -0.5693 -2.1854
 3757TIP3   OH232905   2.424   0.442   1.276  0.5860  0.2508  0.8827
 3757TIP3    H132906   2.454   0.442   1.185  0.4625 -0.5577  0.8337
 3757TIP3    H232907   2.455   0.526   1.311  2.4079 -0.2981  0.6838
 3758TIP3   OH232908   1.743   1.975   7.304  0.0867 -0.1713  0.0242
 3758TIP3    H132909   1.779   2.063   7.312  0.3932 -0.3994  1.4017
 3758TIP3    H232910   1.820   1.918   7.296 -0.0433 -0.4568  0.7649
 3759TIP3   OH232911   2.910   0.890   7.700  0.1010 -0.0015 -0.3670
 3759TIP3    H132912   2.892   0.811   7.751 -1.2973  0.7542  0.3721
 3759TIP3    H232913   2.871   0.961   7.752  0.9041  1.1216 -1.2475
 3760TIP3   OH232914   2.055   2.396   2.229  0.0692 -0.0510 -0.5761
 3760TIP3    H132915   1.960   2.387   2.236  0.0096  1.4252  1.6909
 3760TIP3    H232916   2.089   2.334   2.293  0.7203 -1.2217 -2.0136
 3761TIP3   OH232917   2.191   3.269   0.695 -0.1754  0.4173  0.3178
 3761TIP3    H132918   2.176   3.213   0.770  0.5241  1.4329  1.2573
 3761TIP3    H232919   2.264   3.228   0.648 -1.0711 -0.5975 -0.2296
 3762TIP3   OH232920   0.509   4.590   1.882 -0.2208 -0.1099  0.0183
 3762TIP3    H132921   0.544   4.527   1.820 -1.0817 -2.0823  1.4458
 3762TIP3    H232922   0.569   4.665   1.877  0.9832 -1.1233 -1.5291
 3763TIP3   OH232923   3.656   6.529   0.235  0.1383  0.2947  0.2725
 3763TIP3    H132924   3.699   6.574   0.308 -1.1969  0.2015  1.1295
 3763TIP3    H232925   3.653   6.595   0.165  1.4551  0.3680  0.2638
 3764TIP3   OH232926   2.210   2.433   1.990 -0.6372 -0.4848 -0.0439
 3764TIP3    H132927   2.160   2.422   2.071  1.4004 -0.4937  1.2875
 3764TIP3    H232928   2.302   2.421   2.016  0.2253  1.0607 -2.0483
 3765TIP3   OH232929   1.064   1.955   2.087  0.0706  0.3498  0.0421
 3765TIP3    H132930   1.057   1.868   2.047  0.6011  0.2820  0.0806
 3765TIP3    H232931   1.014   2.012   2.029 -0.9331 -0.1089  0.4405
 3766TIP3   OH232932   6.092   4.337   7.973 -0.0866  0.5117 -0.0006
 3766TIP3    H132933   6.099   4.287   7.892 -0.9115  2.4893 -1.3759
 3766TIP3    H232934   6.171   4.316   8.022  1.5743  0.9801 -2.3484
 3767TIP3   OH232935   5.696   0.251   1.090  0.1192 -0.0973 -0.2283
 3767TIP3    H132936   5.626   0.295   1.043  0.8305 -0.2965 -1.5129
 3767TIP3    H232937   5.773   0.261   1.034  1.0860 -0.0311  1.0667
 3768TIP3   OH232938   4.931   3.488   7.702 -0.1325  0.0502  0.1383
 3768TIP3    H132939   4.976   3.511   7.621 -0.0708 -0.6086 -0.0186
 3768TIP3    H232940   5.000   3.463   7.763 -0.2777 -0.9288 -0.0917
 3769TIP3   OH232941   0.972   5.824   0.668  0.3226 -0.2019  0.0194
 3769TIP3    H132942   1.014   5.758   0.613  0.0149  0.2165 -0.7366
 3769TIP3    H232943   0.952   5.779   0.749 -0.2161 -1.1457 -0.6210
 3770TIP3   OH232944   4.135   5.996   0.864  0.2224 -0.0140 -0.0023
 3770TIP3    H132945   4.105   6.061   0.800 -1.4779  0.4656  1.2222
 3770TIP3    H232946   4.111   5.912   0.827  1.5119  0.0776 -1.1250
 3771TIP3   OH232947   1.958   1.184   7.526  0.4896  0.2306  0.2151
 3771TIP3    H132948   1.911   1.243   7.466 -0.9953 -1.0970  0.0027
 3771TIP3    H232949   2.005   1.124   7.468  1.5876  0.8475  0.4332
 3772TIP3   OH232950   1.020   0.129   2.146 -0.1133  1.0770 -0.0936
 3772TIP3    H132951   1.034   0.052   2.091 -0.5744 -0.7327  2.2118
 3772TIP3    H232952   0.955   0.102   2.210 -0.7959  3.6246  0.3980
 3773TIP3   OH232953   6.264   4.445   2.354 -0.7140  0.4883 -0.1099
 3773TIP3    H132954   6.288   4.536   2.336  1.4635 -0.3849 -2.0240
 3773TIP3    H232955   6.319   4.393   2.296 -2.9521 -2.0345 -0.1824
 3774TIP3   OH232956   0.801   3.137   0.830  0.3541  0.6515  0.1720
 3774TIP3    H132957   0.862   3.207   0.807  1.0718 -0.4088 -1.3717
 3774TIP3    H232958   0.838   3.097   0.908  2.2670 -0.5961 -1.2821
 3775TIP3   OH232959   6.877   5.444   7.424 -0.7149 -0.0081  0.2315
 3775TIP3    H132960   6.931   5.432   7.503 -0.5248 -2.2599 -0.1803
 3775TIP3    H232961   6.791   5.411   7.449 -1.0375  0.5960 -0.0818
 3776TIP3   OH232962   3.198   2.627   7.485 -0.2525 -1.3711 -0.8957
 3776TIP3    H132963   3.245   2.594   7.562  0.2181  0.6502 -0.2481
 3776TIP3    H232964   3.267   2.657   7.426 -0.6689 -0.4487 -0.9237
 3777TIP3   OH232965   1.773   3.048   0.933 -0.1468 -0.6511  0.0333
 3777TIP3    H132966   1.767   3.120   0.996  0.5312 -1.3156  0.8970
 3777TIP3    H232967   1.859   3.059   0.892 -0.8961  0.2253 -1.3771
 3778TIP3   OH232968   1.398   0.913   0.065 -0.3660  0.2121 -0.0035
 3778TIP3    H132969   1.487   0.936   0.039 -0.1928  0.1227  0.5160
 3778TIP3    H232970   1.348   0.917  -0.017  0.2233 -0.2889 -0.3986
 3779TIP3   OH232971   5.949   5.156   7.171  0.3589 -0.7915 -0.1203
 3779TIP3    H132972   5.916   5.071   7.201  0.5193 -0.8843 -0.2064
 3779TIP3    H232973   6.043   5.142   7.160  0.4720 -0.4624  0.3711
 3780TIP3   OH232974   3.724   4.943   6.378 -0.0336  0.1939  0.2945
 3780TIP3    H132975   3.807   4.895   6.384  0.4843  0.8411 -1.2446
 3780TIP3    H232976   3.658   4.876   6.364  0.4000 -0.2302  0.2504
 3781TIP3   OH232977   3.479   6.690   0.538 -0.2106 -0.5010  0.5169
 3781TIP3    H132978   3.479   6.601   0.502 -0.6657 -0.4084  0.2790
 3781TIP3    H232979   3.400   6.730   0.502 -0.0011  0.0051  0.6125
 3782TIP3   OH232980   4.853   4.856   8.268  0.0061 -0.3284  0.1735
 3782TIP3    H132981   4.852   4.933   8.325  2.5745 -0.5051  0.5427
 3782TIP3    H232982   4.835   4.891   8.181 -0.5919  0.4160  0.5801
 3783TIP3   OH232983   2.509   1.815   1.648  0.1327  0.9148 -0.0339
 3783TIP3    H132984   2.562   1.818   1.568  0.5310  2.6843  0.2464
 3783TIP3    H232985   2.422   1.844   1.620 -0.3785 -0.6928 -0.2308
 3784TIP3   OH232986   4.950   6.506   0.670  0.4917 -0.1422 -0.3522
 3784TIP3    H132987   5.012   6.522   0.741  1.9021 -0.7342 -1.3912
 3784TIP3    H232988   4.953   6.586   0.618 -1.5595  0.8354  0.9298
 3785TIP3   OH232989   2.060   6.773   0.510 -0.4859 -0.2515 -0.7537
 3785TIP3    H132990   2.086   6.685   0.484 -0.6604 -0.3316 -0.6540
 3785TIP3    H232991   1.964   6.772   0.508 -0.4809  0.2248 -1.7182
 3786TIP3   OH232992   3.385   1.734   0.098 -0.1879 -0.0749  0.2569
 3786TIP3    H132993   3.429   1.681   0.164 -1.4562 -2.5522 -0.7488
 3786TIP3    H232994   3.452   1.752   0.033  0.6219  0.8892  1.3165
 3787TIP3   OH232995   4.250   2.810   1.791  0.1354 -0.0763  0.1752
 3787TIP3    H132996   4.196   2.730   1.789 -1.2258  0.8331 -1.4384
 3787TIP3    H232997   4.286   2.817   1.703 -0.2043  1.3749  0.1352
 3788TIP3   OH232998   0.469   4.393   7.740  0.1540 -0.1107 -0.0455
 3788TIP3    H132999   0.464   4.470   7.683  0.0003 -2.1132 -2.9373
 3788TIP3    H233000   0.548   4.407   7.791  1.0512  1.2210 -1.6880
 3789TIP3   OH233001   5.171   3.640   7.002 -0.1391  0.2549 -0.1477
 3789TIP3    H133002   5.245   3.634   6.942  0.7979 -0.7464  1.0435
 3789TIP3    H233003   5.188   3.720   7.052  0.0458  0.1440 -0.0274
 3790TIP3   OH233004   4.070   3.103   2.146 -0.2151  0.0590  0.1003
 3790TIP3    H133005   4.129   3.039   2.106 -0.6399  0.0792 -0.5838
 3790TIP3    H233006   4.090   3.099   2.239 -1.6846 -2.6269  0.4055
 3791TIP3   OH233007   4.264   1.987   0.071 -0.8645  0.7833 -0.0694
 3791TIP3    H133008   4.270   2.072   0.116 -0.4299  0.0882  1.2265
 3791TIP3    H233009   4.266   1.922   0.141  3.7206 -0.5799 -1.1188
 3792TIP3   OH233010   0.394   5.883   1.870  0.2132  0.2079 -0.0138
 3792TIP3    H133011   0.379   5.961   1.924  0.2217  0.6363 -0.6146
 3792TIP3    H233012   0.473   5.843   1.906  1.5600  1.7432 -1.1039
 3793TIP3   OH233013   6.136   0.714   8.423  0.1272  0.2493  0.6849
 3793TIP3    H133014   6.047   0.680   8.418  1.1150 -2.6775  0.9020
 3793TIP3    H233015   6.163   0.726   8.332 -0.4724  1.2377  0.6214
 3794TIP3   OH233016   3.803   4.577   0.780  0.0609  0.4240 -0.1794
 3794TIP3    H133017   3.791   4.494   0.734  0.3464  0.4084 -0.2309
 3794TIP3    H233018   3.716   4.601   0.810 -0.0854  0.2931 -0.4897
 3795TIP3   OH233019   4.818   0.464   6.846  0.0182  0.0450  0.2191
 3795TIP3    H133020   4.791   0.389   6.793  0.1568  0.9317 -1.1502
 3795TIP3    H233021   4.847   0.529   6.782  2.5678  0.2613  1.4749
 3796TIP3   OH233022   1.818   1.856   1.835 -0.7931 -0.3735  0.1187
 3796TIP3    H133023   1.814   1.934   1.779  1.0661 -0.9585 -0.9266
 3796TIP3    H233024   1.828   1.891   1.924  2.4853  0.7433 -0.5231
 3797TIP3   OH233025   6.144   3.937   0.251 -0.0940 -0.0348 -0.4266
 3797TIP3    H133026   6.130   4.030   0.232 -0.7494 -0.1153 -0.3453
 3797TIP3    H233027   6.074   3.892   0.204 -0.2583 -0.4218  0.1765
 3798TIP3   OH233028   4.720   3.267   1.234  0.0140 -0.3305  0.6578
 3798TIP3    H133029   4.739   3.285   1.326 -2.3683  1.5533  0.9031
 3798TIP3    H233030   4.630   3.298   1.223 -0.0021 -1.1672 -2.1487
 3799TIP3   OH233031   0.457   3.512   8.014 -0.3362  0.3089  0.1926
 3799TIP3    H133032   0.517   3.496   7.941 -1.0018 -2.0102  0.0831
 3799TIP3    H233033   0.370   3.515   7.973 -0.6324 -0.0767  0.7777
 3800TIP3   OH233034   1.497   3.153   1.072  0.2114 -0.3256 -0.7987
 3800TIP3    H133035   1.578   3.101   1.077  0.4252 -0.2824 -2.8162
 3800TIP3    H233036   1.444   3.109   1.005 -1.4113 -0.2712  0.3955
 3801TIP3   OH233037   4.618   6.677   0.435  0.3180  0.2624  0.3746
 3801TIP3    H133038   4.634   6.691   0.342 -0.0528 -0.6014  0.1709
 3801TIP3    H233039   4.662   6.751   0.478  0.6290  0.5849 -0.4663
 3802TIP3   OH233040   4.331   0.288   1.061 -0.2139 -0.4472 -0.1285
 3802TIP3    H133041   4.352   0.298   1.153 -0.8711  0.8489 -0.1023
 3802TIP3    H233042   4.274   0.362   1.040  1.8959  0.7203 -2.1965
 3803TIP3   OH233043   5.816   1.756   1.435  0.3854 -0.3945  0.6522
 3803TIP3    H133044   5.856   1.705   1.364 -0.8757 -2.7197  1.4837
 3803TIP3    H233045   5.863   1.730   1.513  1.5595  1.9222  0.8026
 3804TIP3   OH233046   6.633   6.201   0.397 -0.0279 -0.7028 -0.1227
 3804TIP3    H133047   6.564   6.200   0.330  0.1344 -1.4980 -0.2854
 3804TIP3    H233048   6.600   6.142   0.465  0.3918 -0.9193 -0.1051
 3805TIP3   OH233049   3.694   4.751   7.032  0.0930  0.1590  0.2540
 3805TIP3    H133050   3.702   4.845   7.052  0.1737 -0.2445  2.3000
 3805TIP3    H233051   3.745   4.707   7.101 -0.8422 -1.4383 -0.0326
 3806TIP3   OH233052   1.210   1.348   1.390 -0.6574 -0.4593  0.1902
 3806TIP3    H133053   1.213   1.413   1.460 -2.8477 -2.3043  2.2022
 3806TIP3    H233054   1.249   1.269   1.429  1.6753 -0.5364 -2.0693
 3807TIP3   OH233055   3.939   1.372   7.696  0.1307  0.4038  0.1564
 3807TIP3    H133056   3.995   1.430   7.748 -0.2671  1.0944 -0.1721
 3807TIP3    H233057   3.995   1.342   7.624 -0.6924  3.5478 -1.9817
 3808TIP3   OH233058   5.284   5.997   7.181  0.4234 -0.2671  0.7028
 3808TIP3    H133059   5.294   5.907   7.151  0.8415 -0.5697  1.7180
 3808TIP3    H233060   5.369   6.038   7.165  0.5105 -0.3062  1.0562
 3809TIP3   OH233061   6.169   3.247   7.782 -0.2019 -0.3358 -0.4580
 3809TIP3    H133062   6.079   3.232   7.812  0.4937 -3.5199  0.5012
 3809TIP3    H233063   6.189   3.169   7.729  1.8070  0.5863 -1.1432
 3810TIP3   OH233064   0.224   6.423   7.737  0.9181  1.2002  0.0694
 3810TIP3    H133065   0.222   6.342   7.789 -1.1103 -0.8725 -2.8633
 3810TIP3    H233066   0.274   6.399   7.659 -1.7578  1.8596 -1.9988
 3811TIP3   OH233067   3.421   3.222   0.154 -0.3498 -0.4106 -0.3297
 3811TIP3    H133068   3.516   3.215   0.170 -0.3642  1.0211  0.5610
 3811TIP3    H233069   3.388   3.135   0.172  0.9629 -1.3319 -2.0245
 3812TIP3   OH233070   4.150   0.567   0.417 -0.7598 -0.1865 -0.0379
 3812TIP3    H133071   4.073   0.559   0.360  0.0813  0.0844 -1.2422
 3812TIP3    H233072   4.150   0.659   0.444 -1.0445 -0.2676  0.2508
 3813TIP3   OH233073   0.987   3.134   6.544  0.2624 -0.4678  0.3806
 3813TIP3    H133074   0.953   3.076   6.476  1.4078 -2.3695  1.3633
 3813TIP3    H233075   1.073   3.161   6.512  0.4985 -0.7806  0.7546
 3814TIP3   OH233076   0.780   0.830   6.822  0.1514  0.4965 -0.2892
 3814TIP3    H133077   0.859   0.851   6.771  0.6592 -0.3474  0.1180
 3814TIP3    H233078   0.708   0.838   6.759  0.6435  0.5785 -0.8532
 3815TIP3   OH233079   5.564   6.040   6.840  0.1030 -0.3810  0.9765
 3815TIP3    H133080   5.534   5.970   6.898  1.8304 -0.2676  2.0846
 3815TIP3    H233081   5.634   6.000   6.789 -0.8628 -0.2482 -0.5250
 3816TIP3   OH233082   3.295   4.198   2.382  0.2921  0.1955  0.8004
 3816TIP3    H133083   3.284   4.287   2.349  1.1155 -0.1410 -0.4439
 3816TIP3    H233084   3.357   4.158   2.321 -1.1434 -1.6708  0.4765
 3817TIP3   OH233085   2.936   5.457   0.714  0.2435 -0.3966  0.3014
 3817TIP3    H133086   3.011   5.404   0.741  0.6799  0.3294  0.5409
 3817TIP3    H233087   2.875   5.394   0.676  1.2418 -0.9239 -0.4994
 3818TIP3   OH233088   4.046   6.605   0.356 -0.0815 -0.2765 -0.3522
 3818TIP3    H133089   4.093   6.689   0.364  0.3281 -0.6314  1.4426
 3818TIP3    H233090   3.957   6.625   0.384 -0.6168  0.0126 -2.1078
 3819TIP3   OH233091   3.655   3.975   7.841  0.3392 -0.2420  0.6581
 3819TIP3    H133092   3.606   3.895   7.859  0.9958 -0.6133  0.8466
 3819TIP3    H233093   3.678   3.969   7.748 -0.1705  0.0514  0.5074
 3820TIP3   OH233094   5.205   2.565   7.296  0.4789  0.0399  0.0707
 3820TIP3    H133095   5.282   2.561   7.353  1.8323 -0.2970 -1.6870
 3820TIP3    H233096   5.131   2.554   7.356  1.8208 -0.6780  1.7099
 3821TIP3   OH233097   5.133   4.743   0.489  0.4177 -0.2664 -0.2382
 3821TIP3    H133098   5.158   4.810   0.552  0.9298  0.0862 -0.8022
 3821TIP3    H233099   5.204   4.742   0.425 -0.0752 -0.6360 -0.7933
 3822TIP3   OH233100   0.020   3.102   0.978  0.2141  0.3398 -0.4679
 3822TIP3    H133101  -0.005   3.153   0.900 -0.2565  0.2102 -0.4036
 3822TIP3    H233102  -0.007   3.156   1.052  1.1225  0.6911 -0.3876
 3823TIP3   OH233103   3.120   6.492   1.207  0.1500  0.0830 -0.3005
 3823TIP3    H133104   3.046   6.548   1.234  1.4880  1.8404 -0.0558
 3823TIP3    H233105   3.127   6.427   1.277  0.0454  1.1331  0.7328
 3824TIP3   OH233106   4.216   5.082   0.752 -0.3869  0.2910  0.1296
 3824TIP3    H133107   4.287   5.022   0.726 -0.3281  0.6773 -0.6337
 3824TIP3    H233108   4.250   5.126   0.830 -0.3988 -0.5968  0.6570
 3825TIP3   OH233109   1.701   4.886   2.320 -0.0958 -0.1729  1.1342
 3825TIP3    H133110   1.743   4.804   2.347 -0.7236 -0.1764  2.1575
 3825TIP3    H233111   1.753   4.916   2.246  0.7247 -1.0050  1.3474
 3826TIP3   OH233112   6.628   5.439   0.013 -0.4222  0.0594 -0.9105
 3826TIP3    H133113   6.548   5.457  -0.037 -1.2416  0.6537  0.5334
 3826TIP3    H233114   6.597   5.389   0.089  0.5547  0.4033 -0.2719
 3827TIP3   OH233115   2.951   6.354   1.909  1.2494 -0.2034  0.3383
 3827TIP3    H133116   2.916   6.311   1.987 -1.2873 -0.5137 -0.8717
 3827TIP3    H233117   2.974   6.442   1.938 -3.0780  0.9634  0.8369
 3828TIP3   OH233118   0.277   2.458   0.903  0.2086 -0.0245 -0.3819
 3828TIP3    H133119   0.255   2.395   0.835 -2.0289 -0.9061  1.0631
 3828TIP3    H233120   0.247   2.418   0.985  1.3330  1.6792  0.9511
 3829TIP3   OH233121   3.169   4.309   0.798  0.1024  0.0788  0.0849
 3829TIP3    H133122   3.257   4.302   0.762  0.1288 -2.0068  0.4589
 3829TIP3    H233123   3.111   4.308   0.721  0.2895 -1.5990 -0.0648
 3830TIP3   OH233124   5.683   0.119   0.133 -0.6453 -0.6571 -0.0535
 3830TIP3    H133125   5.627   0.186   0.171 -1.0851 -0.9829 -0.1195
 3830TIP3    H233126   5.772   0.148   0.152 -0.7589  0.8125 -1.5118
 3831TIP3   OH233127   6.211   3.498   2.662  0.3115 -0.8199 -0.6556
 3831TIP3    H133128   6.184   3.430   2.600  1.8804 -1.1868 -0.9874
 3831TIP3    H233129   6.281   3.457   2.713  0.3229  0.0993  0.0969
 3832TIP3   OH233130   2.621   3.510   0.774  0.1366 -0.1668  0.3922
 3832TIP3    H133131   2.576   3.516   0.858  1.3771 -2.0709  1.2577
 3832TIP3    H233132   2.589   3.586   0.725 -0.7977  0.8917  2.4792
 3833TIP3   OH233133   4.074   6.588   1.851  0.3164  0.0533 -0.1470
 3833TIP3    H133134   4.128   6.644   1.795 -0.0894  1.4972  0.8538
 3833TIP3    H233135   4.083   6.625   1.939  0.6517 -1.9531  0.7133
 3834TIP3   OH233136   2.494   4.467   8.039 -0.4009  0.0774  0.7871
 3834TIP3    H133137   2.456   4.431   7.959  0.0321 -0.5089  0.8426
 3834TIP3    H233138   2.425   4.524   8.075 -0.4163  0.7296 -0.2521
 3835TIP3   OH233139   1.548   6.176   0.766 -0.3091 -0.2853 -0.3160
 3835TIP3    H133140   1.629   6.127   0.784 -0.7636 -1.0069 -0.1882
 3835TIP3    H233141   1.496   6.166   0.845 -0.2627  0.7277 -0.1481
 3836TIP3   OH233142   0.553   4.942   6.528  0.0074  0.4077  0.5486
 3836TIP3    H133143   0.480   4.998   6.553  0.4524  0.2799  2.2931
 3836TIP3    H233144   0.524   4.853   6.547  0.7215  0.3836  1.6240
 3837TIP3   OH233145   2.295   6.108   8.124 -0.2336  0.0455  0.7642
 3837TIP3    H133146   2.381   6.073   8.147  0.2041  1.2023  0.9620
 3837TIP3    H233147   2.280   6.076   8.035  1.7184  2.1056 -0.4356
 3838TIP3   OH233148   0.389   1.561   6.769 -0.6671  0.6521  0.0803
 3838TIP3    H133149   0.374   1.560   6.863 -0.1480  1.7725  0.1954
 3838TIP3    H233150   0.366   1.650   6.742 -0.1410  0.5596 -0.7292
 3839TIP3   OH233151   6.469   5.092   2.341  0.5294  0.1259  0.1359
 3839TIP3    H133152   6.452   5.130   2.254 -0.6521 -0.0899  0.2652
 3839TIP3    H233153   6.524   5.016   2.323 -1.4896 -1.2089 -0.6808
 3840TIP3   OH233154   6.450   6.640   7.790  0.2188 -0.1513  0.3126
 3840TIP3    H133155   6.544   6.641   7.771  0.0093  2.7459 -1.0033
 3840TIP3    H233156   6.444   6.673   7.880  0.4773 -2.3442  1.2233
 3841TIP3   OH233157   5.557   3.898   0.833 -0.0326 -0.4236  0.0645
 3841TIP3    H133158   5.622   3.967   0.841 -0.3308 -0.0559 -0.6227
 3841TIP3    H233159   5.473   3.942   0.845 -0.1439 -1.0294  1.8097
 3842TIP3   OH233160   4.404   2.254   7.662 -0.3363  0.0883  0.2429
 3842TIP3    H133161   4.431   2.208   7.582 -0.8687 -1.3546  0.8466
 3842TIP3    H233162   4.311   2.233   7.670 -0.7158  1.6728  0.3277
 3843TIP3   OH233163   6.858   0.549   1.131  0.6765  0.4799  0.7299
 3843TIP3    H133164   6.866   0.643   1.144 -1.0997  0.5906  1.2918
 3843TIP3    H233165   6.896   0.510   1.209 -1.2073  0.8625  1.9022
 3844TIP3   OH233166   1.277   0.883   7.092  0.6573  0.1956 -0.2722
 3844TIP3    H133167   1.223   0.962   7.099  1.9303  1.1972 -1.1890
 3844TIP3    H233168   1.217   0.817   7.058 -0.6401  0.5172  1.3088
 3845TIP3   OH233169   0.311   4.648   6.981  0.0636 -0.1501 -0.3483
 3845TIP3    H133170   0.291   4.556   7.000 -0.5289 -0.2283 -1.3015
 3845TIP3    H233171   0.234   4.696   7.013 -0.1289 -0.1003 -0.8903
 3846TIP3   OH233172   3.683   5.225   7.165  0.1578  0.0267 -0.0089
 3846TIP3    H133173   3.589   5.223   7.147  0.2249  0.9772 -0.5161
 3846TIP3    H233174   3.690   5.199   7.257 -0.6553  0.5588  0.2094
 3847TIP3   OH233175   1.313   1.139   1.537 -0.5336 -0.4050  0.4637
 3847TIP3    H133176   1.382   1.073   1.531  0.4754  0.7330 -1.1299
 3847TIP3    H233177   1.351   1.208   1.592 -1.2462 -0.7134  1.3706
 3848TIP3   OH233178   4.191   3.499   7.960  0.3027 -0.2202  0.1641
 3848TIP3    H133179   4.274   3.451   7.957 -0.3510 -1.5505  1.7540
 3848TIP3    H233180   4.128   3.440   7.918 -0.6313 -1.0869  2.6393
 3849TIP3   OH233181   5.864   4.539   0.289  0.1316 -0.0649  0.6534
 3849TIP3    H133182   5.878   4.630   0.262 -0.1474 -0.2851 -0.2762
 3849TIP3    H233183   5.866   4.542   0.384  0.1322  0.9160  0.6369
 3850TIP3   OH233184   5.049   5.635   8.199  0.7522  0.0699  0.0294
 3850TIP3    H133185   4.963   5.594   8.209  0.9917 -0.3364  0.4471
 3850TIP3    H233186   5.045   5.713   8.255  0.9866 -0.4767  0.8235
 3851TIP3   OH233187   4.431   6.430   7.001 -0.6222  0.0627  0.1655
 3851TIP3    H133188   4.459   6.512   7.043  0.9187 -0.3325 -0.0180
 3851TIP3    H233189   4.410   6.372   7.074  2.0936 -0.6420  0.5049
 3852TIP3   OH233190   1.565   1.343   0.094 -1.0244 -0.0568 -0.4993
 3852TIP3    H133191   1.600   1.414   0.039  0.4941  0.4382  1.0274
 3852TIP3    H233192   1.471   1.342   0.075 -0.7802  1.1282 -1.9220
 3853TIP3   OH233193   3.401   6.728   7.701 -0.2683  0.2707 -0.1734
 3853TIP3    H133194   3.366   6.802   7.651 -0.1938  0.2208 -0.2980
 3853TIP3    H233195   3.397   6.757   7.792 -0.5742  0.2929 -0.1901
 3854TIP3   OH233196   3.877   4.000   0.045  0.6356  0.1960  1.0665
 3854TIP3    H133197   3.894   3.910   0.018  0.5157 -0.0034  1.6300
 3854TIP3    H233198   3.956   4.048   0.021  0.5961 -0.0058  0.5282
 3855TIP3   OH233199   5.188   5.174   0.979  0.3220 -0.3228  1.0272
 3855TIP3    H133200   5.241   5.243   1.020  0.1386  1.2888 -1.2206
 3855TIP3    H233201   5.251   5.119   0.933  0.2582  1.8107 -1.9609
 3856TIP3   OH233202   1.048   1.299   0.208  0.8000 -0.6991 -0.7851
 3856TIP3    H133203   1.112   1.258   0.150  1.6838 -2.7616  1.5017
 3856TIP3    H233204   1.087   1.292   0.295 -1.0506  1.1138  0.2618
 3857TIP3   OH233205   5.713   0.396   0.635  0.1986 -0.1139  0.2405
 3857TIP3    H133206   5.676   0.485   0.637  0.6651  0.1302 -0.9440
 3857TIP3    H233207   5.647   0.341   0.676 -0.1163  0.7685  0.9626
 3858TIP3   OH233208   4.285   4.100   6.601  0.8721 -0.5427  0.0524
 3858TIP3    H133209   4.327   4.020   6.634  0.4795 -0.2160  1.3927
 3858TIP3    H233210   4.311   4.104   6.509  2.2982 -1.2947  0.3992
 3859TIP3   OH233211   1.177   2.175   1.014  0.6378 -0.0748  0.1413
 3859TIP3    H133212   1.084   2.176   1.037 -0.6111 -0.5110 -3.9846
 3859TIP3    H233213   1.206   2.265   1.030 -1.3484  0.8615 -1.0528
 3860TIP3   OH233214   3.441   6.182   8.038 -0.0056  0.2800 -0.0052
 3860TIP3    H133215   3.499   6.257   8.019  0.4702 -0.0587  0.0783
 3860TIP3    H233216   3.374   6.218   8.095  0.2785  0.6251  0.1205
 3861TIP3   OH233217   1.996   4.251   6.694  0.2180  0.2690 -0.0483
 3861TIP3    H133218   2.059   4.182   6.673 -1.1440 -0.6824 -1.2618
 3861TIP3    H233219   1.988   4.301   6.613 -1.3644 -0.3113 -0.2880
 3862TIP3   OH233220   5.793   0.363   7.492  0.3465 -0.5724 -0.4675
 3862TIP3    H133221   5.888   0.371   7.479  0.2192  1.6103 -0.4333
 3862TIP3    H233222   5.755   0.381   7.406 -0.0387 -1.0052 -0.3871
 3863TIP3   OH233223   4.989   3.138   7.618  0.1978  0.5719 -0.0352
 3863TIP3    H133224   5.017   3.193   7.545 -2.9707 -0.0265 -1.8861
 3863TIP3    H233225   4.981   3.050   7.581 -0.3628  0.0054  1.3429
 3864TIP3   OH233226   5.250   6.260   1.292 -0.0812 -0.1082  0.0288
 3864TIP3    H133227   5.178   6.199   1.303  0.5500 -0.8295  0.2979
 3864TIP3    H233228   5.319   6.227   1.351  0.4669  0.5503 -0.2243
 3865TIP3   OH233229   6.920   0.081   6.120 -0.1773 -0.2219 -0.2847
 3865TIP3    H133230   6.940   0.139   6.047  0.2211  1.3305  0.9873
 3865TIP3    H233231   7.005   0.051   6.152 -0.2519  0.2304  0.3742
 3866TIP3   OH233232   0.901   3.909   6.095  0.2656  0.0791 -0.3091
 3866TIP3    H133233   0.819   3.865   6.118  0.0243  0.7344  0.1132
 3866TIP3    H233234   0.886   3.941   6.006 -0.2233  0.8431  0.0385
 3867TIP3   OH233235   3.660   1.707   7.049  0.3375  0.0201 -0.7810
 3867TIP3    H133236   3.678   1.799   7.032 -1.0720  0.1266 -1.8791
 3867TIP3    H233237   3.573   1.706   7.089  0.5534 -0.8000 -0.3119
 3868TIP3   OH233238   0.843   5.972   0.057 -0.4807 -0.4262  0.2847
 3868TIP3    H133239   0.918   5.912   0.059  1.1253  1.4976  1.3832
 3868TIP3    H233240   0.856   6.030   0.132 -2.0181  1.2053 -0.6187
 3869TIP3   OH233241   5.829   0.511   2.275 -0.0496 -0.4004 -0.0004
 3869TIP3    H133242   5.906   0.485   2.223  0.0018 -0.4366  0.0929
 3869TIP3    H233243   5.758   0.456   2.241 -0.2619  0.3191 -0.7539
 3870TIP3   OH233244   5.414   5.297   7.588  0.7919  0.0035  0.4645
 3870TIP3    H133245   5.389   5.319   7.678  1.4607  2.8854  0.0680
 3870TIP3    H233246   5.337   5.318   7.536  0.9978  0.0798  0.1896
 3871TIP3   OH233247   5.703   4.901   7.817 -0.4952  0.0071  0.4413
 3871TIP3    H133248   5.630   4.841   7.828 -2.5585  2.1174 -0.7111
 3871TIP3    H233249   5.662   4.987   7.809  1.9909  1.1516 -1.7153
 3872TIP3   OH233250   6.079   3.796   1.699  0.5390 -0.3582  0.1579
 3872TIP3    H133251   6.111   3.877   1.739 -0.2483  0.1353 -0.1706
 3872TIP3    H233252   6.140   3.779   1.628  0.3672  0.3082 -0.1636
 3873TIP3   OH233253   0.314   5.442   7.294 -0.7963 -0.1630 -0.3114
 3873TIP3    H133254   0.369   5.434   7.217 -0.5260 -0.5260 -0.0850
 3873TIP3    H233255   0.339   5.368   7.349  0.3598  1.1065  0.9729
 3874TIP3   OH233256   0.689   6.153   1.114  0.1131  0.1162 -0.6848
 3874TIP3    H133257   0.760   6.123   1.058  0.6082 -1.4406  0.6930
 3874TIP3    H233258   0.732   6.174   1.197 -0.9553 -0.4300  0.0300
 3875TIP3   OH233259   2.445   3.716   0.634  0.3502 -0.7669 -0.7440
 3875TIP3    H133260   2.398   3.799   0.642  2.1839  0.4353 -1.7858
 3875TIP3    H233261   2.387   3.652   0.674 -1.9402  0.7010 -1.5400
 3876TIP3   OH233262   0.520   3.135   0.990 -0.5175  0.2349 -0.0613
 3876TIP3    H133263   0.455   3.068   1.010 -0.5061 -0.2929 -1.6838
 3876TIP3    H233264   0.604   3.092   1.005 -0.4704  0.9917  2.2790
 3877TIP3   OH233265   0.438   4.539   1.363 -0.3139 -0.3321  0.0159
 3877TIP3    H133266   0.453   4.456   1.409 -0.0823 -0.4460 -0.2640
 3877TIP3    H233267   0.398   4.596   1.429 -0.0143 -0.5052  0.3485
 3878TIP3   OH233268   1.284   5.873   6.487  0.0165  0.1449 -0.6521
 3878TIP3    H133269   1.204   5.821   6.496 -1.0648  1.9544  1.0639
 3878TIP3    H233270   1.271   5.947   6.547  3.5238 -0.1352  0.6795
 3879TIP3   OH233271   4.647   5.169   1.270 -0.1698 -0.2236 -0.0404
 3879TIP3    H133272   4.614   5.091   1.315 -1.0372  0.7602  1.0725
 3879TIP3    H233273   4.587   5.182   1.197  0.1022 -0.7187 -0.3544
 3880TIP3   OH233274   0.062   3.638   1.330 -0.1701 -0.7043  0.0387
 3880TIP3    H133275   0.038   3.678   1.247 -0.4185  0.9497  0.8590
 3880TIP3    H233276   0.158   3.638   1.330 -0.1479 -1.9039 -0.7612
 3881TIP3   OH233277   1.036   4.156   1.087  0.0406 -0.2029 -0.3785
 3881TIP3    H133278   0.947   4.127   1.109  0.0401  0.8110  1.0335
 3881TIP3    H233279   1.069   4.197   1.166  1.2023  0.8426 -1.3604
 3882TIP3   OH233280   3.566   4.780   7.514  0.3197  0.5444  0.2635
 3882TIP3    H133281   3.552   4.814   7.602  2.1257  1.0395  0.4005
 3882TIP3    H233282   3.654   4.741   7.516  0.7899  1.3713 -1.5308
 3883TIP3   OH233283   1.804   6.662   0.389  0.3876  0.0693  0.3171
 3883TIP3    H133284   1.737   6.691   0.451  0.6997 -0.5297  0.9401
 3883TIP3    H233285   1.773   6.696   0.304 -0.3911  0.3148  0.6857
 3884TIP3   OH233286   5.014   1.207   1.523  0.1858 -0.5461 -0.9755
 3884TIP3    H133287   5.084   1.255   1.568  0.0545  0.2791 -1.6130
 3884TIP3    H233288   5.001   1.128   1.575  0.6801 -0.0701 -0.1070
 3885TIP3   OH233289   5.900   0.873   1.253  0.2594  0.2559  0.4997
 3885TIP3    H133290   5.855   0.805   1.202  0.4793  1.2085 -1.0127
 3885TIP3    H233291   5.972   0.902   1.197  0.3207  1.5688  1.2160
 3886TIP3   OH233292   4.605   6.401   0.482  0.0329 -0.7824 -0.3561
 3886TIP3    H133293   4.651   6.374   0.562  1.2161  0.3261 -0.6267
 3886TIP3    H233294   4.606   6.496   0.485 -2.3062 -0.7192 -0.3893
 3887TIP3   OH233295   1.342   4.556   5.865 -0.6812  0.2295  0.8699
 3887TIP3    H133296   1.339   4.467   5.901 -0.9626  0.7161  2.1160
 3887TIP3    H233297   1.434   4.582   5.874 -0.5236 -0.0603  0.1579
 3888TIP3   OH233298   4.525   2.159   7.894  0.0617  0.0202 -0.0644
 3888TIP3    H133299   4.485   2.072   7.890 -1.0391  0.3898  1.6259
 3888TIP3    H233300   4.500   2.201   7.812 -0.2019 -0.9441 -0.4842
 3889TIP3   OH233301   0.505   2.419   1.553  0.1747  0.4359 -0.2831
 3889TIP3    H133302   0.522   2.443   1.644  0.3132 -1.1168  0.1270
 3889TIP3    H233303   0.565   2.346   1.535 -0.3592  0.2395 -1.3776
 3890TIP3   OH233304   0.060   3.139   1.928 -0.4199 -0.4254 -0.5820
 3890TIP3    H133305   0.063   3.233   1.947  0.2483 -0.2504 -1.4850
 3890TIP3    H233306   0.022   3.100   2.007 -1.1705  0.6494 -0.3805
 3891TIP3   OH233307   6.271   2.213   0.921 -0.2029  0.0561  0.1911
 3891TIP3    H133308   6.351   2.252   0.886 -0.0328 -1.1548 -0.8615
 3891TIP3    H233309   6.276   2.121   0.894 -1.6622 -0.1794  0.6393
 3892TIP3   OH233310   2.615   6.217   8.018 -0.2955 -0.0047 -0.1166
 3892TIP3    H133311   2.643   6.298   7.975  0.6447  0.0468  0.5653
 3892TIP3    H233312   2.638   6.229   8.110  0.4179 -1.2793 -0.1088
 3893TIP3   OH233313   5.443   2.605   7.506  0.1336  0.0280 -0.2680
 3893TIP3    H133314   5.429   2.566   7.592 -3.7377  1.0884 -0.2115
 3893TIP3    H233315   5.511   2.671   7.520  1.3170 -1.4547  1.3604
 3894TIP3   OH233316   1.758   6.563   0.729 -0.1788 -0.9571  0.3564
 3894TIP3    H133317   1.853   6.569   0.735 -0.1978  3.0727 -0.5383
 3894TIP3    H233318   1.742   6.507   0.653  1.4962 -0.7565 -0.1817
 3895TIP3   OH233319   5.043   1.409   6.934  0.1274  0.2495  0.1551
 3895TIP3    H133320   4.998   1.354   6.999 -0.8270 -0.4393 -1.0446
 3895TIP3    H233321   5.057   1.492   6.979 -2.7561  0.6427  0.4847
 3896TIP3   OH233322   4.131   4.354   7.143 -0.4783  0.2194 -0.0324
 3896TIP3    H133323   4.124   4.427   7.204 -0.2800  0.4093 -0.2341
 3896TIP3    H233324   4.058   4.296   7.166 -0.1365  0.0598  0.6838
 3897TIP3   OH233325   2.986   4.278   7.871  0.0479  0.0586 -0.0538
 3897TIP3    H133326   3.056   4.240   7.923 -1.3078 -0.1094  1.7319
 3897TIP3    H233327   2.921   4.208   7.863  0.2602  0.0189 -2.1662
 3898TIP3   OH233328   6.828   4.326   7.204 -0.4779 -0.0729 -0.0253
 3898TIP3    H133329   6.849   4.395   7.141 -0.1160  1.0443  1.2624
 3898TIP3    H233330   6.880   4.348   7.281 -1.5415 -0.9160  0.9691
 3899TIP3   OH233331   3.585   5.824   1.778  0.3334  0.3736  0.4357
 3899TIP3    H133332   3.626   5.898   1.822 -0.9332  1.0760  0.4596
 3899TIP3    H233333   3.555   5.859   1.694  1.4921 -0.6155 -0.4405
 3900TIP3   OH233334   4.645   4.138   6.690 -0.1498 -0.0909  0.4675
 3900TIP3    H133335   4.690   4.060   6.723 -1.1929 -1.1747 -0.5669
 3900TIP3    H233336   4.651   4.130   6.595  0.9734  1.8640  0.3324
 3901TIP3   OH233337   3.886   4.451   8.159  0.0261  0.2689  0.3418
 3901TIP3    H133338   3.829   4.509   8.108 -1.0257 -0.4671  0.6473
 3901TIP3    H233339   3.959   4.431   8.100 -1.1602 -0.5688 -0.9198
 3902TIP3   OH233340   3.680   3.020   1.666  0.1141 -0.1427  0.8046
 3902TIP3    H133341   3.679   3.052   1.576 -1.7489 -1.1323  0.4309
 3902TIP3    H233342   3.699   3.097   1.719  1.9403  0.3238 -0.4384
 3903TIP3   OH233343   3.301   1.637   8.167 -0.3467 -0.5035  0.1303
 3903TIP3    H133344   3.320   1.651   8.075  0.1588  1.6129  0.5123
 3903TIP3    H233345   3.380   1.594   8.202  0.1537  0.2214 -0.0925
 3904TIP3   OH233346   0.653   6.582   0.962  0.2369 -0.4482 -0.2634
 3904TIP3    H133347   0.627   6.671   0.986 -1.6423 -0.8973 -0.4764
 3904TIP3    H233348   0.600   6.561   0.885  0.8818 -1.6422 -0.4141
 3905TIP3   OH233349   3.945   2.750   8.091  0.0471  0.1594  0.0851
 3905TIP3    H133350   3.991   2.760   8.174 -0.2350 -0.4748  0.3277
 3905TIP3    H233351   3.876   2.816   8.093  0.7985  0.9636 -0.1856
 3906TIP3   OH233352   5.222   1.004   0.330 -0.1361  0.3333 -0.4116
 3906TIP3    H133353   5.265   1.014   0.244  1.2539 -2.4065 -0.1622
 3906TIP3    H233354   5.207   1.094   0.360  2.4646  1.4349 -2.0248
 3907TIP3   OH233355   4.773   1.472   1.197 -0.0274  0.5162 -0.0766
 3907TIP3    H133356   4.794   1.395   1.250  0.0916  0.3596 -0.3537
 3907TIP3    H233357   4.745   1.538   1.261 -0.9761 -0.0368  0.0920
 3908TIP3   OH233358   1.236   0.707   0.203 -0.3210  0.1008  0.2837
 3908TIP3    H133359   1.144   0.715   0.179 -1.2272  0.5934  3.3897
 3908TIP3    H233360   1.280   0.777   0.155 -1.7003  0.3582 -0.6521
 3909TIP3   OH233361   4.214   5.427   1.538 -0.0486 -0.4873  0.7637
 3909TIP3    H133362   4.126   5.418   1.575 -0.3987  1.3678  0.4761
 3909TIP3    H233363   4.240   5.517   1.559  1.0348 -0.4048 -0.7507
 3910TIP3   OH233364   5.060   0.407   1.908 -0.4740 -0.1186 -0.2451
 3910TIP3    H133365   5.048   0.342   1.839  0.5890 -1.1609  0.5188
 3910TIP3    H233366   5.149   0.393   1.939 -1.1125 -0.0710  1.7238
 3911TIP3   OH233367   5.823   6.590   6.606 -0.4924 -0.0141 -0.1071
 3911TIP3    H133368   5.874   6.671   6.601  1.7518 -1.1925  1.6339
 3911TIP3    H233369   5.751   6.603   6.545  0.7541  2.5835 -1.1800
 3912TIP3   OH233370   2.588   6.600   0.303  0.3487  0.0136  0.0165
 3912TIP3    H133371   2.595   6.683   0.350  0.6098 -1.1324  2.1464
 3912TIP3    H233372   2.647   6.540   0.350 -1.2056 -1.8669 -0.2747
 3913TIP3   OH233373   6.369   4.614   6.039 -0.0162  0.4843 -0.2570
 3913TIP3    H133374   6.414   4.550   6.096 -0.6224 -0.0086 -0.3238
 3913TIP3    H233375   6.329   4.676   6.100  1.1217  1.2076 -0.2012
 3914TIP3   OH233376   0.165   6.691   1.557 -0.0973 -0.3061 -0.3461
 3914TIP3    H133377   0.142   6.605   1.522  0.0213 -0.5069  0.0697
 3914TIP3    H233378   0.081   6.735   1.570 -0.1270  0.0960 -1.6735
 3915TIP3   OH233379   3.144   4.284   8.196  0.2239  0.1463  0.2084
 3915TIP3    H133380   3.063   4.234   8.186  0.6805 -0.8769  1.3668
 3915TIP3    H233381   3.189   4.243   8.270  2.7090 -0.5802 -1.5527
 3916TIP3   OH233382   2.573   3.320   7.351 -0.2883  0.4340 -0.2444
 3916TIP3    H133383   2.607   3.289   7.435 -0.0073  1.5873  0.0866
 3916TIP3    H233384   2.517   3.248   7.320  1.7942 -1.2150 -0.4471
 3917TIP3   OH233385   6.527   5.349   0.706 -0.4582 -0.0501 -0.2901
 3917TIP3    H133386   6.511   5.388   0.620 -2.3298 -1.8972 -0.8607
 3917TIP3    H233387   6.476   5.401   0.767  0.0744  0.6517 -0.4308
 3918TIP3   OH233388   3.165   6.547   0.658 -0.0185 -0.4333  0.1575
 3918TIP3    H133389   3.145   6.538   0.565 -0.4593 -1.2300  0.3169
 3918TIP3    H233390   3.191   6.458   0.685  2.9392  0.3310  0.1562
 3919TIP3   OH233391   2.192   0.858   7.842  0.0067 -0.5387 -0.6411
 3919TIP3    H133392   2.116   0.829   7.793  0.3808 -1.3391 -0.7589
 3919TIP3    H233393   2.264   0.805   7.809  0.6100  0.1576 -0.4853
 3920TIP3   OH233394   6.857   0.816   1.132 -1.2793 -0.0681 -0.1545
 3920TIP3    H133395   6.808   0.891   1.166 -0.3878  0.4831 -0.0468
 3920TIP3    H233396   6.902   0.851   1.054 -1.8489 -0.8254 -0.8386
 3921TIP3   OH233397   2.975   3.623   6.948  0.1636 -0.5167 -0.2360
 3921TIP3    H133398   2.895   3.589   6.908  0.7947 -1.3031 -0.8613
 3921TIP3    H233399   3.019   3.546   6.982  0.3890 -0.0223  0.6320
 3922TIP3   OH233400   4.415   3.365   0.299 -0.4692 -0.2754  0.6829
 3922TIP3    H133401   4.378   3.449   0.273  0.5311  0.5111  1.6880
 3922TIP3    H233402   4.510   3.378   0.294 -0.2835 -1.7117 -0.2464
 3923TIP3   OH233403   6.572   0.266   1.812 -0.0229 -0.0203 -0.2389
 3923TIP3    H133404   6.479   0.274   1.789 -1.1450 -1.3606  3.1478
 3923TIP3    H233405   6.582   0.173   1.835  1.0714  0.7997  3.1291
 3924TIP3   OH233406   2.979   2.105   6.931  0.4135 -0.0493  0.0256
 3924TIP3    H133407   3.026   2.173   6.980 -0.6606  1.1310 -0.5114
 3924TIP3    H233408   3.011   2.114   6.841 -1.2650  1.2468 -0.4978
 3925TIP3   OH233409   1.795   6.102   7.090  0.0694 -0.2679 -0.0310
 3925TIP3    H133410   1.855   6.175   7.076  0.3690 -0.6882 -1.0047
 3925TIP3    H233411   1.735   6.106   7.016 -0.5682 -0.3850  0.4693
 3926TIP3   OH233412   5.189   1.506   0.566 -0.0460 -0.1141  0.1329
 3926TIP3    H133413   5.179   1.520   0.472 -0.3388  1.2771  0.3485
 3926TIP3    H233414   5.245   1.579   0.595  2.4804 -2.1081  0.5967
 3927TIP3   OH233415   2.607   1.217   8.278  0.3256 -0.4985  0.6832
 3927TIP3    H133416   2.606   1.128   8.314  0.6796 -0.5815  0.4933
 3927TIP3    H233417   2.639   1.206   8.189 -3.9076 -0.7591 -1.0311
 3928TIP3   OH233418   1.976   4.342   6.147  0.5614 -0.1686  0.0066
 3928TIP3    H133419   1.887   4.339   6.182  0.3557 -0.5016 -0.5387
 3928TIP3    H233420   2.022   4.404   6.204 -0.5222  1.5042 -0.8556
 3929TIP3   OH233421   5.233   2.665   1.664 -0.1929  0.0263 -0.3823
 3929TIP3    H133422   5.203   2.626   1.582 -2.7853  1.2602 -0.1332
 3929TIP3    H233423   5.172   2.738   1.679  1.4781  1.1228  1.6002
 3930TIP3   OH233424   3.159   0.929   8.046 -0.0421  0.1793 -0.4534
 3930TIP3    H133425   3.080   0.981   8.062  0.8018  1.2862  0.2642
 3930TIP3    H233426   3.151   0.855   8.106  0.3181  1.2570  0.9883
 3931TIP3   OH233427   6.764   4.443   1.587 -0.2279  0.9092 -0.2441
 3931TIP3    H133428   6.680   4.442   1.542 -0.1127  1.3710 -0.4773
 3931TIP3    H233429   6.747   4.484   1.672 -0.6435 -0.8388  0.5573
 3932TIP3   OH233430   1.166   5.270   7.811  0.0582 -0.0625  0.1302
 3932TIP3    H133431   1.191   5.242   7.899  0.0617 -0.6383 -0.0529
 3932TIP3    H233432   1.241   5.250   7.756  0.6609  1.6766  0.2412
 3933TIP3   OH233433   5.283   5.863   7.515  0.4846  0.0276  0.4361
 3933TIP3    H133434   5.283   5.899   7.604  1.5412 -0.6351  0.7294
 3933TIP3    H233435   5.349   5.793   7.518 -0.9500 -1.4139 -0.2993
 3934TIP3   OH233436   3.012   6.529   0.389  0.3318  0.3575  0.0755
 3934TIP3    H133437   2.956   6.597   0.350  1.7855  1.4742 -0.1347
 3934TIP3    H233438   2.950   6.462   0.420 -1.0558  1.0775 -1.0252
 3935TIP3   OH233439   4.569   0.195   6.525  0.3259 -0.1933  0.5161
 3935TIP3    H133440   4.552   0.123   6.464 -1.7413  1.2578 -0.7574
 3935TIP3    H233441   4.523   0.270   6.487  0.9896  1.4032  2.6541
 3936TIP3   OH233442   0.855   1.083   0.353 -0.0990  0.0424 -0.2246
 3936TIP3    H133443   0.773   1.048   0.317 -0.3905 -0.4343  0.8635
 3936TIP3    H233444   0.840   1.177   0.360 -1.3630 -0.2369  1.8325
 3937TIP3   OH233445   4.777   5.972   7.419  0.2590 -0.4065  0.5643
 3937TIP3    H133446   4.683   5.985   7.436 -0.3689 -0.8932 -2.0762
 3937TIP3    H233447   4.780   5.909   7.347  2.5196  1.4655 -1.1215
 3938TIP3   OH233448   2.514   0.391   2.418  0.2430 -0.3456  0.0746
 3938TIP3    H133449   2.488   0.300   2.438  3.3541 -0.9980  1.8884
 3938TIP3    H233450   2.609   0.389   2.420  0.4159  3.1611  1.0043
 3939TIP3   OH233451   3.764   4.588   7.310 -0.1619  0.4295 -0.1892
 3939TIP3    H133452   3.792   4.599   7.401  1.9766 -0.0880 -0.7202
 3939TIP3    H233453   3.843   4.606   7.259 -1.2463  0.4439 -1.9409
 3940TIP3   OH233454   3.399   0.730   7.181  0.1183 -0.1888 -0.2810
 3940TIP3    H133455   3.478   0.695   7.141  1.4162  1.2948  0.8182
 3940TIP3    H233456   3.358   0.655   7.224  2.3593 -0.6081  1.3432
 3941TIP3   OH233457   0.935   4.325   8.309  0.3027 -0.6328 -0.2130
 3941TIP3    H133458   0.908   4.237   8.335  0.3285 -0.8470 -0.8865
 3941TIP3    H233459   0.862   4.357   8.256 -0.4496  0.4033  1.3678
 3942TIP3   OH233460   5.591   2.042   1.298  0.0055  0.0905  0.3144
 3942TIP3    H133461   5.587   2.137   1.288  0.7427  0.0509 -0.4678
 3942TIP3    H233462   5.501   2.012   1.281  0.1605  0.4941 -1.4105
 3943TIP3   OH233463   4.495   4.938   7.728  0.0609  0.4594  0.1801
 3943TIP3    H133464   4.560   5.004   7.702  0.6923  0.6746  2.1770
 3943TIP3    H233465   4.524   4.858   7.684  0.7600  0.9145 -0.2189
 3944TIP3   OH233466   0.265   1.055   0.932  0.5203  0.1386 -0.5037
 3944TIP3    H133467   0.241   1.036   1.023  1.2048  1.2282 -0.0731
 3944TIP3    H233468   0.336   1.119   0.939  1.5848 -0.8589 -1.7903
 3945TIP3   OH233469   2.275   3.678   0.277  0.9468  0.1310  0.5619
 3945TIP3    H133470   2.268   3.628   0.196 -2.2855 -0.2058  0.9476
 3945TIP3    H233471   2.339   3.629   0.330  1.2249 -1.0299 -0.7942
 3946TIP3   OH233472   5.188   3.495   7.600  0.1363 -0.4016 -0.4403
 3946TIP3    H133473   5.215   3.541   7.521 -0.4232 -0.9671 -0.9741
 3946TIP3    H233474   5.226   3.407   7.590  0.3681 -0.3683  0.0965
 3947TIP3   OH233475   2.466   5.728   7.380  0.3221 -0.0079 -0.6834
 3947TIP3    H133476   2.425   5.810   7.352  0.9686  0.2432 -0.9005
 3947TIP3    H233477   2.541   5.717   7.322 -0.7557 -1.6942 -1.8672
 3948TIP3   OH233478   0.161   2.260   7.907  0.1983  0.1175  0.0847
 3948TIP3    H133479   0.126   2.349   7.910  0.2348  0.1268  0.2830
 3948TIP3    H233480   0.144   2.225   7.995  0.9221  0.2141  0.2686
 3949TIP3   OH233481   4.550   6.576   1.121 -0.9525  0.1688  0.2630
 3949TIP3    H133482   4.638   6.575   1.084 -1.4857  0.2575 -1.0586
 3949TIP3    H233483   4.548   6.501   1.180 -0.7809 -1.5196 -1.7352
 3950TIP3   OH233484   1.194   1.436   6.711  0.1109  0.1582  0.1429
 3950TIP3    H133485   1.189   1.398   6.623  0.2513 -1.7140  0.8965
 3950TIP3    H233486   1.104   1.461   6.731  0.2035  1.3225 -0.8128
 3951TIP3   OH233487   1.115   2.774   0.327  0.0561 -0.2193 -0.1231
 3951TIP3    H133488   1.077   2.763   0.414 -0.4292 -0.9394 -0.4182
 3951TIP3    H233489   1.041   2.799   0.271  0.7744  2.8683  0.1335
 3952TIP3   OH233490   5.573   6.258   0.320 -0.2924  0.5136 -0.4036
 3952TIP3    H133491   5.504   6.280   0.383 -0.4103  0.1237 -0.3937
 3952TIP3    H233492   5.576   6.333   0.261 -0.6757  0.5672 -0.3620
 3953TIP3   OH233493   2.831   6.624   7.465  0.2013 -0.1657 -0.0077
 3953TIP3    H133494   2.739   6.606   7.446  0.1012  0.0224  0.2905
 3953TIP3    H233495   2.843   6.591   7.554 -0.0300  1.4115  0.6223
 3954TIP3   OH233496   1.072   3.655   0.785 -0.2206 -0.2184 -0.4658
 3954TIP3    H133497   1.014   3.579   0.791 -1.4548  0.6025 -1.5998
 3954TIP3    H233498   1.063   3.699   0.869 -1.1695 -0.1723 -0.5796
 3955TIP3   OH233499   6.453   3.581   7.347 -0.1307  0.1080 -0.5138
 3955TIP3    H133500   6.452   3.488   7.372  0.2796  0.4233  0.7406
 3955TIP3    H233501   6.426   3.581   7.255 -1.8347 -1.0969 -0.0652
 3956TIP3   OH233502   1.448   0.536   0.632 -0.1157  0.5863  0.0896
 3956TIP3    H133503   1.359   0.502   0.625  0.5418 -0.8409 -3.0785
 3956TIP3    H233504   1.484   0.496   0.711 -1.6796 -0.3245  0.3634
 3957TIP3   OH233505   5.556   6.965   1.002 -0.0816 -0.2177 -0.1840
 3957TIP3    H133506   5.609   7.044   0.988 -0.1716  0.3526  2.2329
 3957TIP3    H233507   5.469   6.989   0.972 -0.1395  0.6920  0.6498
 3958TIP3   OH233508   5.510   0.498   1.302 -0.0360  0.5043 -0.4806
 3958TIP3    H133509   5.485   0.451   1.222  2.1338  2.3487 -2.3363
 3958TIP3    H233510   5.429   0.540   1.331 -1.4147 -2.0778 -0.2580
 3959TIP3   OH233511   1.281   3.888   6.717 -0.4505 -0.1719 -0.3340
 3959TIP3    H133512   1.305   3.980   6.703  0.8021 -0.1933  1.2343
 3959TIP3    H233513   1.264   3.853   6.630 -1.9065  1.7772 -0.8829
 3960TIP3   OH233514   3.336   3.669   7.966  0.2974  0.0698 -0.0071
 3960TIP3    H133515   3.393   3.639   7.895 -0.1982 -0.3524 -0.2264
 3960TIP3    H233516   3.307   3.756   7.938 -0.3603 -0.3342 -0.5949
 3961TIP3   OH233517   4.230   5.451   1.185 -0.2778 -0.0983 -0.2300
 3961TIP3    H133518   4.235   5.477   1.277 -1.2825  2.1318 -0.7287
 3961TIP3    H233519   4.290   5.377   1.177  0.4377  0.1692  2.0334
 3962TIP3   OH233520   3.438   0.363   6.687 -0.1594  0.7472 -0.1355
 3962TIP3    H133521   3.437   0.277   6.644 -2.0931  0.7959 -0.3043
 3962TIP3    H233522   3.495   0.417   6.632 -0.0400 -0.0575 -0.8220
 3963TIP3   OH233523   1.755   0.635   0.505  0.0126 -0.4002  0.0820
 3963TIP3    H133524   1.730   0.629   0.597  1.3747  0.5848  0.5271
 3963TIP3    H233525   1.673   0.657   0.460  0.0081  3.1536  1.5514
 3964TIP3   OH233526   2.894   0.085   8.014 -0.2720 -0.1331  0.4690
 3964TIP3    H133527   2.943   0.143   8.072 -0.2060  0.1584  0.1233
 3964TIP3    H233528   2.803   0.096   8.040 -0.2543  0.0855  0.4399
 3965TIP3   OH233529   5.136   6.784   0.672  0.5701  0.2162 -0.8629
 3965TIP3    H133530   5.204   6.737   0.624  0.0713  0.0051 -1.3739
 3965TIP3    H233531   5.136   6.745   0.759  0.3972 -0.4999 -1.1805
 3966TIP3   OH233532   3.165   5.004   7.515  0.3499  0.3855  0.4042
 3966TIP3    H133533   3.142   5.096   7.532  0.8649  0.4668  0.7106
 3966TIP3    H233534   3.240   4.988   7.573  0.0859 -0.3142  0.5564
 3967TIP3   OH233535   5.744   4.767   1.584  0.7094  0.5516  0.0256
 3967TIP3    H133536   5.809   4.743   1.518  2.5436  0.3605  1.7924
 3967TIP3    H233537   5.747   4.695   1.647 -1.7488  0.2108 -0.1572
 3968TIP3   OH233538   2.947   3.906   0.971 -0.4896 -0.3890 -0.0844
 3968TIP3    H133539   2.926   3.891   0.879 -0.0148  1.7870 -0.5946
 3968TIP3    H233540   2.944   4.001   0.982 -0.7048 -0.5894  2.2064
 3969TIP3   OH233541   2.390   2.619   8.439 -0.1459 -0.5265 -0.5057
 3969TIP3    H133542   2.432   2.555   8.496 -0.9534  0.9502  1.9067
 3969TIP3    H233543   2.325   2.662   8.495 -0.6372  1.3899 -2.4094
 3970TIP3   OH233544   0.551   2.443   0.560 -0.1965 -0.2204  0.1687
 3970TIP3    H133545   0.545   2.383   0.486 -0.8134  0.2544 -0.1757
 3970TIP3    H233546   0.528   2.528   0.524  1.4384  0.3937  0.4738
 3971TIP3   OH233547   1.724   3.155   6.649  0.3950  0.5476 -0.3623
 3971TIP3    H133548   1.660   3.111   6.593 -0.1498  0.2409  0.4866
 3971TIP3    H233549   1.713   3.248   6.630  0.6665  0.4089 -1.2323
 3972TIP3   OH233550   6.937   6.043   7.038  0.5644 -0.0348 -0.1483
 3972TIP3    H133551   6.990   5.977   6.993  3.2882  0.8535  1.5431
 3972TIP3    H233552   6.894   5.994   7.108  1.6780 -0.2434  0.4066
 3973TIP3   OH233553   6.428   0.252   0.656 -0.0771  0.1036  0.4809
 3973TIP3    H133554   6.506   0.298   0.626 -0.4703  1.8040  1.9019
 3973TIP3    H233555   6.462   0.184   0.715  0.3312  1.3729  1.7566
 3974TIP3   OH233556   1.161   6.368   0.550  0.5202  0.4043 -0.2126
 3974TIP3    H133557   1.115   6.438   0.503  0.0321 -1.1317 -2.1932
 3974TIP3    H233558   1.096   6.332   0.610  0.7026  1.4718  0.6407
 3975TIP3   OH233559   1.442   2.474   8.054 -0.0931 -0.0469 -0.2094
 3975TIP3    H133560   1.523   2.466   8.003 -1.0747  0.7517 -1.9975
 3975TIP3    H233561   1.381   2.413   8.013 -0.3511 -0.8868  1.3287
 3976TIP3   OH233562   4.113   2.514   0.964 -0.3154 -0.4387  0.1543
 3976TIP3    H133563   4.088   2.551   1.048 -0.1457 -0.3520  0.1674
 3976TIP3    H233564   4.209   2.525   0.960 -0.4566  0.8216 -0.6349
 3977TIP3   OH233565   0.379   3.650   2.018  0.3995 -0.2357 -0.1379
 3977TIP3    H133566   0.328   3.674   1.941  1.1900  1.1305 -0.2731
 3977TIP3    H233567   0.319   3.665   2.091 -0.1486 -0.9182 -0.4420
 3978TIP3   OH233568   6.751   4.140   7.980 -1.2311 -0.0237  0.1551
 3978TIP3    H133569   6.811   4.190   8.035 -2.6889  1.0911  0.8084
 3978TIP3    H233570   6.700   4.087   8.042  0.2786 -2.4506 -0.5126
 3979TIP3   OH233571   1.075   3.678   7.688 -0.0476  0.0996 -0.1693
 3979TIP3    H133572   1.093   3.637   7.604 -1.3729 -0.7718 -0.0458
 3979TIP3    H233573   1.071   3.772   7.668  2.8643  0.2414 -0.4701
 3980TIP3   OH233574   0.265   4.527   0.494  0.0004  0.0011 -0.3133
 3980TIP3    H133575   0.217   4.553   0.415 -0.6542 -1.5231 -0.4472
 3980TIP3    H233576   0.357   4.533   0.468 -0.0734  2.4454 -0.2138
 3981TIP3   OH233577   6.935   0.148   7.681  0.4262 -0.1352  0.2288
 3981TIP3    H133578   6.903   0.090   7.612 -0.4940  0.5025  0.1069
 3981TIP3    H233579   7.030   0.148   7.670  0.5258 -2.1318  0.6436
 3982TIP3   OH233580   6.406   4.312   0.982 -0.4365 -0.0925 -0.3271
 3982TIP3    H133581   6.470   4.372   0.945  0.7393 -0.2494  1.3356
 3982TIP3    H233582   6.435   4.225   0.955 -0.7759 -0.0784 -0.7495
 3983TIP3   OH233583   2.583   0.679   1.024  0.1062 -0.2923 -0.3495
 3983TIP3    H133584   2.580   0.761   0.975 -0.5235  0.3921  0.7868
 3983TIP3    H233585   2.557   0.703   1.113 -1.0482 -1.9019 -0.2066
 3984TIP3   OH233586   6.513   5.906   0.352  0.1243  0.1003  0.2301
 3984TIP3    H133587   6.516   5.817   0.319 -0.8524  0.1125  0.0689
 3984TIP3    H233588   6.433   5.943   0.314 -0.2716  0.5681  1.4531
 3985TIP3   OH233589   5.794   1.401   7.192 -0.0243  0.0742  0.0869
 3985TIP3    H133590   5.879   1.432   7.160  1.0487  0.4737  2.9944
 3985TIP3    H233591   5.759   1.476   7.240 -1.2066 -0.6661  0.4010
 3986TIP3   OH233592   6.869   1.840   8.008  0.4058  0.2445  0.2557
 3986TIP3    H133593   6.867   1.845   8.103  0.0060  0.1088  0.2592
 3986TIP3    H233594   6.885   1.930   7.979 -0.7393  0.5231  0.4309
 3987TIP3   OH233595   4.398   0.423   1.349  0.3806 -0.6255 -0.4406
 3987TIP3    H133596   4.424   0.402   1.439 -0.1914  0.3751 -0.0229
 3987TIP3    H233597   4.315   0.469   1.358  0.5504 -0.0856 -1.4442
 3988TIP3   OH233598   4.132   0.101   2.187  0.0040 -0.3715  0.0307
 3988TIP3    H133599   4.166   0.114   2.099 -1.0832 -0.0817 -0.3694
 3988TIP3    H233600   4.164   0.176   2.237  1.4430 -1.0383  0.1641
 3989TIP3   OH233601   0.393   6.974   1.879  0.7049  0.5976 -0.6382
 3989TIP3    H133602   0.339   6.903   1.915 -1.2871  1.1701 -2.2649
 3989TIP3    H233603   0.442   7.008   1.954 -0.9689 -0.2115  0.8984
 3990TIP3   OH233604   3.914   6.426   1.460 -0.5600 -0.8920  0.3346
 3990TIP3    H133605   3.852   6.364   1.498  0.7443 -1.9053  0.8956
 3990TIP3    H233606   4.000   6.392   1.484  0.2572 -0.0236 -1.1666
 3991TIP3   OH233607   4.301   4.794   1.513 -0.3364 -0.1609  0.3294
 3991TIP3    H133608   4.392   4.813   1.488 -0.1278 -2.1316 -0.5939
 3991TIP3    H233609   4.274   4.724   1.454 -2.0414 -0.4950  1.4363
 3992TIP3   OH233610   5.897   3.314   7.362 -0.4748  0.0374  0.0279
 3992TIP3    H133611   5.954   3.240   7.384 -1.4778 -0.1653  2.1928
 3992TIP3    H233612   5.849   3.285   7.285  1.0172 -0.4823 -0.7531
 3993TIP3   OH233613   5.845   3.842   7.494  0.7194 -0.1191  0.0141
 3993TIP3    H133614   5.938   3.824   7.506  1.1829  2.4490  0.8886
 3993TIP3    H233615   5.801   3.764   7.528  2.5114 -0.7942  0.9098
 3994TIP3   OH233616   0.119   0.301   8.238  0.8043  0.1062 -0.2056
 3994TIP3    H133617   0.178   0.266   8.306 -0.8716 -1.7637  0.3898
 3994TIP3    H233618   0.102   0.391   8.266  1.9081  0.0971  0.6059
 3995TIP3   OH233619   6.952   4.251   1.103  0.3304  0.1650 -0.0811
 3995TIP3    H133620   7.018   4.264   1.171  1.0140  1.8640 -1.0227
 3995TIP3    H233621   6.933   4.157   1.107  1.9041 -0.1579  1.0218
 3996TIP3   OH233622   1.611   5.003   1.540  0.5052  0.2101  0.7089
 3996TIP3    H133623   1.686   4.946   1.522  0.5323  0.7956 -1.4251
 3996TIP3    H233624   1.570   4.967   1.618  3.4480  0.3186  2.4411
 3997TIP3   OH233625   3.103   6.704   8.338 -0.8417  0.3497  0.2422
 3997TIP3    H133626   3.173   6.724   8.401 -1.3232 -0.9481  1.2417
 3997TIP3    H233627   3.041   6.776   8.348 -0.8694  0.2125  1.2147
 3998TIP3   OH233628   1.618   0.772   7.892 -0.3991 -0.4167  0.0387
 3998TIP3    H133629   1.666   0.826   7.829 -0.1335 -0.5927  0.0876
 3998TIP3    H233630   1.551   0.729   7.839 -1.9244  1.4763  0.3323
 3999TIP3   OH233631   4.077   1.289   7.384 -0.8924  0.2494 -0.1257
 3999TIP3    H133632   4.023   1.360   7.351 -0.5805  0.8190  0.5547
 3999TIP3    H233633   4.164   1.328   7.395 -0.2745 -0.7014 -1.4034
 4000TIP3   OH233634   2.340   6.908   2.262 -0.3442 -0.7962 -0.3788
 4000TIP3    H133635   2.359   6.911   2.168 -1.1438  2.4661 -0.5741
 4000TIP3    H233636   2.261   6.961   2.271  1.1147  1.1376  2.3806
 4001TIP3   OH233637   1.136   3.458   8.430 -0.3124  0.1139 -0.3453
 4001TIP3    H133638   1.227   3.478   8.451 -0.1663 -0.3181 -0.5554
 4001TIP3    H233639   1.140   3.408   8.349 -0.9257  2.4039 -1.8903
 4002TIP3   OH233640   6.940   3.829   6.708 -0.1197 -0.1343 -0.6910
 4002TIP3    H133641   7.032   3.803   6.699 -0.0372  0.0601 -0.4335
 4002TIP3    H233642   6.940   3.923   6.690  0.0094  0.2207  0.9949
 4003TIP3   OH233643   5.355   5.782   0.089 -0.2497  0.2970  0.3917
 4003TIP3    H133644   5.293   5.781   0.162 -0.3733  0.1968  0.2851
 4003TIP3    H233645   5.420   5.848   0.114  0.1415 -0.2876  0.9592
 4004TIP3   OH233646   2.627   3.142   6.429  0.4540 -0.6109  0.0848
 4004TIP3    H133647   2.685   3.088   6.376 -1.2000 -0.4858 -1.9624
 4004TIP3    H233648   2.543   3.096   6.427 -0.4324  0.9394  0.0595
 4005TIP3   OH233649   0.606   2.338   0.297  0.0679  0.1339 -0.0865
 4005TIP3    H133650   0.568   2.253   0.321  1.1379  0.5444  3.7452
 4005TIP3    H233651   0.692   2.316   0.260  0.4844 -0.5015  1.1876
 4006TIP3   OH233652   3.898   1.066   1.840 -0.1780  0.6255 -0.3858
 4006TIP3    H133653   3.972   1.044   1.897 -0.0698  2.4280  0.2375
 4006TIP3    H233654   3.903   1.002   1.769  0.7790 -0.5300  0.6763
 4007TIP3   OH233655   1.999   3.417   6.867 -0.6651 -0.2203  0.0502
 4007TIP3    H133656   2.084   3.461   6.869 -0.5259 -0.3328 -1.7663
 4007TIP3    H233657   1.940   3.481   6.828 -1.6670  0.1678  2.0486
 4008TIP3   OH233658   0.400   1.536   7.041  0.3543 -0.1246  0.3122
 4008TIP3    H133659   0.458   1.477   6.992  2.4809  1.9638  0.1571
 4008TIP3    H233660   0.427   1.525   7.132 -0.5280 -0.6835  0.5268
 4009TIP3   OH233661   6.534   5.896   8.085 -0.3856  0.1992 -0.2508
 4009TIP3    H133662   6.568   5.921   7.999 -0.6168  2.1341  0.1830
 4009TIP3    H233663   6.439   5.905   8.077 -0.6439 -2.1273 -0.5146
 4010TIP3   OH233664   1.141   2.375   1.275  0.0316 -0.0301 -0.7654
 4010TIP3    H133665   1.074   2.386   1.343 -0.0673 -0.2418 -0.8253
 4010TIP3    H233666   1.094   2.391   1.193  0.5100  1.8088 -0.7110
 4011TIP3   OH233667   1.068   5.019   7.319  0.0286  0.4359  0.0886
 4011TIP3    H133668   1.129   5.070   7.373  0.4436 -0.6867  0.7168
 4011TIP3    H233669   1.078   5.055   7.231  0.4007  1.3437  0.4898
 4012TIP3   OH233670   2.063   4.925   7.676  0.2630 -0.2993  0.3917
 4012TIP3    H133671   2.031   4.981   7.747  1.6854 -0.1892  0.9930
 4012TIP3    H233672   2.158   4.937   7.678  0.3350 -0.3674 -1.4953
 4013TIP3   OH233673   6.169   0.770   7.726 -0.5777 -0.3538  0.0809
 4013TIP3    H133674   6.152   0.785   7.633 -0.3300 -1.4661 -0.1551
 4013TIP3    H233675   6.194   0.678   7.732  3.1704  0.5429  0.7043
 4014TIP3   OH233676   3.551   0.477   7.282 -0.1083  0.3370  0.1230
 4014TIP3    H133677   3.563   0.384   7.298  1.7482  0.9151  2.9079
 4014TIP3    H233678   3.596   0.493   7.199 -0.8732 -1.2722 -0.6461
 4015TIP3   OH233679   1.383   1.496   2.086  0.0290 -0.5372  0.1493
 4015TIP3    H133680   1.410   1.405   2.099 -1.2169 -1.0600 -0.7751
 4015TIP3    H233681   1.343   1.522   2.169  1.2200 -0.5041  0.7345
 4016TIP3   OH233682   2.134   2.249   7.528 -0.0799  1.2180 -0.6109
 4016TIP3    H133683   2.203   2.305   7.563 -0.2918  1.4081 -0.4963
 4016TIP3    H233684   2.169   2.217   7.445  0.7532  0.1182  0.1346
 4017TIP3   OH233685   0.691   2.807   6.816 -0.3149  0.1841  0.2425
 4017TIP3    H133686   0.704   2.736   6.878  0.2186  1.5717  1.7750
 4017TIP3    H233687   0.614   2.854   6.849  0.7090  1.6627  0.5726
 4018TIP3   OH233688   0.240   3.745   0.677  0.1642  0.7962 -0.0462
 4018TIP3    H133689   0.230   3.819   0.617  1.4050  0.4068 -0.7702
 4018TIP3    H233690   0.283   3.783   0.754  1.0124  0.8044 -0.5110
 4019TIP3   OH233691   3.369   2.687   7.728 -0.7749  0.4206 -0.0052
 4019TIP3    H133692   3.451   2.721   7.694 -0.9399  0.6892 -0.1408
 4019TIP3    H233693   3.384   2.676   7.822 -0.3505 -0.2274 -0.1458
 4020TIP3   OH233694   3.929   1.773   6.892 -0.4463  0.3770  0.5748
 4020TIP3    H133695   3.981   1.701   6.856 -0.6076  0.2517  0.5887
 4020TIP3    H233696   3.991   1.824   6.945 -0.3801  0.1184  0.7500
 4021TIP3   OH233697   3.372   3.679   8.326 -0.4930 -0.0417  0.2686
 4021TIP3    H133698   3.423   3.619   8.380  1.1437  1.7147  0.7575
 4021TIP3    H233699   3.299   3.625   8.294 -0.5277 -1.6227  2.7063
 4022TIP3   OH233700   4.719   5.962   0.616 -0.4739  0.0832  0.0507
 4022TIP3    H133701   4.692   5.931   0.530  1.0513  0.4519 -0.5931
 4022TIP3    H233702   4.705   6.056   0.614  0.7180  0.2756 -0.2782
 4023TIP3   OH233703   5.371   6.775   0.853  0.0085 -0.5985  0.5573
 4023TIP3    H133704   5.382   6.803   0.944 -1.0948  1.5433  0.1004
 4023TIP3    H233705   5.436   6.826   0.805 -0.3624 -0.6669 -0.0213
 4024TIP3   OH233706   4.593   0.122   2.574 -0.2606 -0.3119  0.0372
 4024TIP3    H133707   4.652   0.162   2.638 -0.0498  1.8494 -1.4025
 4024TIP3    H233708   4.647   0.108   2.496 -1.0452 -0.7677 -0.4397
 4025TIP3   OH233709   3.101   0.961   7.372  0.2610 -0.1776 -0.6568
 4025TIP3    H133710   3.077   1.036   7.318 -0.1911  0.2822  0.1617
 4025TIP3    H233711   3.094   0.993   7.462 -0.6251 -1.3791 -0.2675
 4026TIP3   OH233712   5.680   1.695   8.115 -0.0411  0.3232 -0.6312
 4026TIP3    H133713   5.601   1.655   8.078  1.2257 -2.4331 -0.6164
 4026TIP3    H233714   5.658   1.710   8.207 -0.2350 -1.5187 -0.3323
 4027TIP3   OH233715   4.600   4.448   0.593  0.8467 -0.7078  0.4387
 4027TIP3    H133716   4.663   4.460   0.523  0.6328 -0.2680  0.3140
 4027TIP3    H233717   4.520   4.491   0.561  1.7643  2.9343  2.4090
 4028TIP3   OH233718   5.245   2.838   1.323  0.5681  0.6304  0.1074
 4028TIP3    H133719   5.311   2.810   1.259  0.4682  0.5420  0.0443
 4028TIP3    H233720   5.161   2.821   1.281  0.4629 -0.9272  0.8937
 4029TIP3   OH233721   3.857   0.752   0.701  0.4360  0.2666 -0.0627
 4029TIP3    H133722   3.922   0.801   0.750  0.2144 -0.0799  0.5892
 4029TIP3    H233723   3.778   0.805   0.705 -0.1404 -0.6635  1.6511
 4030TIP3   OH233724   6.022   0.411   0.477 -0.2334  0.0751  0.0761
 4030TIP3    H133725   5.928   0.428   0.473 -0.8241 -2.1936  1.8714
 4030TIP3    H233726   6.063   0.496   0.460 -2.6199  1.4578  0.7873
 4031TIP3   OH233727   0.985   6.725   0.151 -0.7194 -0.4019  0.3809
 4031TIP3    H133728   1.071   6.729   0.192 -1.3507 -1.2327  1.9006
 4031TIP3    H233729   1.001   6.743   0.059  1.0056 -0.0405  0.7149
 4032TIP3   OH233730   6.253   0.944   0.059  0.3041 -0.0824  0.6020
 4032TIP3    H133731   6.214   0.860   0.033  0.4784  0.0417 -0.0631
 4032TIP3    H233732   6.195   1.010   0.022 -0.9853  0.1315  2.8054
 4033TIP3   OH233733   1.358   2.002   2.150 -0.1671  0.6031 -0.4430
 4033TIP3    H133734   1.277   1.972   2.109 -0.5000  1.0513 -0.1100
 4033TIP3    H233735   1.335   2.017   2.242  0.3285  0.5848 -0.3139
 4034TIP3   OH233736   5.674   6.600   1.659  0.0914 -0.4824  0.3478
 4034TIP3    H133737   5.743   6.649   1.613 -1.2212 -0.0866 -1.2883
 4034TIP3    H233738   5.693   6.614   1.752 -0.1273  3.0452 -0.0206
 4035TIP3   OH233739   0.498   5.011   0.848  0.5689  0.0889 -0.3877
 4035TIP3    H133740   0.542   5.087   0.887 -0.3643  0.5555 -0.2165
 4035TIP3    H233741   0.420   5.047   0.807 -1.0754 -1.0256  1.5864
 4036TIP3   OH233742   6.121   4.151   0.603 -0.0832  0.2165 -0.0138
 4036TIP3    H133743   6.186   4.190   0.545 -1.0209 -0.0681 -1.2922
 4036TIP3    H233744   6.145   4.183   0.690  2.0776 -0.3197 -0.3514
 4037TIP3   OH233745   3.994   5.085   8.156 -0.7805  0.4576  0.1025
 4037TIP3    H133746   4.013   4.995   8.185 -1.6632 -0.1522 -1.1470
 4037TIP3    H233747   4.076   5.132   8.171  0.8080 -1.3363 -2.1989
 4038TIP3   OH233748   0.201   5.104   7.612  0.1387 -0.5229  0.1261
 4038TIP3    H133749   0.147   5.028   7.591  0.7700 -0.8035 -0.5034
 4038TIP3    H233750   0.200   5.107   7.708 -0.6489 -0.7668  0.1374
 4039TIP3   OH233751   5.246   5.552   0.715 -0.4016  0.2576  0.2136
 4039TIP3    H133752   5.224   5.604   0.793  2.2876  0.7695  0.7123
 4039TIP3    H233753   5.340   5.540   0.720 -0.3968 -1.1880 -2.1041
 4040TIP3   OH233754   0.847   4.139   2.128  0.3905 -0.0223 -0.6698
 4040TIP3    H133755   0.892   4.062   2.163 -0.3962 -0.5463 -0.7814
 4040TIP3    H233756   0.891   4.157   2.045  1.1023  0.1458 -0.2672
 4041TIP3   OH233757   6.798   1.579   1.411 -0.0956 -0.1528  0.1245
 4041TIP3    H133758   6.806   1.510   1.346  3.2684 -0.7227  0.9345
 4041TIP3    H233759   6.834   1.657   1.368 -1.2553  0.4146  0.1416
 4042TIP3   OH233760   0.350   1.352   0.675 -0.2638  0.4541  0.6543
 4042TIP3    H133761   0.289   1.278   0.673  2.1083 -1.6375 -0.2337
 4042TIP3    H233762   0.405   1.335   0.751  1.1634  0.5271 -0.3303
 4043TIP3   OH233763   3.730   0.780   1.503 -0.3731 -0.3826  0.1887
 4043TIP3    H133764   3.730   0.761   1.597 -0.8809 -0.5234  0.1626
 4043TIP3    H233765   3.658   0.842   1.491 -0.9861 -1.1732 -0.2630
 4044TIP3   OH233766   5.409   1.021   7.177 -0.6260 -0.2553 -0.2146
 4044TIP3    H133767   5.417   0.984   7.090  0.8089 -2.6281  0.8321
 4044TIP3    H233768   5.476   1.090   7.180 -0.1357 -0.7022 -0.7303
 4045TIP3   OH233769   6.957   6.262   0.018 -0.0246  0.1999  0.1168
 4045TIP3    H133770   6.878   6.314   0.027 -1.8415 -2.1073 -1.3459
 4045TIP3    H233771   7.012   6.312  -0.042 -1.3369  0.8277 -0.5976
 4046TIP3   OH233772   1.254   2.327   1.599 -0.4598  0.6839  0.0516
 4046TIP3    H133773   1.240   2.347   1.692  0.7344  1.9057 -0.0058
 4046TIP3    H233774   1.318   2.391   1.570 -1.8389  1.2550 -1.9811
 4047TIP3   OH233775   6.430   4.839   2.037  0.0416 -0.4264  0.0629
 4047TIP3    H133776   6.393   4.903   1.976  0.7036  0.6017  0.7161
 4047TIP3    H233777   6.519   4.870   2.052 -0.0352 -0.8040  1.3618
 4048TIP3   OH233778   6.891   1.686   0.470 -0.0287 -0.5208 -0.0660
 4048TIP3    H133779   6.948   1.695   0.394 -1.0245 -0.5598 -0.8513
 4048TIP3    H233780   6.813   1.641   0.436 -1.4877  1.4695  0.4100
 4049TIP3   OH233781   5.506   1.536   7.981 -0.4674  0.1958 -0.0967
 4049TIP3    H133782   5.462   1.475   8.040  3.7529  0.3506  3.7071
 4049TIP3    H233783   5.498   1.496   7.894 -2.0897 -3.1281  1.4191
 4050TIP3   OH233784   3.010   0.947   8.361 -0.4283  0.1900  0.4481
 4050TIP3    H133785   2.934   0.918   8.311 -1.3040  1.3929  1.0178
 4050TIP3    H233786   2.993   0.916   8.450  1.4984 -2.6368 -0.0615
 4051TIP3   OH233787   5.023   5.784   0.826 -0.0563 -0.0551  0.0630
 4051TIP3    H133788   4.955   5.717   0.813  0.4742 -0.6537  0.3201
 4051TIP3    H233789   4.974   5.866   0.830 -0.6204 -0.2688 -1.5486
 4052TIP3   OH233790   5.275   0.382   1.706 -0.2001 -0.4902  0.0027
 4052TIP3    H133791   5.343   0.448   1.720 -2.3743  1.3904  2.7319
 4052TIP3    H233792   5.320   0.311   1.659  3.4090  0.9055  1.0121
 4053TIP3   OH233793   4.966   6.550   6.833 -0.4361  0.2800  0.4424
 4053TIP3    H133794   5.058   6.576   6.834 -0.9292  2.2463 -0.6745
 4053TIP3    H233795   4.918   6.632   6.832 -2.1975 -0.7092  0.0554
 4054TIP3   OH233796   2.491   5.953   1.699  0.4951  0.2512 -0.0752
 4054TIP3    H133797   2.458   6.029   1.747  0.1391  0.0719 -0.0291
 4054TIP3    H233798   2.426   5.884   1.717 -0.8435  0.7691 -2.5633
 4055TIP3   OH233799   2.610   4.242   7.067  0.0180  0.4682 -0.0189
 4055TIP3    H133800   2.688   4.280   7.108  1.1512 -0.3364 -1.3390
 4055TIP3    H233801   2.630   4.242   6.973 -1.4307 -0.0956 -0.3553
 4056TIP3   OH233802   1.337   3.222   0.471  0.1072 -0.2356  0.0875
 4056TIP3    H133803   1.256   3.209   0.519 -0.1743  1.7540  0.2521
 4056TIP3    H233804   1.386   3.285   0.524  1.4273 -0.8221 -0.3996
 4057TIP3   OH233805   4.719   6.336   7.110  0.5585 -0.4605  0.1456
 4057TIP3    H133806   4.659   6.279   7.159 -0.1397  1.0444  1.1057
 4057TIP3    H233807   4.693   6.325   7.019 -0.5050 -0.6088  0.4516
 4058TIP3   OH233808   3.619   1.959   1.352  0.3754  0.7454 -0.2321
 4058TIP3    H133809   3.594   2.025   1.416 -1.0863  0.8162 -0.8262
 4058TIP3    H233810   3.538   1.940   1.305  1.4101  0.7486 -2.1181
 4059TIP3   OH233811   6.737   6.329   1.658 -0.5356  0.7512 -0.1703
 4059TIP3    H133812   6.781   6.320   1.743 -1.9515 -0.4589  0.4780
 4059TIP3    H233813   6.740   6.241   1.620 -1.7304  0.8167 -0.4328
 4060TIP3   OH233814   6.504   5.519   7.681  0.4307 -0.7489 -0.2752
 4060TIP3    H133815   6.566   5.559   7.742 -0.2158 -0.3150  0.0977
 4060TIP3    H233816   6.485   5.433   7.718 -1.5217  0.2740  1.2485
 4061TIP3   OH233817   3.837   4.313   1.680  0.0150 -0.6482  0.6025
 4061TIP3    H133818   3.918   4.364   1.683 -0.3130 -0.1294  0.6720
 4061TIP3    H233819   3.774   4.365   1.729 -0.9583 -0.0239 -1.2294
 4062TIP3   OH233820   0.416   3.969   1.242  0.6642 -0.2441  0.0005
 4062TIP3    H133821   0.424   4.055   1.283 -1.4919  0.3277 -0.6350
 4062TIP3    H233822   0.503   3.930   1.250  1.7532  2.0708  0.1115
 4063TIP3   OH233823   6.827   5.937   7.462  0.0866  0.1571 -0.4330
 4063TIP3    H133824   6.848   5.937   7.556 -0.2694  0.2027 -0.3544
 4063TIP3    H233825   6.751   5.994   7.454  0.6368  0.8455 -0.8708
 4064TIP3   OH233826   2.336   1.674   8.011  0.2798  0.2203 -0.0194
 4064TIP3    H133827   2.242   1.689   8.014  0.0788 -0.6457 -1.2480
 4064TIP3    H233828   2.364   1.719   7.931  0.7610 -0.2804 -0.1369
 4065TIP3   OH233829   2.995   5.976   7.519 -0.0090 -0.0613  0.6714
 4065TIP3    H133830   3.082   5.960   7.484 -1.2095 -0.1333 -2.6541
 4065TIP3    H233831   2.962   6.051   7.468 -2.8019 -1.6819 -0.1019
 4066TIP3   OH233832   2.828   0.279   1.694  0.1834 -0.4988  0.3592
 4066TIP3    H133833   2.827   0.226   1.614  3.5424 -1.0964  0.5516
 4066TIP3    H233834   2.810   0.368   1.664 -0.3616 -0.9626 -0.7651
 4067TIP3   OH233835   3.728   2.080   6.492  0.0930  0.4746  0.0975
 4067TIP3    H133836   3.765   2.036   6.415 -0.8459  1.3605 -0.8957
 4067TIP3    H233837   3.737   2.017   6.563 -0.9830 -1.2275 -1.2253
 4068TIP3   OH233838   2.217   3.391   8.229  0.2939 -0.6754 -0.0213
 4068TIP3    H133839   2.161   3.438   8.292  0.3663 -1.3155  0.5247
 4068TIP3    H233840   2.205   3.299   8.250  0.0518 -0.9128 -1.1870
 4069TIP3   OH233841   3.419   4.850   0.211 -0.1393  0.1123  0.7882
 4069TIP3    H133842   3.451   4.901   0.285 -0.1365 -0.6985  1.3570
 4069TIP3    H233843   3.421   4.759   0.241 -1.0638 -0.1432  0.1348
 4070TIP3   OH233844   5.938   1.928   2.190 -0.4523  0.6274  0.1685
 4070TIP3    H133845   5.876   1.955   2.122 -0.8901 -0.3871  0.1402
 4070TIP3    H233846   5.908   1.841   2.216  0.7320  0.2927  0.4568
 4071TIP3   OH233847   5.575   1.370   6.723  0.1777  0.1080 -0.0354
 4071TIP3    H133848   5.608   1.283   6.744 -0.0519  0.2775  1.0890
 4071TIP3    H233849   5.482   1.366   6.742 -0.0328  0.3143 -0.9590
 4072TIP3   OH233850   0.706   1.229   1.170  0.3774  0.4170 -0.2837
 4072TIP3    H133851   0.757   1.229   1.089 -1.4624 -0.0536 -1.5093
 4072TIP3    H233852   0.705   1.320   1.199  0.6035  0.6800 -1.0965
 4073TIP3   OH233853   0.617   2.974   6.460  0.3922  0.2159 -0.1494
 4073TIP3    H133854   0.673   2.916   6.409 -1.1383 -1.2064 -0.3012
 4073TIP3    H233855   0.528   2.947   6.438 -0.3825  2.2874  0.2021
 4074TIP3   OH233856   6.740   6.794   2.063  0.1513  0.1174  0.3617
 4074TIP3    H133857   6.726   6.718   2.119  0.3865 -1.1911 -1.2829
 4074TIP3    H233858   6.832   6.817   2.077  0.2324 -0.2560  0.4628
 4075TIP3   OH233859   3.681   5.567   1.760 -0.7094 -1.2200 -0.1196
 4075TIP3    H133860   3.731   5.513   1.821 -0.8822  0.2852  1.4349
 4075TIP3    H233861   3.675   5.652   1.802  0.6443  0.4712 -3.0028
 4076TIP3   OH233862   6.535   1.414   6.976 -0.3257 -0.0696  0.7954
 4076TIP3    H133863   6.627   1.389   6.974  0.1299  1.0696 -3.9866
 4076TIP3    H233864   6.489   1.342   6.932 -1.3149  0.5419  0.7896
 4077TIP3   OH233865   2.201   4.660   0.912 -0.3001 -0.2755 -0.2386
 4077TIP3    H133866   2.235   4.702   0.833  1.2062  1.4120  1.2121
 4077TIP3    H233867   2.206   4.566   0.893 -0.8022  0.0808 -2.4344
 4078TIP3   OH233868   1.028   0.747   1.339 -0.4790  0.5158 -0.2760
 4078TIP3    H133869   0.989   0.722   1.255 -1.4679 -0.9778  0.5666
 4078TIP3    H233870   0.969   0.709   1.405  2.6388 -2.4605  1.1035
 4079TIP3   OH233871   0.396   5.238   1.590  0.2635  0.5749 -0.2779
 4079TIP3    H133872   0.444   5.247   1.507  1.5902  1.0093  0.5122
 4079TIP3    H233873   0.304   5.238   1.564  0.6584  0.2841 -1.7926
 4080TIP3   OH233874   2.809   3.742   7.916  0.2049 -0.0338  0.4780
 4080TIP3    H133875   2.900   3.718   7.900  0.7989  1.8726  0.7731
 4080TIP3    H233876   2.758   3.675   7.870  1.7680 -0.1860 -1.1202
 4081TIP3   OH233877   3.291   1.507   7.343 -0.0394 -0.0910  0.1018
 4081TIP3    H133878   3.197   1.490   7.350 -0.5059  2.2618  0.7170
 4081TIP3    H233879   3.296   1.598   7.311  2.0471 -0.4682 -0.8274
 4082TIP3   OH233880   0.251   6.400   1.546 -0.2612 -0.5095 -0.0535
 4082TIP3    H133881   0.258   6.304   1.544 -2.0631 -0.6964  0.6859
 4082TIP3    H233882   0.214   6.419   1.632  0.0595  0.8604 -0.2052
 4083TIP3   OH233883   0.315   2.657   8.240  0.0717 -0.1033 -0.2861
 4083TIP3    H133884   0.301   2.700   8.324  0.5659 -0.7394  0.1264
 4083TIP3    H233885   0.291   2.566   8.255 -0.1081 -0.1675 -0.9155
 4084TIP3   OH233886   0.159   1.394   7.099 -0.3890 -0.1136  0.0104
 4084TIP3    H133887   0.228   1.443   7.054 -1.8099  1.1138 -0.9339
 4084TIP3    H233888   0.120   1.340   7.031 -0.2738 -0.9352  0.5802
 4085TIP3   OH233889   4.151   5.422   7.734 -0.1816  0.0961  0.4047
 4085TIP3    H133890   4.140   5.517   7.741  0.5575  0.1563  0.8493
 4085TIP3    H233891   4.185   5.408   7.646  0.7315  0.3560  0.7011
 4086TIP3   OH233892   0.075   5.968   2.003  0.5179 -0.2682 -0.3716
 4086TIP3    H133893   0.014   5.943   2.073 -0.4839  2.1639 -0.3017
 4086TIP3    H233894   0.025   5.955   1.922 -0.0732  1.5080 -0.3262
 4087TIP3   OH233895   6.658   3.149   2.410  0.4670 -0.3565 -0.4569
 4087TIP3    H133896   6.705   3.171   2.490  1.0651  1.7057 -1.3057
 4087TIP3    H233897   6.583   3.097   2.439  0.3568  0.8215  1.4963
 4088TIP3   OH233898   4.347   3.624   0.258 -0.2875  0.5692 -0.4170
 4088TIP3    H133899   4.356   3.652   0.167  3.0814  1.1965 -0.0199
 4088TIP3    H233900   4.316   3.702   0.305  0.9830  1.1953 -0.5892
 4089TIP3   OH233901   6.324   6.218   1.798  0.4682 -0.1526  0.3038
 4089TIP3    H133902   6.280   6.208   1.883  0.2118  0.4573  0.2522
 4089TIP3    H233903   6.411   6.182   1.811  0.0911 -0.9978  0.5351
 4090TIP3   OH233904   2.028   1.911   7.010 -0.4874  0.3727 -0.5157
 4090TIP3    H133905   1.977   1.989   7.033 -0.5981  0.1908 -0.1331
 4090TIP3    H233906   2.054   1.874   7.095  0.2592  0.4499 -0.7085
 4091TIP3   OH233907   6.673   4.477   7.715 -0.0028 -0.0328  0.2451
 4091TIP3    H133908   6.639   4.396   7.755 -1.6699  0.7255  0.4628
 4091TIP3    H233909   6.768   4.466   7.716 -0.1900 -2.2257 -0.2278
 4092TIP3   OH233910   2.874   3.767   1.193  0.1341 -0.6626 -0.4951
 4092TIP3    H133911   2.894   3.837   1.131  0.7757 -0.4922 -0.1070
 4092TIP3    H233912   2.879   3.687   1.141  0.5615 -0.5123 -0.6913
 4093TIP3   OH233913   6.577   0.963   6.885  0.1453 -0.3096 -0.8979
 4093TIP3    H133914   6.510   1.031   6.889  0.3842 -0.0125 -1.7698
 4093TIP3    H233915   6.659   1.010   6.873  0.7649 -0.5705  1.8567
 4094TIP3   OH233916   2.330   1.314   7.994 -0.9651  0.5471  0.4482
 4094TIP3    H133917   2.287   1.387   8.039 -1.8863  0.0618  0.3776
 4094TIP3    H233918   2.398   1.284   8.054 -2.2037 -0.1219  1.5546
 4095TIP3   OH233919   4.352   3.069   6.824  0.3187 -0.6289 -0.2482
 4095TIP3    H133920   4.323   3.043   6.911  0.9967 -2.9895 -0.6785
 4095TIP3    H233921   4.272   3.097   6.779 -0.1963 -0.4818  0.7406
 4096TIP3   OH233922   4.878   5.344   0.541  0.5038 -0.1632 -0.4044
 4096TIP3    H133923   4.929   5.356   0.621  2.8022 -2.0835 -1.4607
 4096TIP3    H233924   4.903   5.418   0.485  0.0356  0.3587  0.0615
 4097TIP3   OH233925   5.547   3.343   1.847 -0.3092  0.2057 -0.6341
 4097TIP3    H133926   5.528   3.316   1.937 -1.2975  1.9388 -0.2798
 4097TIP3    H233927   5.537   3.264   1.796 -1.7167 -0.4177  0.5259
 4098TIP3   OH233928   6.432   6.375   0.705  0.5306  0.3188  0.2597
 4098TIP3    H133929   6.522   6.345   0.718  0.4827 -0.2296 -0.6061
 4098TIP3    H233930   6.381   6.295   0.694 -0.2106  0.5829  1.5280
 4099TIP3   OH233931   3.155   6.579   1.718 -0.2558  0.3049 -0.1234
 4099TIP3    H133932   3.218   6.559   1.788  0.6527  0.3781 -0.9067
 4099TIP3    H233933   3.070   6.555   1.755  0.3153 -0.5447  0.6745
 4100TIP3   OH233934   4.434   0.458   1.958  0.4118 -0.5498  0.1681
 4100TIP3    H133935   4.387   0.480   2.038  2.0680 -0.5866  1.1905
 4100TIP3    H233936   4.463   0.542   1.923 -2.2974 -0.2745 -1.7706
 4101TIP3   OH233937   0.151   5.606   8.445  0.0736 -0.1694 -0.0384
 4101TIP3    H133938   0.172   5.579   8.355  1.9726  0.0238  0.2916
 4101TIP3    H233939   0.066   5.649   8.438 -0.1464 -0.7721 -1.6142
 4102TIP3   OH233940   1.762   1.486   0.266  0.4587 -0.1856  0.3671
 4102TIP3    H133941   1.709   1.416   0.229  0.7421  0.1876 -0.7766
 4102TIP3    H233942   1.735   1.564   0.219  1.1868  0.2148  0.5963
 4103TIP3   OH233943   2.624   4.242   1.449  0.4328 -0.1288  0.1262
 4103TIP3    H133944   2.580   4.161   1.424  0.3612  0.6410 -2.5668
 4103TIP3    H233945   2.713   4.215   1.473  0.5405 -1.0003 -1.1296
 4104TIP3   OH233946   0.246   1.473   7.382 -0.1878 -0.5597 -0.0305
 4104TIP3    H133947   0.333   1.441   7.358 -0.7485 -0.5673 -2.3332
 4104TIP3    H233948   0.185   1.420   7.329 -1.3742  1.4682 -0.8410
 4105TIP3   OH233949   1.749   2.781   0.651 -0.1636 -0.5144  0.0257
 4105TIP3    H133950   1.675   2.791   0.591 -0.8131  0.8389  1.0027
 4105TIP3    H233951   1.788   2.697   0.627 -1.2492 -0.6586 -1.3475
 4106TIP3   OH233952   4.607   2.020   1.055  0.2387  0.5876  0.6846
 4106TIP3    H133953   4.520   2.012   1.016  0.8483 -2.0608 -0.4365
 4106TIP3    H233954   4.649   2.091   1.007 -0.8700  1.0082  0.3233
 4107TIP3   OH233955   5.150   0.513   0.485  0.0155  0.2327  0.2829
 4107TIP3    H133956   5.101   0.463   0.550 -0.6749 -0.7224 -0.9129
 4107TIP3    H233957   5.106   0.598   0.482 -0.4528 -0.0013  0.4824
 4108TIP3   OH233958   3.141   2.796   2.306 -0.7702 -0.1124  0.1288
 4108TIP3    H133959   3.136   2.849   2.385 -0.1453 -0.3394  0.3236
 4108TIP3    H233960   3.085   2.721   2.324 -0.9999  0.0679  0.1706
 4109TIP3   OH233961   0.099   3.942   8.293  0.3565 -0.8832 -0.3158
 4109TIP3    H133962   0.190   3.969   8.284  0.2595  0.2085  1.4341
 4109TIP3    H233963   0.104   3.848   8.311  1.3816 -0.4464  2.1295
 4110TIP3   OH233964   0.447   6.922   0.153  0.4621 -0.5565  0.5368
 4110TIP3    H133965   0.447   6.863   0.078  0.2279  0.7129 -0.5119
 4110TIP3    H233966   0.508   6.992   0.128  1.9210 -1.0956  2.3755
 4111TIP3   OH233967   6.434   5.568   8.277  0.1155 -0.1183  0.3260
 4111TIP3    H133968   6.400   5.482   8.253  0.7220 -0.6625  1.3582
 4111TIP3    H233969   6.494   5.591   8.207 -1.8262  0.5829 -1.2123
 4112TIP3   OH233970   6.944   5.316   1.260 -0.1166 -0.5878 -0.0109
 4112TIP3    H133971   6.918   5.343   1.348  0.2423 -2.8788  0.8623
 4112TIP3    H233972   6.888   5.367   1.202 -3.0613 -1.6996  1.6448
 4113TIP3   OH233973   0.773   3.299   7.878  0.5163  0.1543 -0.1298
 4113TIP3    H133974   0.866   3.288   7.860  0.8880  1.0046  1.1052
 4113TIP3    H233975   0.761   3.394   7.886 -0.2895  0.0089  0.5250
 4114TIP3   OH233976   6.824   0.298   7.355  0.3510  0.0382  0.1814
 4114TIP3    H133977   6.790   0.319   7.442  2.2865 -0.4227  1.1027
 4114TIP3    H233978   6.880   0.222   7.369  0.9578  0.1546 -1.4100
 4115TIP3   OH233979   2.236   6.086   7.373  0.4830 -0.2087  0.3352
 4115TIP3    H133980   2.173   6.156   7.357 -0.3692 -0.9674  0.3093
 4115TIP3    H233981   2.244   6.041   7.289 -0.2654 -1.1706  0.7570
 4116TIP3   OH233982   3.560   6.508   8.259  0.6169  0.3114 -0.0885
 4116TIP3    H133983   3.479   6.462   8.282  0.6453 -0.4359 -1.3992
 4116TIP3    H233984   3.576   6.566   8.333 -1.5819  1.1011 -0.1677
 4117TIP3   OH233985   6.811   0.586   8.084 -0.3225  0.0458 -0.0549
 4117TIP3    H133986   6.765   0.546   8.158 -0.0972 -1.1739 -0.5597
 4117TIP3    H233987   6.903   0.566   8.099 -0.4107 -1.4760 -1.3988
 4118TIP3   OH233988   4.819   5.966   0.878 -0.0225 -0.1728 -0.1931
 4118TIP3    H133989   4.759   6.010   0.939 -1.4998 -2.6755  0.2870
 4118TIP3    H233990   4.771   5.962   0.796  0.4391 -0.1890 -0.4653
 4119TIP3   OH233991   6.711   2.555   7.730 -0.3097 -0.0998  0.5296
 4119TIP3    H133992   6.775   2.494   7.695  2.1282  1.8459  1.2793
 4119TIP3    H233993   6.698   2.527   7.821  1.2572  0.7439  1.0537
 4120TIP3   OH233994   2.201   1.144   7.664  0.0235  0.6547 -0.1279
 4120TIP3    H133995   2.144   1.097   7.603 -1.2476  1.8348  0.0921
 4120TIP3    H233996   2.201   1.234   7.632  1.9521  0.6722 -0.2186
 4121TIP3   OH233997   1.907   5.694   1.235  0.2512  0.1091  0.6925
 4121TIP3    H133998   1.825   5.650   1.257  1.0626 -1.3253  0.9595
 4121TIP3    H233999   1.976   5.633   1.262  1.3949 -0.6451 -3.2036
 4122TIP3   OH234000   5.542   6.565   0.299 -0.0013  0.3066  0.0544
 4122TIP3    H134001   5.566   6.591   0.388 -0.8376 -0.9111  0.6721
 4122TIP3    H234002   5.471   6.624   0.276  1.5751  2.0170 -0.6637
 4123TIP3   OH234003   5.349   5.841   2.311 -0.0289 -0.1767  0.2819
 4123TIP3    H134004   5.266   5.824   2.266  0.5795  0.2287 -1.0614
 4123TIP3    H234005   5.326   5.848   2.403 -1.5045  0.0014 -0.0758
 4124TIP3   OH234006   0.674   5.557   0.164  0.1191 -0.2346  0.0539
 4124TIP3    H134007   0.636   5.622   0.224  0.0683  0.5935 -0.8528
 4124TIP3    H234008   0.725   5.499   0.221  1.9054  1.8419  0.7190
 4125TIP3   OH234009   1.164   5.535   6.190  0.6163 -0.4187 -0.1775
 4125TIP3    H134010   1.225   5.521   6.118  3.3982  1.4083  1.5904
 4125TIP3    H234011   1.154   5.630   6.195  2.2924 -0.2549  2.9823
 4126TIP3   OH234012   5.856   2.576   7.195 -0.2269  0.4144  0.8919
 4126TIP3    H134013   5.846   2.500   7.137  1.6832  0.7131  0.1109
 4126TIP3    H234014   5.950   2.584   7.209 -0.5461  1.1289  3.0469
 4127TIP3   OH234015   2.504   5.203   8.174  0.8072  0.0147  0.6166
 4127TIP3    H134016   2.585   5.206   8.123  0.3601 -0.0279 -0.0969
 4127TIP3    H234017   2.446   5.266   8.131 -0.7762 -2.4124 -0.9858
 4128TIP3   OH234018   3.816   1.716   7.374 -0.1441  0.0764  0.0705
 4128TIP3    H134019   3.889   1.671   7.330 -0.3175 -1.8303  1.5755
 4128TIP3    H234020   3.744   1.711   7.312  0.5267  0.5036 -0.7728
 4129TIP3   OH234021   2.418   4.982   8.325 -0.3558  0.5414 -0.3075
 4129TIP3    H134022   2.455   5.038   8.257 -0.7201 -1.6353 -2.4272
 4129TIP3    H234023   2.367   5.041   8.380 -1.1487  2.2207 -2.7077
 4130TIP3   OH234024   2.417   4.458   1.228 -0.6860  0.2574 -0.4281
 4130TIP3    H134025   2.358   4.526   1.197 -1.3085 -0.8813 -1.8408
 4130TIP3    H234026   2.387   4.438   1.317 -1.7828  0.4133 -0.7525
 4131TIP3   OH234027   2.501   5.979   8.261  0.1568  0.4364  0.0402
 4131TIP3    H134028   2.467   5.970   8.350  0.5192  1.5014  0.2969
 4131TIP3    H234029   2.565   5.908   8.253 -0.7486 -0.4183  0.1961
 4132TIP3   OH234030   5.375   1.062   1.388 -0.3138 -0.1609  0.2882
 4132TIP3    H134031   5.431   1.112   1.448  0.8209 -1.3946  0.2997
 4132TIP3    H234032   5.327   1.129   1.339  1.1435  0.9619  0.3097
 4133TIP3   OH234033   2.580   5.088   7.586 -0.1457  0.5724  0.0708
 4133TIP3    H134034   2.633   5.153   7.541 -0.4045  2.2483  2.0345
 4133TIP3    H234035   2.596   5.104   7.679 -0.4173 -2.0459  0.6486
 4134TIP3   OH234036   6.815   1.412   7.006 -0.1522 -0.0625 -0.2954
 4134TIP3    H134037   6.867   1.416   6.925 -0.9034  0.4168 -0.7728
 4134TIP3    H234038   6.808   1.503   7.034 -1.5997  0.0363 -0.8343
 4135TIP3   OH234039   5.497   6.700   2.039  0.2361 -0.0493  0.4015
 4135TIP3    H134040   5.549   6.741   1.970 -0.2451 -0.8004 -0.4361
 4135TIP3    H234041   5.550   6.626   2.067  0.7250  0.6308  1.3179
 4136TIP3   OH234042   5.558   1.717   0.646 -0.1330 -0.2491  0.5112
 4136TIP3    H134043   5.534   1.650   0.710  0.6059 -0.0365  1.0193
 4136TIP3    H234044   5.653   1.710   0.639  0.2687  2.2503  2.2822
 4137TIP3   OH234045   3.934   4.688   6.471 -0.1090 -0.0828 -0.1953
 4137TIP3    H134046   3.979   4.604   6.470 -1.6361 -0.9456 -1.5213
 4137TIP3    H234047   3.883   4.689   6.390 -0.6584  1.8371  0.1137
 4138TIP3   OH234048   6.755   3.213   0.541  0.2823  0.5872  0.1774
 4138TIP3    H134049   6.805   3.294   0.542 -0.8472  1.3159  1.5408
 4138TIP3    H234050   6.667   3.238   0.569  0.0636 -1.2014  1.2592
 4139TIP3   OH234051   5.070   0.563   8.113  0.2873 -0.6539  0.3895
 4139TIP3    H134052   5.044   0.474   8.138 -3.4271  0.0476 -0.4206
 4139TIP3    H234053   5.135   0.588   8.178  0.6307 -3.5297  1.3158
 4140TIP3   OH234054   6.488   5.631   7.059  0.0784  0.2653 -0.1200
 4140TIP3    H134055   6.469   5.724   7.063 -0.3239  0.1877 -0.1397
 4140TIP3    H234056   6.402   5.589   7.050  0.3933  0.0778 -3.4438
 4141TIP3   OH234057   4.283   5.640   1.389 -0.2492 -0.4616  0.3213
 4141TIP3    H134058   4.317   5.729   1.377 -1.1398 -0.2521 -0.7856
 4141TIP3    H234059   4.189   5.651   1.398 -0.2125 -1.1584  1.9960
 4142TIP3   OH234060   0.709   4.049   8.294  0.7479  0.0941  0.4091
 4142TIP3    H134061   0.698   4.033   8.388  2.6298  0.7900  0.7900
 4142TIP3    H234062   0.768   3.979   8.265  2.9746  1.8451  0.5131
 4143TIP3   OH234063   5.809   4.442   7.325 -0.0469 -0.6940 -0.4530
 4143TIP3    H134064   5.755   4.368   7.297  0.6092 -1.6101  0.6136
 4143TIP3    H234065   5.886   4.401   7.364 -1.3160  0.3731  3.6770
 4144TIP3   OH234066   6.624   5.491   6.286  0.7146 -0.3161 -0.6040
 4144TIP3    H134067   6.719   5.482   6.281  0.8054  0.0490  0.2535
 4144TIP3    H234068   6.604   5.488   6.380  0.1180  1.7683 -0.6163
 4145TIP3   OH234069   0.777   5.978   0.554  0.2001 -0.0903  0.4705
 4145TIP3    H134070   0.855   5.928   0.577  2.1050  2.1385 -0.6807
 4145TIP3    H234071   0.756   5.951   0.465 -0.9247 -1.3050  1.0736
 4146TIP3   OH234072   6.585   2.670   2.186  0.3108  0.2622 -0.4784
 4146TIP3    H134073   6.613   2.579   2.198 -1.2638 -0.0933  0.9614
 4146TIP3    H234074   6.522   2.685   2.256 -2.7031  1.1220 -3.1128
 4147TIP3   OH234075   3.015   5.764   1.227  0.4077 -0.4622  0.0888
 4147TIP3    H134076   3.106   5.791   1.215 -0.2303  1.2246 -1.3662
 4147TIP3    H234077   2.978   5.760   1.139 -1.3831  0.6561  0.7145
 4148TIP3   OH234078   2.388   2.550   6.449  0.3025  0.5932  0.4807
 4148TIP3    H134079   2.318   2.605   6.412  0.0825  0.3028  0.4661
 4148TIP3    H234080   2.466   2.604   6.442  0.3164  0.4549 -0.6633
 4149TIP3   OH234081   0.193   3.398   0.443  0.1845 -0.2676  0.0627
 4149TIP3    H134082   0.214   3.487   0.414 -0.3911 -0.1241  0.0615
 4149TIP3    H234083   0.138   3.410   0.521 -1.5769 -0.5522 -1.0656
 4150TIP3   OH234084   3.187   3.175   1.577 -0.2519 -0.1921 -0.0913
 4150TIP3    H134085   3.229   3.261   1.579 -1.4108  0.4867  3.5304
 4150TIP3    H234086   3.111   3.187   1.520  0.5583  0.6329 -1.0390
 4151TIP3   OH234087   3.392   0.551   1.228  0.5476  0.2386 -0.3305
 4151TIP3    H134088   3.432   0.548   1.315  1.3278 -0.8353 -0.6961
 4151TIP3    H234089   3.328   0.480   1.229  1.4754 -0.6384 -1.0342
 4152TIP3   OH234090   4.980   3.429   8.069 -0.1545 -0.3136  0.1052
 4152TIP3    H134091   4.969   3.350   8.016 -0.7712  0.8037 -1.5277
 4152TIP3    H234092   5.072   3.453   8.058 -0.4825  0.4389 -1.3357
 4153TIP3   OH234093   6.944   1.037   0.089 -0.2688 -0.0991  0.2749
 4153TIP3    H134094   6.913   1.060   0.001  0.3475 -0.0702  0.0599
 4153TIP3    H234095   6.887   1.086   0.148  0.7039  1.6846 -0.1589
 4154TIP3   OH234096   6.968   5.823   6.842 -0.3115 -0.0938  0.2512
 4154TIP3    H134097   6.908   5.858   6.777 -1.3899  0.3779  1.4425
 4154TIP3    H234098   7.054   5.829   6.801 -1.1376 -1.7872 -1.9182
 4155TIP3   OH234099   2.097   1.802   0.561  0.1839  0.4498 -1.1117
 4155TIP3    H134100   2.028   1.786   0.624 -1.2285  3.7182 -1.6156
 4155TIP3    H234101   2.177   1.809   0.613 -0.6029  0.9322  0.0635
 4156TIP3   OH234102   6.875   2.815   0.654  0.2962  0.5507 -0.3907
 4156TIP3    H134103   6.813   2.849   0.718  0.5806  0.4744 -0.0760
 4156TIP3    H234104   6.916   2.740   0.697  1.5870  1.4104 -0.0783
 4157TIP3   OH234105   5.663   0.379   7.213 -0.0046  0.0736 -0.1527
 4157TIP3    H134106   5.647   0.297   7.260 -0.1702  0.8827  1.2541
 4157TIP3    H234107   5.590   0.436   7.237 -0.7944  0.1247 -2.4237
 4158TIP3   OH234108   4.011   1.646   8.122  0.0199  0.2178  0.2330
 4158TIP3    H134109   3.962   1.643   8.204  0.7530 -0.6107  0.6528
 4158TIP3    H234110   3.959   1.705   8.066 -1.9755 -1.3555  0.3099
 4159TIP3   OH234111   1.890   3.155   8.258 -0.7637  0.0827  0.4545
 4159TIP3    H134112   1.820   3.199   8.306 -1.6434  0.9076 -1.4572
 4159TIP3    H234113   1.846   3.082   8.214 -0.5086  0.7187 -0.9173
 4160TIP3   OH234114   2.923   1.889   7.103 -0.0597  0.0991  0.1179
 4160TIP3    H134115   2.935   1.952   7.031  1.3268 -1.0060 -0.6613
 4160TIP3    H234116   2.839   1.847   7.084 -0.5857  1.0743  0.1781
 4161TIP3   OH234117   0.151   1.067   7.584 -0.4581 -0.6949 -0.1884
 4161TIP3    H134118   0.085   1.030   7.526 -0.1405  1.3362 -1.9657
 4161TIP3    H234119   0.218   1.102   7.525  0.4048  0.5509  1.4344
 4162TIP3   OH234120   0.783   2.498   7.876  0.0424 -0.1643  0.6962
 4162TIP3    H134121   0.830   2.433   7.929 -0.5686 -0.4881  0.8541
 4162TIP3    H234122   0.729   2.545   7.940  1.5483  1.5022  0.8165
 4163TIP3   OH234123   5.411   5.401   7.844 -0.3423  0.4647  0.4834
 4163TIP3    H134124   5.377   5.485   7.874 -2.2064 -0.7521  2.0392
 4163TIP3    H234125   5.348   5.337   7.877  1.0852 -1.5637 -0.5376
 4164TIP3   OH234126   3.310   1.477   2.277  0.2686 -0.5563  0.0831
 4164TIP3    H134127   3.382   1.416   2.262 -0.1927 -1.2601  0.6632
 4164TIP3    H234128   3.352   1.563   2.280  0.9132 -0.8282 -0.8187
 4165TIP3   OH234129   2.309   6.286   1.464 -0.0420 -0.0373  0.0570
 4165TIP3    H134130   2.224   6.329   1.468  0.1644  0.4241 -0.4095
 4165TIP3    H234131   2.348   6.301   1.549  0.5143  1.7245 -0.4757
 4166TIP3   OH234132   0.809   5.384   1.080 -0.9267 -0.4375  0.6106
 4166TIP3    H134133   0.831   5.292   1.063 -1.0587 -0.2501 -0.7276
 4166TIP3    H234134   0.893   5.425   1.100 -0.6158 -0.5553 -0.3663
 4167TIP3   OH234135   4.474   4.370   1.720 -0.4371  0.2357 -0.1913
 4167TIP3    H134136   4.533   4.407   1.785 -1.6652  1.0425  0.4954
 4167TIP3    H234137   4.516   4.390   1.636  1.3182 -1.0793  0.3058
 4168TIP3   OH234138   1.128   5.916   0.090  0.5869  0.2996 -0.2639
 4168TIP3    H134139   1.213   5.887   0.122  1.4371  0.8561 -1.8891
 4168TIP3    H234140   1.141   6.009   0.069 -1.5201  1.5503  3.0611
 4169TIP3   OH234141   3.971   4.224   0.891  0.6337 -0.2178 -0.0120
 4169TIP3    H134142   4.026   4.256   0.962  2.1951 -1.2190 -0.7107
 4169TIP3    H234143   3.926   4.148   0.928  0.8270 -0.2624  0.1327
 4170TIP3   OH234144   5.999   5.957   8.164 -0.0020  0.1895  0.6131
 4170TIP3    H134145   5.985   5.903   8.086 -0.2091  0.7319  0.2649
 4170TIP3    H234146   5.941   5.919   8.230  2.3163 -2.1335  1.4720
 4171TIP3   OH234147   6.275   3.465   1.616 -0.1401 -0.5314  0.0412
 4171TIP3    H134148   6.253   3.386   1.565 -0.1962 -0.3754 -0.1771
 4171TIP3    H234149   6.361   3.445   1.654  1.0133  0.2539 -2.0045
 4172TIP3   OH234150   1.926   0.600   2.288  0.3199  0.3328 -0.3320
 4172TIP3    H134151   1.855   0.566   2.342 -0.3651  0.9901 -0.7877
 4172TIP3    H234152   1.882   0.638   2.212  1.1935  0.3870 -0.8267
 4173TIP3   OH234153   6.616   1.012   2.613 -0.3642 -0.3743 -0.7771
 4173TIP3    H134154   6.592   1.015   2.706  1.1466  1.7263 -0.4017
 4173TIP3    H234155   6.583   1.095   2.577  1.2247 -0.0466 -1.5323
 4174TIP3   OH234156   6.668   2.403   2.309 -0.3209  0.4106  0.2270
 4174TIP3    H134157   6.586   2.371   2.271 -1.1269  0.3367  1.9138
 4174TIP3    H234158   6.710   2.324   2.344  0.2345  0.5146 -0.2006
 4175TIP3   OH234159   1.372   2.433   0.074 -0.1259  0.2779 -0.1635
 4175TIP3    H134160   1.333   2.515   0.104  2.4538  1.7289 -0.4585
 4175TIP3    H234161   1.405   2.452  -0.014  0.2273 -1.2030 -0.3926
 4176TIP3   OH234162   4.340   2.969   0.547 -0.7087  0.2551  0.0024
 4176TIP3    H134163   4.268   2.905   0.543  0.9047 -1.6100 -0.4660
 4176TIP3    H234164   4.388   2.945   0.626  1.8633 -1.3652 -1.9277
 4177TIP3   OH234165   1.137   5.401   2.008 -0.4750 -0.2013  0.4184
 4177TIP3    H134166   1.152   5.310   1.982  1.2640  0.1049  0.2628
 4177TIP3    H234167   1.153   5.403   2.102 -0.1827  0.0060  0.3659
 4178TIP3   OH234168   6.849   4.712   0.697  0.3069 -0.0321  0.0936
 4178TIP3    H134169   6.944   4.712   0.690  0.2348  1.3482 -2.0243
 4178TIP3    H234170   6.823   4.623   0.672  1.0344 -0.5648  1.1725
 4179TIP3   OH234171   6.335   6.364   6.573  0.1238 -0.4877  0.0091
 4179TIP3    H134172   6.246   6.343   6.547 -0.0809 -0.7660  0.8968
 4179TIP3    H234173   6.372   6.281   6.604  0.5715 -0.3041 -0.0169
 4180TIP3   OH234174   3.453   5.271   7.013 -0.4308 -0.0499  0.5580
 4180TIP3    H134175   3.457   5.176   7.003  0.5063 -0.0767  1.1031
 4180TIP3    H234176   3.418   5.302   6.929  2.2007 -0.6402 -0.8819
 4181TIP3   OH234177   5.470   5.313   1.789 -0.1784 -0.4012 -0.8341
 4181TIP3    H134178   5.417   5.360   1.724 -0.4580 -0.7886 -0.8882
 4181TIP3    H234179   5.560   5.329   1.762 -0.2789 -0.0842 -0.9868
 4182TIP3   OH234180   6.156   3.781   7.170  0.1304  0.1960 -0.2230
 4182TIP3    H134181   6.242   3.742   7.152  0.9875  0.9353  1.8813
 4182TIP3    H234182   6.122   3.729   7.243 -0.8178  0.4680 -0.4671
 4183TIP3   OH234183   5.013   1.347   0.146 -0.8653 -0.2818 -0.9516
 4183TIP3    H134184   4.989   1.257   0.167 -1.1919  0.2142  1.0403
 4183TIP3    H234185   4.930   1.391   0.131 -0.6277 -0.6869 -3.8773
 4184TIP3   OH234186   1.352   5.806   0.841 -0.0509  0.1602  0.0545
 4184TIP3    H134187   1.323   5.799   0.750  0.3673  1.2330 -0.1806
 4184TIP3    H234188   1.309   5.886   0.874  0.4031  0.2021  0.5605
 4185TIP3   OH234189   2.779   3.176   7.602  0.8510 -0.2071  0.5996
 4185TIP3    H134190   2.835   3.098   7.606  0.8899 -0.1766  0.6463
 4185TIP3    H234191   2.694   3.147   7.634  0.0005 -1.0060 -2.1155
 4186TIP3   OH234192   5.093   6.727   8.078  0.6061 -0.6624  0.0217
 4186TIP3    H134193   5.165   6.773   8.034 -0.2107 -1.5282 -2.3735
 4186TIP3    H234194   5.014   6.773   8.051 -0.0903 -2.4176 -1.1494
 4187TIP3   OH234195   2.666   1.380   0.027  0.1329  0.1487 -0.3774
 4187TIP3    H134196   2.637   1.341  -0.056  0.1618  3.6607 -2.2315
 4187TIP3    H234197   2.617   1.462   0.033  1.1979  0.6736  2.4147
 4188TIP3   OH234198   2.489   1.531   1.652  0.2812  0.2439 -0.2805
 4188TIP3    H134199   2.574   1.487   1.645 -0.1512 -0.5708 -0.4808
 4188TIP3    H234200   2.511   1.625   1.648  1.3761  0.1428  1.8073
 4189TIP3   OH234201   1.953   5.566   0.549 -0.4795  0.4464  0.1855
 4189TIP3    H134202   2.016   5.600   0.485  0.1485  1.3367  1.2374
 4189TIP3    H234203   1.920   5.485   0.509 -0.6841  1.3499 -1.6002
 4190TIP3   OH234204   0.770   1.682   7.792 -0.8873  0.0620 -0.6704
 4190TIP3    H134205   0.769   1.596   7.749 -1.4595 -0.1779 -0.1931
 4190TIP3    H234206   0.763   1.662   7.886 -1.5460  0.6386 -0.5858
 4191TIP3   OH234207   0.637   0.978   0.819  0.5014  0.4049 -0.1039
 4191TIP3    H134208   0.715   0.986   0.874 -0.4241  2.1764  1.0500
 4191TIP3    H234209   0.572   1.033   0.862 -0.1846  2.2316 -3.1722
 4192TIP3   OH234210   3.176   0.514   1.524  0.0107 -0.2294 -0.2179
 4192TIP3    H134211   3.125   0.451   1.473 -0.9719 -0.7067  1.3009
 4192TIP3    H234212   3.110   0.566   1.571  0.8848 -1.2364  2.2423
 4193TIP3   OH234213   2.095   2.720   5.938 -0.6352  0.9422  0.0242
 4193TIP3    H134214   2.156   2.791   5.954 -1.7917  1.9369  0.1516
 4193TIP3    H234215   2.010   2.763   5.927 -1.3042 -0.3893 -0.2376
 4194TIP3   OH234216   2.158   0.441   0.113 -0.0971  0.0179 -0.2174
 4194TIP3    H134217   2.073   0.417   0.150  0.2520 -2.8347 -1.0659
 4194TIP3    H234218   2.137   0.502   0.042 -1.2610  0.5910  0.5824
 4195TIP3   OH234219   3.251   4.846   6.320 -0.1863  0.8564  0.0763
 4195TIP3    H134220   3.173   4.793   6.335  0.5981 -0.6953 -1.0744
 4195TIP3    H234221   3.229   4.900   6.244 -0.4340  1.0609  0.2907
 4196TIP3   OH234222   2.400   6.301   1.756  0.4861 -0.3258 -0.5299
 4196TIP3    H134223   2.415   6.234   1.824 -2.5273 -0.5010  0.0931
 4196TIP3    H234224   2.323   6.349   1.786 -0.6036 -0.0012 -3.5157
 4197TIP3   OH234225   6.614   2.429   7.960  0.5624 -0.2407 -0.4251
 4197TIP3    H134226   6.605   2.356   7.898 -0.5954  0.9798 -1.7898
 4197TIP3    H234227   6.524   2.458   7.977  0.9945  1.0714 -0.2012
 4198TIP3   OH234228   2.517   3.103   7.952 -0.4633 -0.0775 -0.4194
 4198TIP3    H134229   2.484   3.099   8.041 -0.7336  0.8271 -0.4754
 4198TIP3    H234230   2.567   3.184   7.947 -1.0292  0.2350 -1.2836
 4199TIP3   OH234231   3.299   3.005   8.239  0.1192  0.2166  0.1352
 4199TIP3    H134232   3.380   2.959   8.218 -0.2035  0.1061 -0.9217
 4199TIP3    H234233   3.315   3.096   8.213  0.1463  0.3559  0.6099
 4200TIP3   OH234234   5.073   5.813   7.347 -0.1101  0.6485 -0.2276
 4200TIP3    H134235   5.095   5.865   7.270  1.4198 -2.5654 -2.2144
 4200TIP3    H234236   5.139   5.836   7.411  0.5708  1.0965 -1.0665
 4201TIP3   OH234237   6.627   0.267   6.440  0.8356 -0.2402 -0.3685
 4201TIP3    H134238   6.591   0.316   6.514  1.0344  0.5799 -0.8098
 4201TIP3    H234239   6.667   0.333   6.384  1.3949 -0.9404 -0.8158
 4202TIP3   OH234240   3.668   0.046   2.566  0.5453 -0.0752  0.0450
 4202TIP3    H134241   3.580   0.042   2.528  0.8090 -0.3731 -0.5404
 4202TIP3    H234242   3.705   0.128   2.534 -0.0178  0.7551  1.4201
 4203TIP3   OH234243   0.485   6.523   1.856  0.5455  0.3082 -0.9156
 4203TIP3    H134244   0.513   6.435   1.881 -1.5019 -0.1256  0.1029
 4203TIP3    H234245   0.496   6.526   1.761  3.3954  0.0416 -0.6806
 4204TIP3   OH234246   2.692   3.899   0.000 -0.0876 -0.0004  0.2372
 4204TIP3    H134247   2.765   3.901  -0.061 -1.2055 -1.1941 -1.2006
 4204TIP3    H234248   2.729   3.863   0.081  0.8545 -0.8730 -0.5544
 4205TIP3   OH234249   4.767   0.638   1.211  0.0279  0.3232  0.1557
 4205TIP3    H134250   4.772   0.717   1.265  1.1382  0.9766 -0.8295
 4205TIP3    H234251   4.848   0.590   1.231 -0.5011 -0.4368  0.5296
 4206TIP3   OH234252   3.866   0.750   0.420  0.4472 -0.1148 -0.0333
 4206TIP3    H134253   3.834   0.660   0.434 -0.6119  0.1571 -0.6168
 4206TIP3    H234254   3.805   0.805   0.469  0.2252  0.3991 -0.8747
 4207TIP3   OH234255   5.042   4.483   7.974  0.3554  0.0304 -0.0321
 4207TIP3    H134256   5.021   4.555   8.033  0.7679  0.9178 -0.9447
 4207TIP3    H234257   5.085   4.418   8.030  0.0009  0.4931  0.7918
 4208TIP3   OH234258   5.285   3.160   6.946  0.4745 -0.0736  0.1597
 4208TIP3    H134259   5.196   3.180   6.918  0.2000 -0.6774  0.5607
 4208TIP3    H234260   5.332   3.243   6.941  0.0041  0.1568 -0.4691
 4209TIP3   OH234261   5.073   2.281   6.474  0.0465  0.0769 -0.0475
 4209TIP3    H134262   5.028   2.262   6.392 -1.5046  0.9837  0.5569
 4209TIP3    H234263   5.111   2.368   6.461 -1.2335  0.7564  0.5799
 4210TIP3   OH234264   3.891   2.512   7.402 -0.0437 -0.4582  0.7719
 4210TIP3    H134265   3.975   2.558   7.396 -0.1485 -0.3351  0.1775
 4210TIP3    H234266   3.867   2.492   7.312 -0.8535 -0.1263  0.8976
 4211TIP3   OH234267   6.578   6.154   8.188  0.3306 -0.2831  0.0813
 4211TIP3    H134268   6.484   6.165   8.201  0.3955 -0.1428  0.4546
 4211TIP3    H234269   6.596   6.063   8.213  0.1001 -0.6963 -1.1797
 4212TIP3   OH234270   4.570   3.202   6.708 -0.1269 -0.0737  0.1072
 4212TIP3    H134271   4.661   3.209   6.736 -0.1896  1.2348  0.0370
 4212TIP3    H234272   4.523   3.174   6.786  0.2673 -0.2907  0.2716
 4213TIP3   OH234273   3.892   4.309   7.765 -0.3066 -0.6386 -0.1828
 4213TIP3    H134274   3.854   4.287   7.850  0.1160  0.0170  0.1800
 4213TIP3    H234275   3.972   4.255   7.760  0.6854  0.6889  0.6716
 4214TIP3   OH234276   2.147   5.566   1.368  0.4565 -0.0811 -0.2221
 4214TIP3    H134277   2.196   5.532   1.293 -0.2685 -0.0087 -0.7416
 4214TIP3    H234278   2.169   5.507   1.440  1.9051  0.4015 -0.2358
 4215TIP3   OH234279   2.087   3.387   1.024 -0.3583 -0.1176 -0.1680
 4215TIP3    H134280   2.144   3.447   0.975 -1.1828 -1.4859 -3.0023
 4215TIP3    H234281   2.100   3.411   1.116  0.8755  2.9823 -1.0439
 4216TIP3   OH234282   5.760   4.748   1.874 -0.0524 -0.4904 -0.2328
 4216TIP3    H134283   5.680   4.695   1.878 -0.3484 -0.0553 -0.3677
 4216TIP3    H234284   5.821   4.695   1.821  0.0605 -1.2196  0.6152
 4217TIP3   OH234285   6.885   3.587   7.664  0.1269 -0.1512 -0.6813
 4217TIP3    H134286   6.843   3.527   7.726 -0.7452  0.0248 -1.0776
 4217TIP3    H234287   6.891   3.537   7.582  1.4119 -0.4371 -0.4281
 4218TIP3   OH234288   3.156   5.202   0.707  0.1566  0.1311  0.0076
 4218TIP3    H134289   3.242   5.243   0.710  0.0730  0.3141 -0.1052
 4218TIP3    H234290   3.157   5.149   0.627 -0.0799  0.6719 -0.3565
 4219TIP3   OH234291   4.781   0.274   7.535  0.1691  0.4381  0.3686
 4219TIP3    H134292   4.801   0.283   7.442  0.1515  0.5463  0.3756
 4219TIP3    H234293   4.807   0.184   7.556 -1.0034 -0.0205 -0.0392
 4220TIP3   OH234294   2.522   2.793   0.763  0.5799 -0.3207 -0.0335
 4220TIP3    H134295   2.611   2.783   0.729  0.1049 -0.1142 -1.4234
 4220TIP3    H234296   2.483   2.706   0.755 -0.3861  0.2619 -2.6816
 4221TIP3   OH234297   1.355   4.309   8.139 -0.8243 -0.2720  0.0976
 4221TIP3    H134298   1.432   4.259   8.111 -0.1583  0.3913  0.7017
 4221TIP3    H234299   1.289   4.242   8.158 -0.5633 -0.8254 -0.8758
 4222TIP3   OH234300   3.810   3.426   0.381 -0.2328  0.2892  0.2768
 4222TIP3    H134301   3.902   3.421   0.405 -0.5940 -0.8166  1.6053
 4222TIP3    H234302   3.807   3.408   0.287  0.8262 -0.5753  0.3988
 4223TIP3   OH234303   4.263   1.159   2.053 -0.1634  0.3987  0.0724
 4223TIP3    H134304   4.224   1.244   2.071  1.1315  0.9126  0.5779
 4223TIP3    H234305   4.323   1.144   2.126  1.1789  0.0359 -1.0508
 4224TIP3   OH234306   5.534   3.540   7.922  0.0811  0.4958  0.5745
 4224TIP3    H134307   5.494   3.485   7.989 -1.9354 -1.3738 -1.9663
 4224TIP3    H234308   5.494   3.511   7.840  2.6242  2.4379 -1.5212
 4225TIP3   OH234309   1.786   1.419   1.510 -0.2277 -0.0558 -0.5055
 4225TIP3    H134310   1.724   1.368   1.458 -1.6773  1.4797 -0.3530
 4225TIP3    H234311   1.738   1.499   1.534  0.9170  0.0010  1.8830
 4226TIP3   OH234312   0.252   3.643   1.778  0.6767  0.4017 -0.0385
 4226TIP3    H134313   0.249   3.724   1.727  0.0032  2.8791  3.5567
 4226TIP3    H234314   0.163   3.608   1.773  0.1110  1.6414  0.8230
 4227TIP3   OH234315   3.402   0.796   7.993 -0.4246  0.1148  0.1499
 4227TIP3    H134316   3.404   0.716   7.941 -0.7837  0.1263  0.1149
 4227TIP3    H234317   3.316   0.835   7.974 -2.7869 -2.3154  4.3691
 4228TIP3   OH234318   3.461   1.780   7.351  0.2688 -0.4217  0.5890
 4228TIP3    H134319   3.384   1.827   7.382 -0.2573 -1.1770  0.4558
 4228TIP3    H234320   3.496   1.738   7.430  0.3555 -0.3398  0.5937
 4229TIP3   OH234321   4.137   3.747   2.130  0.6264  1.4489 -0.4045
 4229TIP3    H134322   4.054   3.793   2.114  0.0682  0.6123  0.0101
 4229TIP3    H234323   4.141   3.739   2.226 -0.8081 -2.0021 -0.4871
 4230TIP3   OH234324   2.489   6.922   6.219  0.1410 -0.3258 -0.1795
 4230TIP3    H134325   2.580   6.923   6.190  0.9150 -0.4646  1.9897
 4230TIP3    H234326   2.490   6.864   6.296 -0.7293  3.2351  2.8419
 4231TIP3   OH234327   6.874   1.949   6.647  0.0225  0.0978  0.1881
 4231TIP3    H134328   6.841   2.026   6.602  0.4652 -0.5572 -1.3077
 4231TIP3    H234329   6.968   1.963   6.653 -0.1688  0.9325  2.4598
 4232TIP3   OH234330   6.772   0.755   6.245 -0.4540 -0.3731  0.4181
 4232TIP3    H134331   6.775   0.735   6.338  0.4024 -2.2188  0.0302
 4232TIP3    H234332   6.858   0.792   6.225 -0.6077 -0.0537  0.3398
 4233TIP3   OH234333   5.831   2.072   7.394 -0.7476 -0.4454 -0.3142
 4233TIP3    H134334   5.916   2.031   7.407 -1.3405 -1.5667  0.1721
 4233TIP3    H234335   5.842   2.128   7.317  0.2742 -0.9769 -0.5669
 4234TIP3   OH234336   5.046   4.513   0.577 -0.1911 -0.5949 -0.2319
 4234TIP3    H134337   5.100   4.592   0.586 -0.9172 -0.1554  0.2812
 4234TIP3    H234338   5.018   4.493   0.666  0.2534 -1.6314 -0.3101
 4235TIP3   OH234339   6.892   4.198   0.194  0.4838  0.4269 -0.0017
 4235TIP3    H134340   6.984   4.173   0.202  0.5257  0.3397 -0.6606
 4235TIP3    H234341   6.891   4.262   0.123  0.0332  0.4178 -0.0055
 4236TIP3   OH234342   2.736   5.880   1.873  0.0922  0.3767 -0.5142
 4236TIP3    H134343   2.705   5.877   1.964  0.8859  2.1366 -0.1513
 4236TIP3    H234344   2.659   5.906   1.823 -0.5406 -1.3075 -0.4882
 4237TIP3   OH234345   1.250   5.523   8.256 -0.2381  0.3677  0.1519
 4237TIP3    H134346   1.255   5.552   8.165 -0.5416  1.1651  0.3816
 4237TIP3    H234347   1.223   5.431   8.250  1.8456 -0.2563 -0.6207
 4238TIP3   OH234348   3.324   5.456   6.254  0.2715 -0.0596 -0.3522
 4238TIP3    H134349   3.371   5.518   6.310  0.6794 -0.5614 -0.1402
 4238TIP3    H234350   3.392   5.402   6.215 -0.1360 -0.8925  0.0712
 4239TIP3   OH234351   0.407   4.579   2.139  0.6241 -0.1276 -0.0010
 4239TIP3    H134352   0.462   4.621   2.205 -0.6366  1.0432  0.3556
 4239TIP3    H234353   0.454   4.594   2.056  0.8490  0.8756  0.2870
 4240TIP3   OH234354   5.753   2.873   0.740 -0.3537 -0.0632 -0.0243
 4240TIP3    H134355   5.723   2.799   0.793 -0.9263 -0.4105 -0.8128
 4240TIP3    H234356   5.821   2.915   0.794 -1.4061  0.0330  1.2895
 4241TIP3   OH234357   2.678   3.563   0.071 -0.1062  0.3851 -0.6490
 4241TIP3    H134358   2.709   3.606  -0.009 -0.2559  0.1223 -0.8520
 4241TIP3    H234359   2.584   3.580   0.072  0.1215  1.6924  0.2808
 4242TIP3   OH234360   3.699   4.558   7.786  0.5115 -0.2221 -0.1216
 4242TIP3    H134361   3.620   4.504   7.796  0.5165 -0.2226 -0.0835
 4242TIP3    H234362   3.754   4.533   7.860  1.0914 -1.1492 -0.8338
 4243TIP3   OH234363   5.969   3.104   0.833 -0.3246  0.2637 -0.1971
 4243TIP3    H134364   6.030   3.168   0.869  1.1087  0.7381 -3.1362
 4243TIP3    H234365   5.883   3.144   0.843  0.2024  1.1929  0.8311
 4244TIP3   OH234366   2.890   2.989   1.663  0.5574  0.0912  0.1987
 4244TIP3    H134367   2.943   2.968   1.587  0.8610 -0.3704  0.5288
 4244TIP3    H234368   2.811   2.935   1.653  0.0791  0.8749 -0.3588
 4245TIP3   OH234369   2.533   0.731   1.382  0.0345 -0.1433  0.3210
 4245TIP3    H134370   2.502   0.802   1.325  0.2969 -1.2815 -1.3093
 4245TIP3    H234371   2.549   0.773   1.466 -2.1677  1.2417  0.1191
 4246TIP3   OH234372   6.089   4.506   7.668  0.0759  0.3054  0.2839
 4246TIP3    H134373   6.075   4.582   7.724 -0.3753 -0.2817  0.9837
 4246TIP3    H234374   6.170   4.467   7.701  0.2881  0.4566 -0.0512
 4247TIP3   OH234375   6.745   3.435   7.441  0.4857 -0.5083 -0.1254
 4247TIP3    H134376   6.839   3.422   7.426  0.4585 -0.3413 -0.4610
 4247TIP3    H234377   6.705   3.423   7.354  0.4616  1.9061 -0.5222
 4248TIP3   OH234378   5.771   4.840   2.158 -0.6608  0.6993 -0.3811
 4248TIP3    H134379   5.705   4.783   2.197  1.8419 -3.0124 -1.0376
 4248TIP3    H234380   5.761   4.828   2.064 -0.1915  1.4738 -0.5364
 4249TIP3   OH234381   2.314   4.213   0.317  0.0951 -0.1354  0.7211
 4249TIP3    H134382   2.406   4.237   0.317  0.3678 -1.1175  1.7267
 4249TIP3    H234383   2.268   4.295   0.297  1.2421 -0.0469 -2.0581
 4250TIP3   OH234384   5.358   0.381   8.026 -0.9404 -0.1526 -0.3382
 4250TIP3    H134385   5.299   0.370   7.951 -1.6304  0.1640  0.1499
 4250TIP3    H234386   5.340   0.306   8.082 -0.5446 -0.2987 -0.4014
 4251TIP3   OH234387   3.892   3.066   2.649 -0.4353 -0.0213  0.2774
 4251TIP3    H134388   3.835   3.096   2.578 -0.7469  1.9698  1.2943
 4251TIP3    H234389   3.841   2.999   2.694 -1.7769  1.2966  0.8014
 4252TIP3   OH234390   4.786   2.510   1.494 -0.0881  0.9650 -0.4013
 4252TIP3    H134391   4.726   2.438   1.516  0.6308  1.1103  2.5032
 4252TIP3    H234392   4.729   2.578   1.457 -1.0109 -0.4485 -1.7044
 4253TIP3   OH234393   0.283   4.349   7.005  0.7000 -0.5166 -0.3964
 4253TIP3    H134394   0.373   4.365   7.031  0.5551 -0.4388  0.0607
 4253TIP3    H234395   0.251   4.281   7.065  0.3511 -0.3046 -0.3385
 4254TIP3   OH234396   1.024   0.082   1.243  0.1508 -0.2271  0.6258
 4254TIP3    H134397   1.088   0.021   1.207  1.1339  0.6342  0.8657
 4254TIP3    H234398   1.063   0.112   1.325  0.2345  1.5734 -0.0229
 4255TIP3   OH234399   1.236   2.577   0.503  0.1618  0.1963 -0.0396
 4255TIP3    H134400   1.263   2.602   0.591  1.4266  1.2541 -0.7021
 4255TIP3    H234401   1.252   2.655   0.450  0.0718 -0.6457 -1.3423
 4256TIP3   OH234402   5.517   5.565   0.780 -0.0944 -0.0257 -0.6680
 4256TIP3    H134403   5.529   5.603   0.867 -1.2482 -1.9770  0.4106
 4256TIP3    H234404   5.537   5.637   0.720  2.0483  1.0217  1.1389
 4257TIP3   OH234405   5.404   1.459   7.703 -0.0499  0.5112 -0.5981
 4257TIP3    H134406   5.374   1.550   7.700 -0.8100  0.3493  1.0546
 4257TIP3    H234407   5.337   1.410   7.657 -0.8636  0.5205  0.5394
 4258TIP3   OH234408   3.531   6.137   7.732 -0.6013  0.0759  0.2620
 4258TIP3    H134409   3.528   6.227   7.699  1.0283 -1.3439 -4.5608
 4258TIP3    H234410   3.624   6.121   7.751 -1.0525 -0.2836  2.4314
 4259TIP3   OH234411   6.456   5.513   7.963  0.1195 -0.4681 -0.4010
 4259TIP3    H134412   6.413   5.595   7.938 -1.0769 -0.7229  0.6753
 4259TIP3    H234413   6.549   5.531   7.957 -0.1268  0.9813 -0.1784
 4260TIP3   OH234414   4.479   0.543   8.366  0.2090 -0.3590  0.1450
 4260TIP3    H134415   4.573   0.526   8.372  0.6916  0.6838 -2.8580
 4260TIP3    H234416   4.468   0.630   8.406  0.8661  0.3169 -1.0951
 4261TIP3   OH234417   3.755   1.497   0.923  0.3884 -1.0619 -0.3142
 4261TIP3    H134418   3.845   1.473   0.943  0.5700  0.4993  1.0012
 4261TIP3    H234419   3.715   1.514   1.009  0.1982  2.7259 -0.9664
 4262TIP3   OH234420   1.467   0.554   1.846 -0.2272  0.2138 -0.1393
 4262TIP3    H134421   1.516   0.495   1.789 -1.0030 -0.9242  0.3138
 4262TIP3    H234422   1.531   0.585   1.910 -0.0713 -1.2887  0.4799
 4263TIP3   OH234423   2.355   2.814   8.219 -0.5414  0.0323 -0.1776
 4263TIP3    H134424   2.386   2.752   8.285  2.1812  1.1679 -0.2555
 4263TIP3    H234425   2.327   2.758   8.146  1.4620 -1.1725 -0.1061
 4264TIP3   OH234426   0.214   2.988   0.204 -0.3095  0.1929 -0.2247
 4264TIP3    H134427   0.143   2.925   0.195  0.8698 -1.1834 -0.2621
 4264TIP3    H234428   0.217   3.008   0.297 -1.2658  0.9116 -0.3357
 4265TIP3   OH234429   5.393   4.284   1.513  0.2738  0.1945  0.2776
 4265TIP3    H134430   5.328   4.224   1.550 -1.3536  1.7744  0.1634
 4265TIP3    H234431   5.442   4.232   1.450 -2.5058 -0.5402 -1.4381
 4266TIP3   OH234432   3.477   3.122   0.501 -0.8895  0.6416 -0.3053
 4266TIP3    H134433   3.385   3.124   0.525 -1.3581  2.0897 -2.0160
 4266TIP3    H234434   3.482   3.059   0.429  0.3053 -2.7927  2.4830
 4267TIP3   OH234435   5.934   6.904   7.133 -0.2601  0.2729  0.3453
 4267TIP3    H134436   5.969   6.986   7.098 -0.6408  0.1737 -0.2861
 4267TIP3    H234437   5.996   6.837   7.102 -0.2167  0.2668  0.4460
 4268TIP3   OH234438   6.422   5.826   6.811  0.0289  0.0203  0.2008
 4268TIP3    H134439   6.392   5.753   6.757  0.9324  0.7715 -1.3904
 4268TIP3    H234440   6.344   5.854   6.858 -1.2027  0.2841 -1.8805
 4269TIP3   OH234441   6.947   6.764   0.360  0.3312  0.4296 -1.0123
 4269TIP3    H134442   7.037   6.796   0.362  0.0092  1.3366  0.0550
 4269TIP3    H234443   6.918   6.768   0.451 -1.1086  1.1592 -1.4709
 4270TIP3   OH234444   3.729   3.867   6.709 -0.4122 -0.0906 -0.0910
 4270TIP3    H134445   3.697   3.953   6.682 -1.8229 -1.0304 -1.6246
 4270TIP3    H234446   3.765   3.828   6.629 -1.3514 -1.5487  0.1457
 4271TIP3   OH234447   5.562   5.633   2.738 -0.6242 -0.7895 -0.3923
 4271TIP3    H134448   5.522   5.561   2.785  1.7674 -1.3163  1.0009
 4271TIP3    H234449   5.554   5.708   2.797 -1.3338 -0.3990 -0.9747
 4272TIP3   OH234450   1.119   5.597   1.550  0.1436  0.4747  0.4783
 4272TIP3    H134451   1.087   5.516   1.511  1.5709  0.5744 -0.9915
 4272TIP3    H234452   1.056   5.663   1.523  0.8533  0.4596 -1.3538
 4273TIP3   OH234453   2.364   3.082   0.655  0.2279  0.6080 -0.2777
 4273TIP3    H134454   2.458   3.098   0.653  0.3488 -0.1208 -0.8472
 4273TIP3    H234455   2.343   3.049   0.567 -0.2969 -0.6460  0.2933
 4274TIP3   OH234456   4.683   6.968   0.827  0.2512 -0.8041 -0.1128
 4274TIP3    H134457   4.589   6.965   0.843 -0.2056 -2.4339 -2.5236
 4274TIP3    H234458   4.708   7.058   0.849 -1.5934 -0.6395  1.6858
 4275TIP3   OH234459   2.080   6.054   8.266  0.3469 -0.1520  0.2054
 4275TIP3    H134460   2.115   6.111   8.335 -0.1074  0.9651 -0.4631
 4275TIP3    H234461   2.150   6.051   8.200  0.8349 -1.3272  0.7403
 4276TIP3   OH234462   3.206   5.911   7.321 -0.0733  0.0359 -0.5108
 4276TIP3    H134463   3.267   5.978   7.291 -0.4277  0.6713  0.1410
 4276TIP3    H234464   3.253   5.828   7.312  0.0326  0.2433 -2.2497
 4277TIP3   OH234465   3.478   6.121   0.010 -0.1913 -0.8994 -0.1276
 4277TIP3    H134466   3.394   6.101   0.051  1.3315 -0.2251  3.7314
 4277TIP3    H234467   3.469   6.211  -0.022 -0.8884 -0.7589  0.4491
 4278TIP3   OH234468   1.717   5.823   6.994  0.1429  0.4267  0.2081
 4278TIP3    H134469   1.672   5.893   7.041  0.5272 -0.7847  2.5407
 4278TIP3    H234470   1.810   5.838   7.011  0.3188  0.1244 -0.4400
 4279TIP3   OH234471   0.523   2.973   1.544  0.1043 -0.1979 -0.1759
 4279TIP3    H134472   0.468   2.967   1.466 -0.2653  0.5235  0.0270
 4279TIP3    H234473   0.613   2.981   1.511  0.0960 -1.3050 -0.5081
 4280TIP3   OH234474   6.048   2.690   0.958 -0.5625 -0.1089 -0.1782
 4280TIP3    H134475   6.109   2.631   0.914 -0.1267 -0.3433  0.7134
 4280TIP3    H234476   6.080   2.694   1.048 -0.9313  1.0295 -0.0858
 4281TIP3   OH234477   3.702   6.112   8.102  0.1351 -0.2502 -0.3336
 4281TIP3    H134478   3.691   6.043   8.167  0.7579 -1.2298 -1.2594
 4281TIP3    H234479   3.616   6.119   8.060 -0.0061 -0.2539 -0.0519
 4282TIP3   OH234480   5.282   3.983   7.777 -0.8297  0.0032  0.2762
 4282TIP3    H134481   5.274   4.026   7.692 -1.5600 -0.1258  0.2761
 4282TIP3    H234482   5.241   3.898   7.766  0.9084 -0.8754  0.1814
 4283TIP3   OH234483   3.283   2.805   1.604  0.2327 -0.0206  0.6774
 4283TIP3    H134484   3.313   2.841   1.688  1.5466 -0.1531  0.2912
 4283TIP3    H234485   3.233   2.876   1.564  1.3856  0.8157  0.6578
 4284TIP3   OH234486   5.193   1.339   8.384  0.0558 -0.1697 -0.1224
 4284TIP3    H134487   5.123   1.345   8.449 -0.9431 -0.9457 -1.0704
 4284TIP3    H234488   5.241   1.260   8.406  3.7478  2.6503  3.3697
 4285TIP3   OH234489   0.615   2.562   1.761 -0.6252  0.4168  0.2622
 4285TIP3    H134490   0.664   2.530   1.685 -2.0647 -0.8540 -0.1638
 4285TIP3    H234491   0.566   2.637   1.728 -0.6783  0.3204  0.1192
 4286TIP3   OH234492   6.113   2.740   1.218  0.4076  0.1310  0.3164
 4286TIP3    H134493   6.118   2.681   1.293  3.4967  0.6827  0.6691
 4286TIP3    H234494   6.055   2.811   1.248 -1.9572 -1.7500  0.4900
 4287TIP3   OH234495   6.091   0.460   2.181  1.0438 -0.2974 -0.3948
 4287TIP3    H134496   6.162   0.525   2.176  0.9563 -0.2649 -1.6857
 4287TIP3    H234497   6.076   0.435   2.090  0.4358 -1.4504  0.0107
 4288TIP3   OH234498   3.663   5.275   7.957 -0.3318 -0.0683 -0.3903
 4288TIP3    H134499   3.580   5.292   8.002  0.0528 -1.5205  0.9261
 4288TIP3    H234500   3.729   5.315   8.014 -0.1181  1.5916 -1.7184
 4289TIP3   OH234501   1.872   3.357   5.846  0.0738 -0.6567 -1.0795
 4289TIP3    H134502   1.799   3.380   5.903 -0.2996 -0.3272 -1.6760
 4289TIP3    H234503   1.928   3.301   5.900  0.7763  1.2299  0.2494
 4290TIP3   OH234504   4.441   0.049   7.501  0.2461 -0.8393 -0.5295
 4290TIP3    H134505   4.507   0.025   7.436  0.5698  0.7021 -0.8225
 4290TIP3    H234506   4.375  -0.019   7.495  0.2337 -0.7158 -2.5336
 4291TIP3   OH234507   1.513   0.798   0.701  0.4588 -0.7991  0.1552
 4291TIP3    H134508   1.459   0.842   0.636 -0.3904 -0.8742  0.8033
 4291TIP3    H234509   1.491   0.705   0.693 -0.7639 -0.6635  1.5381
 4292TIP3   OH234510   4.845   3.442   0.766 -0.1637 -0.1988  0.0458
 4292TIP3    H134511   4.764   3.444   0.817 -0.4592  2.0433 -0.4247
 4292TIP3    H234512   4.825   3.387   0.691 -1.5772  1.0445 -0.5273
 4293TIP3   OH234513   3.998   5.715   1.369 -0.8828 -0.0733  0.4149
 4293TIP3    H134514   3.978   5.793   1.318 -0.1498  0.0623  0.3240
 4293TIP3    H234515   3.950   5.727   1.451 -0.3750  0.7191  0.6078
 4294TIP3   OH234516   4.103   1.459   2.088 -0.4568 -0.4386  0.0054
 4294TIP3    H134517   4.100   1.552   2.067 -1.9751 -0.3610  0.4222
 4294TIP3    H234518   4.047   1.418   2.023 -0.6835 -0.9129  0.4927
 4295TIP3   OH234519   6.921   2.852   1.573 -0.4216  0.3521  0.1086
 4295TIP3    H134520   6.891   2.921   1.633 -2.8083 -1.4085  1.0985
 4295TIP3    H234521   7.009   2.830   1.605 -0.2403  1.8317  0.7396
 4296TIP3   OH234522   1.930   5.985   0.098 -0.0034  0.1705  0.3272
 4296TIP3    H134523   1.971   6.047   0.039  1.9425  0.4207  1.8262
 4296TIP3    H234524   1.838   6.012   0.101 -0.1371  0.2458 -2.3530
 4297TIP3   OH234525   5.825   6.815   1.602 -0.2942 -0.1947 -0.8046
 4297TIP3    H134526   5.892   6.819   1.671 -0.3882  0.3734 -0.7458
 4297TIP3    H234527   5.813   6.905   1.574 -0.7451 -0.3418 -1.1022
 4298TIP3   OH234528   0.033   0.704   1.577  0.1067 -0.3902 -0.1532
 4298TIP3    H134529  -0.048   0.669   1.613  0.3826 -0.7290  0.1521
 4298TIP3    H234530   0.097   0.634   1.590  0.7717  0.3787  0.8288
 4299TIP3   OH234531   6.967   0.646   6.485 -0.0423 -0.0181 -0.0400
 4299TIP3    H134532   7.030   0.657   6.414 -0.1532 -1.5618 -0.4213
 4299TIP3    H234533   7.012   0.590   6.548 -0.9976 -1.1348 -0.3161
 4300TIP3   OH234534   3.365   1.705   1.991 -0.1144 -0.0358 -0.7331
 4300TIP3    H134535   3.302   1.647   1.949 -0.4252  0.7981 -1.4463
 4300TIP3    H234536   3.349   1.693   2.085 -0.8338 -0.3772 -0.8893
 4301TIP3   OH234537   2.315   6.047   0.247  0.2247  0.7948 -0.0118
 4301TIP3    H134538   2.369   6.123   0.269 -0.9641  1.7170 -0.2159
 4301TIP3    H234539   2.318   5.992   0.326  0.9905  1.0983  0.1840
 4302TIP3   OH234540   3.588   5.002   7.992  0.6114 -0.7980  0.2021
 4302TIP3    H134541   3.612   5.084   7.948 -0.1920 -1.7847 -2.2196
 4302TIP3    H234542   3.494   5.010   8.008  0.4473 -1.3983 -0.4258
 4303TIP3   OH234543   1.724   2.137   2.456  0.3428 -1.0674 -0.5378
 4303TIP3    H134544   1.703   2.069   2.520  0.1383  2.1514  3.1900
 4303TIP3    H234545   1.820   2.143   2.459  0.2500  1.9921  3.2089
 4304TIP3   OH234546   0.958   1.626   7.165  0.8174  0.3066  0.1314
 4304TIP3    H134547   1.019   1.605   7.236 -1.6072 -0.6015  2.0954
 4304TIP3    H234548   0.872   1.610   7.202 -0.6924  1.9069 -2.3831
 4305TIP3   OH234549   6.525   4.585   8.034  0.3193 -0.2091  0.7236
 4305TIP3    H134550   6.470   4.535   8.093 -0.3813 -1.3508 -0.8502
 4305TIP3    H234551   6.481   4.581   7.949  1.8032  0.5137 -0.1343
 4306TIP3   OH234552   0.858   3.870   8.175 -0.6990 -0.2842 -0.6456
 4306TIP3    H134553   0.881   3.784   8.141  1.0445  0.0539 -0.4336
 4306TIP3    H234554   0.886   3.931   8.106  1.1511  0.2802  0.5241
 4307TIP3   OH234555   2.451   2.004   7.914  0.0548  0.0150 -0.0616
 4307TIP3    H134556   2.357   2.016   7.925  0.1158  0.6378 -0.2044
 4307TIP3    H234557   2.466   1.913   7.939 -0.4340  0.1995  0.9584
 4308TIP3   OH234558   1.649   3.607   0.326 -0.1597  0.0411  0.0540
 4308TIP3    H134559   1.671   3.575   0.239  1.7252  0.7286  0.2151
 4308TIP3    H234560   1.668   3.701   0.322 -0.5631  0.1811  1.0484
 4309TIP3   OH234561   2.972   6.617   7.221  0.1907 -0.3721  0.7973
 4309TIP3    H134562   2.914   6.627   7.145  0.4118  1.7875  0.8511
 4309TIP3    H234563   2.913   6.621   7.296  0.1025 -1.2373  0.7762
 4310TIP3   OH234564   6.631   4.891   2.292 -0.1733  0.1548  0.1150
 4310TIP3    H134565   6.623   4.826   2.362  0.0514 -0.5617 -0.5051
 4310TIP3    H234566   6.725   4.905   2.282  0.0104 -1.8184 -1.8395
 4311TIP3   OH234567   5.382   5.329   1.081  0.1413 -0.1013 -0.1663
 4311TIP3    H134568   5.400   5.417   1.113 -0.4884 -0.1557  0.3888
 4311TIP3    H234569   5.465   5.297   1.047  0.8743 -0.0362  1.4674
 4312TIP3   OH234570   1.896   4.708   7.579  0.1762  0.0413 -0.1023
 4312TIP3    H134571   1.835   4.734   7.509  0.0336  0.7238  0.2717
 4312TIP3    H234572   1.951   4.785   7.593  0.0968 -0.0322  0.6485
 4313TIP3   OH234573   6.853   5.485   8.310 -0.1777  0.0310 -1.1278
 4313TIP3    H134574   6.800   5.435   8.372  0.3793  0.4882 -0.2743
 4313TIP3    H234575   6.792   5.548   8.272 -0.4751 -0.1030 -0.8784
 4314TIP3   OH234576   1.149   0.155   1.462  0.5345  0.5399 -0.0319
 4314TIP3    H134577   1.217   0.214   1.494 -0.0914  0.9355  0.6062
 4314TIP3    H234578   1.129   0.098   1.537 -0.3714  0.9383  0.0406
 4315TIP3   OH234579   2.866   3.458   0.559 -0.1777 -0.0230 -0.0103
 4315TIP3    H134580   2.775   3.439   0.539 -0.1026  0.2563 -0.6295
 4315TIP3    H234581   2.904   3.486   0.476  0.0375  1.5385  0.5784
 4316TIP3   OH234582   0.337   5.301   8.133 -0.3359 -0.6504  0.0899
 4316TIP3    H134583   0.426   5.266   8.125  0.3006  1.2525 -2.0079
 4316TIP3    H234584   0.296   5.245   8.199  2.0241 -2.3358  0.2710
 4317TIP3   OH234585   6.380   3.446   0.064  0.0152  0.1916  0.2858
 4317TIP3    H134586   6.438   3.385   0.110  1.0752 -1.3981 -2.8948
 4317TIP3    H234587   6.310   3.390   0.030  0.7362  0.7212 -2.2793
 4318TIP3   OH234588   4.205   6.037   1.346 -0.1990  0.0452 -0.4389
 4318TIP3    H134589   4.190   5.945   1.367 -1.2952  0.2853 -0.0909
 4318TIP3    H234590   4.145   6.055   1.273  0.6481  0.2649 -1.0953
 4319TIP3   OH234591   1.373   5.721   2.610  0.6916  0.3340 -0.2946
 4319TIP3    H134592   1.296   5.732   2.666 -0.5479 -0.6767 -1.7200
 4319TIP3    H234593   1.340   5.672   2.534  2.3134  1.5642 -1.8593
 4320TIP3   OH234594   5.071   6.366   7.931  0.1506  0.4105 -0.2048
 4320TIP3    H134595   5.069   6.272   7.911 -0.6939  0.2492  0.5593
 4320TIP3    H234596   5.081   6.408   7.845 -1.2764 -0.3306 -0.7771
 4321TIP3   OH234597   2.965   5.062   0.843 -0.2059 -0.1079 -0.0177
 4321TIP3    H134598   3.032   5.120   0.806  0.6162 -1.5078 -0.8139
 4321TIP3    H234599   2.959   5.087   0.935 -3.2605  4.4356 -1.1308
 4322TIP3   OH234600   5.553   2.238   7.204  0.4157 -0.4606  0.2664
 4322TIP3    H134601   5.643   2.238   7.171  0.1382 -0.0527 -0.5183
 4322TIP3    H234602   5.516   2.321   7.173 -0.1559 -0.5099  0.7944
 4323TIP3   OH234603   3.121   3.490   1.447 -0.0343  0.1294  0.2596
 4323TIP3    H134604   3.043   3.435   1.457  1.1899 -1.5127  1.3681
 4323TIP3    H234605   3.171   3.448   1.376  0.7197  0.0329  0.8369
 4324TIP3   OH234606   0.607   2.088   6.626 -0.0254  0.1970  0.1255
 4324TIP3    H134607   0.646   2.161   6.578  0.6189 -0.2117  0.0069
 4324TIP3    H234608   0.587   2.024   6.558  0.8279 -0.3590  0.3805
 4325TIP3   OH234609   4.215   5.071   1.173  0.2310  0.9537 -0.0643
 4325TIP3    H134610   4.294   5.098   1.127  1.5364 -0.2229  1.3576
 4325TIP3    H234611   4.163   5.025   1.107  1.3595  0.5950 -0.7401
 4326TIP3   OH234612   4.471   0.803   1.474  0.3193  0.1226 -0.2804
 4326TIP3    H134613   4.524   0.729   1.444 -0.0198  0.1825 -1.0469
 4326TIP3    H234614   4.528   0.850   1.536  0.4930 -0.8322  0.3013
 4327TIP3   OH234615   4.435   6.053   7.935 -0.2496 -0.4708 -0.2871
 4327TIP3    H134616   4.521   6.044   7.894  0.4995 -0.0015  1.1204
 4327TIP3    H234617   4.411   6.145   7.922 -1.1841 -0.8793 -1.8192
 4328TIP3   OH234618   1.666   6.455   7.183 -0.0387 -0.4710 -0.3172
 4328TIP3    H134619   1.593   6.394   7.171 -1.5150  1.4064 -1.5908
 4328TIP3    H234620   1.689   6.482   7.094  0.1478  1.2399  0.2078
 4329TIP3   OH234621   6.308   1.152   0.909  0.0921 -0.0963 -0.4254
 4329TIP3    H134622   6.380   1.187   0.857 -0.5149 -2.0263 -2.7204
 4329TIP3    H234623   6.315   1.057   0.900 -1.5976 -0.4029  0.9155
 4330TIP3   OH234624   5.025   1.712   0.432 -0.0091 -0.5362  0.2020
 4330TIP3    H134625   5.089   1.725   0.501  0.1789 -0.7773  0.0757
 4330TIP3    H234626   5.050   1.630   0.390 -1.1276 -1.2771  0.9336
 4331TIP3   OH234627   5.657   3.746   1.067 -0.2553 -0.0079 -0.1086
 4331TIP3    H134628   5.611   3.787   0.994 -0.1436 -0.1661 -0.2706
 4331TIP3    H234629   5.589   3.705   1.120 -0.3995  0.6528  0.2293
 4332TIP3   OH234630   5.141   0.195   2.126 -0.3461  0.1182 -0.1265
 4332TIP3    H134631   5.197   0.141   2.182  0.4969  0.7768 -0.3187
 4332TIP3    H234632   5.135   0.279   2.172 -1.9274 -0.2034  0.3451
 4333TIP3   OH234633   3.824   4.802   7.728 -0.3980 -0.1973  0.1258
 4333TIP3    H134634   3.873   4.818   7.809 -0.6327 -0.4437  0.3172
 4333TIP3    H234635   3.794   4.712   7.736 -0.8874 -0.0453  0.0108
 4334TIP3   OH234636   4.082   5.671   7.873  0.0261  0.7283 -0.0831
 4334TIP3    H134637   4.070   5.632   7.960  1.7962 -0.9512 -0.5247
 4334TIP3    H234638   4.016   5.740   7.868 -2.0319 -0.9898  1.5227
 4335TIP3   OH234639   3.323   2.559   2.521  0.7316  0.4408 -0.0879
 4335TIP3    H134640   3.373   2.584   2.598 -1.8933 -1.0425  2.3079
 4335TIP3    H234641   3.233   2.585   2.541  0.0754  0.9611 -3.1716
 4336TIP3   OH234642   5.203   0.743   7.220 -0.1396 -0.0693  0.0943
 4336TIP3    H134643   5.156   0.819   7.185  0.1745  0.0601 -0.0446
 4336TIP3    H234644   5.253   0.778   7.294 -0.8057 -0.3425  0.6857
 4337TIP3   OH234645   5.167   5.543   7.310  0.9588  0.6676  0.4596
 4337TIP3    H134646   5.114   5.555   7.231 -1.4659 -0.2432  1.8489
 4337TIP3    H234647   5.137   5.612   7.370  1.4321  0.2216  1.2279
 4338TIP3   OH234648   0.369   4.629   7.979  0.0372 -0.3894  0.8719
 4338TIP3    H134649   0.438   4.672   7.929 -1.5951 -1.3570 -2.5056
 4338TIP3    H234650   0.310   4.700   8.005 -0.5655 -0.0540 -1.2027
 4339TIP3   OH234651   4.253   6.188   1.745 -0.3841  0.4833  1.0732
 4339TIP3    H134652   4.309   6.166   1.820 -2.0645  1.4503  2.6943
 4339TIP3    H234653   4.197   6.112   1.734  1.0659 -0.4281 -0.4636
 4340TIP3   OH234654   2.709   5.713   0.516 -0.0367  0.2661 -0.0089
 4340TIP3    H134655   2.694   5.629   0.473  0.7817 -0.0372  0.2830
 4340TIP3    H234656   2.682   5.699   0.607  2.6107 -0.5455  0.7431
 4341TIP3   OH234657   6.018   0.335   1.937  0.7405  0.0607 -0.4898
 4341TIP3    H134658   6.104   0.295   1.950  0.5156  0.1821  1.7690
 4341TIP3    H234659   5.961   0.263   1.911  0.4825 -1.1392  2.9041
 4342TIP3   OH234660   4.747   1.918   7.604 -0.1597  0.3522 -0.4596
 4342TIP3    H134661   4.732   1.830   7.638 -1.7190  1.0260  0.7050
 4342TIP3    H234662   4.756   1.905   7.509  1.2349 -1.2187 -0.1554
 4343TIP3   OH234663   2.564   1.341   0.314 -0.0181 -0.1171 -0.3015
 4343TIP3    H134664   2.562   1.364   0.221  0.4354  0.3557 -0.2051
 4343TIP3    H234665   2.580   1.247   0.315  1.5166  0.1114 -0.7058
 4344TIP3   OH234666   2.958   3.535   0.298  0.8018 -0.6608  0.1242
 4344TIP3    H134667   2.936   3.469   0.232  0.2475  0.3595 -0.7369
 4344TIP3    H234668   2.953   3.619   0.252 -0.4286  0.1564  1.6505
 4345TIP3   OH234669   2.408   6.766   8.114 -0.0825 -0.3640  0.5706
 4345TIP3    H134670   2.447   6.798   8.033 -2.4409  3.9830  0.8049
 4345TIP3    H234671   2.314   6.785   8.104 -0.3611  1.3680  4.5907
 4346TIP3   OH234672   3.404   4.691   7.144  0.7072  0.0920  0.1690
 4346TIP3    H134673   3.493   4.675   7.113  0.2598  0.6224 -1.4489
 4346TIP3    H234674   3.348   4.643   7.083 -0.1094 -1.0472  1.7257
 4347TIP3   OH234675   0.430   1.740   0.701  0.2328 -0.2524  0.0811
 4347TIP3    H134676   0.388   1.811   0.652 -0.1901 -1.4289 -1.3220
 4347TIP3    H234677   0.523   1.763   0.701 -0.0553  1.0804  1.0390
 4348TIP3   OH234678   5.986   1.489   1.873  0.3172  0.8593  0.6233
 4348TIP3    H134679   6.055   1.532   1.922 -1.1687  2.9308  1.0455
 4348TIP3    H234680   5.971   1.407   1.920  0.2558  1.8991  2.5272
 4349TIP3   OH234681   2.063   2.239   8.047  0.2256 -0.0608 -0.0886
 4349TIP3    H134682   2.044   2.332   8.032 -1.4298 -0.6153 -1.7518
 4349TIP3    H234683   2.141   2.222   7.995 -0.8450 -0.1063 -1.7542
 4350TIP3   OH234684   6.630   2.957   8.015  0.4987  0.2322  0.6744
 4350TIP3    H134685   6.643   2.918   7.929  0.9374  0.3797  0.6736
 4350TIP3    H234686   6.609   2.882   8.072  0.7194  0.0715  0.5464
 4351TIP3   OH234687   1.224   1.701   1.507  0.3518 -0.4307 -0.1776
 4351TIP3    H134688   1.139   1.728   1.544 -0.0758  0.5048 -1.7629
 4351TIP3    H234689   1.261   1.643   1.574 -1.5932 -0.9900  0.4947
 4352TIP3   OH234690   6.521   4.450   7.494 -0.5702  0.0469  0.2151
 4352TIP3    H134691   6.582   4.436   7.567 -0.3698 -2.2943 -0.3134
 4352TIP3    H234692   6.447   4.496   7.534  0.1162  0.0119  1.6048
 4353TIP3   OH234693   3.767   2.091   6.949 -0.1789  0.1556 -0.6513
 4353TIP3    H134694   3.822   2.071   7.025  1.5804  1.3105 -1.5516
 4353TIP3    H234695   3.685   2.044   6.966  1.4511 -2.6272  0.2286
 4354TIP3   OH234696   0.120   2.300   0.056 -0.6488 -0.7167  0.1556
 4354TIP3    H134697   0.115   2.372   0.118  2.1391 -1.0341  0.9152
 4354TIP3    H234698   0.183   2.330  -0.010  1.2006 -2.6767  0.9258
 4355TIP3   OH234699   3.928   4.709   2.309 -0.5075 -0.7432 -0.0464
 4355TIP3    H134700   3.951   4.802   2.302 -0.9921 -0.5602  0.6395
 4355TIP3    H234701   3.853   4.699   2.250 -0.9329 -0.5210  0.4477
 4356TIP3   OH234702   3.882   6.567   0.722  0.2256  0.3380 -0.4478
 4356TIP3    H134703   3.892   6.472   0.722  1.0916  0.4152  0.6361
 4356TIP3    H234704   3.964   6.600   0.757 -0.0975  1.4953 -0.7393
 4357TIP3   OH234705   0.663   4.304   6.609  0.1496  1.0163 -0.6832
 4357TIP3    H134706   0.610   4.383   6.624  0.5941  1.0697  0.7606
 4357TIP3    H234707   0.604   4.231   6.629  0.8147  1.0868  1.9738
 4358TIP3   OH234708   4.653   4.418   1.508 -0.3543 -0.8265  0.8507
 4358TIP3    H134709   4.722   4.485   1.515 -1.5426  0.4290  0.8695
 4358TIP3    H234710   4.653   4.393   1.416  0.3702 -1.1102  0.9218
 4359TIP3   OH234711   4.051   2.842   6.778  0.6721 -0.3392 -0.4242
 4359TIP3    H134712   4.058   2.907   6.708  0.1378 -0.8259 -0.9479
 4359TIP3    H234713   4.138   2.803   6.783  1.4042  1.3508  0.8541
 4360TIP3   OH234714   1.315   1.477   1.631 -0.2091 -0.1340 -0.5526
 4360TIP3    H134715   1.353   1.390   1.639  0.9412  0.4427  0.7533
 4360TIP3    H234716   1.365   1.531   1.692 -1.0551  1.3957 -1.1363
 4361TIP3   OH234717   0.241   0.686   7.383  0.1207 -0.4560  0.2235
 4361TIP3    H134718   0.177   0.640   7.438 -1.5687  0.3324 -1.0156
 4361TIP3    H234719   0.201   0.690   7.297  2.7803 -1.8372 -1.2165
 4362TIP3   OH234720   5.380   3.263   1.032  0.6639 -0.3250 -0.2368
 4362TIP3    H134721   5.337   3.348   1.042  1.0373 -0.2252  0.6056
 4362TIP3    H234722   5.394   3.255   0.938  1.6709  1.0868 -0.2446
 4363TIP3   OH234723   6.347   1.646   2.217  0.4241 -0.0593 -0.1645
 4363TIP3    H134724   6.273   1.650   2.157  0.3127 -0.4379 -0.0568
 4363TIP3    H234725   6.401   1.574   2.184  0.6548  0.0980 -0.1383
 4364TIP3   OH234726   4.523   1.721   1.167 -0.7013 -0.1153  0.2249
 4364TIP3    H134727   4.534   1.743   1.075 -0.9326 -0.3504  0.1412
 4364TIP3    H234728   4.612   1.718   1.202 -0.6613  1.2704  0.3135
 4365TIP3   OH234729   5.792   0.171   0.524 -1.3856 -0.3682 -0.6760
 4365TIP3    H134730   5.769   0.261   0.546  0.5980  0.3615 -1.3934
 4365TIP3    H234731   5.805   0.128   0.609  1.0110  0.9933 -0.2612
 4366TIP3   OH234732   4.605   5.292   1.600  0.9524 -0.6206 -0.2557
 4366TIP3    H134733   4.625   5.199   1.611 -1.5294 -0.9796  2.3966
 4366TIP3    H234734   4.540   5.294   1.530  1.4328 -0.8031 -0.7120
 4367TIP3   OH234735   2.074   5.735   6.448 -1.3857 -0.2755 -0.3569
 4367TIP3    H134736   2.126   5.735   6.367  1.4587 -0.8042  1.3355
 4367TIP3    H234737   2.073   5.827   6.475  0.1625 -0.4524  0.4218
 4368TIP3   OH234738   1.435   0.028   8.140 -0.7971 -0.3643 -0.2243
 4368TIP3    H134739   1.343   0.057   8.140 -1.0232 -1.0591  0.0573
 4368TIP3    H234740   1.444  -0.024   8.060 -0.9267 -1.1262  0.2456
 4369TIP3   OH234741   2.379   2.832   2.039  0.1554 -0.5691  0.2899
 4369TIP3    H134742   2.298   2.883   2.052  0.4870 -0.0566  0.3750
 4369TIP3    H234743   2.366   2.789   1.954  0.6205  1.1213 -0.6761
 4370TIP3   OH234744   6.353   4.894   0.395  0.2902 -0.1097 -0.1417
 4370TIP3    H134745   6.359   4.818   0.452  1.5873 -0.2923 -0.4879
 4370TIP3    H234746   6.443   4.923   0.383  0.0156  0.2660 -1.6403
 4371TIP3   OH234747   4.686   0.833   0.227  0.3886  0.0051  0.5747
 4371TIP3    H134748   4.764   0.780   0.245  0.6845  0.9340  2.1451
 4371TIP3    H234749   4.638   0.835   0.309 -1.5919 -0.9514 -0.4821
 4372TIP3   OH234750   4.920   2.008   2.882 -0.2183  0.3356  0.3526
 4372TIP3    H134751   4.849   1.982   2.941  0.5274 -3.4094 -0.1495
 4372TIP3    H234752   4.878   2.013   2.796 -0.0666 -1.4136  0.1334
 4373TIP3   OH234753   2.607   6.875   6.934  0.4495  0.3660 -0.3766
 4373TIP3    H134754   2.667   6.803   6.913 -0.7682 -0.9983  0.6323
 4373TIP3    H234755   2.542   6.874   6.864  0.4927  0.5617 -0.4207
 4374TIP3   OH234756   5.369   6.446   7.369 -0.1183 -1.1365  0.2181
 4374TIP3    H134757   5.461   6.427   7.387 -0.1701 -1.5350  0.0848
 4374TIP3    H234758   5.357   6.537   7.394  0.9680 -0.2455 -2.1680
 4375TIP3   OH234759   0.171   6.091   8.203 -0.2865 -1.4134 -0.8176
 4375TIP3    H134760   0.081   6.119   8.217 -0.4114 -1.8856 -0.6559
 4375TIP3    H234761   0.167   5.995   8.205  0.3109 -1.4379 -0.1523
 4376TIP3   OH234762   2.698   6.646   0.857  0.2295  0.6450 -0.2607
 4376TIP3    H134763   2.770   6.666   0.917 -0.7119  1.4938  0.6213
 4376TIP3    H234764   2.622   6.635   0.914 -0.1074 -1.6107 -1.0540
 4377TIP3   OH234765   4.706   5.844   7.850  0.0471  0.5752  0.2754
 4377TIP3    H134766   4.642   5.798   7.795  0.2034  2.5167 -1.6613
 4377TIP3    H234767   4.729   5.780   7.917 -1.5392 -1.2993 -0.8386
 4378TIP3   OH234768   3.244   6.419   2.161 -0.0987 -0.1771 -0.2588
 4378TIP3    H134769   3.192   6.498   2.176 -1.6086 -1.3306  0.9944
 4378TIP3    H234770   3.324   6.434   2.212 -1.4696 -0.4384  2.1151
 4379TIP3   OH234771   3.145   6.890   7.321  0.3062  0.0601  0.6529
 4379TIP3    H134772   3.066   6.923   7.278 -0.2359 -0.6994  1.0274
 4379TIP3    H234773   3.140   6.795   7.310  2.1984  0.1113 -1.0444
 4380TIP3   OH234774   2.829   1.039   0.953  0.8475  0.4366  0.0076
 4380TIP3    H134775   2.770   1.104   0.990  0.5988 -0.1254  0.6249
 4380TIP3    H234776   2.860   0.989   1.028 -0.2175 -1.1874 -0.5743
 4381TIP3   OH234777   3.721   3.312   1.553  0.3662  0.9441  0.4714
 4381TIP3    H134778   3.703   3.231   1.507 -0.5138  0.2760  1.9091
 4381TIP3    H234779   3.779   3.361   1.495 -1.1762  0.4454 -1.6023
 4382TIP3   OH234780   3.669   0.293   0.264 -0.0365 -0.2484  0.1444
 4382TIP3    H134781   3.665   0.321   0.355 -0.1889 -0.3312  0.1639
 4382TIP3    H234782   3.579   0.299   0.233  0.0012 -0.2992  0.0235
 4383TIP3   OH234783   3.759   0.012   6.449 -0.2680 -0.0097 -0.2344
 4383TIP3    H134784   3.703  -0.037   6.510 -0.6692  0.3031 -0.3497
 4383TIP3    H234785   3.756   0.102   6.481  2.4353 -0.4028  1.4694
 4384TIP3   OH234786   1.777   2.421   2.363  0.3610  0.2056  0.5344
 4384TIP3    H134787   1.734   2.486   2.420 -0.9682  0.5798 -0.8404
 4384TIP3    H234788   1.774   2.340   2.413 -0.1540  0.6820  1.3026
 4385TIP3   OH234789   3.637   3.110   1.403 -0.1889  0.2351 -0.8909
 4385TIP3    H134790   3.698   3.125   1.331  1.0499  0.1816  0.1275
 4385TIP3    H234791   3.586   3.033   1.375  0.9882 -0.4282 -1.2586
 4386TIP3   OH234792   4.852   3.155   8.374 -0.1192 -0.2723 -0.0561
 4386TIP3    H134793   4.891   3.163   8.287  0.0823 -0.2838  0.0334
 4386TIP3    H234794   4.765   3.193   8.364 -0.1085 -0.3024 -0.2715
 4387TIP3   OH234795   0.740   3.265   6.912 -0.0204  0.6365  0.8736
 4387TIP3    H134796   0.737   3.235   6.822  0.6298  0.9551  0.7404
 4387TIP3    H234797   0.657   3.237   6.950  0.1237 -0.3718  0.4599
 4388TIP3   OH234798   1.965   3.204   6.094 -0.2545 -0.2241 -0.0963
 4388TIP3    H134799   2.003   3.290   6.112 -0.5626 -0.1739  0.3367
 4388TIP3    H234800   1.890   3.198   6.153 -0.7163 -0.4660 -0.7025
 4389TIP3   OH234801   1.255   3.641   0.332 -0.1256  0.6333 -0.3652
 4389TIP3    H134802   1.310   3.565   0.310  0.6308  0.5468  1.6429
 4389TIP3    H234803   1.300   3.684   0.404 -2.2201  1.1053  0.7560
 4390TIP3   OH234804   1.130   6.177   0.358 -0.2305 -0.8626 -0.1143
 4390TIP3    H134805   1.219   6.158   0.328 -0.3464  0.9456 -1.8548
 4390TIP3    H234806   1.142   6.240   0.429 -0.1191 -0.3042 -0.6221
 4391TIP3   OH234807   4.570   4.567   7.740  0.2666  0.3251 -0.3172
 4391TIP3    H134808   4.654   4.525   7.759 -0.5657 -1.4783 -0.4440
 4391TIP3    H234809   4.586   4.619   7.661  1.5981  1.1199  0.4455
 4392TIP3   OH234810   6.122   1.369   8.200  0.0816  0.0788  0.1015
 4392TIP3    H134811   6.039   1.413   8.182  1.3829  2.5944 -0.2057
 4392TIP3    H234812   6.115   1.284   8.155 -2.4957 -0.0483  0.5963
 4393TIP3   OH234813   4.989   5.065   6.768 -0.1976 -0.0306  0.1722
 4393TIP3    H134814   4.928   5.025   6.706  0.2228 -1.3541  0.5875
 4393TIP3    H234815   5.042   5.124   6.714  0.4516 -1.4866 -0.8146
 4394TIP3   OH234816   6.736   5.883   6.419  0.5954  0.1011  0.5195
 4394TIP3    H134817   6.676   5.948   6.456 -0.6918 -0.2593 -0.8091
 4394TIP3    H234818   6.685   5.841   6.350  2.5374  0.0687 -0.9840
 4395TIP3   OH234819   0.327   2.885   1.312 -0.6478  0.6683 -0.0568
 4395TIP3    H134820   0.317   2.808   1.256 -0.5144  1.0083 -0.5528
 4395TIP3    H234821   0.309   2.959   1.254 -1.7749  0.9720  0.6589
 4396TIP3   OH234822   1.265   1.612   0.191 -0.0585 -0.4746 -0.2317
 4396TIP3    H134823   1.353   1.646   0.206 -0.0342 -0.0274 -1.2969
 4396TIP3    H234824   1.237   1.578   0.277  0.2009  1.5502  0.7135
 4397TIP3   OH234825   2.910   0.231   7.192  0.3687 -0.1159  0.1639
 4397TIP3    H134826   2.849   0.305   7.194  1.9425  1.2284  1.6636
 4397TIP3    H234827   2.939   0.227   7.101 -0.7663  0.2197 -0.2295
 4398TIP3   OH234828   4.258   4.506   6.909  0.1879  0.3932  0.3672
 4398TIP3    H134829   4.336   4.551   6.876 -0.1001  0.3109 -0.4547
 4398TIP3    H234830   4.265   4.513   7.004  3.3198 -3.0698  0.6270
 4399TIP3   OH234831   5.187   2.688   0.499  0.3872  0.8729 -0.1357
 4399TIP3    H134832   5.209   2.708   0.409  0.6063  1.6042  0.0733
 4399TIP3    H234833   5.136   2.607   0.494 -1.9577  2.3147 -1.1919
 4400TIP3   OH234834   4.153   2.777   0.421 -0.0961  0.3069  0.9210
 4400TIP3    H134835   4.105   2.796   0.340 -1.4877 -1.2483  1.3146
 4400TIP3    H234836   4.230   2.728   0.392  0.1019  0.9022  0.4360
 4401TIP3   OH234837   3.479   4.290   0.766 -0.7828  0.0578 -0.2632
 4401TIP3    H134838   3.489   4.214   0.824  1.2174 -0.1700 -0.8191
 4401TIP3    H234839   3.569   4.318   0.748 -1.4617  2.8403  0.2583
 4402TIP3   OH234840   2.891   4.829   7.822  0.4844 -0.1989  0.2469
 4402TIP3    H134841   2.799   4.819   7.843  0.2762  0.8388 -0.1166
 4402TIP3    H234842   2.894   4.830   7.726  0.7645  0.5487  0.2530
 4403TIP3   OH234843   5.893   0.269   6.546  0.5625 -0.0693 -0.4331
 4403TIP3    H134844   5.893   0.217   6.466  3.2058 -0.4951 -0.2369
 4403TIP3    H234845   5.865   0.356   6.518 -0.9967 -0.8054 -1.3099
 4404TIP3   OH234846   5.789   6.267   7.598  1.3141  0.0073  0.0474
 4404TIP3    H134847   5.826   6.306   7.678  3.6430  1.1298 -1.4763
 4404TIP3    H234848   5.788   6.173   7.617 -1.7388  0.3881  2.7161
 4405TIP3   OH234849   2.708   2.687   0.463  0.1626  0.3694  0.5165
 4405TIP3    H134850   2.800   2.708   0.479  0.6716 -0.2314 -1.3474
 4405TIP3    H234851   2.688   2.616   0.524  1.3840 -0.4907 -0.0489
 4406TIP3   OH234852   6.618   3.741   7.053  0.2414  0.4337 -0.0391
 4406TIP3    H134853   6.563   3.800   7.001 -0.1155 -0.8938 -1.2269
 4406TIP3    H234854   6.705   3.746   7.012  0.2676  0.3085 -0.0006
 4407TIP3   OH234855   5.009   2.557   1.779  1.3844 -0.4468  0.3586
 4407TIP3    H134856   4.951   2.511   1.717  0.5274  0.3245  0.5775
 4407TIP3    H234857   5.075   2.597   1.723  1.3065 -0.7525  0.0401
 4408TIP3   OH234858   1.435   1.946   1.857  0.5338 -0.3322  0.1720
 4408TIP3    H134859   1.505   1.905   1.907  0.1828 -0.7420  0.3283
 4408TIP3    H234860   1.458   2.039   1.856  2.2746 -0.7331 -1.7005
 4409TIP3   OH234861   4.249   0.749   1.806  0.2103 -0.0058  0.1351
 4409TIP3    H134862   4.325   0.737   1.863 -0.6280 -0.4431  1.1867
 4409TIP3    H234863   4.217   0.661   1.789 -0.5663  0.2174  0.4036
 4410TIP3   OH234864   6.076   4.775   2.609  0.4830 -0.4317 -0.1345
 4410TIP3    H134865   5.988   4.784   2.571 -0.4692  0.4348  2.0959
 4410TIP3    H234866   6.095   4.682   2.605  0.0577 -0.4700 -1.8664
 4411TIP3   OH234867   2.092   3.411   7.504  0.0378  0.4987  0.1500
 4411TIP3    H134868   2.069   3.319   7.498 -0.7822  0.6690  0.5761
 4411TIP3    H234869   2.157   3.424   7.435  0.7862 -0.5826  0.6237
 4412TIP3   OH234870   4.362   2.516   0.092  0.0528  0.4608  0.0495
 4412TIP3    H134871   4.267   2.519   0.087  0.1310  2.2211 -3.7299
 4412TIP3    H234872   4.385   2.578   0.162 -1.5430  1.0903  0.0485
 4413TIP3   OH234873   2.807   6.639   0.111 -0.4496 -0.5068 -0.0104
 4413TIP3    H134874   2.717   6.615   0.135 -0.4458  0.1850  0.7363
 4413TIP3    H234875   2.807   6.638   0.015 -1.2778 -0.4353 -0.0210
 4414TIP3   OH234876   1.887   4.186   7.075 -0.2654 -0.3943 -0.5819
 4414TIP3    H134877   1.917   4.168   7.164 -2.0807 -0.3881  0.0806
 4414TIP3    H234878   1.964   4.170   7.020  1.2304  0.6765  1.0706
 4415TIP3   OH234879   5.320   6.908   2.115 -0.2948 -0.0331  0.0556
 4415TIP3    H134880   5.361   6.822   2.102  1.5003  0.6860  0.6978
 4415TIP3    H234881   5.385   6.958   2.164 -2.5759  0.6741  2.5692
 4416TIP3   OH234882   0.736   2.257   7.629 -0.7297  0.6688 -0.5528
 4416TIP3    H134883   0.697   2.170   7.620 -1.9783  0.7010  3.0807
 4416TIP3    H234884   0.829   2.240   7.645 -0.9663 -0.0332  0.1389
 4417TIP3   OH234885   4.653   6.189   1.798  0.4265 -0.0660 -0.5098
 4417TIP3    H134886   4.583   6.187   1.863 -0.6826 -0.7259 -1.6605
 4417TIP3    H234887   4.657   6.099   1.764 -0.2109  0.6135 -2.5262
 4418TIP3   OH234888   4.053   0.247   0.864  0.1873 -0.4808  0.7754
 4418TIP3    H134889   4.101   0.320   0.825 -0.5621  0.1215  0.9472
 4418TIP3    H234890   4.110   0.216   0.935  0.2231  0.3959  1.1481
 4419TIP3   OH234891   4.041   3.951   1.563  0.5747 -0.3895  0.2866
 4419TIP3    H134892   4.132   3.971   1.538  1.0625 -0.2621  2.0337
 4419TIP3    H234893   4.049   3.882   1.628 -0.5740 -0.2261  0.6225
 4420TIP3   OH234894   1.413   5.031   7.030  0.1432 -0.4360  0.4310
 4420TIP3    H134895   1.504   5.030   7.058 -0.5684  1.8847  3.3689
 4420TIP3    H234896   1.365   4.986   7.100 -1.1680  0.1418 -0.0531
 4421TIP3   OH234897   5.766   3.618   7.639 -0.0613 -0.4943 -0.2894
 4421TIP3    H134898   5.831   3.554   7.612 -1.5716 -1.4392 -1.8501
 4421TIP3    H234899   5.695   3.566   7.678 -0.5588  0.3801  0.0062
 4422TIP3   OH234900   3.100   1.438   0.697 -0.7545 -0.0069 -0.1318
 4422TIP3    H134901   3.131   1.437   0.787  1.2611 -0.7123 -0.7776
 4422TIP3    H234902   3.149   1.510   0.656 -0.8014 -0.4255 -0.9356
 4423TIP3   OH234903   6.259   5.169   0.889  0.0665  0.6700  0.0974
 4423TIP3    H134904   6.264   5.085   0.934 -4.3383  0.2000  0.2083
 4423TIP3    H234905   6.299   5.155   0.804  0.7685 -1.0677  0.6875
 4424TIP3   OH234906   2.690   0.235   7.578  0.0011 -0.1790 -0.2471
 4424TIP3    H134907   2.622   0.291   7.615 -1.0329 -1.9747  0.6849
 4424TIP3    H234908   2.648   0.150   7.566  2.3486 -1.6995  1.4300
 4425TIP3   OH234909   4.797   1.025   7.615 -0.8471 -0.0299 -0.6204
 4425TIP3    H134910   4.848   1.104   7.631  0.7704 -1.3908  1.6862
 4425TIP3    H234911   4.831   0.990   7.533  0.7880  0.0129 -0.0051
 4426TIP3   OH234912   0.032   4.329   1.586  0.2709  0.3257  0.5594
 4426TIP3    H134913  -0.053   4.372   1.583 -0.0692 -0.3488  0.1821
 4426TIP3    H234914   0.020   4.257   1.648  0.4310 -0.0283  0.1898
 4427TIP3   OH234915   0.123   0.949   8.239  0.2332 -0.3726 -0.4985
 4427TIP3    H134916   0.079   0.881   8.291  0.2150  1.1752  1.6509
 4427TIP3    H234917   0.054   1.011   8.218  0.6918  0.1861 -0.3578
 4428TIP3   OH234918   4.855   6.534   1.101 -0.3943  0.2782  0.0830
 4428TIP3    H134919   4.826   6.498   1.017  0.4163 -0.9287  0.2923
 4428TIP3    H234920   4.878   6.625   1.082 -0.1699  0.0102 -1.0141
 4429TIP3   OH234921   0.796   4.039   1.174  0.4185  0.5710  0.2549
 4429TIP3    H134922   0.775   4.133   1.176 -1.1449  0.2259  1.2396
 4429TIP3    H234923   0.826   4.019   1.262 -2.6330 -0.5278  1.1659
 4430TIP3   OH234924   1.967   6.381   0.962 -0.0371  0.3355 -0.1140
 4430TIP3    H134925   2.042   6.330   0.990  0.9145  1.5857 -0.2866
 4430TIP3    H234926   1.985   6.404   0.871  1.2784  3.7850  0.8703
 4431TIP3   OH234927   6.416   6.638   1.453 -0.6214 -0.1189  0.4517
 4431TIP3    H134928   6.425   6.619   1.546 -1.1586 -0.3003  0.4727
 4431TIP3    H234929   6.503   6.624   1.416 -0.5086 -0.4714  0.8509
 4432TIP3   OH234930   3.135   1.730   7.044  0.1646 -0.8006  0.4439
 4432TIP3    H134931   3.099   1.645   7.016  0.3559 -1.2999  1.6539
 4432TIP3    H234932   3.059   1.788   7.046  0.3228 -0.3072 -2.4433
 4433TIP3   OH234933   1.051   5.970   7.004 -0.7338  0.2058 -0.1978
 4433TIP3    H134934   0.963   5.977   7.041 -0.1490  1.0575  1.0823
 4433TIP3    H234935   1.051   6.032   6.930 -0.8217  1.2192  0.6254
 4434TIP3   OH234936   1.465   1.208   8.165  0.1244 -0.1507 -0.1412
 4434TIP3    H134937   1.496   1.159   8.241  0.6330  1.6690  0.8737
 4434TIP3    H234938   1.486   1.151   8.091 -0.0093 -1.7975  1.0044
 4435TIP3   OH234939   6.627   5.572   7.322 -0.4934  0.5877 -0.4688
 4435TIP3    H134940   6.569   5.603   7.253 -1.1770  0.2202 -0.0801
 4435TIP3    H234941   6.628   5.476   7.311 -1.6639  0.3949  0.8030
 4436TIP3   OH234942   1.435   0.084   0.566  0.5025 -0.0948  0.0826
 4436TIP3    H134943   1.478   0.115   0.646  2.1524  0.8755 -1.1149
 4436TIP3    H234944   1.449   0.154   0.502 -3.2694  0.4752 -0.3406
 4437TIP3   OH234945   4.181   1.229   1.450 -0.1138  0.4497 -0.1255
 4437TIP3    H134946   4.234   1.156   1.483 -1.5597 -0.4742  0.2573
 4437TIP3    H234947   4.122   1.251   1.522 -1.4618  0.2245 -1.1188
 4438TIP3   OH234948   1.384   3.289   6.646 -0.1914 -0.5649  0.0559
 4438TIP3    H134949   1.406   3.197   6.632  0.7170 -0.6537  1.8686
 4438TIP3    H234950   1.438   3.336   6.582 -1.1737 -1.2966 -1.3556
 4439TIP3   OH234951   1.324   3.714   1.170 -0.1363  0.0634  0.3065
 4439TIP3    H134952   1.374   3.780   1.122  0.4043 -2.1460 -2.4044
 4439TIP3    H234953   1.389   3.673   1.228  0.5450 -0.7476 -0.9794
 4440TIP3   OH234954   2.118   0.925   7.467  0.3238  0.0950 -0.4130
 4440TIP3    H134955   2.198   0.883   7.497  0.6623 -0.4783 -2.0191
 4440TIP3    H234956   2.142   0.966   7.384 -0.8331  0.6436 -0.5023
 4441TIP3   OH234957   2.737   0.546   6.980 -0.1180 -0.2748 -0.4965
 4441TIP3    H134958   2.724   0.480   6.912 -2.4465 -0.9303  0.5180
 4441TIP3    H234959   2.776   0.620   6.933 -0.2393 -1.2504 -2.2393
 4442TIP3   OH234960   6.441   4.600   1.279 -0.0739  0.6757 -0.2689
 4442TIP3    H134961   6.397   4.680   1.306 -0.8912  0.1320  0.0691
 4442TIP3    H234962   6.370   4.543   1.250  0.6213  0.5655 -1.8220
 4443TIP3   OH234963   6.723   0.853   8.224  0.2855 -0.0316  0.2070
 4443TIP3    H134964   6.686   0.839   8.137  1.5780 -0.7084 -0.2644
 4443TIP3    H234965   6.739   0.765   8.257 -0.5270  0.2169  1.2969
 4444TIP3   OH234966   0.089   5.703   7.314  0.1131 -0.6429  0.0062
 4444TIP3    H134967   0.157   5.650   7.355  0.5016 -0.3111 -0.1958
 4444TIP3    H234968   0.127   5.730   7.230  0.0649  0.2445  0.2631
 4445TIP3   OH234969   4.989   0.059   8.315  0.2855  0.3901 -0.3700
 4445TIP3    H134970   4.939  -0.021   8.303  1.3772 -0.0979 -2.1134
 4445TIP3    H234971   5.072   0.030   8.352  0.6540  0.7033 -0.9345
 4446TIP3   OH234972   2.368   1.525   0.877  0.2878 -0.2196 -0.0169
 4446TIP3    H134973   2.427   1.600   0.877 -0.8339  0.7298 -1.5516
 4446TIP3    H234974   2.422   1.453   0.842  0.8818  0.3011 -0.1973
 4447TIP3   OH234975   2.448   1.452   7.744 -0.0088 -0.4132 -0.0932
 4447TIP3    H134976   2.396   1.480   7.819  0.0326 -1.7763  0.4634
 4447TIP3    H234977   2.506   1.526   7.726 -0.5470  0.2201  0.7319
 4448TIP3   OH234978   0.884   1.928   0.209 -0.0814 -0.1456  0.4160
 4448TIP3    H134979   0.904   2.020   0.226 -0.1833  0.0076 -0.2628
 4448TIP3    H234980   0.797   1.915   0.247 -1.1954  0.7299 -1.7109
 4449TIP3   OH234981   6.489   2.533   7.568 -0.1542 -0.0741 -0.1055
 4449TIP3    H134982   6.422   2.575   7.622  0.5641 -0.9809  1.5834
 4449TIP3    H234983   6.571   2.549   7.615  0.6736  0.0652 -1.5473
 4450TIP3   OH234984   2.395   4.547   7.581  0.1971  0.6521 -0.0167
 4450TIP3    H134985   2.427   4.460   7.605 -0.1605  0.2899 -0.8059
 4450TIP3    H234986   2.464   4.584   7.526  0.5661  1.0711  0.7158
 4451TIP3   OH234987   3.633   0.950   7.876  0.5916 -0.4883 -0.5574
 4451TIP3    H134988   3.571   0.922   7.944 -1.2511  0.9821 -1.5246
 4451TIP3    H234989   3.675   0.870   7.847 -0.5597 -1.4981  0.4533
 4452TIP3   OH234990   3.706   3.759   7.392 -0.4556 -0.2399 -0.1448
 4452TIP3    H134991   3.708   3.815   7.315  0.5519 -0.1979 -0.1039
 4452TIP3    H234992   3.756   3.682   7.367 -0.8272 -0.6016  0.1960
 4453TIP3   OH234993   4.002   1.712   7.578  0.0660 -0.8987  1.0113
 4453TIP3    H134994   3.935   1.724   7.510  0.3862 -2.5240  0.3616
 4453TIP3    H234995   4.066   1.652   7.539  1.2770 -0.3494  2.0659
 4454TIP3   OH234996   1.804   5.082   6.914 -0.2309 -0.1499 -0.2172
 4454TIP3    H134997   1.890   5.063   6.949  0.0028  1.4532  0.1512
 4454TIP3    H234998   1.801   5.034   6.831  0.4850 -1.2871  0.3927
 4455TIP3   OH234999   0.198   1.959   1.526 -0.1544 -0.5392 -0.4961
 4455TIP3    H135000   0.268   1.898   1.502 -0.1335 -0.1624 -1.4541
 4455TIP3    H235001   0.209   1.972   1.620 -0.3423 -2.2275 -0.1982
 4456TIP3   OH235002   6.887   0.724   2.170 -0.3203  0.0967 -0.6838
 4456TIP3    H135003   6.970   0.765   2.191  0.7664 -1.6420 -1.3590
 4456TIP3    H235004   6.894   0.701   2.077 -1.2984 -0.6397 -0.5955
 4457TIP3   OH235005   0.412   4.256   5.733  0.3957  0.4324 -0.6104
 4457TIP3    H135006   0.328   4.293   5.760  1.1608  1.0922  0.9927
 4457TIP3    H235007   0.475   4.326   5.747  1.3900 -0.4140 -0.7257
 4458TIP3   OH235008   0.676   0.230   7.808 -0.0250 -0.1090  0.4220
 4458TIP3    H135009   0.612   0.245   7.739  1.2573  0.6131 -0.6506
 4458TIP3    H235010   0.692   0.135   7.806 -0.5797 -0.2054  0.2900
 4459TIP3   OH235011   5.999   2.810   8.437  0.0029 -0.2170  0.0785
 4459TIP3    H135012   6.015   2.762   8.356 -1.7117 -1.1279  0.2404
 4459TIP3    H235013   5.907   2.834   8.434  0.3856  1.5034  0.8590
 4460TIP3   OH235014   0.534   1.163   8.425 -0.3265  1.2470 -0.0105
 4460TIP3    H135015   0.604   1.180   8.489 -1.4330  1.4560  1.1874
 4460TIP3    H235016   0.509   1.249   8.392  0.2489  1.1388 -0.7668
 4461TIP3   OH235017   0.616   4.519   0.220  0.1539 -0.2124 -0.2977
 4461TIP3    H135018   0.691   4.468   0.251  1.1985 -0.6559 -3.1965
 4461TIP3    H235019   0.628   4.605   0.261  0.7036 -1.0433  1.3818
 4462TIP3   OH235020   0.158   2.162   7.351  0.5420  0.4554 -0.2139
 4462TIP3    H135021   0.070   2.123   7.347  0.3574  0.8201  0.2794
 4462TIP3    H235022   0.212   2.094   7.393  0.4040  0.4015 -0.1225
 4463TIP3   OH235023   1.774   2.376   8.169 -0.8003  0.1732 -0.1696
 4463TIP3    H135024   1.838   2.387   8.240 -1.0835 -1.2770  0.3440
 4463TIP3    H235025   1.814   2.421   8.094  0.2355  0.3772  0.4793
 4464TIP3   OH235026   0.695   5.496   7.106 -0.3466 -0.3863 -0.1959
 4464TIP3    H135027   0.714   5.556   7.034 -0.9219  2.3765  1.7879
 4464TIP3    H235028   0.768   5.434   7.106  2.3751  2.5663 -0.1671
 4465TIP3   OH235029   0.254   0.693   8.069  0.4806  0.3873 -0.2236
 4465TIP3    H135030   0.309   0.765   8.038  1.5107 -0.7242 -1.1273
 4465TIP3    H235031   0.268   0.623   8.005 -1.3612 -0.2453  0.0012
 4466TIP3   OH235032   4.555   5.927   1.731  0.0066  0.0440 -0.2895
 4466TIP3    H135033   4.473   5.909   1.686  0.1518 -0.6403 -0.2940
 4466TIP3    H235034   4.544   5.887   1.817 -0.5866  2.0484  0.6284
 4467TIP3   OH235035   1.228   2.724   7.682 -0.0118  0.1004 -0.2428
 4467TIP3    H135036   1.206   2.812   7.714  1.2076  0.9900 -1.7368
 4467TIP3    H235037   1.202   2.666   7.754 -0.1163  1.7381  1.1173
 4468TIP3   OH235038   6.742   1.744   6.756 -0.3855 -0.1646 -0.2611
 4468TIP3    H135039   6.815   1.682   6.759 -0.5676 -0.5698 -2.4696
 4468TIP3    H235040   6.782   1.826   6.726 -0.4440  0.3357  0.9707
 4469TIP3   OH235041   6.791   6.714   7.462 -0.5845  0.1998 -0.5665
 4469TIP3    H135042   6.878   6.737   7.431 -0.3981  0.6573  0.2699
 4469TIP3    H235043   6.731   6.750   7.396 -0.2249  1.7271 -0.0853
 4470TIP3   OH235044   5.630   1.048   7.470 -0.3978  0.4629  0.3258
 4470TIP3    H135045   5.592   1.118   7.523  1.2983  1.5866  0.1092
 4470TIP3    H235046   5.616   1.075   7.379  1.1596  1.0593  0.2424
 4471TIP3   OH235047   4.161   2.026   7.491 -0.3898 -0.1135  0.6475
 4471TIP3    H135048   4.092   2.026   7.424 -1.1185 -2.0103  1.3364
 4471TIP3    H235049   4.241   2.050   7.444 -1.1358 -0.0356 -0.6139
 4472TIP3   OH235050   6.452   0.370   2.165 -0.3814  0.4640 -0.2145
 4472TIP3    H135051   6.400   0.304   2.120 -1.3824 -0.0870  1.6295
 4472TIP3    H235052   6.418   0.454   2.133 -1.4372  0.0988 -0.0947
 4473TIP3   OH235053   0.575   6.139   0.193  0.0859  0.1137 -0.4689
 4473TIP3    H135054   0.519   6.208   0.228  0.3399 -0.6527  1.5828
 4473TIP3    H235055   0.652   6.184   0.160 -0.4101  0.9282 -0.5267
 4474TIP3   OH235056   2.526   2.508   7.560 -0.5482  0.2449 -0.1023
 4474TIP3    H135057   2.617   2.536   7.567 -0.5201 -0.1427  1.5809
 4474TIP3    H235058   2.485   2.538   7.641 -1.3491 -1.5462  0.2088
 4475TIP3   OH235059   4.937   6.818   7.028 -0.2598  0.1594 -0.1262
 4475TIP3    H135060   5.015   6.873   7.018  0.3929 -0.7440 -0.1929
 4475TIP3    H235061   4.870   6.861   6.975 -0.0097  1.3186  0.4729
 4476TIP3   OH235062   4.419   4.942   0.679  0.3848  0.1265  0.6727
 4476TIP3    H135063   4.497   4.989   0.708  0.5546  0.1209  0.2320
 4476TIP3    H235064   4.449   4.889   0.605  0.2637 -0.8967  1.3384
 4477TIP3   OH235065   2.500   0.615   0.478 -0.0479 -0.0769  0.1703
 4477TIP3    H135066   2.450   0.583   0.404 -1.4289  0.4649  0.8466
 4477TIP3    H235067   2.550   0.538   0.507  0.6061 -0.2620 -1.3596
 4478TIP3   OH235068   6.322   0.515   8.048  0.6214 -0.2854  0.1892
 4478TIP3    H135069   6.239   0.474   8.073  0.4992 -2.1913 -2.8892
 4478TIP3    H235070   6.384   0.443   8.045  1.5038  0.4935 -1.0564
 4479TIP3   OH235071   1.286   1.975   7.093 -0.7009  0.8386 -0.1299
 4479TIP3    H135072   1.286   2.037   7.020 -1.1909  1.2761  0.2415
 4479TIP3    H235073   1.212   1.916   7.076  0.0651  0.0159 -0.7526
 4480TIP3   OH235074   6.549   0.587   7.864  0.3761 -0.2757 -0.1432
 4480TIP3    H135075   6.555   0.682   7.874  1.5540 -0.4215  0.7569
 4480TIP3    H235076   6.499   0.574   7.783 -0.2291  1.0942 -0.0093
 4481TIP3   OH235077   0.659   0.455   1.183 -0.7979  0.0679  0.1100
 4481TIP3    H135078   0.661   0.381   1.123  2.6373 -0.3522  0.4844
 4481TIP3    H235079   0.686   0.530   1.130  3.2268 -0.4743  1.0255
 4482TIP3   OH235080   6.285   4.733   7.135  0.6652  0.0888 -0.0243
 4482TIP3    H135081   6.319   4.649   7.165  1.7441  0.4903 -0.0622
 4482TIP3    H235082   6.243   4.772   7.211  0.5688 -0.2822  0.1117
 4483TIP3   OH235083   6.220   4.086   8.349 -0.3433 -0.1016  0.3091
 4483TIP3    H135084   6.281   4.015   8.369  1.2018  1.1783  0.2745
 4483TIP3    H235085   6.263   4.165   8.379 -1.3067  1.0303 -1.1337
 4484TIP3   OH235086   0.408   5.547   7.555 -0.2548 -0.5843 -0.1100
 4484TIP3    H135087   0.357   5.526   7.476 -1.3057  0.5244  0.2461
 4484TIP3    H235088   0.349   5.527   7.628 -0.1997  0.6888  0.3112
 4485TIP3   OH235089   1.059   3.409   0.473 -0.3924 -0.2793  0.0576
 4485TIP3    H135090   1.010   3.491   0.481 -0.7954 -0.5378  0.2783
 4485TIP3    H235091   1.150   3.436   0.461 -0.4278  0.1893  0.7973
 4486TIP3   OH235092   6.477   0.445   7.296  0.3796  0.2605 -0.5045
 4486TIP3    H135093   6.504   0.360   7.261 -0.1029  0.4324 -1.3301
 4486TIP3    H235094   6.400   0.469   7.244  0.3945  1.1133 -0.1548
 4487TIP3   OH235095   6.414   1.398   8.167  0.0391 -0.0310  0.4864
 4487TIP3    H135096   6.455   1.371   8.085  1.0656 -0.3593  1.0942
 4487TIP3    H235097   6.320   1.386   8.152  0.2876 -1.1172 -0.2678
 4488TIP3   OH235098   2.096   3.938   6.377  0.0270  0.0364 -0.4762
 4488TIP3    H135099   2.067   3.910   6.290 -3.4684  1.2742  0.1503
 4488TIP3    H235100   2.096   4.033   6.373  0.0294  0.1039  0.8344
 4489TIP3   OH235101   0.562   2.736   2.021  0.2119  0.2561  0.0940
 4489TIP3    H135102   0.531   2.800   1.957 -1.0973  0.4941  0.9361
 4489TIP3    H235103   0.573   2.787   2.102  1.0960 -0.1964  0.2672
 4490TIP3   OH235104   5.863   0.838   7.384 -0.2108 -0.1493 -0.2303
 4490TIP3    H135105   5.824   0.787   7.455 -0.5619 -2.5077 -1.9942
 4490TIP3    H235106   5.798   0.836   7.314  0.6922  0.8775 -1.1420
 4491TIP3   OH235107   1.416   5.428   7.253  0.5629 -0.2470  0.1530
 4491TIP3    H135108   1.413   5.369   7.178 -1.8821  0.8856 -0.7526
 4491TIP3    H235109   1.475   5.498   7.227 -1.7525  1.1858 -1.6758
 4492TIP3   OH235110   2.139   0.413   7.527  0.3497 -0.5699 -0.0900
 4492TIP3    H135111   2.067   0.444   7.581  1.2998 -1.3017  1.7011
 4492TIP3    H235112   2.186   0.492   7.501  0.0159 -0.2134  0.3832
 4493TIP3   OH235113   2.681   4.373   1.217  0.0718  0.3298  0.0285
 4493TIP3    H135114   2.589   4.398   1.212  0.1867  0.7669  0.0096
 4493TIP3    H235115   2.689   4.325   1.299 -0.1540  0.3775  0.0802
 4494TIP3   OH235116   6.647   2.718   0.176  0.4250 -0.1305 -0.3398
 4494TIP3    H135117   6.613   2.645   0.229  0.0834  1.2496  1.4374
 4494TIP3    H235118   6.654   2.791   0.238  0.6014  1.4134 -2.1061
 4495TIP3   OH235119   1.669   2.532   0.289 -0.1967 -0.1118 -0.5327
 4495TIP3    H135120   1.682   2.516   0.382 -3.8598 -1.3160 -0.0544
 4495TIP3    H235121   1.618   2.614   0.285  0.6089  0.3740 -1.5760
 4496TIP3   OH235122   4.386   2.315   1.815 -0.8395  0.2080 -0.0869
 4496TIP3    H135123   4.436   2.239   1.784 -1.6317 -0.0063 -0.8850
 4496TIP3    H235124   4.373   2.298   1.909 -0.5631 -0.3878 -0.1514
 4497TIP3   OH235125   1.047   6.229   7.369  0.0312  0.2711 -0.6466
 4497TIP3    H135126   1.004   6.283   7.302  0.1127 -0.8721 -1.6574
 4497TIP3    H235127   1.140   6.244   7.356  0.0245  0.8695 -0.0642
 4498TIP3   OH235128   1.505   1.328   7.495  0.1668 -0.3196  0.3910
 4498TIP3    H135129   1.454   1.250   7.475 -0.6065 -0.2595  1.9481
 4498TIP3    H235130   1.445   1.401   7.477  0.8316 -0.0590 -0.9053
 4499TIP3   OH235131   6.871   0.563   7.819 -0.0032  0.2934  0.0529
 4499TIP3    H135132   6.845   0.562   7.912 -0.8459 -1.6579 -0.1491
 4499TIP3    H235133   6.822   0.636   7.781  0.9863  1.6540  1.2694
 4500TIP3   OH235134   4.952   3.063   1.513 -0.3407  0.3442  0.2624
 4500TIP3    H135135   4.892   2.991   1.493 -0.6108  0.0800  1.8733
 4500TIP3    H235136   5.020   3.057   1.446 -0.2483 -1.5392  0.4828
 4501TIP3   OH235137   5.706   5.185   0.544 -0.1485  0.0783  0.6172
 4501TIP3    H135138   5.746   5.259   0.499 -1.6126 -0.4966 -1.8035
 4501TIP3    H235139   5.612   5.192   0.524 -0.1691 -3.2958 -1.2046
 4502TIP3   OH235140   5.495   0.280   1.567 -0.6854  0.0530  0.4328
 4502TIP3    H135141   5.526   0.256   1.480 -1.6148  0.3675  0.0048
 4502TIP3    H235142   5.543   0.361   1.588 -0.2677 -0.1637  0.3309
 4503TIP3   OH235143   5.165   1.733   8.237 -0.8029  0.3379 -0.4680
 4503TIP3    H135144   5.240   1.774   8.194 -1.0855  1.4079  0.0250
 4503TIP3    H235145   5.113   1.806   8.270 -1.0000 -0.4221  0.9901
 4504TIP3   OH235146   3.521   2.882   7.088 -0.4833 -0.1774  0.2068
 4504TIP3    H135147   3.609   2.893   7.051  0.2302  2.5120  2.3628
 4504TIP3    H235148   3.463   2.919   7.022  0.4346  1.5579  0.3184
 4505TIP3   OH235149   1.422   1.867   7.628 -0.5206  0.0217  0.4188
 4505TIP3    H135150   1.503   1.841   7.672 -0.2811  0.0304 -0.0052
 4505TIP3    H235151   1.443   1.951   7.588 -1.1988  0.7463  1.5314
 4506TIP3   OH235152   4.929   1.737   7.817 -0.8613 -0.5378  0.3732
 4506TIP3    H135153   4.993   1.694   7.761  1.5105  0.6441  2.0084
 4506TIP3    H235154   4.935   1.829   7.794 -0.3280 -0.1203  2.0427
 4507TIP3   OH235155   4.036   3.736   6.235 -0.1142 -0.2300  0.6110
 4507TIP3    H135156   4.057   3.675   6.164 -0.4942  1.6771 -1.2461
 4507TIP3    H235157   4.118   3.744   6.284  1.0433  0.5115 -1.3254
 4508TIP3   OH235158   3.535   4.619   1.112 -0.5604 -0.6237  0.6860
 4508TIP3    H135159   3.550   4.586   1.023  1.4125  0.2274  0.6319
 4508TIP3    H235160   3.498   4.706   1.098  0.2463 -0.2717  0.6465
 4509TIP3   OH235161   6.470   0.722   1.382 -0.1279  0.3696 -0.0443
 4509TIP3    H135162   6.437   0.636   1.407 -0.6488  0.1881 -1.2655
 4509TIP3    H235163   6.426   0.783   1.441 -0.1334 -0.1595  0.5043
 4510TIP3   OH235164   4.864   3.810   7.424  0.2939  0.0768 -0.6498
 4510TIP3    H135165   4.860   3.890   7.371 -0.1918  0.2212 -0.3992
 4510TIP3    H235166   4.898   3.840   7.509 -1.0053  0.2305 -0.1658
 4511TIP3   OH235167   2.644   0.953   8.398 -0.2701 -0.2473  0.0870
 4511TIP3    H135168   2.706   0.883   8.375 -1.2973 -0.9388 -0.6977
 4511TIP3    H235169   2.558   0.914   8.381 -0.9249  0.6467  1.2855
 4512TIP3   OH235170   6.734   6.607   0.676 -0.0980  0.2016 -0.3933
 4512TIP3    H135171   6.785   6.526   0.682  0.6742  0.7198  0.1879
 4512TIP3    H235172   6.671   6.590   0.606  0.7647 -0.5150 -1.0187
 4513TIP3   OH235173   5.005   4.621   7.524 -0.0040  0.5364 -0.3915
 4513TIP3    H135174   5.020   4.599   7.616  1.1364  0.9822 -0.4624
 4513TIP3    H235175   5.055   4.556   7.475  0.1137  0.8396 -0.6761
 4514TIP3   OH235176   6.639   1.526   1.901  0.5499  1.0076  0.3983
 4514TIP3    H135177   6.658   1.509   1.809  3.6766  2.9039  0.5528
 4514TIP3    H235178   6.612   1.618   1.902 -2.6004  0.1886  1.1108
 4515TIP3   OH235179   3.220   3.885   5.988 -0.2079 -0.4455 -0.5602
 4515TIP3    H135180   3.192   3.922   6.072  1.3117 -2.1926  0.7914
 4515TIP3    H235181   3.180   3.798   5.985 -0.5786 -0.2671 -1.8920
 4516TIP3   OH235182   3.860   2.622   6.712  0.4172 -0.0196  0.5132
 4516TIP3    H135183   3.805   2.640   6.636 -0.2715  0.4895  1.1095
 4516TIP3    H235184   3.908   2.703   6.727  0.9872 -0.3108  0.2738
 4517TIP3   OH235185   4.473   6.421   1.385 -0.1474 -0.3919 -0.5108
 4517TIP3    H135186   4.455   6.331   1.358 -1.9917  0.0591 -0.9154
 4517TIP3    H235187   4.536   6.412   1.456 -0.7708 -2.0453 -0.1073
 4518TIP3   OH235188   6.619   5.908   0.641  0.5743  0.3475 -0.2591
 4518TIP3    H135189   6.704   5.922   0.600  0.2077  0.6780 -0.9224
 4518TIP3    H235190   6.556   5.945   0.579 -0.1498 -0.9306 -0.3105
 4519TIP3   OH235191   5.002   6.082   7.590 -0.0204 -0.2595  0.0539
 4519TIP3    H135192   4.928   6.080   7.529 -1.0824  4.0033  0.9158
 4519TIP3    H235193   5.079   6.086   7.534 -0.7475 -0.1339 -0.9630
 4520TIP3   OH235194   0.713   5.116   1.155  0.3256 -0.4335  0.0953
 4520TIP3    H135195   0.665   5.194   1.127  2.5551  0.6964 -0.9043
 4520TIP3    H235196   0.723   5.127   1.250  1.5028  1.1107 -0.1618
 4521TIP3   OH235197   2.937   2.152   0.930  0.3140  0.8993  0.1546
 4521TIP3    H135198   2.921   2.101   1.009 -1.3821  1.9507  0.5356
 4521TIP3    H235199   3.001   2.219   0.955  2.5259 -0.8913 -0.3376
 4522TIP3   OH235200   4.151   3.226   1.204 -0.4349 -0.2529  0.0279
 4522TIP3    H135201   4.214   3.191   1.266 -0.6890  1.1423  1.1445
 4522TIP3    H235202   4.192   3.306   1.170 -1.4685  0.5636  0.6184
 4523TIP3   OH235203   1.642   4.336   6.875  0.6304 -0.5941 -0.1936
 4523TIP3    H135204   1.593   4.367   6.799 -2.0997  0.1994  1.7488
 4523TIP3    H235205   1.612   4.246   6.888  0.3198 -0.4105  0.4548
 4524TIP3   OH235206   2.735   3.493   6.856  0.0587  0.4778 -0.3039
 4524TIP3    H135207   2.674   3.563   6.880  0.1934  0.2366  0.8066
 4524TIP3    H235208   2.684   3.433   6.802 -0.3144  0.9567 -0.4868
 4525TIP3   OH235209   4.674   0.224   7.237  0.1564  0.1273 -0.5972
 4525TIP3    H135210   4.732   0.237   7.162  0.0153 -0.2325 -0.7719
 4525TIP3    H235211   4.639   0.311   7.256 -0.8048  0.0113 -1.7594
 4526TIP3   OH235212   2.859   0.694   7.917  0.3184 -0.1197 -0.2735
 4526TIP3    H135213   2.776   0.659   7.886  0.0966 -1.4788  1.6250
 4526TIP3    H235214   2.916   0.617   7.923  1.8153  0.8183 -1.7257
 4527TIP3   OH235215   1.194   1.609   1.050  0.4115 -0.2264  0.5359
 4527TIP3    H135216   1.160   1.684   1.099  0.2724 -0.2251  0.4394
 4527TIP3    H235217   1.267   1.645   1.000  0.6511 -0.2633  0.8622
 4528TIP3   OH235218   3.510   3.208   6.221  0.3942  0.3657  0.7230
 4528TIP3    H135219   3.577   3.259   6.175  0.6970  1.0149  1.8204
 4528TIP3    H235220   3.445   3.188   6.155  0.8480  1.2061 -0.0034
 4529TIP3   OH235221   2.114   3.906   8.441 -0.8193 -0.7353  0.2217
 4529TIP3    H135222   2.064   3.882   8.519 -0.1990 -3.8125 -0.1792
 4529TIP3    H235223   2.200   3.866   8.455  0.3989  1.4251 -0.6530
 4530TIP3   OH235224   4.692   3.329   7.775  0.2713 -0.3380  0.3648
 4530TIP3    H135225   4.757   3.390   7.740 -1.3500  0.0965 -2.1509
 4530TIP3    H235226   4.689   3.257   7.712 -0.5658 -1.1317  1.2619
 4531TIP3   OH235227   3.511   6.605   6.936 -0.3726  0.0073  0.7139
 4531TIP3    H135228   3.584   6.650   6.892  0.5696 -1.0259  1.1862
 4531TIP3    H235229   3.497   6.656   7.016 -0.1779  0.2157  0.6195
 4532TIP3   OH235230   4.845   0.951   1.228 -0.1628  0.2726 -0.5620
 4532TIP3    H135231   4.750   0.945   1.220 -0.2538 -1.5014  1.0756
 4532TIP3    H235232   4.859   1.001   1.309  0.2520 -0.6839 -0.0312
 4533TIP3   OH235233   4.803   0.970   2.161 -0.1355  0.2122 -0.0857
 4533TIP3    H135234   4.885   0.952   2.207 -0.8018 -0.3563  0.8945
 4533TIP3    H235235   4.734   0.945   2.222 -1.0514 -0.4731 -1.3408
 4534TIP3   OH235236   6.098   3.804   7.569 -0.1055 -0.3099  0.0072
 4534TIP3    H135237   6.156   3.877   7.548  0.3186 -0.8744 -0.8547
 4534TIP3    H235238   6.146   3.754   7.635 -0.0029 -0.2929 -0.0538
 4535TIP3   OH235239   5.538   4.123   1.110  0.1025 -0.1284 -0.1398
 4535TIP3    H135240   5.516   4.034   1.140  0.1220 -0.3455 -0.7541
 4535TIP3    H235241   5.490   4.132   1.027 -1.1944  1.0299  0.6965
 4536TIP3   OH235242   6.106   1.172   2.716  0.2679  0.1969  0.0503
 4536TIP3    H135243   6.167   1.124   2.659  0.3267 -0.9806  1.0757
 4536TIP3    H235244   6.163   1.228   2.769  0.4088 -0.4320  0.5670
 4537TIP3   OH235245   6.571   3.953   2.509  0.0107 -0.4526 -0.0077
 4537TIP3    H135246   6.479   3.977   2.517 -0.0370 -0.2665 -1.0135
 4537TIP3    H235247   6.602   3.947   2.600 -0.5223  1.3154  0.3279
 4538TIP3   OH235248   3.196   0.881   7.074  0.2475 -0.3168  0.7655
 4538TIP3    H135249   3.263   0.829   7.120  0.8561  0.8478  1.2387
 4538TIP3    H235250   3.167   0.945   7.139  0.8831  1.1512 -0.3325
 4539TIP3   OH235251   1.358   1.419   1.167 -0.3615 -0.6690  0.3832
 4539TIP3    H135252   1.330   1.402   1.257  1.0150  1.1716  1.2110
 4539TIP3    H235253   1.283   1.462   1.126 -0.8650 -1.1867  0.7455
 4540TIP3   OH235254   2.758   1.076   0.175  0.1359 -0.4914 -0.0841
 4540TIP3    H135255   2.690   1.043   0.235  0.0985  0.2213  0.2836
 4540TIP3    H235256   2.710   1.097   0.095 -0.3457  1.1638  0.5724
 4541TIP3   OH235257   5.968   5.282   7.437  0.3391  0.1247  1.1481
 4541TIP3    H135258   5.947   5.246   7.351  2.3203  1.3632  0.0480
 4541TIP3    H235259   5.908   5.239   7.497 -1.1080 -0.8024 -0.8460
 4542TIP3   OH235260   6.314   3.652   1.240 -0.0273 -0.2479 -0.4844
 4542TIP3    H135261   6.404   3.679   1.224  0.6746 -2.4597 -0.6102
 4542TIP3    H235262   6.299   3.670   1.333  0.8249 -0.5448 -0.2826
 4543TIP3   OH235263   3.764   6.718   7.874 -0.0251 -0.2275  0.6766
 4543TIP3    H135264   3.755   6.623   7.881  1.2229 -0.3909  0.1112
 4543TIP3    H235265   3.779   6.747   7.964 -1.6042 -0.3985  1.0394
 4544TIP3   OH235266   2.888   1.512   0.402 -0.2644 -0.3303 -0.4786
 4544TIP3    H135267   2.793   1.499   0.410 -0.4695 -0.2668 -2.3456
 4544TIP3    H235268   2.924   1.423   0.398 -0.6018 -0.4389 -2.7203
 4545TIP3   OH235269   6.196   5.411   0.454  0.1917  0.3354 -0.2550
 4545TIP3    H135270   6.265   5.444   0.510 -0.3953 -1.0278  1.3802
 4545TIP3    H235271   6.224   5.322   0.431 -1.0166 -0.2754  0.5175
 4546TIP3   OH235272   3.387   1.888   1.193 -0.0638 -0.2422  0.2126
 4546TIP3    H135273   3.423   1.891   1.104  0.5526  2.4165  0.4529
 4546TIP3    H235274   3.374   1.795   1.210  0.7560 -0.9111 -2.2660
 4547TIP3   OH235275   4.990   4.774   2.751  0.5129  0.0271  0.3351
 4547TIP3    H135276   4.966   4.804   2.663  0.1908  1.3544  0.8513
 4547TIP3    H235277   4.913   4.793   2.804  1.6328  1.8261  1.4595
 4548TIP3   OH235278   0.210   4.260   7.762 -0.4261  0.0754 -0.1178
 4548TIP3    H135279   0.289   4.309   7.785 -0.2290  0.3353 -1.2914
 4548TIP3    H235280   0.190   4.286   7.673 -1.0907 -0.9779 -0.3015
 4549TIP3   OH235281   1.158   0.041   0.653  0.1407 -0.0635  0.2734
 4549TIP3    H135282   1.118   0.126   0.633 -0.0738  0.3019  2.0955
 4549TIP3    H235283   1.243   0.044   0.610 -0.9233 -0.0529 -1.9716
 4550TIP3   OH235284   2.806   1.724   6.189  0.0621  0.3603 -0.5292
 4550TIP3    H135285   2.724   1.714   6.139 -0.4213  0.3732  0.2442
 4550TIP3    H235286   2.847   1.637   6.184 -1.5760 -0.6449  1.7450
 4551TIP3   OH235287   6.486   4.496   1.546  0.0195  0.4214 -0.0081
 4551TIP3    H135288   6.490   4.543   1.629  0.4290  1.6643 -0.6994
 4551TIP3    H235289   6.448   4.559   1.485 -2.1651 -1.1346 -0.3551
 4552TIP3   OH235290   0.523   5.386   6.698  0.1186 -0.5301  0.2588
 4552TIP3    H135291   0.544   5.479   6.685 -3.0120  0.1411 -0.9559
 4552TIP3    H235292   0.455   5.368   6.633  0.5281 -3.6825  0.5628
 4553TIP3   OH235293   1.899   1.670   0.090  0.3287 -0.3200 -0.0673
 4553TIP3    H135294   1.854   1.753   0.104  0.3937  0.2617 -2.7580
 4553TIP3    H235295   1.924   1.642   0.178  0.9242  2.8447  0.9306
 4554TIP3   OH235296   4.416   3.387   7.856  0.0055 -0.6437  0.2265
 4554TIP3    H135297   4.451   3.376   7.768  1.5681 -0.6818  0.8172
 4554TIP3    H235298   4.380   3.300   7.878 -0.0466 -0.7392 -0.2277
 4555TIP3   OH235299   4.171   2.134   1.514  0.1680  0.2729 -0.0795
 4555TIP3    H135300   4.165   2.184   1.432 -0.8314  0.6372  0.2059
 4555TIP3    H235301   4.136   2.047   1.492 -1.9164  0.9438  0.4010
 4556TIP3   OH235302   5.684   1.827   2.007  0.8490 -0.1696 -0.2085
 4556TIP3    H135303   5.619   1.800   2.072 -0.6933 -0.0853 -1.6314
 4556TIP3    H235304   5.707   1.746   1.961  0.0540  0.1131 -1.1445
 4557TIP3   OH235305   2.413   4.068   1.420 -0.7037  0.1977 -0.1920
 4557TIP3    H135306   2.445   4.059   1.330 -0.6002 -1.9399 -0.0089
 4557TIP3    H235307   2.332   4.118   1.412 -0.9459 -0.3752 -1.5579
 4558TIP3   OH235308   2.454   6.246   0.294  0.0395 -0.1992 -0.1360
 4558TIP3    H135309   2.480   6.301   0.220 -0.3281  1.5145  0.9559
 4558TIP3    H235310   2.536   6.223   0.337  0.1096  0.7713  0.2620
 4559TIP3   OH235311   1.194   0.394   7.465  0.4096 -0.1980  0.5351
 4559TIP3    H135312   1.196   0.464   7.400  1.0240  0.3668  1.1428
 4559TIP3    H235313   1.107   0.399   7.504  1.1216  1.6572  2.0582
 4560TIP3   OH235314   1.726   6.342   6.471  0.0579  0.2326  0.0105
 4560TIP3    H135315   1.810   6.302   6.496  0.0836 -0.0254 -0.4797
 4560TIP3    H235316   1.740   6.436   6.485 -0.5146 -0.0084  2.6745
 4561TIP3   OH235317   1.780   1.292   2.260 -0.2513  1.0675 -0.2915
 4561TIP3    H135318   1.826   1.286   2.344  0.4484 -0.4070 -0.7387
 4561TIP3    H235319   1.843   1.260   2.196 -1.3854  0.4052 -1.1263
 4562TIP3   OH235320   0.406   5.031   0.498 -0.7726  0.5885 -0.2493
 4562TIP3    H135321   0.391   5.040   0.404  2.2468  1.1542 -0.7995
 4562TIP3    H235322   0.499   5.007   0.505 -1.1800 -0.5548  2.5691
 4563TIP3   OH235323   4.522   1.264   7.931 -0.3645 -0.3670  0.1275
 4563TIP3    H135324   4.457   1.235   7.995 -0.2761 -0.2834  0.2570
 4563TIP3    H235325   4.479   1.335   7.883 -1.3812 -2.1124 -1.6572
 4564TIP3   OH235326   3.028   1.304   7.831 -0.0861  0.3631 -0.4133
 4564TIP3    H135327   2.957   1.366   7.847 -0.6043 -0.3462  0.0714
 4564TIP3    H235328   3.097   1.357   7.791 -0.9228  1.0390 -0.9918
 4565TIP3   OH235329   3.151   6.254   7.275 -0.6007 -0.3317 -0.4487
 4565TIP3    H135330   3.065   6.290   7.295  0.2351  0.8155  1.3859
 4565TIP3    H235331   3.177   6.210   7.356  1.2119  0.8113 -0.3529
 4566TIP3   OH235332   2.872   3.552   0.998 -0.4108  0.3191  0.1816
 4566TIP3    H135333   2.908   3.473   1.037 -0.1710  0.8210  0.9992
 4566TIP3    H235334   2.778   3.547   1.016 -0.3189  0.4895  0.7507
 4567TIP3   OH235335   0.072   2.067   1.049 -0.0671  0.0620 -0.1362
 4567TIP3    H135336   0.035   2.025   1.127  0.5832  0.6311  0.4950
 4567TIP3    H235337   0.160   2.028   1.041 -0.8825 -1.6114 -1.8770
 4568TIP3   OH235338   4.708   5.751   1.512 -0.1120  0.1376  0.0689
 4568TIP3    H135339   4.732   5.767   1.421  1.1935  0.2817  0.4208
 4568TIP3    H235340   4.635   5.810   1.529  0.5044  1.0803 -0.5077
 4569TIP3   OH235341   3.302   5.293   6.764  0.1361 -0.0186  0.1546
 4569TIP3    H135342   3.326   5.381   6.734  0.3510 -0.2896 -0.5002
 4569TIP3    H235343   3.329   5.236   6.692 -0.4179 -0.5719  0.3750
 4570TIP3   OH235344   4.215   2.678   7.928 -0.2322 -0.4829 -0.2765
 4570TIP3    H135345   4.263   2.595   7.920  1.0849  0.2604 -0.4267
 4570TIP3    H235346   4.273   2.734   7.981 -0.4020  0.8207 -1.4108
 4571TIP3   OH235347   6.703   3.289   0.968 -0.3669  0.2985  0.9800
 4571TIP3    H135348   6.654   3.211   0.991  1.0489 -0.4078  1.7037
 4571TIP3    H235349   6.637   3.358   0.961 -1.7058 -1.0230 -0.1182
 4572TIP3   OH235350   3.761   4.311   0.728 -0.2066 -0.2467 -0.0095
 4572TIP3    H135351   3.837   4.299   0.785 -1.0092 -0.1875  1.1053
 4572TIP3    H235352   3.760   4.234   0.672  0.7750 -0.1584 -0.1752
 4573TIP3   OH235353   6.709   1.503   2.338 -0.3457 -0.3490 -0.1424
 4573TIP3    H135354   6.705   1.491   2.432 -2.2761 -0.9164 -0.2534
 4573TIP3    H235355   6.731   1.596   2.326 -1.1836 -0.0022  0.8814
 4574TIP3   OH235356   1.082   0.776   6.901  0.1527 -0.5850  0.8508
 4574TIP3    H135357   1.060   0.835   6.829 -2.3621 -0.9220  1.2660
 4574TIP3    H235358   1.120   0.700   6.859  1.2702  0.3385  0.1329
 4575TIP3   OH235359   3.826   3.989   7.518 -0.0159 -0.6215 -0.0681
 4575TIP3    H135360   3.912   3.966   7.553 -0.1101 -0.5409  0.2217
 4575TIP3    H235361   3.776   3.908   7.521  0.4012 -0.9386 -1.3036
 4576TIP3   OH235362   4.575   6.095   1.463  0.0243  0.5156 -0.2838
 4576TIP3    H135363   4.512   6.118   1.394  0.1955  3.9660  0.5313
 4576TIP3    H235364   4.526   6.102   1.544  0.3031 -1.6763  0.1331
 4577TIP3   OH235365   1.326   1.153   7.415  0.2225 -0.6083  0.2027
 4577TIP3    H135366   1.258   1.121   7.475  0.7592  1.1969  1.8693
 4577TIP3    H235367   1.281   1.163   7.332 -1.8045  1.2042  1.4177
 4578TIP3   OH235368   4.217   4.296   7.779  0.2342  0.0144 -0.0718
 4578TIP3    H135369   4.281   4.332   7.716  1.8180 -0.4275  1.2150
 4578TIP3    H235370   4.222   4.202   7.766 -0.5595  0.0012 -0.3122
 4579TIP3   OH235371   0.326   5.962   0.108  0.3566  0.5937 -0.1964
 4579TIP3    H135372   0.357   5.954   0.018  0.6975  1.1036 -0.1248
 4579TIP3    H235373   0.399   6.001   0.156 -0.8965  3.3737 -0.3637
 4580TIP3   OH235374   3.847   1.990   7.500 -0.0548 -0.3399 -0.4930
 4580TIP3    H135375   3.895   1.918   7.459 -1.7163 -1.9097  0.1766
 4580TIP3    H235376   3.853   2.062   7.438  0.1946 -1.6139 -2.0120
 4581TIP3   OH235377   0.026   0.862   1.830  0.5640 -0.0509 -0.1402
 4581TIP3    H135378   0.087   0.902   1.892  0.9916  1.1544 -1.3035
 4581TIP3    H235379   0.025   0.769   1.854  2.6910 -0.0667  0.0699
 4582TIP3   OH235380   6.704   2.675   1.076  0.6032 -0.4512 -0.7055
 4582TIP3    H135381   6.793   2.656   1.105  0.7059  0.2181 -0.5589
 4582TIP3    H235382   6.713   2.755   1.023 -0.3605  1.8046  2.2531
 4583TIP3   OH235383   6.831   1.848   2.860 -0.3071 -0.1094  0.4330
 4583TIP3    H135384   6.787   1.764   2.874  0.6133 -0.9027 -1.2248
 4583TIP3    H235385   6.760   1.911   2.850 -1.0637 -1.1161 -0.7387
 4584TIP3   OH235386   6.659   1.178   0.122 -0.1732  0.2680  0.8320
 4584TIP3    H135387   6.637   1.238   0.051  0.1104  0.1565  0.6516
 4584TIP3    H235388   6.725   1.224   0.173  0.6674 -0.2268  0.2153
 4585TIP3   OH235389   0.134   4.575   6.669 -0.0422 -0.4665  0.3656
 4585TIP3    H135390   0.160   4.492   6.708  0.9550 -0.9729 -1.3026
 4585TIP3    H235391   0.121   4.556   6.576 -0.9026  1.0125  0.1435
 4586TIP3   OH235392   3.289   3.884   7.338 -0.1480  0.4347  0.5735
 4586TIP3    H135393   3.313   3.874   7.246 -1.4940 -0.0538  0.2545
 4586TIP3    H235394   3.231   3.810   7.356  0.6289  0.1410  2.0119
 4587TIP3   OH235395   3.878   5.572   8.367  0.1849  0.0981 -0.4137
 4587TIP3    H135396   3.789   5.544   8.347 -0.0565  1.0253 -0.6529
 4587TIP3    H235397   3.933   5.500   8.336 -0.3937  0.1161 -1.5241
 4588TIP3   OH235398   4.038   5.395   2.496  0.2921 -0.3466 -0.4054
 4588TIP3    H135399   4.090   5.473   2.515 -0.2180 -0.2874  0.8057
 4588TIP3    H235400   4.018   5.357   2.582 -3.9532  1.1419 -0.5262
 4589TIP3   OH235401   0.764   0.645   7.523  0.4237 -0.3392 -0.6078
 4589TIP3    H135402   0.801   0.716   7.575  1.0787 -0.8417 -0.3795
 4589TIP3    H235403   0.730   0.688   7.444 -0.3122  0.3837  0.0947
 4590TIP3   OH235404   3.106   2.586   1.755 -0.0997 -0.4487  0.4559
 4590TIP3    H135405   3.197   2.615   1.745 -0.2962 -0.1571 -0.6125
 4590TIP3    H235406   3.055   2.668   1.756 -0.4299 -0.6512  0.1499
 4591TIP3   OH235407   2.163   2.358   0.982  0.2063 -0.2986  0.1464
 4591TIP3    H135408   2.079   2.404   0.989 -0.2922 -1.1959  0.1969
 4591TIP3    H235409   2.170   2.309   1.063  0.8431 -0.1458  0.1861
 4592TIP3   OH235410   0.863   4.016   7.951 -0.2287 -0.2271  0.3710
 4592TIP3    H135411   0.950   4.049   7.929 -0.5700  0.0166 -0.6414
 4592TIP3    H235412   0.803   4.082   7.916 -0.8916 -1.4258 -0.8031
 4593TIP3   OH235413   1.716   5.265   0.008  0.2843 -0.1024  0.5175
 4593TIP3    H135414   1.810   5.251  -0.006  0.2331 -1.1881  1.1615
 4593TIP3    H235415   1.674   5.189  -0.032 -0.3494  0.5347 -0.0469
 4594TIP3   OH235416   0.728   1.817   0.832 -0.2232 -0.0005  0.6547
 4594TIP3    H135417   0.730   1.733   0.878 -1.3288 -0.5672 -0.2750
 4594TIP3    H235418   0.791   1.806   0.761 -1.7633 -0.8236 -0.6667
 4595TIP3   OH235419   2.494   2.055   0.407  0.2370  0.2051 -0.5110
 4595TIP3    H135420   2.581   2.091   0.388  0.7434 -0.4975  0.4151
 4595TIP3    H235421   2.484   2.064   0.501 -1.4003  1.7637 -0.7708
 4596TIP3   OH235422   0.460   5.029   5.801 -0.7669 -0.3621  0.4115
 4596TIP3    H135423   0.403   5.068   5.867 -1.0819 -1.5272  0.8520
 4596TIP3    H235424   0.536   4.998   5.850  0.5150  1.5871 -0.2305
 4597TIP3   OH235425   4.084   0.214   2.497 -0.5651  0.1332 -0.3289
 4597TIP3    H135426   4.166   0.165   2.489  0.1463  0.3387  3.6740
 4597TIP3    H235427   4.108   0.305   2.477 -0.8185 -0.2993 -2.9909
 4598TIP3   OH235428   5.733   0.658   7.529  0.3248 -0.4337  0.0295
 4598TIP3    H135429   5.649   0.672   7.572  1.4146  1.4805  1.7184
 4598TIP3    H235430   5.769   0.581   7.573  0.5532  0.3200  1.2222
 4599TIP3   OH235431   3.263   0.782   1.443  0.0554 -0.0415 -0.1888
 4599TIP3    H135432   3.298   0.774   1.532  2.1473  1.0218 -0.8510
 4599TIP3    H235433   3.239   0.693   1.420 -1.0474 -0.2723  1.6034
 4600TIP3   OH235434   5.007   6.800   7.704 -0.1208  0.1288 -0.6143
 4600TIP3    H135435   4.963   6.842   7.778 -1.6351 -0.9517 -0.8659
 4600TIP3    H235436   4.936   6.774   7.645  0.9673 -0.2607 -1.7985
 4601TIP3   OH235437   2.611   2.023   6.044  0.0516 -0.1865  0.1890
 4601TIP3    H135438   2.656   2.020   6.128  0.0504  2.1679  0.3134
 4601TIP3    H235439   2.534   2.077   6.059 -0.0035  0.1901 -1.2955
 4602TIP3   OH235440   3.798   2.312   7.720 -0.3099 -0.3604  0.0465
 4602TIP3    H135441   3.844   2.246   7.773 -0.8774 -0.2979  0.6212
 4602TIP3    H235442   3.743   2.260   7.661 -0.1231 -0.4146 -0.0833
 4603TIP3   OH235443   2.583   5.010   6.451 -0.3028 -0.0268 -0.0591
 4603TIP3    H135444   2.579   4.921   6.417  2.7730 -0.5236  0.6181
 4603TIP3    H235445   2.621   5.062   6.380  1.1576  0.0066  0.7176
 4604TIP3   OH235446   2.134   6.689   7.342  0.1398  0.0222  0.2839
 4604TIP3    H135447   2.198   6.619   7.352  2.2119  1.8743  0.7314
 4604TIP3    H235448   2.128   6.701   7.247  1.8425  0.9594  0.2519
 4605TIP3   OH235449   5.018   2.917   0.462  0.1657 -0.2291 -0.2032
 4605TIP3    H135450   5.071   2.845   0.496  1.3287  0.9175  0.4981
 4605TIP3    H235451   4.967   2.948   0.537 -0.1522 -0.1733 -0.4385
 4606TIP3   OH235452   5.966   5.738   0.063 -0.1476  0.4217  0.2775
 4606TIP3    H135453   6.049   5.691   0.065  1.2973  2.7967  0.0902
 4606TIP3    H235454   5.943   5.752   0.155 -0.4171 -0.3451  0.3288
 4607TIP3   OH235455   6.802   6.325   2.157  0.3725  0.5154 -0.4899
 4607TIP3    H135456   6.806   6.231   2.174 -0.6578  0.6036  0.3388
 4607TIP3    H235457   6.888   6.346   2.122  0.2568 -0.9324 -1.7672
 4608TIP3   OH235458   3.336   6.903   8.184  0.3881 -0.5102  0.2278
 4608TIP3    H135459   3.397   6.931   8.252  2.7425  1.3370 -2.4497
 4608TIP3    H235460   3.273   6.975   8.177 -0.0404 -0.8398  0.6122
 4609TIP3   OH235461   2.490   6.028   7.804  0.1099  0.0485  0.2023
 4609TIP3    H135462   2.397   6.031   7.825  0.0686  0.0123  0.0321
 4609TIP3    H235463   2.506   5.937   7.780 -0.3022  0.4735 -1.8976
 4610TIP3   OH235464   3.327   1.619   0.335 -0.4133  0.3822 -0.5266
 4610TIP3    H135465   3.247   1.574   0.308 -0.6826  0.8424 -0.5053
 4610TIP3    H235466   3.305   1.712   0.333 -0.5465  0.4501  1.5460
 4611TIP3   OH235467   0.521   2.652   7.801 -0.0751  0.2827 -0.0232
 4611TIP3    H135468   0.559   2.740   7.806  0.7037 -0.1043  1.3672
 4611TIP3    H235469   0.436   2.660   7.843 -1.3624  1.0034 -2.5646
 4612TIP3   OH235470   0.030   3.815   1.564 -0.2135 -0.6003 -0.1634
 4612TIP3    H135471   0.111   3.833   1.515 -1.8889  3.7442 -1.8266
 4612TIP3    H235472  -0.029   3.776   1.500 -1.0773  1.3344 -0.6421
 4613TIP3   OH235473   3.404   0.366   7.792 -0.2111  0.3191  0.2207
 4613TIP3    H135474   3.483   0.412   7.820 -0.6287  1.0439  0.2098
 4613TIP3    H235475   3.413   0.358   7.697  2.0102 -3.5964  0.5512
 4614TIP3   OH235476   1.345   5.054   7.931  0.1598 -0.3699 -0.4532
 4614TIP3    H135477   1.320   4.971   7.891 -1.0233 -1.9229  3.0640
 4614TIP3    H235478   1.263   5.087   7.969  0.6730  2.2999 -1.4481
 4615TIP3   OH235479   0.496   6.163   0.825  0.2100 -0.1192  0.3692
 4615TIP3    H135480   0.534   6.085   0.785  0.8105  0.3327  0.0409
 4615TIP3    H235481   0.430   6.194   0.763 -1.1775 -1.2511  1.2112
 4616TIP3   OH235482   2.883   2.504   0.248  0.5721 -0.2115 -0.1395
 4616TIP3    H135483   2.924   2.573   0.196 -1.9393  1.5021 -0.0405
 4616TIP3    H235484   2.827   2.457   0.186  0.2867 -0.4685  0.3076
 4617TIP3   OH235485   3.515   1.987   1.857 -0.0330 -0.2386  0.1637
 4617TIP3    H135486   3.467   1.907   1.879 -0.1605 -0.0948  0.4171
 4617TIP3    H235487   3.466   2.057   1.900 -0.4986  0.0989 -0.8936
 4618TIP3   OH235488   1.050   2.388   0.104 -0.3171  0.2672  0.4951
 4618TIP3    H135489   1.125   2.402   0.045  0.3358 -0.0704  1.2377
 4618TIP3    H235490   0.979   2.439   0.064  1.0185  2.8409  1.2020
 4619TIP3   OH235491   5.263   0.076   1.662  0.6675  0.5660  0.0917
 4619TIP3    H135492   5.183   0.127   1.677  0.5877  1.1067 -1.8963
 4619TIP3    H235493   5.308   0.076   1.747 -1.4651  0.1546  1.2935
 4620TIP3   OH235494   6.833   5.473   6.580 -0.2102  0.1185  0.0063
 4620TIP3    H135495   6.757   5.443   6.530 -0.6891  0.7575  0.3278
 4620TIP3    H235496   6.797   5.538   6.641  0.4142 -0.3901  0.9458
 4621TIP3   OH235497   5.292   6.321   7.630 -0.2415  0.1559  0.9599
 4621TIP3    H135498   5.212   6.374   7.638 -1.0266 -0.9072  0.3470
 4621TIP3    H235499   5.284   6.278   7.545  0.7002 -0.4401  1.1597
 4622TIP3   OH235500   5.607   5.815   0.936 -0.5544 -0.4964 -0.4405
 4622TIP3    H135501   5.532   5.825   0.995 -0.9090 -0.4204 -0.8993
 4622TIP3    H235502   5.683   5.817   0.994 -0.8878 -0.2366 -0.0032
 4623TIP3   OH235503   4.407   1.762   2.576 -0.1737  0.5033 -0.1454
 4623TIP3    H135504   4.486   1.769   2.630  0.8293 -0.3985 -1.4488
 4623TIP3    H235505   4.336   1.749   2.639  1.2364 -3.0100  0.9382
 4624TIP3   OH235506   4.397   0.070   0.442 -0.5350  0.6141 -0.4867
 4624TIP3    H135507   4.334   0.140   0.461 -1.5235  0.1772 -1.9419
 4624TIP3    H235508   4.452   0.106   0.373  2.0868  1.6610  1.9362
 4625TIP3   OH235509   0.161   4.047   1.403  0.0728 -0.0608  0.2731
 4625TIP3    H135510   0.254   4.065   1.417  0.2440 -0.8960  0.2596
 4625TIP3    H235511   0.116   4.122   1.442  0.7457  0.2905  0.3886
 4626TIP3   OH235512   3.367   6.134   6.796 -0.1557 -0.1650  0.0542
 4626TIP3    H135513   3.356   6.134   6.891  0.8857  4.1614  0.3563
 4626TIP3    H235514   3.459   6.113   6.782 -0.6408 -2.4385 -0.2536
 4627TIP3   OH235515   4.754   2.395   1.895 -0.7127  0.0841  0.3628
 4627TIP3    H135516   4.780   2.487   1.890 -3.5006  1.1021  2.2846
 4627TIP3    H235517   4.778   2.368   1.983  1.2108 -1.5049 -0.5742
 4628TIP3   OH235518   6.116   4.497   7.251 -0.0401  0.1752 -0.4684
 4628TIP3    H135519   6.068   4.579   7.245  0.7723  0.8806  1.6374
 4628TIP3    H235520   6.060   4.440   7.304  0.9423  0.6826  1.1947
 4629TIP3   OH235521   0.277   4.504   1.623  0.1092  0.0394 -0.5623
 4629TIP3    H135522   0.186   4.474   1.615  0.1725 -0.1260 -0.6921
 4629TIP3    H235523   0.328   4.434   1.581  0.4028 -0.4532  0.5650
 4630TIP3   OH235524   3.204   5.737   0.697 -0.5635 -0.1599  0.1820
 4630TIP3    H135525   3.147   5.805   0.659 -1.2009  0.7876  2.6034
 4630TIP3    H235526   3.153   5.656   0.690 -0.7016  0.0127 -0.8600
 4631TIP3   OH235527   1.343   4.906   8.239  0.5581  0.0876 -0.1314
 4631TIP3    H135528   1.329   4.920   8.145 -3.0947 -2.8930 -0.2847
 4631TIP3    H235529   1.273   4.956   8.281  2.1144  1.3255  1.0581
 4632TIP3   OH235530   3.876   3.389   0.108  0.3482  0.1619 -0.8501
 4632TIP3    H135531   3.948   3.350   0.058 -0.9705 -1.7793 -1.3632
 4632TIP3    H235532   3.890   3.483   0.099  3.0263 -0.1156 -0.5711
 4633TIP3   OH235533   3.906   2.567   7.680 -0.1217 -0.1015  0.0374
 4633TIP3    H135534   3.889   2.571   7.586 -0.1180  0.7208  0.0604
 4633TIP3    H235535   3.885   2.477   7.704  2.5086 -1.1632 -1.2534
 4634TIP3   OH235536   1.617   1.949   7.034  0.2757 -0.8049  0.0752
 4634TIP3    H135537   1.575   2.032   7.054 -0.3365 -0.6671 -1.5961
 4634TIP3    H235538   1.640   1.912   7.119 -1.2181  0.1623  0.9451
 4635TIP3   OH235539   1.960   4.576   7.129 -0.1439 -0.5434 -0.2170
 4635TIP3    H135540   1.870   4.556   7.103 -0.7153  0.2326  1.0394
 4635TIP3    H235541   1.971   4.530   7.212  0.1404  0.4387  0.3033
 4636TIP3   OH235542   3.903   1.570   2.501 -0.3380  0.5663 -0.2484
 4636TIP3    H135543   3.829   1.618   2.464  0.1973  1.7049  0.1254
 4636TIP3    H235544   3.883   1.565   2.595  0.7865  2.2887  0.1259
 4637TIP3   OH235545   2.856   1.204   7.237 -0.5051  0.1229  0.0503
 4637TIP3    H135546   2.819   1.181   7.152 -0.0989  0.8466 -0.3351
 4637TIP3    H235547   2.948   1.224   7.219 -0.4117  0.2754  0.6551
 4638TIP3   OH235548   5.967   1.625   6.819  0.1961  0.0794  0.3058
 4638TIP3    H135549   5.999   1.576   6.743  1.2778  1.5064 -0.2211
 4638TIP3    H235550   5.922   1.701   6.781 -1.4302 -0.4430  1.0938
 4639TIP3   OH235551   1.914   0.246   7.960 -0.0759  0.0007 -0.6354
 4639TIP3    H135552   1.827   0.208   7.948 -0.4061  0.5220  0.0555
 4639TIP3    H235553   1.906   0.302   8.037  0.4376  1.3352 -1.4990
 4640TIP3   OH235554   4.847   1.725   8.402  0.5706  0.6360  0.0757
 4640TIP3    H135555   4.782   1.753   8.337 -0.0751 -1.3154 -0.1937
 4640TIP3    H235556   4.894   1.653   8.359  2.9624  2.0175  0.2687
 4641TIP3   OH235557   0.779   3.304   1.521 -0.5415 -0.0986 -0.2710
 4641TIP3    H135558   0.797   3.397   1.502 -3.6589  0.8629  0.8577
 4641TIP3    H235559   0.715   3.278   1.454  0.7026 -1.6814 -0.9150
 4642TIP3   OH235560   4.557   4.401   6.543 -0.0922 -0.2828 -0.0909
 4642TIP3    H135561   4.469   4.409   6.579  0.5166 -1.1240  1.7410
 4642TIP3    H235562   4.591   4.491   6.545 -0.4705 -0.1403  0.4424
 4643TIP3   OH235563   2.000   5.037   6.560  1.1587 -0.0416 -1.0301
 4643TIP3    H135564   2.023   5.014   6.651  0.9600  0.3854 -0.8694
 4643TIP3    H235565   2.078   5.080   6.526  0.9177  0.6261 -0.7625
 4644TIP3   OH235566   5.671   0.347   6.748  0.1693  0.3219 -0.3531
 4644TIP3    H135567   5.583   0.313   6.732  0.1008 -0.4883  1.4857
 4644TIP3    H235568   5.721   0.321   6.671 -0.7284 -0.9433 -0.5397
 4645TIP3   OH235569   6.943   6.206   1.867 -0.3705 -0.1726  0.2433
 4645TIP3    H135570   6.978   6.232   1.952 -0.2669 -1.6681  0.6791
 4645TIP3    H235571   7.014   6.155   1.827 -0.0425  1.3102 -1.1793
 4646TIP3   OH235572   6.450   0.035   6.486  0.0758  0.0091 -0.0665
 4646TIP3    H135573   6.488   0.120   6.465  0.0632 -0.4287 -2.0462
 4646TIP3    H235574   6.499  -0.027   6.431 -1.4200 -0.9489 -0.3633
 4647TIP3   OH235575   2.954   2.235   0.043 -0.2541 -0.3617  0.6627
 4647TIP3    H135576   2.940   2.307  -0.018  2.4488 -1.4651 -1.4998
 4647TIP3    H235577   2.891   2.168   0.016 -0.0662 -0.2905  0.0442
 4648TIP3   OH235578   3.322   6.509   1.924  0.9135  0.6399  0.1865
 4648TIP3    H135579   3.283   6.471   2.003 -0.3495  1.9411  0.2298
 4648TIP3    H235580   3.392   6.566   1.957  0.1275  1.4931  0.4258
 4649TIP3   OH235581   6.689   2.513   1.871  0.0983 -0.5897 -0.4148
 4649TIP3    H135582   6.651   2.450   1.932 -0.7799 -1.6180 -1.9649
 4649TIP3    H235583   6.644   2.595   1.890 -2.0997 -1.4881 -1.3523
 4650TIP3   OH235584   4.603   3.676   7.931  0.0575 -0.0970  0.4276
 4650TIP3    H135585   4.631   3.659   7.841 -0.7525  0.9854 -0.0534
 4650TIP3    H235586   4.636   3.601   7.981 -0.7367 -1.4938 -1.0204
 4651TIP3   OH235587   2.948   5.206   7.184  0.0691  0.7549  0.1439
 4651TIP3    H135588   3.008   5.219   7.257  0.0942 -2.7702  0.9639
 4651TIP3    H235589   3.001   5.217   7.106  1.9666 -2.1550  0.8457
 4652TIP3   OH235590   3.521   5.233   2.307  0.4303  0.6951  0.1709
 4652TIP3    H135591   3.493   5.159   2.359 -0.0751 -0.4827 -1.6796
 4652TIP3    H235592   3.440   5.275   2.278  0.6255  0.2719 -1.0693
 4653TIP3   OH235593   5.677   1.962   7.606 -0.1531  0.8949 -0.5355
 4653TIP3    H135594   5.717   1.981   7.691 -0.4617  1.3307 -0.4920
 4653TIP3    H235595   5.730   2.011   7.543  1.8092 -1.5235 -0.9419
 4654TIP3   OH235596   1.498   1.235   2.095  0.0237 -0.3893 -0.3874
 4654TIP3    H135597   1.592   1.253   2.089 -0.2710  0.9396 -1.7884
 4654TIP3    H235598   1.492   1.152   2.141  1.9038 -0.6241 -0.4947
 4655TIP3   OH235599   6.977   0.560   6.841 -0.3085  0.2196 -0.3386
 4655TIP3    H135600   7.033   0.564   6.764  0.1349 -0.0585 -0.0340
 4655TIP3    H235601   6.923   0.639   6.836 -0.9022 -0.2349 -1.3958
 4656TIP3   OH235602   6.691   6.399   0.077 -0.3507 -0.1248 -0.3496
 4656TIP3    H135603   6.607   6.442   0.096  0.0930  0.1798  1.0225
 4656TIP3    H235604   6.756   6.456   0.118  0.6806  0.3851 -2.5722
 4657TIP3   OH235605   1.975   4.564   1.046 -0.1847  0.0268 -0.2670
 4657TIP3    H135606   1.980   4.581   1.140  0.7080  0.7233 -0.4243
 4657TIP3    H235607   2.057   4.599   1.011  0.5899 -2.2930 -0.9856
 4658TIP3   OH235608   1.978   4.953   1.785 -0.9736 -0.0594 -0.0708
 4658TIP3    H135609   1.921   5.014   1.832  1.3417  0.8384  1.7355
 4658TIP3    H235610   1.949   4.866   1.813 -0.4593  0.4304  2.1336
 4659TIP3   OH235611   2.259   3.801   1.629 -0.2355 -0.7180 -0.1118
 4659TIP3    H135612   2.336   3.858   1.629 -0.8180  0.1141 -1.2900
 4659TIP3    H235613   2.294   3.713   1.643  1.1543 -0.6003 -2.3932
 4660TIP3   OH235614   4.318   6.774   0.962  0.2983 -0.5067  0.2836
 4660TIP3    H135615   4.267   6.834   1.017  0.5919  0.6810 -0.6941
 4660TIP3    H235616   4.407   6.810   0.963  0.3802 -0.6582 -0.6675
 4661TIP3   OH235617   5.783   5.171   1.998 -0.0504 -0.5212 -0.3791
 4661TIP3    H135618   5.746   5.200   1.914  0.8004 -0.2424 -0.6750
 4661TIP3    H235619   5.708   5.162   2.056 -0.5940 -0.1253 -1.0053
 4662TIP3   OH235620   5.855   2.736   0.491 -0.6305 -0.0954 -0.2948
 4662TIP3    H135621   5.915   2.791   0.441 -0.3246 -0.3330 -0.1936
 4662TIP3    H235622   5.813   2.797   0.552 -0.3371  0.0420 -0.2242
 4663TIP3   OH235623   3.802   6.638   0.471 -0.1162 -0.7361  0.0552
 4663TIP3    H135624   3.825   6.731   0.471 -1.4821 -0.3814 -0.5538
 4663TIP3    H235625   3.826   6.607   0.559  2.1963 -0.3213 -0.3539
 4664TIP3   OH235626   0.749   1.067   2.411  0.4237 -0.2326  0.4911
 4664TIP3    H135627   0.788   1.140   2.459 -0.3498  0.6686 -0.1946
 4664TIP3    H235628   0.776   1.081   2.320 -2.4640  1.2396 -0.2854
 4665TIP3   OH235629   3.990   6.154   7.996  0.2286 -0.0828 -0.4304
 4665TIP3    H135630   3.895   6.160   8.010  0.2620 -0.6735  0.1399
 4665TIP3    H235631   4.006   6.060   7.988  0.7277  0.0380 -0.8397
 4666TIP3   OH235632   4.015   2.753   2.182 -0.4037  0.8900  0.5909
 4666TIP3    H135633   4.087   2.797   2.136  0.8712 -0.3407  1.3500
 4666TIP3    H235634   3.981   2.819   2.242 -1.0804  2.0330 -0.9913
 4667TIP3   OH235635   0.809   5.048   6.564 -0.0319  0.5072 -0.1880
 4667TIP3    H135636   0.718   5.020   6.559 -0.1544  0.7672  0.5559
 4667TIP3    H235637   0.831   5.074   6.474 -0.7491  0.6338 -0.3300
 4668TIP3   OH235638   3.703   1.546   1.189  0.0124  0.5434 -0.6367
 4668TIP3    H135639   3.668   1.463   1.220  0.6397  0.2854 -0.6037
 4668TIP3    H235640   3.786   1.557   1.236 -0.3095  1.4477 -0.2417
 4669TIP3   OH235641   2.263   5.117   1.496  0.2862 -0.3811 -0.0754
 4669TIP3    H135642   2.355   5.100   1.516  0.1876 -0.1831  0.5773
 4669TIP3    H235643   2.223   5.030   1.486  0.3248 -0.4931  0.6935
 4670TIP3   OH235644   2.027   0.495   6.392  0.1364  0.0310 -0.2980
 4670TIP3    H135645   1.965   0.474   6.461 -0.7002 -2.0817 -1.5715
 4670TIP3    H235646   1.989   0.570   6.346 -0.6056 -0.1715 -0.0197
 4671TIP3   OH235647   6.804   2.240   2.546 -0.0737 -0.0131 -0.1698
 4671TIP3    H135648   6.887   2.201   2.519 -0.6724 -0.5657 -1.2694
 4671TIP3    H235649   6.746   2.165   2.560 -0.0659  0.2903  1.8180
 4672TIP3   OH235650   3.830   6.456   7.959  0.0093  0.4286 -0.0955
 4672TIP3    H135651   3.864   6.429   8.045  1.1995  1.2559 -0.2819
 4672TIP3    H235652   3.907   6.458   7.902 -0.7827 -0.2240 -1.2366
 4673TIP3   OH235653   2.486   2.833   1.494  0.3788 -0.0483 -0.7689
 4673TIP3    H135654   2.484   2.899   1.425 -1.5656  0.9266  0.1301
 4673TIP3    H235655   2.528   2.876   1.568 -0.2968 -0.0279 -0.3898
 4674TIP3   OH235656   3.868   5.953   6.688  0.5658  0.1776 -0.0419
 4674TIP3    H135657   3.838   6.000   6.611 -0.8976 -1.2957 -0.4442
 4674TIP3    H235658   3.963   5.965   6.689  0.7836 -0.7708 -2.7892
 4675TIP3   OH235659   6.961   2.125   1.537  0.1772 -0.1358 -0.6707
 4675TIP3    H135660   6.943   2.033   1.559  0.1690 -0.0668 -0.3746
 4675TIP3    H235661   7.056   2.133   1.547  0.0108  0.3035  1.0185
 4676TIP3   OH235662   1.382   4.865   1.674  0.5065 -0.0517  0.5616
 4676TIP3    H135663   1.313   4.831   1.731  0.4240 -0.2778  0.3260
 4676TIP3    H235664   1.354   4.955   1.654 -0.7347 -0.7694 -1.1257
 4677TIP3   OH235665   3.394   3.384   7.901  0.9436  0.3953 -0.3178
 4677TIP3    H135666   3.362   3.325   7.832 -0.1853  1.3060 -0.6002
 4677TIP3    H235667   3.431   3.458   7.854 -0.6360  1.4466 -0.0050
 4678TIP3   OH235668   1.217   6.495   0.146  0.3324  0.0074  0.8464
 4678TIP3    H135669   1.211   6.522   0.237 -0.0462 -0.9393  1.1135
 4678TIP3    H235670   1.178   6.408   0.144 -0.9644  0.5679 -0.4688
 4679TIP3   OH235671   3.825   1.276   0.315 -0.4153  0.0467 -0.0427
 4679TIP3    H135672   3.852   1.247   0.228 -0.7648 -0.2072 -0.0665
 4679TIP3    H235673   3.759   1.343   0.299 -0.0593  0.4178  0.0217
 4680TIP3   OH235674   5.529   6.274   1.732  0.6400 -0.0958  0.0651
 4680TIP3    H135675   5.440   6.310   1.739  1.1995  1.3265  0.1170
 4680TIP3    H235676   5.574   6.305   1.811  1.4304 -0.0679 -0.3849
 4681TIP3   OH235677   6.947   3.974   1.227  0.1146  0.2509 -0.2640
 4681TIP3    H135678   7.029   4.013   1.258 -0.1243  0.6695 -0.1471
 4681TIP3    H235679   6.974   3.900   1.173  0.6219  1.4915 -1.7678
 4682TIP3   OH235680   6.336   4.714   0.623  0.2218  0.1120 -0.4701
 4682TIP3    H135681   6.378   4.745   0.702 -2.1143  1.9528  0.1631
 4682TIP3    H235682   6.330   4.619   0.634  1.7204  0.1260  0.5989
 4683TIP3   OH235683   4.103   2.855   7.457  0.2108  0.0428 -0.7242
 4683TIP3    H135684   4.135   2.789   7.396 -1.7696 -1.9464  0.2443
 4683TIP3    H235685   4.029   2.896   7.412 -0.3900 -0.4617 -0.2041
 4684TIP3   OH235686   3.566   0.800   0.905 -0.1845 -0.4220  0.4540
 4684TIP3    H135687   3.559   0.710   0.935  0.7134 -0.6554 -0.0183
 4684TIP3    H235688   3.624   0.842   0.969  0.2297 -0.4429  0.0895
 4685TIP3   OH235689   2.997   3.911   7.614  0.5805 -0.1000  0.9816
 4685TIP3    H135690   2.944   3.834   7.592  0.8302 -0.1381  0.5102
 4685TIP3    H235691   2.968   3.978   7.552  0.1955  0.2648  1.5435
 4686TIP3   OH235692   6.605   2.202   7.830 -0.1958  0.1207 -0.4988
 4686TIP3    H135693   6.597   2.160   7.745  5.0059 -2.7775  0.0106
 4686TIP3    H235694   6.572   2.137   7.892 -2.2345  1.4722 -0.0569
 4687TIP3   OH235695   0.073   4.618   0.983 -0.0489  0.2081  0.5414
 4687TIP3    H135696   0.046   4.590   0.896 -1.3960 -1.7359  1.5177
 4687TIP3    H235697   0.169   4.608   0.984 -0.1919 -1.4191 -0.1794
 4688TIP3   OH235698   6.110   3.032   1.681 -0.4109 -0.3532  0.5228
 4688TIP3    H135699   6.093   3.006   1.591 -2.1145 -2.0382  1.2599
 4688TIP3    H235700   6.036   3.088   1.705  0.7018  1.2008  0.5182
 4689TIP3   OH235701   1.821   4.842   0.081  0.0266 -0.0529  0.1462
 4689TIP3    H135702   1.782   4.895   0.011 -0.2012 -0.3382  0.0555
 4689TIP3    H235703   1.798   4.752   0.058  1.1140 -0.2651 -0.1423
 4690TIP3   OH235704   0.579   0.128   6.261 -0.1359 -0.2401  0.0230
 4690TIP3    H135705   0.568   0.197   6.195 -0.3020  0.9777  1.2805
 4690TIP3    H235706   0.490   0.109   6.291 -0.0405 -0.6031  0.0710
 4691TIP3   OH235707   0.539   4.765   0.314  0.4608 -1.0768  0.1494
 4691TIP3    H135708   0.583   4.824   0.375  1.4788 -2.4922  0.8413
 4691TIP3    H235709   0.566   4.796   0.227  1.1618 -0.6670  0.5028
 4692TIP3   OH235710   5.936   2.174   0.461  0.3339 -0.3863  0.3777
 4692TIP3    H135711   5.988   2.254   0.465  0.3827 -0.3643 -0.6240
 4692TIP3    H235712   5.921   2.159   0.368  0.1461 -1.4313  0.5645
 4693TIP3   OH235713   0.196   2.638   7.556  0.2589 -0.4367 -0.3947
 4693TIP3    H135714   0.274   2.590   7.585  0.8296 -1.4893 -3.3456
 4693TIP3    H235715   0.150   2.576   7.498 -1.0770  1.2540 -1.2309
 4694TIP3   OH235716   5.217   1.997   7.660 -0.0378 -0.2267 -0.3709
 4694TIP3    H135717   5.244   2.075   7.708  1.1803 -0.3927 -0.7378
 4694TIP3    H235718   5.132   1.974   7.696  0.1860  0.5117  0.6589
 4695TIP3   OH235719   4.274   4.008   7.481  0.1102 -0.0854  0.3560
 4695TIP3    H135720   4.314   3.982   7.398  1.4318 -0.2279  1.0197
 4695TIP3    H235721   4.341   3.990   7.547 -0.5339  1.0017  1.3385
 4696TIP3   OH235722   5.709   1.112   7.808  0.6038 -0.1635 -0.7678
 4696TIP3    H135723   5.773   1.136   7.741 -0.0944 -1.3349 -1.9112
 4696TIP3    H235724   5.742   1.031   7.845 -0.1813 -0.7525 -1.3372
 4697TIP3   OH235725   1.635   1.909   1.008  0.0639  0.5796  0.4948
 4697TIP3    H135726   1.588   1.960   0.943 -0.8696 -0.8986 -0.0183
 4697TIP3    H235727   1.651   1.971   1.080  1.4231  2.3324 -1.2254
 4698TIP3   OH235728   3.954   0.447   1.619  0.3467  0.7828  0.3902
 4698TIP3    H135729   3.868   0.484   1.599 -0.5852 -0.8017  1.3303
 4698TIP3    H235730   3.950   0.357   1.585  0.9489  0.0882  2.0646
 4699TIP3   OH235731   2.142   5.172   7.549 -0.0112  0.4487 -0.0138
 4699TIP3    H135732   2.092   5.189   7.469  0.1474 -1.3847 -0.5407
 4699TIP3    H235733   2.211   5.112   7.522  0.2229  0.0248  1.4536
 4700TIP3   OH235734   1.037   0.539   6.289 -0.3178 -0.3926 -0.1180
 4700TIP3    H135735   0.949   0.527   6.254 -0.6421 -0.1432  0.5782
 4700TIP3    H235736   1.093   0.483   6.235 -0.8151 -0.1245 -0.9232
 4701TIP3   OH235737   5.573   5.846   1.932  0.4508 -0.2494 -0.0580
 4701TIP3    H135738   5.586   5.927   1.882  0.4155 -0.6736 -0.7713
 4701TIP3    H235739   5.588   5.871   2.023  0.6089  0.5216 -0.2892
 4702TIP3   OH235740   0.303   1.905   0.480  0.2931  0.1416 -0.0356
 4702TIP3    H135741   0.357   1.923   0.403 -2.9022  0.4401 -2.4396
 4702TIP3    H235742   0.278   1.991   0.513  0.2353  0.0223  0.2378
 4703TIP3   OH235743   5.059   1.060   6.825  0.1089  0.1289  0.4183
 4703TIP3    H135744   5.057   0.968   6.797 -0.5576  0.8997 -2.4002
 4703TIP3    H235745   5.109   1.105   6.756 -2.2612  2.3293 -0.0048
 4704TIP3   OH235746   3.804   0.899   2.219 -0.4540  0.0006 -0.1146
 4704TIP3    H135747   3.763   0.983   2.239 -0.2883 -0.1067  0.6871
 4704TIP3    H235748   3.731   0.838   2.214 -0.4949  0.0240  0.1866
 4705TIP3   OH235749   5.478   0.791   1.817 -0.4185 -0.6413  0.7385
 4705TIP3    H135750   5.470   0.770   1.910 -2.6088 -0.3437  0.6735
 4705TIP3    H235751   5.470   0.706   1.773  0.2839 -0.7424  0.7948
 4706TIP3   OH235752   6.747   3.384   1.947 -0.0310 -0.2016  0.4660
 4706TIP3    H135753   6.707   3.315   2.000 -2.5709  0.8937  0.1070
 4706TIP3    H235754   6.690   3.460   1.959 -0.5596  0.2589 -3.3810
 4707TIP3   OH235755   4.411   3.075   0.289 -0.6533 -0.3729 -0.5168
 4707TIP3    H135756   4.369   3.161   0.296  0.4354  0.2517 -1.2705
 4707TIP3    H235757   4.373   3.024   0.360 -0.6860  1.0155  0.5100
 4708TIP3   OH235758   1.714   2.947   1.227  0.5105 -0.4208 -0.0901
 4708TIP3    H135759   1.732   2.931   1.319 -0.0973 -0.2070  0.0703
 4708TIP3    H235760   1.654   2.877   1.202 -0.6458  0.4676  0.1159
 4709TIP3   OH235761   2.017   0.108   1.046 -0.2700  0.2582 -0.2949
 4709TIP3    H135762   2.088   0.143   1.100  0.5220  0.8630 -1.6868
 4709TIP3    H235763   2.043   0.017   1.030 -1.7113 -0.7374  2.2704
 4710TIP3   OH235764   3.492   5.025   0.721  0.0752  0.0604  0.1764
 4710TIP3    H135765   3.463   4.937   0.744  1.2720 -0.7466 -1.1819
 4710TIP3    H235766   3.578   5.033   0.762 -0.9598  1.4879  2.1595
 4711TIP3   OH235767   6.081   0.272   2.395 -0.1250  0.2707  0.0604
 4711TIP3    H135768   6.087   0.362   2.363 -1.5756  0.2550 -0.3134
 4711TIP3    H235769   6.091   0.218   2.317 -0.4534  0.1431  0.1056
 4712TIP3   OH235770   2.750   5.644   2.109  0.3334 -0.5128  0.0367
 4712TIP3    H135771   2.774   5.660   2.200  0.0795  0.2684 -0.0254
 4712TIP3    H235772   2.658   5.668   2.103 -0.0138 -1.8017 -0.1384
 4713TIP3   OH235773   1.395   0.478   0.174  0.5602 -0.6840 -0.3281
 4713TIP3    H135774   1.350   0.560   0.153 -0.6945  0.5241  5.3437
 4713TIP3    H235775   1.482   0.506   0.204  0.2640 -1.3305  1.2648
 4714TIP3   OH235776   4.370   6.799   0.117 -0.2910  0.3633  0.1171
 4714TIP3    H135777   4.332   6.838   0.195 -0.2760 -0.8687  0.7526
 4714TIP3    H235778   4.344   6.707   0.120  1.3645 -0.1603 -0.2720
 4715TIP3   OH235779   4.810   5.844   0.111  0.5562  0.1999 -0.0799
 4715TIP3    H135780   4.888   5.888   0.145  2.0732 -1.7879 -0.7659
 4715TIP3    H235781   4.744   5.913   0.104  1.8374  1.6961  1.7442
 4716TIP3   OH235782   3.538   4.124   0.981 -0.3542  0.1549  0.2063
 4716TIP3    H135783   3.537   4.199   1.041 -0.3704 -1.0509  1.7551
 4716TIP3    H235784   3.626   4.088   0.988 -0.6613 -0.6024  0.2787
 4717TIP3   OH235785   0.140   2.828   6.932 -0.1401  0.0163 -0.5130
 4717TIP3    H135786   0.136   2.895   6.864 -1.2498  1.4526  0.8782
 4717TIP3    H235787   0.049   2.818   6.961  0.4030  0.1766  1.3895
 4718TIP3   OH235788   2.718   5.453   7.147  0.3300 -0.1108  0.1165
 4718TIP3    H135789   2.625   5.436   7.157  0.1029  0.5261 -0.8113
 4718TIP3    H235790   2.761   5.372   7.174 -0.6300 -1.7434 -2.8465
 4719TIP3   OH235791   6.055   5.489   7.997 -0.0577  0.2250  0.6431
 4719TIP3    H135792   6.133   5.438   8.016 -0.7826 -2.2437 -2.2519
 4719TIP3    H235793   6.026   5.459   7.911 -3.0280  2.5444  0.6359
 4720TIP3   OH235794   0.994   2.008   1.321  0.6046 -0.3165 -0.2394
 4720TIP3    H135795   0.971   2.065   1.247 -3.2609 -2.0069 -0.5862
 4720TIP3    H235796   1.058   1.947   1.285  1.5082  1.0852 -1.1010
 4721TIP3   OH235797   3.425   3.370   1.580  0.5189 -0.0138  0.3452
 4721TIP3    H135798   3.512   3.353   1.545  0.9244 -1.5555  1.9725
 4721TIP3    H235799   3.434   3.362   1.675 -1.4406 -0.4694  0.5516
 4722TIP3   OH235800   2.766   1.509   6.723 -0.2313  0.0059  0.4645
 4722TIP3    H135801   2.834   1.573   6.745 -0.3832  0.1672  0.4685
 4722TIP3    H235802   2.802   1.460   6.649 -1.2872  2.0486 -1.5403
 4723TIP3   OH235803   4.470   3.780   2.330  0.3482 -0.2191  0.1603
 4723TIP3    H135804   4.376   3.763   2.340  0.6227 -1.4689  0.9058
 4723TIP3    H235805   4.492   3.744   2.244  0.1612  0.0070  0.0166
 4724TIP3   OH235806   3.643   6.692   7.597 -0.4892  0.0841  0.3317
 4724TIP3    H135807   3.669   6.721   7.685  0.2768  0.9073 -0.1509
 4724TIP3    H235808   3.548   6.681   7.603 -0.4053 -0.2115  1.3563
 4725TIP3   OH235809   5.997   6.025   1.166  0.2393  0.3807 -0.5590
 4725TIP3    H135810   5.956   5.948   1.205  1.5761 -0.3861 -0.5973
 4725TIP3    H235811   5.927   6.066   1.116 -0.7375 -0.2933  0.2072
 4726TIP3   OH235812   6.597   1.264   2.296 -0.5546  0.2637  0.2111
 4726TIP3    H135813   6.676   1.242   2.247 -0.4866  1.0282 -0.0324
 4726TIP3    H235814   6.607   1.356   2.318 -1.0370  0.1764  0.8310
 4727TIP3   OH235815   2.591   2.337   1.716  0.0199  0.1012 -0.1590
 4727TIP3    H135816   2.671   2.338   1.769  0.2050  0.7479 -0.4377
 4727TIP3    H235817   2.551   2.252   1.735  0.1562  0.2595  0.9009
 4728TIP3   OH235818   4.188   6.516   6.713 -0.2772 -0.4692  0.5733
 4728TIP3    H135819   4.191   6.564   6.796  1.2217  3.0222 -1.3101
 4728TIP3    H235820   4.111   6.550   6.668 -1.8212 -3.2399  0.8589
 4729TIP3   OH235821   4.105   0.933   1.982  0.6414  0.2432 -0.2787
 4729TIP3    H135822   4.161   1.005   2.009  0.4899  0.4387 -0.4803
 4729TIP3    H235823   4.163   0.873   1.936  1.0017 -0.3403  0.9057
 4730TIP3   OH235824   1.418   6.948   7.174  0.2184 -0.3507 -0.6729
 4730TIP3    H135825   1.509   6.961   7.198  0.4236  0.4487 -1.8211
 4730TIP3    H235826   1.419   6.868   7.122  0.3249 -0.1371 -1.0005
 4731TIP3   OH235827   5.548   3.857   8.075  0.1133 -0.7531 -0.4418
 4731TIP3    H135828   5.590   3.901   8.149  0.0007 -0.7366 -0.3865
 4731TIP3    H235829   5.535   3.926   8.010 -1.2828 -0.3958  0.1668
 4732TIP3   OH235830   4.773   3.964   7.129  0.0431  0.0147  0.0398
 4732TIP3    H135831   4.827   3.999   7.200  0.4336 -0.3899 -0.0507
 4732TIP3    H235832   4.782   4.027   7.058 -0.6030  0.5831  0.4553
 4733TIP3   OH235833   1.693   6.597   6.864 -0.3335 -0.4054  0.6753
 4733TIP3    H135834   1.624   6.640   6.813  1.0524 -1.3877 -2.2543
 4733TIP3    H235835   1.762   6.663   6.872  0.3516 -0.9240 -0.7272
 4734TIP3   OH235836   5.017   2.213   2.073  0.0128  0.7805 -0.0323
 4734TIP3    H135837   4.933   2.237   2.112 -0.5825 -1.8896  0.5560
 4734TIP3    H235838   4.999   2.131   2.026  1.8032  1.3689 -1.9183
 4735TIP3   OH235839   2.025   5.069   7.916  0.6105 -0.1565  0.0629
 4735TIP3    H135840   2.105   5.043   7.962  1.2786  2.7842  0.7647
 4735TIP3    H235841   2.054   5.137   7.854 -1.4708  2.2276  1.5071
 4736TIP3   OH235842   0.307   2.018   0.092  0.5340  0.5372 -0.4942
 4736TIP3    H135843   0.243   1.958   0.054 -0.1658  0.9726 -0.0175
 4736TIP3    H235844   0.376   2.024   0.026  0.0595  0.1139 -1.0404
 4737TIP3   OH235845   2.737   6.086   8.380  0.3297  0.0495  0.7391
 4737TIP3    H135846   2.652   6.078   8.336 -0.0303  1.2502  1.1753
 4737TIP3    H235847   2.744   6.007   8.433 -1.1292  0.5189  1.7002
 4738TIP3   OH235848   4.043   4.163   7.375  0.2067 -0.3518 -0.2733
 4738TIP3    H135849   3.985   4.105   7.424 -0.2832  0.2584 -0.1222
 4738TIP3    H235850   4.127   4.116   7.371 -0.4344 -1.4738 -0.9409
 4739TIP3   OH235851   3.817   3.237   8.005  0.0412 -0.0210  0.4094
 4739TIP3    H135852   3.800   3.301   7.936  0.5178  0.1686  0.4653
 4739TIP3    H235853   3.738   3.183   8.008  0.3544 -0.5873 -0.8728
 4740TIP3   OH235854   6.717   5.542   6.900 -0.0099 -0.1536 -0.0483
 4740TIP3    H135855   6.748   5.608   6.839  2.4194 -0.1046  1.1078
 4740TIP3    H235856   6.642   5.583   6.944  0.5214  1.2286 -0.3889
 4741TIP3   OH235857   3.598   1.523   8.414  0.6181 -0.0796  0.1974
 4741TIP3    H135858   3.606   1.485   8.326  1.2789  0.0363  0.2030
 4741TIP3    H235859   3.517   1.484   8.449  0.9296 -0.9827 -0.0491
 4742TIP3   OH235860   5.308   3.919   2.416 -0.7486  0.1700 -0.6671
 4742TIP3    H135861   5.279   3.861   2.487 -0.1051  0.6657  0.0158
 4742TIP3    H235862   5.399   3.941   2.438 -0.9221  1.2924 -1.0113
 4743TIP3   OH235863   4.259   5.365   7.244 -0.5416 -0.1158  0.1829
 4743TIP3    H135864   4.180   5.327   7.206 -0.7532  0.1858  0.3187
 4743TIP3    H235865   4.264   5.453   7.207  0.3990 -0.5475 -0.7851
 4744TIP3   OH235866   5.957   4.789   8.217  0.0544 -0.7372  0.4669
 4744TIP3    H135867   5.871   4.785   8.177  0.5270  0.7129 -0.8145
 4744TIP3    H235868   6.005   4.715   8.181  0.1944  0.0580 -1.0739
 4745TIP3   OH235869   1.864   1.232   0.324  0.0547 -0.1999 -0.0180
 4745TIP3    H135870   1.816   1.313   0.305  0.2730  0.0449  0.4663
 4745TIP3    H235871   1.956   1.259   0.327 -0.0442  0.0558  2.7138
 4746TIP3   OH235872   0.553   3.691   1.093  0.2376 -0.4311  0.4744
 4746TIP3    H135873   0.626   3.746   1.065 -1.9612  1.3353 -2.2209
 4746TIP3    H235874   0.557   3.614   1.036 -1.4855  0.9698 -1.6952
 4747TIP3   OH235875   3.218   5.227   1.677  0.1474 -0.2181  0.3984
 4747TIP3    H135876   3.193   5.139   1.648 -3.2921  0.1932  1.6026
 4747TIP3    H235877   3.221   5.221   1.773  2.5299  0.4540  0.4301
 4748TIP3   OH235878   6.717   0.341   0.289 -0.4975  0.1132  0.1802
 4748TIP3    H135879   6.637   0.321   0.240  0.1821 -0.1621 -0.8492
 4748TIP3    H235880   6.706   0.432   0.315 -0.5752  0.5032 -1.1285
 4749TIP3   OH235881   2.062   2.215   8.348  0.0568  0.5341  0.0261
 4749TIP3    H135882   2.145   2.242   8.388  1.3240 -1.7052 -0.8985
 4749TIP3    H235883   2.060   2.262   8.265  0.8141  0.0455 -0.2849
 4750TIP3   OH235884   5.078   0.010   6.833  0.2936 -0.3245 -0.1022
 4750TIP3    H135885   5.112   0.096   6.857 -0.2878 -0.8280  3.0449
 4750TIP3    H235886   5.144  -0.026   6.774  0.6799  2.1043 -1.2767
 4751TIP3   OH235887   6.273   1.433   2.600 -0.0191 -0.5985 -0.1206
 4751TIP3    H135888   6.313   1.436   2.687  0.9317 -1.2563 -0.5086
 4751TIP3    H235889   6.323   1.365   2.554 -2.9877 -3.1350  0.0648
 4752TIP3   OH235890   6.975   1.363   8.094 -0.0932 -0.2658 -0.2161
 4752TIP3    H135891   6.881   1.344   8.086  0.0104 -2.3152  2.3307
 4752TIP3    H235892   6.985   1.400   8.182  1.1988  2.7288 -1.4763
 4753TIP3   OH235893   6.194   1.732   6.560 -0.3371 -0.3059 -0.0083
 4753TIP3    H135894   6.229   1.654   6.517 -0.1094  0.3753 -1.0810
 4753TIP3    H235895   6.143   1.777   6.493  0.0541  0.8036  0.4067
 4754TIP3   OH235896   5.468   2.180   0.976 -0.2814  0.8699  0.1467
 4754TIP3    H135897   5.483   2.112   0.910 -0.7284 -1.0012  1.8722
 4754TIP3    H235898   5.375   2.172   0.998  0.3280 -0.2085  2.6541
 4755TIP3   OH235899   6.126   5.906   0.535  0.4309 -0.1162  0.0556
 4755TIP3    H135900   6.176   5.837   0.579  0.8371  0.5228  0.6333
 4755TIP3    H235901   6.090   5.958   0.607  0.6093  0.6031 -0.3645
 4756TIP3   OH235902   5.072   0.802   0.480  0.2529  0.1804  0.0101
 4756TIP3    H135903   5.132   0.860   0.433  0.3836  0.6691  0.7558
 4756TIP3    H235904   5.060   0.844   0.565  0.7558 -1.1350  0.7648
 4757TIP3   OH235905   5.492   0.508   1.844 -0.6091  0.1489 -0.0663
 4757TIP3    H135906   5.567   0.451   1.860 -0.9877 -0.6409 -1.0241
 4757TIP3    H235907   5.426   0.479   1.908 -0.4167  0.2647  0.1883
 4758TIP3   OH235908   6.948   1.262   7.276  0.1725  0.4461  0.2124
 4758TIP3    H135909   6.889   1.271   7.201  2.4839 -0.1623 -1.8156
 4758TIP3    H235910   6.999   1.183   7.258  0.8754  0.3163  2.4184
 4759TIP3   OH235911   4.559   4.272   6.253  0.1420  0.6086  0.2237
 4759TIP3    H135912   4.567   4.329   6.330  0.6495  1.7372 -0.6335
 4759TIP3    H235913   4.563   4.332   6.179  0.1635 -0.5117 -0.7045
 4760TIP3   OH235914   4.292   4.793   0.883 -0.4602  0.2147  0.0749
 4760TIP3    H135915   4.330   4.836   0.807 -0.6365  1.5349  0.7174
 4760TIP3    H235916   4.355   4.808   0.953 -0.1092 -1.3258  0.1278
 4761TIP3   OH235917   6.600   6.492   0.460 -0.7913  0.3461 -0.0709
 4761TIP3    H135918   6.614   6.398   0.448  0.0183  0.4205  0.2180
 4761TIP3    H235919   6.506   6.501   0.476 -0.7978 -0.4635  0.3677
 4762TIP3   OH235920   3.299   5.461   1.176  0.0432  0.0304  0.4423
 4762TIP3    H135921   3.353   5.521   1.125  2.3276 -1.8985  0.4749
 4762TIP3    H235922   3.269   5.396   1.114  0.7734 -0.9263  1.0649
 4763TIP3   OH235923   6.711   5.738   6.680  0.9443 -0.4583 -0.3133
 4763TIP3    H135924   6.618   5.718   6.676  0.5485  1.2921 -0.4531
 4763TIP3    H235925   6.730   5.781   6.597  1.9925 -1.1917 -0.4755
 4764TIP3   OH235926   2.245   4.975   8.059  0.5938 -0.7837 -0.3896
 4764TIP3    H135927   2.244   4.954   8.153  1.7664 -0.7926 -0.3619
 4764TIP3    H235928   2.338   4.973   8.035  0.3490 -0.2616 -1.4395
 4765TIP3   OH235929   2.662   5.198   1.366 -0.2712  0.8525 -0.3379
 4765TIP3    H135930   2.670   5.137   1.292  1.6305  0.2636  0.2894
 4765TIP3    H235931   2.612   5.150   1.431  2.3685 -0.7063  0.6942
 4766TIP3   OH235932   0.332   6.207   6.150 -0.2080  0.3616  0.4914
 4766TIP3    H135933   0.349   6.244   6.237 -0.5962  0.8581  0.3572
 4766TIP3    H235934   0.244   6.237   6.128 -0.2721 -0.1073  0.1000
 4767TIP3   OH235935   1.024   2.453   0.366  0.0033  0.0171 -0.7535
 4767TIP3    H135936   1.062   2.445   0.279  0.1510 -0.9008 -0.6115
 4767TIP3    H235937   1.086   2.506   0.415  0.5235 -0.5029 -0.8519
 4768TIP3   OH235938   5.186   6.437   1.625  0.3973 -0.2335 -0.9290
 4768TIP3    H135939   5.275   6.473   1.624  0.1423  0.4374 -0.3242
 4768TIP3    H235940   5.143   6.482   1.697 -0.7068  0.0911 -1.7622
 4769TIP3   OH235941   6.564   0.786   0.713  0.5704  0.4078  0.0249
 4769TIP3    H135942   6.612   0.866   0.731  0.9621 -0.2252  2.1106
 4769TIP3    H235943   6.509   0.807   0.637 -0.0555  2.9572  1.0670
 4770TIP3   OH235944   3.270   6.784   0.110 -0.3333  0.3003 -0.9034
 4770TIP3    H135945   3.213   6.744   0.175  0.6660  0.5780  0.1683
 4770TIP3    H235946   3.328   6.842   0.160  0.8342  0.0970 -1.9639
 4771TIP3   OH235947   5.622   5.235   7.393 -0.3998  0.0685 -0.1390
 4771TIP3    H135948   5.659   5.161   7.345 -1.5794 -0.6988  0.1003
 4771TIP3    H235949   5.536   5.205   7.422 -1.5026  1.9991 -1.2038
 4772TIP3   OH235950   4.198   5.655   1.745 -0.7391 -0.0427 -0.1098
 4772TIP3    H135951   4.107   5.645   1.716 -0.7367  1.2951 -0.6237
 4772TIP3    H235952   4.193   5.710   1.822 -0.3776 -0.1964  0.0260
 4773TIP3   OH235953   2.510   0.776   6.990  0.2841  0.2460 -0.3245
 4773TIP3    H135954   2.593   0.800   6.948  0.5723  3.4563  1.6930
 4773TIP3    H235955   2.444   0.825   6.942 -0.4059 -1.5807 -1.3344
 4774TIP3   OH235956   5.566   0.741   2.077  0.1620  0.2677  0.1377
 4774TIP3    H135957   5.597   0.781   2.159  1.5525 -1.2609  0.4129
 4774TIP3    H235958   5.645   0.706   2.036 -0.9318 -2.1546 -0.0834
 4775TIP3   OH235959   2.610   3.902   0.956 -0.1056 -0.1632  1.0145
 4775TIP3    H135960   2.531   3.925   0.908  0.2631  0.7524  0.8180
 4775TIP3    H235961   2.681   3.921   0.894  0.2862 -0.6493  1.3082
 4776TIP3   OH235962   0.235   0.102   8.387  0.1875  1.2593  0.5960
 4776TIP3    H135963   0.319   0.124   8.428  0.0884  1.1929  0.8421
 4776TIP3    H235964   0.188   0.055   8.456  0.6052 -0.2135 -0.0914
 4777TIP3   OH235965   3.347   0.151   1.111  0.6609  0.0884 -0.0477
 4777TIP3    H135966   3.284   0.089   1.147 -1.2876  0.3420 -2.6797
 4777TIP3    H235967   3.364   0.213   1.182 -2.6295  0.3953  0.6226
 4778TIP3   OH235968   0.890   1.519   0.273  0.2510 -0.3985  0.1164
 4778TIP3    H135969   0.968   1.464   0.264  0.7653  0.1530  1.0761
 4778TIP3    H235970   0.866   1.540   0.183 -1.7886 -4.6036 -0.6050
 4779TIP3   OH235971   1.190   6.179   0.023  0.0604  0.0191  0.1278
 4779TIP3    H135972   1.246   6.197  -0.052 -1.1838 -0.0292 -0.8480
 4779TIP3    H235973   1.104   6.213  -0.002 -0.7849 -1.4769  0.8418
 4780TIP3   OH235974   5.979   2.286   7.596  0.3394 -0.0976 -0.3863
 4780TIP3    H135975   5.928   2.238   7.661 -0.2161  0.5919 -0.3049
 4780TIP3    H235976   5.916   2.305   7.526  0.9060 -0.7600 -1.1011
 4781TIP3   OH235977   1.299   5.412   1.629 -0.0559  0.2545 -0.0881
 4781TIP3    H135978   1.346   5.468   1.690 -2.0540 -1.1053  2.9820
 4781TIP3    H235979   1.227   5.466   1.597 -1.2381 -0.0020  1.8913
 4782TIP3   OH235980   3.402   1.738   1.671 -0.1483  0.1435 -0.7204
 4782TIP3    H135981   3.438   1.810   1.618 -0.2075 -0.1748 -1.1949
 4782TIP3    H235982   3.451   1.661   1.644  0.9345  0.2348  0.8290
 4783TIP3   OH235983   1.927   1.996   0.104 -0.2468 -0.0496 -0.4877
 4783TIP3    H135984   1.901   2.088   0.098  0.7680  0.2878  0.0652
 4783TIP3    H235985   1.956   1.973   0.016  1.4448  0.7904 -0.1986
 4784TIP3   OH235986   6.352   3.448   7.812 -0.0823  0.6152 -0.8640
 4784TIP3    H135987   6.297   3.370   7.807  0.9609 -0.3821  1.5257
 4784TIP3    H235988   6.426   3.429   7.755  0.0514 -0.0834 -0.4765
 4785TIP3   OH235989   1.232   2.338   0.678 -0.6237  0.1954  0.0416
 4785TIP3    H135990   1.214   2.399   0.749  1.3815 -1.3126  2.0286
 4785TIP3    H235991   1.216   2.387   0.598 -1.7855  2.3829  1.5357
 4786TIP3   OH235992   5.450   5.550   0.039  0.0730 -0.2494  0.5836
 4786TIP3    H135993   5.414   5.636   0.059 -2.1785 -0.3523 -2.3304
 4786TIP3    H235994   5.392   5.488   0.084  0.9430 -0.3215  1.6505
 4787TIP3   OH235995   4.224   0.409   0.731  0.1886 -0.2707 -0.8669
 4787TIP3    H135996   4.273   0.491   0.727 -0.5418  0.1441 -2.1141
 4787TIP3    H235997   4.256   0.359   0.656  1.8257 -1.8789  0.8167
 4788TIP3   OH235998   4.138   3.714   6.771  0.0570 -0.1038  0.6228
 4788TIP3    H135999   4.080   3.655   6.724  2.3860 -0.3991 -2.1575
 4788TIP3    H236000   4.091   3.735   6.852 -2.4813 -2.7179 -0.0221
 4789TIP3   OH236001   2.424   2.774   7.302  0.5065 -0.4901  0.2378
 4789TIP3    H136002   2.465   2.736   7.225  0.4807  1.6113 -0.8768
 4789TIP3    H236003   2.339   2.731   7.309  0.1316 -0.0819 -1.4742
 4790TIP3   OH236004   3.375   2.511   8.381 -0.3762 -0.0051 -0.3629
 4790TIP3    H136005   3.383   2.481   8.472  2.0163 -1.1643 -0.8735
 4790TIP3    H236006   3.353   2.604   8.388  0.3663  0.0741  1.4136
 4791TIP3   OH236007   6.300   6.756   0.688 -0.3051  0.1342 -0.0607
 4791TIP3    H136008   6.314   6.759   0.783  0.2160  0.8381 -0.1490
 4791TIP3    H236009   6.280   6.847   0.664 -0.2515 -0.0085 -0.6495
 4792TIP3   OH236010   2.553   0.621   7.217  0.0116 -0.5308 -0.4473
 4792TIP3    H136011   2.529   0.690   7.154  0.4036  0.4631  0.4507
 4792TIP3    H236012   2.618   0.569   7.172  3.0003  2.2646  0.2225
 4793TIP3   OH236013   2.065   6.441   1.479 -0.1765 -0.6815  0.1241
 4793TIP3    H136014   2.008   6.367   1.459 -1.3873  0.5581 -1.2278
 4793TIP3    H236015   2.006   6.514   1.495  1.0072  0.3724 -0.1101
 4794TIP3   OH236016   0.532   0.477   7.439 -0.4764  0.7468 -0.0635
 4794TIP3    H136017   0.557   0.454   7.350 -1.3621 -0.6650  0.0149
 4794TIP3    H236018   0.609   0.521   7.475  0.2336  0.4988 -1.2090
 4795TIP3   OH236019   4.359   1.470   1.037  0.0433 -0.0612  0.3457
 4795TIP3    H136020   4.449   1.503   1.041  1.2185 -3.1106  2.6034
 4795TIP3    H236021   4.306   1.549   1.033  2.7546  1.9310  0.4798
 4796TIP3   OH236022   1.395   5.829   6.098  0.1110  0.7421 -0.3643
 4796TIP3    H136023   1.437   5.914   6.087  0.6282  0.6228  0.6221
 4796TIP3    H236024   1.320   5.847   6.155  0.3914  0.4835  0.0838
 4797TIP3   OH236025   4.660   1.205   6.235  0.0507  0.6921 -0.1741
 4797TIP3    H136026   4.676   1.202   6.329 -1.0302  1.1474  0.0478
 4797TIP3    H236027   4.616   1.289   6.221 -0.8583  0.1220 -0.8919
 4798TIP3   OH236028   4.014   4.537   1.701 -0.0046  0.2672 -0.3935
 4798TIP3    H136029   4.096   4.587   1.697  0.1130  0.0878 -0.2060
 4798TIP3    H236030   3.963   4.581   1.769 -0.9090  1.6518 -1.8791
 4799TIP3   OH236031   6.126   0.003   1.570 -0.0324 -0.4509  0.5423
 4799TIP3    H136032   6.139   0.097   1.573 -0.9226 -0.3208  0.5675
 4799TIP3    H236033   6.064  -0.015   1.641 -0.3056 -0.9738  0.1830
 4800TIP3   OH236034   0.506   5.726   7.074 -0.1698  0.5910 -0.2147
 4800TIP3    H136035   0.579   5.705   7.015  0.2039 -0.4646  0.5937
 4800TIP3    H236036   0.538   5.703   7.161 -1.0445  1.2621  0.3049
 4801TIP3   OH236037   5.530   0.214   0.747  0.0389  0.0686  0.8908
 4801TIP3    H136038   5.473   0.201   0.823  0.3429 -3.3126  0.6856
 4801TIP3    H236039   5.473   0.253   0.681 -1.0235  0.2520  1.8921
 4802TIP3   OH236040   2.519   1.924   6.692 -0.1717  0.4337 -0.2271
 4802TIP3    H136041   2.535   1.898   6.601 -0.7836  0.0423 -0.2278
 4802TIP3    H236042   2.606   1.942   6.728  0.3383 -1.9518 -0.1181
 4803TIP3   OH236043   0.243   5.832   7.116  1.0364 -0.3703 -0.2065
 4803TIP3    H136044   0.332   5.796   7.107  1.5229  0.5560  0.6901
 4803TIP3    H236045   0.251   5.923   7.088  0.3241 -0.3327 -0.2968
 4804TIP3   OH236046   6.348   4.903   7.910  0.3497 -0.5438  0.3144
 4804TIP3    H136047   6.371   4.974   7.970  0.8607 -0.5617  0.1467
 4804TIP3    H236048   6.429   4.886   7.861 -0.2482 -0.0451 -0.8897
 4805TIP3   OH236049   5.958   2.017   0.900  0.4654  0.1322  0.4353
 4805TIP3    H136050   5.951   2.077   0.973  0.1186 -0.7430  1.1425
 4805TIP3    H236051   5.979   1.932   0.940 -0.0855 -0.4356 -0.4262
 4806TIP3   OH236052   4.315   5.211   6.501 -0.4499  0.0409 -0.6884
 4806TIP3    H136053   4.327   5.128   6.456 -1.0207  0.1312 -1.0116
 4806TIP3    H236054   4.224   5.211   6.529 -0.0638 -0.0925  0.6497
 4807TIP3   OH236055   4.339   5.860   0.616  0.4908 -0.7521 -0.2787
 4807TIP3    H136056   4.248   5.841   0.639  0.4459  0.9964  1.1600
 4807TIP3    H236057   4.388   5.846   0.696  0.9589  1.4793 -0.1095
 4808TIP3   OH236058   5.715   2.660   0.911 -0.3619  0.5105  0.9718
 4808TIP3    H136059   5.748   2.721   0.977 -1.6774  1.1807  1.0410
 4808TIP3    H236060   5.700   2.579   0.960  0.1321  0.5298  1.1618
 4809TIP3   OH236061   4.580   1.689   7.779  0.1582  0.3006  0.4213
 4809TIP3    H136062   4.516   1.618   7.789 -0.8437  1.3489  1.8945
 4809TIP3    H236063   4.589   1.699   7.684 -0.8918 -0.7440  0.1807
 4810TIP3   OH236064   5.715   1.514   1.891  0.2762 -0.2475  0.0756
 4810TIP3    H136065   5.686   1.428   1.921 -1.9536 -0.2588 -1.8302
 4810TIP3    H236066   5.811   1.507   1.887  0.0915 -3.2426 -1.6799
 4811TIP3   OH236067   5.263   0.044   0.606 -0.1432 -0.3552  0.8155
 4811TIP3    H136068   5.213  -0.033   0.634  0.0913 -1.0786 -0.6336
 4811TIP3    H236069   5.208   0.118   0.630 -1.8243 -1.1149 -0.4508
 4812TIP3   OH236070   2.573   5.969   0.896  0.5929  0.2921  0.0198
 4812TIP3    H136071   2.489   5.983   0.939  0.1332 -0.0246 -0.7449
 4812TIP3    H236072   2.636   5.962   0.967  0.1864  1.8734  0.5755
 4813TIP3   OH236073   1.955   0.829   8.245  0.3981  0.4231 -0.0293
 4813TIP3    H136074   2.041   0.824   8.287 -0.1191 -1.7638  0.8820
 4813TIP3    H236075   1.893   0.825   8.317 -0.5031  1.0799 -0.7490
 4814TIP3   OH236076   2.549   4.321   0.455  0.3771  0.2329 -0.4963
 4814TIP3    H136077   2.565   4.243   0.508 -0.1321 -0.1654 -0.9063
 4814TIP3    H236078   2.575   4.394   0.511 -0.2114 -0.1698  0.3363
 4815TIP3   OH236079   2.425   5.678   7.020 -0.1213 -0.1208 -0.1880
 4815TIP3    H136080   2.368   5.670   6.943 -1.2574  1.2550  0.4834
 4815TIP3    H236081   2.441   5.587   7.046 -1.6753 -0.5598 -0.6359
 4816TIP3   OH236082   4.509   4.079   8.169 -0.1304 -0.0502 -0.3107
 4816TIP3    H136083   4.514   4.123   8.254  1.9976  0.9519 -0.8804
 4816TIP3    H236084   4.452   4.004   8.184  1.1077 -0.5748  2.3437
 4817TIP3   OH236085   5.424   4.507   2.997 -0.5550 -0.5123 -0.2039
 4817TIP3    H136086   5.373   4.576   2.955  0.7198  0.2511 -0.5453
 4817TIP3    H236087   5.362   4.465   3.057 -2.1116 -0.8922 -1.9612
 4818TIP3   OH236088   2.642   3.964   7.622 -1.1339  1.1504  0.3737
 4818TIP3    H136089   2.659   3.933   7.533 -0.8104 -1.5958  1.2759
 4818TIP3    H236090   2.547   3.961   7.631 -1.0988 -0.2054  0.5761
 4819TIP3   OH236091   5.626   0.140   1.337  0.2942  0.1340  0.5006
 4819TIP3    H136092   5.645   0.202   1.267 -2.2408 -0.7480 -1.1199
 4819TIP3    H236093   5.673   0.060   1.311  1.4470  0.5546  1.2199
 4820TIP3   OH236094   6.851   6.236   8.135 -0.0947 -0.2861 -0.1098
 4820TIP3    H136095   6.813   6.237   8.047  1.1363  1.4877 -0.6837
 4820TIP3    H236096   6.783   6.197   8.190 -0.8939 -1.4584 -1.8186
 4821TIP3   OH236097   2.141   1.723   8.385 -0.1266  0.1850 -0.5911
 4821TIP3    H136098   2.048   1.746   8.379  0.1137  1.5803  0.3987
 4821TIP3    H236099   2.187   1.799   8.349  0.6470 -0.1459 -0.3156
 4822TIP3   OH236100   2.857   1.534   1.335 -0.0738  0.0846  0.7749
 4822TIP3    H136101   2.825   1.621   1.309 -0.0178  0.5203  2.1158
 4822TIP3    H236102   2.949   1.548   1.358 -0.5297  0.0899  2.7955
 4823TIP3   OH236103   6.166   2.061   0.256  0.4391 -0.0631 -0.2177
 4823TIP3    H136104   6.256   2.033   0.269  0.7798  1.0761 -0.0284
 4823TIP3    H236105   6.121   2.038   0.337  0.4969 -0.8387 -0.3992
 4824TIP3   OH236106   6.452   0.974   7.178 -0.5840 -0.0606 -0.3308
 4824TIP3    H136107   6.460   1.010   7.090 -1.4647  1.2394  0.0889
 4824TIP3    H236108   6.519   1.021   7.229  0.4759 -1.3771 -0.4393
 4825TIP3   OH236109   4.809   2.215   0.408 -0.0936 -0.2779 -0.1097
 4825TIP3    H136110   4.881   2.233   0.347 -0.6738 -0.5578 -0.8894
 4825TIP3    H236111   4.843   2.145   0.465  1.1151  1.2085  1.0864
 4826TIP3   OH236112   0.468   2.496   1.294 -0.3180  0.2392  0.0834
 4826TIP3    H136113   0.490   2.484   1.386  1.0759 -0.1396 -0.2689
 4826TIP3    H236114   0.412   2.421   1.273 -0.5460  0.2642  0.5934
 4827TIP3   OH236115   0.148   0.627   7.098 -0.4024 -0.6834  0.3277
 4827TIP3    H136116   0.197   0.679   7.036  1.3637 -0.4354  1.8470
 4827TIP3    H236117   0.109   0.556   7.046  2.2579 -1.3662 -0.8640
 4828TIP3   OH236118   4.424   6.312   7.709 -0.2140  0.1422 -0.0103
 4828TIP3    H136119   4.510   6.353   7.695 -0.4119  1.7008  2.6492
 4828TIP3    H236120   4.406   6.327   7.802 -2.8491 -1.2179 -0.2300
 4829TIP3   OH236121   3.249   4.369   7.939  0.4847  0.3396 -0.4405
 4829TIP3    H136122   3.192   4.444   7.921  0.6776  0.5023 -0.3745
 4829TIP3    H236123   3.243   4.356   8.033  0.1589  0.0345 -0.4972
 4830TIP3   OH236124   5.542   4.036   0.521 -0.8189 -0.2295  0.0137
 4830TIP3    H136125   5.583   4.096   0.459 -0.9997 -0.0442  0.0725
 4830TIP3    H236126   5.449   4.037   0.499 -0.8742 -0.2152  0.2398
 4831TIP3   OH236127   0.203   5.558   1.634  0.3850  0.3410  0.0510
 4831TIP3    H136128   0.210   5.652   1.647  2.5738  0.4540 -1.3126
 4831TIP3    H236129   0.294   5.527   1.630 -0.2488 -1.6577 -0.5505
 4832TIP3   OH236130   3.711   1.240   1.641 -0.3734  0.1312  0.3485
 4832TIP3    H136131   3.757   1.183   1.703 -1.3693  0.1293  1.1125
 4832TIP3    H236132   3.743   1.328   1.663 -0.1083  0.0476  0.3085
 4833TIP3   OH236133   3.063   3.594   8.411  0.1220  0.4810  0.0480
 4833TIP3    H136134   3.064   3.519   8.472 -0.9827 -0.1054 -0.6122
 4833TIP3    H236135   3.057   3.554   8.325  0.8719  1.3273 -0.4094
 4834TIP3   OH236136   5.843   4.797   2.453 -0.1317 -0.3703  0.4403
 4834TIP3    H136137   5.822   4.890   2.464  0.9144  0.0571 -0.9232
 4834TIP3    H236138   5.766   4.761   2.410 -0.5728 -0.1728  1.0371
 4835TIP3   OH236139   4.447   5.020   0.367 -0.0638 -0.3532  0.2467
 4835TIP3    H136140   4.485   4.938   0.399 -0.1867 -0.5473 -0.0920
 4835TIP3    H236141   4.442   5.076   0.444  0.0864 -0.6417  0.4694
 4836TIP3   OH236142   1.895   6.224   1.590  0.5717 -0.3692 -0.0032
 4836TIP3    H136143   1.843   6.298   1.560 -1.7916 -1.6262  0.7374
 4836TIP3    H236144   1.932   6.187   1.510 -0.2483  0.1707 -0.6571
 4837TIP3   OH236145   3.861   1.710   8.365 -0.0230  0.0936 -0.3052
 4837TIP3    H136146   3.899   1.698   8.452  2.3687 -0.5376 -1.3499
 4837TIP3    H236147   3.775   1.667   8.370  0.0961  0.0004  1.6904
 4838TIP3   OH236148   0.845   4.388   0.373 -0.0335 -0.4219  0.6768
 4838TIP3    H136149   0.819   4.301   0.405  0.3498 -0.8376 -0.1154
 4838TIP3    H236150   0.940   4.389   0.381 -0.0255 -0.1361  0.5381
 4839TIP3   OH236151   4.629   6.951   7.292 -0.6183  0.3110  0.4997
 4839TIP3    H136152   4.663   7.040   7.290  0.0123  0.0810  0.7306
 4839TIP3    H236153   4.610   6.930   7.200 -1.0454  0.7772  0.4744
 4840TIP3   OH236154   0.217   1.294   2.532  0.2031 -0.1178  0.0576
 4840TIP3    H136155   0.274   1.304   2.609 -0.5419  1.3269  0.4662
 4840TIP3    H236156   0.157   1.369   2.537 -2.7956 -2.3273  0.5319
 4841TIP3   OH236157   5.412   0.805   0.268 -0.4167  0.0138  0.4430
 4841TIP3    H136158   5.357   0.727   0.269  0.7246 -0.8291 -0.4136
 4841TIP3    H236159   5.420   0.830   0.360 -0.4746 -1.1123  0.7619
 4842TIP3   OH236160   2.976   1.759   7.810  0.2024  0.3505 -0.2518
 4842TIP3    H136161   3.028   1.834   7.841  2.4995 -1.1929 -0.1184
 4842TIP3    H236162   3.028   1.722   7.739 -0.7650 -1.2478 -0.1747
 4843TIP3   OH236163   1.433   0.545   1.133 -0.1812  0.2875 -0.2907
 4843TIP3    H136164   1.415   0.631   1.170 -0.8244 -0.5668  1.4807
 4843TIP3    H236165   1.378   0.485   1.183  0.6709 -1.2346 -1.1013
 4844TIP3   OH236166   5.395   0.689   2.423  0.5607  0.0960  0.3301
 4844TIP3    H136167   5.422   0.761   2.480  1.5555 -0.9095  1.1832
 4844TIP3    H236168   5.312   0.659   2.460  0.9130 -0.1702  0.9457
 4845TIP3   OH236169   1.652   2.436   7.879  0.0221 -0.3674  0.1598
 4845TIP3    H136170   1.702   2.507   7.839  0.0085 -0.0330  0.7291
 4845TIP3    H236171   1.716   2.364   7.885 -0.3663 -0.9469 -1.8132
 4846TIP3   OH236172   0.920   0.698   0.713 -0.2219 -0.3298  0.4013
 4846TIP3    H136173   0.942   0.704   0.806 -3.3304 -0.2566  1.2465
 4846TIP3    H236174   0.948   0.611   0.687  0.3662 -0.4909  1.5195
 4847TIP3   OH236175   6.658   1.533   0.338 -0.3881  0.0820  0.0744
 4847TIP3    H136176   6.563   1.537   0.333 -0.5345 -0.3790  1.9168
 4847TIP3    H236177   6.686   1.522   0.247 -2.1735 -1.3032 -0.3656
 4848TIP3   OH236178   6.040   1.528   0.174  0.1274  0.3605 -0.3622
 4848TIP3    H136179   5.958   1.478   0.169  0.3458  0.0251 -0.6235
 4848TIP3    H236180   6.109   1.463   0.160  0.5025  0.4410  0.9938
 4849TIP3   OH236181   3.327   1.587   6.416 -0.1118 -0.7305  0.1398
 4849TIP3    H136182   3.421   1.586   6.398  0.2939 -0.6688  2.0999
 4849TIP3    H236183   3.311   1.671   6.459 -1.1416 -0.5989 -0.4675
 4850TIP3   OH236184   2.894   4.024   8.104 -0.1148  0.4658  0.3846
 4850TIP3    H136185   2.869   4.071   8.184  1.1168  0.7999  0.5907
 4850TIP3    H236186   2.982   3.991   8.122  0.1254  0.4178 -0.7825
 4851TIP3   OH236187   5.883   1.638   0.447  0.5331  0.3065  0.0374
 4851TIP3    H136188   5.857   1.566   0.389  0.2352  0.8706 -0.5319
 4851TIP3    H236189   5.882   1.715   0.392  5.4112  0.1742 -0.6434
 4852TIP3   OH236190   5.522   6.077   7.537 -0.3058 -0.3027 -0.1651
 4852TIP3    H136191   5.537   6.171   7.536  1.2355 -0.5253 -0.6539
 4852TIP3    H236192   5.443   6.066   7.590 -1.0683  1.3158 -0.8820
 4853TIP3   OH236193   5.366   3.002   7.663  0.1074 -0.5429 -0.0789
 4853TIP3    H136194   5.436   3.049   7.617 -2.0062  2.0079 -0.9677
 4853TIP3    H236195   5.305   2.977   7.594 -0.6527 -1.2746  0.8328
 4854TIP3   OH236196   2.641   1.500   0.555  0.1282 -0.5532 -0.5449
 4854TIP3    H136197   2.634   1.586   0.596 -0.9988 -1.5642  1.5122
 4854TIP3    H236198   2.578   1.503   0.483 -0.2006  0.1981 -0.2364
 4855TIP3   OH236199   2.681   4.319   0.876 -0.3488 -0.3702 -0.4795
 4855TIP3    H136200   2.730   4.242   0.849  2.2916  0.2345  2.0434
 4855TIP3    H236201   2.673   4.372   0.796  1.4223 -1.4271 -1.4286
 4856TIP3   OH236202   5.968   3.455   8.399 -0.0260 -0.3330  0.5516
 4856TIP3    H136203   6.038   3.389   8.401  0.5076  0.2494  2.2539
 4856TIP3    H236204   5.914   3.428   8.325  0.6108 -2.2414  0.7047
 4857TIP3   OH236205   5.270   4.001   0.442  0.2399 -0.2957  0.0147
 4857TIP3    H136206   5.184   3.992   0.483  0.2863  0.6045  0.3391
 4857TIP3    H236207   5.259   3.962   0.355 -0.6290  0.2123 -0.1198
 4858TIP3   OH236208   4.178   0.297   8.110  0.3008  0.4671  0.1223
 4858TIP3    H136209   4.167   0.202   8.101  1.1779  0.0158  2.9200
 4858TIP3    H236210   4.103   0.334   8.062 -2.2434 -1.7970  2.0322
 4859TIP3   OH236211   1.658   4.311   0.370 -0.4755  0.5044  0.2520
 4859TIP3    H136212   1.752   4.311   0.352 -0.4881  1.5665  0.1305
 4859TIP3    H236213   1.618   4.279   0.289 -0.2047 -0.4023  0.4631
 4860TIP3   OH236214   1.124   0.370   0.232  0.2549 -0.0897 -0.1561
 4860TIP3    H136215   1.174   0.303   0.186  0.7476  0.6181 -0.6572
 4860TIP3    H236216   1.189   0.436   0.256 -0.4766  0.9858 -1.0737
 4861TIP3   OH236217   5.112   4.039   1.142  0.0673  0.2742 -0.1514
 4861TIP3    H136218   5.091   4.119   1.191 -4.5938 -1.1637  0.6969
 4861TIP3    H236219   5.067   4.050   1.058  0.2176 -1.0509 -0.4261
 4862TIP3   OH236220   6.476   6.618   2.726  0.0463 -0.1429  0.1964
 4862TIP3    H136221   6.513   6.706   2.719  1.2813 -0.2517  3.3931
 4862TIP3    H236222   6.545   6.560   2.694  0.4919 -0.0628  0.9834
 4863TIP3   OH236223   6.872   1.019   8.039 -0.0206 -0.5942  0.8032
 4863TIP3    H136224   6.801   0.956   8.037 -1.6612  1.1694 -1.7335
 4863TIP3    H236225   6.903   1.025   7.949  0.9879  1.2294  1.2006
 4864TIP3   OH236226   5.617   1.939   7.261 -0.1421  0.4484  0.2388
 4864TIP3    H136227   5.679   1.994   7.308 -1.4641  1.6769  0.6366
 4864TIP3    H236228   5.533   1.956   7.304 -0.7884 -1.0566 -0.3559
 4865TIP3   OH236229   3.039   1.176   7.575  0.5073 -0.4871  0.2208
 4865TIP3    H136230   3.032   1.245   7.641  0.6392  0.1808 -0.4552
 4865TIP3    H236231   2.998   1.100   7.616 -0.1522  0.1462  0.7598
 4866TIP3   OH236232   2.642   4.694   1.205 -0.9253  0.4791  0.5357
 4866TIP3    H136233   2.609   4.636   1.137 -1.3059  2.1368 -0.7327
 4866TIP3    H236234   2.652   4.637   1.282  0.2988 -1.6130 -1.0834
 4867TIP3   OH236235   4.988   1.045   7.905  0.1287  0.7597  0.1994
 4867TIP3    H136236   5.009   0.977   7.968  1.8673  0.9424 -0.1315
 4867TIP3    H236237   5.013   1.008   7.820  0.6819  1.6070 -0.0317
 4868TIP3   OH236238   3.012   6.406   7.823 -0.0704  0.5335 -0.2772
 4868TIP3    H136239   3.065   6.478   7.856  0.4319  0.6617 -1.3401
 4868TIP3    H236240   3.073   6.334   7.808 -0.5323 -0.0589  0.5535
 4869TIP3   OH236241   4.650   6.886   7.029  0.0497 -0.0725 -0.7489
 4869TIP3    H136242   4.677   6.800   6.999  3.4065  0.7493 -0.4280
 4869TIP3    H236243   4.675   6.946   6.959 -0.5917  0.8666 -0.2054
 4870TIP3   OH236244   5.794   2.192   1.736  0.3819  0.2291 -0.3187
 4870TIP3    H136245   5.721   2.240   1.775  0.8182 -0.5724  1.5786
 4870TIP3    H236246   5.753   2.139   1.668 -0.5454  1.0189 -0.4113
 4871TIP3   OH236247   4.107   6.377   7.840  0.5424 -0.0021 -0.2758
 4871TIP3    H136248   4.083   6.285   7.844  2.9137 -0.6490  1.1930
 4871TIP3    H236249   4.191   6.382   7.885  0.4509  2.9142 -0.2184
 4872TIP3   OH236250   2.390   4.024   7.669 -0.3400  0.1283 -0.7953
 4872TIP3    H136251   2.407   3.967   7.744  0.1709 -0.0904 -1.0719
 4872TIP3    H236252   2.299   4.052   7.680 -0.1049  0.5588  0.2123
 4873TIP3   OH236253   2.760   5.195   0.707 -0.5131 -0.4136  0.4283
 4873TIP3    H136254   2.715   5.241   0.777  1.3576  1.9446  0.2019
 4873TIP3    H236255   2.816   5.131   0.751  0.6858  1.0855  1.1560
 4874TIP3   OH236256   2.609   1.869   7.018  1.0222  0.3391  0.1813
 4874TIP3    H136257   2.519   1.888   7.045  1.0014  1.5591 -0.6825
 4874TIP3    H236258   2.606   1.779   6.986  0.3038  0.0819  0.9397
 4875TIP3   OH236259   0.859   2.654   0.282  0.0542  0.4151 -0.5072
 4875TIP3    H136260   0.905   2.597   0.344  0.9333 -0.8113 -2.2355
 4875TIP3    H236261   0.856   2.605   0.201 -2.9403  1.1113 -0.9399
 4876TIP3   OH236262   0.001   4.186   8.199 -0.4121 -0.2032  0.0270
 4876TIP3    H136263   0.073   4.190   8.135 -0.1450 -0.6895  0.2957
 4876TIP3    H236264   0.013   4.103   8.244 -0.4851  0.2263  0.8526
 4877TIP3   OH236265   1.213   4.193   0.252  0.0556 -0.0992 -0.9575
 4877TIP3    H136266   1.186   4.282   0.274  1.9242  0.2731  0.0414
 4877TIP3    H236267   1.203   4.188   0.157 -0.5102  1.0259 -0.9775
 4878TIP3   OH236268   0.765   0.017   1.314  0.0623 -0.0326  0.2572
 4878TIP3    H136269   0.745  -0.051   1.250  0.0583  0.8126 -0.6697
 4878TIP3    H236270   0.856   0.040   1.297 -0.2409  0.9308 -0.1849
 4879TIP3   OH236271   1.270   0.492   2.106 -0.0957  0.0516  0.1131
 4879TIP3    H136272   1.217   0.529   2.036  0.6581 -1.7241 -1.4630
 4879TIP3    H236273   1.211   0.486   2.181 -1.2835  0.7587 -0.7486
 4880TIP3   OH236274   4.126   0.503   1.829  0.0712  0.4722 -0.3579
 4880TIP3    H136275   4.038   0.490   1.794  0.0080  0.4884 -0.2055
 4880TIP3    H236276   4.182   0.452   1.770  0.0302  0.9335 -0.8024
 4881TIP3   OH236277   5.418   2.880   8.285  0.3883 -0.2762 -0.2174
 4881TIP3    H136278   5.359   2.933   8.233  0.1148 -2.0364 -1.8225
 4881TIP3    H236279   5.444   2.808   8.227  3.3991 -0.0900  0.6997
 4882TIP3   OH236280   2.972   5.842   0.585  0.4511  0.0057  0.3383
 4882TIP3    H136281   2.896   5.793   0.555 -1.4397  3.3089 -0.7127
 4882TIP3    H236282   2.948   5.873   0.672  0.6428  0.9381  0.0688
 4883TIP3   OH236283   0.008   0.588   7.530  0.2841 -0.1300  0.5527
 4883TIP3    H136284  -0.049   0.511   7.525  0.2196 -0.0399 -0.2458
 4883TIP3    H236285  -0.012   0.627   7.615 -1.8607  0.6771 -0.2491
 4884TIP3   OH236286   3.577   3.824   7.151 -0.5175 -0.0025  0.0603
 4884TIP3    H136287   3.633   3.822   7.073 -2.3551 -0.4701 -1.2998
 4884TIP3    H236288   3.552   3.733   7.165 -1.1463  0.2259  0.4770
 4885TIP3   OH236289   5.408   3.505   0.205  0.1230  0.5805 -0.5222
 4885TIP3    H136290   5.409   3.415   0.235  1.8674  0.8789  0.4495
 4885TIP3    H236291   5.437   3.501   0.114 -0.5031  0.1063 -0.7016
 4886TIP3   OH236292   0.028   5.853   8.211  0.3328 -0.1307  0.1618
 4886TIP3    H136293   0.017   5.781   8.150 -1.2297  0.6823 -0.5668
 4886TIP3    H236294  -0.032   5.832   8.284 -0.0433  0.3641 -0.0012
 4887TIP3   OH236295   0.396   5.310   2.448  1.0709  0.6925 -0.4647
 4887TIP3    H136296   0.316   5.342   2.406  0.5915  0.8703  0.5452
 4887TIP3    H236297   0.382   5.216   2.457  0.6240  0.8307  0.4062
 4888TIP3   OH236298   1.800   5.374   0.353 -0.2419 -0.0191  0.3780
 4888TIP3    H136299   1.768   5.311   0.289  0.6691 -0.5447  0.4200
 4888TIP3    H236300   1.895   5.358   0.357 -0.2350  0.2306  1.5977
 4889TIP3   OH236301   3.941   5.619   1.657 -0.7831  0.1998  0.1102
 4889TIP3    H136302   3.873   5.558   1.628 -1.3585  1.0483 -0.3341
 4889TIP3    H236303   3.913   5.647   1.744 -0.1198 -0.7461  0.6468
 4890TIP3   OH236304   1.865   3.628   6.751 -0.0465 -0.0416 -0.4461
 4890TIP3    H136305   1.929   3.687   6.710 -2.0774  1.8277 -1.1207
 4890TIP3    H236306   1.809   3.686   6.803 -0.3414 -1.8008  1.2755
 4891TIP3   OH236307   5.218   3.119   7.230 -0.8860  0.4073  0.8297
 4891TIP3    H136308   5.244   3.141   7.141 -0.4411 -2.2373  0.1970
 4891TIP3    H236309   5.126   3.096   7.223 -0.8227  0.0895  1.0069
 4892TIP3   OH236310   4.268   0.847   7.452  0.1615 -0.3853 -0.2134
 4892TIP3    H136311   4.252   0.847   7.358  0.6127  0.7776 -0.3105
 4892TIP3    H236312   4.196   0.900   7.488  0.4797 -0.0827 -0.0138
 4893TIP3   OH236313   0.663   6.559   2.205  0.5571 -0.4484  0.1399
 4893TIP3    H136314   0.731   6.524   2.148  1.4852  1.0143  0.2883
 4893TIP3    H236315   0.598   6.597   2.144  1.0527  0.2284  0.0222
 4894TIP3   OH236316   6.414   2.412   7.343 -0.2238  0.0916 -0.3042
 4894TIP3    H136317   6.398   2.492   7.292 -1.7818  0.9813  1.4790
 4894TIP3    H236318   6.422   2.442   7.433  2.1731 -1.4845  0.0934
 4895TIP3   OH236319   0.479   5.953   1.028 -0.2559 -0.1100 -0.8566
 4895TIP3    H136320   0.538   5.919   1.095 -1.0128  0.5053  0.1469
 4895TIP3    H236321   0.527   5.943   0.946  1.3184  0.5490 -0.0484
 4896TIP3   OH236322   6.458   6.534   0.115 -0.3509  0.3980 -0.3306
 4896TIP3    H136323   6.399   6.475   0.162 -0.0614 -0.0868 -0.5666
 4896TIP3    H236324   6.459   6.614   0.167 -2.0695  0.8298 -0.8847
 4897TIP3   OH236325   4.387   5.217   1.460 -0.3943 -0.7538 -0.0694
 4897TIP3    H136326   4.323   5.165   1.412 -0.9429 -1.0793  0.9757
 4897TIP3    H236327   4.335   5.284   1.505  0.1743 -0.0452 -0.4520
 4898TIP3   OH236328   5.018   0.693   6.319  0.0609 -0.4095 -0.1837
 4898TIP3    H136329   5.040   0.780   6.352 -0.1749  0.1767 -1.5110
 4898TIP3    H236330   5.082   0.635   6.359  0.7594  0.5013  0.0539
 4899TIP3   OH236331   3.024   0.200   1.858 -0.0528  0.9907  0.4783
 4899TIP3    H136332   2.977   0.154   1.928  0.1860  0.2295  0.1401
 4899TIP3    H236333   2.955   0.242   1.806 -0.6368 -2.0751 -1.4490
 4900TIP3   OH236334   0.189   3.063   6.789 -0.1384 -0.3486 -0.0459
 4900TIP3    H136335   0.146   3.002   6.729  0.1413 -1.1476  0.5408
 4900TIP3    H236336   0.157   3.149   6.763 -2.2521 -0.9070  0.4736
 4901TIP3   OH236337   0.263   5.402   7.862  0.7308 -0.4824  0.3852
 4901TIP3    H136338   0.308   5.401   7.947  0.0725  0.6067  0.7648
 4901TIP3    H236339   0.239   5.311   7.847 -0.3831 -0.4992  2.0598
 4902TIP3   OH236340   4.053   1.926   1.397  0.9605 -0.4332 -0.6402
 4902TIP3    H136341   4.030   1.962   1.311  0.4749 -1.5033 -0.9752
 4902TIP3    H236342   4.082   1.837   1.378  0.2152 -0.9050  0.3802
 4903TIP3   OH236343   1.261   1.659   6.193  0.0105 -0.1878 -0.7172
 4903TIP3    H136344   1.188   1.717   6.215 -0.0880 -0.2049 -0.9923
 4903TIP3    H236345   1.253   1.646   6.099  1.3325  1.1365 -1.0571
 4904TIP3   OH236346   1.033   5.318   1.444  0.0588 -0.7011  0.0139
 4904TIP3    H136347   1.062   5.254   1.509 -0.4902  0.9698  1.9908
 4904TIP3    H236348   0.940   5.300   1.433  0.0439 -0.6593  0.0721
 4905TIP3   OH236349   6.474   4.019   7.419  0.5495 -0.1060  0.0615
 4905TIP3    H136350   6.527   3.959   7.367  2.1422  2.6946 -1.7447
 4905TIP3    H236351   6.514   4.105   7.407 -1.6613  1.4188  2.4338
 4906TIP3   OH236352   1.030   4.640   1.085  0.0045  0.0964  0.2815
 4906TIP3    H136353   1.060   4.605   1.169  1.2360  0.4013 -0.0117
 4906TIP3    H236354   1.110   4.670   1.042 -0.8224  1.6983 -0.2011
 4907TIP3   OH236355   2.382   4.995   6.665  0.2465  0.2200 -0.0310
 4907TIP3    H136356   2.331   4.921   6.631 -0.2574  1.3506 -1.8409
 4907TIP3    H236357   2.444   5.016   6.595  0.3157  1.5711  0.4099
 4908TIP3   OH236358   5.351   3.315   7.819  0.5468  0.4082 -0.0781
 4908TIP3    H136359   5.260   3.308   7.848  0.8513 -0.9495  0.6607
 4908TIP3    H236360   5.357   3.256   7.744  0.6487  1.0666 -0.5933
 4909TIP3   OH236361   5.784   3.062   7.653  0.1143 -0.1160  0.3321
 4909TIP3    H136362   5.796   3.110   7.736  0.8117  2.5361 -1.1948
 4909TIP3    H236363   5.870   3.066   7.611  0.0573 -2.3642 -0.1385
 4910TIP3   OH236364   5.523   4.492   1.132 -0.0947 -0.1537  0.2880
 4910TIP3    H136365   5.564   4.457   1.052 -0.9919 -1.5089  0.3797
 4910TIP3    H236366   5.435   4.454   1.132 -0.0003 -0.4305  2.0762
 4911TIP3   OH236367   6.741   2.659   6.394  0.0067  0.0923  0.6052
 4911TIP3    H136368   6.670   2.722   6.407  0.8532  0.7480  2.3389
 4911TIP3    H236369   6.699   2.573   6.400 -0.4322  0.4165  3.6155
 4912TIP3   OH236370   5.372   2.167   2.153  0.2135 -0.2816 -0.0739
 4912TIP3    H136371   5.412   2.092   2.196 -0.0613 -0.6708 -0.4827
 4912TIP3    H236372   5.333   2.218   2.224  1.9712  0.4545  0.4121
 4913TIP3   OH236373   2.562   1.918   1.163 -0.0614  0.3935  0.2537
 4913TIP3    H136374   2.580   1.993   1.106  1.3722  1.3065  1.8171
 4913TIP3    H236375   2.639   1.912   1.220 -0.9440 -1.1634  1.3630
 4914TIP3   OH236376   0.601   5.634   7.333  0.1666  0.4703  0.0436
 4914TIP3    H136377   0.538   5.589   7.389 -0.3771 -0.8549 -1.5408
 4914TIP3    H236378   0.677   5.575   7.330 -0.5226 -0.4349 -1.9937
 4915TIP3   OH236379   3.571   4.309   0.098 -0.3023  0.8586 -0.3676
 4915TIP3    H136380   3.581   4.216   0.118 -0.9828  0.9804  0.6125
 4915TIP3    H236381   3.607   4.319   0.011 -1.2909 -0.5445 -0.9707
 4916TIP3   OH236382   4.719   6.656   6.884 -0.1303  0.1740  0.3167
 4916TIP3    H136383   4.678   6.681   6.801 -0.0442 -0.0897  0.1915
 4916TIP3    H236384   4.736   6.562   6.875 -1.2960 -0.1341  1.1369
 4917TIP3   OH236385   4.603   6.329   8.447 -0.2242 -0.3792 -0.3445
 4917TIP3    H136386   4.687   6.284   8.453  1.6192  2.5199 -1.9111
 4917TIP3    H236387   4.593   6.374   8.531  2.0070  2.5543 -1.4807
 4918TIP3   OH236388   6.899   6.264   7.520  0.9045 -0.3851  0.2869
 4918TIP3    H136389   6.941   6.333   7.468  1.6950 -2.1040 -1.4803
 4918TIP3    H236390   6.828   6.232   7.465  0.4159 -0.8662  1.1694
 4919TIP3   OH236391   2.223   5.341   8.346 -0.0723 -0.0876  0.6702
 4919TIP3    H136392   2.272   5.423   8.345  2.2698 -1.3922 -0.2796
 4919TIP3    H236393   2.238   5.302   8.259 -1.3364 -1.4177  0.9913
 4920TIP3   OH236394   1.672   1.964   0.391 -0.1912  0.0341  0.3857
 4920TIP3    H136395   1.685   1.931   0.480 -0.5331  0.0844  0.4545
 4920TIP3    H236396   1.758   1.997   0.365  0.1282 -0.7710  0.3764
 4921TIP3   OH236397   6.406   1.306   2.835 -0.2502 -0.7294  0.0359
 4921TIP3    H136398   6.472   1.338   2.774 -0.9472 -1.1376 -0.9502
 4921TIP3    H236399   6.448   1.231   2.878 -0.0738 -1.0187 -0.6189
 4922TIP3   OH236400   2.044   0.569   7.146  0.0973  0.6877  0.4502
 4922TIP3    H136401   2.092   0.488   7.162  0.4234  0.5777 -1.0205
 4922TIP3    H236402   1.969   0.544   7.093  1.0504  1.5447 -1.3756
 4923TIP3   OH236403   4.025   1.301   1.671 -0.3791  0.0828 -0.0425
 4923TIP3    H136404   3.980   1.236   1.725  1.2026  1.5727  3.4028
 4923TIP3    H236405   3.971   1.380   1.679 -0.7104  0.0664 -1.7078
 4924TIP3   OH236406   2.927   6.059   1.807 -0.1989  0.0828 -0.1149
 4924TIP3    H136407   2.848   6.006   1.820 -1.4283  1.8896  0.0819
 4924TIP3    H236408   2.916   6.133   1.867  1.3954  0.6548 -0.4888
 4925TIP3   OH236409   6.406   0.848   0.498 -0.4853 -0.3546  0.8017
 4925TIP3    H136410   6.358   0.920   0.540  0.0091  0.9247 -0.7067
 4925TIP3    H236411   6.339   0.799   0.451 -0.7058 -0.2764  1.0321
 4926TIP3   OH236412   5.484   4.737   1.603  0.2149 -0.0321  0.2307
 4926TIP3    H136413   5.580   4.736   1.603  0.2431  1.2289  0.7893
 4926TIP3    H236414   5.460   4.681   1.529  1.3379 -1.6346  1.0034
 4927TIP3   OH236415   3.883   1.941   8.233 -0.0726 -0.3800 -0.3666
 4927TIP3    H136416   3.865   1.852   8.264 -0.7663 -0.3862 -0.7666
 4927TIP3    H236417   3.978   1.947   8.234 -0.0517 -0.7222  0.7825
 4928TIP3   OH236418   2.785   1.647   8.246  0.3466  0.1900  0.3796
 4928TIP3    H136419   2.752   1.713   8.308  1.1006  1.8425 -0.8865
 4928TIP3    H236420   2.880   1.651   8.256  0.5656  1.2960 -1.5720
 4929TIP3   OH236421   2.019   0.987   6.832  0.5680 -0.8846  0.2578
 4929TIP3    H136422   2.038   1.016   6.742  0.8709 -0.2136  0.5339
 4929TIP3    H236423   1.932   0.949   6.826 -0.2998  1.0132  0.0721
 4930TIP3   OH236424   6.372   4.251   0.210  0.1404  0.1440  0.1046
 4930TIP3    H136425   6.432   4.201   0.154 -0.8463 -2.0343  0.8981
 4930TIP3    H236426   6.429   4.290   0.276  0.7980 -1.1852  0.3525
 4931TIP3   OH236427   4.659   1.034   0.056 -0.1223  0.1646  0.2890
 4931TIP3    H136428   4.732   1.093   0.034  0.7587 -1.4381 -1.3792
 4931TIP3    H236429   4.696   0.975   0.122 -0.0806 -0.3181 -0.1663
 4932TIP3   OH236430   6.403   2.176   7.645 -0.3194  0.7368 -0.1660
 4932TIP3    H136431   6.330   2.115   7.662  1.4324 -1.2697  0.6431
 4932TIP3    H236432   6.450   2.136   7.572 -0.3442  2.3342 -1.0862
 4933TIP3   OH236433   3.669   3.646   7.985  0.2585 -0.2816  0.0331
 4933TIP3    H136434   3.616   3.631   8.064 -0.4855  0.2538 -0.3428
 4933TIP3    H236435   3.757   3.665   8.018 -0.3594  1.3975  0.8443
 4934TIP3   OH236436   1.968   0.482   0.764 -0.7160 -0.2821 -0.2014
 4934TIP3    H136437   2.052   0.510   0.801 -0.8190 -1.0759  0.6847
 4934TIP3    H236438   1.905   0.546   0.797 -0.4009  0.5650 -1.2232
 4935TIP3   OH236439   1.432   2.806   1.804  0.5909  0.0630 -0.0040
 4935TIP3    H136440   1.364   2.739   1.807  0.2431  0.4373  1.6458
 4935TIP3    H236441   1.440   2.836   1.895  0.3616  2.6042 -0.7340
 4936TIP3   OH236442   3.639   5.573   7.525 -0.5607  0.2862  0.5028
 4936TIP3    H136443   3.619   5.495   7.473  0.5071  0.8587 -0.8272
 4936TIP3    H236444   3.577   5.639   7.494 -0.0238  0.5851  0.0569
 4937TIP3   OH236445   1.295   1.356   0.681 -0.7222  0.0842 -0.0727
 4937TIP3    H136446   1.280   1.265   0.708 -1.1795 -0.6310 -2.4475
 4937TIP3    H236447   1.216   1.403   0.710  0.0302  0.0545  2.2253
 4938TIP3   OH236448   5.532   0.827   7.593 -0.0912  0.3177 -0.1523
 4938TIP3    H136449   5.573   0.906   7.558 -1.9888  1.5898  0.3832
 4938TIP3    H236450   5.443   0.828   7.559 -0.9196 -0.2485  1.8250
 4939TIP3   OH236451   1.581   4.504   7.265 -0.5429  0.0139 -0.1948
 4939TIP3    H136452   1.619   4.495   7.178  2.6113 -1.8899  1.1953
 4939TIP3    H236453   1.637   4.568   7.309 -1.2014 -0.1171  0.8767
 4940TIP3   OH236454   3.105   2.485   2.702 -0.1401 -0.5553  0.0844
 4940TIP3    H136455   3.142   2.508   2.787 -1.1834 -1.4324  0.8000
 4940TIP3    H236456   3.122   2.391   2.694 -0.7228 -0.6267 -0.3384
 4941TIP3   OH236457   5.627   3.729   0.066 -0.3942 -0.5963 -0.1556
 4941TIP3    H136458   5.577   3.693  -0.006 -0.1316  0.0770 -0.6916
 4941TIP3    H236459   5.698   3.667   0.080  1.6585  0.8943 -2.8557
 4942TIP3   OH236460   1.178   0.946   0.923  0.1698 -0.0975  0.3262
 4942TIP3    H136461   1.204   0.946   1.015  0.5373  0.6595  0.2343
 4942TIP3    H236462   1.226   0.873   0.884  0.5811  0.0306  0.5881
 4943TIP3   OH236463   5.442   0.786   1.368  0.5622  0.4401 -0.1575
 4943TIP3    H136464   5.393   0.867   1.356  0.4076  0.3363 -0.2360
 4943TIP3    H236465   5.515   0.810   1.424 -0.2338  0.3486  0.9404
 4944TIP3   OH236466   1.857   3.855   1.801  0.4832 -0.2209  0.1240
 4944TIP3    H136467   1.852   3.951   1.795  0.4264 -0.2229  0.1472
 4944TIP3    H236468   1.914   3.830   1.728 -1.4897 -0.3901 -1.4183
 4945TIP3   OH236469   5.837   6.832   2.454 -0.6590  0.2133 -0.4165
 4945TIP3    H136470   5.855   6.785   2.536  0.7748  1.2792 -0.0995
 4945TIP3    H236471   5.801   6.765   2.396 -1.7061 -0.5696  1.0633
 4946TIP3   OH236472   2.531   6.105   1.187  0.0461  0.4246 -0.1558
 4946TIP3    H136473   2.467   6.035   1.199 -0.9619  1.2866 -0.2548
 4946TIP3    H236474   2.512   6.166   1.259  0.4612  0.9094 -0.4487
 4947TIP3   OH236475   3.852   1.963   1.571  0.6558 -0.4850 -0.0398
 4947TIP3    H136476   3.922   1.958   1.505  1.7417  0.5846  0.9945
 4947TIP3    H236477   3.814   2.050   1.558  0.5091 -0.4862  0.3883
 4948TIP3   OH236478   5.095   6.877   7.319 -0.0533 -0.3626  0.4164
 4948TIP3    H136479   5.151   6.935   7.267 -0.2389  1.0426  1.6885
 4948TIP3    H236480   5.044   6.828   7.255 -0.5323  1.5362 -0.7470
 4949TIP3   OH236481   2.081   6.472   8.316 -0.2615  0.1005  0.1526
 4949TIP3    H136482   2.060   6.495   8.225 -1.7259  0.2835  0.5125
 4949TIP3    H236483   2.157   6.415   8.309  1.7979  2.7802 -0.9566
 4950TIP3   OH236484   0.081   4.087   6.931  0.9084  0.6490 -0.0167
 4950TIP3    H136485  -0.014   4.071   6.932  1.1814 -1.1893 -0.1359
 4950TIP3    H236486   0.104   4.101   7.023  0.6552  0.2305  0.1120
 4951TIP3   OH236487   5.975   5.325   1.698  0.5479  0.5544  0.0098
 4951TIP3    H136488   5.929   5.357   1.776 -1.0652 -3.3518  0.8745
 4951TIP3    H236489   5.912   5.337   1.626 -0.0639 -0.5713  0.3367
 4952TIP3   OH236490   1.500   4.689   1.924  0.3092 -0.1910  0.4214
 4952TIP3    H136491   1.489   4.759   1.988 -0.1022 -0.7891  1.0144
 4952TIP3    H236492   1.572   4.636   1.959 -0.7867 -1.2806  1.1038
 4953TIP3   OH236493   2.033   3.192   7.034  0.3390 -0.5889  0.1385
 4953TIP3    H136494   2.091   3.129   6.993  0.5346 -0.3208  0.0051
 4953TIP3    H236495   2.015   3.257   6.966 -0.9663 -1.2233 -0.1687
 4954TIP3   OH236496   3.544   2.145   0.076  0.1846 -0.1746  0.3479
 4954TIP3    H136497   3.549   2.067   0.131  0.0148 -0.7510 -0.4312
 4954TIP3    H236498   3.621   2.196   0.100 -0.0390 -0.2691  1.3230
 4955TIP3   OH236499   5.155   4.169   7.250  0.2600  0.3337 -0.8039
 4955TIP3    H136500   5.249   4.179   7.233  0.2502  2.1402  0.0018
 4955TIP3    H236501   5.114   4.195   7.167  0.4406  1.0755 -0.6689
 4956TIP3   OH236502   5.347   2.403   8.150 -0.1213 -0.2379  0.7209
 4956TIP3    H136503   5.428   2.375   8.191  0.6795  0.3430 -0.4167
 4956TIP3    H236504   5.369   2.417   8.058 -1.1207  1.4369  0.6902
 4957TIP3   OH236505   2.102   1.450   0.014  0.1626  0.1899  0.6081
 4957TIP3    H136506   2.074   1.541   0.027  1.5510  1.5922 -4.2328
 4957TIP3    H236507   2.024   1.406  -0.020  0.3772  0.5324 -0.3407
 4958TIP3   OH236508   5.522   6.517   0.972 -0.3197  0.3949  0.1181
 4958TIP3    H136509   5.485   6.573   0.904 -0.9275  0.3883  0.4353
 4958TIP3    H236510   5.452   6.509   1.037 -0.8869 -2.1005 -0.7033
 4959TIP3   OH236511   1.812   0.347   1.476 -0.2855 -0.2432  0.0259
 4959TIP3    H136512   1.903   0.368   1.495  0.2726 -1.9499 -0.5581
 4959TIP3    H236513   1.786   0.409   1.407  0.2358  0.6063  0.5784
 4960TIP3   OH236514   0.347   2.675   1.109  0.1382 -0.3465 -0.0159
 4960TIP3    H136515   0.342   2.655   1.016 -1.8139 -0.6046  0.0942
 4960TIP3    H236516   0.391   2.600   1.148  0.8968 -0.2678 -0.7162
 4961TIP3   OH236517   1.749   5.569   1.900 -0.1567  0.0166 -0.3812
 4961TIP3    H136518   1.735   5.648   1.953 -1.3076 -1.1932  1.2318
 4961TIP3    H236519   1.838   5.541   1.923 -0.3735 -0.0855  0.3796
 4962TIP3   OH236520   0.049   1.925   7.223  0.1123  0.5677  0.2016
 4962TIP3    H136521   0.123   1.909   7.165  0.7746  1.3723  0.7962
 4962TIP3    H236522   0.046   1.850   7.281 -1.1424 -0.7238 -1.4208
 4963TIP3   OH236523   3.363   0.075   0.214  0.4766 -0.1888 -0.3293
 4963TIP3    H136524   3.398   0.147   0.163 -0.7894  0.1158 -0.8110
 4963TIP3    H236525   3.422   0.067   0.289  1.3760  0.4745 -0.9472
 4964TIP3   OH236526   6.062   2.508   0.132  0.5632 -0.1869  0.3055
 4964TIP3    H136527   6.139   2.456   0.112 -1.1127 -1.1481 -5.3868
 4964TIP3    H236528   6.087   2.598   0.111  0.3324 -0.4507 -1.2061
 4965TIP3   OH236529   6.605   5.940   0.923  0.2971  1.0881 -0.0703
 4965TIP3    H136530   6.588   5.945   0.829  1.0657 -0.0625 -0.2891
 4965TIP3    H236531   6.673   6.006   0.939  0.4908  0.9653 -0.3929
 4966TIP3   OH236532   5.130   0.335   6.624 -0.1395 -0.5096  0.0718
 4966TIP3    H136533   5.067   0.272   6.590  0.0318 -0.7978  0.2883
 4966TIP3    H236534   5.161   0.297   6.706 -0.3103  0.0270  0.3954
 4967TIP3   OH236535   5.765   3.656   8.018  0.8553 -0.2147  0.3485
 4967TIP3    H136536   5.740   3.748   8.025  1.2701 -0.0919  0.2906
 4967TIP3    H236537   5.695   3.615   7.968 -0.2717 -0.3206  1.9601
 4968TIP3   OH236538   5.171   0.586   2.561  0.0664 -0.2228  0.1593
 4968TIP3    H136539   5.088   0.625   2.536  0.2573  0.7968  1.0287
 4968TIP3    H236540   5.151   0.493   2.576 -1.1045  0.1623  1.1681
 4969TIP3   OH236541   1.944   2.277   0.352  0.0225 -0.3592 -0.2129
 4969TIP3    H136542   1.962   2.183   0.358  0.7509 -0.3086 -1.2746
 4969TIP3    H236543   1.877   2.284   0.285  2.7846  0.0941 -3.1847
 4970TIP3   OH236544   5.077   4.747   8.163  0.4306 -0.5311  0.2368
 4970TIP3    H136545   5.086   4.817   8.098 -0.5141 -1.0795 -0.5177
 4970TIP3    H236546   5.003   4.774   8.217  0.6573 -0.5049  0.5372
 4971TIP3   OH236547   3.417   6.039   1.657 -0.1017 -0.0288 -0.2265
 4971TIP3    H136548   3.329   6.007   1.635 -0.1701 -0.4784  0.6693
 4971TIP3    H236549   3.403   6.106   1.723  0.3364 -2.1227  2.1618
 4972TIP3   OH236550   1.633   2.107   2.187  0.0803 -0.1755 -0.0236
 4972TIP3    H136551   1.539   2.086   2.188 -0.0894  0.5804  0.5403
 4972TIP3    H236552   1.660   2.097   2.278  0.7445 -1.2122 -0.3236
 4973TIP3   OH236553   3.374   0.257   1.370  0.1934 -0.8539 -0.1752
 4973TIP3    H136554   3.282   0.283   1.378  0.1593 -0.3975 -1.6637
 4973TIP3    H236555   3.384   0.184   1.430 -0.7077  0.1733  1.2820
 4974TIP3   OH236556   5.624   6.416   7.437  0.0685 -0.6398  0.2625
 4974TIP3    H136557   5.673   6.485   7.392  1.9327 -2.1090 -0.1180
 4974TIP3    H236558   5.685   6.383   7.503 -1.1407 -1.2586  1.1052
 4975TIP3   OH236559   2.827   1.777   1.676  0.1987  0.0877  0.0129
 4975TIP3    H136560   2.785   1.704   1.722  0.5884 -0.7441 -0.9094
 4975TIP3    H236561   2.914   1.745   1.656  0.3004  0.7303 -0.6027
 4976TIP3   OH236562   3.167   2.407   7.209  0.2977  0.4660  0.1223
 4976TIP3    H136563   3.181   2.441   7.121  0.8648 -0.6964 -0.2562
 4976TIP3    H236564   3.242   2.439   7.259 -0.2734  1.5311  0.3259
 4977TIP3   OH236565   6.374   5.659   7.443  0.2319 -0.1940 -0.2404
 4977TIP3    H136566   6.383   5.566   7.422 -0.3327  0.2867 -3.0507
 4977TIP3    H236567   6.460   5.684   7.476  0.0779 -1.8922  1.6784
 4978TIP3   OH236568   2.056   4.395   0.100 -0.1671  0.0799  0.5370
 4978TIP3    H136569   2.125   4.330   0.110 -1.5173 -1.2557  1.6486
 4978TIP3    H236570   2.069   4.430   0.012  1.4525 -0.6858  0.4456
 4979TIP3   OH236571   1.612   3.382   0.072  0.5311  0.1536 -0.2629
 4979TIP3    H136572   1.636   3.294   0.042  0.3813 -0.0940  0.3204
 4979TIP3    H236573   1.544   3.367   0.138 -0.6409  0.7928 -1.2863
 4980TIP3   OH236574   2.235   6.482   1.087  0.6364 -0.1637  0.2597
 4980TIP3    H136575   2.301   6.474   1.019  0.5717 -0.4877  0.2308
 4980TIP3    H236576   2.185   6.400   1.082 -0.2815  0.4049 -0.2606
 4981TIP3   OH236577   5.041   5.041   0.623 -0.0607  0.5531 -0.5045
 4981TIP3    H136578   4.948   5.044   0.644  0.1294  0.1082  0.4422
 4981TIP3    H236579   5.044   5.045   0.527 -1.0626  0.2754 -0.5558
 4982TIP3   OH236580   2.102   4.498   7.364 -0.3837  0.5685 -0.6613
 4982TIP3    H136581   2.117   4.429   7.428  1.6679  0.5291 -1.1015
 4982TIP3    H236582   2.072   4.573   7.415  0.4921  0.3105  0.2507
 4983TIP3   OH236583   3.805   4.030   1.007 -0.7008 -0.0802  0.3623
 4983TIP3    H136584   3.797   4.047   1.101 -0.1620  1.2294  0.1922
 4983TIP3    H236585   3.820   3.935   1.001  0.1837 -0.0540  1.6632
 4984TIP3   OH236586   5.850   2.408   8.032 -0.0180 -0.4452 -0.3500
 4984TIP3    H136587   5.875   2.498   8.010 -2.2643  0.6690  1.3230
 4984TIP3    H236588   5.929   2.371   8.072  1.7265 -0.1092 -3.1584
 4985TIP3   OH236589   6.224   6.946   6.825  0.2505  0.1129 -0.0048
 4985TIP3    H136590   6.196   6.924   6.736 -0.3595  1.6668 -0.2247
 4985TIP3    H236591   6.176   6.885   6.881 -1.0131  0.5300 -0.6099
 4986TIP3   OH236592   0.941   0.832   1.645  0.4408  0.3691  0.1453
 4986TIP3    H136593   0.992   0.861   1.570  0.0151  1.7618  0.3633
 4986TIP3    H236594   0.961   0.739   1.654 -0.3079 -0.0987 -2.3364
 4987TIP3   OH236595   6.051   0.428   8.104  0.1109  0.0462 -0.3107
 4987TIP3    H136596   5.978   0.483   8.075  0.9479  2.3392  1.5900
 4987TIP3    H236597   6.034   0.413   8.197  1.0140 -1.1856 -0.3233
 4988TIP3   OH236598   1.138   1.529   7.326  0.3381  0.3107  0.4056
 4988TIP3    H136599   1.226   1.535   7.363  0.5746  1.0220 -0.2489
 4988TIP3    H236600   1.098   1.455   7.372  2.4093 -2.2615 -1.5967
 4989TIP3   OH236601   1.475   4.869   2.164 -0.0682  0.7174  0.0002
 4989TIP3    H136602   1.412   4.845   2.232 -0.1337  0.1509 -0.2515
 4989TIP3    H236603   1.560   4.865   2.207 -0.1223  0.5059  0.0895
 4990TIP3   OH236604   1.508   6.948   2.346 -0.3260  0.1677  0.2389
 4990TIP3    H136605   1.495   6.866   2.299  1.4300 -1.7879  2.9002
 4990TIP3    H236606   1.573   6.995   2.294  2.4575 -2.4357  1.0840
 4991TIP3   OH236607   3.413   0.654   6.427  0.2757  0.2556  0.1080
 4991TIP3    H136608   3.476   0.583   6.440  0.4027  0.3770  0.1643
 4991TIP3    H236609   3.453   0.729   6.472  0.1089  0.3428  0.1101
 4992TIP3   OH236610   0.877   5.036   7.601 -0.6537 -0.4103 -0.6079
 4992TIP3    H136611   0.939   4.984   7.652  0.0904  1.2847  0.2705
 4992TIP3    H236612   0.931   5.078   7.534 -1.0120  0.3104 -0.4506
 4993TIP3   OH236613   0.342   6.031   2.108  0.0599  0.6954  0.2141
 4993TIP3    H136614   0.353   6.100   2.173 -1.1976  0.2236  0.9707
 4993TIP3    H236615   0.248   6.012   2.109  0.2649 -0.4692 -0.5605
 4994TIP3   OH236616   2.533   2.342   0.247 -0.3970  0.3157  0.2291
 4994TIP3    H136617   2.602   2.292   0.291 -0.0358 -0.6344 -1.3416
 4994TIP3    H236618   2.545   2.322   0.154 -2.8113  0.0767 -0.0963
 4995TIP3   OH236619   4.297   5.309   0.124 -0.4722 -0.4838 -0.5835
 4995TIP3    H136620   4.241   5.240   0.160  0.3627  0.2938  2.5005
 4995TIP3    H236621   4.386   5.282   0.147 -0.0392  1.0657 -0.3307
 4996TIP3   OH236622   3.263   4.045   1.980 -0.1136  0.2416  0.1351
 4996TIP3    H136623   3.176   4.070   1.949  0.1443  0.4333 -0.4486
 4996TIP3    H236624   3.251   3.957   2.017 -0.0580 -0.9692 -2.4676
 4997TIP3   OH236625   0.310   6.648   1.140 -0.1156  0.2920  0.3018
 4997TIP3    H136626   0.237   6.596   1.172 -0.7961  0.7458 -0.4873
 4997TIP3    H236627   0.316   6.721   1.202 -0.2805  0.2138  0.4104
 4998TIP3   OH236628   5.995   0.174   7.051  0.4589 -0.1368  0.2821
 4998TIP3    H136629   6.079   0.201   7.087  0.3521  1.0198 -0.2825
 4998TIP3    H236630   5.942   0.254   7.050 -2.0695 -1.4567  4.1704
 4999TIP3   OH236631   5.040   1.672   1.189 -0.0793  0.3307 -0.5861
 4999TIP3    H136632   5.055   1.584   1.223 -2.6318  0.5200  1.3455
 4999TIP3    H236633   5.095   1.728   1.242  0.0152  0.0875 -0.4259
 5000TIP3   OH236634   0.034   4.996   0.545 -0.0793  0.2244 -0.2429
 5000TIP3    H136635  -0.044   5.019   0.596 -0.5697 -1.2981 -0.2694
 5000TIP3    H236636   0.010   4.917   0.498  1.5697 -0.4033 -0.0938
 5001TIP3   OH236637   6.255   3.236   1.453  0.3078  0.0461  0.1820
 5001TIP3    H136638   6.276   3.143   1.443  1.8108  0.4371 -0.6528
 5001TIP3    H236639   6.317   3.281   1.395 -0.8221  1.5357  0.0597
 5002TIP3   OH236640   6.651   1.118   7.336  0.3073 -0.0717  0.6899
 5002TIP3    H136641   6.619   1.156   7.418  0.8535 -0.7381  1.2224
 5002TIP3    H236642   6.678   1.194   7.284 -0.9627  0.4286  0.7087
 5003TIP3   OH236643   2.012   0.014   0.317 -0.6389 -0.2834 -0.4213
 5003TIP3    H136644   2.077  -0.047   0.352  0.4525  0.5124 -0.9910
 5003TIP3    H236645   2.063   0.074   0.262 -1.5785  1.4559  0.5212
 5004TIP3   OH236646   4.773   3.328   6.457 -0.7621 -0.5335 -0.2335
 5004TIP3    H136647   4.789   3.235   6.443  0.9576 -0.0648 -1.9068
 5004TIP3    H236648   4.825   3.350   6.535 -1.6449 -1.0667  0.5160
 5005TIP3   OH236649   1.997   2.587   1.040 -0.4623 -0.0700  0.0250
 5005TIP3    H136650   2.000   2.679   1.065 -2.0317  0.0861 -0.2371
 5005TIP3    H236651   1.908   2.575   1.006  0.2717 -1.2511 -1.6314
 5006TIP3   OH236652   4.930   2.791   7.830  0.7259  0.4614  0.1847
 5006TIP3    H136653   4.918   2.697   7.839  0.4484  0.6872  3.4550
 5006TIP3    H236654   4.861   2.819   7.769  0.8928 -1.4184 -0.9258
 5007TIP3   OH236655   5.471   5.829   2.560  0.4272  0.1975  0.0944
 5007TIP3    H136656   5.549   5.884   2.552  0.5521 -0.1518 -1.2314
 5007TIP3    H236657   5.496   5.760   2.620 -0.0342  2.0757  2.6271
 5008TIP3   OH236658   0.133   3.695   7.859 -0.4551  0.1120  0.4032
 5008TIP3    H136659   0.183   3.613   7.855  1.0550  0.9959  0.2447
 5008TIP3    H236660   0.063   3.677   7.922 -1.3922 -1.9066 -1.0996
 5009TIP3   OH236661   2.872   4.326   7.141  0.2321  0.0409 -0.1181
 5009TIP3    H136662   2.947   4.273   7.167 -0.2781 -2.0146 -2.4906
 5009TIP3    H236663   2.895   4.359   7.054 -1.4317 -0.3510 -0.7530
 5010TIP3   OH236664   0.682   6.481   1.210 -0.1861 -0.2326  0.2816
 5010TIP3    H136665   0.720   6.471   1.123 -1.2412 -2.9609  0.0297
 5010TIP3    H236666   0.590   6.500   1.195  0.1274  2.0117  0.8736
 5011TIP3   OH236667   5.321   3.268   7.523 -0.7621 -0.1238  0.0461
 5011TIP3    H136668   5.260   3.231   7.459  0.2496 -0.3150 -0.8331
 5011TIP3    H236669   5.406   3.232   7.499 -0.0475  1.3340  0.2971
 5012TIP3   OH236670   1.662   0.785   7.021  0.6045 -0.3308  0.2000
 5012TIP3    H136671   1.721   0.808   6.949 -0.6056  1.2680 -0.3557
 5012TIP3    H236672   1.601   0.723   6.982  0.1638  0.2649 -0.0753
 5013TIP3   OH236673   2.238   5.936   7.612 -0.1500 -0.0560 -0.7932
 5013TIP3    H136674   2.255   6.013   7.557 -1.1729  0.5014 -0.3476
 5013TIP3    H236675   2.159   5.897   7.575 -0.4525 -0.0676 -0.1440
 5014TIP3   OH236676   4.543   1.783   7.118  0.3391  0.1757  0.4081
 5014TIP3    H136677   4.607   1.720   7.151  1.7260 -0.4668 -3.0053
 5014TIP3    H236678   4.501   1.737   7.045 -1.9639  1.6483  0.7263
 5015TIP3   OH236679   4.775   5.265   7.276  0.2667 -0.0144  0.2732
 5015TIP3    H136680   4.700   5.242   7.330  0.6287 -1.1166  0.3447
 5015TIP3    H236681   4.740   5.271   7.187  0.0705 -0.4989  0.3112
 5016TIP3   OH236682   1.622   3.537   8.060  0.2531 -0.5511 -0.1512
 5016TIP3    H136683   1.624   3.592   8.139  1.0211 -0.9261  0.0959
 5016TIP3    H236684   1.531   3.544   8.030  0.1246  0.1780  0.3502
 5017TIP3   OH236685   5.181   6.653   0.117  0.1746  0.2185  0.1405
 5017TIP3    H136686   5.128   6.591   0.166 -0.4223  0.3902 -0.2797
 5017TIP3    H236687   5.251   6.677   0.178  0.3822 -0.8089  0.3237
 5018TIP3   OH236688   4.353   6.314   7.981 -0.7680  1.0186  0.3116
 5018TIP3    H136689   4.282   6.299   8.044 -1.1343  0.5462 -0.2014
 5018TIP3    H236690   4.421   6.359   8.032 -1.4733  1.5763  0.7879
 5019TIP3   OH236691   1.227   5.845   7.469 -0.1920  0.1454 -0.2828
 5019TIP3    H136692   1.151   5.885   7.428  0.4466  1.0872 -0.6009
 5019TIP3    H236693   1.301   5.874   7.416  0.7333  1.8895  1.7728
 5020TIP3   OH236694   1.167   6.107   1.535 -0.6442 -0.1359 -0.2478
 5020TIP3    H136695   1.247   6.106   1.588 -2.1741 -0.0329  2.2361
 5020TIP3    H236696   1.198   6.093   1.445  1.9687 -2.3619  0.8289
 5021TIP3   OH236697   3.818   5.582   0.943  0.4397  0.4979  0.2535
 5021TIP3    H136698   3.903   5.547   0.970  0.2259  0.1023  0.4243
 5021TIP3    H236699   3.839   5.660   0.892  1.0351 -0.7444 -1.5155
 5022TIP3   OH236700   1.763   5.823   8.199  0.3764  0.2920 -0.0818
 5022TIP3    H136701   1.763   5.807   8.294  1.7389  1.9935  0.2650
 5022TIP3    H236702   1.692   5.768   8.165  0.3282 -0.9169  1.8154
 5023TIP3   OH236703   0.878   6.808   7.915 -0.1638  0.2802  0.1012
 5023TIP3    H136704   0.961   6.836   7.955 -0.6281  0.6313  0.8276
 5023TIP3    H236705   0.829   6.768   7.987  0.1557 -1.7507 -0.7213
 5024TIP3   OH236706   1.370   5.344   1.171  0.2502  0.4624  0.0403
 5024TIP3    H136707   1.292   5.294   1.195  1.8947 -1.4588  1.7922
 5024TIP3    H236708   1.357   5.430   1.211 -1.4837  0.6427 -0.7959
 5025TIP3   OH236709   0.656   0.687   7.256  0.0301 -0.0532 -0.4385
 5025TIP3    H136710   0.594   0.616   7.242  0.6870 -0.5876 -0.6741
 5025TIP3    H236711   0.702   0.696   7.173  0.3398  0.2763 -0.2375
 5026TIP3   OH236712   6.145   0.902   7.452 -0.1124  0.2844  0.6776
 5026TIP3    H136713   6.183   0.841   7.389 -1.5503 -0.7565  0.7681
 5026TIP3    H236714   6.051   0.894   7.439 -0.3659  1.6704  1.4821
 5027TIP3   OH236715   1.855   3.574   5.673  0.7128  0.5168  0.3399
 5027TIP3    H136716   1.862   3.497   5.729  1.1653  2.0030  2.4308
 5027TIP3    H236717   1.760   3.589   5.665  0.6395  0.8332  1.5610
 5028TIP3   OH236718   6.130   1.666   0.594  0.0755  0.6335  0.2415
 5028TIP3    H136719   6.117   1.647   0.501 -1.7378 -1.4390  0.8376
 5028TIP3    H236720   6.042   1.669   0.630  0.7825  0.3396  2.0853
 5029TIP3   OH236721   2.465   4.763   1.935 -0.0024  0.0895  0.5309
 5029TIP3    H136722   2.378   4.785   1.904  0.1870 -0.6038 -0.5696
 5029TIP3    H236723   2.524   4.814   1.879  0.3452 -1.0921 -0.2269
 5030TIP3   OH236724   0.862   4.537   0.007  0.5780 -0.1874  0.4417
 5030TIP3    H136725   0.888   4.455  -0.035 -0.7327 -0.0296 -0.7251
 5030TIP3    H236726   0.767   4.537   0.004  0.5593  1.6250 -0.0671
 5031TIP3   OH236727   3.352   5.241   7.256 -0.0067 -0.4225  0.0671
 5031TIP3    H136728   3.336   5.148   7.239 -1.8189 -0.0957 -0.1453
 5031TIP3    H236729   3.389   5.275   7.175  0.3095 -0.8737  0.0207
 5032TIP3   OH236730   1.727   6.308   0.604  0.3333 -0.1415 -0.5455
 5032TIP3    H136731   1.633   6.316   0.621  0.5309  0.9166  0.1231
 5032TIP3    H236732   1.752   6.225   0.645  0.2295  0.9565  1.8966
 5033TIP3   OH236733   6.730   0.952   2.323 -0.3107  0.3064 -0.2534
 5033TIP3    H136734   6.797   1.017   2.305  1.1744 -1.3964 -1.1492
 5033TIP3    H236735   6.718   0.956   2.418  2.0831 -0.2486  0.1390
 5034TIP3   OH236736   3.487   6.482   1.234 -0.0554  0.3270 -0.6046
 5034TIP3    H136737   3.433   6.487   1.313  0.7346  0.6592 -0.0686
 5034TIP3    H236738   3.474   6.393   1.202  0.5717 -0.2213  0.6119
 5035TIP3   OH236739   6.306   3.992   1.113  0.2124  0.0013  0.1434
 5035TIP3    H136740   6.292   3.911   1.064 -1.4784 -1.8597  3.3948
 5035TIP3    H236741   6.395   4.019   1.088  0.6828 -2.6006 -1.4083
 5036TIP3   OH236742   0.964   2.932   2.174 -0.5072 -0.2161 -0.5397
 5036TIP3    H136743   0.906   2.898   2.242  2.9906 -0.8763  2.3937
 5036TIP3    H236744   0.960   3.027   2.184 -2.9693 -0.0460 -2.2392
 5037TIP3   OH236745   5.698   2.526   7.776 -0.3680 -0.0286  0.8260
 5037TIP3    H136746   5.770   2.556   7.831 -0.5842  1.0782  0.5448
 5037TIP3    H236747   5.713   2.569   7.691  0.8351 -2.8979 -0.5320
 5038TIP3   OH236748   0.187   6.051   0.380 -0.0839 -0.4008 -0.2228
 5038TIP3    H136749   0.220   6.020   0.296  0.0337  1.0651 -0.7522
 5038TIP3    H236750   0.109   6.102   0.358  2.2213  3.6586 -0.0566
 5039TIP3   OH236751   2.370   5.550   0.411  0.2287  0.3839 -0.4656
 5039TIP3    H136752   2.340   5.577   0.497  0.3450 -0.5043 -0.1356
 5039TIP3    H236753   2.406   5.462   0.424 -0.9860 -0.3336 -1.6584
 5040TIP3   OH236754   3.844   2.771   1.569  0.2288  0.7725 -0.2638
 5040TIP3    H136755   3.792   2.825   1.627 -0.2875  0.3804 -0.3561
 5040TIP3    H236756   3.909   2.730   1.626  0.5745  1.4191 -0.1835
 5041TIP3   OH236757   1.436   5.964   8.233  0.2412 -0.2209 -0.1085
 5041TIP3    H136758   1.479   5.881   8.212  0.3803 -0.2585  0.3111
 5041TIP3    H236759   1.351   5.939   8.269  0.2037 -0.1752 -0.1647
 5042TIP3   OH236760   5.499   1.539   0.897  0.1806  0.6281  0.7065
 5042TIP3    H136761   5.404   1.538   0.883  0.0659  0.4572  1.4328
 5042TIP3    H236762   5.524   1.447   0.900  0.5100  0.6778 -0.3335
 5043TIP3   OH236763   4.321   3.813   0.757 -0.1520  0.1681 -0.3138
 5043TIP3    H136764   4.310   3.906   0.737 -0.4463  0.0038 -0.9338
 5043TIP3    H236765   4.278   3.801   0.841  1.1426  0.8813  0.4836
 5044TIP3   OH236766   3.689   0.955   0.621  0.6366 -0.6044 -0.4972
 5044TIP3    H136767   3.620   1.007   0.580  0.1079 -2.1679 -1.6535
 5044TIP3    H236768   3.771   0.993   0.589  0.2753 -0.0507 -0.7648
 5045TIP3   OH236769   2.951   6.709   1.001  0.6992 -0.5590 -0.4315
 5045TIP3    H136770   3.005   6.688   0.926  0.2304 -1.3563 -0.5682
 5045TIP3    H236771   2.992   6.786   1.041  2.1129 -1.3227 -0.3421
 5046TIP3   OH236772   0.146   2.379   2.340 -0.6738  0.1511  0.0831
 5046TIP3    H136773   0.142   2.376   2.436 -2.4634 -1.1571  0.0132
 5046TIP3    H236774   0.236   2.353   2.320  0.0683  1.5097  1.4096
 5047TIP3   OH236775   0.016   5.798   0.265  0.0169  0.2601  0.0862
 5047TIP3    H136776   0.047   5.838   0.184  1.1198 -3.4171 -1.5216
 5047TIP3    H236777  -0.064   5.846   0.287 -0.1952  1.5591 -3.0557
 5048TIP3   OH236778   4.749   2.243   7.359 -0.1865 -0.3073  0.5227
 5048TIP3    H136779   4.838   2.215   7.379  0.1717 -0.1605 -0.7725
 5048TIP3    H236780   4.755   2.283   7.272 -1.4772 -0.0933  0.5041
 5049TIP3   OH236781   2.649   4.172   7.358 -0.2724 -0.1282  0.0928
 5049TIP3    H136782   2.666   4.266   7.365 -0.8029 -0.1189  1.4345
 5049TIP3    H236783   2.733   4.130   7.375 -0.6500  0.0368  2.7769
 5050TIP3   OH236784   3.530   0.980   6.811 -0.3223 -0.0333 -0.3817
 5050TIP3    H136785   3.579   1.055   6.778  0.8557  0.9897  3.2476
 5050TIP3    H236786   3.594   0.927   6.857 -1.3149 -2.9218 -2.0498
 5051TIP3   OH236787   5.628   2.834   7.623 -0.2475 -0.2039  0.6861
 5051TIP3    H136788   5.663   2.784   7.548 -3.2124 -0.2197 -0.8154
 5051TIP3    H236789   5.678   2.916   7.621  1.2646 -1.0792  0.1088
 5052TIP3   OH236790   3.589   0.542   6.992  0.1388 -0.5181 -0.1885
 5052TIP3    H136791   3.664   0.504   6.946 -0.4232 -1.5771 -0.2747
 5052TIP3    H236792   3.516   0.482   6.972 -0.4269 -0.2409  0.9516
 5053TIP3   OH236793   0.452   6.515   0.013  0.1229 -0.0362 -0.5787
 5053TIP3    H136794   0.415   6.431  -0.014  1.8624 -1.4380  1.0631
 5053TIP3    H236795   0.422   6.527   0.103  0.5432  0.7036 -0.5283
 5054TIP3   OH236796   0.935   0.931   0.060 -0.6578 -0.3479 -0.3579
 5054TIP3    H136797   0.875   0.859   0.080 -0.0843 -0.5284  0.7695
 5054TIP3    H236798   0.987   0.942   0.139 -1.1854  1.7651 -0.2486
 5055TIP3   OH236799   3.410   5.220   1.032  0.8385 -0.5953 -0.4431
 5055TIP3    H136800   3.488   5.274   1.041  1.1622 -1.0347 -0.5602
 5055TIP3    H236801   3.425   5.168   0.953 -0.3003  0.4780 -1.4009
 5056TIP3   OH236802   4.638   0.639   7.525  0.6785 -0.0775  0.0635
 5056TIP3    H136803   4.580   0.691   7.581  1.8630  0.5584  0.7498
 5056TIP3    H236804   4.701   0.600   7.585  1.5331  0.0162 -0.7415
 5057TIP3   OH236805   4.769   0.965   1.571  0.1244 -0.1549  0.6020
 5057TIP3    H136806   4.831   0.978   1.642 -0.5567  2.4607  0.8311
 5057TIP3    H236807   4.700   1.030   1.586  0.1276  0.7966 -2.6024
 5058TIP3   OH236808   3.077   3.682   7.396 -0.0566  0.1898  0.4370
 5058TIP3    H136809   3.067   3.712   7.306  1.8125  2.1506  0.7932
 5058TIP3    H236810   3.049   3.590   7.394 -2.4842  0.8564 -1.5441
 5059TIP3   OH236811   5.503   2.671   8.136  0.3597  0.1593 -0.3513
 5059TIP3    H136812   5.439   2.601   8.144 -0.3733  0.8429 -0.1821
 5059TIP3    H236813   5.520   2.677   8.042  0.7708 -0.5395 -0.3311
 5060TIP3   OH236814   2.417   0.073   1.232  0.4424  0.1508 -0.2337
 5060TIP3    H136815   2.374   0.066   1.147 -0.1154 -0.4776  0.0879
 5060TIP3    H236816   2.351   0.045   1.295  0.9983  0.1591  0.3709
 5061TIP3   OH236817   1.237   1.051   0.263 -0.4744  0.0177 -0.1102
 5061TIP3    H136818   1.325   1.035   0.230 -0.9458 -0.7936 -0.9989
 5061TIP3    H236819   1.179   1.032   0.190 -1.4055  0.4516  0.4884
 5062TIP3   OH236820   6.591   4.724   1.060  0.3811  0.2569  0.7697
 5062TIP3    H136821   6.569   4.678   1.141  0.7871 -0.5540  0.4370
 5062TIP3    H236822   6.674   4.768   1.079  0.0602  0.7501  1.0469
 5063TIP3   OH236823   4.407   3.445   1.464  0.2406 -0.4934 -0.0771
 5063TIP3    H136824   4.463   3.436   1.542 -0.0185 -0.5158  0.1068
 5063TIP3    H236825   4.468   3.436   1.390  0.3887 -1.1174  0.1138
 5064TIP3   OH236826   5.282   6.443   8.146  1.2522  0.0528 -0.4019
 5064TIP3    H136827   5.335   6.376   8.103  0.3180 -0.5453 -0.6499
 5064TIP3    H236828   5.346   6.506   8.179  2.1587 -0.9878 -0.1047
 5065TIP3   OH236829   2.579   4.880   0.648 -0.2067  0.5323  0.5145
 5065TIP3    H136830   2.487   4.874   0.622  0.0184 -0.8401 -0.0429
 5065TIP3    H236831   2.583   4.834   0.732  0.1690 -0.4476 -0.0307
 5066TIP3   OH236832   5.074   0.553   1.052  0.5795  0.6982  0.0845
 5066TIP3    H136833   4.985   0.547   1.018  0.5864 -1.4414  0.2513
 5066TIP3    H236834   5.067   0.609   1.129 -0.5550  0.8494 -0.1207
 5067TIP3   OH236835   3.047   0.507   7.913  0.1053  0.3459 -0.0509
 5067TIP3    H136836   3.079   0.566   7.846  0.1870  0.0346 -0.2894
 5067TIP3    H236837   3.077   0.420   7.885 -1.1365  0.0065 -0.3986
 5068TIP3   OH236838   3.373   5.816   0.500  0.4498  0.3352  0.0808
 5068TIP3    H136839   3.327   5.792   0.580  0.8420 -0.3551  0.1133
 5068TIP3    H236840   3.336   5.759   0.432  0.8301  0.1892 -0.0121
 5069TIP3   OH236841   0.155   3.484   0.769 -0.5189  0.0640  0.0397
 5069TIP3    H136842   0.212   3.556   0.746  1.2646 -0.9864  0.9587
 5069TIP3    H236843   0.212   3.407   0.771 -2.1377 -1.2088  0.1195
 5070TIP3   OH236844   4.561   5.766   8.435  0.1715  0.2405 -0.4000
 5070TIP3    H136845   4.495   5.711   8.476 -1.0537  2.3426  0.6552
 5070TIP3    H236846   4.639   5.757   8.490 -0.4554  0.6000  0.5604
 5071TIP3   OH236847   5.001   5.967   1.097  0.3423  0.4459  0.8901
 5071TIP3    H136848   5.089   5.964   1.059  0.2895  0.6784  0.7457
 5071TIP3    H236849   4.943   5.938   1.027  0.0864  2.2930  0.2732
 5072TIP3   OH236850   1.109   6.414   2.110  0.2585  0.1570 -0.1978
 5072TIP3    H136851   1.152   6.499   2.124  1.6370 -0.6271  0.5499
 5072TIP3    H236852   1.178   6.349   2.126 -0.3339 -1.0876 -2.3463
 5073TIP3   OH236853   2.510   1.499   1.314 -0.3581  0.7358  0.2829
 5073TIP3    H136854   2.537   1.519   1.225  1.0926  0.4424  0.6340
 5073TIP3    H236855   2.584   1.453   1.352 -1.2687  0.1301  1.3986
 5074TIP3   OH236856   0.025   1.623   7.245 -0.3639 -0.3384 -0.0712
 5074TIP3    H136857  -0.039   1.637   7.175  0.3839 -0.6518 -0.8357
 5074TIP3    H236858   0.068   1.541   7.223 -0.7746 -0.9447  1.2938
 5075TIP3   OH236859   0.495   0.316   0.600  0.0402  0.4556 -0.2999
 5075TIP3    H136860   0.411   0.327   0.557 -0.5204 -1.9292  0.0425
 5075TIP3    H236861   0.553   0.282   0.532 -0.1524 -0.8999  0.1976
 5076TIP3   OH236862   2.698   2.060   6.314  0.2129 -0.3108  0.2579
 5076TIP3    H136863   2.651   2.142   6.298  0.2519 -0.7699 -2.7248
 5076TIP3    H236864   2.780   2.088   6.355 -0.9856  0.8205  2.0371
 5077TIP3   OH236865   1.285   4.584   2.372 -0.1227 -0.0463 -0.2241
 5077TIP3    H136866   1.370   4.560   2.333 -1.6820 -0.3933 -3.7388
 5077TIP3    H236867   1.286   4.679   2.374  0.1920 -0.0380 -0.6305
 5078TIP3   OH236868   3.420   1.525   2.630 -0.4940 -0.0348  0.3709
 5078TIP3    H136869   3.465   1.601   2.593 -0.5303  0.2910  0.9950
 5078TIP3    H236870   3.474   1.450   2.603  0.6513  0.3720  1.4205
 5079TIP3   OH236871   0.550   4.262   0.496 -0.4019 -0.1011  0.1418
 5079TIP3    H136872   0.566   4.355   0.514 -1.4000  0.2403 -0.6247
 5079TIP3    H236873   0.637   4.221   0.501 -0.2257  0.4016  2.8999
 5080TIP3   OH236874   1.223   2.673   7.242  0.2080  0.5536  0.0449
 5080TIP3    H136875   1.170   2.699   7.167  2.0050  1.2997 -1.0170
 5080TIP3    H236876   1.159   2.650   7.309 -1.4463  0.7947 -1.3832
 5081TIP3   OH236877   3.906   6.972   8.329  0.7446 -0.3806  0.1474
 5081TIP3    H136878   3.986   6.959   8.381  0.1601  2.2504  1.9573
 5081TIP3    H236879   3.890   7.067   8.334 -2.3428 -0.7636 -0.3661
 5082TIP3   OH236880   5.858   4.048   1.653 -0.5906 -0.9139 -0.3112
 5082TIP3    H136881   5.852   3.993   1.575  2.0102 -2.4389  0.4361
 5082TIP3    H236882   5.801   4.006   1.717  0.5205 -2.1673 -0.1058
 5083TIP3   OH236883   0.934   5.131   1.775 -0.2786 -0.3930 -0.2431
 5083TIP3    H136884   0.938   5.039   1.749  1.0896 -0.4698  0.1682
 5083TIP3    H236885   0.982   5.135   1.858 -0.4661  0.6658 -0.1718
 5084TIP3   OH236886   0.179   2.898   7.243 -0.1044 -0.0392 -0.0302
 5084TIP3    H136887   0.120   2.838   7.196  0.0187  0.2565 -0.5745
 5084TIP3    H236888   0.122   2.945   7.304 -0.5886  0.7709 -1.0678
 5085TIP3   OH236889   6.338   1.593   0.082 -0.6357  0.0878  0.1525
 5085TIP3    H136890   6.338   1.582   0.177 -0.5042 -0.1141  0.1309
 5085TIP3    H236891   6.347   1.504   0.048 -2.7577 -0.0924 -0.0870
 5086TIP3   OH236892   6.852   2.206   6.836  0.5425 -0.2780 -0.2292
 5086TIP3    H136893   6.891   2.122   6.861  0.3845 -0.6994 -1.3391
 5086TIP3    H236894   6.846   2.202   6.740  1.4565  1.4148 -0.3934
 5087TIP3   OH236895   1.978   2.865   1.088  0.0559  0.0043  0.4054
 5087TIP3    H136896   1.893   2.903   1.108  0.4454  0.9326  0.3648
 5087TIP3    H236897   2.041   2.930   1.120  0.7954 -1.3435  1.7938
 5088TIP3   OH236898   3.349   4.975   7.710 -0.3671 -0.2859 -0.2222
 5088TIP3    H136899   3.282   4.950   7.773 -0.1031 -1.3797 -0.3609
 5088TIP3    H236900   3.420   4.913   7.724  0.3380  0.4237 -0.5525
 5089TIP3   OH236901   6.105   4.769   7.384  0.2489 -0.5704  0.6528
 5089TIP3    H136902   6.038   4.737   7.444 -0.6640 -0.2107 -0.1446
 5089TIP3    H236903   6.187   4.761   7.432 -0.3141 -1.4349  1.4880
 5090TIP3   OH236904   3.910   3.315   8.254 -0.0334 -0.2157  0.2891
 5090TIP3    H136905   3.881   3.322   8.163  1.4002  1.4784 -0.0870
 5090TIP3    H236906   3.865   3.237   8.288 -1.9868  0.1216 -1.3274
 5091TIP3   OH236907   6.293   1.517   1.780  0.9726 -0.3031  0.1303
 5091TIP3    H136908   6.250   1.582   1.725 -0.7488 -1.2728  0.2853
 5091TIP3    H236909   6.343   1.463   1.719  0.3017 -0.4324 -0.3163
 5092TIP3   OH236910   5.474   4.965   0.011 -0.4177  0.2296  0.2308
 5092TIP3    H136911   5.492   5.044   0.062  1.0509 -1.0567  1.8152
 5092TIP3    H236912   5.558   4.941  -0.028 -1.0211 -0.1217 -0.9066
 5093TIP3   OH236913   4.321   0.082   2.584 -0.1489  0.9654 -0.2592
 5093TIP3    H136914   4.416   0.084   2.589 -0.0594  0.4440 -1.4904
 5093TIP3    H236915   4.297  -0.006   2.612 -0.1610  0.6300 -1.2887
 5094TIP3   OH236916   4.151   0.051   8.005  0.1074 -0.3654 -0.2774
 5094TIP3    H136917   4.214   0.111   7.963 -0.3612 -0.8924 -1.7969
 5094TIP3    H236918   4.129  -0.011   7.936 -2.6260  0.2050 -0.0099
 5095TIP3   OH236919   0.626   2.626   7.031  0.1126  0.0063 -0.3473
 5095TIP3    H136920   0.589   2.689   7.092  2.1513  1.9013 -0.9295
 5095TIP3    H236921   0.552   2.574   7.001 -1.2855  0.5309  1.9634
 5096TIP3   OH236922   1.028   3.864   0.123 -0.1056 -0.2192 -0.2116
 5096TIP3    H136923   1.043   3.925   0.195  0.9466 -1.8725  1.0461
 5096TIP3    H236924   1.089   3.793   0.139 -0.0467 -0.7813 -2.6162
 5097TIP3   OH236925   1.668   3.329   1.300 -0.1592 -0.3883  0.6761
 5097TIP3    H136926   1.690   3.274   1.225  2.9038  1.3786  0.1183
 5097TIP3    H236927   1.729   3.301   1.368  0.8835  1.6605  0.6482
 5098TIP3   OH236928   1.797   5.568   7.984 -0.0223 -0.1819 -0.2395
 5098TIP3    H136929   1.817   5.475   7.993 -0.2937 -0.1445  0.8221
 5098TIP3    H236930   1.805   5.603   8.072  0.6761  0.9297 -0.7326
 5099TIP3   OH236931   5.030   3.323   7.413  0.3640 -0.2821 -0.2501
 5099TIP3    H136932   4.982   3.405   7.418 -1.9456 -1.5710  0.0422
 5099TIP3    H236933   5.101   3.340   7.351 -0.3062  1.7879 -0.5097
 5100TIP3   OH236934   0.424   3.626   7.633 -0.1159 -0.1150  0.7520
 5100TIP3    H136935   0.397   3.547   7.587 -0.2063 -0.0929  0.7666
 5100TIP3    H236936   0.495   3.597   7.691 -0.6949 -0.3568  1.3606
 5101TIP3   OH236937   1.388   4.157   1.427  0.6138 -0.2134 -0.4380
 5101TIP3    H136938   1.472   4.112   1.440  1.3942  1.8164  3.1496
 5101TIP3    H236939   1.326   4.108   1.481 -0.2758 -0.9860 -2.1049
 5102TIP3   OH236940   1.762   3.591   0.663  0.2385  0.3044  0.0252
 5102TIP3    H136941   1.707   3.615   0.738  2.1689  1.5686  1.1159
 5102TIP3    H236942   1.818   3.521   0.696  2.2564  1.9989  0.3797
 5103TIP3   OH236943   3.522   4.791   6.832  0.4631  0.1485 -0.1391
 5103TIP3    H136944   3.584   4.766   6.901 -0.3422 -0.2449  0.4551
 5103TIP3    H236945   3.502   4.709   6.788  1.7998  0.5420 -1.5801
 5104TIP3   OH236946   1.806   1.595   7.213 -0.5312  0.4913  0.8842
 5104TIP3    H136947   1.839   1.666   7.268  0.6335  1.2093 -0.6701
 5104TIP3    H236948   1.793   1.635   7.127 -0.9172 -0.9193  0.2544
 5105TIP3   OH236949   1.225   1.096   0.706  0.1002  0.3529  0.4777
 5105TIP3    H136950   1.222   1.049   0.789 -1.0450 -0.1066  0.2101
 5105TIP3    H236951   1.263   1.033   0.644 -2.2509 -0.6514 -0.0803
 5106TIP3   OH236952   2.400   6.613   6.923 -0.2098 -0.0376  0.1166
 5106TIP3    H136953   2.467   6.627   6.856 -0.0706  1.5392  0.5461
 5106TIP3    H236954   2.349   6.694   6.924 -1.5306 -0.8358  0.4767
 5107TIP3   OH236955   2.596   6.368   8.255 -0.1711  0.0978 -0.3387
 5107TIP3    H136956   2.592   6.456   8.218 -0.8371  0.2232  0.0303
 5107TIP3    H236957   2.596   6.381   8.350 -0.9420 -0.3249 -0.2740
 5108TIP3   OH236958   1.931   3.806   7.120 -0.2829 -0.0615  0.1967
 5108TIP3    H136959   1.926   3.727   7.175 -0.5463 -0.3149 -0.1873
 5108TIP3    H236960   2.020   3.807   7.087 -0.2106 -0.0701  0.3885
 5109TIP3   OH236961   5.490   5.163   7.079  0.2114  0.6755  0.3565
 5109TIP3    H136962   5.537   5.080   7.090  0.1085  0.2635 -1.8677
 5109TIP3    H236963   5.557   5.231   7.089  0.2332  0.4270  2.5721
 5110TIP3   OH236964   3.099   1.666   1.650  0.6544  0.1788 -0.5281
 5110TIP3    H136965   3.149   1.747   1.651  2.4409 -0.6911 -4.1311
 5110TIP3    H236966   3.095   1.640   1.558 -0.4367 -3.4687  0.3626
 5111TIP3   OH236967   6.053   3.542   1.203 -0.2008 -0.3387 -0.0777
 5111TIP3    H136968   6.145   3.566   1.203 -0.4384  0.6243 -0.4032
 5111TIP3    H236969   6.014   3.595   1.272 -0.0720 -2.6933  1.9455
 5112TIP3   OH236970   4.205   4.662   8.097  0.7589 -0.4038 -0.2006
 5112TIP3    H136971   4.231   4.685   8.008  0.0250  2.6265  0.2823
 5112TIP3    H236972   4.163   4.576   8.087  0.0322  0.1536 -2.9222
 5113TIP3   OH236973   3.618   5.725   2.100  1.1006  0.0041 -0.0563
 5113TIP3    H136974   3.576   5.685   2.177 -0.4259  2.2114  0.3397
 5113TIP3    H236975   3.653   5.808   2.132  3.7846 -0.6776 -0.9557
 5114TIP3   OH236976   0.820   6.111   7.580  0.3448 -0.1916 -0.4677
 5114TIP3    H136977   0.822   6.194   7.629  1.2317 -0.7730  0.5240
 5114TIP3    H236978   0.898   6.114   7.524  0.6250 -0.5420 -0.1006
 5115TIP3   OH236979   0.392   2.897   7.399 -0.0044 -0.5251 -0.7758
 5115TIP3    H136980   0.451   2.834   7.358 -0.3866 -1.1321 -0.4163
 5115TIP3    H236981   0.310   2.890   7.349 -0.1119 -0.4599 -0.6102
 5116TIP3   OH236982   4.997   6.458   0.256 -0.0839 -0.7176  0.0073
 5116TIP3    H136983   4.937   6.387   0.279 -0.1469 -0.6986 -0.0942
 5116TIP3    H236984   5.079   6.436   0.299 -0.3458 -0.4157  0.6712
 5117TIP3   OH236985   6.748   6.756   8.183  0.7548 -0.0075 -0.1593
 5117TIP3    H136986   6.796   6.764   8.101  0.8043 -0.2453 -0.1530
 5117TIP3    H236987   6.715   6.666   8.183  2.1139 -0.5384  0.8298
 5118TIP3   OH236988   5.645   1.381   1.202  0.5828 -0.3178  0.1885
 5118TIP3    H136989   5.578   1.430   1.155 -1.4628 -0.2595  2.8849
 5118TIP3    H236990   5.611   1.372   1.291  3.3815 -1.8864  1.2706
 5119TIP3   OH236991   4.543   1.680   8.084 -0.2666  0.2750 -0.4582
 5119TIP3    H136992   4.453   1.671   8.113 -0.5377 -1.6003 -1.7267
 5119TIP3    H236993   4.579   1.749   8.139 -2.3866  0.8891  0.2487
 5120TIP3   OH236994   1.400   1.643   6.721 -0.5270  0.3335 -0.1489
 5120TIP3    H136995   1.473   1.593   6.683  0.1286  0.1570  1.2755
 5120TIP3    H236996   1.336   1.577   6.746 -0.2580  0.3095  0.4902
 5121TIP3   OH236997   2.981   1.847   2.898 -0.3600  0.4898  0.4953
 5121TIP3    H136998   3.072   1.817   2.900 -0.7206 -0.7777 -1.0337
 5121TIP3    H236999   2.976   1.905   2.822 -1.5949 -2.2082 -1.6060
 5122TIP3   OH237000   1.115   2.056   1.576  0.6302  0.0992  0.4127
 5122TIP3    H137001   1.170   2.108   1.517 -0.1928  1.2185  0.5988
 5122TIP3    H237002   1.039   2.033   1.524  1.2074 -1.3868  0.1782
 5123TIP3   OH237003   0.039   4.439   6.064  0.1468  0.6936 -0.2729
 5123TIP3    H137004   0.041   4.516   6.121  0.7786  2.0792 -2.0682
 5123TIP3    H237005  -0.053   4.412   6.064  0.1920  0.4718  1.5976
 5124TIP3   OH237006   3.031   3.015   0.340  0.5192 -0.0241  0.3910
 5124TIP3    H137007   3.101   3.077   0.360  0.6745 -0.5182  1.4949
 5124TIP3    H237008   3.074   2.929   0.346  0.3686 -0.2512 -1.3643
 5125TIP3   OH237009   0.452   1.269   0.938 -0.9736 -0.2524  0.1796
 5125TIP3    H137010   0.542   1.269   0.970 -0.5478  0.6801 -0.9486
 5125TIP3    H237011   0.405   1.329   0.996  0.0748  2.4279 -1.5657
 5126TIP3   OH237012   0.915   5.799   8.101 -0.3918  0.2028 -0.0422
 5126TIP3    H137013   0.951   5.726   8.151 -1.8268  1.1053  2.4773
 5126TIP3    H237014   0.866   5.758   8.030  0.3758 -1.1850  0.1922
 5127TIP3   OH237015   3.518   3.564   7.167 -0.5070  0.5944 -0.1415
 5127TIP3    H137016   3.611   3.540   7.165  0.0008  2.2264  1.5146
 5127TIP3    H237017   3.483   3.516   7.242 -1.2397 -0.6561 -1.2438
 5128TIP3   OH237018   2.008   1.661   0.330 -0.2361 -0.1404 -0.3946
 5128TIP3    H137019   2.061   1.714   0.390  1.4431 -0.4843 -1.5017
 5128TIP3    H237020   1.987   1.582   0.380  0.1731  0.0766  0.1352
 5129TIP3   OH237021   3.945   4.510   0.494  0.2222  0.0812 -0.4508
 5129TIP3    H137022   3.969   4.548   0.410 -1.2979  3.6834  0.5533
 5129TIP3    H237023   4.026   4.513   0.546  1.0126 -1.6024 -1.4959
 5130TIP3   OH237024   3.399   4.097   7.463  0.4517 -0.4095  0.0433
 5130TIP3    H137025   3.328   4.037   7.441 -0.5205  0.5081  0.5955
 5130TIP3    H237026   3.459   4.091   7.388  0.3103 -1.9227  0.0059
 5131TIP3   OH237027   1.300   0.806   1.295 -0.2422 -0.0397 -0.1098
 5131TIP3    H137028   1.298   0.897   1.263  1.2110  0.5264  1.2974
 5131TIP3    H237029   1.208   0.785   1.311 -0.5010  1.9270  1.4270
 5132TIP3   OH237030   1.359   1.695   6.980 -0.4171  0.0021  0.0588
 5132TIP3    H137031   1.381   1.703   6.888  0.0321  0.1378  0.1788
 5132TIP3    H237032   1.369   1.783   7.016  1.0043 -0.3428  0.5860
 5133TIP3   OH237033   5.377   4.127   7.003  0.6627  0.0909 -0.2989
 5133TIP3    H137034   5.416   4.108   6.917 -0.6168  1.1349 -1.1461
 5133TIP3    H237035   5.398   4.219   7.019 -0.6883  0.4388 -0.3877
 5134TIP3   OH237036   5.827   2.945   1.514 -0.0657 -0.6609 -0.1003
 5134TIP3    H137037   5.738   2.936   1.479 -0.3470  0.7480  0.1575
 5134TIP3    H237038   5.820   3.017   1.578  0.9158 -1.6417  1.1659
 5135TIP3   OH237039   2.926   5.931   0.849 -0.5423 -0.0710  0.2784
 5135TIP3    H137040   2.929   5.841   0.880 -1.6930  0.3316  1.6670
 5135TIP3    H237041   2.925   5.984   0.929 -1.1455  1.1176 -0.4798
 5136TIP3   OH237042   0.250   3.204   8.124 -0.2921 -0.0837  0.5089
 5136TIP3    H137043   0.265   3.167   8.037  0.1274 -1.7019  1.2231
 5136TIP3    H237044   0.217   3.130   8.176 -2.2128  1.2497  1.3030
 5137TIP3   OH237045   6.785   2.556   1.598  0.0926 -0.4511 -0.4396
 5137TIP3    H137046   6.836   2.633   1.619  0.8345 -0.5756 -1.6619
 5137TIP3    H237047   6.725   2.545   1.672  1.1429  0.2853  0.5439
 5138TIP3   OH237048   2.643   4.635   6.744 -0.8162 -0.0302 -0.0167
 5138TIP3    H137049   2.684   4.682   6.671  1.2474 -0.5237  0.7604
 5138TIP3    H237050   2.611   4.554   6.705  2.6020 -1.5559 -0.0698
 5139TIP3   OH237051   2.768   2.263   7.690 -0.5895 -0.0884 -0.1242
 5139TIP3    H137052   2.817   2.193   7.733  1.2825 -0.5631 -2.7505
 5139TIP3    H237053   2.835   2.323   7.657 -1.8771  0.4914 -1.8514
 5140TIP3   OH237054   4.707   4.553   8.298  0.3986 -0.0478  0.4015
 5140TIP3    H137055   4.717   4.645   8.272 -0.9041 -0.2570 -0.9999
 5140TIP3    H237056   4.630   4.523   8.250  1.6248 -2.2935 -0.3244
 5141TIP3   OH237057   5.742   3.234   1.437  0.2974 -0.3205 -0.0831
 5141TIP3    H137058   5.706   3.180   1.367  0.3217  0.5963 -0.8277
 5141TIP3    H237059   5.823   3.269   1.400 -0.4091  1.3216 -0.1494
 5142TIP3   OH237060   6.589   0.676   7.346  0.3421  0.1048 -0.4205
 5142TIP3    H137061   6.535   0.600   7.324  0.9256 -0.2013 -0.8110
 5142TIP3    H237062   6.613   0.714   7.262 -0.7298  1.3049 -0.2258
 5143TIP3   OH237063   0.081   4.284   6.441  0.4898  0.1467  0.1433
 5143TIP3    H137064   0.089   4.378   6.425 -0.0761  0.3684  1.0755
 5143TIP3    H237065   0.163   4.247   6.407 -0.2128  0.6501 -2.2674
 5144TIP3   OH237066   6.904   2.276   0.961  0.2599 -0.4059 -0.1166
 5144TIP3    H137067   6.911   2.281   0.865  0.3065  0.6989 -0.0726
 5144TIP3    H237068   6.959   2.202   0.985 -2.0879 -2.6268 -1.1510
 5145TIP3   OH237069   3.841   6.069   1.715  0.2217  0.2691  0.3822
 5145TIP3    H137070   3.790   6.136   1.670  1.7171  1.7195  0.7530
 5145TIP3    H237071   3.790   6.047   1.792 -0.5558  0.5717 -0.0380
 5146TIP3   OH237072   0.473   0.250   7.629 -0.3946 -0.1102 -0.3466
 5146TIP3    H137073   0.386   0.212   7.644 -0.7547  1.5605  2.4173
 5146TIP3    H237074   0.455   0.335   7.588 -0.3093  1.0872  1.9236
 5147TIP3   OH237075   2.122   4.795   7.056 -0.2626 -0.2202  0.4657
 5147TIP3    H137076   2.091   4.714   7.096 -0.6556  1.1123  3.0866
 5147TIP3    H237077   2.104   4.863   7.121  2.1241  1.6640 -0.6602
 5148TIP3   OH237078   4.318   5.869   1.566  0.7399 -0.1094 -0.0126
 5148TIP3    H137079   4.290   5.801   1.627 -1.6841  0.4005 -0.4574
 5148TIP3    H237080   4.258   5.942   1.581 -1.7495 -0.8413 -4.5928
 5149TIP3   OH237081   3.551   6.273   0.732  0.1039 -0.1757 -0.4339
 5149TIP3    H137082   3.470   6.319   0.707 -0.0838 -0.2118  0.1006
 5149TIP3    H237083   3.601   6.268   0.650  0.0440  0.8012 -0.5478
 5150TIP3   OH237084   5.930   4.347   8.237 -0.3423  0.2823  0.0569
 5150TIP3    H137085   5.952   4.270   8.290 -0.4324  0.1466 -0.1012
 5150TIP3    H237086   5.888   4.311   8.159  0.0219  0.4650 -0.2267
 5151TIP3   OH237087   3.610   1.835   0.737 -0.0813  0.1767  0.8493
 5151TIP3    H137088   3.551   1.837   0.662  1.1313  2.2230 -0.1347
 5151TIP3    H237089   3.651   1.748   0.732 -1.3697 -0.4310  0.2921
 5152TIP3   OH237090   3.318   4.731   7.403 -0.0748 -0.0307  0.6174
 5152TIP3    H137091   3.350   4.705   7.317 -0.2818 -0.7379  0.7469
 5152TIP3    H237092   3.398   4.750   7.453  0.0890 -0.4741  0.5336
 5153TIP3   OH237093   4.011   3.056   8.018 -0.2301 -0.3790  0.0020
 5153TIP3    H137094   3.939   3.116   7.998 -0.1935 -0.5037 -0.5295
 5153TIP3    H237095   4.025   3.007   7.936 -1.0096 -1.9055  0.7472
 5154TIP3   OH237096   4.074   6.935   7.331 -0.3495 -0.4126  0.4247
 5154TIP3    H137097   4.030   7.014   7.364  1.9958  1.7817 -1.2810
 5154TIP3    H237098   4.030   6.916   7.249  1.2633  1.3753 -0.9429
 5155TIP3   OH237099   0.187   6.582   1.814 -0.3010  0.2388 -0.3288
 5155TIP3    H137100   0.184   6.639   1.738  1.8939 -1.8391 -2.1482
 5155TIP3    H237101   0.279   6.580   1.839 -0.6516 -0.8567  1.0005
 5156TIP3   OH237102   6.364   3.629   7.103  0.4914  0.3939 -0.4665
 5156TIP3    H137103   6.352   3.552   7.048  2.4025 -0.1720 -0.1655
 5156TIP3    H237104   6.449   3.665   7.078  0.8699  0.8148  1.2568
 5157TIP3   OH237105   1.455   0.911   7.321  0.2484 -0.2540 -0.3777
 5157TIP3    H137106   1.432   0.997   7.355 -1.0339 -1.1399  1.1583
 5157TIP3    H237107   1.403   0.902   7.240 -0.6425 -0.0875  0.1622
 5158TIP3   OH237108   4.578   4.727   7.526 -0.0800  0.0913  0.3254
 5158TIP3    H137109   4.647   4.761   7.470 -0.5135  2.4680  1.1261
 5158TIP3    H237110   4.496   4.758   7.486 -0.4136  1.5138  1.9551
 5159TIP3   OH237111   4.385   0.568   1.617 -0.2488  0.1774  0.2420
 5159TIP3    H137112   4.464   0.575   1.671  0.1123 -0.9348 -0.1006
 5159TIP3    H237113   4.380   0.650   1.569  0.5259  0.3869  0.5148
 5160TIP3   OH237114   4.239   5.597   7.478 -0.3952 -0.2455 -0.2199
 5160TIP3    H137115   4.220   5.505   7.461 -0.0013 -0.6089  1.1934
 5160TIP3    H237116   4.152   5.638   7.481 -0.5957 -0.6363 -0.5054
 5161TIP3   OH237117   2.426   1.665   0.504 -0.4248 -0.0533  0.2262
 5161TIP3    H137118   2.393   1.725   0.571  2.6361 -0.4780  2.3410
 5161TIP3    H237119   2.421   1.715   0.422 -0.0973  2.2287  1.5271
 5162TIP3   OH237120   4.775   4.766   7.332 -0.2216  0.0433 -0.4300
 5162TIP3    H137121   4.798   4.690   7.279  0.2634 -0.4895  0.5080
 5162TIP3    H237122   4.843   4.769   7.400 -1.5361 -0.0973  0.9426
 5163TIP3   OH237123   3.922   5.214   7.380 -0.0844 -0.6535 -0.2328
 5163TIP3    H137124   3.921   5.299   7.424 -1.5879 -0.9427  0.3452
 5163TIP3    H237125   3.948   5.152   7.449  1.3737 -0.6396 -0.7413
 5164TIP3   OH237126   2.998   5.784   8.425  0.7400  0.1490 -0.3341
 5164TIP3    H137127   3.036   5.832   8.353  4.8036 -0.5918  1.0829
 5164TIP3    H237128   2.957   5.851   8.480 -0.5064  0.9344 -2.1262
 5165TIP3   OH237129   2.377   4.814   1.297  0.3054  0.1615 -0.6315
 5165TIP3    H137130   2.408   4.799   1.386 -0.6572  0.0626 -0.2997
 5165TIP3    H237131   2.453   4.794   1.242  0.2878 -1.9922  0.0242
 5166TIP3   OH237132   2.503   1.488   6.564 -0.1145 -0.6125  0.6674
 5166TIP3    H137133   2.598   1.497   6.578  0.0842  0.4461 -0.9977
 5166TIP3    H237134   2.489   1.526   6.477 -1.9143 -1.8334  0.3883
 5167TIP3   OH237135   3.499   2.867   2.885  0.3580 -0.2442  0.2988
 5167TIP3    H137136   3.548   2.920   2.948 -0.0702  0.9080 -0.3147
 5167TIP3    H237137   3.439   2.928   2.844 -2.0372 -1.7083  1.4201
 5168TIP3   OH237138   6.911   1.711   1.648  0.4734  0.1299 -0.5617
 5168TIP3    H137139   7.003   1.685   1.643  0.5688  0.5634 -1.1295
 5168TIP3    H237140   6.863   1.637   1.610  0.9204  1.7294 -4.7147
 5169TIP3   OH237141   2.625   0.814   1.652  0.5489  0.3494  0.0576
 5169TIP3    H137142   2.713   0.835   1.685 -0.3563  2.2384  1.4706
 5169TIP3    H237143   2.619   0.719   1.658  2.2792  0.2333  0.5065
 5170TIP3   OH237144   2.561   2.974   8.403  0.0898 -0.1058  0.7530
 5170TIP3    H137145   2.505   3.028   8.460 -1.1611 -1.9851  1.4007
 5170TIP3    H237146   2.521   2.982   8.317  1.4465  2.0098  0.2504
 5171TIP3   OH237147   3.344   1.590   0.726  0.0146  0.7154 -0.0592
 5171TIP3    H137148   3.401   1.573   0.801 -1.3825 -1.7456  0.5678
 5171TIP3    H237149   3.390   1.657   0.676  2.3714  0.4225  1.5288
 5172TIP3   OH237150   1.464   3.000   7.700 -0.2913  0.1950 -0.7785
 5172TIP3    H137151   1.395   2.983   7.636  0.8981 -0.8145 -1.8783
 5172TIP3    H237152   1.450   3.090   7.728 -2.8327 -0.3794  0.0755
 5173TIP3   OH237153   2.319   2.543   0.750 -0.5675 -0.0868  0.2619
 5173TIP3    H137154   2.233   2.582   0.736 -0.1150  0.7814 -0.1963
 5173TIP3    H237155   2.301   2.457   0.788 -1.6525 -0.2919 -0.6795
 5174TIP3   OH237156   5.768   6.071   0.728  0.4496 -0.0038  0.0407
 5174TIP3    H137157   5.780   5.985   0.688  1.5225  1.0051 -2.0042
 5174TIP3    H237158   5.732   6.125   0.657 -1.6473  0.9101  1.7007
 5175TIP3   OH237159   2.233   6.890   7.585  0.4480 -0.2181  0.0174
 5175TIP3    H137160   2.216   6.872   7.493  1.0565  1.7052 -0.5025
 5175TIP3    H237161   2.293   6.820   7.612  0.9452 -0.3131 -1.2708
 5176TIP3   OH237162   5.956   5.798   1.355 -0.0487  0.2120 -0.3932
 5176TIP3    H137163   5.999   5.852   1.421  0.0759 -0.3195 -0.0316
 5176TIP3    H237164   5.979   5.708   1.380 -0.9629 -0.0496 -0.4815
 5177TIP3   OH237165   0.111   4.329   6.800  0.4769 -0.4396 -1.0333
 5177TIP3    H137166   0.176   4.360   6.864 -2.2529  1.1688  1.2256
 5177TIP3    H237167   0.097   4.237   6.823  0.6146 -0.2861 -0.2965
 5178TIP3   OH237168   4.971   1.851   6.967 -0.0856 -0.5631  0.5686
 5178TIP3    H137169   5.031   1.924   6.953  0.6303 -1.3325 -0.4321
 5178TIP3    H237170   4.921   1.877   7.045  1.8295 -0.1034  1.7203
 5179TIP3   OH237171   0.504   2.955   1.842  0.6824  0.0557 -0.0951
 5179TIP3    H137172   0.508   2.973   1.748 -2.8395 -0.0047 -0.3656
 5179TIP3    H237173   0.519   3.040   1.883 -0.4278  0.6286 -0.8304
 5180TIP3   OH237174   2.602   3.375   6.640  0.4314 -0.3001  0.4202
 5180TIP3    H137175   2.528   3.427   6.609  0.1986 -0.6223  0.4227
 5180TIP3    H237176   2.591   3.291   6.595  1.0123 -0.2203  0.1245
 5181TIP3   OH237177   5.921   5.815   7.491  0.2546  0.6601  0.3468
 5181TIP3    H137178   5.889   5.735   7.532 -0.7475  0.6351 -0.4416
 5181TIP3    H237179   5.871   5.885   7.533 -0.4465  0.6725 -0.4878
 5182TIP3   OH237180   1.440   2.711   2.126 -0.0479 -0.2312 -0.4096
 5182TIP3    H137181   1.493   2.681   2.200 -1.1428  2.5096  1.6864
 5182TIP3    H237182   1.378   2.640   2.110  1.6749 -1.8191 -0.2319
 5183TIP3   OH237183   6.528   6.004   2.517  0.7946 -0.5316  0.0330
 5183TIP3    H137184   6.524   5.917   2.557  0.1085 -1.4889 -1.9828
 5183TIP3    H237185   6.600   5.998   2.454 -1.8043 -1.1491 -3.1910
 5184TIP3   OH237186   0.753   0.901   1.825  0.2507 -0.1038  0.1162
 5184TIP3    H137187   0.828   0.878   1.769  0.5547 -0.5931  0.7127
 5184TIP3    H237188   0.765   0.847   1.903 -1.2661 -0.9275 -0.1911
 5185TIP3   OH237189   5.485   3.966   7.425 -0.5028 -0.6717 -0.0994
 5185TIP3    H137190   5.531   3.884   7.441 -0.6754 -0.3216  2.7145
 5185TIP3    H237191   5.490   4.013   7.509 -1.7304  1.5157 -1.1727
 5186TIP3   OH237192   6.851   4.124   1.973  0.0497  0.3746  0.3065
 5186TIP3    H137193   6.907   4.193   2.007 -0.5989  0.8879  0.3618
 5186TIP3    H237194   6.785   4.170   1.921 -0.0488 -0.2518 -0.1299
 5187TIP3   OH237195   4.571   0.898   1.196 -0.1699 -0.3332  0.5339
 5187TIP3    H137196   4.523   0.862   1.121 -0.4505  1.4139 -0.1792
 5187TIP3    H237197   4.531   0.856   1.273  0.7447 -2.8871 -0.2538
 5188TIP3   OH237198   3.983   2.396   7.112 -0.1325  0.1642  0.3692
 5188TIP3    H137199   4.077   2.386   7.093 -0.4380 -2.4664 -0.1158
 5188TIP3    H237200   3.958   2.312   7.151 -2.1991  1.0308  1.0280
 5189TIP3   OH237201   1.562   4.736   6.945  0.2731 -0.5715  0.2217
 5189TIP3    H137202   1.577   4.767   6.856 -1.6321  1.0648  0.3815
 5189TIP3    H237203   1.525   4.812   6.990  1.1959 -1.3558  2.4247
 5190TIP3   OH237204   2.946   2.374   8.050 -0.0265  0.0743  0.1768
 5190TIP3    H137205   3.032   2.413   8.066 -0.2434  0.7451 -0.2516
 5190TIP3    H237206   2.962   2.280   8.053  0.4607  0.1819  1.4644
 5191TIP3   OH237207   2.703   0.434   0.160  0.5655 -0.4468  0.7881
 5191TIP3    H137208   2.656   0.354   0.140  0.9510 -0.2940 -0.8609
 5191TIP3    H237209   2.637   0.502   0.160  0.6217 -0.3719 -0.5815
 5192TIP3   OH237210   1.321   6.244   2.115 -0.3940 -0.3551 -0.0384
 5192TIP3    H137211   1.306   6.191   2.037  0.1978  1.7742 -1.6781
 5192TIP3    H237212   1.411   6.221   2.142 -0.5182 -0.9310 -0.0985
 5193TIP3   OH237213   2.591   2.976   1.692  0.0309  0.4687 -0.0478
 5193TIP3    H137214   2.518   3.038   1.686  0.5438  1.3437  1.8202
 5193TIP3    H237215   2.593   2.951   1.785  1.1561 -0.7160 -0.3648
 5194TIP3   OH237216   0.594   1.178   7.938 -0.0155 -0.0471 -0.3002
 5194TIP3    H137217   0.563   1.196   7.849  1.1166  0.3464 -0.6456
 5194TIP3    H237218   0.552   1.245   7.991 -0.9206 -0.4546 -0.4785
 5195TIP3   OH237219   2.786   5.216   0.233  0.3644 -0.0255  0.1563
 5195TIP3    H137220   2.706   5.227   0.182  0.6222  2.1831  0.1454
 5195TIP3    H237221   2.758   5.171   0.313 -0.4731 -1.2327 -0.7812
 5196TIP3   OH237222   6.384   3.683   8.144  0.0734 -0.2047 -0.0925
 5196TIP3    H137223   6.288   3.691   8.138  0.1408  0.4001 -0.5158
 5196TIP3    H237224   6.404   3.602   8.097 -0.2087 -0.1915 -0.2418
 5197TIP3   OH237225   1.354   4.172   6.980 -0.3152  0.5549  0.2061
 5197TIP3    H137226   1.429   4.112   6.983 -0.2974  0.1814 -3.3656
 5197TIP3    H237227   1.277   4.114   6.986 -0.3620  0.7230  1.5920
 5198TIP3   OH237228   4.604   2.354   1.212  0.4045 -0.3671  0.0548
 5198TIP3    H137229   4.530   2.390   1.165  1.3810  1.8093  0.0482
 5198TIP3    H237230   4.567   2.318   1.293 -0.9499 -1.7957 -1.1593
 5199TIP3   OH237231   6.404   1.543   0.666 -0.1166  0.3298  0.3670
 5199TIP3    H137232   6.445   1.506   0.745  1.9127 -1.4896 -1.3978
 5199TIP3    H237233   6.320   1.576   0.696  1.2552  1.3001  3.6319
 5200TIP3   OH237234   3.656   6.500   7.247  0.1024 -0.2159 -0.9071
 5200TIP3    H137235   3.618   6.579   7.209 -2.1758  0.0292  1.5841
 5200TIP3    H237236   3.588   6.433   7.235 -0.3728 -0.3250  1.8085
 5201TIP3   OH237237   5.197   1.370   2.246 -0.0199 -0.4462  0.0282
 5201TIP3    H137238   5.156   1.452   2.220  2.2498  0.5891 -0.5607
 5201TIP3    H237239   5.134   1.302   2.222 -1.0642  0.9869 -1.4316
 5202TIP3   OH237240   4.152   3.346   8.401 -0.0363  0.2924  0.0913
 5202TIP3    H137241   4.080   3.303   8.355 -1.2847  0.5839  1.6994
 5202TIP3    H237242   4.176   3.284   8.471 -0.5014  1.2997  1.1709
 5203TIP3   OH237243   4.875   0.784   8.218  0.5074  0.5945 -0.0449
 5203TIP3    H137244   4.952   0.789   8.162  0.8507  0.1796  0.3766
 5203TIP3    H237245   4.803   0.818   8.164  0.2592 -2.3100 -1.7754
 5204TIP3   OH237246   2.991   6.281   1.035 -0.5147  0.3603  0.1753
 5204TIP3    H137247   3.039   6.363   1.040  0.0677  0.0626 -0.3423
 5204TIP3    H237248   3.055   6.218   0.999 -1.6147  0.2313 -1.6879
 5205TIP3   OH237249   2.360   0.912   7.193  0.7026 -0.7113 -0.6412
 5205TIP3    H137250   2.326   1.001   7.197  3.1730  0.4324 -2.3979
 5205TIP3    H237251   2.373   0.895   7.099 -0.5977 -3.3460 -0.4380
 5206TIP3   OH237252   4.166   1.104   0.266 -0.1581  0.3213  0.3293
 5206TIP3    H137253   4.258   1.090   0.245 -0.5143  1.4201 -2.3944
 5206TIP3    H237254   4.161   1.196   0.290 -0.9043  1.1789 -2.6584
 5207TIP3   OH237255   3.750   5.203   0.230 -0.0116 -0.2433  0.5821
 5207TIP3    H137256   3.726   5.256   0.306 -1.1920 -1.4071  1.0672
 5207TIP3    H237257   3.673   5.206   0.174  0.7656  0.4049 -0.4829
 5208TIP3   OH237258   1.269   0.917   8.277  0.0840  0.5520 -0.2579
 5208TIP3    H137259   1.177   0.889   8.274 -0.2239  1.1876  1.7972
 5208TIP3    H237260   1.309   0.875   8.201 -1.7963 -0.1174 -0.9381
 5209TIP3   OH237261   6.853   1.267   1.764 -0.0173  1.0433  0.0217
 5209TIP3    H137262   6.820   1.348   1.725  0.9277  0.8166 -1.2901
 5209TIP3    H237263   6.842   1.201   1.696  0.4940  0.3573  0.5912
 5210TIP3   OH237264   1.092   3.192   1.142  0.1589 -0.2155 -0.5146
 5210TIP3    H137265   1.170   3.235   1.176  0.6065  0.5023 -2.3075
 5210TIP3    H237266   1.126   3.114   1.097 -0.2526 -0.4147 -0.4841
 5211TIP3   OH237267   5.145   1.823   0.982  0.1848 -0.5367  0.0052
 5211TIP3    H137268   5.088   1.891   0.944  0.0942 -0.2148  0.7097
 5211TIP3    H237269   5.086   1.768   1.034  0.4786 -0.3382  0.5512
 5212TIP3   OH237270   4.345   0.739   7.970  0.2624  0.0646 -0.7358
 5212TIP3    H137271   4.420   0.797   7.959 -0.2580  0.9309  0.1414
 5212TIP3    H237272   4.272   0.785   7.928  0.4663 -1.4040 -2.8411
 5213TIP3   OH237273   4.385   2.827   8.104  0.2452  0.7410 -0.6787
 5213TIP3    H137274   4.420   2.779   8.179 -0.2619 -0.3139 -1.1005
 5213TIP3    H237275   4.462   2.858   8.057  0.5724  0.7621 -0.1406
 5214TIP3   OH237276   0.960   2.169   0.427  0.1805  0.3860 -0.1444
 5214TIP3    H137277   0.980   2.262   0.433 -0.5663  0.5730 -0.3464
 5214TIP3    H237278   1.040   2.129   0.392  0.2213  1.0788 -0.8813
 5215TIP3   OH237279   6.171   4.334   1.792  0.5005  0.2644  0.4204
 5215TIP3    H137280   6.199   4.265   1.732  1.0568 -0.8541  1.8929
 5215TIP3    H237281   6.080   4.314   1.812  1.1538 -1.1600  2.2237
 5216TIP3   OH237282   3.688   1.247   7.626  0.0660 -0.6585  0.3448
 5216TIP3    H137283   3.743   1.276   7.699  0.0122 -1.7375  0.8371
 5216TIP3    H237284   3.749   1.205   7.565  0.3579  1.6008 -1.0296
 5217TIP3   OH237285   3.789   3.770   8.391 -0.3785  0.5711  0.3656
 5217TIP3    H137286   3.750   3.760   8.478 -2.0352 -0.0227 -0.4060
 5217TIP3    H237287   3.714   3.774   8.332  0.7041 -2.7340 -1.4254
 5218TIP3   OH237288   3.115   1.320   1.222  0.6922 -0.5091 -0.7092
 5218TIP3    H137289   3.192   1.327   1.279  1.1900 -0.1935 -1.3984
 5218TIP3    H237290   3.150   1.333   1.134 -0.3203  0.8031 -0.9476
 5219TIP3   OH237291   3.382   0.110   2.434 -0.6306 -0.1109  0.8249
 5219TIP3    H137292   3.315   0.147   2.492 -0.8594  0.1689  0.3829
 5219TIP3    H237293   3.432   0.185   2.403 -0.3120 -0.2898  0.8996
 5220TIP3   OH237294   4.392   2.480   1.556  0.0058  0.2403  0.1802
 5220TIP3    H137295   4.355   2.548   1.612 -2.4445  1.0134 -2.1767
 5220TIP3    H237296   4.399   2.403   1.613 -0.7228  1.4249  1.9626
 5221TIP3   OH237297   3.976   5.546   7.221  0.5375 -0.1440  0.0545
 5221TIP3    H137298   3.980   5.456   7.190 -0.4668 -0.8911  1.9594
 5221TIP3    H237299   3.884   5.559   7.245  0.1987  2.0735 -2.0060
 5222TIP3   OH237300   3.504   0.989   7.220  0.0143  0.4941  0.4023
 5222TIP3    H137301   3.474   0.898   7.214 -0.8210  0.7928 -0.2224
 5222TIP3    H237302   3.510   1.006   7.313 -0.6824  0.0617  0.5375
 5223TIP3   OH237303   1.448   2.905   0.614 -0.0115  0.3935 -0.0174
 5223TIP3    H137304   1.366   2.942   0.582 -0.2450  1.1952  1.4357
 5223TIP3    H237305   1.473   2.841   0.548 -1.9356 -0.0498 -0.3595
 5224TIP3   OH237306   5.659   5.488   7.523  0.7380 -0.0240 -0.1947
 5224TIP3    H137307   5.728   5.517   7.464  0.2710  0.1114 -0.6767
 5224TIP3    H237308   5.638   5.399   7.495  1.0800 -0.2645  0.2885
 5225TIP3   OH237309   0.059   6.004   0.102  0.0350 -0.0326 -0.7314
 5225TIP3    H137310   0.154   6.002   0.102  0.0649  0.8149 -0.0700
 5225TIP3    H237311   0.036   6.071   0.037 -0.1229 -0.4757 -1.1387
 5226TIP3   OH237312   2.856   2.436   6.849 -0.1144 -0.7011  0.2133
 5226TIP3    H137313   2.886   2.348   6.872 -0.1500 -1.4062 -2.1433
 5226TIP3    H237314   2.774   2.447   6.898  0.7730 -1.2469  1.8897
 5227TIP3   OH237315   0.871   6.804   1.096 -0.1814  0.3052  0.8719
 5227TIP3    H137316   0.904   6.844   1.015  0.4257 -0.0229  0.9490
 5227TIP3    H237317   0.777   6.796   1.083  0.1499 -1.7771 -0.7258
 5228TIP3   OH237318   5.741   1.680   7.273  0.6748  0.2017 -0.0635
 5228TIP3    H137319   5.812   1.686   7.208  0.2311 -1.1960 -0.7171
 5228TIP3    H237320   5.696   1.764   7.267  1.3345  0.5220 -0.7565
 5229TIP3   OH237321   3.424   4.352   0.490 -0.2427 -0.1027 -0.4141
 5229TIP3    H137322   3.371   4.423   0.525 -0.8867 -0.5651 -0.4293
 5229TIP3    H237323   3.440   4.294   0.565  3.5903  1.9314  0.6096
 5230TIP3   OH237324   6.141   4.138   1.597 -0.2455 -0.3669 -0.0614
 5230TIP3    H137325   6.057   4.099   1.573 -0.1687  0.7178 -2.3575
 5230TIP3    H237326   6.179   4.168   1.514  1.5985  0.7865  1.1084
 5231TIP3   OH237327   6.305   0.300   1.767 -0.1399  0.2941 -0.4455
 5231TIP3    H137328   6.247   0.279   1.694 -1.0951 -0.5240  0.5170
 5231TIP3    H237329   6.263   0.261   1.843  1.6464 -0.2756  0.2995
 5232TIP3   OH237330   0.915   0.247   6.938 -0.2024  0.0376  0.1148
 5232TIP3    H137331   0.836   0.195   6.956  0.0425 -0.0559  0.9426
 5232TIP3    H237332   0.907   0.270   6.846  0.0321 -2.1073 -0.5049
 5233TIP3   OH237333   2.364   1.744   7.750  0.5626 -0.4245 -0.3470
 5233TIP3    H137334   2.425   1.697   7.694  0.8694 -0.5342  0.0753
 5233TIP3    H237335   2.332   1.817   7.696  0.3929 -0.8799 -0.8645
 5234TIP3   OH237336   3.858   6.785   0.161 -0.3393 -0.0658  0.0173
 5234TIP3    H137337   3.930   6.739   0.119 -0.3730 -0.9986  0.9296
 5234TIP3    H237338   3.899   6.836   0.231 -0.3155  1.2498 -0.9199
 5235TIP3   OH237339   2.073   3.549   0.001  0.0207 -0.2059  0.2861
 5235TIP3    H137340   2.027   3.611   0.059 -0.3890  0.2183 -0.4840
 5235TIP3    H237341   2.006   3.486  -0.024  0.2672 -0.5508  0.4966
 5236TIP3   OH237342   0.844   5.527   7.474 -0.1668  0.1598 -0.0212
 5236TIP3    H137343   0.888   5.567   7.550 -0.7192  0.7393  0.0017
 5236TIP3    H237344   0.892   5.446   7.459  0.4760  0.4433  0.4357
 5237TIP3   OH237345   2.120   0.850   0.012 -0.9934  0.1220  0.1617
 5237TIP3    H137346   2.102   0.926   0.067  0.4929  0.3738  0.3637
 5237TIP3    H237347   2.084   0.776   0.061 -0.5749  0.4672  1.0238
 5238TIP3   OH237348   4.970   0.796   7.468 -0.2570 -0.5865 -0.1588
 5238TIP3    H137349   5.007   0.714   7.434 -0.0831 -1.3223  1.6980
 5238TIP3    H237350   5.014   0.809   7.552  0.7848  2.2038 -1.0228
 5239TIP3   OH237351   4.466   3.882   6.665  0.7216 -0.4523 -0.3795
 5239TIP3    H137352   4.534   3.940   6.629 -1.0808  1.9396 -0.1658
 5239TIP3    H237353   4.510   3.836   6.737  1.9515  1.5994  0.2744
 5240TIP3   OH237354   2.320   4.431   7.827  0.5169  0.2579  0.2605
 5240TIP3    H137355   2.271   4.507   7.796  1.1416 -0.1271 -1.8623
 5240TIP3    H237356   2.364   4.398   7.749  0.6770 -1.9913  1.2321
 5241TIP3   OH237357   6.384   3.713   2.663 -0.1035 -0.0121 -0.6967
 5241TIP3    H137358   6.461   3.658   2.680 -1.7189 -2.4635 -0.6669
 5241TIP3    H237359   6.317   3.651   2.633 -1.9384  2.0716 -1.1728
 5242TIP3   OH237360   4.032   4.077   0.623  0.2472 -0.1037 -0.4625
 5242TIP3    H137361   3.940   4.104   0.617 -0.2680 -1.3712  0.8465
 5242TIP3    H237362   4.064   4.117   0.703 -0.3452 -2.6225  1.1577
 5243TIP3   OH237363   5.014   1.596   1.898  0.2237 -0.0398 -0.8258
 5243TIP3    H137364   4.942   1.555   1.947 -0.1326  1.2187 -0.2457
 5243TIP3    H237365   5.088   1.595   1.959 -0.2932  1.7664 -0.1032
 5244TIP3   OH237366   5.196   2.263   7.722  0.1935 -0.2500 -0.1308
 5244TIP3    H137367   5.240   2.348   7.717 -1.8499  0.8320 -0.9871
 5244TIP3    H237368   5.158   2.260   7.810 -1.7904  0.8873 -0.8814
 5245TIP3   OH237369   4.727   2.065   2.088  0.0161  0.4426  0.3305
 5245TIP3    H137370   4.770   2.029   2.165 -0.1864  0.7216  0.5732
 5245TIP3    H237371   4.732   2.160   2.099  0.2037  0.4902 -0.1186
 5246TIP3   OH237372   3.416   6.258   1.831  0.6460 -0.2708 -0.2885
 5246TIP3    H137373   3.453   6.222   1.912  0.8461 -1.1614 -0.7725
 5246TIP3    H237374   3.375   6.340   1.859  1.9897  0.1818  0.4704
 5247TIP3   OH237375   3.510   3.770   0.111 -0.3132  0.5816  0.0298
 5247TIP3    H137376   3.414   3.778   0.108 -0.3812 -0.1180  0.1299
 5247TIP3    H237377   3.526   3.694   0.167  0.3304  1.1514  0.6490
 5248TIP3   OH237378   1.374   3.402   0.244  0.0757 -0.1476 -0.1469
 5248TIP3    H137379   1.304   3.337   0.241  0.9610 -1.1332  0.0542
 5248TIP3    H237380   1.424   3.380   0.323 -0.2558  1.4864  0.5724
 5249TIP3   OH237381   6.434   2.657   7.215  0.2361  0.5252  0.4237
 5249TIP3    H137382   6.461   2.729   7.272  2.0492 -1.2480  1.9391
 5249TIP3    H237383   6.456   2.687   7.126  0.9825  1.8269  1.0243
 5250TIP3   OH237384   2.711   5.159   8.410  0.1368  0.3389 -0.1653
 5250TIP3    H137385   2.720   5.123   8.322 -2.8442  1.4460 -1.0392
 5250TIP3    H237386   2.718   5.083   8.468 -1.7789 -1.1070 -1.6830
 5251TIP3   OH237387   2.729   4.548   1.477 -0.1802  0.1520 -0.2755
 5251TIP3    H137388   2.691   4.467   1.511  0.0935 -0.2226 -0.8340
 5251TIP3    H237389   2.823   4.530   1.472 -0.0861  0.6032 -0.1433
 5252TIP3   OH237390   4.073   6.620   0.033 -0.6196 -0.4770 -0.1838
 5252TIP3    H137391   4.088   6.636  -0.060 -0.2684 -2.0642 -0.4252
 5252TIP3    H237392   4.000   6.558   0.035 -1.5037  0.5700  0.6606
 5253TIP3   OH237393   2.809   2.702   1.634 -0.4897 -0.2750  0.2826
 5253TIP3    H137394   2.831   2.681   1.725 -1.8157  0.4087  0.7847
 5253TIP3    H237395   2.718   2.674   1.624 -1.2670  2.1167  0.0018
 5254TIP3   OH237396   1.902   1.333   7.765 -0.4011  0.0832  0.1007
 5254TIP3    H137397   1.936   1.297   7.684 -0.4862 -0.7063  0.4071
 5254TIP3    H237398   1.948   1.416   7.776 -0.6862  0.3964 -0.9545
 5255TIP3   OH237399   4.870   6.976   1.702  0.2818 -0.2189 -0.5190
 5255TIP3    H137400   4.827   6.919   1.766 -1.2955 -0.6690 -1.9047
 5255TIP3    H237401   4.910   7.046   1.754 -1.6102 -0.1334  0.9026
 5256TIP3   OH237402   4.599   2.427   0.003 -0.0854  0.2563  0.3323
 5256TIP3    H137403   4.573   2.407  -0.087  2.2436 -1.5559 -0.0430
 5256TIP3    H237404   4.521   2.465   0.043 -1.4214  0.4097 -2.2237
 5257TIP3   OH237405   1.409   1.882   0.413  0.2108 -0.3227 -0.4698
 5257TIP3    H137406   1.488   1.934   0.400  0.1157 -0.0026  0.1627
 5257TIP3    H237407   1.441   1.794   0.434  0.4875  0.2090  1.6090
 5258TIP3   OH237408   6.061   1.949   7.360 -0.2194 -0.0243 -0.0131
 5258TIP3    H137409   6.125   1.878   7.371  1.2885  1.4708  1.3737
 5258TIP3    H237410   6.112   2.023   7.328 -1.1529  1.3475  1.5139
 5259TIP3   OH237411   3.451   5.127   1.299  0.1562  0.0942  0.5056
 5259TIP3    H137412   3.535   5.093   1.266 -1.3832 -3.7253  0.0621
 5259TIP3    H237413   3.413   5.171   1.223  0.4261 -0.9389 -0.2594
 5260TIP3   OH237414   5.155   3.168   1.693 -0.1697 -0.2595 -0.1155
 5260TIP3    H137415   5.234   3.221   1.683  1.5759 -2.4526  1.0245
 5260TIP3    H237416   5.118   3.162   1.604  2.8791 -1.8873 -1.4301
 5261TIP3   OH237417   0.769   0.623   7.019  0.2271  0.0267  0.4411
 5261TIP3    H137418   0.679   0.645   6.995  0.1280  0.5913  1.3027
 5261TIP3    H237419   0.823   0.689   6.974  0.1635  0.1020  0.4767
 5262TIP3   OH237420   4.667   0.648   1.495 -0.2327 -0.3754 -0.1518
 5262TIP3    H137421   4.674   0.564   1.449 -0.1778 -1.9872  2.5886
 5262TIP3    H237422   4.758   0.675   1.508 -0.2301 -0.3436 -0.2323
 5263TIP3   OH237423   2.909   0.832   0.211 -0.2924 -0.0141 -0.1881
 5263TIP3    H137424   3.003   0.850   0.213 -0.0964 -1.0375  0.6711
 5263TIP3    H237425   2.868   0.918   0.195  0.8147  0.2902 -1.4836
 5264TIP3   OH237426   6.146   1.969   2.343  0.2837 -0.2331  0.1361
 5264TIP3    H137427   6.067   1.975   2.290  0.5048 -0.0389 -0.1782
 5264TIP3    H237428   6.134   2.035   2.412 -0.4591 -1.1924  0.9511
 5265TIP3   OH237429   6.035   1.975   1.373  0.4464 -0.2072 -0.1689
 5265TIP3    H137430   5.945   1.962   1.344  0.2086  2.2981 -0.7454
 5265TIP3    H237431   6.089   1.948   1.299  0.2068 -1.5908  0.1304
 5266TIP3   OH237432   3.421   2.564   7.182  0.5257  0.0136 -0.1664
 5266TIP3    H137433   3.431   2.482   7.132 -0.5660 -0.5276  0.4735
 5266TIP3    H237434   3.450   2.632   7.121 -0.1110 -0.6967 -1.3130
 5267TIP3   OH237435   3.898   2.792   0.611  0.0967 -0.3894  1.0110
 5267TIP3    H137436   3.988   2.765   0.590  0.5199  0.2312  1.9770
 5267TIP3    H237437   3.907   2.881   0.645 -1.0325  0.1553 -0.0536
 5268TIP3   OH237438   2.277   1.954   1.589 -0.6927 -0.3346 -0.2874
 5268TIP3    H137439   2.204   2.007   1.619 -2.3027 -2.3433 -0.4031
 5268TIP3    H237440   2.266   1.949   1.494  0.4262  0.4602 -0.4774
 5269TIP3   OH237441   1.921   4.213   1.096  0.2638 -0.0388 -0.1151
 5269TIP3    H137442   1.906   4.272   1.023 -1.5514  2.0701  1.8138
 5269TIP3    H237443   2.012   4.228   1.123  0.9897 -0.9315 -1.9023
 5270TIP3   OH237444   5.291   0.092   0.993 -0.0415 -0.6841  0.0699
 5270TIP3    H137445   5.225   0.030   1.021 -0.5208  0.7150  2.2663
 5270TIP3    H237446   5.243   0.175   0.983  1.0119 -0.0989 -0.3116
 5271TIP3   OH237447   1.074   4.320   1.300  0.1073  0.0870 -0.2761
 5271TIP3    H137448   1.150   4.308   1.358 -0.0468 -2.4831 -0.4637
 5271TIP3    H237449   1.012   4.370   1.352  0.9716  0.0746  0.8109
 5272TIP3   OH237450   5.333   3.098   2.309 -0.0914 -0.8662 -0.0116
 5272TIP3    H137451   5.338   3.190   2.336 -3.2940 -0.8219  0.7938
 5272TIP3    H237452   5.316   3.050   2.390  0.1443 -2.0267 -0.6265
 5273TIP3   OH237453   6.831   2.127   7.291 -0.1382  0.1727  0.8407
 5273TIP3    H137454   6.837   2.221   7.277  0.0019  0.2325  1.2946
 5273TIP3    H237455   6.893   2.089   7.229 -0.1019  0.3861  0.7454
 5274TIP3   OH237456   6.286   1.012   2.565  0.0304 -0.2075 -0.1340
 5274TIP3    H137457   6.253   0.969   2.486  1.0723 -0.8758 -0.2126
 5274TIP3    H237458   6.326   1.093   2.534 -2.3324  1.1477  0.0568
 5275TIP3   OH237459   3.600   4.005   0.369 -0.5842  0.0723  0.3415
 5275TIP3    H137460   3.613   4.008   0.274 -1.4630 -2.2988  0.0788
 5275TIP3    H237461   3.521   3.953   0.381 -0.2552 -0.0583  2.4002
 5276TIP3   OH237462   6.240   2.550   0.838 -0.0538  0.2348 -0.4062
 5276TIP3    H137463   6.262   2.563   0.745 -1.4866 -1.6621 -1.0738
 5276TIP3    H237464   6.287   2.471   0.863  0.6941  0.9860  0.6686
 5277TIP3   OH237465   3.558   3.096   1.092 -1.2271 -0.3310 -0.4241
 5277TIP3    H137466   3.583   3.015   1.047  1.0163  0.2199 -0.2758
 5277TIP3    H237467   3.553   3.161   1.022  0.9922  0.2440 -0.1086
 5278TIP3   OH237468   5.185   2.186   0.962  0.5518  0.1791 -0.5564
 5278TIP3    H137469   5.153   2.157   1.047  1.2178 -0.1040 -0.3958
 5278TIP3    H237470   5.106   2.211   0.914  0.2267  0.9076  0.3427
 5279TIP3   OH237471   5.138   1.947   2.638  0.0138 -0.0695  0.1127
 5279TIP3    H137472   5.148   1.997   2.719  1.8725 -0.8417  0.4308
 5279TIP3    H237473   5.055   1.901   2.647 -0.4367  0.8936  0.9771
 5280TIP3   OH237474   2.499   5.454   7.558  0.4933 -0.1256 -0.3789
 5280TIP3    H137475   2.593   5.466   7.559  0.5220 -0.3307  0.5804
 5280TIP3    H237476   2.473   5.457   7.650 -0.4730  0.2032 -0.6454
 5281TIP3   OH237477   4.548   3.990   0.698 -0.6098 -0.6646  0.3647
 5281TIP3    H137478   4.522   3.937   0.623 -1.4414  1.1519 -0.7065
 5281TIP3    H237479   4.629   4.034   0.669 -0.1893 -0.9653  1.0507
 5282TIP3   OH237480   0.188   1.158   0.427 -0.1965  0.1941 -0.1324
 5282TIP3    H137481   0.144   1.145   0.511 -2.8026  0.1984 -1.4190
 5282TIP3    H237482   0.165   1.247   0.402 -0.9290 -0.4030 -1.6596
 5283TIP3   OH237483   2.197   4.428   8.289 -0.4014 -0.0011 -0.0694
 5283TIP3    H137484   2.225   4.338   8.273  2.8786  0.9869 -0.5692
 5283TIP3    H237485   2.272   4.469   8.331 -1.7482  2.5670 -0.0049
 5284TIP3   OH237486   4.952   4.040   1.473  0.2911  0.4332  0.2137
 5284TIP3    H137487   5.031   4.027   1.527 -0.2748 -1.9029  0.5873
 5284TIP3    H237488   4.880   4.042   1.535 -0.0480  1.9080 -0.1837
 5285TIP3   OH237489   2.496   3.493   2.154  0.3305 -0.0195 -0.3548
 5285TIP3    H137490   2.544   3.450   2.083 -0.2196 -1.4043  0.0831
 5285TIP3    H237491   2.423   3.537   2.110 -0.2013 -1.1445 -0.6424
 5286TIP3   OH237492   0.332   0.417   1.253 -0.3317 -0.0625 -0.4935
 5286TIP3    H137493   0.416   0.387   1.218 -1.9786 -2.1986 -3.0763
 5286TIP3    H237494   0.320   0.505   1.215  0.7792  0.3492  0.0748
 5287TIP3   OH237495   5.915   2.551   0.742 -0.0981 -0.1822  0.3719
 5287TIP3    H137496   5.947   2.594   0.662  1.1637  0.1744  1.0453
 5287TIP3    H237497   5.894   2.623   0.802  1.5220 -0.4537  1.3132
 5288TIP3   OH237498   1.097   5.032   1.471  0.8637 -0.3126 -0.6592
 5288TIP3    H137499   1.030   4.975   1.434  1.4464 -0.0020 -2.2701
 5288TIP3    H237500   1.140   4.979   1.539 -0.9957 -0.5012  0.4424
 5289TIP3   OH237501   1.052   5.273   0.262 -0.4739  0.0509 -0.4976
 5289TIP3    H137502   1.054   5.304   0.172 -1.1739 -2.6030 -1.5054
 5289TIP3    H237503   0.985   5.205   0.263 -0.4505 -0.0394  2.0389
 5290TIP3   OH237504   4.597   6.899   1.463  0.1212 -0.0974 -0.4709
 5290TIP3    H137505   4.517   6.864   1.502 -0.8386  1.4655 -0.9817
 5290TIP3    H237506   4.579   6.904   1.370  1.5704 -1.5886 -0.9013
 5291TIP3   OH237507   3.067   6.293   1.392 -0.5762  0.2182  0.8539
 5291TIP3    H137508   3.038   6.212   1.349  0.4057  1.3395 -2.2193
 5291TIP3    H237509   3.085   6.268   1.482 -2.4519 -2.4500  0.5942
 5292TIP3   OH237510   2.871   4.223   0.346 -0.4073 -0.6475 -0.3802
 5292TIP3    H137511   2.940   4.221   0.413 -0.6524  0.1964 -0.0858
 5292TIP3    H237512   2.789   4.221   0.396 -0.6105  1.5199 -0.5245
 5293TIP3   OH237513   2.294   5.925   0.949 -0.0139  0.2428 -0.1993
 5293TIP3    H137514   2.235   5.962   0.884 -1.6650 -2.4599 -0.3830
 5293TIP3    H237515   2.269   5.833   0.955  1.7039 -0.1672  2.5110
 5294TIP3   OH237516   4.356   1.134   7.276 -0.8272 -0.3544 -0.7894
 5294TIP3    H137517   4.266   1.103   7.272 -0.5949 -1.1810  0.0410
 5294TIP3    H237518   4.381   1.122   7.368 -0.1431  0.6466 -0.8303
 5295TIP3   OH237519   0.115   1.196   1.905  0.2239 -0.9091  0.0532
 5295TIP3    H137520   0.110   1.142   1.983 -1.4750  1.1243  1.4576
 5295TIP3    H237521   0.024   1.211   1.880  0.7136 -0.6736 -1.7509
 5296TIP3   OH237522   4.726   6.893   0.542  0.9714  0.2378 -0.3190
 5296TIP3    H137523   4.728   6.889   0.638  0.2112 -1.9121 -0.3417
 5296TIP3    H237524   4.698   6.982   0.522 -3.3246 -0.4373  1.5833
 5297TIP3   OH237525   5.112   1.473   8.101 -0.1245  0.0476 -0.0148
 5297TIP3    H137526   5.171   1.437   8.168  1.1817 -0.8302 -1.5368
 5297TIP3    H237527   5.140   1.564   8.091 -0.8627  0.4205  1.1634
 5298TIP3   OH237528   1.043   3.892   1.933 -0.5765 -0.0497 -0.1390
 5298TIP3    H137529   1.045   3.888   2.028 -1.6103  0.7745 -0.0677
 5298TIP3    H237530   1.025   3.802   1.905 -0.0586 -0.3310  0.4277
 5299TIP3   OH237531   3.448   0.100   0.472  0.4008  0.6322 -0.0009
 5299TIP3    H137532   3.465   0.163   0.542  1.1876  1.3252 -0.7891
 5299TIP3    H237533   3.469   0.015   0.511  2.9826  1.1840 -0.0060
 5300TIP3   OH237534   1.322   3.295   7.112 -0.1709 -0.0582  0.2278
 5300TIP3    H137535   1.397   3.272   7.167  0.0422 -0.5878 -0.2720
 5300TIP3    H237536   1.306   3.387   7.132  0.3191 -0.0637  0.6888
 5301TIP3   OH237537   0.859   0.970   7.626  0.3967 -0.4057  0.4267
 5301TIP3    H137538   0.849   0.949   7.719 -0.2979  0.0876  0.4723
 5301TIP3    H237539   0.891   1.060   7.625  0.3012 -0.3727  0.1929
 5302TIP3   OH237540   0.750   1.439   1.485  0.2728  0.3930  0.3689
 5302TIP3    H137541   0.784   1.358   1.448  0.1331  0.5383 -0.0828
 5302TIP3    H237542   0.791   1.445   1.572  0.9259  0.2595  0.0757
 5303TIP3   OH237543   6.103   6.784   7.848 -0.1744 -0.1516  0.1791
 5303TIP3    H137544   6.137   6.834   7.922  0.7267 -0.3338 -0.1051
 5303TIP3    H237545   6.010   6.770   7.870 -0.6061  2.0611  0.0308
 5304TIP3   OH237546   5.980   0.210   7.688  0.1347 -0.1390  0.2448
 5304TIP3    H137547   5.904   0.156   7.666 -0.6953  1.3691 -0.7534
 5304TIP3    H237548   6.013   0.173   7.769 -0.7024 -1.8147 -0.1339
 5305TIP3   OH237549   0.659   6.968   2.022 -0.4714  0.0745 -0.5279
 5305TIP3    H137550   0.716   6.982   2.097 -0.2885  1.0053 -0.8290
 5305TIP3    H237551   0.607   6.891   2.045  0.0081 -0.0115  0.2908
 5306TIP3   OH237552   3.981   2.577   2.372 -0.4264  0.4345 -0.0631
 5306TIP3    H137553   3.988   2.586   2.467  1.1477  0.1456 -0.1134
 5306TIP3    H237554   4.010   2.661   2.337  1.2206 -0.1785 -0.2900
 5307TIP3   OH237555   1.593   6.336   7.970  0.0858  0.5739  0.1108
 5307TIP3    H137556   1.651   6.336   7.894  0.0764  1.3051  0.0940
 5307TIP3    H237557   1.582   6.243   7.992  1.5918  0.4379  0.3664
 5308TIP3   OH237558   6.219   5.350   1.964  0.5202  0.1241 -0.5315
 5308TIP3    H137559   6.139   5.390   1.997 -0.1700 -0.9819 -0.8157
 5308TIP3    H237560   6.259   5.309   2.041  1.3722  1.5342 -0.1838
 5309TIP3   OH237561   6.188   6.966   7.614 -0.0870 -0.3958  0.0158
 5309TIP3    H137562   6.140   6.913   7.678 -0.6806 -0.5701 -0.5572
 5309TIP3    H237563   6.255   6.908   7.580 -1.9129 -1.4733 -1.9927
 5310TIP3   OH237564   4.488   4.580   7.290 -0.3009  0.1501  0.5494
 5310TIP3    H137565   4.502   4.487   7.308 -0.3531  0.1645  0.6664
 5310TIP3    H237566   4.572   4.622   7.310 -0.5575  0.2612  1.4148
 5311TIP3   OH237567   6.590   1.456   7.752  0.1288 -0.1127  0.4167
 5311TIP3    H137568   6.683   1.465   7.730 -0.1901 -1.9628 -2.1353
 5311TIP3    H237569   6.556   1.394   7.688 -2.7497 -0.0473  1.7227
 5312TIP3   OH237570   5.357   4.062   2.170 -0.2163  0.0510 -0.3859
 5312TIP3    H137571   5.434   4.014   2.139  1.1566  1.6170  0.4310
 5312TIP3    H237572   5.339   4.026   2.256  0.3212  0.4253 -0.1078
 5313TIP3   OH237573   4.298   6.809   7.459  0.2599  0.2286 -0.2577
 5313TIP3    H137574   4.320   6.716   7.463 -0.0697  0.1045  4.2170
 5313TIP3    H237575   4.213   6.811   7.414 -1.9187 -2.3989  3.1293
 5314TIP3   OH237576   0.669   6.349   0.488  0.7815  0.9963 -0.3929
 5314TIP3    H137577   0.690   6.363   0.396  0.9948 -0.6713 -0.6372
 5314TIP3    H237578   0.579   6.316   0.487  0.9578  0.4908 -0.0606
 5315TIP3   OH237579   3.851   2.986   6.351 -0.1759  0.2963 -0.6573
 5315TIP3    H137580   3.939   2.953   6.333  0.1274  0.3959  0.5852
 5315TIP3    H237581   3.794   2.934   6.294  0.3022 -2.2197  0.9983
 5316TIP3   OH237582   5.420   2.933   0.482 -0.0243  0.0452  0.1948
 5316TIP3    H137583   5.363   3.010   0.485  0.5691  0.4689  0.7625
 5316TIP3    H237584   5.447   2.920   0.572  0.6740 -0.2316 -0.0536
 5317TIP3   OH237585   6.497   1.479   6.669  0.0294 -0.1709  0.3890
 5317TIP3    H137586   6.517   1.386   6.679 -0.1152 -0.4867 -1.7582
 5317TIP3    H237587   6.407   1.481   6.636  0.5909  0.6143 -1.1831
 5318TIP3   OH237588   2.679   0.276   1.199 -0.0318  0.1327 -0.3522
 5318TIP3    H137589   2.654   0.305   1.112  0.0457 -2.3980 -1.2955
 5318TIP3    H237590   2.599   0.237   1.235  0.6201 -1.2936 -0.4049
 5319TIP3   OH237591   6.780   1.379   2.091  0.3956  0.4858 -0.5980
 5319TIP3    H137592   6.734   1.428   2.023 -0.2096 -0.2447 -0.7272
 5319TIP3    H237593   6.769   1.432   2.170 -0.5877  0.3742 -0.6500
 5320TIP3   OH237594   1.793   0.210   1.177 -0.5431 -0.0138  0.2307
 5320TIP3    H137595   1.793   0.290   1.125 -0.5951 -0.5362 -0.5921
 5320TIP3    H237596   1.881   0.173   1.165 -0.4816 -0.0243  0.6951
 5321TIP3   OH237597   3.776   3.740   6.945 -0.8700 -0.0402 -0.5837
 5321TIP3    H137598   3.750   3.650   6.925  0.1652  0.1058 -2.8728
 5321TIP3    H237599   3.746   3.792   6.870  0.7250  1.0872 -0.4987
 5322TIP3   OH237600   5.529   6.252   0.934 -0.6418  0.3282 -0.5360
 5322TIP3    H137601   5.546   6.338   0.972 -2.0917  1.1610 -1.6804
 5322TIP3    H237602   5.457   6.217   0.986  0.0422 -0.2893  0.0210
 5323TIP3   OH237603   0.135   4.337   1.330 -0.8812 -0.7808  0.3298
 5323TIP3    H137604   0.218   4.292   1.345  1.1918  2.2753 -0.9988
 5323TIP3    H237605   0.101   4.356   1.418  1.8270  1.1462  1.0861
 5324TIP3   OH237606   3.887   1.531   7.022  0.7127 -0.1337  0.1269
 5324TIP3    H137607   3.903   1.526   6.928 -0.2135  2.4094 -0.2469
 5324TIP3    H237608   3.813   1.592   7.030  0.6918 -0.3974  2.5031
 5325TIP3   OH237609   6.604   2.151   1.914  0.0052  0.1516  0.4042
 5325TIP3    H137610   6.628   2.203   1.837  0.2967 -0.7186 -0.0975
 5325TIP3    H237611   6.522   2.109   1.890 -0.8281  1.2447  1.2376
 5326TIP3   OH237612   3.785   2.335   1.993 -0.2518 -0.0255  0.8163
 5326TIP3    H137613   3.725   2.356   2.064 -0.9920  1.5749 -0.2133
 5326TIP3    H237614   3.841   2.413   1.985 -0.5078  0.0487 -0.6379
 5327TIP3   OH237615   5.880   2.049   8.114 -0.0091  0.2984 -0.2657
 5327TIP3    H137616   5.890   1.959   8.083 -0.6312  0.2466 -0.3260
 5327TIP3    H237617   5.903   2.046   8.206  2.9619  0.6524 -0.8836
 5328TIP3   OH237618   2.192   2.607   7.302 -0.4312 -0.0851 -0.5034
 5328TIP3    H137619   2.162   2.522   7.270  0.3667 -0.2789 -0.7596
 5328TIP3    H237620   2.137   2.624   7.378 -0.2255 -1.0915 -0.1090
 5329TIP3   OH237621   0.273   6.702   8.026 -0.1862  0.6397 -0.1380
 5329TIP3    H137622   0.254   6.723   8.117  1.7748  0.4255  0.3497
 5329TIP3    H237623   0.321   6.620   8.029 -2.9712 -1.2098 -1.6392
 5330TIP3   OH237624   5.100   1.637   7.084  0.1920 -0.1912  0.6549
 5330TIP3    H137625   5.055   1.708   7.039  0.8834  0.0807  0.3740
 5330TIP3    H237626   5.101   1.662   7.176 -0.6105 -0.4131  0.7300
 5331TIP3   OH237627   2.875   3.145   1.940  0.0816 -0.3511 -0.4757
 5331TIP3    H137628   2.877   3.133   2.034  0.9072 -0.8342 -0.5406
 5331TIP3    H237629   2.967   3.141   1.913 -0.1935 -1.1379 -1.4027
 5332TIP3   OH237630   4.645   1.895   0.168  0.5559  0.4707 -0.3758
 5332TIP3    H137631   4.651   1.990   0.175 -0.0525  0.5977 -1.3821
 5332TIP3    H237632   4.735   1.864   0.175  0.6346  0.9929  1.3753
 5333TIP3   OH237633   0.769   2.167   2.291  0.1275  0.7263  0.1827
 5333TIP3    H137634   0.703   2.099   2.289  1.2115 -0.3864  0.7901
 5333TIP3    H237635   0.723   2.245   2.320 -0.8008 -0.1653  1.1658
 5334TIP3   OH237636   1.149   3.966   0.709  0.0320  0.2216  0.5351
 5334TIP3    H137637   1.117   3.933   0.793 -3.0220  2.2126  0.3337
 5334TIP3    H237638   1.210   4.036   0.732  1.5727 -1.2172  0.9935
 5335TIP3   OH237639   2.665   1.800   8.019 -0.3628 -0.1150  0.5626
 5335TIP3    H137640   2.679   1.753   8.101 -0.8558  1.0895  1.3721
 5335TIP3    H237641   2.692   1.890   8.038 -0.8137  0.2663 -0.5023
 5336TIP3   OH237642   0.612   3.888   0.392 -0.3794 -0.4101 -0.2321
 5336TIP3    H137643   0.595   3.949   0.464 -1.5468 -0.7401 -0.2150
 5336TIP3    H237644   0.704   3.865   0.403  0.1854  1.5360 -0.3910
 5337TIP3   OH237645   0.318   4.884   7.760 -0.3636  0.1564  0.3125
 5337TIP3    H137646   0.306   4.868   7.666 -1.2777  0.0023  0.4457
 5337TIP3    H237647   0.411   4.867   7.775 -0.3591 -0.5650 -0.4250
 5338TIP3   OH237648   2.084   5.210   6.863  0.3861 -0.7511  0.5983
 5338TIP3    H137649   2.101   5.134   6.809  0.8928 -0.2035 -0.0330
 5338TIP3    H237650   2.148   5.204   6.934  0.9449 -0.5144  0.1236
 5339TIP3   OH237651   4.621   5.906   2.572  0.1168 -0.0934  0.2674
 5339TIP3    H137652   4.630   5.827   2.625 -1.2576  0.2188  1.0158
 5339TIP3    H237653   4.711   5.932   2.553  0.6817 -0.2368  2.4359
 5340TIP3   OH237654   0.908   4.964   6.841 -0.1526  0.8666 -0.1029
 5340TIP3    H137655   0.932   4.873   6.857 -1.8019  0.6546  1.6596
 5340TIP3    H237656   0.881   4.967   6.749  1.6086  0.0207 -0.6757
 5341TIP3   OH237657   2.563   3.709   6.590  1.0079  0.6645  0.3561
 5341TIP3    H137658   2.542   3.672   6.504  3.9388  1.8043 -0.9741
 5341TIP3    H237659   2.594   3.633   6.641 -1.0516 -0.0736  0.6001
 5342TIP3   OH237660   5.969   5.370   8.242  0.0387 -0.2330 -0.0684
 5342TIP3    H137661   5.936   5.450   8.282  0.6194 -0.7110  1.4459
 5342TIP3    H237662   6.032   5.399   8.177  0.9991  0.5328  1.1776
 5343TIP3   OH237663   1.349   4.247   0.781  0.6281  0.5975 -0.1201
 5343TIP3    H137664   1.408   4.271   0.852  1.1164 -1.5158  0.2565
 5343TIP3    H237665   1.396   4.270   0.701  0.5628  1.9219  0.2096
 5344TIP3   OH237666   2.813   3.026   0.164  0.3826 -0.4003  0.9311
 5344TIP3    H137667   2.874   3.021   0.237  0.9874 -0.5952  0.4181
 5344TIP3    H237668   2.810   2.937   0.129  1.8364  0.1152 -0.6631
 5345TIP3   OH237669   6.488   6.149   7.597 -0.3887 -0.6483  0.0618
 5345TIP3    H137670   6.407   6.099   7.591 -1.0569  0.4356 -0.4144
 5345TIP3    H237671   6.459   6.241   7.597  0.9169 -0.1723 -2.0977
 5346TIP3   OH237672   0.201   1.744   7.496 -0.1291 -0.7599 -0.6666
 5346TIP3    H137673   0.213   1.664   7.445 -1.0630 -1.9982  0.9582
 5346TIP3    H237674   0.167   1.714   7.581 -1.8213  1.4514 -0.4576
 5347TIP3   OH237675   5.368   1.756   1.476  0.6428  0.5316 -0.4888
 5347TIP3    H137676   5.303   1.801   1.423 -0.7437  0.7550  1.3059
 5347TIP3    H237677   5.326   1.744   1.561  1.6654 -2.4676 -0.2996
 5348TIP3   OH237678   3.977   6.341   0.440 -0.0213  0.2776  0.0468
 5348TIP3    H137679   4.009   6.429   0.419  0.3557  0.6961  2.1938
 5348TIP3    H237680   3.983   6.294   0.357 -1.7991  2.6949 -1.6228
 5349TIP3   OH237681   6.499   1.225   7.606 -0.1725  0.2696  0.3625
 5349TIP3    H137682   6.576   1.183   7.644  0.5490  0.1990 -1.1149
 5349TIP3    H237683   6.426   1.170   7.636  0.5230 -0.7043  0.3512
 5350TIP3   OH237684   0.140   2.317   1.750  0.4767 -0.2470 -1.2375
 5350TIP3    H137685   0.058   2.288   1.790  1.2396 -2.1665 -0.9497
 5350TIP3    H237686   0.118   2.399   1.706 -1.2976 -0.0997 -0.1609
 5351TIP3   OH237687   1.979   2.541   1.561  0.5000  0.2722  0.4545
 5351TIP3    H137688   2.055   2.597   1.549  0.2832  0.7677  1.3121
 5351TIP3    H237689   1.932   2.546   1.478  1.1672  0.3042  0.0703
 5352TIP3   OH237690   2.961   3.246   2.544 -0.0037 -0.4557  0.7655
 5352TIP3    H137691   2.924   3.250   2.456  0.7375 -1.2835  0.4074
 5352TIP3    H237692   3.030   3.313   2.543  0.5687 -1.0423  0.4392
 5353TIP3   OH237693   1.871   2.525   0.520 -0.4829 -0.6296 -0.0808
 5353TIP3    H137694   1.892   2.439   0.558  2.5034  0.5606  1.2137
 5353TIP3    H237695   1.906   2.521   0.431 -1.9317 -1.2824 -0.6607
 5354TIP3   OH237696   4.996   4.251   0.527 -0.4821 -0.3365  0.4106
 5354TIP3    H137697   5.003   4.344   0.502 -0.6264 -0.4109  0.0848
 5354TIP3    H237698   4.950   4.211   0.454 -2.0679 -0.3253  1.3571
 5355TIP3   OH237699   4.441   1.075   2.248 -0.1531 -0.2517 -0.2895
 5355TIP3    H137700   4.395   1.092   2.331 -0.8196 -2.1352 -0.2279
 5355TIP3    H237701   4.521   1.029   2.274  1.0394  1.5799 -0.5268
 5356TIP3   OH237702   4.736   6.329   7.870  0.6593 -0.0418 -0.6349
 5356TIP3    H137703   4.745   6.290   7.957 -0.8557 -0.0306 -0.4439
 5356TIP3    H237704   4.752   6.256   7.810  2.4504  0.1135 -0.3939
 5357TIP3   OH237705   1.320   6.610   7.265 -0.1658 -0.0158 -0.5457
 5357TIP3    H137706   1.311   6.515   7.253 -1.9810  0.1914 -1.0542
 5357TIP3    H237707   1.375   6.637   7.191 -0.8989 -0.4789 -1.2823
 5358TIP3   OH237708   1.901   1.765   2.482  0.6165 -0.6351 -0.6029
 5358TIP3    H137709   1.945   1.733   2.561 -0.5625 -1.5333 -0.2965
 5358TIP3    H237710   1.912   1.860   2.487 -0.3832 -0.5638  1.2537
 5359TIP3   OH237711   4.376   5.846   0.350 -0.1833  0.9937 -0.4347
 5359TIP3    H137712   4.344   5.842   0.441  1.2090 -0.1873  0.0412
 5359TIP3    H237713   4.309   5.896   0.304 -2.0046 -0.1777  0.7900
 5360TIP3   OH237714   2.051   6.370   2.166  0.0555 -0.3351  0.3512
 5360TIP3    H137715   2.088   6.401   2.249  0.2260 -0.7032  0.4149
 5360TIP3    H237716   2.033   6.450   2.117 -1.5799 -0.0187  1.3902
 5361TIP3   OH237717   0.716   2.297   6.022  0.1687  0.0866  0.1191
 5361TIP3    H137718   0.786   2.233   6.011  0.2759  0.0611  0.9154
 5361TIP3    H237719   0.636   2.251   5.994  0.4123 -0.0038 -0.4368
 5362TIP3   OH237720   6.114   3.681   8.131 -0.8117  0.2754 -0.5784
 5362TIP3    H137721   6.065   3.616   8.081  1.5357 -0.9410 -1.4779
 5362TIP3    H237722   6.099   3.764   8.085 -2.3709  0.0453 -0.5146
 5363TIP3   OH237723   4.765   3.151   2.071  0.4323 -0.3190 -0.4987
 5363TIP3    H137724   4.755   3.243   2.047 -1.5071 -0.4248 -0.2686
 5363TIP3    H237725   4.803   3.152   2.158 -1.2551  0.3591  0.2727
 5364TIP3   OH237726   3.534   1.323   2.495  0.2745  0.2328 -0.2705
 5364TIP3    H137727   3.445   1.288   2.483 -0.0391  0.2681  1.6575
 5364TIP3    H237728   3.589   1.266   2.442 -0.7405 -0.5942 -0.4768
 5365TIP3   OH237729   1.671   0.165   6.814  0.2855 -0.5080  0.0932
 5365TIP3    H137730   1.705   0.130   6.896 -0.1234  0.9593  0.9328
 5365TIP3    H237731   1.577   0.178   6.830  0.4208  0.9680 -0.1488
 5366TIP3   OH237732   0.593   3.383   0.555  0.3988  0.5875  0.0771
 5366TIP3    H137733   0.577   3.412   0.645 -1.6527 -0.5169  0.1240
 5366TIP3    H237734   0.674   3.428   0.530  0.1664  2.1820  1.9021
 5367TIP3   OH237735   6.878   0.022   7.394  0.4402 -0.3299 -0.4180
 5367TIP3    H137736   6.807  -0.014   7.341  0.0744 -0.9801  0.4984
 5367TIP3    H237737   6.950  -0.040   7.383  0.9073  0.3555 -1.3889
 5368TIP3   OH237738   2.706   6.121   7.639  0.1042 -0.4516 -0.5622
 5368TIP3    H137739   2.767   6.048   7.641 -0.0403 -0.5748  1.2227
 5368TIP3    H237740   2.640   6.098   7.705 -0.6942  0.6554 -0.9497
 5369TIP3   OH237741   5.279   3.200   0.317 -0.0103 -0.0914 -0.0488
 5369TIP3    H137742   5.197   3.204   0.267 -0.0117 -2.6530 -0.3923
 5369TIP3    H237743   5.337   3.147   0.263  0.7400 -1.0933  1.6786
 5370TIP3   OH237744   2.622   5.726   0.787 -0.4055  0.1925 -0.5714
 5370TIP3    H137745   2.592   5.814   0.808 -0.4628  0.4358 -1.6461
 5370TIP3    H237746   2.711   5.722   0.824 -1.5920 -0.4926  2.5213
 5371TIP3   OH237747   4.445   2.851   0.770 -0.3384  0.0656  0.0741
 5371TIP3    H137748   4.535   2.822   0.784 -1.0977 -2.4780  0.1511
 5371TIP3    H237749   4.404   2.845   0.857 -0.8062  0.3043 -0.1284
 5372TIP3   OH237750   2.071   2.679   8.279  0.0879  0.6323  0.2819
 5372TIP3    H137751   2.130   2.665   8.205 -0.9216 -0.5306 -0.3347
 5372TIP3    H237752   2.061   2.774   8.284  2.0281  0.8795  0.4502
 5373TIP3   OH237753   3.898   5.446   1.391 -0.7199  0.1294  0.0591
 5373TIP3    H137754   3.820   5.432   1.339 -1.3317 -0.9147  1.1914
 5373TIP3    H237755   3.931   5.531   1.363 -1.7518  0.1844 -1.0646
 5374TIP3   OH237756   0.321   1.974   1.082  0.1835 -0.5134 -0.5186
 5374TIP3    H137757   0.372   2.012   1.153  0.4463  1.2332 -1.6005
 5374TIP3    H237758   0.327   1.879   1.097  3.7045 -0.4288 -0.5638
 5375TIP3   OH237759   4.309   0.581   7.501 -0.1026  0.0123  0.0525
 5375TIP3    H137760   4.341   0.669   7.484 -0.0998 -0.0073 -0.0407
 5375TIP3    H237761   4.370   0.546   7.567  1.3947 -0.8151 -1.6946
 5376TIP3   OH237762   2.966   1.257   0.336  0.8749  0.0693 -0.2703
 5376TIP3    H137763   2.911   1.200   0.389 -2.9626  3.7233  0.1442
 5376TIP3    H237764   2.941   1.237   0.246 -1.1127  1.5019 -0.0942
 5377TIP3   OH237765   3.894   3.350   0.905  0.1130 -0.0167  0.4207
 5377TIP3    H137766   3.914   3.403   0.982  0.4507  1.5522 -0.6876
 5377TIP3    H237767   3.952   3.384   0.837  0.7478 -2.2155 -0.2259
 5378TIP3   OH237768   5.663   4.959   1.344  0.1128 -0.1418  0.1052
 5378TIP3    H137769   5.619   4.923   1.421  0.9642 -0.6684  0.3613
 5378TIP3    H237770   5.741   5.003   1.379  0.2965 -0.0339 -0.4208
 5379TIP3   OH237771   0.991   5.670   7.659  0.3335 -0.1886  0.0375
 5379TIP3    H137772   0.983   5.753   7.705  0.5405  0.3902 -0.9525
 5379TIP3    H237773   1.078   5.672   7.620  0.0862 -0.5825 -0.5470
 5380TIP3   OH237774   3.791   1.903   1.842  0.0230 -0.1992 -0.2172
 5380TIP3    H137775   3.704   1.943   1.849  0.4327  0.4987  1.3809
 5380TIP3    H237776   3.819   1.924   1.753 -0.3966  1.8397  0.0751
 5381TIP3   OH237777   6.178   2.039   0.618 -0.2505 -0.0070 -0.1826
 5381TIP3    H137778   6.220   2.118   0.586 -0.3878  0.4460  0.7147
 5381TIP3    H237779   6.226   1.967   0.576 -0.6363  0.5415 -1.6355
 5382TIP3   OH237780   0.186   5.811   0.524  0.2469 -0.5257 -0.0981
 5382TIP3    H137781   0.182   5.902   0.497 -0.5879 -0.3578  0.5415
 5382TIP3    H237782   0.138   5.763   0.457  1.0416 -0.5567 -0.6530
 5383TIP3   OH237783   4.377   6.143   0.949 -0.0231  0.1070 -0.1085
 5383TIP3    H137784   4.349   6.234   0.961 -0.0963  0.2182 -0.9934
 5383TIP3    H237785   4.297   6.097   0.925 -0.1272 -0.3567  1.0721
 5384TIP3   OH237786   2.750   0.428   8.292 -0.1666  0.2380  0.0858
 5384TIP3    H137787   2.676   0.450   8.348 -0.2944  0.9499 -0.3448
 5384TIP3    H237788   2.712   0.420   8.204  0.0005 -1.0229  0.1017
 5385TIP3   OH237789   0.327   2.243   0.285 -0.2536 -0.3633  0.0707
 5385TIP3    H137790   0.320   2.190   0.206 -0.3132 -0.8460  0.3992
 5385TIP3    H237791   0.395   2.200   0.338  2.5989  2.0121 -1.3311
 5386TIP3   OH237792   4.881   3.407   1.825  0.0474 -0.1266 -0.5065
 5386TIP3    H137793   4.905   3.463   1.751  1.4247 -0.7319 -0.5514
 5386TIP3    H237794   4.791   3.433   1.846  1.2982  3.7388  0.9699
 5387TIP3   OH237795   5.539   3.705   7.475 -0.3159  0.0926  0.3513
 5387TIP3    H137796   5.571   3.618   7.449 -1.6815 -0.2550 -0.2281
 5387TIP3    H237797   5.532   3.700   7.570 -2.5540 -1.2447  0.1753
 5388TIP3   OH237798   4.717   0.845   6.258 -0.1062 -0.4531 -0.0370
 5388TIP3    H137799   4.762   0.777   6.209  2.5723  0.7699  0.5481
 5388TIP3    H237800   4.737   0.926   6.211  0.0064  0.3844  1.4065
 5389TIP3   OH237801   1.977   0.764   7.710 -0.1143 -0.1973 -0.4289
 5389TIP3    H137802   1.917   0.690   7.711  0.8034 -0.9850 -1.4125
 5389TIP3    H237803   1.938   0.825   7.647  0.1655 -0.7669 -1.1688
 5390TIP3   OH237804   1.947   2.527   8.003  0.4130  0.0594  0.0931
 5390TIP3    H137805   1.946   2.593   7.934  3.0295 -0.1092 -0.2151
 5390TIP3    H237806   1.992   2.569   8.076 -2.4305  0.2779  1.8626
 5391TIP3   OH237807   1.623   2.817   0.876  0.0331  0.3537 -0.2013
 5391TIP3    H137808   1.652   2.795   0.787  0.1891 -1.3681  0.2282
 5391TIP3    H237809   1.662   2.902   0.895  0.3716  0.5317 -1.6014
 5392TIP3   OH237810   4.056   6.224   0.193  0.4305  0.2462  0.1194
 5392TIP3    H137811   3.985   6.174   0.152  1.7138 -0.5309 -1.2800
 5392TIP3    H237812   4.115   6.245   0.120  1.7124  0.7304  1.2508
 5393TIP3   OH237813   1.677   2.089   1.232 -0.5306  0.0839 -0.4737
 5393TIP3    H137814   1.666   2.003   1.273 -1.5068  0.9993  1.2907
 5393TIP3    H237815   1.708   2.146   1.303  0.2616  1.1697 -1.6486
 5394TIP3   OH237816   4.271   5.599   7.121 -0.0574 -0.2947 -0.2377
 5394TIP3    H137817   4.305   5.681   7.156 -0.0166 -1.3638  2.5136
 5394TIP3    H237818   4.333   5.574   7.053 -0.0744  1.8878 -1.1507
 5395TIP3   OH237819   4.238   2.270   7.142 -0.1247 -0.1073  0.3888
 5395TIP3    H137820   4.181   2.200   7.171 -0.7142 -0.7878 -2.1996
 5395TIP3    H237821   4.275   2.239   7.059  1.7658  1.5122  0.5345
 5396TIP3   OH237822   0.411   1.811   1.422  0.3757 -0.2197 -0.0184
 5396TIP3    H137823   0.504   1.791   1.430  0.4649 -0.0785 -0.6436
 5396TIP3    H237824   0.369   1.728   1.401  0.0269 -0.7659  2.5365
 5397TIP3   OH237825   1.461   1.271   1.746 -0.7482  0.2472  0.6561
 5397TIP3    H137826   1.489   1.325   1.820  0.5967 -0.1512  0.4614
 5397TIP3    H237827   1.476   1.181   1.775  1.2748  0.1165 -0.6327
 5398TIP3   OH237828   4.176   5.674   0.124 -0.3554 -0.4738 -0.2307
 5398TIP3    H137829   4.105   5.713   0.175  0.3476 -0.2406  0.5947
 5398TIP3    H237830   4.201   5.743   0.062 -1.3650 -0.8402 -1.0663
 5399TIP3   OH237831   6.689   6.351   7.105  0.0671 -0.1278  0.5598
 5399TIP3    H137832   6.737   6.395   7.175  0.9931  0.9883 -0.7141
 5399TIP3    H237833   6.745   6.279   7.078 -0.6187 -1.0114  1.4115
 5400TIP3   OH237834   3.784   5.357   6.568  0.2970  0.1288  0.0113
 5400TIP3    H137835   3.827   5.437   6.598  0.4222 -0.1889  0.7089
 5400TIP3    H237836   3.691   5.378   6.569  0.2989  0.1438  0.6167
 5401TIP3   OH237837   2.066   2.647   0.723 -0.7345 -0.4458 -0.3664
 5401TIP3    H137838   2.044   2.677   0.811  0.2360 -0.3777 -0.1362
 5401TIP3    H237839   2.017   2.566   0.713  1.7983 -2.4288  1.6407
 5402TIP3   OH237840   1.611   3.377   7.691 -0.4425 -0.2074 -0.1587
 5402TIP3    H137841   1.604   3.471   7.708 -2.1134 -0.1273 -1.0918
 5402TIP3    H237842   1.597   3.368   7.597 -0.7336 -1.4283 -0.0160
 5403TIP3   OH237843   2.722   6.524   1.398  0.1786 -0.1808 -0.1027
 5403TIP3    H137844   2.809   6.549   1.429  0.7075 -0.4870 -1.2431
 5403TIP3    H237845   2.709   6.577   1.319 -0.0197 -1.1882 -0.7724
 5404TIP3   OH237846   0.812   2.161   1.667  0.1045 -0.3196  0.3874
 5404TIP3    H137847   0.831   2.081   1.619  1.4389 -1.5001  2.7026
 5404TIP3    H237848   0.766   2.132   1.746  0.2990  1.2054  1.1064
 5405TIP3   OH237849   5.662   2.380   0.985  0.5502  0.0104  0.3111
 5405TIP3    H137850   5.609   2.305   1.014 -0.6906  1.1116  1.0322
 5405TIP3    H237851   5.644   2.388   0.891  1.1827 -0.9597  0.0996
 5406TIP3   OH237852   6.934   4.781   6.616 -0.0926  0.1403 -0.1376
 5406TIP3    H137853   6.970   4.738   6.693 -0.6391  1.8373  1.1292
 5406TIP3    H237854   7.007   4.787   6.555  1.1447  1.3157  1.3901
 5407TIP3   OH237855   2.229   2.458   6.704  0.2927  0.2985  0.3751
 5407TIP3    H137856   2.250   2.473   6.796 -1.0201 -1.1950  0.9664
 5407TIP3    H237857   2.148   2.507   6.689  0.3867  0.3630  0.0612
 5408TIP3   OH237858   0.851   3.614   6.747  0.2427  0.0384  0.3861
 5408TIP3    H137859   0.866   3.708   6.743 -2.3589  0.5331  0.2148
 5408TIP3    H237860   0.767   3.601   6.702  1.2309 -2.5738 -0.9273
 5409TIP3   OH237861   2.047   0.486   1.166  0.0899 -0.0646  0.1607
 5409TIP3    H137862   2.047   0.404   1.215 -0.4306  0.5092  1.1565
 5409TIP3    H237863   2.089   0.465   1.083 -0.6914 -1.5115  0.1058
 5410TIP3   OH237864   2.748   2.013   1.761  0.1271  0.3163  0.8361
 5410TIP3    H137865   2.836   2.030   1.728 -0.9643  2.6941 -1.1152
 5410TIP3    H237866   2.731   1.921   1.738  1.0743  0.6378 -1.3755
 5411TIP3   OH237867   0.764   3.904   1.868 -0.2932  0.3948  0.3441
 5411TIP3    H137868   0.857   3.881   1.878 -0.5875 -0.5268  1.0943
 5411TIP3    H237869   0.719   3.847   1.930 -1.4306  0.4029 -0.4571
 5412TIP3   OH237870   6.556   2.488   0.294  0.1036 -0.0157  0.0809
 5412TIP3    H137871   6.603   2.423   0.242  1.4622  0.8245  0.2070
 5412TIP3    H237872   6.554   2.451   0.382  1.1409  0.2244  0.2191
 5413TIP3   OH237873   0.697   3.477   0.257  0.3605  0.1608  0.0206
 5413TIP3    H137874   0.773   3.520   0.218  0.0752  0.5656 -0.0985
 5413TIP3    H237875   0.649   3.439   0.184  0.0205  0.6048  0.0076
 5414TIP3   OH237876   3.474   0.517   0.965  0.2509 -0.1251  0.6529
 5414TIP3    H137877   3.462   0.528   1.060 -1.2039 -1.3317  0.6575
 5414TIP3    H237878   3.507   0.428   0.955  1.2557  0.3005  0.0555
 5415TIP3   OH237879   6.311   5.174   0.275 -0.1555 -0.2978  0.0787
 5415TIP3    H137880   6.303   5.089   0.318 -0.5672 -0.6233 -0.6247
 5415TIP3    H237881   6.386   5.164   0.217  0.5848  0.2366  0.9126
 5416TIP3   OH237882   6.061   5.139   8.088  0.5432 -0.3073  0.2980
 5416TIP3    H137883   6.131   5.195   8.120  1.3186  0.5784 -2.6324
 5416TIP3    H237884   5.984   5.196   8.084  1.1385  0.4627 -1.9090
 5417TIP3   OH237885   2.444   2.246   7.667  0.0844  0.1627  0.2444
 5417TIP3    H137886   2.449   2.318   7.604  2.0319 -0.3538 -0.2489
 5417TIP3    H237887   2.535   2.215   7.676 -0.6017 -1.8018  0.9527
 5418TIP3   OH237888   3.597   5.394   1.370  0.1358 -0.0021  0.2349
 5418TIP3    H137889   3.526   5.387   1.433  0.2068  2.7329  0.7326
 5418TIP3    H237890   3.554   5.387   1.285 -1.0440  2.7364  0.4881
 5419TIP3   OH237891   2.730   2.886   6.750  0.5053 -0.2478 -0.1698
 5419TIP3    H137892   2.770   2.844   6.674  1.3494  0.3695 -0.0746
 5419TIP3    H237893   2.692   2.813   6.799  1.5340 -0.8613 -0.2513
 5420TIP3   OH237894   1.552   1.348   0.520 -0.0844 -0.0620  0.4023
 5420TIP3    H137895   1.573   1.257   0.541  0.0663  0.0186  0.6001
 5420TIP3    H237896   1.476   1.368   0.575 -0.5296 -0.2717 -0.1212
 5421TIP3   OH237897   2.907   2.337   0.494  0.2810 -0.0033 -0.0196
 5421TIP3    H137898   2.893   2.406   0.429 -0.5965  0.6069  0.8056
 5421TIP3    H237899   3.003   2.326   0.497  0.3872  0.7041 -0.6399
 5422TIP3   OH237900   0.856   4.066   6.571  0.2415 -0.3610  0.4359
 5422TIP3    H137901   0.946   4.096   6.560 -0.3220  0.4781 -3.4375
 5422TIP3    H237902   0.807   4.145   6.595  0.1416 -0.0704 -0.6343
 5423TIP3   OH237903   2.301   1.816   2.209  0.3073  0.4664 -0.1594
 5423TIP3    H137904   2.278   1.825   2.301  0.7622  2.7805 -0.2156
 5423TIP3    H237905   2.353   1.735   2.205  1.7287  1.1940  1.9418
 5424TIP3   OH237906   4.595   0.344   1.709  0.9270 -0.0349  0.2703
 5424TIP3    H137907   4.510   0.386   1.698  1.0364  0.8571  2.4352
 5424TIP3    H237908   4.653   0.413   1.741  2.2830 -0.8054 -0.4007
 5425TIP3   OH237909   1.168   5.627   0.345 -0.1569 -0.1615 -0.2224
 5425TIP3    H137910   1.096   5.690   0.350 -2.6245 -2.6180 -1.6479
 5425TIP3    H237911   1.131   5.546   0.380  2.2321 -1.3491 -0.2134
 5426TIP3   OH237912   2.635   5.690   0.150  0.2757  0.1859  0.6432
 5426TIP3    H137913   2.678   5.652   0.074 -0.0086  1.6092 -0.2731
 5426TIP3    H237914   2.543   5.664   0.142 -0.0324  1.4726 -0.2949
 5427TIP3   OH237915   3.488   4.750   7.785  0.3724  0.2571 -0.2452
 5427TIP3    H137916   3.564   4.692   7.777  0.7744  0.7356  0.0550
 5427TIP3    H237917   3.454   4.731   7.873 -0.2448 -0.4128 -0.6127
 5428TIP3   OH237918   1.907   3.917   0.808 -0.1244  0.2083  0.1978
 5428TIP3    H137919   1.816   3.941   0.825 -0.0543  0.6729 -0.0903
 5428TIP3    H237920   1.956   3.956   0.881 -0.1337  0.0761  0.2766
 5429TIP3   OH237921   4.081   0.895   0.779 -0.4395 -0.0918 -0.3870
 5429TIP3    H137922   4.175   0.906   0.769 -0.4933  2.0028  0.6858
 5429TIP3    H237923   4.071   0.820   0.838  0.9814  3.0975  4.4664
 5430TIP3   OH237924   1.744   0.581   7.702  0.1630 -0.0338 -0.3006
 5430TIP3    H137925   1.771   0.506   7.649 -1.0761 -0.2625 -0.6375
 5430TIP3    H237926   1.692   0.543   7.773  0.4491  0.4209  0.1599
 5431TIP3   OH237927   5.628   2.551   1.639 -0.4430 -0.6565 -0.3039
 5431TIP3    H137928   5.579   2.588   1.713 -0.4446 -0.0946 -0.5826
 5431TIP3    H237929   5.631   2.457   1.657  1.2096 -0.3227  1.3864
 5432TIP3   OH237930   3.240   1.356   0.970 -0.4797  0.5005  0.5266
 5432TIP3    H137931   3.280   1.289   0.914  1.3418  1.5395  0.4896
 5432TIP3    H237932   3.303   1.428   0.969 -2.3646  2.2321  0.5790
 5433TIP3   OH237933   4.001   0.415   7.967 -0.2727 -0.3160 -0.5572
 5433TIP3    H137934   3.915   0.428   7.926  0.8210 -0.1235 -2.9697
 5433TIP3    H237935   4.058   0.388   7.895  1.4264 -1.8128  1.2149
 5434TIP3   OH237936   3.134   0.726   1.069  0.4773 -1.0117 -0.3236
 5434TIP3    H137937   3.210   0.733   1.127  1.4399  0.2717 -1.6621
 5434TIP3    H237938   3.127   0.633   1.049  2.6871 -1.0107 -1.3841
 5435TIP3   OH237939   2.147   1.901   1.331 -0.3585 -0.4330  0.1152
 5435TIP3    H137940   2.220   1.851   1.294  0.2676 -1.3974  2.4471
 5435TIP3    H237941   2.084   1.834   1.358  0.1432 -0.0184  2.5722
 5436TIP3   OH237942   6.524   2.756   1.776 -0.4111  0.5574 -0.2648
 5436TIP3    H137943   6.471   2.827   1.739  0.8545  2.4590  1.3548
 5436TIP3    H237944   6.602   2.800   1.810  1.6267 -1.9612 -1.3742
 5437TIP3   OH237945   4.376   5.555   0.270 -0.3639  0.8306  0.0346
 5437TIP3    H137946   4.329   5.481   0.232  0.3819 -0.3537  1.3210
 5437TIP3    H237947   4.321   5.631   0.251 -0.6433  0.1291 -2.2278
 5438TIP3   OH237948   2.039   4.937   7.289  0.6347 -0.1557 -0.3408
 5438TIP3    H137949   2.021   5.028   7.313  0.4795 -0.1971 -0.3025
 5438TIP3    H237950   2.129   4.922   7.320  0.1777 -0.4329  0.8683
 5439TIP3   OH237951   5.035   3.266   0.121 -0.0205  0.2559 -0.2766
 5439TIP3    H137952   4.972   3.200   0.094  0.2608 -1.5845  3.0591
 5439TIP3    H237953   5.067   3.303   0.039 -3.6354 -0.3570 -2.1737
 5440TIP3   OH237954   0.066   6.798   7.361  0.2058  0.6287 -0.5440
 5440TIP3    H137955   0.102   6.796   7.272  1.2764 -1.5708 -0.1361
 5440TIP3    H237956   0.124   6.741   7.411 -1.4334  0.3734  1.1606
 5441TIP3   OH237957   4.936   5.792   7.647  0.6438  0.2861 -0.4186
 5441TIP3    H137958   4.910   5.868   7.594  0.6290  0.2684 -0.4368
 5441TIP3    H237959   4.877   5.792   7.721  0.8537  0.4820 -0.2506
 5442TIP3   OH237960   3.386   6.216   7.432 -0.5927  0.3100 -0.1732
 5442TIP3    H137961   3.440   6.223   7.353  0.6383  0.2557  0.6317
 5442TIP3    H237962   3.408   6.294   7.483 -1.4943  0.4231  0.0588
 5443TIP3   OH237963   6.914   2.769   7.530  0.5019  0.2448 -0.2174
 5443TIP3    H137964   7.006   2.744   7.531  0.1603 -1.1121  0.0452
 5443TIP3    H237965   6.869   2.692   7.495 -0.6218  0.5032  0.5907
 5444TIP3   OH237966   4.999   6.181   1.310  0.0410 -0.4289  0.3665
 5444TIP3    H137967   4.983   6.118   1.240  0.5837 -0.9466  0.7044
 5444TIP3    H237968   4.923   6.172   1.368 -0.3289 -0.1142 -0.0663
 5445TIP3   OH237969   1.906   5.253   7.667  0.0061  0.1724  0.3737
 5445TIP3    H137970   1.916   5.348   7.660 -1.2558  0.2239 -1.3339
 5445TIP3    H237971   1.989   5.218   7.634  0.3858  0.6518  0.7919
 5446TIP3   OH237972   6.710   5.608   0.678 -0.4485  0.4434  0.2860
 5446TIP3    H137973   6.623   5.647   0.684 -0.2352  0.7397  2.2508
 5446TIP3    H237974   6.751   5.629   0.762  1.4112  0.0425 -0.4727
 5447TIP3   OH237975   0.637   3.745   2.091 -0.0610  0.4650  0.0505
 5447TIP3    H137976   0.552   3.709   2.067  0.3548  0.5697 -1.6722
 5447TIP3    H237977   0.644   3.728   2.185 -1.9660  0.4517  0.2308
 5448TIP3   OH237978   3.103   4.616   7.961 -0.0384 -0.0029  0.4578
 5448TIP3    H137979   3.091   4.709   7.941  1.1440  0.2772  0.9544
 5448TIP3    H237980   3.042   4.600   8.034  0.4292  0.6285  1.0032
 5449TIP3   OH237981   2.491   4.230   8.368  0.1996 -0.8233  0.4579
 5449TIP3    H137982   2.462   4.312   8.408 -2.4816 -1.1422 -0.6834
 5449TIP3    H237983   2.565   4.202   8.423 -1.0546  0.5501  3.0290
 5450TIP3   OH237984   6.908   2.953   7.751  0.4063  0.0230 -0.3411
 5450TIP3    H137985   6.915   2.929   7.659 -1.4033 -2.5167  0.0897
 5450TIP3    H237986   6.974   2.900   7.795  2.0355  2.0312 -0.2013
 5451TIP3   OH237987   6.117   5.125   6.871 -0.3953  0.0144 -0.0647
 5451TIP3    H137988   6.129   5.103   6.779 -1.8731  0.6818 -0.4491
 5451TIP3    H237989   6.087   5.044   6.912  1.8822 -0.7660  0.2442
 5452TIP3   OH237990   0.167   6.794   7.117 -0.3005 -0.4157 -0.2242
 5452TIP3    H137991   0.247   6.741   7.113 -0.4997 -0.6537 -1.3929
 5452TIP3    H237992   0.197   6.884   7.100 -0.0137 -0.1816  1.3917
 5453TIP3   OH237993   2.110   6.064   7.092 -0.1984 -0.5216  0.1263
 5453TIP3    H137994   2.204   6.068   7.110  0.2811 -3.1486 -1.1878
 5453TIP3    H237995   2.094   6.137   7.033  1.2707 -0.6506 -0.4895
 5454TIP3   OH237996   2.473   1.095   1.795  0.2808 -0.5632 -0.7173
 5454TIP3    H137997   2.453   1.130   1.708  0.5705 -3.5139 -2.0767
 5454TIP3    H237998   2.569   1.102   1.801  0.3813 -1.4253 -1.1650
 5455TIP3   OH237999   1.817   6.889   7.500 -0.0614  0.2314 -0.6691
 5455TIP3    H138000   1.882   6.864   7.565 -0.9275  0.8943  0.4832
 5455TIP3    H238001   1.756   6.815   7.498 -0.4111  0.5061 -0.2198
 5456TIP3   OH238002   6.593   2.003   1.638  0.0085  0.5144  0.0459
 5456TIP3    H138003   6.601   2.098   1.645 -1.1531  0.6194  0.1903
 5456TIP3    H238004   6.524   1.990   1.573  1.0678 -0.2622 -0.9763
 5457TIP3   OH238005   0.258   5.454   1.354 -0.2567  0.4705  0.6145
 5457TIP3    H138006   0.199   5.483   1.284  0.8880 -2.4997 -1.7771
 5457TIP3    H238007   0.200   5.422   1.423 -1.4640  0.3425 -0.4222
 5458TIP3   OH238008   4.143   0.745   8.434 -0.0659 -0.3862  0.1201
 5458TIP3    H138009   4.158   0.727   8.526  0.9725  0.6444  0.1756
 5458TIP3    H238010   4.221   0.713   8.389 -0.7565 -1.2873 -0.4655
 5459TIP3   OH238011   0.154   5.549   8.136  0.2327 -0.7674 -0.2386
 5459TIP3    H138012   0.123   5.462   8.110 -2.1927  0.3519 -1.3267
 5459TIP3    H238013   0.106   5.610   8.081  2.3080  1.3044  0.0734
 5460TIP3   OH238014   2.454   5.403   7.159  0.2107  0.4925 -0.7302
 5460TIP3    H138015   2.401   5.378   7.234  1.9806 -1.5589 -0.0501
 5460TIP3    H238016   2.424   5.345   7.088 -1.2333  2.1999 -1.6072
 5461TIP3   OH238017   4.235   4.610   7.194 -0.4052  0.0534  0.2360
 5461TIP3    H138018   4.330   4.623   7.194 -0.3490  0.5712 -2.9192
 5461TIP3    H238019   4.213   4.587   7.284  2.0609  4.3463  2.2336
 5462TIP3   OH238020   0.735   5.015   7.037  0.0408 -0.7062  0.1110
 5462TIP3    H138021   0.679   5.063   6.976 -1.1719 -0.9452  0.9825
 5462TIP3    H238022   0.812   4.992   6.986 -0.2114  0.4834 -0.8687
 5463TIP3   OH238023   5.390   5.797   1.725  0.3804  0.3187  0.3187
 5463TIP3    H138024   5.405   5.827   1.815  0.2189 -1.3519  0.9536
 5463TIP3    H238025   5.365   5.705   1.735  1.2331 -0.1599 -1.4915
 5464TIP3   OH238026   1.178   0.391   1.256 -0.0916  0.4476  0.4203
 5464TIP3    H138027   1.223   0.401   1.340  0.2297 -3.6060  0.9267
 5464TIP3    H238028   1.104   0.334   1.275 -2.5258  2.7447 -1.4112
 5465TIP3   OH238029   6.325   6.892   8.253  0.0506  0.0092  0.2869
 5465TIP3    H138030   6.312   6.863   8.344 -0.8076 -0.7012 -0.0501
 5465TIP3    H238031   6.370   6.976   8.262 -1.0397  0.5188  1.4237
 5466TIP3   OH238032   2.159   6.390   1.837 -0.3653  0.7759  0.4018
 5466TIP3    H138033   2.075   6.413   1.877 -0.0779  0.8338  0.9852
 5466TIP3    H238034   2.138   6.372   1.745 -1.2099 -0.3565  0.7959
 5467TIP3   OH238035   4.858   0.768   1.896  0.4453 -0.5118  0.7813
 5467TIP3    H138036   4.884   0.830   1.828  1.0471 -2.5876 -0.9701
 5467TIP3    H238037   4.916   0.787   1.969 -0.3960  1.9546  0.9392
 5468TIP3   OH238038   2.050   2.464   0.185  0.4834  0.4069 -0.5418
 5468TIP3    H138039   2.131   2.482   0.232 -1.0212  2.0112  1.6872
 5468TIP3    H238040   2.017   2.383   0.225  1.0616 -0.3643 -1.5968
 5469TIP3   OH238041   6.776   5.087   0.677  0.3531  0.4660 -0.0142
 5469TIP3    H138042   6.794   5.156   0.740 -2.6348 -0.0764  1.6619
 5469TIP3    H238043   6.742   5.015   0.730 -2.0662 -0.1220 -2.1510
 5470TIP3   OH238044   0.723   2.948   1.348 -0.1262  0.3844  0.2200
 5470TIP3    H138045   0.667   2.963   1.272  0.8001  1.1824 -0.3289
 5470TIP3    H238046   0.752   2.857   1.338  0.9330  0.8242 -1.0643
 5471TIP3   OH238047   0.231   0.054   6.958 -0.2794 -0.0292  0.3850
 5471TIP3    H138048   0.204   0.025   6.871 -2.1605  1.2568  0.5059
 5471TIP3    H238049   0.327   0.049   6.956 -0.2783  0.1296 -1.8022
 5472TIP3   OH238050   0.543   3.154   7.052 -0.0674 -0.0206 -0.2250
 5472TIP3    H138051   0.498   3.221   7.000  0.5622  0.2862 -0.3884
 5472TIP3    H238052   0.517   3.071   7.011 -0.3395  0.1642 -0.4300
 5473TIP3   OH238053   4.748   3.259   0.575  0.2896  0.6582 -0.0261
 5473TIP3    H138054   4.763   3.213   0.492  2.1286  2.8794 -1.0277
 5473TIP3    H238055   4.686   3.328   0.553 -3.2165 -1.6565  1.6842
 5474TIP3   OH238056   1.411   3.016   0.327  0.0305 -0.2183 -0.1919
 5474TIP3    H138057   1.399   3.098   0.374  0.1210  0.7441 -1.7837
 5474TIP3    H238058   1.389   3.036   0.237 -0.3352 -2.0569 -0.5636
 5475TIP3   OH238059   4.533   4.287   0.380 -0.2641  0.1650 -0.6925
 5475TIP3    H138060   4.533   4.283   0.475  1.5421  0.2285 -0.6526
 5475TIP3    H238061   4.622   4.263   0.355 -0.6817  0.2272 -2.3654
 5476TIP3   OH238062   0.913   2.480   6.051 -0.3101 -0.0165  0.3277
 5476TIP3    H138063   0.918   2.567   6.012  1.8538  1.0060  2.6548
 5476TIP3    H238064   0.822   2.453   6.036 -0.7849  2.1861 -1.3117
 5477TIP3   OH238065   1.501   5.439   0.880 -0.2439 -0.4569  0.8019
 5477TIP3    H138066   1.576   5.493   0.855 -0.3075 -0.9797 -0.6603
 5477TIP3    H238067   1.428   5.500   0.887 -0.0302 -0.1646  0.5068
 5478TIP3   OH238068   5.209   0.827   2.682  0.2546 -0.1151  0.5476
 5478TIP3    H138069   5.287   0.875   2.654  1.0660 -0.9510  1.3089
 5478TIP3    H238070   5.217   0.742   2.640 -1.4655  0.5468 -1.2551
 5479TIP3   OH238071   4.207   6.622   8.048  0.2336 -0.2829 -0.4235
 5479TIP3    H138072   4.128   6.572   8.026 -0.5674 -0.3632  2.1641
 5479TIP3    H238073   4.255   6.630   7.966 -0.9239 -2.9599 -1.4740
 5480TIP3   OH238074   4.105   6.356   7.350  0.1339  0.7629 -0.3279
 5480TIP3    H138075   4.111   6.441   7.307  2.1374  0.9781  0.2958
 5480TIP3    H238076   4.111   6.375   7.443  0.0489 -0.0094 -0.1548
 5481TIP3   OH238077   2.674   3.947   6.951 -0.4024  0.1052 -0.4131
 5481TIP3    H138078   2.768   3.936   6.971 -0.1259 -0.3759 -1.8878
 5481TIP3    H238079   2.661   4.041   6.946  0.2774  0.1533 -1.4080
 5482TIP3   OH238080   6.478   6.838   6.799  0.1554  0.0900 -0.0976
 5482TIP3    H138081   6.471   6.747   6.829 -0.6980 -0.2697 -1.3327
 5482TIP3    H238082   6.388   6.869   6.793  0.2335  0.0025 -2.6395
 5483TIP3   OH238083   6.597   4.227   0.529 -0.5317 -0.6045  0.1768
 5483TIP3    H138084   6.672   4.174   0.501 -0.1660 -0.5987  1.1159
 5483TIP3    H238085   6.523   4.166   0.529 -0.5637 -0.5972 -0.8074
 5484TIP3   OH238086   1.909   2.490   8.399  0.7425  0.8744 -0.2907
 5484TIP3    H138087   1.911   2.503   8.494 -0.2817 -0.9754  0.0371
 5484TIP3    H238088   1.980   2.544   8.365  0.0304  2.9553  1.3378
 5485TIP3   OH238089   2.174   5.712   8.367 -0.7606 -0.2945 -0.5498
 5485TIP3    H138090   2.200   5.789   8.417 -0.7073 -1.3294  1.0808
 5485TIP3    H238091   2.254   5.685   8.322 -0.6034  0.1867 -0.5624
 5486TIP3   OH238092   0.063   4.074   1.708  0.9974 -0.1421 -0.1807
 5486TIP3    H138093   0.055   4.042   1.798 -0.3079  1.6699  0.3971
 5486TIP3    H238094   0.061   3.995   1.654 -2.3194 -1.1234  1.1521
 5487TIP3   OH238095   3.451   2.068   7.208 -0.6398 -0.4790  0.0298
 5487TIP3    H138096   3.540   2.036   7.222  0.4479  2.2833  0.1034
 5487TIP3    H238097   3.434   2.053   7.115 -1.0827 -3.1037  0.4520
 5488TIP3   OH238098   2.988   6.619   1.979  0.0981 -0.0546 -0.3081
 5488TIP3    H138099   2.966   6.695   1.926 -0.9813  0.8626  1.3748
 5488TIP3    H238100   3.042   6.654   2.050  0.2351 -0.9818  0.0598
 5489TIP3   OH238101   4.400   0.729   0.461 -0.0401 -0.0452  0.3050
 5489TIP3    H138102   4.315   0.763   0.490 -0.2173  2.7328 -2.8630
 5489TIP3    H238103   4.463   0.793   0.493  0.6530 -1.0114  0.9109
 5490TIP3   OH238104   0.652   5.762   7.606  0.7300  0.1831  0.2071
 5490TIP3    H138105   0.672   5.683   7.656  2.0356  1.0040  1.0650
 5490TIP3    H238106   0.701   5.752   7.524  1.7023  0.4980  0.7242
 5491TIP3   OH238107   2.392   6.529   6.395  0.7873  0.2859 -0.0857
 5491TIP3    H138108   2.436   6.606   6.430 -0.3716  0.5130  0.9485
 5491TIP3    H238109   2.407   6.534   6.301  1.3587  1.3739  0.0454
 5492TIP3   OH238110   4.388   2.893   1.575  0.5914 -0.0588 -0.4261
 5492TIP3    H138111   4.455   2.837   1.535 -0.1701 -0.4864 -1.1369
 5492TIP3    H238112   4.437   2.957   1.626  1.6238  0.4925 -2.0248
 5493TIP3   OH238113   4.727   2.879   0.071 -0.1659  0.4238  0.4669
 5493TIP3    H138114   4.735   2.872  -0.025  2.5734  0.9130  0.5781
 5493TIP3    H238115   4.658   2.944   0.084  1.4215  2.6228 -1.2943
 5494TIP3   OH238116   6.062   2.166   1.678  0.3868 -0.6452  0.0009
 5494TIP3    H138117   6.067   2.071   1.665  1.0692 -0.3473 -2.7341
 5494TIP3    H238118   5.972   2.182   1.706  0.4272 -2.1197  1.0965
 5495TIP3   OH238119   3.602   1.264   0.142  0.2434 -0.1648  0.1925
 5495TIP3    H138120   3.642   1.282   0.056  1.0173  3.1322  1.1028
 5495TIP3    H238121   3.508   1.275   0.127  0.4266  1.1181 -0.1263
 5496TIP3   OH238122   6.893   0.313   6.291  0.1341 -0.3229  0.0523
 5496TIP3    H138123   6.904   0.394   6.242  3.8195  0.2498  1.5205
 5496TIP3    H238124   6.887   0.245   6.224  0.9694  0.8100 -1.2274
 5497TIP3   OH238125   3.220   3.724   7.647 -0.4022 -0.0980 -0.0004
 5497TIP3    H138126   3.172   3.801   7.676  0.3971  0.0773  0.8953
 5497TIP3    H238127   3.183   3.704   7.560 -0.0144  1.7979 -0.6386
 5498TIP3   OH238128   3.526   4.071   2.321 -0.3344 -0.4720  0.1636
 5498TIP3    H138129   3.508   4.032   2.406 -0.5856 -1.3820 -0.2900
 5498TIP3    H238130   3.587   4.010   2.279  0.6781  0.5452  0.1300
 5499TIP3   OH238131   2.179   4.900   0.047 -0.0822 -0.1435 -0.2372
 5499TIP3    H138132   2.109   4.879  -0.015 -1.2843  1.0950  0.6529
 5499TIP3    H238133   2.138   4.956   0.112  0.8870 -2.0877  2.2152
 5500TIP3   OH238134   1.401   1.614   1.851 -0.8584  0.2739 -0.0512
 5500TIP3    H138135   1.411   1.567   1.934  2.4024 -0.3130 -0.6516
 5500TIP3    H238136   1.425   1.704   1.872 -0.0032  0.1195 -0.3317
 5501TIP3   OH238137   0.282   2.114   2.165 -0.1769 -0.3402  0.9869
 5501TIP3    H138138   0.292   2.103   2.259  1.3225  1.6430  1.1178
 5501TIP3    H238139   0.255   2.205   2.154  0.4241 -0.3100 -0.5192
 5502TIP3   OH238140   1.631   2.125   8.457 -0.2928  0.6099  0.0328
 5502TIP3    H138141   1.598   2.042   8.423  0.0256  0.0803  0.9769
 5502TIP3    H238142   1.583   2.192   8.407 -1.3806 -0.1325  0.0417
 5503TIP3   OH238143   3.835   1.230   6.994 -0.1441  0.5070  0.0422
 5503TIP3    H138144   3.814   1.307   7.048 -0.4210  0.6546 -0.2730
 5503TIP3    H238145   3.815   1.155   7.049 -0.2294  0.6585  0.2174
 5504TIP3   OH238146   5.420   0.221   0.272 -0.4540 -0.5872 -0.6763
 5504TIP3    H138147   5.423   0.138   0.321 -1.5242 -0.7496 -0.8588
 5504TIP3    H238148   5.339   0.215   0.221  0.8711 -0.6632 -2.9103
 5505TIP3   OH238149   6.566   5.581   1.330  0.1755 -0.4926 -0.0657
 5505TIP3    H138150   6.637   5.636   1.362  0.3606 -0.3831 -0.6419
 5505TIP3    H238151   6.515   5.638   1.272 -0.1808 -0.6685  0.0697
 5506TIP3   OH238152   3.880   3.364   2.457  0.2204 -0.6590  0.1793
 5506TIP3    H138153   3.847   3.453   2.471  0.1524 -0.1796 -2.5241
 5506TIP3    H238154   3.801   3.311   2.445  0.2929 -0.6330 -0.4446
 5507TIP3   OH238155   1.965   4.829   0.705 -0.2369 -0.0430 -0.1950
 5507TIP3    H138156   2.059   4.812   0.697 -0.2368 -0.7312  1.0080
 5507TIP3    H238157   1.952   4.913   0.663  0.9485  0.1100 -0.2816
 5508TIP3   OH238158   1.521   2.362   0.751  0.1015 -0.2923 -0.4159
 5508TIP3    H138159   1.425   2.354   0.755  0.1814 -0.7541  0.7885
 5508TIP3    H238160   1.544   2.329   0.664 -0.8095 -0.4070 -0.6219
 5509TIP3   OH238161   6.261   4.892   6.170 -0.2134  0.3011 -0.7099
 5509TIP3    H138162   6.264   4.987   6.179  0.7875  0.2838 -0.7802
 5509TIP3    H238163   6.176   4.867   6.206  0.0981  1.0826  0.6189
 5510TIP3   OH238164   5.530   4.518   8.176 -0.7474  0.1363 -0.2420
 5510TIP3    H138165   5.523   4.468   8.095  1.4246  0.2407 -0.5644
 5510TIP3    H238166   5.577   4.598   8.150  1.3301 -0.5053  1.3342
 5511TIP3   OH238167   3.035   1.402   7.383 -0.3190 -1.1240  0.0843
 5511TIP3    H138168   3.021   1.308   7.386  0.4505 -1.2417  0.2024
 5511TIP3    H238169   2.999   1.435   7.466  2.1907 -1.7308  1.5236
 5512TIP3   OH238170   4.261   6.048   7.365  0.3638 -0.4353  0.6044
 5512TIP3    H138171   4.179   6.049   7.316  0.0126 -1.6451  1.1230
 5512TIP3    H238172   4.326   6.016   7.302  0.5728  1.0232  0.0403
 5513TIP3   OH238173   3.423   4.862   1.230 -0.0168  0.8535  0.1207
 5513TIP3    H138174   3.384   4.944   1.261  2.3904  1.6426  1.3865
 5513TIP3    H238175   3.453   4.818   1.310  0.8776 -0.0780 -0.6924
 5514TIP3   OH238176   1.868   3.249   7.715 -0.0010  0.2583 -0.4118
 5514TIP3    H138177   1.890   3.326   7.768 -0.9224  0.6681 -0.5903
 5514TIP3    H238178   1.779   3.267   7.683  0.1594 -0.4273 -1.2860
 5515TIP3   OH238179   5.643   1.037   1.966 -0.4810 -0.5974  0.6559
 5515TIP3    H138180   5.683   0.956   1.933 -0.6171 -0.8719  1.1697
 5515TIP3    H238181   5.622   1.018   2.057  1.7043  0.7932  1.5439
 5516TIP3   OH238182   5.106   6.848   1.049  0.1404 -0.1745  0.3077
 5516TIP3    H138183   5.076   6.890   1.130  0.1762 -0.9759  0.7530
 5516TIP3    H238184   5.026   6.811   1.011  0.2536 -0.5667  0.4447
 5517TIP3   OH238185   5.267   0.335   7.740  0.0349  0.4455  0.4784
 5517TIP3    H138186   5.192   0.280   7.763  0.1598 -0.5166 -1.2604
 5517TIP3    H238187   5.290   0.308   7.651  2.4348  0.7327  0.9598
 5518TIP3   OH238188   2.981   5.498   7.787 -0.3760 -0.3057 -0.2456
 5518TIP3    H138189   3.025   5.424   7.829  0.4624  0.3087 -0.0119
 5518TIP3    H238190   2.923   5.533   7.855 -0.2449 -0.3154 -0.1281
 5519TIP3   OH238191   5.668   4.479   0.572 -0.3868  0.1608 -0.3189
 5519TIP3    H138192   5.591   4.480   0.628 -0.8669  0.1429 -0.9638
 5519TIP3    H238193   5.646   4.539   0.501  0.4419  0.6351 -0.1843
 5520TIP3   OH238194   3.618   5.322   0.479  0.6037  0.3670  0.4436
 5520TIP3    H138195   3.636   5.416   0.482  2.6157  0.0212  2.4387
 5520TIP3    H238196   3.701   5.281   0.505 -0.2038 -1.9733 -0.3979
 5521TIP3   OH238197   4.875   3.695   8.179  0.6854  0.7222 -0.2229
 5521TIP3    H138198   4.800   3.663   8.229 -0.4998  2.0928 -1.0331
 5521TIP3    H238199   4.937   3.622   8.179 -0.0958 -0.0076  1.5421
 5522TIP3   OH238200   1.250   0.598   7.080  0.4652 -0.0563  0.0925
 5522TIP3    H138201   1.324   0.613   7.022  0.6198 -1.4471 -0.1067
 5522TIP3    H238202   1.200   0.527   7.039 -1.1667  1.0407  0.0626
 5523TIP3   OH238203   2.563   6.900   0.810 -0.4722 -0.1379  0.0974
 5523TIP3    H138204   2.633   6.835   0.815 -0.3783  0.0229  1.0187
 5523TIP3    H238205   2.485   6.850   0.789  0.2054 -0.1037 -3.0947
 5524TIP3   OH238206   3.404   1.629   1.283  0.3103 -0.1572  0.1620
 5524TIP3    H138207   3.488   1.656   1.320  0.6694  0.6310 -1.1757
 5524TIP3    H238208   3.374   1.558   1.341  1.6426 -0.1075  0.9499
 5525TIP3   OH238209   5.110   0.301   1.024  0.3420  0.3907  0.4997
 5525TIP3    H138210   5.107   0.389   1.060  1.1790 -0.0165  1.6549
 5525TIP3    H238211   5.074   0.245   1.093 -0.2706 -0.1668 -0.2543
 5526TIP3   OH238212   6.553   6.342   7.968 -0.2763  0.0805  0.0632
 5526TIP3    H138213   6.556   6.263   8.020 -0.9990  0.8909  1.3890
 5526TIP3    H238214   6.530   6.312   7.880  2.7850 -1.5178 -0.3387
 5527TIP3   OH238215   2.880   2.060   7.833  0.3316 -0.3986 -0.0900
 5527TIP3    H138216   2.869   2.067   7.928 -0.8860 -0.1283 -0.2387
 5527TIP3    H238217   2.972   2.038   7.822  0.3772 -0.9690  1.1797
 5528TIP3   OH238218   1.980   5.962   1.022 -0.5701 -0.3361 -0.5610
 5528TIP3    H138219   2.045   6.014   1.070 -0.3384  0.7821 -2.0299
 5528TIP3    H238220   1.997   5.872   1.051 -0.1249  0.2203  1.0633
 5529TIP3   OH238221   4.764   1.792   6.786 -0.4585  0.1396 -0.1279
 5529TIP3    H138222   4.834   1.758   6.732 -0.5322  0.9151 -0.7286
 5529TIP3    H238223   4.808   1.831   6.862 -0.4570 -3.1375  1.7179
 5530TIP3   OH238224   6.243   2.400   7.769 -0.3225  0.1437  1.2134
 5530TIP3    H138225   6.175   2.340   7.743 -0.1997  0.1475  0.8825
 5530TIP3    H238226   6.324   2.349   7.767 -0.0708  0.5651 -0.0410
 5531TIP3   OH238227   2.272   2.935   0.900 -0.1860 -0.5708 -0.2052
 5531TIP3    H138228   2.301   3.018   0.860 -1.5091  0.5526  1.0746
 5531TIP3    H238229   2.333   2.870   0.866  1.1918  1.0016 -0.8829
 5532TIP3   OH238230   6.200   5.385   1.554  0.0427 -0.1716  0.0335
 5532TIP3    H138231   6.131   5.370   1.618  0.6330  1.1196  1.0143
 5532TIP3    H238232   6.278   5.344   1.592  0.1048 -0.5686 -0.5038
 5533TIP3   OH238233   3.854   6.293   0.767 -0.2294 -0.7814 -0.2472
 5533TIP3    H138234   3.769   6.287   0.811 -1.3855 -0.5190 -2.3068
 5533TIP3    H238235   3.875   6.203   0.743  0.3822 -0.9197  0.7452
 5534TIP3   OH238236   2.682   1.845   0.547 -0.1739 -0.5610  0.0105
 5534TIP3    H138237   2.750   1.912   0.545  0.2072 -0.8902  1.2883
 5534TIP3    H238238   2.601   1.893   0.530  0.2220  0.0235 -0.2878
 5535TIP3   OH238239   1.337   0.033   0.891 -0.2364 -0.1309 -0.3797
 5535TIP3    H138240   1.424   0.070   0.875  0.1995 -0.5811  0.8189
 5535TIP3    H238241   1.293   0.039   0.807  0.4543  1.3954 -0.6673
 5536TIP3   OH238242   5.586   6.929   0.718 -0.1133  0.6557 -0.0942
 5536TIP3    H138243   5.593   7.024   0.722 -2.4376  0.8263  2.1179
 5536TIP3    H238244   5.641   6.898   0.790 -0.7141  0.4653  0.2927
 5537TIP3   OH238245   2.888   5.934   7.780 -0.7298 -0.4579  0.0120
 5537TIP3    H138246   2.935   5.907   7.701 -0.3315 -1.0129  0.4338
 5537TIP3    H238247   2.953   5.982   7.831 -1.3051  0.9667 -0.5257
 5538TIP3   OH238248   4.918   3.763   6.534 -0.5295 -0.4733 -0.3746
 5538TIP3    H138249   4.955   3.846   6.503 -1.0209 -0.0156  0.2548
 5538TIP3    H238250   4.971   3.696   6.490  0.1996  0.1695 -0.4963
 5539TIP3   OH238251   1.385   4.354   7.372  0.1006  0.2270 -1.0236
 5539TIP3    H138252   1.442   4.407   7.317  0.7654  0.1466 -0.4251
 5539TIP3    H238253   1.443   4.316   7.438  0.1573 -3.2822 -2.8538
 5540TIP3   OH238254   3.604   5.482   8.397  0.0980  0.2098  0.1396
 5540TIP3    H138255   3.509   5.480   8.406  0.0125 -1.1020 -0.7677
 5540TIP3    H238256   3.628   5.393   8.372  1.7011  0.2337  1.4256
 5541TIP3   OH238257   5.973   1.292   1.551  0.5255  0.3623 -0.0682
 5541TIP3    H138258   6.019   1.320   1.472  2.0743 -0.4339  0.4915
 5541TIP3    H238259   6.043   1.275   1.614 -0.1930 -3.9046 -0.0907
 5542TIP3   OH238260   1.394   5.182   0.084 -0.4540  0.0589 -0.2106
 5542TIP3    H138261   1.445   5.249   0.128 -1.2242  0.8739 -0.5257
 5542TIP3    H238262   1.337   5.230   0.024 -1.3355 -0.8358 -0.1275
 5543TIP3   OH238263   4.467   1.769   0.334  0.0819 -0.2355 -0.1282
 5543TIP3    H138264   4.468   1.676   0.309 -1.1892 -0.2603 -0.1288
 5543TIP3    H238265   4.538   1.808   0.283 -0.6878 -0.8149 -1.6984
 5544TIP3   OH238266   6.124   6.422   1.529 -0.2197 -0.1842 -0.3461
 5544TIP3    H138267   6.183   6.454   1.460  0.0842  1.6464  0.6829
 5544TIP3    H238268   6.036   6.439   1.495 -0.0954 -0.2557 -0.7057
 5545TIP3   OH238269   2.660   4.843   0.203 -0.1359 -0.3224  0.3581
 5545TIP3    H138270   2.688   4.772   0.260  1.1485  0.1999  0.4246
 5545TIP3    H238271   2.739   4.868   0.155 -0.7238  0.5790 -0.1795
 5546TIP3   OH238272   5.544   0.687   7.049 -0.0569 -0.0359 -0.7785
 5546TIP3    H138273   5.495   0.649   7.122  0.3706 -0.5308 -0.7417
 5546TIP3    H238274   5.479   0.700   6.980 -0.0640 -1.6883 -1.1173
 5547TIP3   OH238275   0.776   2.344   1.205 -0.1999 -0.3193 -0.2369
 5547TIP3    H138276   0.680   2.348   1.204 -0.2733 -1.5926 -0.4227
 5547TIP3    H238277   0.797   2.312   1.293  0.2929  3.3396  1.1448
 5548TIP3   OH238278   5.727   6.264   8.358  0.6450  0.6210 -0.5838
 5548TIP3    H138279   5.644   6.308   8.372 -0.5490 -0.6226 -3.1784
 5548TIP3    H238280   5.773   6.272   8.442 -1.6207  2.2339  0.5952
 5549TIP3   OH238281   0.249   4.410   7.516 -0.4547  0.3249 -0.2639
 5549TIP3    H138282   0.320   4.354   7.486 -1.3322 -0.7183 -0.4471
 5549TIP3    H238283   0.293   4.484   7.559  0.7323 -0.0835 -0.7441
 5550TIP3   OH238284   4.524   5.100   2.251  0.5520 -0.2156  0.1249
 5550TIP3    H138285   4.472   5.133   2.325  0.9371  0.2572  0.1874
 5550TIP3    H238286   4.601   5.060   2.291 -0.5936 -2.5420  0.1447
 5551TIP3   OH238287   2.325   5.637   0.153  0.2544  0.2690 -0.1516
 5551TIP3    H138288   2.237   5.613   0.122  0.9073 -0.9280 -1.1837
 5551TIP3    H238289   2.339   5.581   0.229  1.5989 -2.6135 -2.2936
 5552TIP3   OH238290   5.320   6.707   7.392  0.1051  0.3815 -0.1017
 5552TIP3    H138291   5.348   6.760   7.466 -0.1229 -1.7327  1.5959
 5552TIP3    H238292   5.239   6.748   7.362  0.5373  1.6420  0.4015
 5553TIP3   OH238293   0.593   1.192   7.189 -0.1777  0.1320 -0.6428
 5553TIP3    H138294   0.623   1.132   7.121 -0.0402 -0.2010 -0.2902
 5553TIP3    H238295   0.626   1.155   7.270 -0.0505  0.7105 -0.4258
 5554TIP3   OH238296   1.061   0.801   8.065  0.4207 -0.0452 -0.2141
 5554TIP3    H138297   1.120   0.737   8.025  0.2867 -0.3297  0.0453
 5554TIP3    H238298   0.973   0.770   8.043  0.2549  2.2879 -3.8092
 5555TIP3   OH238299   5.972   1.703   7.467 -0.1325  0.4144  0.2382
 5555TIP3    H138300   5.896   1.740   7.422 -0.2524  1.3881  1.2058
 5555TIP3    H238301   6.024   1.779   7.493  1.1565 -0.2251 -0.3466
 5556TIP3   OH238302   3.035   2.988   2.531  0.5310 -0.2028 -0.6733
 5556TIP3    H138303   3.018   3.081   2.549  2.0998 -0.0891  0.4259
 5556TIP3    H238304   3.127   2.976   2.553  0.6246 -1.8161 -1.7537
 5557TIP3   OH238305   3.193   6.943   6.378 -0.0069  0.3856 -1.3280
 5557TIP3    H138306   3.261   6.878   6.356 -1.2340 -2.0353  1.4012
 5557TIP3    H238307   3.203   6.957   6.472 -2.3286  1.0967 -1.1286
 5558TIP3   OH238308   5.454   0.078   7.821 -0.3936  0.0320 -0.0699
 5558TIP3    H138309   5.423   0.134   7.893 -1.1636 -1.5152  0.8583
 5558TIP3    H238310   5.485   0.140   7.755  0.1752  1.5176  1.5010
 5559TIP3   OH238311   4.493   0.848   6.969 -0.3900  0.2426  0.6690
 5559TIP3    H138312   4.565   0.835   6.908 -0.7419  0.7295  0.1438
 5559TIP3    H238313   4.416   0.856   6.914 -0.5820  1.6721  1.1199
 5560TIP3   OH238314   0.612   6.255   7.285  0.7640 -0.5084  0.2773
 5560TIP3    H138315   0.655   6.315   7.225  1.3464 -2.1219 -1.0154
 5560TIP3    H238316   0.530   6.232   7.241  0.0828  0.0700  1.2142
 5561TIP3   OH238317   1.606   0.002   0.969  0.2831  0.4087  0.0536
 5561TIP3    H138318   1.644  -0.063   0.910  1.9940  0.1172  1.3858
 5561TIP3    H238319   1.638   0.086   0.936 -0.6558  0.4697 -0.7511
 5562TIP3   OH238320   5.343   3.911   1.127  0.2585  0.4927 -0.3463
 5562TIP3    H138321   5.272   3.975   1.127  0.6569  1.1085  3.0686
 5562TIP3    H238322   5.300   3.828   1.151  0.2801  0.2318 -1.1899
 5563TIP3   OH238323   4.849   1.544   8.125 -0.2603  0.1083 -0.2564
 5563TIP3    H138324   4.934   1.503   8.137  0.5734  1.9202  0.5248
 5563TIP3    H238325   4.796   1.514   8.199 -0.0647 -0.4690 -0.3531
 5564TIP3   OH238326   5.638   2.244   0.403 -0.5248  0.6112  0.2648
 5564TIP3    H138327   5.692   2.212   0.475 -0.6160 -0.3768 -0.0874
 5564TIP3    H238328   5.687   2.221   0.324 -0.5202  1.4998  0.0061
 5565TIP3   OH238329   6.112   6.260   0.623 -0.4045  0.1925  0.8918
 5565TIP3    H138330   6.076   6.327   0.564 -1.1028  0.8793  2.0534
 5565TIP3    H238331   6.134   6.308   0.702  1.3654 -0.5611  0.8933
 5566TIP3   OH238332   4.451   3.541   6.929  0.9019  0.3408  0.6939
 5566TIP3    H138333   4.525   3.597   6.906  1.0084 -0.0700  0.0212
 5566TIP3    H238334   4.463   3.524   7.023  2.6276 -1.0858  0.2848
 5567TIP3   OH238335   3.632   1.502   7.504 -0.5494  0.1257  0.4538
 5567TIP3    H138336   3.629   1.423   7.558 -0.4668  0.4989  1.0091
 5567TIP3    H238337   3.653   1.470   7.416  0.6877 -0.3588  0.9043
 5568TIP3   OH238338   2.408   4.742   0.057  0.0873 -0.2341  0.5522
 5568TIP3    H138339   2.334   4.802   0.066  0.5475  0.5865 -0.7685
 5568TIP3    H238340   2.481   4.787   0.100  0.5019  0.3220 -0.6853
 5569TIP3   OH238341   4.410   6.202   1.258  0.3855  0.2929 -0.5230
 5569TIP3    H138342   4.339   6.143   1.282  1.9987 -2.5710 -2.3062
 5569TIP3    H238343   4.395   6.221   1.166  2.5804 -1.5306 -1.3375
 5570TIP3   OH238344   2.278   1.837   7.171  0.1801  0.5075 -0.5996
 5570TIP3    H138345   2.339   1.816   7.242 -1.4236 -2.1328  0.1093
 5570TIP3    H238346   2.262   1.754   7.127 -2.4789  1.1996 -1.1306
 5571TIP3   OH238347   0.844   1.478   6.336 -0.5380  0.9222 -0.3271
 5571TIP3    H138348   0.915   1.435   6.385 -0.1044  0.9723 -0.9088
 5571TIP3    H238349   0.777   1.410   6.327 -0.0106  0.4801 -0.9175
 5572TIP3   OH238350   6.675   3.940   2.263  0.6811  0.4707 -0.1258
 5572TIP3    H138351   6.635   3.943   2.350  1.6342 -0.1372  0.3403
 5572TIP3    H238352   6.760   3.983   2.273  1.0876 -0.2065 -0.5982
 5573TIP3   OH238353   4.260   3.743   7.275  0.5262 -0.1876 -0.4421
 5573TIP3    H138354   4.328   3.764   7.211  0.2724 -2.2116 -1.4578
 5573TIP3    H238355   4.307   3.726   7.356  1.0546  0.1368 -0.6778
 5574TIP3   OH238356   6.666   6.562   2.224 -0.1344  0.0520  0.2880
 5574TIP3    H138357   6.735   6.587   2.286 -0.4014  0.1314  0.5526
 5574TIP3    H238358   6.689   6.473   2.197 -0.4569 -0.2845  1.1126
 5575TIP3   OH238359   3.374   1.084   0.430  0.2678  0.0934 -0.3085
 5575TIP3    H138360   3.368   1.134   0.348 -0.4344 -0.5453 -0.6601
 5575TIP3    H238361   3.334   1.141   0.495  0.2607  0.3504 -0.5333
 5576TIP3   OH238362   0.791   0.514   6.229 -0.1813 -0.4289  0.2611
 5576TIP3    H138363   0.731   0.519   6.303  1.1430 -4.5021  1.8927
 5576TIP3    H238364   0.806   0.420   6.216  2.5121  0.2222 -2.8479
 5577TIP3   OH238365   6.079   3.091   0.046 -0.2919  0.3490  0.3481
 5577TIP3    H138366   6.027   3.029  -0.005 -0.4202  0.3602  0.4647
 5577TIP3    H238367   6.027   3.109   0.123 -0.1737  0.4634  0.4030
 5578TIP3   OH238368   2.391   3.541   0.072  1.0622  0.3817 -0.0919
 5578TIP3    H138369   2.388   3.452   0.107  0.7731  0.3372 -0.2203
 5578TIP3    H238370   2.352   3.534  -0.016  0.4197  0.7498  0.1564
 5579TIP3   OH238371   0.444   4.204   0.755  0.2205  0.0716  0.2888
 5579TIP3    H138372   0.468   4.243   0.671 -0.7190 -0.1304 -0.0833
 5579TIP3    H238373   0.471   4.112   0.747 -0.5775 -0.1352 -0.0963
 5580TIP3   OH238374   6.850   6.501   0.250 -0.1243 -0.1341 -0.1308
 5580TIP3    H138375   6.776   6.547   0.290  0.1098  0.5806 -0.4928
 5580TIP3    H238376   6.925   6.558   0.266  0.2569 -0.6102 -0.2032
 5581TIP3   OH238377   4.379   2.883   7.358  0.2238  0.1033 -0.1227
 5581TIP3    H138378   4.329   2.855   7.435 -0.8051  0.3711 -0.6796
 5581TIP3    H238379   4.464   2.838   7.367 -0.7472 -1.8400 -0.0887
 5582TIP3   OH238380   6.578   6.482   7.536  0.7328  0.0757 -0.2800
 5582TIP3    H138381   6.654   6.456   7.483  1.8785  1.1477  0.7457
 5582TIP3    H238382   6.613   6.548   7.596 -0.5658 -0.8645  1.6054
 5583TIP3   OH238383   2.873   4.910   0.064 -0.1294  0.0300 -0.2395
 5583TIP3    H138384   2.925   4.990   0.067 -0.8428  0.5624 -1.5041
 5583TIP3    H238385   2.938   4.840   0.064  0.4955  0.5716  1.1046
 5584TIP3   OH238386   5.364   5.054   6.670  0.5033 -0.5139  0.4509
 5584TIP3    H138387   5.454   5.081   6.688  0.8719 -2.0930  1.1347
 5584TIP3    H238388   5.370   4.961   6.649 -0.8522 -0.4043 -0.5955
 5585TIP3   OH238389   0.792   2.550   1.534  0.3122  0.1779  0.2681
 5585TIP3    H138390   0.860   2.484   1.524  0.0935 -0.3488  1.9375
 5585TIP3    H238391   0.780   2.586   1.446  0.6569 -1.7790 -0.6356
 5586TIP3   OH238392   4.021   2.870   7.772 -0.0145  0.5876  0.0626
 5586TIP3    H138393   3.982   2.953   7.745  2.0705  1.1969 -1.3953
 5586TIP3    H238394   4.035   2.823   7.690 -0.5860 -0.9498  0.8185
 5587TIP3   OH238395   1.085   4.858   7.675 -0.2071 -0.1588  0.1258
 5587TIP3    H138396   1.179   4.854   7.688 -0.3559 -1.2231  1.0744
 5587TIP3    H238397   1.072   4.829   7.584  0.4095  0.6273 -0.2205
 5588TIP3   OH238398   0.047   4.118   0.459 -0.1820  0.2258 -0.0089
 5588TIP3    H138399   0.094   4.037   0.476  0.1312  0.7447  1.7110
 5588TIP3    H238400   0.100   4.164   0.394  0.9656  0.1658  0.8614
 5589TIP3   OH238401   5.735   3.452   1.055 -0.0088  0.0357 -0.2112
 5589TIP3    H138402   5.757   3.369   1.097 -3.6971 -1.1979 -0.3679
 5589TIP3    H238403   5.683   3.499   1.121 -1.1125  0.5473 -1.4105
 5590TIP3   OH238404   4.385   3.650   7.539 -0.0285 -0.3228  0.2510
 5590TIP3    H138405   4.461   3.653   7.598  0.8568 -2.3810 -0.6994
 5590TIP3    H238406   4.310   3.663   7.597  0.8551 -1.6435  1.7846
 5591TIP3   OH238407   6.249   4.439   1.169 -0.1672 -0.5927  0.0501
 5591TIP3    H138408   6.317   4.401   1.113 -0.5085  1.1627 -1.6783
 5591TIP3    H238409   6.171   4.441   1.113 -0.1389  2.6419 -0.0359
 5592TIP3   OH238410   0.825   0.232   8.064 -0.5816 -0.5666  0.0576
 5592TIP3    H138411   0.771   0.223   7.985 -2.4276 -1.1789  1.3343
 5592TIP3    H238412   0.878   0.310   8.048 -1.0863 -0.5400 -1.6858
 5593TIP3   OH238413   2.468   6.235   7.446  0.0452  0.1328 -0.7857
 5593TIP3    H138414   2.550   6.190   7.464 -0.7382 -1.9722 -2.1358
 5593TIP3    H238415   2.416   6.173   7.395 -1.5093  2.2330 -1.9630
 5594TIP3   OH238416   4.750   1.705   1.335  0.2012 -0.0796  0.1072
 5594TIP3    H138417   4.844   1.723   1.341  0.1450  1.0543 -1.7809
 5594TIP3    H238418   4.722   1.696   1.426  2.1922 -0.8102  0.7003
 5595TIP3   OH238419   4.303   4.037   1.729 -0.0597 -0.7276  0.1659
 5595TIP3    H138420   4.264   4.051   1.815  0.9732  0.0228  0.5361
 5595TIP3    H238421   4.395   4.060   1.741 -0.3146  1.5081 -1.6505
 5596TIP3   OH238422   2.692   0.006   1.171  0.1848  0.2025  0.0066
 5596TIP3    H138423   2.709   0.094   1.205 -1.4562  0.6070 -0.1282
 5596TIP3    H238424   2.597   0.002   1.164  0.3014 -1.1962 -1.0427
 5597TIP3   OH238425   1.748   0.810   6.725 -1.0624 -0.0743  0.1003
 5597TIP3    H138426   1.692   0.746   6.681  0.5824 -0.0307 -2.2322
 5597TIP3    H238427   1.830   0.808   6.675  0.4634  1.0106  2.3956
 5598TIP3   OH238428   0.824   4.522   8.146  0.0529 -0.2250  0.2148
 5598TIP3    H138429   0.915   4.517   8.116 -0.3312  3.6484 -2.2684
 5598TIP3    H238430   0.813   4.612   8.177 -3.2599 -0.0790 -0.9409
 5599TIP3   OH238431   4.255   1.511   7.182  0.3120 -0.3648  0.4569
 5599TIP3    H138432   4.349   1.529   7.187  0.9573 -3.5120  4.2515
 5599TIP3    H238433   4.249   1.430   7.130 -0.2590 -0.4307  0.6179
 5600TIP3   OH238434   4.548   5.562   0.494 -0.6135 -0.3648 -0.5162
 5600TIP3    H138435   4.485   5.549   0.423 -1.8269  1.8539  0.0303
 5600TIP3    H238436   4.495   5.559   0.574 -0.0737  1.4289 -0.0309
 5601TIP3   OH238437   6.971   4.856   8.155  0.4596 -0.0020 -0.4165
 5601TIP3    H138438   7.018   4.887   8.232  1.6194  2.2805 -1.9611
 5601TIP3    H238439   6.880   4.882   8.170  0.2980 -1.1776  0.9173
 5602TIP3   OH238440   5.660   1.003   0.831 -0.2636  0.1264  0.2374
 5602TIP3    H138441   5.602   1.000   0.907 -1.5262 -0.3322 -0.7155
 5602TIP3    H238442   5.717   1.078   0.848 -0.4755 -0.0015  1.6563
 5603TIP3   OH238443   6.859   3.114   7.998 -0.4181 -0.0145  0.1275
 5603TIP3    H138444   6.766   3.135   8.003 -0.3477  0.1052  1.3505
 5603TIP3    H238445   6.867   3.053   7.925 -1.4037  0.2211 -0.1839
 5604TIP3   OH238446   3.571   5.579   6.771 -0.5949  0.5729 -0.7869
 5604TIP3    H138447   3.503   5.558   6.707 -0.5716 -0.0575 -0.6103
 5604TIP3    H238448   3.646   5.606   6.717 -0.6311  0.2110 -1.0243
 5605TIP3   OH238449   6.686   0.055   0.461 -0.3337 -0.0460  0.1967
 5605TIP3    H138450   6.605   0.102   0.445  0.0827  0.7320  0.3423
 5605TIP3    H238451   6.705   0.070   0.553 -0.2664 -0.6183  0.2806
 5606TIP3   OH238452   1.867   1.089   1.473 -0.2106  0.0945  0.1295
 5606TIP3    H138453   1.839   1.101   1.564  0.4561  1.8129  0.1383
 5606TIP3    H238454   1.948   1.139   1.465 -0.2250 -0.0648 -1.4095
 5607TIP3   OH238455   0.559   4.367   7.043  0.2374 -0.0542 -0.4418
 5607TIP3    H138456   0.634   4.343   6.988  0.0477 -1.0179 -0.2950
 5607TIP3    H238457   0.568   4.461   7.056  0.0808  0.3003 -2.4564
 5608TIP3   OH238458   4.201   3.088   7.626  0.4337 -0.4480 -0.2944
 5608TIP3    H138459   4.139   3.025   7.590 -0.1031  0.5196 -1.0983
 5608TIP3    H238460   4.261   3.107   7.554  2.0656 -1.7841  0.6106
 5609TIP3   OH238461   5.641   1.348   8.281 -0.3871 -0.6951 -0.4750
 5609TIP3    H138462   5.712   1.381   8.226  0.2322 -2.0249 -0.5188
 5609TIP3    H238463   5.571   1.327   8.220 -0.4297 -0.3686 -0.5406
 5610TIP3   OH238464   4.968   1.681   0.711  0.1984 -0.0977  0.2293
 5610TIP3    H138465   4.964   1.679   0.807  1.1794  1.9552  0.3726
 5610TIP3    H238466   5.014   1.601   0.687 -2.5710 -2.1227  1.2328
 5611TIP3   OH238467   2.649   1.730   2.506 -0.3450  0.1593  0.2795
 5611TIP3    H138468   2.708   1.728   2.582  1.8312 -0.6920 -1.3410
 5611TIP3    H238469   2.563   1.751   2.544  0.9540  1.5456  2.7476
 5612TIP3   OH238470   2.590   3.873   8.151  0.1991  0.1367 -0.1776
 5612TIP3    H138471   2.512   3.822   8.129  0.6463 -1.0975  0.9579
 5612TIP3    H238472   2.556   3.951   8.196 -0.4000 -0.2071 -0.0228
 5613TIP3   OH238473   1.702   6.293   7.712  0.0305  0.3946  0.5124
 5613TIP3    H138474   1.794   6.284   7.738 -0.2374  1.8296  2.1663
 5613TIP3    H238475   1.706   6.314   7.618  1.3388 -0.2923  0.3918
 5614TIP3   OH238476   2.999   2.532   6.340 -0.0796  0.1602  0.1426
 5614TIP3    H138477   3.013   2.627   6.335  0.6040  0.1417  1.2811
 5614TIP3    H238478   3.006   2.512   6.434  0.9294 -1.1763 -0.1932
 5615TIP3   OH238479   5.029   6.237   0.009  0.1947  0.3330  0.6038
 5615TIP3    H138480   5.012   6.331  -0.002 -0.2944  0.1298 -0.4761
 5615TIP3    H238481   4.962   6.209   0.072  1.8090  1.1354  2.7937
 5616TIP3   OH238482   2.641   4.783   7.966 -0.3045  0.6148 -0.2887
 5616TIP3    H138483   2.622   4.758   8.057  0.8015 -0.7780 -0.4171
 5616TIP3    H238484   2.663   4.701   7.922  0.6378  1.4614 -1.4630
 5617TIP3   OH238485   4.955   2.024   0.557 -0.0533 -0.4966 -0.4376
 5617TIP3    H138486   5.038   2.053   0.518  0.5190  0.5232  1.4027
 5617TIP3    H238487   4.963   1.929   0.563  1.1602 -0.3767  0.0737
 5618TIP3   OH238488   2.540   3.909   7.204  0.0858 -0.3484  0.3032
 5618TIP3    H138489   2.575   3.881   7.120 -1.6844 -1.4080 -0.1353
 5618TIP3    H238490   2.607   3.884   7.268  2.4975  2.4617 -0.8863
 5619TIP3   OH238491   5.053   4.951   7.005  0.4834  0.1721  0.2680
 5619TIP3    H138492   4.984   4.998   7.052  0.4915  0.3739  0.0788
 5619TIP3    H238493   5.043   4.978   6.914  0.2379 -0.4951  0.0895
 5620TIP3   OH238494   3.491   3.468   0.059 -0.0112 -0.0271  0.3298
 5620TIP3    H138495   3.518   3.422  -0.020 -0.1625 -1.4976  1.1016
 5620TIP3    H238496   3.472   3.399   0.122  0.4212  1.0972  1.7670
 5621TIP3   OH238497   2.708   1.952   7.478  0.1438  0.0525 -0.4960
 5621TIP3    H138498   2.690   1.936   7.571  0.5392  1.2298 -0.2039
 5621TIP3    H238499   2.730   1.866   7.443 -2.1775 -0.8163 -0.0143
 5622TIP3   OH238500   5.220   3.710   7.775  0.0946  0.4100  0.5567
 5622TIP3    H138501   5.190   3.638   7.718 -0.6718  0.8469  0.3949
 5622TIP3    H238502   5.143   3.734   7.826  0.5354  0.6503  1.1200
 5623TIP3   OH238503   1.676   6.045   1.089 -0.4939 -0.3191  0.0188
 5623TIP3    H138504   1.669   5.957   1.052  0.2473 -0.4420  0.1707
 5623TIP3    H238505   1.770   6.060   1.100 -0.6662  0.0553  1.0560
 5624TIP3   OH238506   0.492   5.933   1.622  0.4363 -0.1332  0.4060
 5624TIP3    H138507   0.443   5.931   1.704  0.3274  1.2022  0.3980
 5624TIP3    H238508   0.458   5.859   1.572  0.5069 -0.9668  1.5516
 5625TIP3   OH238509   1.087   4.213   0.548  0.7496  0.4823 -0.4711
 5625TIP3    H138510   1.031   4.197   0.624  0.1176  0.2452 -0.9841
 5625TIP3    H238511   1.118   4.127   0.522  0.3094  0.4696 -0.9739
 5626TIP3   OH238512   2.698   2.755   0.070  0.7042 -0.4490  0.2132
 5626TIP3    H138513   2.643   2.802   0.007  0.0998 -2.2749 -0.6674
 5626TIP3    H238514   2.636   2.704   0.122  1.4068 -0.7944  0.7187
 5627TIP3   OH238515   0.488   3.141   7.350 -0.3071  0.0144 -0.7691
 5627TIP3    H138516   0.444   3.058   7.370  0.9752 -0.7302 -0.8629
 5627TIP3    H238517   0.480   3.150   7.256 -0.3819 -0.0463 -0.7689
 5628TIP3   OH238518   6.735   5.126   0.231 -0.1826  0.3555  0.3173
 5628TIP3    H138519   6.808   5.186   0.247 -0.4552  0.8226 -0.1390
 5628TIP3    H238520   6.775   5.045   0.200  0.2029  0.2276  1.1353
 5629TIP3   OH238521   4.677   6.237   0.724  0.2859 -0.5036 -0.3654
 5629TIP3    H138522   4.584   6.218   0.717  0.1191 -0.0151  0.4521
 5629TIP3    H238523   4.696   6.234   0.818  0.1507  3.6190 -0.0294
 5630TIP3   OH238524   5.475   3.345   0.493  0.1979  0.5263 -0.5158
 5630TIP3    H138525   5.464   3.434   0.527  1.0088  1.3089 -2.1580
 5630TIP3    H238526   5.388   3.318   0.465 -0.1839  0.4945  0.6679
 5631TIP3   OH238527   1.525   2.132   6.723  0.3308  0.1254  0.1818
 5631TIP3    H138528   1.503   2.066   6.657  1.3513  1.0480 -1.1252
 5631TIP3    H238529   1.471   2.109   6.799 -1.4040 -0.5725 -1.1945
 5632TIP3   OH238530   4.793   4.184   0.717  0.1632 -0.1492  0.3839
 5632TIP3    H138531   4.858   4.222   0.659  1.6730  0.3371  2.2945
 5632TIP3    H238532   4.763   4.257   0.771 -0.4892 -0.7707  0.8796
 5633TIP3   OH238533   0.868   4.358   1.533  0.2884 -0.3032  0.0760
 5633TIP3    H138534   0.875   4.263   1.537 -0.1209 -0.3110  0.8720
 5633TIP3    H238535   0.775   4.376   1.540  0.4783  0.2050  1.8396
 5634TIP3   OH238536   4.953   4.362   1.757 -0.0505 -0.6387 -0.2734
 5634TIP3    H138537   4.933   4.324   1.671  1.1157 -1.0268 -0.3991
 5634TIP3    H238538   4.898   4.313   1.818 -0.3284 -0.8899 -0.7177
 5635TIP3   OH238539   6.741   1.992   1.122 -0.5508  0.4043  0.0435
 5635TIP3    H138540   6.744   2.017   1.214 -0.9691  0.1261  0.1369
 5635TIP3    H238541   6.818   2.033   1.083  0.4930 -0.7538  0.8350
 5636TIP3   OH238542   0.444   3.304   6.810 -0.1497 -0.4975  0.6540
 5636TIP3    H138543   0.398   3.268   6.734 -3.3202  2.0954  1.1065
 5636TIP3    H238544   0.512   3.360   6.772 -0.7631 -0.3286 -0.2267
 5637TIP3   OH238545   3.397   2.984   6.880  0.3998  0.3197 -0.3047
 5637TIP3    H138546   3.349   2.915   6.833  1.0085 -0.3166 -0.0010
 5637TIP3    H238547   3.440   3.034   6.811 -0.7901  0.9825 -0.5956
 5638TIP3   OH238548   5.539   4.735   7.145  0.5383 -0.3176  0.2826
 5638TIP3    H138549   5.529   4.725   7.050 -1.8205  1.5416  0.2436
 5638TIP3    H238550   5.580   4.821   7.155 -1.6158  0.6992  0.9278
 5639TIP3   OH238551   5.041   6.511   8.360 -0.2278 -0.2577 -0.3176
 5639TIP3    H138552   4.955   6.541   8.388 -0.4642 -0.1648 -1.1187
 5639TIP3    H238553   5.102   6.551   8.423 -0.7222  0.1146 -0.0677
 5640TIP3   OH238554   1.754   0.431   7.173  0.1607 -0.0443 -0.3570
 5640TIP3    H138555   1.692   0.499   7.147 -0.0797 -0.0246  0.2351
 5640TIP3    H238556   1.747   0.428   7.269 -0.6817 -1.7110 -0.4413
 5641TIP3   OH238557   2.123   4.068   7.652  0.1904  0.1160 -0.1546
 5641TIP3    H138558   2.036   4.107   7.665  0.8175  1.4104  0.2967
 5641TIP3    H238559   2.105   3.976   7.632 -1.1913 -0.4038  2.9359
 5642TIP3   OH238560   4.583   4.979   1.790 -0.2996 -0.6259 -0.4962
 5642TIP3    H138561   4.617   5.063   1.819 -0.4194 -0.5968 -0.4384
 5642TIP3    H238562   4.488   4.985   1.803 -0.3703 -0.5634 -1.0326
 5643TIP3   OH238563   6.673   3.016   0.722  0.3705  0.0055  0.0537
 5643TIP3    H138564   6.704   3.094   0.675  2.9170 -0.3766  0.9171
 5643TIP3    H238565   6.604   2.980   0.667 -0.2795  2.3928 -0.7762
 5644TIP3   OH238566   3.318   2.987   7.557 -0.7562  0.0239 -0.4743
 5644TIP3    H138567   3.313   2.918   7.623 -0.5951 -0.6686 -1.1699
 5644TIP3    H238568   3.397   2.967   7.507  0.5648  2.0197  0.7097
 5645TIP3   OH238569   1.944   1.800   7.372 -0.2137  0.0688 -0.5052
 5645TIP3    H138570   1.920   1.855   7.447  0.4001 -0.0381 -0.2286
 5645TIP3    H238571   2.003   1.734   7.408  1.3062  0.9063 -1.3361
 5646TIP3   OH238572   2.308   3.499   6.779  0.7597 -0.0823 -0.9142
 5646TIP3    H138573   2.369   3.442   6.825 -0.6347 -1.6085 -0.8830
 5646TIP3    H238574   2.324   3.481   6.686  0.2832 -0.5608 -0.9032
 5647TIP3   OH238575   5.896   2.657   7.920 -0.0171 -0.2990 -0.0821
 5647TIP3    H138576   5.973   2.695   7.878  0.0681 -1.7707 -1.3476
 5647TIP3    H238577   5.850   2.732   7.958  1.5812  0.7036 -0.0382
 5648TIP3   OH238578   5.880   1.064   7.606 -0.1318 -0.0199 -0.0708
 5648TIP3    H138579   5.872   1.136   7.543 -2.9183  0.7152  0.9806
 5648TIP3    H238580   5.817   0.999   7.576  1.2420 -1.3839 -0.1140
 5649TIP3   OH238581   6.433   4.507   7.195  0.3653  0.5784 -0.1433
 5649TIP3    H138582   6.404   4.421   7.224  1.1186  0.8773  1.6464
 5649TIP3    H238583   6.478   4.490   7.112 -1.7917 -0.3404 -1.1912
 5650TIP3   OH238584   4.263   4.788   2.365  0.6556 -0.1855 -0.4088
 5650TIP3    H138585   4.308   4.854   2.313 -0.3404  2.0121  1.3236
 5650TIP3    H238586   4.175   4.823   2.376  0.2270 -1.5983  0.9778
 5651TIP3   OH238587   0.402   5.726   1.387 -0.1701  0.0992  0.1062
 5651TIP3    H138588   0.477   5.777   1.357 -1.2327  2.1894  0.8373
 5651TIP3    H238589   0.438   5.669   1.455  0.7428  1.1413  0.5242
 5652TIP3   OH238590   5.764   3.505   0.137 -0.0771 -0.1136 -0.1396
 5652TIP3    H138591   5.845   3.480   0.093  0.4739  0.1583  0.6986
 5652TIP3    H238592   5.716   3.423   0.148  1.6697 -0.8783  2.5079
 5653TIP3   OH238593   0.937   0.204   1.008  0.1500  0.1682 -0.3112
 5653TIP3    H138594   0.983   0.156   1.078  0.4646  0.3687 -0.3809
 5653TIP3    H238595   0.875   0.140   0.973  2.6295 -1.2672 -2.4775
 5654TIP3   OH238596   5.282   5.909   8.253  1.2110 -0.4639  0.3255
 5654TIP3    H138597   5.353   5.865   8.299  0.7403 -2.7440 -1.0155
 5654TIP3    H238598   5.213   5.843   8.246  0.2602  0.6308 -1.3416
 5655TIP3   OH238599   2.058   3.965   1.601 -0.3399 -0.0753 -0.2229
 5655TIP3    H138600   2.118   3.891   1.590  0.3701  0.8301 -3.4674
 5655TIP3    H238601   2.116   4.041   1.613 -0.8485  0.5804 -1.7146
 5656TIP3   OH238602   5.292   2.908   7.400  0.1636  0.3511 -0.4977
 5656TIP3    H138603   5.296   2.979   7.335  0.0152 -0.0083 -0.9018
 5656TIP3    H238604   5.247   2.837   7.354  0.7164 -0.1671 -0.2391
 5657TIP3   OH238605   5.474   6.363   2.008 -0.6248  0.2062  0.7436
 5657TIP3    H138606   5.542   6.390   2.069 -1.8920  0.5180  2.0754
 5657TIP3    H238607   5.449   6.275   2.038 -0.8986  0.1465  0.3447
 5658TIP3   OH238608   2.195   5.480   6.492 -0.0774  0.1814  0.8853
 5658TIP3    H138609   2.261   5.495   6.423  0.0844 -2.4168  0.3758
 5658TIP3    H238610   2.161   5.568   6.511  2.4506  1.4480  0.1158
 5659TIP3   OH238611   1.529   2.747   1.285  0.3314  0.2586  0.4325
 5659TIP3    H138612   1.578   2.745   1.367 -2.2503  2.4856  2.1758
 5659TIP3    H238613   1.448   2.699   1.303 -0.8635  1.8830 -0.3529
 5660TIP3   OH238614   2.824   6.080   1.095 -0.1867 -0.4645  0.4926
 5660TIP3    H138615   2.855   6.069   1.185 -0.7836  1.4519  0.9873
 5660TIP3    H238616   2.866   6.159   1.064 -1.1351 -0.2767 -0.3857
 5661TIP3   OH238617   5.583   0.447   0.324 -0.2143 -0.0181 -0.1873
 5661TIP3    H138618   5.540   0.362   0.317 -2.0510  0.9084 -0.6002
 5661TIP3    H238619   5.582   0.468   0.418 -4.1222  1.6013 -0.4051
 5662TIP3   OH238620   1.270   5.674   8.028  0.5468 -0.2640  0.4387
 5662TIP3    H138621   1.252   5.762   7.993  0.3226 -0.1925  0.7324
 5662TIP3    H238622   1.229   5.615   7.966  2.2275 -0.2582 -0.7629
 5663TIP3   OH238623   4.254   2.929   0.017  0.3738  0.0986  0.1406
 5663TIP3    H138624   4.340   2.887   0.013 -0.0966 -0.9114  0.3219
 5663TIP3    H238625   4.225   2.932  -0.074  0.3879  0.0031  0.1331
 5664TIP3   OH238626   4.010   1.739   0.186 -0.6246  0.8783 -0.2171
 5664TIP3    H138627   3.983   1.821   0.225  3.1977  2.1590  0.1748
 5664TIP3    H238628   4.039   1.685   0.260  0.9447  0.9270 -0.7581
 5665TIP3   OH238629   3.042   3.285   7.731 -0.0476 -0.0148 -0.0368
 5665TIP3    H138630   2.962   3.241   7.757 -0.1328  0.0521 -0.1813
 5665TIP3    H238631   3.112   3.238   7.776  0.2415 -2.5894 -2.8802
 5666TIP3   OH238632   2.882   5.617   2.379  0.0940  0.0782  0.2121
 5666TIP3    H138633   2.921   5.701   2.401  1.0308 -0.3625  0.2738
 5666TIP3    H238634   2.943   5.552   2.413  0.4970 -0.6359 -1.6957
 5667TIP3   OH238635   4.350   1.228   6.748  0.2432  1.0530 -0.2185
 5667TIP3    H138636   4.284   1.209   6.815 -0.0847  0.4114 -0.7160
 5667TIP3    H238637   4.424   1.263   6.797  1.0532 -1.8783  0.8106
 5668TIP3   OH238638   2.526   6.061   6.425 -0.4363 -0.4718  0.6798
 5668TIP3    H138639   2.614   6.067   6.464  0.6313 -0.1334 -1.5978
 5668TIP3    H238640   2.524   5.975   6.383 -0.4808  0.2440 -0.8239
 5669TIP3   OH238641   4.006   0.611   7.667  1.0602 -0.2127 -0.2050
 5669TIP3    H138642   4.056   0.532   7.649  1.6050  0.2638 -0.8691
 5669TIP3    H238643   3.977   0.641   7.581 -0.1671 -0.3332  0.1457
 5670TIP3   OH238644   5.150   2.954   7.876  0.0753  0.0549 -0.0963
 5670TIP3    H138645   5.073   2.902   7.853  0.9491 -2.0072  1.3237
 5670TIP3    H238646   5.195   2.968   7.793 -0.9100 -0.2553 -0.6982
 5671TIP3   OH238647   6.537   4.609   0.329 -1.1799  0.0270 -0.6180
 5671TIP3    H138648   6.573   4.528   0.364  0.3496 -0.7007 -3.5710
 5671TIP3    H238649   6.587   4.678   0.372 -2.4984 -0.4775  1.9300
 5672TIP3   OH238650   5.048   1.542   2.569  0.2664  0.0069 -0.1296
 5672TIP3    H138651   4.960   1.539   2.606 -1.3587  0.6821 -3.5210
 5672TIP3    H238652   5.099   1.591   2.632 -1.8269 -0.2408  1.8828
 5673TIP3   OH238653   0.684   1.677   7.234  1.1352 -0.7246 -0.4534
 5673TIP3    H138654   0.719   1.756   7.278 -1.8132  1.5202 -1.7854
 5673TIP3    H238655   0.670   1.615   7.306  1.5346  0.7648  0.9957
 5674TIP3   OH238656   5.964   4.597   1.733 -0.2254 -0.2152  0.3176
 5674TIP3    H138657   6.036   4.645   1.691 -1.2027  1.4010  0.4095
 5674TIP3    H238658   5.979   4.505   1.708  1.9846  0.0233  0.5210
 5675TIP3   OH238659   2.360   2.386   1.407  0.5496 -0.4031 -0.8558
 5675TIP3    H138660   2.406   2.315   1.363  1.9931  0.4762 -0.8330
 5675TIP3    H238661   2.294   2.414   1.345  0.1064 -1.6080 -0.9502
 5676TIP3   OH238662   1.059   4.732   7.410 -0.0262 -0.5608 -0.1452
 5676TIP3    H138663   1.066   4.812   7.357 -0.4291 -0.2746  0.2253
 5676TIP3    H238664   1.032   4.665   7.347 -0.3486 -0.2570 -0.3392
 5677TIP3   OH238665   3.036   5.504   6.333  0.4366 -1.0383  0.3103
 5677TIP3    H138666   3.053   5.563   6.406 -0.8762 -1.6861  1.1807
 5677TIP3    H238667   3.121   5.491   6.292  0.9301  0.5933  0.7551
 5678TIP3   OH238668   0.894   6.363   1.548 -0.4444  0.5188  0.1402
 5678TIP3    H138669   0.829   6.431   1.530  0.1312  1.2283  0.6705
 5678TIP3    H238670   0.869   6.326   1.632 -0.0760  0.9140  0.4300
 5679TIP3   OH238671   4.666   3.964   7.952 -0.4944  0.4481  0.3396
 5679TIP3    H138672   4.619   3.883   7.968  0.6434  0.2692  3.4805
 5679TIP3    H238673   4.627   4.027   8.013  0.3737  1.5360 -0.1779
 5680TIP3   OH238674   1.660   6.118   0.061  0.3161 -0.3225 -0.2197
 5680TIP3    H138675   1.623   6.199   0.095 -0.2932 -1.0215  0.8403
 5680TIP3    H238676   1.668   6.132  -0.034 -1.5893  0.2731 -0.3289
 5681TIP3   OH238677   3.634   2.465   8.167  0.1731 -0.1097  0.3084
 5681TIP3    H138678   3.559   2.511   8.203  0.1429 -0.3233  0.5189
 5681TIP3    H238679   3.615   2.372   8.183  0.2242 -0.1976 -0.1234
 5682TIP3   OH238680   4.830   2.713   2.188  0.4923 -0.1240 -0.6399
 5682TIP3    H138681   4.783   2.634   2.215  0.1618 -0.2291 -1.4850
 5682TIP3    H238682   4.818   2.774   2.261  1.2226 -1.0327  0.2636
 5683TIP3   OH238683   6.527   4.715   7.709 -0.6069 -0.4168 -0.2813
 5683TIP3    H138684   6.560   4.763   7.784 -2.3937 -1.4615  1.2635
 5683TIP3    H238685   6.587   4.641   7.699 -0.9995 -0.9194  0.8925
 5684TIP3   OH238686   1.613   3.658   0.871  0.5465 -0.3286  0.0780
 5684TIP3    H138687   1.622   3.608   0.952 -0.5827  1.1756  1.1758
 5684TIP3    H238688   1.539   3.717   0.887 -1.2898 -1.5786 -2.8898
 5685TIP3   OH238689   5.563   3.172   7.498 -0.0278 -0.5591 -0.4803
 5685TIP3    H138690   5.642   3.176   7.552 -0.2827  2.3058 -0.1814
 5685TIP3    H238691   5.596   3.171   7.408  0.3452 -0.9439 -0.3452
 5686TIP3   OH238692   1.011   3.130   0.420  0.2042 -0.1164  0.2977
 5686TIP3    H138693   0.993   3.109   0.329  0.0276  0.1227  0.2764
 5686TIP3    H238694   1.032   3.224   0.420 -1.8091  0.3860  0.7702
 5687TIP3   OH238695   3.325   5.062   8.074 -0.1024 -0.2267  0.2781
 5687TIP3    H138696   3.295   4.973   8.055 -1.1006 -0.3820  2.3472
 5687TIP3    H238697   3.293   5.114   8.000 -1.8235 -1.1436  0.3340
 5688TIP3   OH238698   1.373   2.190   8.292  0.1561  0.0635 -0.8912
 5688TIP3    H138699   1.362   2.194   8.197  1.9841  1.4230 -1.0887
 5688TIP3    H238700   1.340   2.103   8.316 -0.8954 -0.0681 -2.6684
 5689TIP3   OH238701   1.074   4.485   7.784 -0.5613 -0.3194 -0.6986
 5689TIP3    H138702   1.114   4.522   7.706 -0.1393 -1.0652 -0.8438
 5689TIP3    H238703   1.012   4.421   7.751 -0.6098 -0.4108 -0.4298
 5690TIP3   OH238704   3.543   1.498   1.614  0.3507  0.1382  0.0569
 5690TIP3    H138705   3.585   1.457   1.689  1.2137  0.6352 -0.1424
 5690TIP3    H238706   3.605   1.565   1.586 -0.7852  1.2260  0.0582
 5691TIP3   OH238707   2.168   5.275   7.790  0.2465  0.7100  0.1789
 5691TIP3    H138708   2.146   5.367   7.775 -0.8869  0.4716  0.3068
 5691TIP3    H238709   2.195   5.243   7.704 -0.4330  0.8835 -0.1047
 5692TIP3   OH238710   4.118   3.656   7.706 -0.4453 -0.5169 -0.5812
 5692TIP3    H138711   4.037   3.619   7.671  0.6914 -2.0337 -1.7959
 5692TIP3    H238712   4.145   3.594   7.774 -0.3118 -0.0236 -0.1814
 5693TIP3   OH238713   6.142   2.668   7.745 -0.0315  0.0486  0.0170
 5693TIP3    H138714   6.204   2.597   7.730 -0.8632 -1.4103  2.9475
 5693TIP3    H238715   6.198   2.745   7.758  0.9303 -0.3181 -1.5620
 5694TIP3   OH238716   1.132   6.026   0.633  0.0670 -0.2468 -0.4584
 5694TIP3    H138717   1.093   6.031   0.545 -0.9310 -0.4587 -0.0410
 5694TIP3    H238718   1.092   5.948   0.672 -0.7250  0.7411  0.7660
 5695TIP3   OH238719   2.265   1.387   7.559 -0.2135 -0.0666  0.0970
 5695TIP3    H138720   2.339   1.409   7.616 -1.0299  1.3727  0.6633
 5695TIP3    H238721   2.291   1.417   7.472  0.2133 -0.3606  0.1243
 5696TIP3   OH238722   4.077   3.854   8.287 -0.0091  0.5617 -0.6464
 5696TIP3    H138723   4.168   3.872   8.310  0.4957 -1.1393 -1.1532
 5696TIP3    H238724   4.078   3.764   8.253 -1.9426  0.3592 -0.2991
 5697TIP3   OH238725   6.247   5.993   0.311  0.2196 -0.6312  0.2676
 5697TIP3    H138726   6.191   6.023   0.239  0.1887  0.0869  0.5779
 5697TIP3    H238727   6.187   5.969   0.381  0.2498  2.4395  1.5165
 5698TIP3   OH238728   0.769   1.256   8.250  0.1352 -0.1210  0.5349
 5698TIP3    H138729   0.773   1.232   8.342  0.6643 -0.7798  0.3486
 5698TIP3    H238730   0.682   1.294   8.239 -1.0181 -2.4900  0.7398
 5699TIP3   OH238731   6.433   3.356   1.258 -0.7090  0.0926 -0.3461
 5699TIP3    H138732   6.443   3.441   1.302  1.1262 -0.0381 -0.4065
 5699TIP3    H238733   6.437   3.377   1.165 -0.7778  0.0034 -0.3686
 5700TIP3   OH238734   6.068   5.025   0.494  0.1635  0.4288  0.2217
 5700TIP3    H138735   6.151   5.026   0.446  1.2097 -1.6104  1.7905
 5700TIP3    H238736   6.086   4.969   0.570 -2.0300  1.7173  1.7986
 5701TIP3   OH238737   6.808   4.734   8.444 -0.1353 -0.5603 -0.0432
 5701TIP3    H138738   6.742   4.680   8.487  0.0227  0.5213  1.6919
 5701TIP3    H238739   6.875   4.672   8.415 -0.4992 -1.4156  0.8707
 5702TIP3   OH238740   0.272   5.094   0.713 -0.2074 -0.0486 -0.1055
 5702TIP3    H138741   0.188   5.054   0.692 -0.7268  0.2865  1.2119
 5702TIP3    H238742   0.332   5.060   0.647 -2.0214  2.2988 -3.2430
 5703TIP3   OH238743   3.042   2.409   0.948  0.7996  0.2695  0.3684
 5703TIP3    H138744   3.002   2.476   1.004 -1.9018 -0.7986 -0.1598
 5703TIP3    H238745   3.048   2.451   0.862  1.0156  0.4920  0.4892
 5704TIP3   OH238746   6.583   2.328   2.840 -0.0022  0.0277  0.2342
 5704TIP3    H138747   6.520   2.389   2.878  0.4612  0.5878  0.1204
 5704TIP3    H238748   6.566   2.333   2.746  1.1138  1.2505  0.0560
 5705TIP3   OH238749   1.502   4.984   0.494  0.1993 -0.3099 -0.3449
 5705TIP3    H138750   1.547   4.946   0.418 -1.2533 -0.8893 -0.9608
 5705TIP3    H238751   1.415   5.007   0.461 -0.6100 -0.9379  1.2190
 5706TIP3   OH238752   6.208   4.968   6.671  0.1207  0.8700 -0.2651
 5706TIP3    H138753   6.270   4.934   6.736  0.0620  1.0667 -0.1044
 5706TIP3    H238754   6.242   4.937   6.587 -0.7477 -0.8773 -0.0207
 5707TIP3   OH238755   2.115   1.653   7.515  0.2833 -0.4087  0.1591
 5707TIP3    H138756   2.184   1.692   7.569  0.5690 -0.2288 -0.3240
 5707TIP3    H238757   2.147   1.565   7.496 -0.4773 -0.9821  1.4570
 5708TIP3   OH238758   4.342   3.626   8.433  0.1449 -0.3645  0.1477
 5708TIP3    H138759   4.365   3.554   8.373 -1.0992 -0.8410  0.2184
 5708TIP3    H238760   4.252   3.647   8.411  0.7364  1.7728 -0.4307
 5709TIP3   OH238761   4.061   1.800   7.861  0.3383 -0.3775  0.4168
 5709TIP3    H138762   4.101   1.886   7.854 -0.1031  0.0678  2.7704
 5709TIP3    H238763   4.043   1.775   7.770 -0.0583  2.2469 -0.3070
 5710TIP3   OH238764   0.332   0.728   1.451  0.8062 -0.2108  0.2227
 5710TIP3    H138765   0.258   0.777   1.487  1.5875 -0.0762  1.7196
 5710TIP3    H238766   0.316   0.725   1.357 -1.2546 -0.4380  0.5376
 5711TIP3   OH238767   2.443   3.759   1.292  0.4084  0.5569 -0.1267
 5711TIP3    H138768   2.501   3.813   1.346  1.5953 -0.6139 -0.1896
 5711TIP3    H238769   2.419   3.817   1.219  2.8164  0.6123 -0.9682
 5712TIP3   OH238770   2.812   6.595   8.281 -0.0665  0.3462 -0.0629
 5712TIP3    H138771   2.842   6.529   8.217 -0.4261  1.3594 -1.3171
 5712TIP3    H238772   2.794   6.673   8.228 -2.6599  0.5164  0.9183
 5713TIP3   OH238773   1.209   2.427   7.451 -0.2875 -0.1238 -0.3314
 5713TIP3    H138774   1.290   2.465   7.483 -1.9969  1.9358  1.9356
 5713TIP3    H238775   1.194   2.351   7.508  0.2673 -0.8390 -1.1109
 5714TIP3   OH238776   2.905   6.848   1.531 -0.5362  0.2253 -0.5371
 5714TIP3    H138777   2.819   6.836   1.572 -0.2061  1.5242  0.6078
 5714TIP3    H238778   2.936   6.759   1.513 -2.7125 -0.2553 -2.3161
 5715TIP3   OH238779   6.543   4.303   6.487 -0.2701 -0.6140 -0.7812
 5715TIP3    H138780   6.473   4.254   6.530  0.1944  0.0135  0.7939
 5715TIP3    H238781   6.617   4.244   6.487  0.4180  0.1298  1.5115
 5716TIP3   OH238782   5.361   2.265   0.300 -0.6705 -1.1772  0.5920
 5716TIP3    H138783   5.367   2.321   0.376 -0.8868 -0.4600  0.0902
 5716TIP3    H238784   5.451   2.233   0.286 -0.1388  0.5116 -0.1911
 5717TIP3   OH238785   5.437   1.352   1.457 -0.6425 -0.1094 -0.1385
 5717TIP3    H138786   5.434   1.428   1.515 -0.1633  0.5958 -1.0140
 5717TIP3    H238787   5.359   1.360   1.403 -0.5435 -0.1851 -0.2941
 5718TIP3   OH238788   6.162   5.056   7.753  1.1212 -0.1224  0.1267
 5718TIP3    H138789   6.074   5.021   7.764  1.4142 -1.3731 -1.2523
 5718TIP3    H238790   6.212   5.021   7.827  0.4060  0.9027  1.1310
 5719TIP3   OH238791   1.816   4.890   8.014 -0.0650 -0.2863 -0.0222
 5719TIP3    H138792   1.742   4.950   8.026  0.4028  0.5248 -1.0205
 5719TIP3    H238793   1.882   4.942   7.969  0.3835 -1.5400 -0.8695
 5720TIP3   OH238794   2.973   0.289   2.475 -0.2920  0.2525 -0.2593
 5720TIP3    H138795   2.967   0.295   2.379 -0.6947  1.7592 -0.1683
 5720TIP3    H238796   2.882   0.277   2.504  0.0968 -4.8933 -0.2062
 5721TIP3   OH238797   1.149   5.488   7.151  0.0716 -0.1884 -0.1424
 5721TIP3    H138798   1.119   5.579   7.157 -1.6042 -0.7270  0.1244
 5721TIP3    H238799   1.218   5.482   7.217  1.1458  1.2268 -1.0922
 5722TIP3   OH238800   1.962   3.646   0.864 -0.0072  0.2835  0.1973
 5722TIP3    H138801   1.955   3.726   0.812  2.0429  1.0526  1.0221
 5722TIP3    H238802   1.960   3.676   0.955  0.8270 -0.6028  0.5193
 5723TIP3   OH238803   1.234   4.074   8.042 -0.0028 -0.3845 -0.2266
 5723TIP3    H138804   1.326   4.052   8.026  0.0504 -0.0439 -0.3860
 5723TIP3    H238805   1.215   4.035   8.128  0.8156  1.0775  0.6579
 5724TIP3   OH238806   0.239   5.834   6.708 -0.2783  0.1078 -0.0616
 5724TIP3    H138807   0.302   5.900   6.738  1.0666 -1.1308 -0.0465
 5724TIP3    H238808   0.254   5.828   6.614 -1.5751  1.0003 -0.3417
 5725TIP3   OH238809   1.465   5.295   7.006  0.2503 -0.7050  0.9007
 5725TIP3    H138810   1.440   5.202   7.009  0.3128 -0.7594  0.0421
 5725TIP3    H238811   1.488   5.310   6.915 -0.9728  0.4865  0.7638
 5726TIP3   OH238812   5.081   2.868   1.748  0.1663 -0.3362 -0.1948
 5726TIP3    H138813   5.084   2.883   1.842 -1.9533  1.7033 -0.3683
 5726TIP3    H238814   5.032   2.942   1.713 -0.2430 -1.6985 -2.7609
 5727TIP3   OH238815   1.220   4.893   0.964  0.6488  0.7154 -0.4045
 5727TIP3    H138816   1.169   4.974   0.973  0.4578  0.4348  1.3031
 5727TIP3    H238817   1.287   4.915   0.898 -0.8753  1.4766 -1.7792
 5728TIP3   OH238818   6.736   3.436   0.184  0.9159  0.3400 -0.0084
 5728TIP3    H138819   6.820   3.398   0.157  1.5266 -0.0403  2.1993
 5728TIP3    H238820   6.672   3.367   0.166  1.6463 -0.8151  1.5271
 5729TIP3   OH238821   5.907   4.955   6.692 -0.2706 -0.4402  0.1716
 5729TIP3    H138822   5.978   4.988   6.638  1.5476 -2.6655  1.0415
 5729TIP3    H238823   5.897   5.019   6.762  0.7593  0.0111 -0.0791
 5730TIP3   OH238824   2.015   3.963   0.317 -0.3434 -0.2606 -0.2527
 5730TIP3    H138825   1.943   4.026   0.308 -0.3443 -0.2130  0.0623
 5730TIP3    H238826   1.980   3.895   0.374 -0.3229 -0.5211 -0.5514
 5731TIP3   OH238827   1.616   3.025   7.437 -0.0599  0.0456 -0.2827
 5731TIP3    H138828   1.677   2.989   7.501 -0.6664  0.4682  0.5486
 5731TIP3    H238829   1.654   3.003   7.352  0.1762 -1.5114  0.2063
 5732TIP3   OH238830   3.054   5.528   0.121 -0.1977  0.1349 -0.0052
 5732TIP3    H138831   2.999   5.577   0.061  1.0962  0.9823 -0.5579
 5732TIP3    H238832   3.089   5.595   0.181 -3.1931 -0.9185  3.2330
 5733TIP3   OH238833   3.540   2.718   0.291  0.3270  0.4178  0.3345
 5733TIP3    H138834   3.518   2.787   0.229  1.8056 -0.5146 -1.3295
 5733TIP3    H238835   3.610   2.755   0.344  0.7306  0.4149 -0.1827
 5734TIP3   OH238836   6.265   0.749   0.266  0.2697  0.2674 -0.1014
 5734TIP3    H138837   6.273   0.692   0.190 -1.9670  1.4130 -1.2779
 5734TIP3    H238838   6.256   0.837   0.230 -0.7661  0.8506  1.4606
 5735TIP3   OH238839   5.683   0.692   1.190 -0.4124  0.2520  0.0137
 5735TIP3    H138840   5.598   0.691   1.232  0.8475 -1.9464  2.8238
 5735TIP3    H238841   5.703   0.600   1.171  0.7782  0.8274 -1.9531
 5736TIP3   OH238842   2.258   1.228   6.986  0.1303  0.3530 -0.5254
 5736TIP3    H138843   2.283   1.231   6.894  0.3041  1.4421 -0.4575
 5736TIP3    H238844   2.335   1.260   7.033  0.4938 -1.3444  0.1164
 5737TIP3   OH238845   5.654   3.229   8.375 -0.1087  0.0086  0.3645
 5737TIP3    H138846   5.719   3.169   8.411 -0.4560 -0.2093  0.6380
 5737TIP3    H238847   5.702   3.282   8.312  0.3656 -0.0541  0.6704
 5738TIP3   OH238848   1.049   5.097   7.060 -0.7948  0.1261 -0.6947
 5738TIP3    H138849   1.024   5.079   6.969  0.6862 -3.4564 -0.5781
 5738TIP3    H238850   1.145   5.102   7.057 -0.6907 -0.5920  0.7144
 5739TIP3   OH238851   4.691   0.602   0.656  0.4602  0.0077  0.6195
 5739TIP3    H138852   4.720   0.666   0.722 -0.3237  1.3061 -0.2343
 5739TIP3    H238853   4.642   0.655   0.592  0.4409 -1.3471 -0.5337
 5740TIP3   OH238854   0.770   4.400   6.846  0.3506 -0.7745  0.0645
 5740TIP3    H138855   0.802   4.310   6.853 -4.1108 -2.6534 -0.4062
 5740TIP3    H238856   0.764   4.416   6.751  1.1984  0.1131  0.1413
 5741TIP3   OH238857   0.196   5.133   7.897 -0.0267  0.0156  0.6677
 5741TIP3    H138858   0.221   5.150   7.988  1.0525 -0.8588  0.5547
 5741TIP3    H238859   0.217   5.041   7.884  1.2731  0.4834 -0.9021
 5742TIP3   OH238860   3.160   2.158   2.149 -0.3349 -0.7288  0.2444
 5742TIP3    H138861   3.102   2.115   2.086  1.9312 -0.9435 -1.8497
 5742TIP3    H238862   3.202   2.086   2.197  1.7483 -0.9420 -1.6854
 5743TIP3   OH238863   4.283   6.011   0.120  0.7424  0.0906 -0.0762
 5743TIP3    H138864   4.263   6.102   0.100 -2.1258 -1.0702 -3.7926
 5743TIP3    H238865   4.235   5.961   0.053  4.4414 -4.0666 -0.0858
 5744TIP3   OH238866   5.644   3.679   1.744  0.9987  0.1629 -0.4478
 5744TIP3    H138867   5.711   3.613   1.760 -0.1007 -0.4046  2.5327
 5744TIP3    H238868   5.671   3.754   1.797  0.5523  0.8767 -1.2141
 5745TIP3   OH238869   0.849   3.577   0.527 -0.3181 -0.1718  0.1130
 5745TIP3    H138870   0.828   3.663   0.562  0.8658 -0.0866  0.6485
 5745TIP3    H238871   0.809   3.576   0.440  0.2873  1.2157 -0.2098
 5746TIP3   OH238872   2.898   1.369   6.497 -0.5280 -0.7595  0.0886
 5746TIP3    H138873   2.972   1.311   6.516  0.2890  0.9335  2.5376
 5746TIP3    H238874   2.936   1.442   6.448 -0.9343 -0.7197 -0.1737
 5747TIP3   OH238875   2.745   3.805   7.365  0.8740 -0.1847  0.2854
 5747TIP3    H138876   2.754   3.742   7.436  2.4417 -2.4671 -1.7791
 5747TIP3    H238877   2.834   3.833   7.346  0.2883  2.0379  0.5272
 5748TIP3   OH238878   3.532   2.318   7.124 -0.3580  0.6086  0.0031
 5748TIP3    H138879   3.585   2.292   7.048  2.2952  0.4321  1.7843
 5748TIP3    H238880   3.482   2.240   7.146  2.2200 -0.8716  1.0350
 5749TIP3   OH238881   1.793   4.255   1.363 -0.6092  0.5231 -0.3517
 5749TIP3    H138882   1.848   4.263   1.285 -0.5785 -1.2368 -0.5495
 5749TIP3    H238883   1.807   4.165   1.393 -0.4014  1.2367  1.8655
 5750TIP3   OH238884   0.679   2.049   0.970 -0.4656  0.1537  0.0904
 5750TIP3    H138885   0.589   2.081   0.963 -0.2296  1.0654  1.0114
 5750TIP3    H238886   0.678   1.965   0.924 -1.5309  0.6521 -0.8461
 5751TIP3   OH238887   5.832   1.239   0.750  0.6572 -0.5072  0.1006
 5751TIP3    H138888   5.860   1.175   0.684 -0.0400  0.0816 -0.7867
 5751TIP3    H238889   5.913   1.272   0.788  1.1804  0.5842 -1.8554
 5752TIP3   OH238890   0.726   4.783   7.356  0.1895 -0.0381 -0.4029
 5752TIP3    H138891   0.757   4.874   7.359 -1.1141  0.4954 -1.9364
 5752TIP3    H238892   0.763   4.748   7.274 -1.8126  0.0998 -1.4105
 5753TIP3   OH238893   1.721   0.815   1.622 -0.3022  1.0417  0.0398
 5753TIP3    H138894   1.749   0.731   1.657  1.2192  1.2809 -0.5199
 5753TIP3    H238895   1.706   0.870   1.699 -2.1118  0.0554  0.4387
 5754TIP3   OH238896   4.900   1.843   1.831 -0.3580 -0.0881  0.6147
 5754TIP3    H138897   4.943   1.757   1.837  0.7257  0.1988 -1.8419
 5754TIP3    H238898   4.953   1.900   1.886  0.3700 -0.4892  0.3438
 5755TIP3   OH238899   4.912   0.484   2.810  0.6814  0.2031 -0.1445
 5755TIP3    H138900   4.915   0.540   2.733  2.6396  1.3702  0.7367
 5755TIP3    H238901   4.980   0.518   2.868 -1.0068 -0.3551  2.3146
 5756TIP3   OH238902   0.994   5.844   0.343 -0.4400  0.1501  0.1411
 5756TIP3    H138903   0.902   5.830   0.321 -0.6603 -1.4143  1.8299
 5756TIP3    H238904   1.028   5.898   0.272 -2.2001 -0.7678 -1.4811
 5757TIP3   OH238905   2.233   3.031   6.843 -0.1756 -0.5686 -0.0728
 5757TIP3    H138906   2.325   3.045   6.819  0.3089 -0.3320  1.7811
 5757TIP3    H238907   2.235   2.957   6.904 -1.1916 -0.3597  0.2297
 5758TIP3   OH238908   4.118   0.487   7.345 -0.1654  0.3249 -0.1857
 5758TIP3    H138909   4.197   0.528   7.378  0.1247 -0.8802  0.7107
 5758TIP3    H238910   4.046   0.536   7.385  0.1468  0.7636 -0.1646
 5759TIP3   OH238911   5.427   4.387   0.080  0.1737  0.0275 -0.1137
 5759TIP3    H138912   5.505   4.332   0.088  0.9411  1.0744 -0.2622
 5759TIP3    H238913   5.401   4.406   0.170  1.8026  2.0149  0.0101
 5760TIP3   OH238914   1.541   5.599   7.063  0.3284 -0.4138 -0.2809
 5760TIP3    H138915   1.471   5.586   6.999 -0.4777 -0.3084  0.5591
 5760TIP3    H238916   1.552   5.694   7.068 -0.1961 -0.3785  0.3397
 5761TIP3   OH238917   5.384   4.740   1.149  0.0555 -0.1636  0.3140
 5761TIP3    H138918   5.318   4.722   1.083  0.5169 -0.3779 -0.0964
 5761TIP3    H238919   5.442   4.664   1.147  1.1583  0.6523 -0.3661
 5762TIP3   OH238920   0.218   2.556   2.597 -0.5550 -0.8176 -0.0932
 5762TIP3    H138921   0.183   2.599   2.675 -1.1647 -1.2924 -0.1001
 5762TIP3    H238922   0.206   2.462   2.614  3.1969 -1.2744  1.1639
 5763TIP3   OH238923   4.806   5.993   8.275  0.0303 -0.0602 -0.3719
 5763TIP3    H138924   4.719   6.029   8.291 -0.5947 -0.4689 -2.5149
 5763TIP3    H238925   4.839   6.042   8.200  2.5374  1.4488  1.5810
 5764TIP3   OH238926   1.238   1.245   7.947 -0.1334 -0.6189 -0.3989
 5764TIP3    H138927   1.301   1.251   8.020  0.7864  0.8082 -1.2575
 5764TIP3    H238928   1.283   1.191   7.882 -0.8181 -1.6101 -0.0761
 5765TIP3   OH238929   0.247   0.091   7.677  0.0170 -0.5151 -0.0793
 5765TIP3    H138930   0.270   0.018   7.619  0.5329  0.5036 -1.2064
 5765TIP3    H238931   0.233   0.050   7.762 -0.4499 -2.0247 -0.8406
 5766TIP3   OH238932   4.377   3.158   7.388  0.3020 -0.3092  0.3536
 5766TIP3    H138933   4.364   3.063   7.382  0.9175 -0.5435  2.0837
 5766TIP3    H238934   4.469   3.170   7.366  0.1897 -0.0811 -0.0009
 5767TIP3   OH238935   3.713   0.498   1.553  0.0901  0.1974  0.2674
 5767TIP3    H138936   3.663   0.429   1.597 -1.7164  0.9971 -0.3960
 5767TIP3    H238937   3.659   0.520   1.476  1.9563  0.4998 -1.0133
 5768TIP3   OH238938   5.270   0.562   1.467  0.6168 -0.1049  0.2550
 5768TIP3    H138939   5.290   0.655   1.454  0.1739 -0.1479 -0.7899
 5768TIP3    H238940   5.253   0.555   1.561 -0.0305  1.0004  0.2396
 5769TIP3   OH238941   5.914   1.875   0.329 -0.1250 -0.3967  0.3558
 5769TIP3    H138942   6.007   1.858   0.345 -0.0382  0.6929  1.2013
 5769TIP3    H238943   5.910   1.968   0.307 -0.8007 -0.8823 -1.7811
 5770TIP3   OH238944   1.810   2.164   6.726 -0.2039 -0.7246  0.1023
 5770TIP3    H138945   1.837   2.159   6.634 -1.5765 -0.8890 -0.3051
 5770TIP3    H238946   1.717   2.143   6.725 -1.0710  2.4999  1.1107
 5771TIP3   OH238947   2.902   4.386   6.871 -0.4673 -0.1814 -0.0231
 5771TIP3    H138948   2.819   4.342   6.854 -0.5595  0.1713 -0.4828
 5771TIP3    H238949   2.946   4.390   6.786  0.7036 -1.7217  0.4480
 5772TIP3   OH238950   1.738   6.210   6.219  0.0110 -0.4967  0.1982
 5772TIP3    H138951   1.669   6.272   6.197 -0.8967 -1.2089  0.9327
 5772TIP3    H238952   1.758   6.227   6.311 -0.2871 -1.3154  0.4235
 5773TIP3   OH238953   1.412   1.686   0.892 -0.0633  0.1504  0.0415
 5773TIP3    H138954   1.345   1.693   0.824  0.3765  0.5599 -0.3560
 5773TIP3    H238955   1.469   1.762   0.877 -0.1756  0.4536  1.0988
 5774TIP3   OH238956   3.660   3.011   3.038  0.5830 -0.2527 -0.1746
 5774TIP3    H138957   3.697   2.991   3.124 -0.1488  1.6112  0.6320
 5774TIP3    H238958   3.728   3.063   2.995 -0.1358  1.2899  0.4554
 5775TIP3   OH238959   2.281   2.687   7.832  0.1695  0.6117 -0.3651
 5775TIP3    H138960   2.312   2.723   7.749  0.2289 -1.2723 -1.2105
 5775TIP3    H238961   2.207   2.743   7.856  0.7587  1.7821 -1.1839
 5776TIP3   OH238962   2.181   0.546   0.901  0.0779 -0.0333  0.1014
 5776TIP3    H138963   2.254   0.552   0.839  0.4947 -0.3874  0.5513
 5776TIP3    H238964   2.170   0.634   0.935 -0.8851  0.4253 -1.2888
 5777TIP3   OH238965   6.640   4.457   8.370  0.2163 -0.0667 -0.3778
 5777TIP3    H138966   6.678   4.506   8.298 -1.4159 -0.4755 -1.5846
 5777TIP3    H238967   6.569   4.513   8.402 -0.2030 -0.6428 -0.2759
 5778TIP3   OH238968   4.066   3.484   0.506  0.0519 -0.1287 -0.1474
 5778TIP3    H138969   4.062   3.398   0.548 -1.5671  0.0978  0.2286
 5778TIP3    H238970   4.075   3.546   0.578  0.3051  0.0764 -0.3534
 5779TIP3   OH238971   0.708   4.036   7.377 -0.3958  0.1381  0.3496
 5779TIP3    H138972   0.648   4.039   7.452 -0.3596  1.6027  0.3548
 5779TIP3    H238973   0.651   4.033   7.301 -0.4630  0.4817  0.3851
 5780TIP3   OH238974   0.555   1.079   2.036  0.8122  0.5025 -0.7057
 5780TIP3    H138975   0.557   0.997   2.086  2.0570  0.6776 -0.4344
 5780TIP3    H238976   0.615   1.137   2.083 -1.8290  2.4550  0.5248
 5781TIP3   OH238977   0.447   6.251   6.408  0.0904  0.6251  0.4035
 5781TIP3    H138978   0.497   6.184   6.455 -1.6290  0.1706  1.6660
 5781TIP3    H238979   0.503   6.329   6.412  1.2859 -0.2131  0.5809
 5782TIP3   OH238980   6.421   5.261   1.649  0.3031 -0.1986 -0.2963
 5782TIP3    H138981   6.516   5.256   1.654  0.2609  0.0118  1.3739
 5782TIP3    H238982   6.394   5.174   1.620  0.9217 -0.9600  1.2931
 5783TIP3   OH238983   0.341   6.857   0.538  0.1461  0.5349  0.4006
 5783TIP3    H138984   0.284   6.904   0.598  0.5584  2.1854 -0.4310
 5783TIP3    H238985   0.293   6.854   0.455  1.4079  2.4471 -0.4741
 5784TIP3   OH238986   2.850   2.185   7.394 -0.0105  0.1800  0.0645
 5784TIP3    H138987   2.773   2.217   7.348  0.1032  0.2640 -0.0676
 5784TIP3    H238988   2.824   2.098   7.427 -0.1249  0.1646 -0.0671
 5785TIP3   OH238989   5.596   0.968   1.088  0.0735 -0.1772  0.3893
 5785TIP3    H138990   5.501   0.960   1.095 -0.0664 -0.3855 -1.2950
 5785TIP3    H238991   5.629   0.890   1.133 -0.5322 -0.1165  0.9699
 5786TIP3   OH238992   4.197   1.475   0.246  0.2786 -0.2341  0.3873
 5786TIP3    H138993   4.179   1.424   0.325 -2.1099  0.6667  0.4982
 5786TIP3    H238994   4.194   1.566   0.274 -1.2471  0.1301 -0.7965
 5787TIP3   OH238995   1.395   4.506   7.915 -0.1869  0.0702  0.3784
 5787TIP3    H138996   1.453   4.579   7.935  1.1072 -0.7870 -0.0823
 5787TIP3    H238997   1.429   4.433   7.968  1.3197 -1.3680 -2.3542
 5788TIP3   OH238998   2.224   3.539   0.729 -0.3155  1.0206 -0.2898
 5788TIP3    H138999   2.147   3.595   0.721 -0.8427  0.2706 -0.6483
 5788TIP3    H239000   2.193   3.453   0.700  1.3074  1.2373 -3.0592
 5789TIP3   OH239001   1.077   4.239   6.276  0.5680 -0.4248  0.6030
 5789TIP3    H139002   0.991   4.212   6.308  0.3365 -1.7196 -0.9989
 5789TIP3    H239003   1.058   4.303   6.207  0.9446 -0.0746  0.8142
 5790TIP3   OH239004   5.414   3.098   1.723 -0.0262  0.0479 -0.2137
 5790TIP3    H139005   5.389   3.027   1.664  1.6226 -1.5010  0.8425
 5790TIP3    H239006   5.354   3.091   1.797  1.4764 -1.7308  0.9151
 5791TIP3   OH239007   3.421   4.589   1.856  0.0192  0.2413  0.0554
 5791TIP3    H139008   3.378   4.505   1.841 -0.5830  0.8415 -1.8748
 5791TIP3    H239009   3.436   4.592   1.951 -1.2425 -1.3995  0.3477
 5792TIP3   OH239010   4.496   2.891   6.484  0.5461  0.2381  0.1481
 5792TIP3    H139011   4.446   2.882   6.403  0.3403 -0.4061  0.3413
 5792TIP3    H239012   4.523   2.802   6.506 -0.1846  0.2775  1.2822
 5793TIP3   OH239013   3.118   3.745   0.546 -0.4096  0.0329 -1.0072
 5793TIP3    H139014   3.144   3.656   0.524 -0.9897 -0.3562 -0.1617
 5793TIP3    H239015   3.059   3.736   0.621 -1.1858  1.0532 -1.4564
 5794TIP3   OH239016   6.080   4.787   2.021 -0.1130 -0.4921 -0.1305
 5794TIP3    H139017   6.004   4.794   1.963  0.5085 -1.6509 -1.1262
 5794TIP3    H239018   6.138   4.725   1.978  1.4868  0.4588  0.5454
 5795TIP3   OH239019   6.077   0.370   7.385  0.4241  0.9550 -0.0855
 5795TIP3    H139020   6.141   0.358   7.315  0.4743 -0.2535  0.1504
 5795TIP3    H239021   6.013   0.431   7.348  1.0611  1.2279 -0.7622
 5796TIP3   OH239022   6.842   4.647   7.345  0.0714  0.7188  1.0245
 5796TIP3    H139023   6.835   4.742   7.336  1.4128  0.8787  1.4365
 5796TIP3    H239024   6.834   4.631   7.439  1.3311  0.5894  1.1262
 5797TIP3   OH239025   4.216   6.642   1.526 -0.2077 -0.1870 -0.6428
 5797TIP3    H139026   4.209   6.563   1.473  0.3371 -0.0492 -0.9351
 5797TIP3    H239027   4.273   6.700   1.475  0.8428 -0.2852  0.3734
 5798TIP3   OH239028   3.249   5.505   6.976  0.1568 -0.4806  0.3327
 5798TIP3    H139029   3.225   5.450   6.901  0.0352  0.6260 -0.4742
 5798TIP3    H239030   3.235   5.595   6.945  0.2754  0.0097  1.6323
 5799TIP3   OH239031   2.959   3.189   8.298 -0.0576  0.1055  0.0469
 5799TIP3    H139032   2.898   3.123   8.265 -0.8653  0.2637  1.1805
 5799TIP3    H239033   2.949   3.263   8.238  0.4890 -0.5868 -0.9335
 5800TIP3   OH239034   6.105   0.734   6.783  0.2324  0.3581  0.3255
 5800TIP3    H139035   6.199   0.742   6.798  0.0961  0.4116  1.1664
 5800TIP3    H239036   6.073   0.683   6.857 -0.5363  1.0689  0.4927
 5801TIP3   OH239037   3.700   2.158   0.433  0.3752  0.9898 -0.5790
 5801TIP3    H139038   3.760   2.232   0.446  0.7709  0.4297  0.9916
 5801TIP3    H239039   3.756   2.086   0.407  0.5085  0.3451  1.3213
 5802TIP3   OH239040   3.951   5.224   7.770  0.1579 -0.2652  0.2040
 5802TIP3    H139041   4.020   5.291   7.769  1.0814 -1.2054  0.2349
 5802TIP3    H239042   3.995   5.143   7.795 -0.9217 -0.9313  0.0255
 5803TIP3   OH239043   0.245   6.516   2.302 -0.8064  0.5011 -0.3290
 5803TIP3    H139044   0.172   6.568   2.267 -1.2708  2.1377  2.7311
 5803TIP3    H239045   0.292   6.576   2.358  1.8016 -1.0959 -0.6591
 5804TIP3   OH239046   4.400   3.817   2.044  0.0208 -0.0542  0.2250
 5804TIP3    H139047   4.316   3.803   2.087 -0.3634 -0.5636 -0.6829
 5804TIP3    H239048   4.440   3.731   2.039  0.0148 -0.0246 -0.5183
 5805TIP3   OH239049   4.255   4.078   1.141 -0.3113 -0.7027 -0.0470
 5805TIP3    H139050   4.259   4.174   1.146 -0.7860 -0.6979  0.3807
 5805TIP3    H239051   4.253   4.050   1.233  2.6397 -1.2893 -0.0653
 5806TIP3   OH239052   4.776   3.671   1.351  0.4125 -0.3808  0.3338
 5806TIP3    H139053   4.839   3.707   1.289  0.0375  2.0588  1.2540
 5806TIP3    H239054   4.695   3.719   1.335 -1.0006 -2.7513 -0.1480
 5807TIP3   OH239055   2.760   0.410   2.278 -0.9465  0.4823 -0.5412
 5807TIP3    H139056   2.850   0.405   2.244 -1.1144  0.7549 -1.0347
 5807TIP3    H239057   2.730   0.497   2.252 -0.9289  0.8871  0.6989
 5808TIP3   OH239058   6.352   4.864   6.913 -0.0444 -0.1114  0.4071
 5808TIP3    H139059   6.441   4.840   6.890  0.1212 -0.0075  0.9172
 5808TIP3    H239060   6.331   4.808   6.988 -0.2857  0.0918  0.4926
 5809TIP3   OH239061   0.810   3.543   7.594 -0.1716  0.2698 -0.3148
 5809TIP3    H139062   0.903   3.564   7.586  0.2356 -1.5228 -0.7290
 5809TIP3    H239063   0.770   3.582   7.517  0.4283  0.0833 -0.7272
 5810TIP3   OH239064   6.070   2.227   6.738  0.1608 -0.1410 -0.2775
 5810TIP3    H139065   6.088   2.133   6.732 -0.1143 -0.2566  0.6237
 5810TIP3    H239066   5.983   2.232   6.778  0.1359  0.5022 -0.3999
 5811TIP3   OH239067   3.818   6.644   1.695 -0.1432  0.0862  0.2659
 5811TIP3    H139068   3.848   6.647   1.603  0.1511  1.3179  0.3850
 5811TIP3    H239069   3.896   6.617   1.744  0.0261  0.6074  0.2830
 5812TIP3   OH239070   4.514   2.219   6.466 -0.2365  0.0730 -0.0793
 5812TIP3    H139071   4.481   2.172   6.543  0.3114  0.5636  0.4622
 5812TIP3    H239072   4.485   2.166   6.392  0.5299 -1.2240  0.5209
 5813TIP3   OH239073   4.014   1.800   0.620  0.4196 -0.0972 -0.1273
 5813TIP3    H139074   4.033   1.709   0.640  2.0189  0.0687 -0.7143
 5813TIP3    H239075   3.930   1.798   0.573  0.1708 -1.1880  0.3430
 5814TIP3   OH239076   6.325   2.766   0.135 -0.2481 -0.0641 -0.2954
 5814TIP3    H139077   6.413   2.757   0.100  0.2906  0.6161  0.8459
 5814TIP3    H239078   6.314   2.691   0.194 -0.7990 -0.6726 -1.1436
 5815TIP3   OH239079   1.525   3.785   7.569 -0.3620 -0.1377 -0.7992
 5815TIP3    H139080   1.464   3.792   7.495  1.2168 -1.2601 -2.2945
 5815TIP3    H239081   1.489   3.716   7.624 -1.5970  0.7582 -0.4519
 5816TIP3   OH239082   6.348   6.482   0.987 -0.4666 -0.7718  0.7079
 5816TIP3    H139083   6.365   6.576   0.988 -0.4684 -0.6951 -1.5589
 5816TIP3    H239084   6.425   6.444   0.946 -1.6701 -1.4007 -1.0825
 5817TIP3   OH239085   2.506   6.364   1.292  0.6179  0.1629  0.0693
 5817TIP3    H139086   2.581   6.413   1.326 -0.8694  2.2054  0.5420
 5817TIP3    H239087   2.448   6.353   1.367 -1.8976  3.1726 -1.2218
 5818TIP3   OH239088   2.105   0.551   0.487  0.6606  0.3016  0.2922
 5818TIP3    H139089   2.129   0.459   0.484 -0.6800 -0.0608 -1.6113
 5818TIP3    H239090   2.031   0.554   0.548 -0.7568 -0.3304 -1.3240
 5819TIP3   OH239091   4.473   0.800   0.007  0.1282 -0.3081 -0.5856
 5819TIP3    H139092   4.403   0.863   0.024  0.1924 -1.0067  3.3701
 5819TIP3    H239093   4.553   0.846   0.030  0.5329 -0.7763 -1.0357
 5820TIP3   OH239094   0.116   4.541   8.144 -0.1686 -0.3382  0.1612
 5820TIP3    H139095   0.124   4.603   8.216  0.6662 -0.4802  0.2021
 5820TIP3    H239096   0.194   4.557   8.091  0.4930 -1.9106  0.6157
 5821TIP3   OH239097   0.603   5.157   6.845  0.4021 -0.0297 -0.1841
 5821TIP3    H139098   0.541   5.106   6.794 -1.0316  1.1085  0.3285
 5821TIP3    H239099   0.587   5.248   6.818  2.6585  0.2333 -0.8630
 5822TIP3   OH239100   5.644   6.608   1.331 -0.8305 -0.9208  0.6278
 5822TIP3    H139101   5.602   6.667   1.394 -1.1596 -1.5286  0.9856
 5822TIP3    H239102   5.578   6.542   1.312 -0.5837 -0.9818 -0.0353
 5823TIP3   OH239103   2.921   1.473   0.057  0.3572  0.5901  0.0775
 5823TIP3    H139104   2.840   1.429   0.029  0.1632 -0.0875  1.5852
 5823TIP3    H239105   2.900   1.566   0.055 -0.1163  0.4750 -0.5462
 5824TIP3   OH239106   6.257   6.032   7.477  0.3376 -0.4392  0.5000
 5824TIP3    H139107   6.195   5.966   7.445 -0.6556  1.0089 -0.6757
 5824TIP3    H239108   6.264   6.095   7.406  1.8297  0.3616  1.3102
 5825TIP3   OH239109   6.403   2.132   8.435 -0.0863  0.2038 -0.0897
 5825TIP3    H139110   6.308   2.128   8.421 -0.1938 -4.0052  0.5678
 5825TIP3    H239111   6.413   2.139   8.529  0.2836  0.8485 -0.1740
 5826TIP3   OH239112   1.162   2.906   1.078 -0.2759  0.1155  0.0683
 5826TIP3    H139113   1.244   2.860   1.055 -0.8858 -0.0056 -2.0341
 5826TIP3    H239114   1.161   2.904   1.174  1.9503 -0.2944  0.1551
 5827TIP3   OH239115   3.782   5.034   7.609 -0.5112  0.6494  0.4001
 5827TIP3    H139116   3.816   5.105   7.663  0.9392  0.1863  0.1256
 5827TIP3    H239117   3.798   4.955   7.661  1.0803  0.1778 -0.7566
 5828TIP3   OH239118   4.229   5.941   6.965  0.0543 -0.2501 -0.0571
 5828TIP3    H139119   4.190   5.968   6.882 -1.3718 -1.0972  0.3060
 5828TIP3    H239120   4.298   5.880   6.941  1.8100  1.8923 -0.7619
 5829TIP3   OH239121   3.014   6.751   0.219 -0.1050  0.5426  0.0758
 5829TIP3    H139122   2.947   6.813   0.250 -0.7875  0.3400 -0.9170
 5829TIP3    H239123   2.964   6.687   0.168  0.8636  0.4962 -0.8517
 5830TIP3   OH239124   3.947   2.735   0.907 -0.3903  0.1945 -0.6297
 5830TIP3    H139125   3.957   2.640   0.914 -0.1240  0.2387 -0.3588
 5830TIP3    H239126   3.987   2.757   0.822  0.7725  0.2170 -0.1013
 5831TIP3   OH239127   6.534   2.139   1.389  0.2684 -0.0634  0.5336
 5831TIP3    H139128   6.629   2.130   1.403  0.3350  1.2448  1.1205
 5831TIP3    H239129   6.526   2.202   1.318 -0.1719 -0.4055  0.2743
 5832TIP3   OH239130   1.165   1.564   8.376  0.1669  0.1129 -0.0283
 5832TIP3    H139131   1.081   1.558   8.331  0.3952 -3.4179 -0.3114
 5832TIP3    H239132   1.145   1.610   8.458 -2.1268 -0.8096  0.0061
 5833TIP3   OH239133   5.900   3.598   0.870 -0.1719 -0.0430  0.7032
 5833TIP3    H139134   5.826   3.572   0.924 -0.6967  0.5702  0.2929
 5833TIP3    H239135   5.945   3.666   0.921 -0.7166  0.5970  0.3386
 5834TIP3   OH239136   5.005   5.187   7.649 -0.0956  0.4435  0.0515
 5834TIP3    H139137   5.046   5.243   7.583 -0.5448  1.7308  0.8254
 5834TIP3    H239138   4.962   5.248   7.709 -0.5101 -0.7352  0.9994
 5835TIP3   OH239139   2.882   5.391   1.358  0.0195  0.0509 -0.1705
 5835TIP3    H139140   2.829   5.312   1.366 -0.0830  0.1932  0.5952
 5835TIP3    H239141   2.971   5.363   1.382 -0.0495  0.2037  0.2665
 5836TIP3   OH239142   4.567   6.799   8.377  0.1764  0.1198 -0.0433
 5836TIP3    H139143   4.513   6.754   8.442  0.3023  0.3503  0.2212
 5836TIP3    H239144   4.510   6.866   8.339 -0.4723 -1.1674 -1.4593
 5837TIP3   OH239145   5.760   6.628   7.272  0.3283 -0.3536  0.2808
 5837TIP3    H139146   5.709   6.709   7.268  0.5531 -0.1642  1.2199
 5837TIP3    H239147   5.733   6.580   7.193  0.0377  0.5319 -0.1726
 5838TIP3   OH239148   3.665   0.998   0.212  0.2555  0.1766  0.4449
 5838TIP3    H139149   3.674   1.094   0.209  1.5395  0.1333  1.6314
 5838TIP3    H239150   3.755   0.966   0.208 -0.0532 -0.9093  1.5345
 5839TIP3   OH239151   5.160   4.483   1.446 -0.1727  0.0070 -0.7110
 5839TIP3    H139152   5.152   4.553   1.381  0.4208  0.8751  0.1204
 5839TIP3    H239153   5.254   4.476   1.462 -0.1359 -1.6193 -1.4259
 5840TIP3   OH239154   4.065   6.509   7.592  0.2256  0.8176 -0.2205
 5840TIP3    H139155   3.969   6.511   7.591  0.1136 -1.6394 -1.4540
 5840TIP3    H239156   4.087   6.476   7.680 -0.2665 -1.4946 -0.8922
 5841TIP3   OH239157   5.987   5.309   7.805  0.0827  0.0346 -0.1268
 5841TIP3    H139158   6.052   5.241   7.787 -1.1730 -0.6102 -2.5679
 5841TIP3    H239159   5.922   5.266   7.860 -0.0605 -0.3663 -0.6038
 5842TIP3   OH239160   5.815   6.487   1.891  0.1375 -0.2679 -0.2240
 5842TIP3    H139161   5.865   6.564   1.918  0.4923 -1.4842  3.0433
 5842TIP3    H239162   5.736   6.490   1.943  0.5126 -2.4670  0.5780
 5843TIP3   OH239163   2.766   5.471   6.848  0.0992  0.5936 -0.3277
 5843TIP3    H139164   2.766   5.492   6.941  2.5522 -0.0024 -0.1371
 5843TIP3    H239165   2.747   5.377   6.844  1.4592  0.2996 -0.2921
 5844TIP3   OH239166   3.533   6.085   0.942 -0.3772 -0.2111 -0.2150
 5844TIP3    H139167   3.615   6.096   0.989 -0.1930  0.0000 -0.5838
 5844TIP3    H239168   3.530   6.158   0.880 -1.0552  0.0469  0.1066
 5845TIP3   OH239169   5.180   0.625   0.171  0.1079 -0.0574 -0.6571
 5845TIP3    H139170   5.130   0.687   0.118  0.3665 -0.5353 -1.4643
 5845TIP3    H239171   5.225   0.569   0.108  0.0594 -0.9317  0.0600
 5846TIP3   OH239172   3.862   6.466   0.060  0.3230 -0.2826  0.4965
 5846TIP3    H139173   3.823   6.401   0.002  1.9847 -1.6852  0.8554
 5846TIP3    H239174   3.810   6.460   0.140  0.4556 -1.2112  0.5283
 5847TIP3   OH239175   6.450   4.669   1.757 -0.6712 -0.2190  0.2000
 5847TIP3    H139176   6.528   4.723   1.743  0.1919 -1.4402  0.0894
 5847TIP3    H239177   6.420   4.693   1.844 -1.2104  1.4994 -0.4148
 5848TIP3   OH239178   2.303   0.373   8.157 -0.0979 -0.3582 -0.2843
 5848TIP3    H139179   2.259   0.296   8.193 -1.7581  1.1680  1.0534
 5848TIP3    H239180   2.252   0.396   8.079  0.8920 -1.0322 -1.1785
 5849TIP3   OH239181   0.172   5.209   1.469 -0.1826 -0.5706  0.6423
 5849TIP3    H139182   0.158   5.120   1.502  0.1549 -1.0313 -0.4243
 5849TIP3    H239183   0.116   5.214   1.391 -0.8008  0.4233  1.1335
 5850TIP3   OH239184   1.367   0.944   0.515  0.2448 -0.4044 -0.2545
 5850TIP3    H139185   1.440   0.979   0.464 -0.3387 -0.4495 -1.1410
 5850TIP3    H239186   1.300   0.924   0.450 -0.2092 -1.2444  0.4514
 5851TIP3   OH239187   4.891   0.467   1.417 -0.1618  0.2228  0.5270
 5851TIP3    H139188   4.920   0.550   1.454  1.0036  0.0728 -0.0121
 5851TIP3    H239189   4.972   0.422   1.393 -0.7440 -1.2757  1.2513
 5852TIP3   OH239190   2.690   0.348   6.823 -0.1385 -0.3071 -0.4821
 5852TIP3    H139191   2.644   0.305   6.896  0.8653 -0.7683 -0.0957
 5852TIP3    H239192   2.719   0.276   6.767 -0.8031  0.0410 -1.2957
 5853TIP3   OH239193   3.173   2.835   7.965 -0.0210 -0.2857  0.3153
 5853TIP3    H139194   3.112   2.783   7.913  0.2153  0.8451 -1.1799
 5853TIP3    H239195   3.252   2.782   7.969 -0.1821 -0.5651 -0.1368
 5854TIP3   OH239196   5.818   6.144   0.994  0.0879 -0.1808 -0.2649
 5854TIP3    H139197   5.801   6.238   0.982  0.8142  0.1254  0.9313
 5854TIP3    H239198   5.792   6.105   0.910  1.2629  1.2980 -1.3947
 5855TIP3   OH239199   2.983   0.623   2.116  0.5719  0.2739  0.2079
 5855TIP3    H139200   3.056   0.576   2.076 -0.1038  0.3042 -1.1346
 5855TIP3    H239201   3.011   0.715   2.117  0.8685  0.1823  0.4606
 5856TIP3   OH239202   0.146   0.193   0.212 -0.5509 -0.2657  0.3523
 5856TIP3    H139203   0.166   0.273   0.260 -0.0357 -1.4849  2.2958
 5856TIP3    H239204   0.063   0.211   0.169 -0.6665  1.1572  1.1074
 5857TIP3   OH239205   6.717   4.548   1.325  0.1158  0.2723  0.4365
 5857TIP3    H139206   6.739   4.512   1.412 -2.0520 -0.8367  0.5847
 5857TIP3    H239207   6.623   4.562   1.328  0.3201  2.3444 -1.0273
 5858TIP3   OH239208   2.557   0.211   7.021  0.0111  0.2500  0.2178
 5858TIP3    H139209   2.578   0.119   7.007 -0.8858  0.2594 -1.4683
 5858TIP3    H239210   2.539   0.217   7.115  0.5714 -1.1784  0.4428
 5859TIP3   OH239211   2.759   2.314   1.466  0.6213 -0.1606  0.5474
 5859TIP3    H139212   2.726   2.358   1.388  2.1429 -1.5967 -0.9811
 5859TIP3    H239213   2.703   2.346   1.537 -0.8495  1.1469 -1.1165
 5860TIP3   OH239214   3.922   3.115   0.762  0.1348  0.1998 -0.0760
 5860TIP3    H139215   3.902   3.177   0.833 -0.5532 -1.0984  0.9025
 5860TIP3    H239216   3.849   3.124   0.701  0.1246  0.4661 -0.0255
 5861TIP3   OH239217   4.181   3.867   0.130 -0.0167 -0.2113 -0.3427
 5861TIP3    H139218   4.107   3.841   0.184  0.2656  0.6158  0.4694
 5861TIP3    H239219   4.143   3.925   0.063 -0.2360 -0.5259 -0.4892
 5862TIP3   OH239220   3.666   3.584   6.521 -0.2162  0.6060 -0.2732
 5862TIP3    H139221   3.630   3.611   6.437  2.4918 -0.5863 -1.9459
 5862TIP3    H239222   3.756   3.614   6.520  0.1646 -0.2660  1.8324
 5863TIP3   OH239223   4.949   2.969   0.731 -0.3893 -0.0078  0.2216
 5863TIP3    H139224   4.990   3.018   0.802 -2.1591  2.1661 -0.1490
 5863TIP3    H239225   4.892   2.906   0.774 -0.2544  0.2166  0.7313
 5864TIP3   OH239226   0.600   3.903   1.466 -0.6696 -0.2344  0.0629
 5864TIP3    H139227   0.574   3.984   1.511  0.6639  0.0499  0.3656
 5864TIP3    H239228   0.550   3.834   1.511 -2.2235  0.4451 -0.5478
 5865TIP3   OH239229   1.019   5.270   7.530 -0.7044  0.1659 -0.0307
 5865TIP3    H139230   1.114   5.276   7.520 -0.6611  0.0875  0.3092
 5865TIP3    H239231   1.006   5.257   7.624 -1.1756  2.7370  0.3270
 5866TIP3   OH239232   0.825   2.436   6.720 -0.3610 -0.1348 -0.8037
 5866TIP3    H139233   0.911   2.402   6.692 -0.4746 -0.7962 -0.3698
 5866TIP3    H239234   0.778   2.452   6.639  0.2372  0.4208 -1.0560
 5867TIP3   OH239235   3.228   6.615   8.134  0.7655 -0.2754  0.5633
 5867TIP3    H139236   3.295   6.680   8.155  0.8441 -0.5984  1.3719
 5867TIP3    H239237   3.155   6.636   8.193  0.2059 -0.0242 -0.1967
 5868TIP3   OH239238   5.648   0.501   1.553  0.2034  0.3392 -0.0850
 5868TIP3    H139239   5.666   0.593   1.575  0.6421  0.4807 -0.9785
 5868TIP3    H239240   5.608   0.505   1.466  0.9103 -0.3609 -0.4519
 5869TIP3   OH239241   6.111   0.541   1.353 -0.5816 -0.3098 -0.6892
 5869TIP3    H139242   6.151   0.590   1.425 -0.2559 -2.0941  0.4144
 5869TIP3    H239243   6.174   0.547   1.281  0.1248 -0.3017 -0.0815
 5870TIP3   OH239244   5.152   4.903   7.950 -0.0801  0.8097  0.3876
 5870TIP3    H139245   5.214   4.871   7.884  0.3851  0.8706  0.7877
 5870TIP3    H239246   5.067   4.900   7.907  0.2854  1.3639 -0.4000
 5871TIP3   OH239247   0.069   2.974   2.368 -0.4853  0.3633 -0.1457
 5871TIP3    H139248   0.086   3.030   2.443 -2.2447 -0.8423  1.2264
 5871TIP3    H239249   0.147   2.920   2.359  0.1379  1.2032  0.1766
 5872TIP3   OH239250   6.083   4.181   1.313  0.3126  0.6552 -0.3153
 5872TIP3    H139251   6.021   4.151   1.246  1.1425  0.5765 -1.0599
 5872TIP3    H239252   6.169   4.175   1.271  0.6289  2.9816 -0.1001
 5873TIP3   OH239253   6.889   1.301   0.181  0.3494  0.4351 -0.1555
 5873TIP3    H139254   6.953   1.320   0.249  0.3893  0.9415 -0.3318
 5873TIP3    H239255   6.936   1.314   0.099 -0.1850  1.6229 -0.3039
 5874TIP3   OH239256   5.400   4.097   8.284  0.2340 -0.1306 -0.3406
 5874TIP3    H139257   5.490   4.078   8.261 -0.7090 -1.6572 -3.1693
 5874TIP3    H239258   5.397   4.090   8.380  3.1714  0.5185 -0.1287
 5875TIP3   OH239259   0.824   2.587   2.273 -0.3351 -0.5426 -0.1782
 5875TIP3    H139260   0.802   2.680   2.273 -1.1196 -0.6724 -2.5900
 5875TIP3    H239261   0.893   2.579   2.339 -0.9499  1.5483  0.8113
 5876TIP3   OH239262   2.870   2.600   1.078  0.2333 -0.5071 -0.2167
 5876TIP3    H139263   2.922   2.651   1.140  0.0424  1.6129 -1.7085
 5876TIP3    H239264   2.783   2.641   1.080  0.3766 -0.0046 -2.2515
 5877TIP3   OH239265   0.477   4.108   6.662 -0.4665 -0.0409 -0.2084
 5877TIP3    H139266   0.487   4.089   6.755  0.2308 -1.0052 -0.4638
 5877TIP3    H239267   0.416   4.041   6.630 -0.2496 -0.0708 -0.5621
 5878TIP3   OH239268   4.332   4.970   0.038 -0.2107  0.4188  0.1920
 5878TIP3    H139269   4.409   4.956  -0.018  0.6932 -1.9897  1.8524
 5878TIP3    H239270   4.362   5.029   0.107 -0.1283  0.2766  0.2798
 5879TIP3   OH239271   6.799   6.210   6.846  0.0895  0.3784  0.3472
 5879TIP3    H139272   6.833   6.122   6.858  1.0562  0.7650  0.5291
 5879TIP3    H239273   6.704   6.198   6.837  0.2323 -0.6923  0.1264
 5880TIP3   OH239274   3.837   5.651   0.223 -0.5476  0.0733 -0.0014
 5880TIP3    H139275   3.821   5.648   0.128 -1.7222 -0.2566  0.1983
 5880TIP3    H239276   3.755   5.621   0.262  0.0705 -0.1957  1.1168
 5881TIP3   OH239277   6.041   3.450   1.836  0.1654  0.5889 -0.2052
 5881TIP3    H139278   5.954   3.488   1.825 -0.1302  0.0899  0.3226
 5881TIP3    H239279   6.067   3.426   1.747 -0.9167 -0.6796 -0.2171
 5882TIP3   OH239280   3.159   2.790   0.316  0.0175  0.1362 -0.0548
 5882TIP3    H139281   3.183   2.706   0.356  1.3862  0.8349  0.6638
 5882TIP3    H239282   3.100   2.766   0.244 -0.3444 -1.3633  0.6917
 5883TIP3   OH239283   5.602   3.618   0.720 -0.0448  0.3534  0.0176
 5883TIP3    H139284   5.615   3.705   0.757  1.8820  0.8366 -1.6260
 5883TIP3    H239285   5.547   3.633   0.643 -1.5853 -0.2435  0.9525
 5884TIP3   OH239286   1.288   0.176   2.136  0.2766  0.0279 -0.0965
 5884TIP3    H139287   1.275   0.082   2.121 -0.0224 -0.2751  1.8243
 5884TIP3    H239288   1.203   0.215   2.121 -0.0320 -0.2752  0.7950
 5885TIP3   OH239289   2.389   2.232   7.320  0.0361 -0.5184 -1.5758
 5885TIP3    H139290   2.338   2.259   7.243 -0.4929 -2.5552 -1.9970
 5885TIP3    H239291   2.365   2.141   7.334  1.9380 -0.8981 -0.4187
 5886TIP3   OH239292   5.519   5.542   1.088  0.0433 -0.7030  0.2223
 5886TIP3    H139293   5.602   5.558   1.044 -0.6339  1.3267 -0.4557
 5886TIP3    H239294   5.518   5.606   1.160 -1.0474 -0.4675  0.0137
 5887TIP3   OH239295   0.130   4.657   7.760  0.0625 -0.2407 -0.6724
 5887TIP3    H139296   0.166   4.741   7.789  0.9312 -0.5309 -0.8539
 5887TIP3    H239297   0.204   4.614   7.716 -0.1518 -1.4078  0.0637
 5888TIP3   OH239298   6.543   4.039   8.134  0.0709  0.3315 -0.2378
 5888TIP3    H139299   6.458   3.997   8.118  0.0578 -0.3279  1.4007
 5888TIP3    H239300   6.602   3.967   8.155  0.7590  0.9006 -0.1726
 5889TIP3   OH239301   1.889   1.694   2.114 -0.3279  0.1642 -0.5873
 5889TIP3    H139302   1.927   1.779   2.138 -0.0887  0.0125 -0.4214
 5889TIP3    H239303   1.894   1.643   2.194  1.8870 -0.8731 -1.3099
 5890TIP3   OH239304   5.816   6.266   1.724 -0.4404  0.3729 -0.0753
 5890TIP3    H139305   5.842   6.344   1.773 -0.7159  0.5669 -0.2359
 5890TIP3    H239306   5.735   6.291   1.679 -0.7312 -0.1239  0.1640
 5891TIP3   OH239307   0.598   1.303   1.818  0.7733  0.1759 -0.1942
 5891TIP3    H139308   0.677   1.325   1.866  0.2450  1.3016  0.1887
 5891TIP3    H239309   0.568   1.386   1.780 -1.6846  0.3865  1.9139
 5892TIP3   OH239310   5.522   2.710   0.374  0.3769  0.0998  0.2703
 5892TIP3    H139311   5.608   2.750   0.382  0.4293 -0.1082  0.8022
 5892TIP3    H239312   5.461   2.778   0.403  0.1739  0.9570 -1.9844
 5893TIP3   OH239313   5.583   2.444   2.739 -0.1991 -0.1730 -0.2946
 5893TIP3    H139314   5.608   2.522   2.689  0.4497  0.1481  0.5123
 5893TIP3    H239315   5.508   2.408   2.691  0.2702  0.2402 -1.3713
 5894TIP3   OH239316   5.007   5.540   0.348  0.3157  0.3553 -0.2404
 5894TIP3    H139317   4.978   5.542   0.257  0.5063 -0.2720 -0.3251
 5894TIP3    H239318   4.941   5.590   0.396 -1.7124 -2.1018 -0.2141
 5895TIP3   OH239319   4.361   4.132   0.840 -0.1985  0.1025 -0.0208
 5895TIP3    H139320   4.342   4.091   0.924 -1.0543  1.3770  0.4448
 5895TIP3    H239321   4.446   4.097   0.814 -0.4028 -1.1040  0.8566
 5896TIP3   OH239322   4.689   5.309   7.928 -0.3428  0.5288 -0.0698
 5896TIP3    H139323   4.601   5.312   7.889 -0.5201  0.4909  0.3211
 5896TIP3    H239324   4.747   5.342   7.859 -0.7558  1.2650 -0.0797
 5897TIP3   OH239325   3.968   2.514   2.034  0.1345  0.1979  0.3411
 5897TIP3    H139326   3.924   2.599   2.032 -0.4755 -0.1199 -0.8824
 5897TIP3    H239327   4.022   2.516   2.113 -1.5883  0.8623  1.5661
 5898TIP3   OH239328   4.245   0.901   1.554  0.7550  0.5102  0.1220
 5898TIP3    H139329   4.251   0.864   1.641 -0.1635 -1.9799 -0.7881
 5898TIP3    H239330   4.316   0.860   1.505 -0.1582  0.0644 -0.8703
 5899TIP3   OH239331   4.529   6.031   8.353  0.1627  0.0805  0.2616
 5899TIP3    H139332   4.554   5.938   8.352 -0.0197  0.0211 -1.4339
 5899TIP3    H239333   4.434   6.030   8.344 -0.2246  0.4080  3.1875
 5900TIP3   OH239334   2.612   4.172   7.977 -0.0709  0.0203 -0.2231
 5900TIP3    H139335   2.621   4.258   8.018 -0.1096 -0.4368  0.7863
 5900TIP3    H239336   2.596   4.190   7.885 -0.1375  1.0948 -0.0082
 5901TIP3   OH239337   5.716   2.791   8.327  0.1795  0.1617  0.7885
 5901TIP3    H139338   5.647   2.746   8.279  0.7140 -0.2659  0.3975
 5901TIP3    H239339   5.771   2.831   8.259  2.5841 -2.8021  0.7434
 5902TIP3   OH239340   0.106   0.566   8.268 -0.1309 -0.1838 -0.2165
 5902TIP3    H139341   0.153   0.620   8.203  1.9672 -0.2898  1.1199
 5902TIP3    H239342   0.058   0.629   8.321  0.2172  0.1532 -0.2952
 5903TIP3   OH239343   6.882   6.638   2.382  0.0462 -0.1778  0.7811
 5903TIP3    H139344   6.928   6.560   2.413  0.3590 -0.8983 -1.3684
 5903TIP3    H239345   6.936   6.671   2.310 -1.1579  0.8082  0.2964
 5904TIP3   OH239346   0.744   5.259   2.453  0.1524 -0.0410  1.0613
 5904TIP3    H139347   0.756   5.195   2.522  0.7342  0.6285  1.5975
 5904TIP3    H239348   0.747   5.344   2.498 -0.2103  0.3754  0.3186
 5905TIP3   OH239349   4.863   4.612   1.397 -0.2036  0.1837  0.0349
 5905TIP3    H139350   4.813   4.597   1.317  0.1850  1.9823 -0.5859
 5905TIP3    H239351   4.948   4.644   1.366  0.7723 -1.2282  1.1136
 5906TIP3   OH239352   5.717   4.728   8.096  0.5488 -0.2140 -0.1408
 5906TIP3    H139353   5.656   4.763   8.031  0.9569  0.6926 -0.0503
 5906TIP3    H239354   5.774   4.669   8.045  1.3824  1.1073 -0.7998
 5907TIP3   OH239355   6.122   0.292   0.704  0.2580 -0.0026  0.0441
 5907TIP3    H139356   6.082   0.352   0.766 -0.8020 -0.2212 -0.3963
 5907TIP3    H239357   6.104   0.330   0.618  0.3278 -0.4931 -0.1957
 5908TIP3   OH239358   1.760   0.651   1.363 -0.8054  0.3542 -0.3856
 5908TIP3    H139359   1.720   0.734   1.389  0.3744  0.8760 -0.1476
 5908TIP3    H239360   1.854   0.665   1.377 -0.7235 -1.6995  1.5557
 5909TIP3   OH239361   6.917   2.449   6.523  0.2625  0.0474 -0.2963
 5909TIP3    H139362   6.932   2.526   6.577 -1.5969  1.4438 -1.5921
 5909TIP3    H239363   6.953   2.473   6.437 -0.3475 -0.4964 -0.7162
 5910TIP3   OH239364   5.980   0.953   8.148  0.0940 -0.1265 -0.5992
 5910TIP3    H139365   6.066   0.966   8.109 -0.0285 -2.0372 -1.5750
 5910TIP3    H239366   5.931   1.032   8.124  0.7924 -0.1592 -2.2340
 5911TIP3   OH239367   5.975   5.151   0.096  0.1614 -0.4640 -0.1237
 5911TIP3    H139368   5.996   5.117   0.010  0.8969  0.9663 -0.5483
 5911TIP3    H239369   6.052   5.132   0.150 -0.7291 -2.3599  0.5833
 5912TIP3   OH239370   1.664   4.028   7.486  0.2051  0.2608 -0.5458
 5912TIP3    H139371   1.617   3.959   7.533 -2.1092  2.2757  0.2911
 5912TIP3    H239372   1.708   3.981   7.415 -0.8101 -2.1470  0.2739
 5913TIP3   OH239373   4.922   5.374   6.687  0.0846  0.3381  0.3808
 5913TIP3    H139374   4.993   5.335   6.637  1.0108  0.7057  1.3677
 5913TIP3    H239375   4.882   5.437   6.626  1.4598  1.0874  0.2077
 5914TIP3   OH239376   2.110   5.412   0.880 -0.2787 -0.0615  0.1831
 5914TIP3    H139377   2.182   5.372   0.831 -0.0524  0.6401 -0.0682
 5914TIP3    H239378   2.049   5.340   0.896  0.1179 -0.5048 -0.2628
 5915TIP3   OH239379   0.560   4.279   8.307  0.6303  0.1635 -0.7314
 5915TIP3    H139380   0.606   4.205   8.267 -1.6623 -1.2939 -0.8869
 5915TIP3    H239381   0.512   4.239   8.380 -1.2445  1.3288 -1.2712
 5916TIP3   OH239382   2.109   1.005   6.166  0.0853  0.6557 -0.2193
 5916TIP3    H139383   2.172   1.037   6.231 -0.5389  1.1014  0.1791
 5916TIP3    H239384   2.135   0.914   6.151 -0.5956  0.0869  1.7217
 5917TIP3   OH239385   1.489   2.205   7.827 -0.4047  0.1183 -0.4682
 5917TIP3    H139386   1.522   2.195   7.738 -1.3081  3.5118 -1.3450
 5917TIP3    H239387   1.532   2.283   7.861 -1.4153 -0.0678  1.4398
 5918TIP3   OH239388   3.085   6.764   0.782 -0.5190  0.1125 -0.4000
 5918TIP3    H139389   3.098   6.675   0.751 -1.1470 -0.4361  0.8534
 5918TIP3    H239390   3.165   6.810   0.757  0.6400 -1.2802  0.5741
 5919TIP3   OH239391   6.411   0.417   0.943  0.3938  0.4092  0.2566
 5919TIP3    H139392   6.456   0.473   0.879  1.2647  0.4416  0.8820
 5919TIP3    H239393   6.345   0.371   0.892 -1.7228  3.4284  0.0054
 5920TIP3   OH239394   4.597   6.834   7.801 -0.7100 -0.2291  0.0047
 5920TIP3    H139395   4.669   6.829   7.739  0.7389 -0.5330  1.6174
 5920TIP3    H239396   4.569   6.926   7.798 -0.2358 -0.1004 -0.6221
 5921TIP3   OH239397   5.047   1.001   0.661 -0.4188  0.3146  0.2322
 5921TIP3    H139398   5.064   1.066   0.593 -1.6217 -1.9768 -2.4557
 5921TIP3    H239399   4.954   1.011   0.681 -0.8661 -1.1079 -0.9347
 5922TIP3   OH239400   2.795   6.711   6.809 -0.2104  0.5148 -0.0833
 5922TIP3    H139401   2.815   6.618   6.822  1.2408  0.4738 -2.1797
 5922TIP3    H239402   2.716   6.712   6.756  0.9984  0.3574 -1.9811
 5923TIP3   OH239403   0.422   2.839   7.082  0.3330 -0.6640  0.2385
 5923TIP3    H139404   0.334   2.828   7.116 -0.2980  0.0834 -1.0752
 5923TIP3    H239405   0.410   2.850   6.988  1.7712  0.1499  0.1259
 5924TIP3   OH239406   3.181   3.097   7.990  0.2490  0.5494  0.2425
 5924TIP3    H139407   3.184   3.002   7.996 -0.2717  0.5052 -0.1042
 5924TIP3    H239408   3.258   3.127   8.037 -0.0431 -0.0124  1.1008
 5925TIP3   OH239409   6.823   3.664   0.899  0.3203  0.2082 -0.1163
 5925TIP3    H139410   6.810   3.709   0.816 -0.0925  1.7007  0.7140
 5925TIP3    H239411   6.741   3.677   0.947  0.8893  0.2314  0.8968
 5926TIP3   OH239412   5.831   1.165   8.062 -0.4878  0.1052 -0.4795
 5926TIP3    H139413   5.826   1.260   8.054 -0.1987 -0.0256 -3.1513
 5926TIP3    H239414   5.781   1.131   7.988  1.9122 -1.7539 -1.3938
 5927TIP3   OH239415   0.972   1.146   7.217 -0.5854  0.3958  0.0263
 5927TIP3    H139416   0.922   1.207   7.163  1.4148  2.5367  0.4604
 5927TIP3    H239417   0.908   1.079   7.242 -2.1163  0.4909 -3.1024
 5928TIP3   OH239418   4.781   2.018   7.111  0.1119  0.4915  0.1834
 5928TIP3    H139419   4.766   2.111   7.096 -0.9652  0.3483  0.2534
 5928TIP3    H239420   4.695   1.985   7.138  0.2746 -0.6900 -0.6829
 5929TIP3   OH239421   4.240   5.807   1.964  0.3151  0.7025  0.0451
 5929TIP3    H139422   4.330   5.829   1.988  0.0470 -0.7517  2.7487
 5929TIP3    H239423   4.188   5.882   1.995  0.4898  1.2651 -0.9707
 5930TIP3   OH239424   3.397   1.936   8.024  0.1665  0.0212  0.2106
 5930TIP3    H139425   3.470   1.910   8.081  0.2083  0.7160  0.4941
 5930TIP3    H239426   3.353   2.006   8.073 -0.4458 -0.1148 -0.1419
 5931TIP3   OH239427   3.712   2.542   7.142 -0.1781 -0.1893 -0.2241
 5931TIP3    H139428   3.679   2.585   7.063  0.6491  0.7159 -0.1092
 5931TIP3    H239429   3.681   2.452   7.136 -1.3273  0.2338 -0.8661
 5932TIP3   OH239430   4.437   3.133   6.185  0.3353 -0.6208 -0.9252
 5932TIP3    H139431   4.448   3.174   6.271 -2.0547 -0.4010 -0.6507
 5932TIP3    H239432   4.427   3.207   6.124  1.2026 -0.7837 -1.2800
 5933TIP3   OH239433   1.183   1.277   7.637  0.5704 -0.0775 -0.3643
 5933TIP3    H139434   1.200   1.355   7.689  0.5867  0.1675 -0.7295
 5933TIP3    H239435   1.255   1.218   7.657 -0.5627 -0.9059  1.5908
 5934TIP3   OH239436   0.998   4.932   0.049  0.0332  0.0033  0.3794
 5934TIP3    H139437   0.945   4.957   0.125 -1.5853 -3.8298  0.7683
 5934TIP3    H239438   1.077   4.893   0.086 -0.3299 -1.0094  0.1395
 5935TIP3   OH239439   1.387   2.236   1.320  0.4255  0.3186 -0.5090
 5935TIP3    H139440   1.445   2.226   1.395 -0.5285  0.7124  0.2986
 5935TIP3    H239441   1.311   2.283   1.354 -1.0114 -1.3683 -1.2066
 5936TIP3   OH239442   4.498   5.647   7.405 -0.4098  0.3411 -0.0817
 5936TIP3    H139443   4.535   5.683   7.485 -1.3999 -0.8026  0.9354
 5936TIP3    H239444   4.403   5.644   7.421 -0.5652 -0.5392 -1.0148
 5937TIP3   OH239445   6.421   2.646   2.746  0.4034  0.0386  0.2298
 5937TIP3    H139446   6.377   2.595   2.814  0.9232 -1.3491 -0.4519
 5937TIP3    H239447   6.370   2.631   2.667  0.7147  0.3715 -0.0401
 5938TIP3   OH239448   3.128   5.257   7.917 -0.4542 -0.1142 -0.1954
 5938TIP3    H139449   3.099   5.267   8.008  2.3416 -0.4705  0.8231
 5938TIP3    H239450   3.124   5.163   7.900  0.7353 -0.2551  0.2188
 5939TIP3   OH239451   3.095   2.668   7.745  0.4539 -0.0327  0.3901
 5939TIP3    H139452   3.189   2.671   7.728  0.5528  3.2279  0.9813
 5939TIP3    H239453   3.055   2.667   7.659  1.0059 -0.3089  0.1317
 5940TIP3   OH239454   4.281   3.785   6.343  0.1500  0.5500  0.5647
 5940TIP3    H139455   4.288   3.879   6.356  0.2693  0.3364  2.3539
 5940TIP3    H239456   4.363   3.750   6.381  0.0761 -0.2685 -0.0057
 5941TIP3   OH239457   1.207   0.677   7.344  0.3447 -0.0277 -0.1418
 5941TIP3    H139458   1.283   0.735   7.347 -1.3390  2.3455 -0.1821
 5941TIP3    H239459   1.199   0.654   7.251  0.3311  0.7324 -0.3410
 5942TIP3   OH239460   1.823   6.068   0.706  0.1323  0.6662  0.0238
 5942TIP3    H139461   1.832   5.997   0.769 -1.0476  1.6687  1.3925
 5942TIP3    H239462   1.891   6.051   0.641  0.0276 -1.5492  0.4305
 5943TIP3   OH239463   0.289   4.050   2.092  0.7648  0.0350  1.1096
 5943TIP3    H139464   0.226   4.046   2.020  1.9901 -1.0307  0.0476
 5943TIP3    H239465   0.317   4.142   2.094  1.9831 -0.2209 -0.9703
 5944TIP3   OH239466   5.324   6.630   0.549  0.2621  0.3034  0.3902
 5944TIP3    H139467   5.328   6.535   0.544 -0.2229  0.3383 -1.3693
 5944TIP3    H239468   5.410   6.657   0.580  0.0607 -0.7389  1.9254
 5945TIP3   OH239469   6.234   6.768   1.258  0.1643  0.2068 -0.0068
 5945TIP3    H139470   6.158   6.762   1.315  0.8926  1.5179  1.1537
 5945TIP3    H239471   6.300   6.713   1.301  0.6398  1.0147  0.3273
 5946TIP3   OH239472   3.331   5.493   8.332 -0.7351 -0.2488  0.1450
 5946TIP3    H139473   3.372   5.552   8.268  0.2360  0.7691  1.6557
 5946TIP3    H239474   3.248   5.536   8.355 -0.6340 -0.1275  0.2831
 5947TIP3   OH239475   2.553   2.624   7.837 -0.0003 -0.1637  0.1054
 5947TIP3    H139476   2.468   2.660   7.863 -0.9780 -0.0328 -2.8649
 5947TIP3    H239477   2.615   2.696   7.849 -0.5150  0.1136  1.2028
 5948TIP3   OH239478   0.959   0.575   6.591  0.4511 -0.4200 -0.3312
 5948TIP3    H139479   0.977   0.666   6.613  0.4828 -0.5222  0.0667
 5948TIP3    H239480   0.955   0.574   6.495  3.1732 -0.5004 -0.5047
 5949TIP3   OH239481   3.282   2.088   8.429 -0.2483 -0.1591  0.2868
 5949TIP3    H139482   3.235   2.106   8.511  0.8576  0.5358  0.7895
 5949TIP3    H239483   3.374   2.103   8.450  0.1392 -0.7285 -0.8897
 5950TIP3   OH239484   5.149   5.436   8.370  0.1188  0.3033  0.2030
 5950TIP3    H139485   5.149   5.509   8.308  0.6820  0.5146  0.4482
 5950TIP3    H239486   5.226   5.451   8.425  1.1582 -1.3520 -0.7472
 5951TIP3   OH239487   1.174   5.090   8.330 -0.1224  0.2692  0.1824
 5951TIP3    H139488   1.135   5.049   8.407 -0.1021  0.2286  0.1711
 5951TIP3    H239489   1.178   5.183   8.352  0.6648  0.1605  0.5777
 5952TIP3   OH239490   2.069   3.963   1.075 -0.0481 -0.1637 -0.1084
 5952TIP3    H139491   2.159   3.987   1.098 -0.0394  1.4784 -1.6742
 5952TIP3    H239492   2.015   4.036   1.106 -1.0391 -1.5678  1.7021
 5953TIP3   OH239493   6.844   1.236   0.759 -0.1412  0.3473  0.1055
 5953TIP3    H139494   6.902   1.284   0.819 -2.2891  2.7060  0.4443
 5953TIP3    H239495   6.820   1.300   0.693 -1.5208 -0.8745 -0.6280
 5954TIP3   OH239496   0.589   5.169   1.750  0.7636 -0.2349  0.4362
 5954TIP3    H139497   0.653   5.239   1.739  1.4139 -0.6841  1.1904
 5954TIP3    H239498   0.520   5.188   1.687  0.7547  1.2700  0.8780
 5955TIP3   OH239499   1.545   6.287   1.439 -0.2780  0.1924 -0.0852
 5955TIP3    H139500   1.544   6.279   1.343  0.6298 -0.7206 -0.0375
 5955TIP3    H239501   1.614   6.351   1.457  2.6250 -2.7240  0.0665
 5956TIP3   OH239502   1.340   3.599   6.184  0.0843  0.2646 -0.4280
 5956TIP3    H139503   1.278   3.669   6.204  0.1229  0.4253 -0.8581
 5956TIP3    H239504   1.418   3.644   6.152 -0.1244  0.0088 -1.3383
 5957TIP3   OH239505   5.307   6.287   0.047  0.5695 -0.2849 -0.2164
 5957TIP3    H139506   5.222   6.251   0.022  0.6927 -1.5888  1.1107
 5957TIP3    H239507   5.287   6.345   0.120  0.5849  1.1430 -1.3004
 5958TIP3   OH239508   5.377   4.923   2.497 -0.7056  0.2229  0.2596
 5958TIP3    H139509   5.428   4.993   2.457 -0.1028  0.9141  2.1526
 5958TIP3    H239510   5.307   4.968   2.544 -0.7376 -0.4725  0.9018
 5959TIP3   OH239511   3.736   2.772   2.518 -0.4348 -0.4845  0.3633
 5959TIP3    H139512   3.830   2.775   2.499 -0.3601 -3.0178 -0.0818
 5959TIP3    H239513   3.729   2.796   2.610  0.4745  1.0463  0.0597
 5960TIP3   OH239514   6.277   1.616   6.893  0.3197 -0.3887 -0.1890
 5960TIP3    H139515   6.274   1.521   6.903  1.1520 -0.4453 -0.3844
 5960TIP3    H239516   6.186   1.642   6.886  0.0136 -1.0459  1.0368
 5961TIP3   OH239517   0.259   3.370   0.088 -0.0734  0.2205 -0.4025
 5961TIP3    H139518   0.333   3.360   0.148 -0.4802 -1.8040 -0.1697
 5961TIP3    H239519   0.290   3.336   0.004 -1.3176 -2.7960  0.2345
 5962TIP3   OH239520   3.280   6.665   1.090 -0.5722  0.4881 -0.8023
 5962TIP3    H139521   3.215   6.606   1.129  0.0723  0.7183  0.6672
 5962TIP3    H239522   3.364   6.634   1.125 -0.1718  1.9210 -0.4663
 5963TIP3   OH239523   0.690   2.717   0.887  0.1730 -0.7881  0.2983
 5963TIP3    H139524   0.757   2.698   0.953  0.4711  0.7529  0.4710
 5963TIP3    H239525   0.721   2.671   0.809  2.9293  1.9873 -0.4232
 5964TIP3   OH239526   3.585   2.593   6.873  0.5502 -0.5886  0.2206
 5964TIP3    H139527   3.620   2.636   6.795  0.1525 -1.0315 -0.2073
 5964TIP3    H239528   3.615   2.502   6.866 -1.2867 -1.1773 -0.5447
 5965TIP3   OH239529   5.940   0.137   8.346 -0.0870 -0.2865 -0.4967
 5965TIP3    H139530   5.969   0.071   8.409 -1.3708  0.5289  1.0267
 5965TIP3    H239531   5.984   0.217   8.373 -0.2764 -0.0353 -0.9264
 5966TIP3   OH239532   5.881   1.060   0.085  0.2308  0.2073 -0.0471
 5966TIP3    H139533   5.944   1.114   0.036  1.4062  0.0080  1.1658
 5966TIP3    H239534   5.799   1.109   0.081  1.0992  1.7994  0.4762
 5967TIP3   OH239535   4.631   5.090   7.485 -0.1904  0.2440  0.4152
 5967TIP3    H139536   4.567   5.076   7.416 -1.3095 -0.8055  1.5971
 5967TIP3    H239537   4.631   5.185   7.500 -0.7350  0.3572 -0.2772
 5968TIP3   OH239538   0.555   2.694   0.417  0.1485 -0.2665 -0.3820
 5968TIP3    H139539   0.590   2.781   0.436  1.8014 -1.3278  1.9182
 5968TIP3    H239540   0.625   2.649   0.370  1.8098 -2.0502  3.3212
 5969TIP3   OH239541   4.532   3.180   6.441  0.0510  0.1928 -0.5543
 5969TIP3    H139542   4.533   3.210   6.531  0.6352 -1.6318  0.0919
 5969TIP3    H239543   4.511   3.087   6.447 -0.3861  0.1394 -2.3362
 5970TIP3   OH239544   2.302   2.269   8.455 -0.2411  0.0450  0.3750
 5970TIP3    H139545   2.386   2.314   8.445 -0.8518  1.6309  1.8773
 5970TIP3    H239546   2.291   2.261   8.550 -1.6684 -0.4005  0.1887
 5971TIP3   OH239547   6.961   4.729   0.392  0.8006  0.0613  0.1997
 5971TIP3    H139548   6.903   4.654   0.376 -0.3235  0.5332  1.7427
 5971TIP3    H239549   7.036   4.715   0.335 -0.7517 -0.6835 -1.7439
 5972TIP3   OH239550   3.356   3.165   7.746  0.4620 -0.5686  0.4713
 5972TIP3    H139551   3.324   3.115   7.821 -2.1658  0.4801  0.1532
 5972TIP3    H239552   3.321   3.120   7.669  0.2740  0.2579  0.0563
 5973TIP3   OH239553   4.081   5.780   0.688 -0.1403 -0.4476  0.0470
 5973TIP3    H139554   4.123   5.696   0.707 -1.0852 -1.2184 -1.1735
 5973TIP3    H239555   3.996   5.757   0.651  0.5558  0.9835 -2.6743
 5974TIP3   OH239556   6.627   6.971   1.876  0.3330 -0.4819  0.0357
 5974TIP3    H139557   6.607   6.906   1.809 -0.7881 -1.0177  0.8511
 5974TIP3    H239558   6.670   6.922   1.946  0.7114 -0.0884  0.0873
 5975TIP3   OH239559   3.962   4.611   0.998 -0.4136  0.5434 -0.5791
 5975TIP3    H139560   4.005   4.541   1.047 -1.4040  0.4677  0.2016
 5975TIP3    H239561   3.910   4.565   0.932 -0.3441  0.5891 -0.6670
 5976TIP3   OH239562   6.826   3.864   7.832  0.5318  1.1704  0.0231
 5976TIP3    H139563   6.789   3.936   7.884  0.5983  1.1196  0.1403
 5976TIP3    H239564   6.751   3.811   7.807  0.7530 -0.4671  2.5303
 5977TIP3   OH239565   1.889   5.594   8.296 -0.0821  0.6112 -0.3302
 5977TIP3    H139566   1.846   5.647   8.362  0.3048  2.1189 -1.2396
 5977TIP3    H239567   1.983   5.608   8.312  0.0232  0.2751 -0.6391
 5978TIP3   OH239568   6.403   0.275   2.455 -0.0858 -0.0610 -0.0813
 5978TIP3    H139569   6.402   0.180   2.459 -0.6682 -0.0449  0.3044
 5978TIP3    H239570   6.366   0.296   2.369 -2.2713 -0.1590  0.7698
 5979TIP3   OH239571   3.373   1.129   8.030 -0.4681 -0.4456  0.7352
 5979TIP3    H139572   3.303   1.064   8.036 -0.3774 -0.7837 -1.0662
 5979TIP3    H239573   3.380   1.147   7.936  1.9321 -0.5093  0.8403
 5980TIP3   OH239574   6.477   0.062   6.980 -0.4326 -0.0114 -0.1434
 5980TIP3    H139575   6.454   0.017   7.061  1.7095 -2.0506 -0.5418
 5980TIP3    H239576   6.478  -0.007   6.913  1.2217  0.9439 -1.1833
 5981TIP3   OH239577   5.638   1.129   2.633  0.8776  0.4658  0.0299
 5981TIP3    H139578   5.547   1.142   2.660  1.0767  0.1350  0.9285
 5981TIP3    H239579   5.646   1.173   2.549 -0.6068 -1.0603 -0.9814
 5982TIP3   OH239580   3.330   6.892   0.796  0.7296 -0.3121  0.3952
 5982TIP3    H139581   3.403   6.903   0.735  1.2268 -0.7145  0.9007
 5982TIP3    H239582   3.355   6.816   0.849 -0.2122 -0.6515  0.3628
 5983TIP3   OH239583   5.580   6.689   0.576 -0.2188  0.0208 -0.2378
 5983TIP3    H139584   5.647   6.643   0.627  0.8523  1.5773 -0.1662
 5983TIP3    H239585   5.586   6.780   0.605 -1.7458  0.3667 -0.9151
 5984TIP3   OH239586   1.830   3.432   8.391  0.4881  0.3119 -0.8509
 5984TIP3    H139587   1.780   3.407   8.469  1.1055  0.3810 -0.4319
 5984TIP3    H239588   1.764   3.437   8.321 -0.1092  0.5059 -0.2825
 5985TIP3   OH239589   6.892   5.906   1.493  0.1689 -0.0018  0.2416
 5985TIP3    H139590   6.915   5.932   1.582 -0.0492  1.4651 -0.1003
 5985TIP3    H239591   6.878   5.989   1.447  0.8201 -0.7011 -1.3017
 5986TIP3   OH239592   3.482   5.670   1.051  0.1456 -0.7980 -0.2292
 5986TIP3    H139593   3.488   5.736   0.981 -0.9131  1.1361  1.3991
 5986TIP3    H239594   3.562   5.682   1.102 -0.6302  0.1689  0.8073
 5987TIP3   OH239595   2.036   6.294   7.299  0.0472  0.1946  0.1476
 5987TIP3    H139596   1.991   6.300   7.215 -0.9285  2.7076  0.7746
 5987TIP3    H239597   2.074   6.381   7.312  0.0093 -0.0783  2.3841
 5988TIP3   OH239598   5.622   2.748   1.867 -0.2842 -0.0727 -0.6277
 5988TIP3    H139599   5.643   2.828   1.818  0.2286 -0.0614 -0.3886
 5988TIP3    H239600   5.543   2.770   1.916  0.0928  0.4249 -0.2373
 5989TIP3   OH239601   2.764   5.487   7.988 -0.5236  0.5643 -0.2087
 5989TIP3    H139602   2.823   5.543   8.039  0.4520 -1.0377  0.5151
 5989TIP3    H239603   2.702   5.548   7.947  0.2428  2.1162  0.8349
 5990TIP3   OH239604   5.218   3.574   8.040  0.3081 -0.8034  0.2493
 5990TIP3    H139605   5.224   3.618   7.955  2.9442 -1.2490  0.1096
 5990TIP3    H239606   5.254   3.638   8.102 -0.2605 -1.0229  0.8139
 5991TIP3   OH239607   6.603   5.873   1.186 -0.2284 -0.2316 -0.0359
 5991TIP3    H139608   6.618   5.859   1.092  1.3336 -2.5934  0.4643
 5991TIP3    H239609   6.690   5.895   1.220 -0.6319 -0.1785  0.9788
 5992TIP3   OH239610   3.743   1.258   8.367 -0.1011  0.1295 -0.4186
 5992TIP3    H139611   3.807   1.210   8.419 -0.7642  0.7781  1.0635
 5992TIP3    H239612   3.795   1.324   8.320  0.3163  1.0783  1.2643
 5993TIP3   OH239613   0.373   5.199   7.439 -0.3082 -0.0573  0.0954
 5993TIP3    H139614   0.303   5.176   7.501 -0.8199 -0.7329 -0.7151
 5993TIP3    H239615   0.450   5.155   7.473 -0.4944 -0.1147  0.4536
 5994TIP3   OH239616   0.546   1.010   8.209 -0.0757 -0.0972  0.0649
 5994TIP3    H139617   0.602   0.953   8.261  0.8610  0.6903 -0.0623
 5994TIP3    H239618   0.505   1.069   8.273 -0.5228 -0.4701  0.1242
 5995TIP3   OH239619   3.181   3.671   1.661 -0.0488 -0.0251 -0.3618
 5995TIP3    H139620   3.184   3.609   1.588 -0.5385  1.1635 -1.4535
 5995TIP3    H239621   3.232   3.746   1.630 -1.7454  1.2434 -0.2516
 5996TIP3   OH239622   0.347   1.132   1.781  0.3514 -0.0314  0.0800
 5996TIP3    H139623   0.277   1.145   1.846  0.5004 -0.2085  0.2784
 5996TIP3    H239624   0.302   1.094   1.706  0.3232 -0.6986  0.4248
 5997TIP3   OH239625   4.167   0.064   1.788  0.1755 -0.1566  0.5857
 5997TIP3    H139626   4.124  -0.013   1.752  0.9686  0.7727 -2.6782
 5997TIP3    H239627   4.099   0.106   1.841 -1.0055 -1.8260  0.4773
 5998TIP3   OH239628   3.903   5.882   7.947  0.7899  0.0147  0.9232
 5998TIP3    H139629   3.825   5.858   7.998  0.9126 -1.8239  0.3458
 5998TIP3    H239630   3.869   5.933   7.874  0.2614  0.2176  1.3044
 5999TIP3   OH239631   4.063   3.604   1.027 -0.3190 -0.3736 -0.5976
 5999TIP3    H139632   3.976   3.645   1.028 -0.5957 -0.9357  0.9214
 5999TIP3    H239633   4.106   3.636   1.106  1.2186  0.5616 -1.7568
 6000TIP3   OH239634   3.977   0.232   0.601 -0.7395  0.5230 -0.5073
 6000TIP3    H139635   3.982   0.222   0.696  0.1312 -0.2304 -0.6087
 6000TIP3    H239636   3.948   0.322   0.587 -2.2036  0.2382  0.4768
 6001TIP3   OH239637   2.021   3.750   6.573  0.1017  0.4929 -0.2443
 6001TIP3    H139638   1.990   3.686   6.509  0.9056  0.6443 -0.7971
 6001TIP3    H239639   2.048   3.826   6.521  0.3673  0.7814  0.3062
 6002TIP3   OH239640   2.258   1.263   1.075 -0.2420 -0.2720  0.0918
 6002TIP3    H139641   2.181   1.215   1.044 -0.3473 -0.0188 -0.0428
 6002TIP3    H239642   2.329   1.235   1.018  0.0031 -1.3027  0.8755
 6003TIP3   OH239643   3.218   2.186   7.687  0.1797  0.3828  0.6927
 6003TIP3    H139644   3.228   2.166   7.594 -0.1907  0.1065  0.7142
 6003TIP3    H239645   3.262   2.271   7.698 -2.6363  2.1490 -0.4152
 6004TIP3   OH239646   4.892   4.768   7.824  0.1774 -0.0409  0.0761
 6004TIP3    H139647   4.870   4.827   7.752  1.3870  0.0282 -0.2638
 6004TIP3    H239648   4.833   4.694   7.813  1.7545 -1.0539 -2.3234
 6005TIP3   OH239649   4.394   6.753   1.308 -0.2023 -0.2341 -0.4456
 6005TIP3    H139650   4.469   6.736   1.251 -0.1150  2.5069 -1.3203
 6005TIP3    H239651   4.330   6.794   1.251 -2.2119 -1.9994  0.4169
 6006TIP3   OH239652   1.762   1.467   7.566 -0.2676 -0.2127  0.5789
 6006TIP3    H139653   1.706   1.424   7.502 -0.2680 -0.7038  0.9020
 6006TIP3    H239654   1.740   1.426   7.650 -0.4679  0.6127  0.9447
 6007TIP3   OH239655   5.661   2.258   8.149  0.0630  0.1713 -0.3063
 6007TIP3    H139656   5.726   2.313   8.104 -0.8020  0.0597 -1.7737
 6007TIP3    H239657   5.703   2.172   8.157 -0.4362 -0.3868 -2.7789
 6008TIP3   OH239658   3.516   4.657   8.295  0.0769  0.5244 -0.2867
 6008TIP3    H139659   3.440   4.669   8.352 -0.9035 -0.0793 -1.4115
 6008TIP3    H239660   3.590   4.645   8.355 -0.7977  0.6091  0.8358
 6009TIP3   OH239661   4.319   0.681   0.186  0.3571 -0.3480 -0.2885
 6009TIP3    H139662   4.344   0.684   0.279  0.2209 -1.1969 -0.2129
 6009TIP3    H239663   4.397   0.710   0.139  0.9278 -1.3089  0.0306
 6010TIP3   OH239664   0.429   1.489   1.686 -0.0711  0.5318  0.1049
 6010TIP3    H139665   0.343   1.483   1.645 -0.1611  1.4848  0.1368
 6010TIP3    H239666   0.423   1.565   1.744  0.0013 -0.8553  2.0334
 6011TIP3   OH239667   6.959   5.393   0.592  0.1670 -0.7185  0.3636
 6011TIP3    H139668   6.924   5.360   0.509  0.5236 -0.4902  0.1176
 6011TIP3    H239669   6.948   5.488   0.586 -1.0183 -0.7841  1.1431
 6012TIP3   OH239670   0.340   1.076   7.784 -0.5690 -0.4114  0.2787
 6012TIP3    H139671   0.291   1.080   7.867 -1.7589  0.9793 -0.4548
 6012TIP3    H239672   0.273   1.063   7.717 -0.3576  3.7956 -1.0177
 6013TIP3   OH239673   3.523   5.617   0.673 -0.0185 -0.1322  0.7459
 6013TIP3    H139674   3.499   5.706   0.649  0.6117 -0.2924 -0.5601
 6013TIP3    H239675   3.476   5.601   0.755 -1.1154  0.9522  0.3594
 6014TIP3   OH239676   3.182   5.764   0.986 -0.7342 -0.9039  0.1908
 6014TIP3    H139677   3.275   5.777   0.969 -1.1917  1.4187 -0.8855
 6014TIP3    H239678   3.167   5.672   0.963  1.3523 -1.4783  0.8827
 6015TIP3   OH239679   0.588   6.783   6.976  0.1601  0.5822  0.3431
 6015TIP3    H139680   0.618   6.751   6.892  0.6184  2.3715 -0.2159
 6015TIP3    H239681   0.601   6.878   6.972 -1.8259  0.9709  1.5938
 6016TIP3   OH239682   4.578   3.096   0.083 -0.4893  0.1097 -1.1123
 6016TIP3    H139683   4.527   3.108   0.164 -0.3588 -0.4556 -0.9381
 6016TIP3    H239684   4.616   3.182   0.066 -0.4833  0.2276 -0.5428
 6017TIP3   OH239685   3.081   6.117   0.469  0.5950 -0.4605  0.3642
 6017TIP3    H139686   3.028   6.039   0.488  2.4843 -1.8822  0.1443
 6017TIP3    H239687   3.056   6.180   0.537 -0.3362 -1.5847  1.1101
 6018TIP3   OH239688   0.397   5.121   0.240 -0.2582  0.4515 -0.3354
 6018TIP3    H139689   0.309   5.151   0.265 -1.0001 -0.7165 -1.4096
 6018TIP3    H239690   0.405   5.147   0.148 -0.0635 -0.7104 -0.6533
 6019TIP3   OH239691   0.894   3.498   6.998 -0.1227 -0.1315  0.5083
 6019TIP3    H139692   0.828   3.447   6.951 -1.8240  1.4928  1.0223
 6019TIP3    H239693   0.903   3.579   6.947  0.8143  0.0699  0.9645
 6020TIP3   OH239694   5.784   1.165   1.073 -0.2009  0.0370  0.1145
 6020TIP3    H139695   5.725   1.229   1.115 -0.0470  0.1615  0.1427
 6020TIP3    H239696   5.741   1.081   1.087  0.0561  0.0245  0.9051
 6021TIP3   OH239697   4.149   6.217   0.684 -0.3457  0.4290  0.2064
 6021TIP3    H139698   4.116   6.306   0.680 -1.6735 -0.0579 -0.0705
 6021TIP3    H239699   4.166   6.193   0.592 -2.4794 -0.4597 -0.0297
 6022TIP3   OH239700   5.772   6.536   6.993  0.0160  0.5761 -0.0089
 6022TIP3    H139701   5.853   6.565   6.951  0.6696  0.0208  0.8260
 6022TIP3    H239702   5.757   6.449   6.957  0.4314  0.2096  0.6714
 6023TIP3   OH239703   4.903   0.669   6.693 -0.7733  0.4985 -0.5077
 6023TIP3    H139704   4.977   0.717   6.732 -0.2794  0.6242 -1.5804
 6023TIP3    H239705   4.897   0.702   6.604 -0.7202 -1.0993 -1.1239
 6024TIP3   OH239706   3.586   0.598   7.551  0.1854  0.1513  0.6291
 6024TIP3    H139707   3.552   0.561   7.470  1.1736 -0.1621  0.3406
 6024TIP3    H239708   3.528   0.672   7.570 -0.3125 -0.0320 -0.1357
 6025TIP3   OH239709   6.163   6.787   7.048 -0.7882  0.1670  0.0828
 6025TIP3    H139710   6.160   6.699   7.010 -1.4947 -0.9465  2.5323
 6025TIP3    H239711   6.229   6.782   7.117 -0.9243  1.5406  0.3468
 6026TIP3   OH239712   2.251   3.474   7.276 -0.3828 -0.0813  0.1928
 6026TIP3    H139713   2.324   3.509   7.224 -0.4531  0.3641  0.3862
 6026TIP3    H239714   2.240   3.384   7.244  0.2307 -0.1452  0.1402
 6027TIP3   OH239715   6.543   3.403   7.621  0.1253  0.1273 -0.2030
 6027TIP3    H139716   6.486   3.375   7.549  0.2182 -1.9918  0.4515
 6027TIP3    H239717   6.624   3.431   7.579 -0.6973  1.3556 -1.0343
 6028TIP3   OH239718   6.082   1.899   1.919  0.5443  0.1672 -0.3149
 6028TIP3    H139719   6.050   1.879   1.831 -0.0368 -1.2033  0.1758
 6028TIP3    H239720   6.033   1.976   1.946 -1.9440 -1.4390  0.1334
 6029TIP3   OH239721   6.332   6.555   0.518 -1.1511  0.1286 -0.3242
 6029TIP3    H139722   6.358   6.504   0.594 -0.5752 -0.1385 -0.6910
 6029TIP3    H239723   6.286   6.630   0.554 -1.0791 -0.1089  0.2750
 6030TIP3   OH239724   1.916   1.728   0.745 -0.3407  0.7849 -0.4493
 6030TIP3    H139725   1.897   1.634   0.753  1.9347  0.3704  1.0336
 6030TIP3    H239726   1.890   1.765   0.829  0.1392  1.1894 -0.4733
 6031TIP3   OH239727   5.537   5.250   0.089 -0.0708 -0.4560 -0.0616
 6031TIP3    H139728   5.616   5.299   0.065 -0.0111  0.2651  1.5161
 6031TIP3    H239729   5.470   5.281   0.028  0.3034  0.6132  0.0537
 6032TIP3   OH239730   4.789   0.430   0.320  0.3039  0.3867 -0.0281
 6032TIP3    H139731   4.697   0.424   0.345 -0.0711  1.6647 -0.9652
 6032TIP3    H239732   4.805   0.524   0.311  2.0545  0.2677  1.3289
 6033TIP3   OH239733   4.177   0.081   1.439  0.0301 -0.1629 -0.2316
 6033TIP3    H139734   4.249   0.121   1.487  0.9742 -1.6442 -0.3311
 6033TIP3    H239735   4.152   0.006   1.493 -1.6083  0.4445 -0.0974
 6034TIP3   OH239736   2.366   1.770   1.251  0.1225 -0.3309  0.2160
 6034TIP3    H139737   2.444   1.822   1.230  1.9141 -2.3271  1.5104
 6034TIP3    H239738   2.383   1.684   1.213 -1.5301 -0.8104  0.4612
 6035TIP3   OH239739   2.586   4.520   0.173 -0.0710  0.4490  0.3412
 6035TIP3    H139740   2.578   4.538   0.079 -0.0673 -1.2321 -0.0197
 6035TIP3    H239741   2.513   4.461   0.192  0.8538 -0.4920  1.0355
 6036TIP3   OH239742   5.555   2.447   8.357  0.1235  0.0290 -0.2767
 6036TIP3    H139743   5.574   2.488   8.441 -0.8085 -1.8536  0.8904
 6036TIP3    H239744   5.642   2.434   8.317  0.9364 -2.2329  1.9647
 6037TIP3   OH239745   2.760   0.685   0.407 -0.3699  0.1729  0.0013
 6037TIP3    H139746   2.764   0.777   0.379  0.7119  0.6034  1.4708
 6037TIP3    H239747   2.674   0.678   0.449 -0.6423  0.3897 -0.5065
 6038TIP3   OH239748   6.818   5.681   1.372 -0.7256 -0.6602  0.3744
 6038TIP3    H139749   6.853   5.735   1.443  0.3857 -0.9785  0.0934
 6038TIP3    H239750   6.843   5.727   1.292 -2.5660  0.0530  0.1656
 6039TIP3   OH239751   0.593   4.579   6.613 -0.0860  0.1309 -0.3037
 6039TIP3    H139752   0.539   4.618   6.545  1.1450  3.7592  0.5327
 6039TIP3    H239753   0.675   4.629   6.610  2.0411 -2.9847  0.5514
 6040TIP3   OH239754   1.368   0.717   6.672  0.0826  0.3064 -0.2593
 6040TIP3    H139755   1.315   0.793   6.647 -0.9909 -0.9186 -1.9820
 6040TIP3    H239756   1.332   0.645   6.620  2.2505 -1.0012 -0.0785
 6041TIP3   OH239757   3.837   5.678   6.758 -0.4669 -0.4069  0.2461
 6041TIP3    H139758   3.858   5.766   6.726 -1.7434  0.3303  1.3382
 6041TIP3    H239759   3.910   5.656   6.816 -0.8741  0.6000  1.1758
 6042TIP3   OH239760   3.592   5.291   7.477  0.0154 -0.1576 -0.1417
 6042TIP3    H139761   3.576   5.275   7.570  1.5609  0.1194  0.2002
 6042TIP3    H239762   3.526   5.239   7.432 -1.1133  0.1275  1.1083
 6043TIP3   OH239763   1.021   5.583   2.468 -0.2019 -0.4821  0.2930
 6043TIP3    H139764   1.045   5.672   2.442  0.2744 -0.2136  1.6034
 6043TIP3    H239765   1.104   5.542   2.492 -0.4827 -1.1237  0.1930
 6044TIP3   OH239766   4.152   6.080   0.426  0.0938  0.2321 -0.1678
 6044TIP3    H139767   4.151   6.148   0.359  1.0395 -0.3524 -0.8011
 6044TIP3    H239768   4.121   6.001   0.380 -0.7303  0.1713  0.4846
 6045TIP3   OH239769   3.525   5.139   6.311 -0.0096 -0.5993 -0.3946
 6045TIP3    H139770   3.604   5.085   6.303  0.0316 -0.5002 -0.6582
 6045TIP3    H239771   3.549   5.222   6.270  0.3076  0.0373  0.9958
 6046TIP3   OH239772   2.026   3.487   0.421 -0.3784  0.2317 -0.0250
 6046TIP3    H139773   1.970   3.438   0.482 -1.2942  1.3280  0.0452
 6046TIP3    H239774   2.069   3.419   0.369 -1.4258 -0.6567  0.2207
 6047TIP3   OH239775   4.844   3.935   0.646  0.7641 -0.0987  0.5948
 6047TIP3    H139776   4.828   4.027   0.625  1.4944 -0.0822  0.0664
 6047TIP3    H239777   4.924   3.913   0.598  1.4943 -0.5729  1.9794
 6048TIP3   OH239778   4.433   1.021   0.210 -0.3588 -0.1062 -0.1162
 6048TIP3    H139779   4.514   1.027   0.160 -0.3436 -0.5315 -0.1526
 6048TIP3    H239780   4.448   1.074   0.288  0.1767 -0.6518  0.1685
 6049TIP3   OH239781   0.278   0.325   2.197 -0.2400 -0.0068 -0.7532
 6049TIP3    H139782   0.358   0.340   2.247 -0.7282 -1.7146  0.6176
 6049TIP3    H239783   0.293   0.371   2.114  1.9744  0.0628 -0.3735
 6050TIP3   OH239784   1.164   0.732   7.673  0.5660 -0.3416  0.2946
 6050TIP3    H139785   1.238   0.685   7.712  1.5894  0.6287 -0.4171
 6050TIP3    H239786   1.178   0.725   7.579 -0.1759 -0.0209  0.1548
 6051TIP3   OH239787   5.335   2.746   1.958  0.3201 -0.6862  0.0639
 6051TIP3    H139788   5.284   2.809   2.010  1.9927  0.3390  0.5312
 6051TIP3    H239789   5.272   2.712   1.894 -0.6091  1.6520 -0.3710
 6052TIP3   OH239790   5.897   6.321   2.723  0.0978  0.4816  0.2064
 6052TIP3    H139791   5.845   6.259   2.671 -0.5684  1.6113 -0.5241
 6052TIP3    H239792   5.988   6.295   2.708 -0.1556 -0.0826 -0.3925
 6053TIP3   OH239793   4.356   0.949   0.795 -0.3466  0.2381 -0.3054
 6053TIP3    H139794   4.405   1.031   0.801 -0.8913  0.5416  0.1898
 6053TIP3    H239795   4.405   0.896   0.733  1.1247  0.1692  0.8496
 6054TIP3   OH239796   4.090   5.487   6.685  0.3885 -0.0120  0.3435
 6054TIP3    H139797   4.122   5.560   6.631 -1.2467  0.3494 -0.1735
 6054TIP3    H239798   4.063   5.527   6.767 -1.4694  0.1636 -0.3132
 6055TIP3   OH239799   3.144   2.856   7.280  0.6598 -0.3087 -0.0499
 6055TIP3    H139800   3.199   2.926   7.316  1.0133 -0.9063  0.6019
 6055TIP3    H239801   3.095   2.823   7.356 -0.7387  0.3090 -0.6357
 6056TIP3   OH239802   5.982   5.074   1.167 -0.5671  0.2681  0.2203
 6056TIP3    H139803   5.906   5.119   1.205 -1.1235  0.8834 -1.5010
 6056TIP3    H239804   6.002   5.124   1.088 -0.1814 -1.5561 -0.8967
 6057TIP3   OH239805   6.245   4.548   1.955  0.3023 -0.0720  0.0587
 6057TIP3    H139806   6.223   4.470   1.904 -0.9194  1.2053 -1.4453
 6057TIP3    H239807   6.317   4.588   1.906 -0.3989  0.7780 -0.2938
 6058TIP3   OH239808   1.184   3.719   8.200 -0.1394  0.1329  0.5569
 6058TIP3    H139809   1.166   3.813   8.207  0.4185  0.2940 -0.0366
 6058TIP3    H239810   1.253   3.702   8.264 -0.7254 -0.0166  1.1593
 6059TIP3   OH239811   0.920   1.370   7.072 -0.3879  0.2432 -0.5716
 6059TIP3    H139812   0.981   1.438   7.101 -0.4647  0.5883 -1.2133
 6059TIP3    H239813   0.953   1.343   6.986 -0.0883 -0.8702 -0.1274
 6060TIP3   OH239814   5.226   4.665   2.858  0.0669 -0.0572  0.2112
 6060TIP3    H139815   5.245   4.599   2.792 -0.6183 -1.5168  1.4039
 6060TIP3    H239816   5.158   4.720   2.819  0.3392 -0.3037 -0.6310
 6061TIP3   OH239817   0.939   0.642   7.835 -0.1621  0.3055 -0.3721
 6061TIP3    H139818   1.021   0.648   7.785 -0.2176  0.6907 -0.4236
 6061TIP3    H239819   0.906   0.554   7.816  0.8976 -0.3500  0.6890
 6062TIP3   OH239820   5.003   5.817   8.385 -0.1297 -0.2997  0.4397
 6062TIP3    H139821   4.946   5.888   8.358 -0.7135 -0.7481  0.4830
 6062TIP3    H239822   5.045   5.849   8.465 -0.8537 -0.2378  0.8055
 6063TIP3   OH239823   3.156   4.674   7.636 -0.3028  0.1393  0.4730
 6063TIP3    H139824   3.219   4.708   7.573  0.7184 -1.9755  0.2732
 6063TIP3    H239825   3.206   4.613   7.690 -2.0866 -1.4632  0.4390
 6064TIP3   OH239826   1.419   5.218   7.739  0.3006  0.2892  0.0034
 6064TIP3    H139827   1.513   5.238   7.728  1.1902 -1.5657  3.1787
 6064TIP3    H239828   1.417   5.144   7.799 -3.2729  0.8597  0.7857
 6065TIP3   OH239829   1.661   6.613   0.101  0.4451  1.2070 -0.0189
 6065TIP3    H139830   1.701   6.598   0.015  1.9091  0.7953  0.7158
 6065TIP3    H239831   1.715   6.681   0.141 -0.7753  2.0582  0.2387
 6066TIP3   OH239832   6.929   1.660   1.156 -0.4921  0.1020  0.1163
 6066TIP3    H139833   7.011   1.611   1.161 -0.7579 -0.3504  0.0789
 6066TIP3    H239834   6.955   1.752   1.169 -0.0073 -0.0587  0.2982
 6067TIP3   OH239835   1.909   1.008   6.379 -0.4587 -0.0465  0.3337
 6067TIP3    H139836   1.964   0.977   6.451 -1.4139 -0.5250  0.8796
 6067TIP3    H239837   1.931   0.952   6.305 -0.5728 -0.5799  0.6953
 6068TIP3   OH239838   3.845   0.619   2.304  0.6125  0.3457 -0.6846
 6068TIP3    H139839   3.795   0.638   2.384 -0.8558  1.4994 -1.8193
 6068TIP3    H239840   3.798   0.547   2.263  1.3466 -0.2229 -0.5419
 6069TIP3   OH239841   3.499   5.700   0.152  0.3517  0.2120 -0.1942
 6069TIP3    H139842   3.534   5.640   0.087 -0.7821 -0.1780 -0.4627
 6069TIP3    H239843   3.443   5.760   0.102  0.6136  0.8144  0.2227
 6070TIP3   OH239844   1.489   0.303   0.394 -0.2885 -0.4766  0.1839
 6070TIP3    H139845   1.424   0.348   0.340 -1.3200 -1.2399  0.7700
 6070TIP3    H239846   1.539   0.374   0.435 -0.4566  0.1108 -0.6015
 6071TIP3   OH239847   5.185   1.222   1.276  0.3139  0.1802  0.5294
 6071TIP3    H139848   5.139   1.221   1.360 -0.7836 -0.1595 -0.0640
 6071TIP3    H239849   5.122   1.257   1.214  1.1768  0.6025 -0.1323
 6072TIP3   OH239850   5.069   0.836   8.019 -0.0437  0.0024 -0.5696
 6072TIP3    H139851   5.102   0.753   8.054 -0.7513 -0.0214  0.0837
 6072TIP3    H239852   5.099   0.838   7.929  1.9737  0.1216  0.0475
 6073TIP3   OH239853   0.368   6.932   7.908 -0.2266  0.4146  0.0078
 6073TIP3    H139854   0.371   7.017   7.952  1.8984  0.3415  0.1086
 6073TIP3    H239855   0.319   6.876   7.968 -1.2690  1.4252  0.1446
 6074TIP3   OH239856   4.551   3.928   1.786  0.0418 -0.2204 -0.1764
 6074TIP3    H139857   4.636   3.965   1.811 -1.0146  2.4286 -0.1840
 6074TIP3    H239858   4.500   3.929   1.867 -1.2259  2.0747 -0.9130
 6075TIP3   OH239859   1.884   0.866   1.046 -0.3554  0.0933 -0.2656
 6075TIP3    H139860   1.843   0.866   0.960 -0.6161  0.0420 -0.1434
 6075TIP3    H239861   1.971   0.828   1.032 -0.3926  0.1007 -0.5077
 6076TIP3   OH239862   0.313   0.506   2.001 -0.2116  0.0784  0.4978
 6076TIP3    H139863   0.321   0.503   1.906  1.2075 -4.3121  0.5521
 6076TIP3    H239864   0.395   0.545   2.031 -1.0611  2.3918  0.0369
 6077TIP3   OH239865   3.525   4.759   6.358  0.1851  0.2504 -0.0484
 6077TIP3    H139866   3.503   4.687   6.418  0.4308  0.6517  0.5341
 6077TIP3    H239867   3.441   4.796   6.333  0.1115  0.7731  0.9169
 6078TIP3   OH239868   2.001   5.813   7.020 -0.4150 -0.0115 -0.5676
 6078TIP3    H139869   2.057   5.765   7.081  1.1598  0.8758 -1.2472
 6078TIP3    H239870   2.024   5.905   7.034  0.1998  0.1999 -2.6627
 6079TIP3   OH239871   1.439   5.667   8.454  0.3742 -0.3089 -0.1287
 6079TIP3    H139872   1.516   5.677   8.399  0.1446 -0.1977 -0.4355
 6079TIP3    H239873   1.384   5.604   8.407  0.9669 -1.5971  0.8534
 6080TIP3   OH239874   1.537   2.897   2.421  0.4661  0.7331 -0.3560
 6080TIP3    H139875   1.537   2.972   2.481  0.3234  0.5543 -0.1288
 6080TIP3    H239876   1.508   2.933   2.337 -2.5763  0.4246  0.4422
 6081TIP3   OH239877   3.123   4.193   6.649 -0.0681  0.5535 -0.1809
 6081TIP3    H139878   3.075   4.143   6.582 -1.0241 -1.6770  2.0183
 6081TIP3    H239879   3.215   4.178   6.627 -0.3551 -0.7370 -0.6177
 6082TIP3   OH239880   5.224   5.364   2.015  0.4017 -0.2399 -0.2912
 6082TIP3    H139881   5.320   5.366   2.024  0.5969  1.7491 -2.0041
 6082TIP3    H239882   5.196   5.451   2.044 -1.0963 -1.2653  1.5225
 6083TIP3   OH239883   2.195   4.235   6.336 -0.1260  0.8195  0.6263
 6083TIP3    H139884   2.290   4.227   6.334 -0.1617  0.3246  0.7640
 6083TIP3    H239885   2.175   4.301   6.270  0.1402 -0.7718 -1.1439
 6084TIP3   OH239886   0.144   1.299   8.419  0.6863 -0.0889 -0.3934
 6084TIP3    H139887   0.158   1.217   8.466 -0.2720  0.4967  0.9983
 6084TIP3    H239888   0.210   1.300   8.350  1.8100 -1.2429  0.6297
 6085TIP3   OH239889   6.836   2.281   0.688 -0.1900  0.6519  0.1228
 6085TIP3    H139890   6.759   2.264   0.633  1.1588 -1.3416 -1.2936
 6085TIP3    H239891   6.901   2.216   0.659  1.3651  0.9803  2.6185
 6086TIP3   OH239892   6.898   5.850   0.631  0.0243 -0.3686 -0.0968
 6086TIP3    H139893   6.883   5.794   0.707  0.8344 -1.1520 -0.4895
 6086TIP3    H239894   6.901   5.789   0.557  0.1673  0.2812 -0.6318
 6087TIP3   OH239895   3.200   0.267   0.411 -0.1761 -0.4225  0.4163
 6087TIP3    H139896   3.249   0.191   0.378  0.3924  0.0175  0.2265
 6087TIP3    H239897   3.173   0.241   0.499  0.6198 -0.5941  0.6233
 6088TIP3   OH239898   6.806   0.972   0.706 -0.8183  0.2413 -0.2372
 6088TIP3    H139899   6.835   0.965   0.615  2.1535 -2.6229  0.7117
 6088TIP3    H239900   6.772   1.061   0.715 -1.5848  0.4898 -4.1756
 6089TIP3   OH239901   2.447   1.765   1.918  0.0858  0.9206  0.2906
 6089TIP3    H139902   2.484   1.777   1.831 -1.0160 -1.8284 -0.6726
 6089TIP3    H239903   2.516   1.722   1.969  1.5560  4.4880  1.6171
 6090TIP3   OH239904   6.871   3.447   0.607 -0.3830 -0.1739  0.2416
 6090TIP3    H139905   6.871   3.543   0.612  1.6173 -0.1214  0.0592
 6090TIP3    H239906   6.925   3.419   0.682 -1.7756 -1.2250  0.8921
 6091TIP3   OH239907   5.722   3.938   1.878  0.4519 -0.6802 -0.3471
 6091TIP3    H139908   5.747   3.963   1.967  0.6073  1.0178 -0.8263
 6091TIP3    H239909   5.633   3.972   1.867  0.7362 -0.1171 -1.0849
 6092TIP3   OH239910   6.384   4.156   1.921 -0.0896  0.2373 -0.5194
 6092TIP3    H139911   6.303   4.114   1.948 -0.3872  0.7949 -0.5410
 6092TIP3    H239912   6.447   4.084   1.914 -0.1071 -0.0070  1.2170
 6093TIP3   OH239913   1.619   3.733   8.241 -0.1196 -0.5370 -0.6589
 6093TIP3    H139914   1.618   3.817   8.195  0.7800  0.0273  0.3060
 6093TIP3    H239915   1.662   3.752   8.324 -1.8520 -1.4901  0.4994
 6094TIP3   OH239916   1.047   3.920   0.955  0.6080  0.2657  0.0950
 6094TIP3    H139917   1.047   3.999   1.009  0.3115  0.9879 -0.9232
 6094TIP3    H239918   1.059   3.848   1.017 -4.4769  0.5275  1.8762
 6095TIP3   OH239919   3.970   5.319   1.625 -0.2264 -0.4394  0.1544
 6095TIP3    H139920   3.923   5.238   1.606  0.2696 -0.5885 -0.4752
 6095TIP3    H239921   3.959   5.372   1.546 -1.9870  0.8410  1.1750
 6096TIP3   OH239922   3.924   0.288   8.346  0.5450  0.6762 -0.2696
 6096TIP3    H139923   4.019   0.287   8.354  0.3959  1.2305  3.0522
 6096TIP3    H239924   3.903   0.378   8.322  0.8277  0.6083 -0.7829
 6097TIP3   OH239925   6.580   5.005   7.097  0.2933 -0.1888  0.0608
 6097TIP3    H139926   6.609   4.920   7.065  0.6207  0.1443 -0.5507
 6097TIP3    H239927   6.553   4.989   7.187 -1.2373 -1.2894 -0.5552
 6098TIP3   OH239928   1.844   4.039   6.685  0.3281  0.4645  0.0189
 6098TIP3    H139929   1.922   3.987   6.704  0.2176 -0.0300 -0.8254
 6098TIP3    H239930   1.857   4.120   6.735  1.7483  0.7131 -0.6878
 6099TIP3   OH239931   3.487   2.729   6.276 -0.6001  0.9131 -0.5111
 6099TIP3    H139932   3.475   2.803   6.336 -0.5876 -0.3694  1.1271
 6099TIP3    H239933   3.580   2.731   6.253  0.2093 -0.5077  2.2255
 6100TIP3   OH239934   3.460   1.399   8.201  0.2547 -0.1807  0.3506
 6100TIP3    H139935   3.498   1.313   8.182  0.9683  0.3474 -0.7739
 6100TIP3    H239936   3.371   1.394   8.165  0.1469 -0.5785  0.6656
 6101TIP3   OH239937   2.257   5.222   0.735 -0.8723  0.3545 -0.0028
 6101TIP3    H139938   2.300   5.144   0.770 -2.0528  0.6431  2.3501
 6101TIP3    H239939   2.211   5.191   0.657  0.0725 -0.8952 -0.0930
 6102TIP3   OH239940   0.589   3.378   2.654 -0.1064  0.4576  0.1225
 6102TIP3    H139941   0.594   3.316   2.727 -1.1696  0.9004  0.6055
 6102TIP3    H239942   0.669   3.364   2.604  0.2197 -0.4796  0.8802
 6103TIP3   OH239943   0.264   6.237   0.715 -0.5440 -0.3364 -0.2193
 6103TIP3    H139944   0.194   6.291   0.753 -0.2301  0.6730 -1.0137
 6103TIP3    H239945   0.233   6.147   0.723 -1.4796  0.0241  0.3482
 6104TIP3   OH239946   1.778   4.250   8.395  0.0259 -0.2656  0.0139
 6104TIP3    H139947   1.693   4.293   8.402 -0.4723 -0.8479 -1.8037
 6104TIP3    H239948   1.822   4.297   8.324  1.2962  0.1080  1.0165
 6105TIP3   OH239949   3.509   0.741   6.687 -0.0900  0.1306  0.1725
 6105TIP3    H139950   3.527   0.829   6.719 -1.4235  0.7467 -0.6890
 6105TIP3    H239951   3.596   0.705   6.666  0.4369  1.4073  0.0707
 6106TIP3   OH239952   4.569   0.662   1.790 -0.1206  0.4165 -0.1576
 6106TIP3    H139953   4.656   0.633   1.763 -0.4211 -1.6516  0.8929
 6106TIP3    H239954   4.572   0.757   1.785  2.8165  0.5141  1.6675
 6107TIP3   OH239955   6.825   6.967   7.889  0.3656  0.3429 -1.2491
 6107TIP3    H139956   6.885   6.892   7.884 -0.3839 -0.3433 -0.4313
 6107TIP3    H239957   6.865   7.034   7.834  2.6391  0.4400  0.3678
 6108TIP3   OH239958   3.428   2.061   6.914 -0.3461 -0.5831 -0.3433
 6108TIP3    H139959   3.384   1.984   6.878  0.0299 -0.0194 -2.0880
 6108TIP3    H239960   3.399   2.134   6.859  1.9165 -0.0163 -0.8893
 6109TIP3   OH239961   1.037   5.753   6.465 -0.4700 -0.3479  0.0837
 6109TIP3    H139962   0.949   5.715   6.465 -0.0675 -1.2986 -0.1060
 6109TIP3    H239963   1.056   5.769   6.373  1.1022 -3.9053 -0.3764
 6110TIP3   OH239964   3.485   0.809   8.245  0.6816 -0.3979  0.0549
 6110TIP3    H139965   3.445   0.778   8.163 -0.9507  0.5507  0.4397
 6110TIP3    H239966   3.530   0.889   8.221 -0.5274  0.3535  0.2039
 6111TIP3   OH239967   1.267   2.254   8.011 -0.0103 -0.2418  0.3291
 6111TIP3    H139968   1.326   2.232   7.939  0.5379  1.8017  0.0917
 6111TIP3    H239969   1.202   2.183   8.012  0.5888 -0.8656 -1.4747
 6112TIP3   OH239970   2.330   6.712   0.334  0.2222 -0.2435 -0.0294
 6112TIP3    H139971   2.404   6.665   0.295  0.2778  0.4062 -0.7307
 6112TIP3    H239972   2.253   6.681   0.285  0.2087  0.0898 -0.2226
 6113TIP3   OH239973   4.318   5.044   1.830  0.1857 -0.5325  0.1150
 6113TIP3    H139974   4.253   5.045   1.760  1.7683 -1.4098 -1.4445
 6113TIP3    H239975   4.279   4.990   1.898 -1.6729  0.8885  0.2814
 6114TIP3   OH239976   6.754   1.200   1.517  0.1994 -0.3395  0.5387
 6114TIP3    H139977   6.662   1.222   1.531  0.4245 -0.1694  1.8881
 6114TIP3    H239978   6.787   1.271   1.462 -0.1430  0.3708  1.2322
 6115TIP3   OH239979   3.176   0.326   0.778 -0.0366  0.0071 -0.4795
 6115TIP3    H139980   3.210   0.415   0.766  0.0162  0.0965  0.2771
 6115TIP3    H239981   3.154   0.322   0.871  1.7007 -1.3726 -0.0906
 6116TIP3   OH239982   2.893   2.258   2.215 -0.2575 -0.1517 -0.5714
 6116TIP3    H139983   2.802   2.283   2.199 -0.6497 -0.9684  0.3264
 6116TIP3    H239984   2.888   2.179   2.268  0.9818  0.0995 -0.0351
 6117TIP3   OH239985   4.860   6.431   1.940 -0.2521  0.1474 -0.4059
 6117TIP3    H139986   4.871   6.337   1.924  0.0298  0.3535 -1.4616
 6117TIP3    H239987   4.893   6.473   1.861 -0.9139  1.1158 -0.1803
 6118TIP3   OH239988   5.528   6.692   7.970 -0.4213  0.4634 -0.1065
 6118TIP3    H139989   5.530   6.652   8.057  0.5510  1.1597  0.2070
 6118TIP3    H239990   5.494   6.623   7.913 -0.9001 -0.0638  0.7853
 6119TIP3   OH239991   0.247   4.984   1.822 -0.0165  0.0520  0.3603
 6119TIP3    H139992   0.183   5.051   1.847  0.7982  0.4099  1.6204
 6119TIP3    H239993   0.295   5.022   1.748  0.2218  0.7470  0.8580
 6120TIP3   OH239994   3.705   4.565   0.152  0.2872 -0.3073  0.5506
 6120TIP3    H139995   3.781   4.555   0.209 -0.5735 -0.5228  1.6881
 6120TIP3    H239996   3.719   4.502   0.082  1.7529  0.5200  0.0534
 6121TIP3   OH239997   6.853   5.920   1.773  0.5853  0.0308 -0.1456
 6121TIP3    H139998   6.807   5.843   1.808 -0.0833  0.5167  0.0599
 6121TIP3    H239999   6.784   5.983   1.754  0.9396 -0.1107 -2.1105
 6122TIP3   OH240000   2.084   5.522   7.732  0.0414  0.1486  0.0466
 6122TIP3    H140001   2.118   5.531   7.643 -0.2942 -0.2580 -0.1286
 6122TIP3    H240002   2.034   5.602   7.748  0.4689  0.4189  0.0351
 6123TIP3   OH240003   3.505   3.160   6.709  0.5069 -0.0792 -0.1258
 6123TIP3    H140004   3.596   3.162   6.679  0.4295  0.7341 -0.3491
 6123TIP3    H240005   3.485   3.252   6.729 -0.4263 -0.1748 -0.5700
 6124TIP3   OH240006   1.796   2.866   7.596  0.2501 -0.5126  0.0959
 6124TIP3    H140007   1.865   2.901   7.653  0.9425  0.2883 -1.1702
 6124TIP3    H240008   1.735   2.822   7.655  1.8562 -1.2735  1.2634
 6125TIP3   OH240009   4.624   4.433   0.099  0.4374  0.1726 -0.2703
 6125TIP3    H140010   4.620   4.339   0.080 -0.4130  0.0224  0.5560
 6125TIP3    H240011   4.686   4.468   0.036  1.9555 -1.1940  0.4034
 6126TIP3   OH240012   1.235   4.113   2.140  0.5753 -0.3316  0.4346
 6126TIP3    H140013   1.274   4.078   2.060 -2.1492  1.9468 -2.1214
 6126TIP3    H240014   1.160   4.055   2.158  0.4331 -0.1035  0.5824
 6127TIP3   OH240015   3.737   1.625   8.059 -0.4806 -0.2389  0.3760
 6127TIP3    H140016   3.719   1.563   7.988 -1.3874  0.5296 -0.0885
 6127TIP3    H240017   3.742   1.710   8.015 -0.2566  0.1469  1.1387
 6128TIP3   OH240018   2.958   3.206   0.606  0.6344  0.2235 -0.0926
 6128TIP3    H140019   2.887   3.180   0.547  1.0417  0.9500 -0.9308
 6128TIP3    H240020   2.941   3.299   0.622 -0.1373 -0.2117  1.9049
 6129TIP3   OH240021   3.787   5.079   6.666  0.6557  0.2074 -0.0376
 6129TIP3    H140022   3.774   5.162   6.621  0.9226 -0.8807 -2.2828
 6129TIP3    H240023   3.700   5.039   6.669  0.7600 -0.0432 -0.2794
 6130TIP3   OH240024   3.478   4.666   0.414  0.1112  0.0034  0.5535
 6130TIP3    H140025   3.416   4.722   0.461 -0.8792 -1.3307  0.9103
 6130TIP3    H240026   3.562   4.685   0.455 -0.3967  0.3827  1.4618
 6131TIP3   OH240027   5.523   5.833   6.992  0.2378  0.6188  0.4504
 6131TIP3    H140028   5.556   5.743   6.996  1.3770  1.0747  1.8491
 6131TIP3    H240029   5.433   5.827   7.022  0.0481 -0.1638 -0.2415
 6132TIP3   OH240030   1.642   1.097   8.344 -0.3931  0.1724 -0.8161
 6132TIP3    H140031   1.684   1.086   8.429 -0.7922 -0.4296 -0.6857
 6132TIP3    H240032   1.705   1.063   8.281  1.6791  4.2457 -1.2663
 6133TIP3   OH240033   5.684   2.909   0.109 -0.1426  0.7533 -0.0585
 6133TIP3    H140034   5.594   2.935   0.129 -0.0569  1.9009 -1.0463
 6133TIP3    H240035   5.677   2.860   0.027 -0.0393 -0.6388  0.7219
 6134TIP3   OH240036   0.028   1.934   1.300  0.0349 -0.5777 -0.4970
 6134TIP3    H140037   0.100   1.945   1.362 -0.4811 -1.0250  0.1924
 6134TIP3    H240038  -0.046   1.904   1.353 -0.5919 -0.3820 -1.2330
 6135TIP3   OH240039   0.355   0.475   8.392  0.0409 -0.3003  0.1621
 6135TIP3    H140040   0.382   0.409   8.328  2.3512 -0.2078  0.9412
 6135TIP3    H240041   0.326   0.549   8.339  0.6606 -0.7029 -0.7742
 6136TIP3   OH240042   1.751   4.272   0.658  0.2778  0.3336 -0.0033
 6136TIP3    H140043   1.702   4.205   0.609  2.7285  0.3141 -2.6921
 6136TIP3    H240044   1.729   4.354   0.615  0.5367  0.6791  0.5142
 6137TIP3   OH240045   5.547   1.953   0.827 -0.3745  0.1693  0.5144
 6137TIP3    H140046   5.578   1.923   0.741  1.7573 -0.4596  1.4533
 6137TIP3    H240047   5.553   1.876   0.883 -2.7143  0.2994  1.0487
 6138TIP3   OH240048   0.222   0.815   0.819 -0.1236 -0.3598 -0.3828
 6138TIP3    H140049   0.244   0.902   0.853 -0.0333 -0.2645 -0.6833
 6138TIP3    H240050   0.273   0.807   0.738 -1.3510 -0.0514 -1.2128
 6139TIP3   OH240051   0.852   0.193   0.052 -0.5808 -0.4232  0.2803
 6139TIP3    H140052   0.899   0.148   0.123 -2.0372 -0.1365  1.4804
 6139TIP3    H240053   0.864   0.136  -0.024  2.1739 -0.0522  0.3520
 6140TIP3   OH240054   2.807   0.512   0.962  0.2903 -0.2425  0.0526
 6140TIP3    H140055   2.845   0.576   0.902  2.4605 -0.8574  0.6868
 6140TIP3    H240056   2.734   0.558   1.003  0.4181  1.0556 -1.1045
 6141TIP3   OH240057   3.002   4.177   1.911 -0.1276 -0.3562  0.2547
 6141TIP3    H140058   2.997   4.272   1.917 -3.1527 -0.3446 -0.9028
 6141TIP3    H240059   2.939   4.154   1.843  2.5365 -3.0376 -1.5605
 6142TIP3   OH240060   5.477   4.859   0.904  0.1429 -0.1942 -0.0727
 6142TIP3    H140061   5.545   4.840   0.838 -0.1731 -1.0178 -0.1766
 6142TIP3    H240062   5.525   4.865   0.986  0.3094 -1.1586 -0.0860
 6143TIP3   OH240063   4.788   5.399   1.191 -0.3579  0.8608  0.0659
 6143TIP3    H140064   4.751   5.336   1.254 -0.5823  1.6353  0.7215
 6143TIP3    H240065   4.760   5.366   1.106  1.3477 -1.1619  0.1944
 6144TIP3   OH240066   6.222   2.208   2.467  0.3456  0.1377 -0.6148
 6144TIP3    H140067   6.250   2.298   2.451 -0.9032  1.0787  1.9541
 6144TIP3    H240068   6.303   2.160   2.482  0.9540  1.2347 -0.2798
 6145TIP3   OH240069   1.868   0.225   0.847 -0.0831 -0.4582 -0.4901
 6145TIP3    H140070   1.917   0.306   0.828 -1.4158  1.7383  4.0934
 6145TIP3    H240071   1.924   0.177   0.907 -1.5370 -0.1410  1.1901
 6146TIP3   OH240072   6.377   4.732   2.279 -0.5002  0.1749 -0.0605
 6146TIP3    H140073   6.348   4.763   2.193 -2.3425  2.4220  1.2653
 6146TIP3    H240074   6.451   4.788   2.301 -1.3864  1.0700  0.6972
 6147TIP3   OH240075   4.505   5.867   6.578  0.2293  0.6131 -0.1172
 6147TIP3    H140076   4.419   5.907   6.566  0.3101 -0.0389 -4.2088
 6147TIP3    H240077   4.488   5.773   6.575  1.0689  0.4765 -1.6594
 6148TIP3   OH240078   5.622   2.652   2.559  0.2508 -0.3856  1.6667
 6148TIP3    H140079   5.614   2.627   2.467 -0.0690 -1.8531  2.0551
 6148TIP3    H240080   5.594   2.743   2.563  0.2753 -0.3089  0.3169
 6149TIP3   OH240081   5.481   4.957   2.136  0.9312  0.6345 -0.1381
 6149TIP3    H140082   5.516   4.998   2.214  2.1793 -1.1571  0.3002
 6149TIP3    H240083   5.501   4.864   2.146 -0.7454  0.0538 -1.6147
 6150TIP3   OH240084   5.419   2.324   6.373 -0.6046 -0.3931 -0.3322
 6150TIP3    H140085   5.340   2.378   6.384  0.6291  1.9564 -2.1131
 6150TIP3    H240086   5.412   2.258   6.442 -4.0091 -0.1847 -0.2808
 6151TIP3   OH240087   4.583   1.046   2.005  0.8935  0.1409  0.5833
 6151TIP3    H140088   4.521   1.067   2.075  1.6055  0.0795  1.2453
 6151TIP3    H240089   4.654   1.000   2.050  1.2858 -0.0371 -0.2115
 6152TIP3   OH240090   6.605   0.737   2.527 -0.1687 -0.1756  0.2810
 6152TIP3    H140091   6.631   0.821   2.564  1.6186 -1.5573  2.4828
 6152TIP3    H240092   6.542   0.702   2.591 -0.6196 -0.6671 -0.4202
 6153TIP3   OH240093   3.566   4.110   6.935  0.0377 -0.4678 -0.4754
 6153TIP3    H140094   3.566   4.079   6.845 -0.6376 -0.9534 -0.3182
 6153TIP3    H240095   3.659   4.116   6.959  0.2154 -0.4263 -1.1647
 6154TIP3   OH240096   1.020   0.025   0.217  0.2411  0.3926  0.1121
 6154TIP3    H140097   1.043   0.037   0.309 -0.0729 -1.0293  0.4133
 6154TIP3    H240098   0.952  -0.043   0.219 -0.7821  1.3350 -1.0683
 6155TIP3   OH240099   6.310   2.422   1.292 -0.3468 -0.9322  0.4693
 6155TIP3    H140100   6.240   2.486   1.282 -0.7722 -1.5863 -0.9925
 6155TIP3    H240101   6.283   2.347   1.239 -0.0309 -2.5061  2.3908
 6156TIP3   OH240102   1.209   2.085   0.736  0.3634 -0.0246  0.3767
 6156TIP3    H140103   1.168   2.099   0.821 -0.0420 -1.3488  0.4210
 6156TIP3    H240104   1.229   2.173   0.704 -0.8103  0.5535  1.1812
 6157TIP3   OH240105   5.996   6.399   0.411 -0.3536  0.4601 -0.2774
 6157TIP3    H140106   6.014   6.390   0.317  0.0904  1.4276 -0.2968
 6157TIP3    H240107   5.935   6.472   0.417  1.1404  1.7139  0.3084
 6158TIP3   OH240108   1.965   5.828   0.678  0.1380 -0.2913  0.3518
 6158TIP3    H140109   1.990   5.896   0.615 -1.3249 -0.2753 -0.2470
 6158TIP3    H240110   1.975   5.746   0.629 -0.6301 -0.3086  0.2196
 6159TIP3   OH240111   3.281   5.362   7.706 -0.2876 -0.1715 -0.0820
 6159TIP3    H140112   3.231   5.359   7.788 -1.5810 -0.6896 -0.8682
 6159TIP3    H240113   3.348   5.295   7.717 -1.3343 -1.2329  0.0200
 6160TIP3   OH240114   2.784   0.838   7.189 -0.1475  0.2612  0.9211
 6160TIP3    H140115   2.696   0.837   7.225 -0.2409  1.1652  0.7406
 6160TIP3    H240116   2.841   0.826   7.266 -0.4141  0.0610  1.0875
 6161TIP3   OH240117   1.422   2.042   7.341 -0.2271  0.2071  0.0929
 6161TIP3    H140118   1.398   1.978   7.274 -2.8059  0.3616  0.7443
 6161TIP3    H240119   1.450   2.119   7.292 -0.0030 -0.3997 -0.7570
 6162TIP3   OH240120   6.257   6.723   7.322  0.2317 -0.3604  0.1126
 6162TIP3    H140121   6.303   6.697   7.402 -0.0760 -2.5657 -0.3399
 6162TIP3    H240122   6.173   6.677   7.327  0.1099 -0.3505 -1.3562
 6163TIP3   OH240123   1.512   1.968   7.984 -0.2335 -0.0126 -0.2734
 6163TIP3    H140124   1.570   2.004   8.051  0.7786 -0.8360 -0.6782
 6163TIP3    H240125   1.504   2.037   7.919 -0.0210  0.2486 -0.0236
 6164TIP3   OH240126   2.051   1.652   8.041  0.2866  0.1301 -0.2758
 6164TIP3    H140127   2.010   1.634   7.957 -0.6519  1.9091 -0.2475
 6164TIP3    H240128   2.001   1.725   8.077  1.6532  0.4404  1.1113
 6165TIP3   OH240129   3.334   1.926   0.318 -0.2607 -0.1400 -1.0500
 6165TIP3    H140130   3.325   1.889   0.231  0.7183 -0.3769 -1.0699
 6165TIP3    H240131   3.292   2.012   0.313 -3.6071 -1.6072 -0.6855
 6166TIP3   OH240132   4.735   2.449   8.056  0.0654 -0.0056  0.4637
 6166TIP3    H140133   4.767   2.360   8.070  0.7272  0.4863  2.5097
 6166TIP3    H240134   4.808   2.494   8.013  0.5775  0.0537  1.3546
 6167TIP3   OH240135   3.779   0.873   6.896 -0.1818  0.3341  0.3115
 6167TIP3    H140136   3.868   0.878   6.860 -0.4154 -0.5761 -0.4181
 6167TIP3    H240137   3.749   0.785   6.873 -0.8748  0.2466  1.4995
 6168TIP3   OH240138   1.847   1.054   8.174 -0.0614  0.1617 -0.2780
 6168TIP3    H140139   1.894   1.088   8.098  3.0855 -0.1291  1.3654
 6168TIP3    H240140   1.892   0.972   8.195 -1.7462 -0.4579  1.1005
 6169TIP3   OH240141   2.163   6.467   7.682 -0.6097 -0.3829  0.2305
 6169TIP3    H140142   2.103   6.473   7.756  0.5980  1.4144  1.1437
 6169TIP3    H240143   2.247   6.497   7.717  0.4211 -1.1863 -1.4323
 6170TIP3   OH240144   3.446   3.830   0.680 -0.2011 -0.1849  0.4399
 6170TIP3    H140145   3.420   3.887   0.608  2.5079  1.0376  0.2708
 6170TIP3    H240146   3.514   3.774   0.642 -0.9292 -1.7014  1.2973
 6171TIP3   OH240147   5.295   1.132   7.750 -0.8608  0.0065 -0.0706
 6171TIP3    H140148   5.250   1.047   7.744  0.0010 -0.3396 -2.7376
 6171TIP3    H240149   5.263   1.181   7.674 -1.2318  2.0850  1.3484
 6172TIP3   OH240150   2.696   0.630   2.139 -0.4869  0.1123  0.2168
 6172TIP3    H140151   2.772   0.685   2.119 -0.9414  0.3985 -0.8253
 6172TIP3    H240152   2.623   0.692   2.141 -0.8504 -0.3065  0.0649
 6173TIP3   OH240153   0.774   5.217   0.524 -0.5230  0.4005  1.1808
 6173TIP3    H140154   0.756   5.239   0.615  0.9744 -0.2570  1.6804
 6173TIP3    H240155   0.690   5.223   0.479 -1.4820 -0.3065  2.8275
 6174TIP3   OH240156   5.612   3.167   7.233 -0.0387  0.5378 -0.1185
 6174TIP3    H140157   5.539   3.227   7.215  0.6046  2.0472  1.9210
 6174TIP3    H240158   5.687   3.208   7.189  0.3042  1.0307  0.8883
 6175TIP3   OH240159   0.096   1.538   0.685  0.2092  0.1347 -0.2908
 6175TIP3    H140160   0.187   1.566   0.676  0.3862  1.2641  3.3963
 6175TIP3    H240161   0.045   1.610   0.648  0.8268  1.5934  1.5401
 6176TIP3   OH240162   1.533   4.863   6.700 -0.1567 -0.5508 -0.0465
 6176TIP3    H140163   1.454   4.892   6.655  0.3838 -1.6274 -1.8028
 6176TIP3    H240164   1.604   4.906   6.655  0.3374 -0.4093  0.8410
 6177TIP3   OH240165   4.480   0.234   8.247  0.4634  0.3691 -0.0810
 6177TIP3    H140166   4.543   0.217   8.317  1.6938  1.2392 -0.9224
 6177TIP3    H240167   4.494   0.163   8.184  0.1199  0.1929  0.0368
 6178TIP3   OH240168   2.339   3.232   1.180  0.1665 -0.0288 -0.3371
 6178TIP3    H140169   2.317   3.285   1.104  1.8824 -0.1608 -0.9897
 6178TIP3    H240170   2.395   3.289   1.233  0.7662 -0.6616 -0.2779
 6179TIP3   OH240171   5.284   2.629   8.360 -0.2136 -0.1564  0.2465
 6179TIP3    H140172   5.325   2.715   8.363 -2.1174  0.7737  0.4203
 6179TIP3    H240173   5.351   2.573   8.320  0.9168  1.4620 -0.2400
 6180TIP3   OH240174   3.578   1.962   7.621  0.0484  0.3330 -0.5419
 6180TIP3    H140175   3.595   2.056   7.610  2.3405  0.3320  1.9913
 6180TIP3    H240176   3.650   1.919   7.576 -0.7478 -0.2314 -1.3022
 6181TIP3   OH240177   3.537   2.218   8.271 -0.3642  0.2716  0.1471
 6181TIP3    H140178   3.442   2.213   8.257 -0.3034  1.0608 -0.6074
 6181TIP3    H240179   3.550   2.175   8.356 -1.2002 -1.2638 -0.4481
 6182TIP3   OH240180   5.572   4.052   7.857  0.6209 -0.0300 -0.2866
 6182TIP3    H140181   5.584   4.128   7.801 -1.3838  1.2401  0.8608
 6182TIP3    H240182   5.479   4.031   7.849  0.2921  0.0802  2.3050
 6183TIP3   OH240183   6.343   0.610   1.843 -0.2999 -0.4291 -0.2116
 6183TIP3    H140184   6.324   0.517   1.832 -2.6359 -0.0628  0.2568
 6183TIP3    H240185   6.333   0.626   1.936  0.4009  0.2589 -0.2403
 6184TIP3   OH240186   6.419   5.809   6.510  0.0065 -0.1029 -0.2082
 6184TIP3    H140187   6.440   5.726   6.554  1.5707 -0.0689 -0.8091
 6184TIP3    H240188   6.460   5.800   6.424 -0.6371  0.9228 -0.6287
 6185TIP3   OH240189   0.153   3.818   6.017  0.8470  0.2090 -0.2263
 6185TIP3    H140190   0.073   3.842   5.970  0.2049  1.0045  1.2311
 6185TIP3    H240191   0.214   3.791   5.947 -0.4570  0.1980 -1.4083
 6186TIP3   OH240192   3.940   2.017   0.267 -0.0536 -0.0349 -0.2283
 6186TIP3    H140193   3.975   2.000   0.355  1.2076 -0.2274 -0.7429
 6186TIP3    H240194   3.988   2.094   0.237 -0.7368  0.2446 -0.6221
 6187TIP3   OH240195   6.573   6.146   1.890  0.4982 -0.1583 -0.1615
 6187TIP3    H140196   6.637   6.117   1.825  0.2581  0.1172 -0.5237
 6187TIP3    H240197   6.601   6.104   1.971  1.5924  0.5620 -0.1390
 6188TIP3   OH240198   4.757   5.271   0.961 -0.0190 -0.3251 -0.5782
 6188TIP3    H140199   4.662   5.264   0.977 -0.0027 -1.0156 -0.7758
 6188TIP3    H240200   4.765   5.343   0.899 -0.4951 -0.7871 -1.1960
 6189TIP3   OH240201   4.785   2.764   2.542 -0.7145  0.7281  0.5077
 6189TIP3    H140202   4.856   2.707   2.514 -0.7391  1.2946 -0.7920
 6189TIP3    H240203   4.828   2.840   2.581 -0.5858  0.9657 -0.0738
 6190TIP3   OH240204   6.705   6.640   7.724  0.0367 -0.3834  0.3017
 6190TIP3    H140205   6.705   6.701   7.650  0.3437 -0.1404  0.4995
 6190TIP3    H240206   6.795   6.638   7.754 -0.2278  0.1621  1.1847
 6191TIP3   OH240207   5.650   4.945   6.885 -0.7697  0.0392  0.2935
 6191TIP3    H140208   5.589   4.871   6.878 -1.1009  0.4139 -0.9823
 6191TIP3    H240209   5.621   5.007   6.818  0.8780  0.3212 -0.2024
 6192TIP3   OH240210   5.026   0.103   6.536 -0.3858  0.3638 -0.5349
 6192TIP3    H140211   5.106   0.066   6.572 -0.4574  1.3648  0.7499
 6192TIP3    H240212   5.015   0.061   6.451  2.0286  0.9157 -1.1835
 6193TIP3   OH240213   0.207   0.801   6.884 -0.5149 -0.0235  0.1909
 6193TIP3    H140214   0.225   0.824   6.793  2.4253 -0.1138  0.6504
 6193TIP3    H240215   0.119   0.764   6.883 -1.0035  1.0268 -2.3959
 6194TIP3   OH240216   0.161   3.396   1.995  0.1707  0.0943 -0.3054
 6194TIP3    H140217   0.239   3.420   2.045  0.2563 -0.1023 -0.3423
 6194TIP3    H240218   0.188   3.405   1.904  0.4764 -0.9702 -0.3338
 6195TIP3   OH240219   6.933   0.824   7.230  0.5216  0.0099 -0.5718
 6195TIP3    H140220   6.852   0.787   7.197  1.0663 -0.6820 -1.1541
 6195TIP3    H240221   6.998   0.806   7.162  0.8445  1.9414 -0.8408
 6196TIP3   OH240222   2.460   1.265   1.538  0.3225  0.5723  0.4014
 6196TIP3    H140223   2.550   1.289   1.515 -0.6789  3.2034 -1.1132
 6196TIP3    H240224   2.413   1.348   1.543 -1.7886 -0.6376  2.4174
 6197TIP3   OH240225   4.564   2.675   1.182 -0.6642  0.2872  0.3549
 6197TIP3    H140226   4.573   2.766   1.154 -1.5772  0.0551 -0.7945
 6197TIP3    H240227   4.647   2.634   1.159 -0.6770  0.5705 -0.2087
 6198TIP3   OH240228   0.458   6.494   0.775  0.3440  0.2547 -0.3257
 6198TIP3    H140229   0.382   6.543   0.744 -0.9557 -1.2104  0.4321
 6198TIP3    H240230   0.468   6.422   0.713  0.2464 -0.3559  0.3539
 6199TIP3   OH240231   1.166   0.365   6.966 -0.2487 -0.7425  0.1353
 6199TIP3    H140232   1.224   0.294   6.940  0.1149 -0.4125  0.0236
 6199TIP3    H240233   1.078   0.328   6.962 -0.5046 -0.1847 -3.7361
 6200TIP3   OH240234   5.823   1.356   7.573 -0.1243 -0.0545  0.0550
 6200TIP3    H140235   5.905   1.397   7.599  0.0304 -0.6944  0.5948
 6200TIP3    H240236   5.768   1.361   7.651 -0.0804 -0.9240  0.1515
 6201TIP3   OH240237   2.196   0.279   0.747 -0.4551 -0.3667  0.1043
 6201TIP3    H140238   2.284   0.315   0.747  0.0715 -1.6119 -0.2871
 6201TIP3    H240239   2.191   0.227   0.827  0.7418 -3.8438 -1.8300
 6202TIP3   OH240240   5.382   6.820   0.250 -0.1591  0.0621  0.3380
 6202TIP3    H140241   5.441   6.873   0.303  0.5140  2.3801 -2.4944
 6202TIP3    H240242   5.294   6.850   0.274  0.0348 -0.0148  1.1789
 6203TIP3   OH240243   2.610   0.703   0.138  0.6718  0.0649  0.2709
 6203TIP3    H140244   2.539   0.690   0.202  0.9239 -0.1596  0.5087
 6203TIP3    H240245   2.588   0.785   0.095  0.4709  0.1975  0.6148
 6204TIP3   OH240246   5.871   6.270   0.150 -0.0131  0.5555 -0.7492
 6204TIP3    H140247   5.946   6.222   0.116  0.2804 -0.1174  0.7602
 6204TIP3    H240248   5.825   6.207   0.206 -0.4448  1.6091  0.1225
 6205TIP3   OH240249   5.713   3.345   0.825 -0.5286 -0.3610  0.9311
 6205TIP3    H140250   5.619   3.325   0.829 -0.4646 -0.4305  2.8076
 6205TIP3    H240251   5.742   3.340   0.916  1.3806 -0.6821  0.3383
 6206TIP3   OH240252   2.758   6.643   0.587 -0.4424  0.6409  0.2132
 6206TIP3    H140253   2.820   6.715   0.573 -1.4228  1.3299 -0.8278
 6206TIP3    H240254   2.750   6.635   0.682  3.1662 -1.2034  0.5170
 6207TIP3   OH240255   6.132   4.729   7.836  0.5539  0.3443 -0.6304
 6207TIP3    H140256   6.201   4.795   7.831  0.0452  0.8135 -1.9507
 6207TIP3    H240257   6.059   4.774   7.878  0.8834 -0.0178  0.3558
 6208TIP3   OH240258   0.569   6.479   1.604 -0.2645  0.1633 -0.0908
 6208TIP3    H140259   0.573   6.511   1.514  1.8568 -1.1772 -0.5376
 6208TIP3    H240260   0.575   6.384   1.597 -0.3699  0.0130  1.4656
 6209TIP3   OH240261   5.728   2.138   0.689  0.1391 -0.6823  0.3276
 6209TIP3    H140262   5.649   2.086   0.708  0.2422 -0.9703 -0.0080
 6209TIP3    H240263   5.701   2.229   0.701 -0.2085 -0.7863  0.3429
 6210TIP3   OH240264   1.405   6.127   0.235 -0.6906 -0.2233 -0.3912
 6210TIP3    H140265   1.396   6.204   0.180 -1.3136  0.5518  0.7597
 6210TIP3    H240266   1.364   6.057   0.185 -0.6098  0.3052 -1.2110
 6211TIP3   OH240267   2.524   6.897   7.872 -0.3307 -0.0895  0.1344
 6211TIP3    H140268   2.535   6.987   7.902 -3.9113  0.7385 -0.5720
 6211TIP3    H240269   2.612   6.867   7.853  0.9594  3.6041 -0.5033
 6212TIP3   OH240270   5.552   4.303   0.381 -0.5985 -0.0967 -0.6361
 6212TIP3    H140271   5.637   4.277   0.346 -0.9794 -0.3621 -1.3735
 6212TIP3    H240272   5.573   4.364   0.452  0.2711 -1.4062  0.2776
 6213TIP3   OH240273   5.063   0.151   7.848 -0.0982 -0.0563 -0.1465
 6213TIP3    H140274   5.016   0.070   7.830 -0.2821 -0.1904  0.8857
 6213TIP3    H240275   5.037   0.175   7.937 -0.3939  1.3697 -0.5786
 6214TIP3   OH240276   1.062   6.024   8.121  0.4058 -0.0880  0.4325
 6214TIP3    H140277   1.001   5.957   8.090 -0.2567  1.6148 -2.1762
 6214TIP3    H240278   1.141   6.012   8.069  0.9178  0.1208  1.1366
 6215TIP3   OH240279   3.470   4.364   7.421  0.5814 -0.5107  0.0343
 6215TIP3    H140280   3.448   4.271   7.424  0.9663 -0.5871  0.8668
 6215TIP3    H240281   3.556   4.370   7.462  0.3819  0.2617  0.3642
 6216TIP3   OH240282   1.001   4.406   6.630 -0.0314 -0.2086 -0.2600
 6216TIP3    H140283   1.030   4.439   6.715  1.0129 -0.1536 -0.6128
 6216TIP3    H240284   0.946   4.475   6.594  0.5335  0.3147 -0.1475
 6217TIP3   OH240285   5.922   1.784   8.021  0.5016  0.7942  0.3081
 6217TIP3    H140286   5.841   1.757   8.063  0.4230 -1.7508 -1.2899
 6217TIP3    H240287   5.985   1.792   8.093 -0.2406 -0.9322  1.1852
 6218TIP3   OH240288   2.246   6.960   7.205  0.5731  1.1619  0.3907
 6218TIP3    H140289   2.216   6.945   7.115 -0.6829  1.5945  0.7161
 6218TIP3    H240290   2.222   7.051   7.224 -1.2030  0.4599  1.8765
 6219TIP3   OH240291   6.755   4.672   7.927 -0.3870  0.1542  0.9511
 6219TIP3    H140292   6.806   4.592   7.915 -1.9805 -0.5890 -1.5473
 6219TIP3    H240293   6.682   4.646   7.983 -1.3671 -0.4296 -0.5398
 6220TIP3   OH240294   6.030   1.490   7.882 -0.2730 -0.2977  0.0411
 6220TIP3    H140295   6.073   1.463   7.801  0.2038 -0.5005  0.3582
 6220TIP3    H240296   6.081   1.565   7.912 -0.3193 -0.3560  0.2660
 6221TIP3   OH240297   2.538   0.027   2.415 -0.1325 -0.2333  0.6550
 6221TIP3    H140298   2.612   0.004   2.359 -0.5085 -0.7949  0.3833
 6221TIP3    H240299   2.462  -0.008   2.369 -0.4661 -0.5341  1.4291
 6222TIP3   OH240300   4.966   2.885   8.097 -0.7162  0.0369 -0.3733
 6222TIP3    H140301   4.991   2.806   8.144  0.1172  1.0461  0.9486
 6222TIP3    H240302   4.957   2.857   8.006 -0.8676 -1.6527  0.1222
 6223TIP3   OH240303   1.905   5.988   7.880  0.1285 -0.0348  0.6338
 6223TIP3    H140304   1.964   6.062   7.867 -0.1609  0.4128  1.7670
 6223TIP3    H240305   1.824   6.014   7.835  0.3979 -0.1636  0.0592
 6224TIP3   OH240306   0.778   1.886   7.353 -0.0195 -0.0973  0.0910
 6224TIP3    H140307   0.827   1.868   7.433  0.5195 -0.5832 -0.3369
 6224TIP3    H240308   0.826   1.958   7.311 -0.0225 -0.1629 -0.0257
 6225TIP3   OH240309   2.582   2.586   1.533 -0.3385  0.6310  0.3943
 6225TIP3    H140310   2.539   2.666   1.506 -3.4104 -1.3514 -1.1465
 6225TIP3    H240311   2.612   2.546   1.450  0.0819 -0.3523  1.0011
 6226TIP3   OH240312   6.509   3.665   2.425  0.0609 -0.0780  0.1935
 6226TIP3    H140313   6.514   3.709   2.510 -0.0927  0.2467  0.0317
 6226TIP3    H240314   6.483   3.733   2.363 -0.4155 -0.4469 -0.0168
 6227TIP3   OH240315   4.792   2.763   7.273 -0.0099 -0.1684  0.0310
 6227TIP3    H140316   4.709   2.715   7.272 -1.3808  2.0476 -0.5046
 6227TIP3    H240317   4.783   2.828   7.203  2.1553  0.2060  0.0274
 6228TIP3   OH240318   2.611   3.103   7.092 -0.4364 -0.0700 -0.3808
 6228TIP3    H140319   2.633   3.011   7.079  1.5922  0.5589 -1.9683
 6228TIP3    H240320   2.670   3.132   7.162 -0.7057  0.1448 -0.2403
 6229TIP3   OH240321   5.850   1.452   1.019 -0.6907 -0.4596 -0.2017
 6229TIP3    H140322   5.811   1.373   1.056 -0.1544 -0.7486 -0.2353
 6229TIP3    H240323   5.937   1.423   0.988 -0.7394 -0.0017 -0.7841
 6230TIP3   OH240324   4.312   6.283   0.037 -0.2357 -0.5787 -0.2340
 6230TIP3    H140325   4.405   6.279   0.015 -0.0922  0.0875  0.2368
 6230TIP3    H240326   4.308   6.340   0.114 -1.1599  0.4792 -1.0259
 6231TIP3   OH240327   5.480   3.762   7.750 -0.4601 -0.0426  0.1276
 6231TIP3    H140328   5.389   3.773   7.777 -0.5512 -1.0248  0.2558
 6231TIP3    H240329   5.513   3.690   7.803 -0.1463 -0.9088 -1.1840
 6232TIP3   OH240330   5.568   3.848   2.161  0.3350 -0.0701  0.2688
 6232TIP3    H140331   5.654   3.882   2.185 -0.2746  0.1731  2.2537
 6232TIP3    H240332   5.554   3.775   2.221 -1.4583  0.8317  1.0028
 6233TIP3   OH240333   6.591   6.959   7.479 -0.0978 -0.5881  0.3806
 6233TIP3    H140334   6.564   7.038   7.526 -0.9946 -1.7649  1.9693
 6233TIP3    H240335   6.685   6.952   7.496 -0.1983 -0.3743  1.0499
 6234TIP3   OH240336   1.649   5.391   1.221  0.3717 -0.3774  0.1014
 6234TIP3    H140337   1.562   5.359   1.197  0.8720 -0.9052 -1.0561
 6234TIP3    H240338   1.709   5.323   1.191  1.2527  0.3737  0.1314
 6235TIP3   OH240339   5.466   1.208   2.247 -0.3364 -0.4781  0.1553
 6235TIP3    H140340   5.549   1.256   2.245 -0.0473 -0.9463  0.6810
 6235TIP3    H240341   5.401   1.270   2.213  0.0645  0.2098  0.6343
 6236TIP3   OH240342   1.188   2.571   6.264  0.5060 -0.5391  0.3698
 6236TIP3    H140343   1.116   2.626   6.294  0.7050 -0.4914  0.7661
 6236TIP3    H240344   1.265   2.628   6.269  0.5599 -0.5617 -0.1340
 6237TIP3   OH240345   6.740   0.982   1.334  0.4430 -0.4454 -0.3208
 6237TIP3    H140346   6.763   1.063   1.379  2.1340 -0.1229 -1.6710
 6237TIP3    H240347   6.645   0.977   1.341  0.1111  2.4155 -1.4111
 6238TIP3   OH240348   4.940   6.579   2.392  0.0346 -0.0696  0.8692
 6238TIP3    H140349   4.863   6.624   2.427 -1.6025 -2.1247  0.0585
 6238TIP3    H240350   4.956   6.621   2.307  0.9244  1.5174  1.7741
 6239TIP3   OH240351   2.022   5.476   6.804 -0.1312  0.2935  0.1536
 6239TIP3    H140352   1.956   5.524   6.853 -0.8408  0.1497 -0.6398
 6239TIP3    H240353   2.032   5.393   6.851  0.3567  0.7923  0.9450
 6240TIP3   OH240354   3.694   4.231   7.561  0.6515  0.6226 -0.3067
 6240TIP3    H140355   3.732   4.146   7.542 -0.5572 -0.1287  0.4994
 6240TIP3    H240356   3.760   4.276   7.614  0.6089 -0.4998  0.7274
 6241TIP3   OH240357   0.473   3.010   6.833 -0.7739 -0.1306 -0.4427
 6241TIP3    H140358   0.526   3.048   6.762  0.1924  0.2363  0.4519
 6241TIP3    H240359   0.383   3.030   6.808 -0.4094  0.6692 -1.1837
 6242TIP3   OH240360   4.140   1.014   8.309  0.4733  0.5989 -0.3469
 6242TIP3    H140361   4.224   0.991   8.270 -0.5172 -1.5639 -1.3261
 6242TIP3    H240362   4.108   0.933   8.347 -2.1334  0.8332 -1.8549
 6243TIP3   OH240363   0.139   2.952   0.601  0.4222 -0.4278  0.3770
 6243TIP3    H140364   0.056   2.904   0.597  0.7507 -1.0631  0.9685
 6243TIP3    H240365   0.196   2.896   0.653  1.2513 -0.0322 -0.0934
 6244TIP3   OH240366   6.942   1.588   7.915 -0.3137  0.6110  0.2183
 6244TIP3    H140367   6.932   1.527   7.989 -1.3491  1.3500  0.7188
 6244TIP3    H240368   6.909   1.671   7.949  1.4997  1.5898 -0.3015
 6245TIP3   OH240369   6.429   0.100   0.414  0.1522  0.9109  0.2096
 6245TIP3    H140370   6.413   0.147   0.496 -2.3364  0.4082  0.0660
 6245TIP3    H240371   6.374   0.022   0.420  1.7382 -0.3664 -0.9598
 6246TIP3   OH240372   6.912   2.345   7.704  0.1045 -0.3127 -0.6600
 6246TIP3    H140373   6.982   2.320   7.766  0.9541 -1.3139 -1.9549
 6246TIP3    H240374   6.861   2.265   7.694 -1.4718  0.5012  0.5120
 6247TIP3   OH240375   6.297   3.057   7.136  0.1348 -0.0143  0.3473
 6247TIP3    H140376   6.333   3.146   7.130  1.3121 -0.4521  0.7801
 6247TIP3    H240377   6.234   3.052   7.064  1.7517  0.3972 -1.1439
 6248TIP3   OH240378   6.259   6.491   1.279 -0.5628  0.5733  0.0435
 6248TIP3    H140379   6.333   6.527   1.328 -0.3938 -0.1044  0.3096
 6248TIP3    H240380   6.274   6.518   1.189 -0.4644  1.1894  0.2415
 6249TIP3   OH240381   6.374   5.092   0.667 -0.8035 -0.1007  0.4747
 6249TIP3    H140382   6.380   5.030   0.595  0.1679 -0.1043  0.5425
 6249TIP3    H240383   6.456   5.141   0.664 -0.1762 -0.9177  2.2878
 6250TIP3   OH240384   4.149   3.364   1.539 -0.2411 -0.4841  0.8659
 6250TIP3    H140385   4.240   3.354   1.511 -0.6546  0.0127 -0.7775
 6250TIP3    H240386   4.109   3.279   1.524 -1.0973  0.3613 -2.8000
 6251TIP3   OH240387   1.437   0.113   2.566  0.1317 -0.1845 -0.4265
 6251TIP3    H140388   1.458   0.059   2.491  0.3739  1.1509 -1.3458
 6251TIP3    H240389   1.347   0.142   2.551 -0.3077 -0.9863  0.4898
 6252TIP3   OH240390   0.267   1.654   1.071  0.6312  0.0456  0.3482
 6252TIP3    H140391   0.204   1.702   1.017 -0.7130 -0.8084  1.0854
 6252TIP3    H240392   0.325   1.611   1.009 -0.6426 -0.6076 -0.4085
 6253TIP3   OH240393   1.559   1.277   1.023  0.4293 -0.2364  0.3615
 6253TIP3    H140394   1.514   1.338   1.081  0.4504 -0.2372  0.3789
 6253TIP3    H240395   1.559   1.320   0.938  1.8545  0.5189  0.7081
 6254TIP3   OH240396   1.881   4.416   7.614  0.2887  0.3212  0.0017
 6254TIP3    H140397   1.869   4.509   7.630 -0.5060  0.3030 -0.4683
 6254TIP3    H240398   1.976   4.406   7.603  0.7898  0.5588  3.1396
 6255TIP3   OH240399   1.579   2.257   7.031  0.0863  0.7311 -0.1403
 6255TIP3    H140400   1.558   2.315   6.958 -1.7751 -0.6256 -0.7650
 6255TIP3    H240401   1.521   2.286   7.102  0.6461  0.9336  0.2427
 6256TIP3   OH240402   1.099   1.734   7.988 -0.3505  0.0234 -0.3244
 6256TIP3    H140403   1.144   1.816   8.008  2.8639 -1.7553  0.4132
 6256TIP3    H240404   1.117   1.719   7.895  0.3353 -0.5332 -0.1070
 6257TIP3   OH240405   1.200   4.271   1.776  0.4813  0.1280 -0.5662
 6257TIP3    H140406   1.292   4.281   1.800 -0.0906  1.4237  1.3035
 6257TIP3    H240407   1.186   4.337   1.708  0.9858 -0.2683 -1.0642
 6258TIP3   OH240408   3.894   2.463   7.959  0.0871 -0.6990 -0.4173
 6258TIP3    H140409   3.806   2.490   7.985  0.5487  0.1555  0.3239
 6258TIP3    H240410   3.890   2.368   7.957 -1.0824 -0.6504 -1.2427
 6259TIP3   OH240411   5.155   1.509   0.306 -0.0632 -0.4033 -0.1400
 6259TIP3    H140412   5.109   1.451   0.246 -1.1873  0.1811  0.1403
 6259TIP3    H240413   5.196   1.575   0.249 -0.1067 -0.5495 -0.3416
 6260TIP3   OH240414   4.673   4.981   1.548  0.2365  0.6099 -0.5752
 6260TIP3    H140415   4.653   4.894   1.514  1.2838  0.4637 -0.8746
 6260TIP3    H240416   4.649   4.977   1.641  0.2980 -0.0158 -0.5813
 6261TIP3   OH240417   5.756   2.634   7.489  0.6761 -0.7281 -0.1716
 6261TIP3    H140418   5.766   2.540   7.477  0.9158 -0.4623 -2.4635
 6261TIP3    H240419   5.845   2.668   7.494  0.6045 -0.5315 -0.2048
 6262TIP3   OH240420   5.503   0.009   0.438  0.0348  0.3555  0.2010
 6262TIP3    H140421   5.461  -0.012   0.521  0.6774 -1.4171  0.1361
 6262TIP3    H240422   5.595   0.024   0.460  0.2938 -0.5405 -0.2126
 6263TIP3   OH240423   4.987   3.582   7.425  0.2576 -0.5079 -0.5321
 6263TIP3    H140424   5.072   3.624   7.414 -0.1116  0.3983  0.0225
 6263TIP3    H240425   4.923   3.649   7.401 -0.3625 -0.4913  1.0740
 6264TIP3   OH240426   6.650   2.035   2.790  0.0155  0.3941 -0.1052
 6264TIP3    H140427   6.634   2.028   2.695 -2.5119  0.3339  0.2500
 6264TIP3    H240428   6.621   2.124   2.812 -1.4500 -0.2933  0.8963
 6265TIP3   OH240429   0.570   5.961   6.914  0.2452 -0.7277  0.0941
 6265TIP3    H140430   0.495   5.966   6.854 -0.1213 -1.2905  0.4885
 6265TIP3    H240431   0.552   5.883   6.967 -0.5033  0.8882  2.3722
 6266TIP3   OH240432   4.356   3.759   8.003 -0.4621 -0.7984 -0.1268
 6266TIP3    H140433   4.299   3.697   7.959  2.0790 -3.8858  0.5821
 6266TIP3    H240434   4.444   3.739   7.970  0.6359  1.8893  0.8241
 6267TIP3   OH240435   3.395   4.807   1.680 -0.5392  0.5387 -0.3455
 6267TIP3    H140436   3.344   4.870   1.731 -3.1879 -0.8715 -1.0336
 6267TIP3    H240437   3.411   4.734   1.740 -0.3671  0.4774 -0.4657
 6268TIP3   OH240438   0.324   6.260   2.314 -0.0443  0.0678 -0.4030
 6268TIP3    H140439   0.318   6.238   2.407 -0.3520  0.0982 -0.4157
 6268TIP3    H240440   0.296   6.351   2.309 -2.4985 -0.6431 -0.8461
 6269TIP3   OH240441   6.399   4.577   6.560 -0.2237  0.1609  0.3714
 6269TIP3    H140442   6.411   4.672   6.568  0.4547  0.0632  0.5751
 6269TIP3    H240443   6.486   4.544   6.535 -0.1934 -0.5273  1.3528
 6270TIP3   OH240444   6.203   6.933   6.546 -0.4347 -0.5453 -0.0649
 6270TIP3    H140445   6.272   6.998   6.530 -0.6484 -0.8014 -2.2639
 6270TIP3    H240446   6.249   6.849   6.546 -0.6205 -0.6492 -0.6701
 6271TIP3   OH240447   4.239   3.641   1.228 -0.3355  0.0099  0.2103
 6271TIP3    H140448   4.321   3.690   1.221 -1.8536  2.7009 -0.0302
 6271TIP3    H240449   4.247   3.591   1.309  2.1944 -1.2181 -0.7008
 6272TIP3   OH240450   3.850   4.542   7.573 -0.1654 -0.1198  0.4999
 6272TIP3    H140451   3.797   4.536   7.652  0.0347  1.3953  0.7831
 6272TIP3    H240452   3.899   4.460   7.570 -0.0367 -0.1292  2.0511
 6273TIP3   OH240453   4.216   1.642   8.436 -0.1004  0.3550  0.8664
 6273TIP3    H140454   4.138   1.658   8.489  0.1351  0.2578  1.2546
 6273TIP3    H240455   4.220   1.546   8.427 -0.2750  0.3869  0.4645
 6274TIP3   OH240456   1.958   1.620   7.775 -0.2206  0.0028 -0.6607
 6274TIP3    H140457   1.920   1.708   7.780  0.2413  0.1514  1.2433
 6274TIP3    H240458   1.989   1.612   7.685 -2.7438  0.7029 -1.6712
 6275TIP3   OH240459   6.304   3.964   2.599  0.1815 -0.2996  0.7166
 6275TIP3    H140460   6.333   3.878   2.628 -1.1269 -1.2657 -0.7184
 6275TIP3    H240461   6.216   3.973   2.635 -0.8712 -0.8755 -1.5435
 6276TIP3   OH240462   2.918   4.095   7.408  0.0182 -0.5983  0.2311
 6276TIP3    H140463   2.981   4.115   7.339  2.1941  0.3525  2.3427
 6276TIP3    H240464   2.916   4.174   7.462 -0.8885 -1.6061  1.7400
 6277TIP3   OH240465   2.754   6.362   0.692  0.2903 -0.7423 -0.2183
 6277TIP3    H140466   2.661   6.369   0.713  1.0778 -0.0017  3.9611
 6277TIP3    H240467   2.771   6.437   0.636 -1.3061  0.3194  0.6247
 6278TIP3   OH240468   0.966   1.482   1.069  0.3716 -0.0367  0.3547
 6278TIP3    H140469   1.058   1.507   1.070  0.3194  0.2710 -1.2427
 6278TIP3    H240470   0.925   1.538   1.135  0.7201  2.4108 -1.3861
 6279TIP3   OH240471   1.592   4.676   1.152 -0.0866 -0.0298 -0.2873
 6279TIP3    H140472   1.617   4.754   1.102  1.0478 -0.7209 -0.8339
 6279TIP3    H240473   1.499   4.664   1.132 -0.3796  1.3740  0.0864
 6280TIP3   OH240474   5.682   2.299   6.317  0.7721 -0.3614  0.0958
 6280TIP3    H140475   5.587   2.290   6.310  0.6497  0.4894  0.5369
 6280TIP3    H240476   5.717   2.226   6.265 -0.1149 -0.9094  0.2491
 6281TIP3   OH240477   1.414   6.557   7.836  0.6239  0.1315  0.7728
 6281TIP3    H140478   1.475   6.500   7.883  2.8513  1.3178 -0.5191
 6281TIP3    H240479   1.408   6.636   7.889  1.5811  0.6814  0.0938
 6282TIP3   OH240480   1.681   0.092   7.999  0.3268  0.4186  0.5030
 6282TIP3    H140481   1.596   0.078   8.039  0.9602 -0.9595  1.4677
 6282TIP3    H240482   1.702   0.008   7.957  0.3025  1.3851 -1.5632
 6283TIP3   OH240483   4.601   2.134   1.851 -0.3418 -0.4217  0.2678
 6283TIP3    H140484   4.654   2.213   1.856 -1.8433  0.6126  0.4266
 6283TIP3    H240485   4.630   2.080   1.924 -1.9853  1.7482  2.6863
 6284TIP3   OH240486   1.813   0.925   7.526  0.0511  0.4185  0.0215
 6284TIP3    H140487   1.812   0.884   7.440 -0.1946  0.3154  0.0721
 6284TIP3    H240488   1.851   1.012   7.511  1.9921 -0.3516  0.1563
 6285TIP3   OH240489   0.983   2.335   7.313  0.1407  0.5209  0.3171
 6285TIP3    H140490   0.942   2.399   7.254 -0.9887 -1.0166 -0.6267
 6285TIP3    H240491   1.055   2.383   7.353  0.1509  2.0046 -1.3432
 6286TIP3   OH240492   4.620   5.419   7.044  0.0225 -0.5461 -0.4890
 6286TIP3    H140493   4.670   5.368   6.980  0.4482  0.4315 -0.9443
 6286TIP3    H240494   4.547   5.455   6.993  0.8370  0.9481 -0.6508
 6287TIP3   OH240495   5.480   5.323   2.075 -0.3664  0.4591  0.4880
 6287TIP3    H140496   5.496   5.361   1.989 -0.9992 -1.6236 -0.6249
 6287TIP3    H240497   5.561   5.338   2.124 -0.1074  1.9418 -0.3333
 6288TIP3   OH240498   2.589   4.566   6.106 -0.2581 -0.2029  0.4381
 6288TIP3    H140499   2.615   4.658   6.120 -2.1616  0.3129  0.8506
 6288TIP3    H240500   2.493   4.568   6.105 -0.4248 -1.5927 -3.3691
 6289TIP3   OH240501   2.464   5.381   0.645 -0.4782 -0.8514 -0.6205
 6289TIP3    H140502   2.406   5.308   0.669 -0.6078 -0.4996  0.1420
 6289TIP3    H240503   2.467   5.436   0.723  0.3859 -0.5347 -0.8731
 6290TIP3   OH240504   5.803   3.874   7.782 -0.0968  0.0517 -0.1908
 6290TIP3    H140505   5.720   3.918   7.803  0.5131  0.3535  1.7987
 6290TIP3    H240506   5.783   3.823   7.704 -1.7358  1.2928 -0.6537
 6291TIP3   OH240507   5.388   5.344   8.156 -0.1630 -0.0088 -0.1354
 6291TIP3    H140508   5.367   5.323   8.065 -3.5967  1.1975  0.2266
 6291TIP3    H240509   5.313   5.312   8.206  1.7545 -0.9213  2.4078
 6292TIP3   OH240510   4.812   4.230   0.305  0.0720 -0.3817  0.0964
 6292TIP3    H140511   4.841   4.315   0.271  3.6271 -1.9169 -1.1382
 6292TIP3    H240512   4.826   4.169   0.233  1.5837 -2.6526  2.1570
 6293TIP3   OH240513   1.636   2.550   1.805 -0.5185 -0.2242  0.9455
 6293TIP3    H140514   1.546   2.555   1.838 -1.1003 -0.3054 -0.5380
 6293TIP3    H240515   1.641   2.619   1.739 -0.0408 -1.2975 -0.1870
 6294TIP3   OH240516   1.505   0.327   2.089 -0.6809 -0.0539  0.0420
 6294TIP3    H140517   1.440   0.259   2.108 -1.5550  1.0061  1.0208
 6294TIP3    H240518   1.454   0.408   2.081  0.2807  0.4389 -1.5920
 6295TIP3   OH240519   0.003   0.945   0.933  0.1566 -0.6187 -0.2056
 6295TIP3    H140520   0.078   0.911   0.883  0.3053  0.6579 -0.9135
 6295TIP3    H240521  -0.061   0.968   0.866 -0.4355 -0.6871  0.3335
 6296TIP3   OH240522   1.646   1.690   2.474 -0.4531 -0.1662  0.0699
 6296TIP3    H140523   1.629   1.637   2.397 -0.9153 -1.0015  0.7316
 6296TIP3    H240524   1.736   1.719   2.464 -0.5105 -0.2539 -0.7806
 6297TIP3   OH240525   3.906   0.184   1.475  0.3654  0.1933 -0.1618
 6297TIP3    H140526   3.877   0.225   1.393  1.0245  1.0487  0.0122
 6297TIP3    H240527   3.995   0.154   1.456  0.8185  1.1021  0.4647
 6298TIP3   OH240528   5.875   4.644   7.123  0.1281  0.2628 -0.0734
 6298TIP3    H140529   5.831   4.609   7.045  3.0735  0.6321 -2.0675
 6298TIP3    H240530   5.854   4.581   7.192 -0.7246 -1.3921 -1.7389
 6299TIP3   OH240531   5.876   3.135   1.766 -0.2424  0.3433  0.5945
 6299TIP3    H140532   5.793   3.103   1.803 -0.2303  1.3572  1.5422
 6299TIP3    H240533   5.901   3.208   1.822  0.2933  1.3203 -0.8533
 6300TIP3   OH240534   6.961   0.932   6.315 -0.2295  0.4028  0.4629
 6300TIP3    H140535   7.022   0.869   6.276 -0.6010  0.8076 -0.8310
 6300TIP3    H240536   7.016   1.002   6.348  0.1554 -0.3519  1.4833
 6301TIP3   OH240537   5.214   3.732   6.668  0.5817 -1.0603  0.4246
 6301TIP3    H140538   5.289   3.712   6.724  1.2733  1.0039  0.3457
 6301TIP3    H240539   5.249   3.726   6.579  0.4940 -0.7574  0.3663
 6302TIP3   OH240540   4.239   1.957   7.149  0.0309 -0.0359  0.1586
 6302TIP3    H140541   4.219   1.898   7.076 -0.0395  0.2041 -0.0137
 6302TIP3    H240542   4.157   2.003   7.167  0.4250  0.9808 -0.5775
 6303TIP3   OH240543   1.055   6.638   0.634  0.3258  0.2821 -0.3670
 6303TIP3    H140544   1.113   6.711   0.659  3.5337 -2.5241  1.1499
 6303TIP3    H240545   1.004   6.619   0.712 -1.1084  1.2862 -1.0079
 6304TIP3   OH240546   2.404   1.915   8.438  0.4476 -0.6234 -0.3871
 6304TIP3    H140547   2.348   1.965   8.497  0.8321  0.7491 -1.1635
 6304TIP3    H240548   2.355   1.911   8.356  0.6116 -1.1642 -0.4638
 6305TIP3   OH240549   5.070   3.117   1.209  0.2367 -0.4423  0.3218
 6305TIP3    H140550   5.050   3.163   1.127  1.0624 -0.9920 -0.2002
 6305TIP3    H240551   4.996   3.059   1.222  0.0726 -0.3123 -0.0044
 6306TIP3   OH240552   4.944   2.698   0.204 -0.0115  0.7569  0.2357
 6306TIP3    H140553   4.920   2.736   0.119  0.8902  2.1572  0.5646
 6306TIP3    H240554   4.939   2.771   0.265 -1.4409 -0.4123  1.5837
 6307TIP3   OH240555   5.184   2.168   2.818  1.1065 -0.2712 -0.2927
 6307TIP3    H140556   5.255   2.220   2.855 -0.0696  1.9367 -0.9636
 6307TIP3    H240557   5.128   2.148   2.893  1.6279 -0.7032 -0.0106
 6308TIP3   OH240558   0.266   6.646   7.499  0.1190 -0.1195 -0.1769
 6308TIP3    H140559   0.266   6.654   7.594 -0.4103  0.3054 -0.2111
 6308TIP3    H240560   0.321   6.569   7.481  1.3740  0.6087  0.3993
 6309TIP3   OH240561   4.303   5.185   8.135  0.2818 -0.2770 -0.4887
 6309TIP3    H140562   4.359   5.203   8.210  0.8791 -1.6751 -0.5672
 6309TIP3    H240563   4.295   5.269   8.089  2.0046  0.0321 -0.2681
 6310TIP3   OH240564   3.564   0.251   0.960  0.1834  0.3965 -0.3494
 6310TIP3    H140565   3.510   0.202   1.022  0.2962  1.8206  0.9461
 6310TIP3    H240566   3.644   0.199   0.953 -1.1033 -1.4933 -1.9363
 6311TIP3   OH240567   5.668   4.600   8.426 -0.4665 -0.2388 -0.1210
 6311TIP3    H140568   5.723   4.571   8.353 -0.1183  0.0301  0.0336
 6311TIP3    H240569   5.730   4.622   8.496 -0.8178 -1.0996  0.4860
 6312TIP3   OH240570   0.633   3.997   0.088 -0.0817  0.3356  0.1464
 6312TIP3    H140571   0.595   4.001   0.176 -0.3360  1.6120 -0.0041
 6312TIP3    H240572   0.659   3.905   0.077 -0.2926  0.1058  1.4425
 6313TIP3   OH240573   4.593   0.982   7.802 -0.2671 -0.1976 -0.1079
 6313TIP3    H140574   4.564   1.065   7.840 -1.0157 -0.0999 -0.8638
 6313TIP3    H240575   4.667   1.006   7.746 -0.2576 -0.0971 -0.0525
 6314TIP3   OH240576   1.599   2.930   7.983  0.3027  0.0601 -0.1474
 6314TIP3    H140577   1.505   2.910   7.984  0.6945 -2.2150 -1.7478
 6314TIP3    H240578   1.631   2.892   7.901  2.5482  1.2609  0.0905
 6315TIP3   OH240579   1.527   3.291   6.881  0.2946  0.2775  0.3070
 6315TIP3    H140580   1.582   3.308   6.804  0.8273  0.6041  0.7516
 6315TIP3    H240581   1.573   3.222   6.929  1.8319  2.4456  2.1306
 6316TIP3   OH240582   6.025   4.231   2.532 -0.1161 -0.0031 -0.0703
 6316TIP3    H140583   6.037   4.151   2.582 -1.5228  0.1233  0.5151
 6316TIP3    H240584   5.973   4.204   2.456 -0.0663  0.2438 -0.1938
 6317TIP3   OH240585   2.895   6.455   1.647 -0.3665  0.2174 -0.1892
 6317TIP3    H140586   2.974   6.401   1.648  1.0520  2.1959 -0.0153
 6317TIP3    H240587   2.847   6.429   1.725  0.8190 -0.0260  0.4771
 6318TIP3   OH240588   4.414   0.743   2.019  0.2809  0.0144  0.0367
 6318TIP3    H140589   4.380   0.767   2.105 -0.7390 -0.2209 -0.2792
 6318TIP3    H240590   4.508   0.755   2.026  0.1460  0.6430  0.9781
 6319TIP3   OH240591   3.270   0.909   0.911 -0.0703  0.3374  0.5216
 6319TIP3    H140592   3.343   0.868   0.865 -0.9301 -1.3494  0.6224
 6319TIP3    H240593   3.230   0.839   0.961 -2.0935  1.0995  0.0720
 6320TIP3   OH240594   5.208   2.734   7.642 -0.7365  0.1160 -0.6432
 6320TIP3    H140595   5.270   2.717   7.571  0.8468  0.6010  0.5483
 6320TIP3    H240596   5.131   2.682   7.620  0.3423 -1.0562 -1.8393
 6321TIP3   OH240597   3.453   0.007   7.327  0.2323 -0.1750  0.3994
 6321TIP3    H140598   3.359  -0.002   7.313  0.6307 -3.1005 -0.9955
 6321TIP3    H240599   3.460   0.034   7.419 -1.9240 -1.9445  1.1860
 6322TIP3   OH240600   4.615   2.030   6.803 -0.2277  0.0584 -0.1308
 6322TIP3    H140601   4.526   2.053   6.779 -0.0767  0.2940 -0.4694
 6322TIP3    H240602   4.614   1.935   6.810 -0.2929 -0.0115 -0.9963
 6323TIP3   OH240603   1.810   0.624   7.381  0.1786 -0.4784  0.6093
 6323TIP3    H140604   1.801   0.705   7.330  0.0279 -1.3332 -0.7694
 6323TIP3    H240605   1.903   0.600   7.373 -0.1251 -1.3749 -0.5063
 6324TIP3   OH240606   3.178   5.420   0.915 -0.1251  0.4341 -0.5814
 6324TIP3    H140607   3.243   5.368   0.869 -1.1027 -0.9103 -0.5074
 6324TIP3    H240608   3.128   5.356   0.966 -0.1683  1.6748  1.0175
 6325TIP3   OH240609   1.598   0.351   6.031 -0.4262  0.1325  0.4935
 6325TIP3    H140610   1.634   0.427   6.078 -0.5017  1.9660 -2.1826
 6325TIP3    H240611   1.674   0.307   5.995 -0.4469 -0.6191  1.3221
 6326TIP3   OH240612   0.087   2.328   0.412 -0.1480  0.1612 -0.2848
 6326TIP3    H140613   0.165   2.297   0.364  1.0360 -2.2662  2.8706
 6326TIP3    H240614   0.019   2.265   0.390 -0.4187  0.6487 -0.8631
 6327TIP3   OH240615   3.055   6.428   8.364 -1.4599  0.0265  0.1079
 6327TIP3    H140616   3.093   6.439   8.451  0.6614 -0.8005 -0.6353
 6327TIP3    H240617   3.032   6.516   8.336  1.2486  0.8296  0.1198
 6328TIP3   OH240618   3.452   0.172   8.386  0.9087  0.3443 -0.5934
 6328TIP3    H140619   3.542   0.171   8.421  0.9032 -0.6053 -0.5816
 6328TIP3    H240620   3.463   0.194   8.293  1.2423 -0.5959 -0.7911
 6329TIP3   OH240621   5.924   4.353   0.669  0.0069  0.2376 -0.4255
 6329TIP3    H140622   5.844   4.371   0.620  1.1459  1.9274 -1.7964
 6329TIP3    H240623   5.978   4.302   0.608 -0.6762 -2.6077  1.1661
 6330TIP3   OH240624   0.023   2.655   8.284 -0.3156  0.2406  0.2794
 6330TIP3    H140625  -0.046   2.659   8.219  0.9757 -1.8484 -1.3301
 6330TIP3    H240626   0.104   2.667   8.235  0.6083  0.9497  1.8713
 6331TIP3   OH240627   3.906   5.373   0.468  0.5097 -0.1884 -0.1213
 6331TIP3    H140628   3.965   5.298   0.467  0.7454 -0.0266  0.7332
 6331TIP3    H240629   3.877   5.380   0.559  0.1875  0.5160 -0.2681
 6332TIP3   OH240630   0.634   4.929   1.583 -0.7506 -0.1592  0.5315
 6332TIP3    H140631   0.631   4.933   1.487  4.6358 -1.4146  0.0078
 6332TIP3    H240632   0.625   5.020   1.611 -2.9638  0.1821 -0.9913
 6333TIP3   OH240633   3.212   6.866   1.649  0.2401 -0.3736 -0.8919
 6333TIP3    H140634   3.155   6.791   1.633 -1.1860  0.2028  1.0893
 6333TIP3    H240635   3.288   6.829   1.694  1.0714 -1.0088 -2.7026
 6334TIP3   OH240636   2.355   3.087   8.172 -0.0319  0.2696 -0.3869
 6334TIP3    H140637   2.314   3.003   8.194 -0.3408 -0.2952 -2.8039
 6334TIP3    H240638   2.299   3.152   8.214 -1.4178 -0.6468 -0.7164
 6335TIP3   OH240639   0.440   3.365   0.288 -0.4100 -0.3376  0.1473
 6335TIP3    H140640   0.507   3.393   0.350 -0.6061 -0.3904  0.3834
 6335TIP3    H240641   0.363   3.346   0.342 -0.8070  0.3075 -0.1822
 6336TIP3   OH240642   5.139   6.162   8.218  1.0621  0.1652  0.2928
 6336TIP3    H140643   5.186   6.079   8.229 -1.2274 -1.4957 -1.4521
 6336TIP3    H240644   5.111   6.186   8.306 -0.0788 -2.1349  0.6240
 6337TIP3   OH240645   5.958   4.956   7.901  0.4701 -0.4229 -0.2732
 6337TIP3    H140646   5.865   4.959   7.879  0.5420  2.0031 -0.4809
 6337TIP3    H240647   5.969   5.024   7.968  2.0088 -1.0420  0.1508
 6338TIP3   OH240648   5.073   1.307   0.724 -0.0213 -0.3366  0.4720
 6338TIP3    H140649   5.086   1.275   0.813  1.1254 -0.3713  0.3137
 6338TIP3    H240650   5.097   1.399   0.727 -0.4550 -0.2157  0.3005
 6339TIP3   OH240651   6.282   6.421   2.280  0.0213  0.1855 -0.2502
 6339TIP3    H140652   6.289   6.461   2.367 -1.8133  1.9229 -0.8396
 6339TIP3    H240653   6.331   6.481   2.223  1.0627 -0.8520 -0.4909
 6340TIP3   OH240654   4.895   4.601   7.125  0.2335  0.6955 -0.5662
 6340TIP3    H140655   4.990   4.612   7.133  0.0742  1.4238  0.5611
 6340TIP3    H240656   4.870   4.658   7.053  0.8103 -0.5652 -1.8204
 6341TIP3   OH240657   3.841   5.196   8.386 -0.0165  0.3325 -0.5685
 6341TIP3    H140658   3.768   5.165   8.333 -0.1897 -0.8078  0.2912
 6341TIP3    H240659   3.919   5.161   8.343 -0.2260 -1.7680  0.5913
 6342TIP3   OH240660   1.912   5.286   8.065  0.3741 -0.5372  0.0251
 6342TIP3    H140661   1.927   5.248   8.151  1.3152  0.7583  0.4706
 6342TIP3    H240662   1.956   5.227   8.004  0.3369 -1.0702  0.5103
 6343TIP3   OH240663   6.307   3.812   0.896  0.0985  0.1941 -0.2323
 6343TIP3    H140664   6.235   3.753   0.873 -0.6022  0.4334  1.2306
 6343TIP3    H240665   6.290   3.891   0.844 -0.4576  0.0809 -0.2345
 6344TIP3   OH240666   4.114   0.992   7.232 -0.9143  0.4289  0.3050
 6344TIP3    H140667   4.039   1.045   7.207 -1.1978  0.0301  0.2921
 6344TIP3    H240668   4.078   0.904   7.244 -0.5248  0.3177  0.7007
 6345TIP3   OH240669   4.479   3.712   1.636 -0.0922  0.0689 -0.2030
 6345TIP3    H140670   4.500   3.795   1.677 -1.0271 -0.7302  2.0150
 6345TIP3    H240671   4.468   3.733   1.543  1.2643  2.0949  0.0434
 6346TIP3   OH240672   4.968   0.079   1.936  0.5201 -0.7374  0.3227
 6346TIP3    H140673   5.048   0.106   1.981  1.1559 -1.8347 -0.1139
 6346TIP3    H240674   4.899   0.084   2.003  0.5501  1.9307  0.2842
 6347TIP3   OH240675   3.663   4.316   8.300  0.1993  0.0619 -0.4149
 6347TIP3    H140676   3.752   4.347   8.283  0.6387 -1.4591 -0.9909
 6347TIP3    H240677   3.622   4.314   8.214  0.8755 -2.9346 -0.7777
 6348TIP3   OH240678   0.595   6.541   7.668  0.1125 -0.0059 -0.2356
 6348TIP3    H140679   0.655   6.612   7.647 -0.9805  1.0342  0.0072
 6348TIP3    H240680   0.524   6.584   7.716 -1.5096 -0.9422 -1.6840
 6349TIP3   OH240681   5.163   5.947   1.448  0.0638  0.0591 -0.8410
 6349TIP3    H140682   5.073   5.973   1.426 -0.4663 -0.8457  0.1416
 6349TIP3    H240683   5.169   5.959   1.543  0.7448 -0.5672 -0.7944
 6350TIP3   OH240684   5.507   6.826   7.624 -0.0262  0.1880 -0.3435
 6350TIP3    H140685   5.566   6.751   7.629  1.4584  1.3344  0.7909
 6350TIP3    H240686   5.502   6.857   7.715  0.6768  2.3411 -0.9826
 6351TIP3   OH240687   5.158   6.122   0.380  0.2326 -0.4835  0.4997
 6351TIP3    H140688   5.220   6.054   0.406 -0.5952 -1.0774  0.9516
 6351TIP3    H240689   5.119   6.152   0.462  1.4062  1.3639  0.4314
 6352TIP3   OH240690   4.380   6.484   2.378  0.4175  0.1867  0.1205
 6352TIP3    H140691   4.348   6.398   2.352 -0.7470 -0.5524  3.5070
 6352TIP3    H240692   4.471   6.470   2.404  0.2566 -0.0148  0.5797
 6353TIP3   OH240693   1.521   5.712   8.129  0.2743 -0.3367 -0.1545
 6353TIP3    H140694   1.539   5.624   8.163 -0.0418  0.2479  1.6507
 6353TIP3    H240695   1.441   5.701   8.077  1.7440 -1.5962 -2.2931
 6354TIP3   OH240696   3.304   4.323   1.904  0.3244  0.1794  0.0761
 6354TIP3    H140697   3.276   4.388   1.967  2.9572 -0.1243  1.6943
 6354TIP3    H240698   3.275   4.239   1.940 -0.9588  0.2161 -0.7968
 6355TIP3   OH240699   6.800   6.235   7.827 -0.3499  0.3317 -0.5603
 6355TIP3    H140700   6.846   6.203   7.749 -0.4460  0.5604 -0.7096
 6355TIP3    H240701   6.832   6.324   7.839  0.0234  0.1356 -0.0614
 6356TIP3   OH240702   3.088   3.172   7.277  0.5280 -0.0743 -0.1159
 6356TIP3    H140703   3.156   3.114   7.242  1.2294 -0.1616  1.3174
 6356TIP3    H240704   3.008   3.120   7.271  0.4139  0.3105 -2.5242
 6357TIP3   OH240705   2.071   4.487   6.540 -0.3575  0.4857 -0.7150
 6357TIP3    H140706   1.976   4.495   6.540 -0.3142  1.1436 -0.1317
 6357TIP3    H240707   2.094   4.470   6.449 -1.2576 -3.1017 -0.4059
 6358TIP3   OH240708   5.462   6.026   0.138  0.3863  0.0257 -0.1192
 6358TIP3    H140709   5.515   6.029   0.218 -2.8974  2.1639  2.2686
 6358TIP3    H240710   5.444   6.118   0.118 -0.4738 -0.5476 -2.1835
 6359TIP3   OH240711   0.642   5.299   8.258  0.2451 -0.1299 -0.3385
 6359TIP3    H140712   0.665   5.385   8.293 -0.3518 -0.2032  0.2605
 6359TIP3    H240713   0.645   5.309   8.163 -0.0950  0.6296 -0.2730
 6360TIP3   OH240714   4.715   2.825   6.969  0.1346  0.1322 -0.7402
 6360TIP3    H140715   4.673   2.850   6.886 -0.0716 -0.1121 -0.7101
 6360TIP3    H240716   4.665   2.871   7.036 -0.4662 -0.6253 -0.6564
 6361TIP3   OH240717   6.891   2.938   8.202  0.0819 -0.1282  0.2475
 6361TIP3    H140718   6.840   2.979   8.272 -1.7706 -1.1107 -0.4581
 6361TIP3    H240719   6.885   3.000   8.129 -1.0977 -0.7277 -0.1936
 6362TIP3   OH240720   2.335   0.488   2.210 -0.3532  0.1553  0.0303
 6362TIP3    H140721   2.396   0.468   2.280 -0.1180  1.4758  0.2346
 6362TIP3    H240722   2.251   0.452   2.239 -0.2693  0.7484  1.0283
 6363TIP3   OH240723   4.434   2.008   0.536 -0.1651  0.1817 -0.4745
 6363TIP3    H140724   4.448   2.101   0.552 -0.5266  0.0603  0.5774
 6363TIP3    H240725   4.511   1.982   0.485  1.4245  0.4491  1.6424
 6364TIP3   OH240726   0.494   2.014   8.308  0.0237  0.2696 -0.2770
 6364TIP3    H140727   0.538   2.095   8.332  0.4092  0.4211 -1.4339
 6364TIP3    H240728   0.486   2.019   8.213 -0.1781 -0.9360 -0.3340
 6365TIP3   OH240729   4.838   6.523   8.054 -0.1343  0.5007  0.2956
 6365TIP3    H140730   4.785   6.516   8.134  0.3498  0.1596  0.5945
 6365TIP3    H240731   4.786   6.478   7.987  0.3546 -1.0365  0.8930
 6366TIP3   OH240732   2.682   5.821   1.219  0.4488 -0.3750 -0.4794
 6366TIP3    H140733   2.721   5.803   1.305  1.8465  1.2565 -0.7147
 6366TIP3    H240734   2.670   5.916   1.218  0.3409 -0.3852 -2.0291
 6367TIP3   OH240735   1.283   1.469   7.802  0.1190  0.1420  0.0330
 6367TIP3    H140736   1.347   1.528   7.842 -2.1309  1.8431  1.3547
 6367TIP3    H240737   1.260   1.409   7.873 -0.6656  0.3461 -0.0480
 6368TIP3   OH240738   3.199   6.637   7.453 -0.1578 -0.4525 -0.2289
 6368TIP3    H140739   3.109   6.610   7.438 -0.3326 -0.1449  0.2641
 6368TIP3    H240740   3.228   6.584   7.527  0.0757 -0.5681 -0.4015
 6369TIP3   OH240741   5.440   2.072   8.053 -0.1934 -0.1482 -0.2593
 6369TIP3    H140742   5.509   2.138   8.063  1.1594 -1.3782 -1.1635
 6369TIP3    H240743   5.446   2.044   7.962 -0.4960 -1.7790  0.1939
 6370TIP3   OH240744   4.220   2.897   2.061 -0.4559  0.2823  0.8757
 6370TIP3    H140745   4.273   2.837   2.114  0.6538  0.2018 -0.2885
 6370TIP3    H240746   4.259   2.893   1.974 -0.6763  2.3109  0.6411
 6371TIP3   OH240747   6.963   2.858   0.285  0.1349 -0.5462 -0.1837
 6371TIP3    H140748   6.875   2.867   0.320  0.2005 -0.2843 -0.0825
 6371TIP3    H240749   6.993   2.772   0.317  0.1637 -0.3458  0.3359
 6372TIP3   OH240750   1.642   3.158   0.634  0.1141  0.7511 -0.1331
 6372TIP3    H140751   1.611   3.242   0.668 -0.0449  0.7546 -0.2871
 6372TIP3    H240752   1.605   3.093   0.693 -2.1957  0.5695 -1.6762
 6373TIP3   OH240753   3.682   5.860   0.340  0.1390  0.0894  0.1580
 6373TIP3    H140754   3.704   5.923   0.272 -1.5139  3.2650  2.3326
 6373TIP3    H240755   3.609   5.810   0.304  1.1138 -0.2940 -1.3835
 6374TIP3   OH240756   3.707   2.631   0.676  0.6023  0.1040 -0.1108
 6374TIP3    H140757   3.756   2.549   0.682 -0.2152 -0.3325  0.8712
 6374TIP3    H240758   3.774   2.699   0.674  1.2694 -0.5322  0.0997
 6375TIP3   OH240759   2.815   2.602   7.598  0.8081  0.1241  0.3950
 6375TIP3    H140760   2.890   2.550   7.571  0.6211  0.3705 -0.6611
 6375TIP3    H240761   2.806   2.668   7.529  0.1017  0.5826  0.9116
 6376TIP3   OH240762   5.334   0.862   8.312 -0.2107  0.1102  0.2459
 6376TIP3    H140763   5.349   0.768   8.323 -0.8174 -0.1677 -1.1634
 6376TIP3    H240764   5.373   0.883   8.227 -1.3019  0.8435 -0.0932
 6377TIP3   OH240765   5.365   0.934   0.559 -0.2061 -0.7143  0.3193
 6377TIP3    H140766   5.342   1.017   0.602 -1.2545 -1.5913  1.5175
 6377TIP3    H240767   5.325   0.941   0.473 -0.7213 -0.1764  0.5906
 6378TIP3   OH240768   3.279   4.949   7.207  0.5340  0.0676  0.4785
 6378TIP3    H140769   3.296   4.857   7.227 -0.2787  0.2541  2.2424
 6378TIP3    H240770   3.244   4.985   7.289  0.3878  1.8343 -0.3155
 6379TIP3   OH240771   6.896   4.911   0.190  0.7767  0.0356 -0.1205
 6379TIP3    H140772   6.876   4.857   0.113 -1.3069  1.7016 -0.8390
 6379TIP3    H240773   6.857   4.863   0.263 -0.8364  0.3874 -0.7125
 6380TIP3   OH240774   4.793   6.821   8.226 -0.4385  0.2889  0.3262
 6380TIP3    H140775   4.790   6.812   8.130 -1.0777 -2.4919  0.5054
 6380TIP3    H240776   4.702   6.819   8.253 -0.2229 -1.2998  1.0801
 6381TIP3   OH240777   2.961   3.297   1.141 -0.2090 -0.0004 -0.5642
 6381TIP3    H140778   2.878   3.257   1.116 -1.5391  2.1412  0.1260
 6381TIP3    H240779   3.024   3.264   1.077 -2.0325 -0.0759 -2.4322
 6382TIP3   OH240780   6.603   3.805   7.330 -0.2794  0.6427  0.1473
 6382TIP3    H140781   6.553   3.724   7.336 -0.2284  0.5928 -0.1190
 6382TIP3    H240782   6.625   3.814   7.237  1.0835  0.1372  0.3904
 6383TIP3   OH240783   0.434   6.414   1.055 -0.1062 -0.3182  0.0956
 6383TIP3    H140784   0.467   6.432   0.967  3.6775  0.0156  1.3846
 6383TIP3    H240785   0.389   6.494   1.081 -2.7016 -0.9590 -1.9453
 6384TIP3   OH240786   6.948   2.592   0.788  0.1301  0.0323  0.1655
 6384TIP3    H140787   6.950   2.557   0.877 -0.3775 -0.2093  0.0873
 6384TIP3    H240788   7.033   2.634   0.776  0.5688 -0.7717  0.4282
 6385TIP3   OH240789   1.682   0.743   8.359  0.0840  0.0662 -0.5517
 6385TIP3    H140790   1.626   0.666   8.360 -0.1635  0.2557  0.4550
 6385TIP3    H240791   1.676   0.779   8.447  3.3261 -1.0379  0.2777
 6386TIP3   OH240792   6.590   3.651   1.347  0.3290  0.2592  0.0553
 6386TIP3    H140793   6.638   3.733   1.338  0.0184  0.4071 -0.3048
 6386TIP3    H240794   6.593   3.631   1.440  0.5007  0.6252  0.1287
 6387TIP3   OH240795   1.992   6.218   7.674  0.2241  0.4157 -0.1367
 6387TIP3    H140796   2.071   6.270   7.665  1.6353 -1.6471 -0.4288
 6387TIP3    H240797   1.970   6.192   7.585  0.0746 -0.2127  0.0792
 6388TIP3   OH240798   3.955   0.168   1.942  0.0032 -0.0927  0.0706
 6388TIP3    H140799   3.955   0.246   1.997  0.3093 -0.1291  0.1278
 6388TIP3    H240800   3.870   0.168   1.899 -0.0426  0.2092  0.1605
 6389TIP3   OH240801   6.131   5.450   1.088  0.3576 -0.1503  0.2065
 6389TIP3    H140802   6.084   5.435   1.006 -0.6579 -2.3677  1.1065
 6389TIP3    H240803   6.216   5.409   1.074  1.3176  2.0039 -0.6792
 6390TIP3   OH240804   2.584   2.765   6.945 -0.1797 -0.0298  0.1022
 6390TIP3    H140805   2.597   2.678   6.983  0.1032  0.4308  1.0968
 6390TIP3    H240806   2.514   2.753   6.881  0.1509 -1.0740 -0.0778
 6391TIP3   OH240807   5.314   0.140   1.352 -0.0598  0.0747  0.0829
 6391TIP3    H140808   5.338   0.155   1.444  1.0901 -0.5377 -0.0940
 6391TIP3    H240809   5.381   0.080   1.320 -1.0948 -0.6234 -0.8528
 6392TIP3   OH240810   6.695   2.930   0.351 -0.0881  0.3032 -0.6583
 6392TIP3    H140811   6.731   3.018   0.360  0.8172  0.2721 -3.1279
 6392TIP3    H240812   6.619   2.929   0.409  0.1504  2.5571 -0.2128
 6393TIP3   OH240813   4.868   6.947   7.465 -0.6671  0.0494  0.0653
 6393TIP3    H140814   4.955   6.941   7.424 -0.1602 -1.1734  1.2524
 6393TIP3    H240815   4.808   6.911   7.400  0.1698 -2.2325  0.4840
 6394TIP3   OH240816   6.018   4.690   1.009  0.2663  0.3427 -0.0440
 6394TIP3    H140817   5.928   4.690   1.043 -0.5658  2.2164 -2.0211
 6394TIP3    H240818   6.041   4.597   1.004 -1.2515 -0.1530  1.2550
 6395TIP3   OH240819   6.388   5.743   0.147  0.2903 -0.1571  0.8334
 6395TIP3    H140820   6.302   5.712   0.177  0.1477  1.5085  2.2846
 6395TIP3    H240821   6.369   5.788   0.064 -0.5752  1.7109  1.9899
 6396TIP3   OH240822   2.795   6.306   0.074  0.4909 -0.2427  0.1609
 6396TIP3    H140823   2.778   6.228   0.022  0.4594 -0.9986  1.2771
 6396TIP3    H240824   2.837   6.367   0.013 -1.0391 -0.4576 -1.1791
 6397TIP3   OH240825   4.099   0.602   2.080  0.0462  0.4382 -0.1080
 6397TIP3    H140826   4.106   0.569   1.990  0.6334  1.2317 -0.3598
 6397TIP3    H240827   4.172   0.560   2.126  0.0941  0.4817 -0.1445
 6398TIP3   OH240828   2.674   0.420   0.631  0.3972 -0.0862 -0.1670
 6398TIP3    H140829   2.657   0.329   0.654  0.2211  0.9444  5.1847
 6398TIP3    H240830   2.770   0.428   0.631  0.4090 -0.1031  0.6570
 6399TIP3   OH240831   3.372   2.512   0.887 -0.3104  0.0047  0.2290
 6399TIP3    H140832   3.349   2.604   0.895 -1.5567 -0.2873  0.2295
 6399TIP3    H240833   3.404   2.487   0.974  1.7223  0.8486 -0.2346
 6400TIP3   OH240834   6.631   4.912   7.873  0.2648  0.4480 -0.1629
 6400TIP3    H140835   6.686   4.840   7.903 -0.5351 -0.0655  0.1111
 6400TIP3    H240836   6.663   4.988   7.921  1.6339  0.4586 -1.0345
 6401TIP3   OH240837   4.948   4.477   0.268  0.4818  0.1854  0.6226
 6401TIP3    H140838   5.017   4.483   0.202 -1.1177 -0.3994 -1.2330
 6401TIP3    H240839   4.981   4.526   0.343  2.0819  1.5792 -0.8994
 6402TIP3   OH240840   3.517   2.914   2.115 -0.8329  0.3301 -0.0219
 6402TIP3    H140841   3.426   2.908   2.145 -0.9318  1.2389 -0.1218
 6402TIP3    H240842   3.510   2.919   2.019 -0.7270  1.2213  0.0120
 6403TIP3   OH240843   5.111   4.988   1.280  0.2853 -0.0595  0.6224
 6403TIP3    H140844   5.046   5.019   1.216  0.8724  0.3756  0.2288
 6403TIP3    H240845   5.170   5.062   1.292 -0.9949  0.6747  3.2866
 6404TIP3   OH240846   2.782   5.482   7.569 -0.6065 -0.5849 -0.2194
 6404TIP3    H140847   2.818   5.449   7.652  0.3375 -1.0464 -0.7979
 6404TIP3    H240848   2.812   5.572   7.564  0.1162 -0.8328 -0.4849
 6405TIP3   OH240849   1.241   0.630   8.009  0.0242 -0.8356  0.2544
 6405TIP3    H140850   1.270   0.615   7.919 -2.2371 -0.5875 -0.5883
 6405TIP3    H240851   1.272   0.552   8.056  1.1597 -1.0280 -0.7312
 6406TIP3   OH240852   3.377   3.992   2.537 -0.0130  0.3086 -0.0417
 6406TIP3    H140853   3.332   4.062   2.490 -0.5867 -0.1105 -0.1351
 6406TIP3    H240854   3.338   3.992   2.624 -0.5625 -0.3727 -0.2728
 6407TIP3   OH240855   1.682   4.086   1.153 -0.9459  0.3941 -0.1194
 6407TIP3    H140856   1.621   4.159   1.163 -1.5549  0.0555 -1.2315
 6407TIP3    H240857   1.768   4.125   1.168 -1.2251  1.4507 -1.1178
 6408TIP3   OH240858   6.920   3.714   7.240 -0.4490  0.2584  0.0832
 6408TIP3    H140859   6.911   3.718   7.145 -0.2645  0.7878  0.0847
 6408TIP3    H240860   6.850   3.655   7.268  0.9160 -1.8166 -0.5836
 6409TIP3   OH240861   6.042   4.429   1.439  0.4129 -0.5454 -0.5488
 6409TIP3    H140862   6.049   4.367   1.366 -1.9255  0.9246 -2.1604
 6409TIP3    H240863   5.982   4.388   1.501 -0.1711 -0.4262 -1.0314
 6410TIP3   OH240864   1.006   4.923   0.389  0.3000 -0.4756  0.1522
 6410TIP3    H140865   1.089   4.942   0.345 -0.3697  1.7620 -0.2438
 6410TIP3    H240866   1.021   4.949   0.479  0.5619 -1.8028  0.5201
 6411TIP3   OH240867   4.847   0.749   7.734  0.1847  0.4596  0.1574
 6411TIP3    H140868   4.830   0.786   7.647  1.1587 -1.2698 -0.8112
 6411TIP3    H240869   4.940   0.766   7.748 -0.0299  0.9852  1.0251
 6412TIP3   OH240870   3.300   3.271   1.062 -0.5046  0.0951  0.6093
 6412TIP3    H140871   3.286   3.350   1.113  2.4482  0.9909  0.2230
 6412TIP3    H240872   3.340   3.209   1.123  0.1567  0.0615  0.1559
 6413TIP3   OH240873   3.406   2.706   8.012 -0.0448  0.7171  0.5240
 6413TIP3    H140874   3.383   2.621   8.051  0.8476  0.6202  0.8546
 6413TIP3    H240875   3.470   2.743   8.072  0.2597  1.2179 -0.1018
 6414TIP3   OH240876   5.738   4.183   7.491  0.3147  0.1705  0.4682
 6414TIP3    H140877   5.833   4.175   7.501  0.4030  0.2360 -0.2891
 6414TIP3    H240878   5.712   4.103   7.445 -0.0782 -0.1049  1.1582
 6415TIP3   OH240879   4.003   3.647   7.259 -0.3430  0.8457  0.2160
 6415TIP3    H140880   4.092   3.662   7.291 -0.2824 -1.8379  1.5406
 6415TIP3    H240881   3.948   3.653   7.337 -0.8785 -0.6345 -0.0147
 6416TIP3   OH240882   1.057   4.437   6.907 -0.4323  0.1883  0.4950
 6416TIP3    H140883   1.003   4.367   6.944  0.9185 -0.5778  1.1198
 6416TIP3    H240884   1.132   4.444   6.967  0.7890  0.3360 -0.9704
 6417TIP3   OH240885   3.685   3.220   0.166  0.1909 -0.0741 -0.0743
 6417TIP3    H140886   3.729   3.298   0.133 -0.2359  0.1613 -0.0936
 6417TIP3    H240887   3.755   3.169   0.208  0.9395 -0.8493 -2.1452
 6418TIP3   OH240888   2.333   2.858   7.596  0.4217 -0.8978 -0.3021
 6418TIP3    H140889   2.241   2.880   7.580  0.0496 -1.9102  0.3441
 6418TIP3    H240890   2.365   2.831   7.510 -0.3494 -2.1052 -0.2356
 6419TIP3   OH240891   1.917   0.115   0.016  0.3494  0.4701 -0.0516
 6419TIP3    H140892   1.859   0.064   0.071  0.2004  0.2906 -0.3696
 6419TIP3    H240893   1.867   0.194  -0.006 -0.8444 -0.8661 -2.4978
 6420TIP3   OH240894   5.352   2.893   1.566 -0.5792 -0.4175 -0.2419
 6420TIP3    H140895   5.342   2.818   1.624 -0.7895  0.0366  0.3169
 6420TIP3    H240896   5.299   2.872   1.489 -0.0068 -1.1846 -0.4422
 6421TIP3   OH240897   4.733   1.807   0.651 -0.4810 -0.2596 -0.4042
 6421TIP3    H140898   4.819   1.783   0.686 -0.4352  0.4978  0.0321
 6421TIP3    H240899   4.714   1.740   0.586 -0.4209 -1.5477  0.8566
 6422TIP3   OH240900   3.308   1.913   7.596 -0.1622 -0.1523 -0.1634
 6422TIP3    H140901   3.266   1.999   7.606  0.5173  0.2663 -0.8316
 6422TIP3    H240902   3.401   1.930   7.610 -0.1427 -0.9969  0.8708
 6423TIP3   OH240903   4.982   0.982   1.738  0.4313 -0.0076 -0.0743
 6423TIP3    H140904   5.066   0.943   1.764 -0.0139 -0.4789  0.6967
 6423TIP3    H240905   4.972   1.056   1.797 -0.6920 -1.2135  1.3392
 6424TIP3   OH240906   6.553   5.738   6.277  0.2600 -0.1936  0.2102
 6424TIP3    H140907   6.461   5.744   6.253  0.2577 -0.0537  0.2467
 6424TIP3    H240908   6.576   5.646   6.268  0.5575  0.0097 -1.4016
 6425TIP3   OH240909   1.354   5.794   6.930 -0.3234  0.0363 -0.0837
 6425TIP3    H140910   1.280   5.839   6.889  0.0494  0.4168 -0.3448
 6425TIP3    H240911   1.423   5.860   6.934  0.0148 -0.3264  0.1314
 6426TIP3   OH240912   0.650   2.579   7.460  0.1143  0.3491 -0.4289
 6426TIP3    H140913   0.736   2.563   7.421 -0.4855 -1.3101 -1.1238
 6426TIP3    H240914   0.630   2.670   7.437  2.0899  1.0916  0.5914
 6427TIP3   OH240915   0.436   3.627   7.322  0.8433  0.2629  0.4708
 6427TIP3    H140916   0.482   3.699   7.366  1.0868  1.0902 -1.0586
 6427TIP3    H240917   0.435   3.557   7.387 -0.6104  2.0560  2.5400
 6428TIP3   OH240918   5.056   0.346   0.241  0.2721 -0.5157 -0.0518
 6428TIP3    H140919   4.977   0.367   0.291 -0.0966  0.4704 -1.0025
 6428TIP3    H240920   5.117   0.417   0.263  0.2641 -0.3196 -0.6434
 6429TIP3   OH240921   5.754   0.027   7.988 -0.1444 -0.4712 -0.5468
 6429TIP3    H140922   5.668   0.005   7.953  1.1348 -2.0322 -3.0081
 6429TIP3    H240923   5.786   0.096   7.930  0.8853 -1.0455 -0.6879
 6430TIP3   OH240924   1.672   3.795   6.936  0.1074 -0.2251  0.2098
 6430TIP3    H140925   1.633   3.880   6.956  1.7519  1.0370 -1.5230
 6430TIP3    H240926   1.739   3.782   7.003 -0.1973 -0.2087  0.5201
 6431TIP3   OH240927   0.252   3.003   7.919 -0.2841  0.1631 -0.2705
 6431TIP3    H140928   0.320   2.979   7.856 -1.1290  1.3276 -1.6829
 6431TIP3    H240929   0.193   2.928   7.921  0.5357 -0.4819  0.2780
 6432TIP3   OH240930   1.071   5.907   1.954 -0.4255  0.0210 -0.5525
 6432TIP3    H140931   0.992   5.921   2.007  1.5510  0.7043  2.4320
 6432TIP3    H240932   1.061   5.818   1.920 -2.7696  0.3573 -0.9357
 6433TIP3   OH240933   0.017   4.312   7.415  0.0288 -0.1535 -0.5287
 6433TIP3    H140934   0.091   4.360   7.453 -0.5095  0.0074  0.3309
 6433TIP3    H240935  -0.040   4.293   7.489  0.2274 -2.1430 -0.8439
 6434TIP3   OH240936   3.333   1.230   7.587  0.1006  0.1204 -0.1373
 6434TIP3    H140937   3.241   1.205   7.598 -0.0119 -0.2870 -1.7841
 6434TIP3    H240938   3.360   1.261   7.674 -1.0189 -1.6022  0.8898
 6435TIP3   OH240939   2.866   1.299   1.141  0.1841 -0.0272 -0.3621
 6435TIP3    H140940   2.948   1.283   1.188 -1.9608 -0.0448  3.8059
 6435TIP3    H240941   2.838   1.386   1.169 -0.9997  0.2137 -2.1258
 6436TIP3   OH240942   5.968   5.528   7.596  0.0756  0.0151 -0.7748
 6436TIP3    H140943   5.944   5.451   7.545 -0.7833  0.0972 -0.5149
 6436TIP3    H240944   5.959   5.501   7.687 -1.9618  0.8950 -0.6613
 6437TIP3   OH240945   3.132   1.964   7.879  0.5954  0.0762  0.0617
 6437TIP3    H140946   3.213   1.943   7.926  1.2040  1.1960 -0.4570
 6437TIP3    H240947   3.154   2.041   7.827  0.2716 -1.7099 -2.9390
 6438TIP3   OH240948   6.545   1.657   1.276  0.0350 -0.2772 -0.4753
 6438TIP3    H140949   6.463   1.706   1.287 -0.3030 -0.8159 -0.5681
 6438TIP3    H240950   6.588   1.664   1.362 -0.5784 -0.8215 -0.1095
 6439TIP3   OH240951   1.232   6.055   0.869 -0.0026  0.0764  0.7931
 6439TIP3    H140952   1.229   6.147   0.896 -0.5979  0.7323 -1.2879
 6439TIP3    H240953   1.212   6.058   0.775  0.9382 -2.0962  0.4820
 6440TIP3   OH240954   3.037   3.589   7.789  0.0319 -0.0875 -0.0733
 6440TIP3    H140955   3.118   3.621   7.750  0.3188 -1.4427 -0.6673
 6440TIP3    H240956   3.054   3.497   7.807 -1.1576 -0.2389  0.4020
 6441TIP3   OH240957   2.750   5.207   6.815  0.0574  0.1557 -0.0264
 6441TIP3    H140958   2.792   5.177   6.734 -0.0651  1.7465 -0.7185
 6441TIP3    H240959   2.676   5.148   6.827  0.5739 -0.6320 -0.6024
 6442TIP3   OH240960   1.909   5.258   1.926 -0.2271 -0.6222 -0.2128
 6442TIP3    H140961   1.979   5.319   1.947 -0.5533 -0.4510  0.4179
 6442TIP3    H240962   1.863   5.298   1.852  0.9641 -1.2508 -1.3299
 6443TIP3   OH240963   1.111   2.964   7.794  0.0668  0.5801  0.4880
 6443TIP3    H140964   1.085   3.051   7.763 -0.0809  1.7521  3.5683
 6443TIP3    H240965   1.034   2.931   7.839  1.2066  0.4051  2.3895
 6444TIP3   OH240966   1.280   0.494   6.531 -0.1864 -0.7868  0.2161
 6444TIP3    H140967   1.206   0.495   6.471 -0.3981 -0.5513  0.4781
 6444TIP3    H240968   1.270   0.412   6.581 -0.2942 -0.7375  0.2770
 6445TIP3   OH240969   6.233   1.599   1.235  0.0173  0.4104  0.9384
 6445TIP3    H140970   6.150   1.633   1.268 -0.6389  0.3074 -0.5057
 6445TIP3    H240971   6.240   1.511   1.271 -1.5814 -0.3985 -0.6014
 6446TIP3   OH240972   4.513   3.837   1.384 -0.1402 -0.7319 -0.2731
 6446TIP3    H140973   4.442   3.886   1.343  0.1919  0.0211  0.0396
 6446TIP3    H240974   4.566   3.903   1.428  0.3481 -1.3664  0.1110
 6447TIP3   OH240975   5.833   2.365   0.076 -0.0618  0.2758 -0.1372
 6447TIP3    H140976   5.796   2.443   0.118 -0.6066  0.1920 -0.4412
 6447TIP3    H240977   5.925   2.385   0.064 -0.0126  0.5186  0.5973
 6448TIP3   OH240978   3.454   6.502   2.344  0.3575  0.5311 -0.2950
 6448TIP3    H140979   3.464   6.596   2.358  0.4175  0.2274  2.0241
 6448TIP3    H240980   3.530   6.477   2.292  0.3411  1.7403 -0.9411
 6449TIP3   OH240981   6.719   1.537   0.061 -0.2313 -1.0478  0.5385
 6449TIP3    H140982   6.694   1.595  -0.012  1.7281 -1.8862 -0.9100
 6449TIP3    H240983   6.735   1.452   0.020 -0.6485 -1.9844  2.2350
 6450TIP3   OH240984   1.660   0.078   7.336 -0.1789 -0.2921  0.2218
 6450TIP3    H140985   1.611   0.135   7.396  0.2579  0.3965 -0.0658
 6450TIP3    H240986   1.726   0.037   7.392  1.9739  2.3302 -0.1515
 6451TIP3   OH240987   1.331   5.615   1.251 -0.4681  0.3587  0.2160
 6451TIP3    H140988   1.271   5.679   1.289 -0.9153  1.1415 -1.6733
 6451TIP3    H240989   1.402   5.667   1.215 -1.2539 -0.0627 -2.1098
 6452TIP3   OH240990   2.881   0.810   1.493  0.4666 -0.0757  0.3545
 6452TIP3    H140991   2.932   0.775   1.567 -0.9768 -0.6238  1.1284
 6452TIP3    H240992   2.796   0.767   1.501 -0.5601  1.7781 -0.1490
 6453TIP3   OH240993   6.103   4.089   0.943  0.2063  0.2128 -0.4011
 6453TIP3    H140994   6.059   4.014   0.983 -0.0167 -1.4079 -3.3789
 6453TIP3    H240995   6.167   4.117   1.009 -0.5043 -1.8307  1.2743
 6454TIP3   OH240996   5.243   5.143   0.182  0.6082  0.0317  0.0910
 6454TIP3    H140997   5.174   5.151   0.249  0.3575  1.2448 -0.2892
 6454TIP3    H240998   5.227   5.058   0.142  0.1769 -0.3007  0.9362
 6455TIP3   OH240999   2.244   6.147   0.746 -0.1737  0.0888 -0.1006
 6455TIP3    H141000   2.331   6.114   0.771  0.2819  0.7833 -0.7557
 6455TIP3    H241001   2.228   6.109   0.660 -1.3166 -1.4848  0.7288
 6456TIP3   OH241002   3.812   1.583   2.149  1.0378  0.3223 -0.2006
 6456TIP3    H141003   3.791   1.616   2.236  0.0902  0.0370 -0.3149
 6456TIP3    H241004   3.784   1.491   2.151  0.0595  0.5868 -1.1284
 6457TIP3   OH241005   5.604   5.873   2.206  0.0997 -0.3415 -0.0879
 6457TIP3    H141006   5.516   5.862   2.243  0.0129  3.5002  1.3165
 6457TIP3    H241007   5.660   5.888   2.282  1.9485 -2.1513 -1.0056
 6458TIP3   OH241008   0.028   2.075   2.489  0.1312  0.4259 -0.5795
 6458TIP3    H141009  -0.005   1.986   2.474 -0.0421  0.3462  0.2053
 6458TIP3    H241010   0.115   2.075   2.449  0.0926 -0.0732 -0.6760
 6459TIP3   OH241011   3.657   5.823   1.259  0.2493  0.0873  0.5644
 6459TIP3    H141012   3.663   5.755   1.327 -0.0772 -0.8559 -0.3179
 6459TIP3    H241013   3.569   5.858   1.269  0.8119  1.2718  1.8041
 6460TIP3   OH241014   1.791   6.844   7.873 -0.4669  0.3672  0.1137
 6460TIP3    H141015   1.878   6.877   7.851 -0.7158  0.4959 -0.7296
 6460TIP3    H241016   1.788   6.756   7.836 -0.9248  0.6183 -0.4787
 6461TIP3   OH241017   6.226   5.556   7.064 -0.0810 -0.1270  0.3874
 6461TIP3    H141018   6.158   5.586   7.003  0.6763 -1.9563 -1.4500
 6461TIP3    H241019   6.183   5.557   7.149 -1.6745  0.9966 -0.3738
 6462TIP3   OH241020   3.639   2.776   6.558 -0.4443  0.1936 -0.3072
 6462TIP3    H141021   3.564   2.794   6.615 -0.7095  0.6450 -0.7866
 6462TIP3    H241022   3.634   2.843   6.490 -0.6510 -0.8678 -1.3685
 6463TIP3   OH241023   6.487   3.451   0.991  0.1720  0.3671  0.2123
 6463TIP3    H141024   6.519   3.538   1.016  1.0571  0.4125 -1.0184
 6463TIP3    H241025   6.418   3.467   0.927  1.5332  0.1643 -1.3675
 6464TIP3   OH241026   4.071   6.053   2.432  0.2619  0.1177 -0.0339
 6464TIP3    H141027   3.995   6.003   2.460  2.4357 -1.9884  2.7569
 6464TIP3    H241028   4.126   5.989   2.387  1.8988  0.6102  1.1629
 6465TIP3   OH241029   2.430   3.555   7.104 -0.0661 -0.9195  0.3293
 6465TIP3    H141030   2.507   3.601   7.138 -1.1306 -0.9213  3.0457
 6465TIP3    H241031   2.445   3.549   7.010  0.7720  3.8985 -0.1271
 6466TIP3   OH241032   2.953   6.884   7.587 -0.5462  0.3148 -0.2047
 6466TIP3    H141033   2.914   6.811   7.540 -2.7772  1.3769 -0.1016
 6466TIP3    H241034   2.954   6.956   7.523  0.3140  0.6086  0.1187
 6467TIP3   OH241035   1.680   5.629   0.261 -0.6050 -0.2780 -0.9041
 6467TIP3    H141036   1.727   5.582   0.330  0.2646  0.3002 -1.0813
 6467TIP3    H241037   1.624   5.691   0.308 -4.1365 -3.4195 -0.4952
 6468TIP3   OH241038   4.045   5.955   7.191 -0.1802  0.0716  0.1032
 6468TIP3    H141039   3.972   5.931   7.134 -0.9275  1.7979  0.2576
 6468TIP3    H241040   4.123   5.946   7.135 -0.5187 -1.5761 -0.1262
 6469TIP3   OH241041   3.477   6.003   1.375  0.3927  0.5412  0.4027
 6469TIP3    H141042   3.465   6.009   1.469  0.5385  0.0008  0.4542
 6469TIP3    H241043   3.570   6.019   1.361  0.2787  1.1636  0.2986
 6470TIP3   OH241044   3.984   1.336   0.934  0.8351 -0.2968  0.2358
 6470TIP3    H141045   3.955   1.251   0.903 -0.3607  0.1291  0.1245
 6470TIP3    H241046   3.979   1.330   1.030 -1.8883  0.4661  0.2158
 6471TIP3   OH241047   6.645   5.268   7.296  0.2220  0.0005 -0.4863
 6471TIP3    H141048   6.636   5.178   7.327 -0.3926 -0.3665 -1.6818
 6471TIP3    H241049   6.714   5.265   7.230  1.1148  0.6636  0.3943
 6472TIP3   OH241050   0.931   6.647   1.928  0.0271  0.8881 -0.7391
 6472TIP3    H141051   0.853   6.654   1.874 -1.0859  1.1258  0.8276
 6472TIP3    H241052   0.919   6.566   1.977  0.5966  1.1122 -0.2125
 6473TIP3   OH241053   4.071   1.116   7.996  0.0722 -0.0362  0.1272
 6473TIP3    H141054   4.140   1.162   8.045  0.2145 -0.9303  0.8004
 6473TIP3    H241055   4.006   1.093   8.063 -0.6726  0.4113 -0.4317
 6474TIP3   OH241056   2.903   5.092   1.519 -0.3991 -0.2273  0.6058
 6474TIP3    H141057   2.862   5.050   1.443  1.2126  0.4191 -0.6912
 6474TIP3    H241058   2.831   5.108   1.579 -1.9941  0.4762 -1.3673
 6475TIP3   OH241059   5.272   5.642   0.993  0.0483  0.1800 -0.2302
 6475TIP3    H141060   5.342   5.589   1.029 -0.5238 -0.7332 -0.4214
 6475TIP3    H241061   5.192   5.608   1.035 -0.2217  1.6827  0.5526
 6476TIP3   OH241062   1.686   2.700   8.350 -0.1216 -0.2506  0.0378
 6476TIP3    H141063   1.754   2.666   8.407  1.4769  0.5080 -1.3302
 6476TIP3    H241064   1.616   2.635   8.354 -0.3139 -0.0020  3.1894
 6477TIP3   OH241065   0.785   2.843   2.374 -0.1706  0.6682  0.0738
 6477TIP3    H141066   0.702   2.844   2.326  0.2786  1.9531 -0.7338
 6477TIP3    H241067   0.762   2.871   2.463 -0.9652 -1.4399  0.6049
 6478TIP3   OH241068   6.369   6.073   6.616 -0.6468  0.4438  0.2404
 6478TIP3    H141069   6.404   5.985   6.632  1.8118  1.1522 -0.7929
 6478TIP3    H241070   6.304   6.060   6.547 -0.0346 -0.5232 -0.1788
 6479TIP3   OH241071   4.074   6.832   1.661  0.0879  0.4575 -0.2079
 6479TIP3    H141072   3.992   6.823   1.612 -0.0619 -0.5502  0.1996
 6479TIP3    H241073   4.134   6.771   1.618  0.7287  1.3955 -0.6862
 6480TIP3   OH241074   6.119   4.551   8.160 -0.2163 -0.5042 -0.3978
 6480TIP3    H141075   6.127   4.520   8.070 -0.8365 -0.8957 -0.3281
 6480TIP3    H241076   6.058   4.489   8.201  1.1520 -1.1910  0.6829
 6481TIP3   OH241077   1.540   5.781   1.098  0.2937 -0.5566  0.6415
 6481TIP3    H141078   1.625   5.738   1.097  0.7819  0.3821  0.1596
 6481TIP3    H241079   1.509   5.777   1.008  0.7009  0.7376  0.4183
 6482TIP3   OH241080   6.225   5.141   7.270 -0.1313 -0.6779  0.6058
 6482TIP3    H141081   6.209   5.122   7.363 -3.3376  2.6228  0.9476
 6482TIP3    H241082   6.256   5.231   7.269 -0.5776 -0.4990 -1.5354
 6483TIP3   OH241083   5.133   0.906   1.457  0.6127  0.5216  0.2277
 6483TIP3    H141084   5.177   0.900   1.542  0.9882  2.0245  0.1707
 6483TIP3    H241085   5.180   0.975   1.411  0.5045 -0.3668 -1.2761
 6484TIP3   OH241086   1.573   0.284   1.348 -0.2419  0.2343 -0.2361
 6484TIP3    H141087   1.620   0.257   1.269  0.1897 -2.1012  0.7147
 6484TIP3    H241088   1.639   0.281   1.417 -0.7792  1.4941  0.3714
 6485TIP3   OH241089   4.917   1.197   7.033  0.1535 -0.0024 -0.6670
 6485TIP3    H141090   4.964   1.154   6.962  2.2622  1.2971 -0.1433
 6485TIP3    H241091   4.825   1.197   7.005  0.8482 -0.0040 -3.1445
 6486TIP3   OH241092   0.049   0.594   0.203 -0.0509  0.1980 -0.4775
 6486TIP3    H141093   0.122   0.556   0.252  0.9930  1.6616 -0.8319
 6486TIP3    H241094  -0.016   0.614   0.270  0.8482  1.0193  0.1868
 6487TIP3   OH241095   0.810   6.181   1.356 -0.1475  0.3314  0.3397
 6487TIP3    H141096   0.888   6.127   1.343 -0.1677  0.4807 -0.4390
 6487TIP3    H241097   0.844   6.263   1.393  0.3233  1.1109 -1.6495
 6488TIP3   OH241098   6.164   2.976   0.705 -0.2836 -0.0521  0.2991
 6488TIP3    H141099   6.079   3.007   0.735  0.1621  1.3563  0.1846
 6488TIP3    H241100   6.216   2.969   0.785 -0.2239  0.0313  0.2678
 6489TIP3   OH241101   5.069   2.302   7.976 -0.0161 -0.6701  0.3141
 6489TIP3    H141102   5.031   2.235   8.032  0.4499 -1.2063 -0.0054
 6489TIP3    H241103   5.104   2.367   8.038 -3.5089  1.1102  0.6462
 6490TIP3   OH241104   3.423   0.821   7.588 -0.6511 -0.3399  0.6948
 6490TIP3    H141105   3.357   0.869   7.639 -2.4185 -2.5754  0.6863
 6490TIP3    H241106   3.376   0.790   7.511  0.2262 -2.4456  0.9374
 6491TIP3   OH241107   6.594   2.388   1.120 -0.3952 -0.0448 -0.2669
 6491TIP3    H141108   6.676   2.350   1.089 -0.2060  0.1397  0.0042
 6491TIP3    H241109   6.532   2.374   1.048  0.0229  0.3332 -0.7088
 6492TIP3   OH241110   1.234   1.182   7.158  0.3550  0.8584 -0.1843
 6492TIP3    H141111   1.246   1.266   7.114 -0.9199  0.2571 -1.7726
 6492TIP3    H241112   1.139   1.172   7.167  0.5479  0.7310  2.3403
 6493TIP3   OH241113   2.939   4.791   0.385 -0.2008  0.3761  0.5819
 6493TIP3    H141114   2.911   4.857   0.448 -3.0433 -0.9856  0.8867
 6493TIP3    H241115   2.868   4.727   0.384 -0.9456  0.8517 -4.7989
 6494TIP3   OH241116   2.326   5.878   7.164  0.0995 -0.2435 -0.3106
 6494TIP3    H141117   2.370   5.953   7.125 -2.5351  0.1689 -2.8514
 6494TIP3    H241118   2.363   5.802   7.119 -1.2221  0.0497 -1.9776
 6495TIP3   OH241119   5.702   0.884   7.166  0.3629  0.9219  0.4209
 6495TIP3    H141120   5.627   0.932   7.203  0.6285  2.2681 -0.6726
 6495TIP3    H241121   5.662   0.807   7.125 -0.2205  0.7405  1.3068
 6496TIP3   OH241122   3.768   1.686   7.693 -0.6058  0.2550 -0.4413
 6496TIP3    H141123   3.742   1.661   7.605  0.2681 -0.0171 -0.6348
 6496TIP3    H241124   3.864   1.689   7.690 -0.5038 -0.7173  0.7528
 6497TIP3   OH241125   2.895   6.248   7.412 -0.2295  0.4257 -0.0714
 6497TIP3    H141126   2.838   6.222   7.340  0.0637  0.4132 -0.3000
 6497TIP3    H241127   2.837   6.293   7.474 -0.4599  0.5340 -0.3662
 6498TIP3   OH241128   4.543   4.935   8.329 -0.7474 -0.2689 -0.5682
 6498TIP3    H141129   4.635   4.923   8.352 -0.8186 -1.4019 -0.7832
 6498TIP3    H241130   4.535   5.027   8.306  0.4173 -0.2372 -0.8905
 6499TIP3   OH241131   5.094   0.329   8.291 -0.7130  0.2339 -0.2517
 6499TIP3    H141132   5.073   0.240   8.262  1.0686 -0.2804 -0.0412
 6499TIP3    H241133   5.020   0.353   8.347 -1.7597 -0.6630 -1.1971
 6500TIP3   OH241134   5.303   6.493   1.109  0.4329 -0.7937 -0.2271
 6500TIP3    H141135   5.246   6.551   1.160 -0.2111 -2.2893  0.8525
 6500TIP3    H241136   5.317   6.418   1.166  2.4287 -1.0745 -1.0108
 6501TIP3   OH241137   5.815   4.214   1.095  0.0407  0.5025 -0.5739
 6501TIP3    H141138   5.736   4.164   1.115  0.4114 -0.0165 -0.3840
 6501TIP3    H241139   5.787   4.278   1.030 -1.2107  2.2913  1.5801
 6502TIP3   OH241140   0.980   3.462   2.350 -0.4285 -0.0041 -0.1234
 6502TIP3    H141141   1.034   3.411   2.289  0.3035  0.7817 -0.1433
 6502TIP3    H241142   0.989   3.552   2.319 -0.7358  0.2914  0.6491
 6503TIP3   OH241143   5.078   1.748   7.342 -0.1180 -0.4272  0.4984
 6503TIP3    H141144   5.016   1.724   7.410 -1.7779 -0.4709 -0.9667
 6503TIP3    H241145   5.054   1.838   7.318 -0.1819 -0.7392 -0.6645
 6504TIP3   OH241146   5.056   5.339   0.743  0.0423 -0.1745  0.2085
 6504TIP3    H141147   5.127   5.398   0.769 -1.4527  1.2131  1.2553
 6504TIP3    H241148   5.085   5.253   0.772  0.6142  0.6094  2.0719
 6505TIP3   OH241149   5.834   6.464   8.094  0.7006 -0.1000 -0.2033
 6505TIP3    H141150   5.817   6.416   8.012 -1.4243 -0.4863  0.3835
 6505TIP3    H241151   5.833   6.397   8.162  0.2246  0.4670  0.3654
 6506TIP3   OH241152   3.708   1.357   7.231  0.7398 -0.0162  0.0155
 6506TIP3    H141153   3.624   1.312   7.221  0.7908 -0.0869 -0.1019
 6506TIP3    H241154   3.762   1.296   7.282  0.7794 -0.0491 -0.0660
 6507TIP3   OH241155   0.749   0.731   0.020  0.0058  0.5106 -0.0440
 6507TIP3    H141156   0.687   0.757   0.088  0.1619  0.1395  0.2444
 6507TIP3    H241157   0.700   0.670  -0.035 -0.1311  0.8365 -0.2952
 6508TIP3   OH241158   4.912   2.225   1.712  0.1793  0.4220  0.2610
 6508TIP3    H141159   4.829   2.202   1.670 -0.1404  1.3109  0.3783
 6508TIP3    H241160   4.886   2.283   1.785  0.8604  0.2934  0.6142
 6509TIP3   OH241161   5.215   3.255   8.149  0.3280  0.3669  0.2203
 6509TIP3    H141162   5.254   3.179   8.106 -0.6793  0.3526 -0.7231
 6509TIP3    H241163   5.121   3.237   8.149  0.1373  1.2902  0.6170
 6510TIP3   OH241164   3.434   0.275   0.700  0.0020 -0.3983 -0.4592
 6510TIP3    H141165   3.466   0.261   0.789  0.9027 -1.3966 -0.9214
 6510TIP3    H241166   3.340   0.259   0.705  0.0361 -0.3672  0.3218
 6511TIP3   OH241167   2.678   2.508   7.062  0.0842  0.5317  0.0014
 6511TIP3    H141168   2.597   2.464   7.036  0.8030  0.8039 -2.9698
 6511TIP3    H241169   2.723   2.444   7.118 -1.3295 -0.3171  0.2263
 6512TIP3   OH241170   4.191   3.086   1.794 -0.1366  0.4139  0.4447
 6512TIP3    H141171   4.268   3.142   1.783 -0.9091  1.2863 -0.7774
 6512TIP3    H241172   4.220   2.999   1.766 -0.0114  1.0859 -1.6887
 6513TIP3   OH241173   0.489   4.775   0.697 -0.5649 -0.6129 -0.2212
 6513TIP3    H141174   0.525   4.829   0.767  0.5607 -0.3203 -0.9968
 6513TIP3    H241175   0.431   4.833   0.648  0.1119 -0.2859 -0.6459
 6514TIP3   OH241176   5.836   0.094   1.531  0.6906 -0.0260  0.2330
 6514TIP3    H141177   5.773   0.095   1.459  1.4517 -0.2523 -0.4377
 6514TIP3    H241178   5.876   0.181   1.530  0.3683  0.1315  0.6845
 6515TIP3   OH241179   1.563   5.335   1.545 -0.2388 -0.4048  0.2534
 6515TIP3    H141180   1.537   5.252   1.506 -1.1029  0.5956 -1.4450
 6515TIP3    H241181   1.481   5.382   1.559  0.2792  0.5628  0.1729
 6516TIP3   OH241182   4.186   6.900   1.160  0.8335 -0.3538 -0.1589
 6516TIP3    H141183   4.187   6.932   1.251  2.0630  1.3809 -0.7328
 6516TIP3    H241184   4.115   6.949   1.118  0.9892 -0.3439 -0.4094
 6517TIP3   OH241185   1.123   1.438   1.938 -0.3373  0.1843 -0.4397
 6517TIP3    H141186   1.083   1.392   2.011 -1.1786  1.0283 -0.3448
 6517TIP3    H241187   1.201   1.479   1.974  0.4900 -1.2613 -0.5602
 6518TIP3   OH241188   3.222   4.442   7.312  0.3418  0.8798 -0.9578
 6518TIP3    H141189   3.309   4.459   7.348 -0.0095  0.6284  0.0448
 6518TIP3    H241190   3.167   4.511   7.348 -0.2128  0.0861 -0.2237
 6519TIP3   OH241191   6.778   3.504   8.316 -0.1674  0.1573  0.0069
 6519TIP3    H141192   6.808   3.524   8.405 -1.4210 -0.8417  0.7048
 6519TIP3    H241193   6.815   3.418   8.297 -0.4719  0.0575 -0.1473
 6520TIP3   OH241194   6.574   1.756   7.503  0.3866 -0.0821 -0.2454
 6520TIP3    H141195   6.651   1.812   7.498 -0.3987  0.9747 -0.9730
 6520TIP3    H241196   6.577   1.703   7.424  0.7276 -0.5481  0.0728
 6521TIP3   OH241197   3.821   0.740   1.968 -0.5045  0.1370  0.1024
 6521TIP3    H141198   3.827   0.744   1.872  1.8996 -3.4808 -0.0885
 6521TIP3    H241199   3.729   0.718   1.984 -0.8029  0.1145 -1.4135
 6522TIP3   OH241200   4.278   6.488   0.229 -0.1536  0.5923  0.4660
 6522TIP3    H141201   4.277   6.483   0.324  1.8419 -1.7647  0.4710
 6522TIP3    H241202   4.187   6.502   0.204 -0.9010 -0.0157  2.6502
 6523TIP3   OH241203   4.133   0.817   7.794 -0.0498 -0.1628 -0.2873
 6523TIP3    H141204   4.089   0.899   7.776  1.5852  0.5222 -1.3530
 6523TIP3    H241205   4.082   0.751   7.749 -0.0157  0.6080 -1.4817
 6524TIP3   OH241206   2.986   5.550   0.437 -0.8702  0.5827 -0.1668
 6524TIP3    H141207   2.965   5.528   0.528  0.1778  0.7483  0.1336
 6524TIP3    H241208   2.903   5.542   0.390 -1.0555 -1.4103  0.4228
 6525TIP3   OH241209   4.845   1.935   1.132  0.0254  0.0792 -0.2279
 6525TIP3    H141210   4.757   1.961   1.106 -0.6620  0.1714  1.9394
 6525TIP3    H241211   4.852   1.843   1.107 -0.6002  0.1391 -0.6342
 6526TIP3   OH241212   1.301   2.133   6.875  0.1367  0.2727 -0.6452
 6526TIP3    H141213   1.272   2.149   6.786 -0.2205  0.6504 -0.4597
 6526TIP3    H241214   1.311   2.220   6.914  0.2034  0.1086 -0.2897
 6527TIP3   OH241215   3.834   0.969   7.129  0.0322  0.0162  0.0944
 6527TIP3    H141216   3.782   0.947   7.052 -1.5952 -0.6492  1.3207
 6527TIP3    H241217   3.888   0.892   7.145 -0.4834 -0.3084  0.2833
 6528TIP3   OH241218   6.447   2.939   2.391  0.0619 -0.0805  0.3942
 6528TIP3    H141219   6.512   2.950   2.321 -2.9123  0.0659 -2.5743
 6528TIP3    H241220   6.441   2.845   2.404  0.7023 -0.1045  0.5454
 6529TIP3   OH241221   4.059   3.139   2.417 -0.2647  0.3137  0.5940
 6529TIP3    H141222   4.039   3.103   2.504 -0.0983  0.5597  0.7343
 6529TIP3    H241223   4.003   3.216   2.410  0.5147  0.9304  0.9348
 6530TIP3   OH241224   1.159   3.821   6.211  0.4393  0.1431 -0.0302
 6530TIP3    H141225   1.205   3.905   6.199 -0.8033  0.9253  0.4321
 6530TIP3    H241226   1.071   3.837   6.176 -0.2430 -0.5182  1.3212
 6531TIP3   OH241227   6.767   5.340   7.067  0.1144  0.1039 -0.1809
 6531TIP3    H141228   6.757   5.432   7.043  0.3577  0.2828  0.3928
 6531TIP3    H241229   6.753   5.292   6.985 -1.8511  0.5249 -0.1346
 6532TIP3   OH241230   3.432   4.101   8.211  0.1018 -0.1336  0.4853
 6532TIP3    H141231   3.452   4.169   8.147 -0.3747  0.7960  1.2966
 6532TIP3    H241232   3.397   4.148   8.286 -1.0108 -1.3497  0.7620
 6533TIP3   OH241233   6.931   6.927   6.961 -0.5225 -0.5390  0.0928
 6533TIP3    H141234   6.997   6.944   6.894 -0.9196 -1.5307 -0.5707
 6533TIP3    H241235   6.979   6.884   7.031  0.1120  1.4719  0.9585
 6534TIP3   OH241236   5.490   1.253   7.916 -0.2005 -0.4876  0.1077
 6534TIP3    H141237   5.437   1.222   7.843  0.3039 -0.9853 -0.0563
 6534TIP3    H241238   5.579   1.225   7.894  0.5344  2.1822 -0.6938
 6535TIP3   OH241239   3.533   3.429   6.717  0.1726 -0.7559  0.0326
 6535TIP3    H141240   3.625   3.448   6.737 -0.2306 -0.2411  1.6038
 6535TIP3    H241241   3.526   3.440   6.622  1.2894  1.3109  0.1275
 6536TIP3   OH241242   3.368   3.620   2.558 -0.1219 -0.2950  0.0714
 6536TIP3    H141243   3.443   3.597   2.503 -0.5848 -2.0516  0.1117
 6536TIP3    H241244   3.348   3.710   2.535  2.9195  0.7661  1.1486
 6537TIP3   OH241245   5.640   6.340   0.670 -0.1367  0.1616  0.1218
 6537TIP3    H141246   5.683   6.423   0.689  2.3603 -1.2033  0.7773
 6537TIP3    H241247   5.625   6.300   0.756  0.6510 -0.9833 -0.2523
 6538TIP3   OH241248   4.374   4.940   7.355 -0.5695 -0.6630 -0.6470
 6538TIP3    H141249   4.319   4.949   7.278 -0.0524  2.8955 -0.7755
 6538TIP3    H241250   4.321   4.976   7.427  0.1518 -0.8129 -0.0159
 6539TIP3   OH241251   2.214   0.707   8.092  0.6365  0.0951 -0.0887
 6539TIP3    H141252   2.201   0.795   8.058 -2.4804  0.1800  1.0010
 6539TIP3    H241253   2.159   0.651   8.037  4.4056 -1.7621 -2.3739
 6540TIP3   OH241254   6.886   1.214   2.321 -0.7053 -0.1315  0.5233
 6540TIP3    H141255   6.962   1.163   2.293  0.3567  1.6827 -0.0527
 6540TIP3    H241256   6.914   1.305   2.313 -2.0761  0.5717  2.7687
 6541TIP3   OH241257   6.604   0.435   2.571 -0.2161  0.4881 -0.1933
 6541TIP3    H141258   6.554   0.498   2.623 -0.2345 -0.5260  1.0681
 6541TIP3    H241259   6.538   0.375   2.535 -0.0358 -0.1110  0.4454
 6542TIP3   OH241260   3.780   4.778   1.176  0.4734 -0.6832 -0.0307
 6542TIP3    H141261   3.713   4.718   1.144  0.9280 -0.7053 -0.9828
 6542TIP3    H241262   3.860   4.725   1.181  0.5836 -0.4826  0.4176
 6543TIP3   OH241263   3.935   3.074   1.891 -0.0870  0.1017 -0.4032
 6543TIP3    H141264   3.933   3.092   1.985 -0.6139  0.6557 -0.5121
 6543TIP3    H241265   4.028   3.074   1.868  0.0996 -0.9084  0.2707
 6544TIP3   OH241266   2.597   2.498   0.643  0.3009 -0.2830  0.0646
 6544TIP3    H141267   2.501   2.502   0.643  0.3506  1.5367  0.5156
 6544TIP3    H241268   2.616   2.406   0.663 -1.3641 -0.2823  2.0748
 6545TIP3   OH241269   4.954   5.327   8.055 -0.4491 -0.0429  0.8055
 6545TIP3    H141270   4.958   5.420   8.032  1.3725  0.3839  2.5900
 6545TIP3    H241271   4.860   5.307   8.059 -0.8670  1.6305  0.1264
 6546TIP3   OH241272   2.275   5.014   1.142 -0.4832 -0.3072 -0.7528
 6546TIP3    H141273   2.203   5.025   1.204  0.2851  0.9362 -0.0311
 6546TIP3    H241274   2.332   4.949   1.183  1.6076  2.6927  1.4940
 6547TIP3   OH241275   3.679   2.501   0.211 -0.2101  0.2699  0.1629
 6547TIP3    H141276   3.620   2.559   0.259 -0.3030  1.1822 -1.0169
 6547TIP3    H241277   3.624   2.460   0.144  0.3196  0.5395 -0.4476
 6548TIP3   OH241278   5.206   4.268   0.750  0.4982 -0.1629  0.4507
 6548TIP3    H141279   5.151   4.221   0.688  1.7603  0.7873 -1.4984
 6548TIP3    H241280   5.153   4.343   0.777 -0.4176 -1.0885  1.3058
 6549TIP3   OH241281   4.179   0.375   7.670  0.4604  0.0999 -0.1761
 6549TIP3    H141282   4.242   0.394   7.601  1.6008 -1.6057  0.3292
 6549TIP3    H241283   4.227   0.319   7.732 -1.5419 -1.3468  0.1729
 6550TIP3   OH241284   1.517   5.706   6.466 -0.5828  0.4901  0.3745
 6550TIP3    H141285   1.592   5.759   6.494 -0.2312  0.5666 -0.6668
 6550TIP3    H241286   1.445   5.768   6.460 -0.9982  0.2637  2.2627
 6551TIP3   OH241287   0.929   2.763   7.356  0.4060  0.0751 -0.0095
 6551TIP3    H141288   0.925   2.708   7.433 -0.8200 -0.4595 -0.4314
 6551TIP3    H241289   0.982   2.838   7.383  0.1586 -0.1918  1.2843
 6552TIP3   OH241290   0.536   6.027   7.422  0.1132 -0.3844 -0.1114
 6552TIP3    H141291   0.581   6.109   7.403 -1.0671  0.3183  0.0542
 6552TIP3    H241292   0.452   6.034   7.377 -0.4088 -1.0832  0.7206
 6553TIP3   OH241293   5.854   3.009   0.281  0.0025 -0.1685  0.2190
 6553TIP3    H141294   5.812   2.998   0.366  1.8435 -0.6894  1.1186
 6553TIP3    H241295   5.798   2.961   0.220 -0.3701 -1.3909  1.4690
 6554TIP3   OH241296   3.454   2.361   7.767 -0.4787  0.2364  0.5417
 6554TIP3    H141297   3.481   2.303   7.838 -0.6008 -0.4877  0.0043
 6554TIP3    H241298   3.532   2.411   7.745  0.1031 -0.9121 -0.1145
 6555TIP3   OH241299   1.947   5.396   1.533  0.2139 -0.3987 -0.2619
 6555TIP3    H141300   1.904   5.442   1.461  1.7859  0.8822 -0.4361
 6555TIP3    H241301   1.877   5.345   1.574 -1.5178  1.7830 -0.3484
 6556TIP3   OH241302   2.102   3.436   6.134 -0.1462  0.2351  0.0843
 6556TIP3    H141303   2.103   3.489   6.055 -2.0277  0.8744  0.4477
 6556TIP3    H241304   2.154   3.486   6.197  2.3219 -0.8109 -0.9947
 6557TIP3   OH241305   6.401   3.317   1.998  0.8272 -0.3636  0.2467
 6557TIP3    H141306   6.311   3.284   1.987  0.6070 -0.3437  1.7649
 6557TIP3    H241307   6.409   3.385   1.930 -0.9163  0.8192  1.1379
 6558TIP3   OH241308   2.999   5.891   2.403 -0.0636 -1.0545 -0.7380
 6558TIP3    H141309   2.979   5.942   2.481  0.4469 -0.2099 -1.1449
 6558TIP3    H241310   3.092   5.871   2.410 -0.1119 -1.3452 -0.9186
 6559TIP3   OH241311   5.712   5.751   8.154  0.6087 -0.1309 -0.0004
 6559TIP3    H141312   5.686   5.837   8.189  0.2234  0.3089 -1.3179
 6559TIP3    H241313   5.641   5.693   8.180  0.8013 -0.0242  0.7807
 6560TIP3   OH241314   0.051   1.737   0.890  0.2802 -0.2401 -0.6059
 6560TIP3    H141315  -0.017   1.761   0.953  0.2203  0.6693 -0.9980
 6560TIP3    H241316   0.006   1.684   0.824  0.4979 -1.8433  0.4934
 6561TIP3   OH241317   0.979   5.926   1.240 -0.1379 -0.6161  0.2132
 6561TIP3    H141318   1.071   5.955   1.241 -0.9011  2.2270 -1.2833
 6561TIP3    H241319   0.961   5.908   1.148 -2.0040  2.5622 -0.1958
 6562TIP3   OH241320   2.843   5.914   0.153  0.5775 -0.0348 -0.4325
 6562TIP3    H141321   2.782   5.872   0.214 -0.7352  1.0937 -0.9223
 6562TIP3    H241322   2.854   6.002   0.187  1.7772 -0.1570 -0.4832
 6563TIP3   OH241323   1.101   2.470   1.019  0.2500  0.6264  0.2505
 6563TIP3    H141324   1.185   2.515   1.018  0.2626  0.6011 -0.9982
 6563TIP3    H241325   1.036   2.540   1.020  0.2786  0.6496  0.5750
 6564TIP3   OH241326   5.692   4.897   8.322 -0.5122  0.6108  0.2516
 6564TIP3    H141327   5.693   4.813   8.276 -0.9752 -0.6610  2.4273
 6564TIP3    H241328   5.673   4.961   8.254  0.3220 -0.9585 -1.5682
 6565TIP3   OH241329   6.331   2.135   1.626  0.4833 -0.1941 -0.1452
 6565TIP3    H141330   6.242   2.162   1.647  0.1055 -0.0463 -1.8001
 6565TIP3    H241331   6.384   2.212   1.646  0.1660 -0.0903  0.3170
 6566TIP3   OH241332   2.193   4.220   1.439 -0.1486 -0.3154 -0.0453
 6566TIP3    H141333   2.242   4.295   1.473  2.0571 -0.5647 -2.3207
 6566TIP3    H241334   2.131   4.259   1.377 -1.8776 -0.1281  1.7152
 6567TIP3   OH241335   4.882   1.609   0.979  0.2931 -0.2071  0.6232
 6567TIP3    H141336   4.949   1.625   1.045  0.7696 -0.8954  0.3260
 6567TIP3    H241337   4.811   1.566   1.026  1.1145 -1.7633  0.4986
 6568TIP3   OH241338   0.165   6.117   6.685  0.2660 -0.4538  0.1546
 6568TIP3    H141339   0.089   6.062   6.666  1.5224 -2.4181  0.5056
 6568TIP3    H241340   0.137   6.173   6.756 -1.0880 -0.5976 -0.2349
 6569TIP3   OH241341   3.650   5.399   2.051  0.1425  0.3195 -0.1785
 6569TIP3    H141342   3.668   5.440   2.135 -0.9034 -0.2949  0.3591
 6569TIP3    H241343   3.556   5.410   2.038  0.1730 -0.2030 -0.9405
 6570TIP3   OH241344   0.690   5.842   0.300  0.0692  0.5067 -0.4199
 6570TIP3    H141345   0.597   5.823   0.312  0.0514 -0.0242 -1.3632
 6570TIP3    H241346   0.692   5.906   0.229  0.5628 -1.6687 -2.4925
 6571TIP3   OH241347   6.701   2.642   0.504 -0.1956  0.6581 -0.3012
 6571TIP3    H141348   6.770   2.694   0.544 -1.3609  0.9776  1.3942
 6571TIP3    H241349   6.741   2.556   0.491  1.1941  1.4407 -1.4879
 6572TIP3   OH241350   0.661   2.631   8.116 -0.4881  0.3780  0.0356
 6572TIP3    H141351   0.611   2.710   8.096  0.3724  1.5289  2.0666
 6572TIP3    H241352   0.682   2.639   8.209 -1.0326 -2.6531  0.5262
 6573TIP3   OH241353   6.891   4.362   8.418  0.1295  0.6706  0.1511
 6573TIP3    H141354   6.796   4.375   8.410  0.0221  0.7171  1.3784
 6573TIP3    H241355   6.915   4.318   8.337 -0.9878  0.4257 -0.0706
 6574TIP3   OH241356   6.192   0.691   0.678 -0.3418 -0.2138 -0.6676
 6574TIP3    H141357   6.122   0.627   0.663 -0.3799 -0.0539 -1.2267
 6574TIP3    H241358   6.155   0.774   0.648 -0.6590  0.2711  1.0039
 6575TIP3   OH241359   6.456   3.841   1.609  0.4470  0.2760 -0.7378
 6575TIP3    H141360   6.481   3.848   1.702  0.6756 -1.5355 -0.6241
 6575TIP3    H241361   6.519   3.896   1.563  0.3782  1.1411  0.1710
 6576TIP3   OH241362   0.246   6.134   1.551 -0.3766  0.1203  0.3425
 6576TIP3    H141363   0.266   6.048   1.515  2.2720  0.5203  0.6980
 6576TIP3    H241364   0.238   6.119   1.645 -0.9509  0.1186  0.2985
 6577TIP3   OH241365   5.676   4.253   1.948  0.7350 -0.1806  0.1536
 6577TIP3    H141366   5.619   4.198   1.895  0.3141  0.8826 -0.5269
 6577TIP3    H241367   5.620   4.325   1.976  0.6899 -1.1692  2.8578
 6578TIP3   OH241368   1.779   6.838   6.385 -0.2514 -0.3437 -0.3390
 6578TIP3    H141369   1.794   6.932   6.375 -2.0933 -0.1543 -1.9474
 6578TIP3    H241370   1.836   6.798   6.319  1.3170 -0.4895  1.0388
 6579TIP3   OH241371   6.184   4.144   7.803 -0.2354 -0.8334 -0.8135
 6579TIP3    H141372   6.270   4.122   7.839  0.1287  1.0594 -0.4088
 6579TIP3    H241373   6.203   4.165   7.711  0.1190  1.3937 -0.2923
 6580TIP3   OH241374   6.274   0.880   0.868 -0.0823  0.2264 -0.1120
 6580TIP3    H141375   6.351   0.864   0.923  0.4476 -0.0179 -0.9029
 6580TIP3    H241376   6.263   0.799   0.818 -1.5577 -0.1765  0.7991
 6581TIP3   OH241377   0.887   6.548   0.825  0.0653 -0.7457 -0.2844
 6581TIP3    H141378   0.808   6.544   0.878  1.9677 -1.5690  2.6786
 6581TIP3    H241379   0.893   6.462   0.784  0.3341 -1.3180  0.9314
 6582TIP3   OH241380   5.829   5.586   7.339 -0.3631  0.4357 -0.4813
 6582TIP3    H141381   5.907   5.632   7.368 -0.0507 -0.9695  1.0681
 6582TIP3    H241382   5.859   5.531   7.267  0.5180 -1.2629  1.0884
 6583TIP3   OH241383   6.667   6.782   0.369  0.3343  0.3772 -0.1257
 6583TIP3    H141384   6.738   6.788   0.305  1.0090  0.4621  0.6257
 6583TIP3    H241385   6.660   6.869   0.407 -0.3001  0.4185 -0.3204
 6584TIP3   OH241386   5.180   6.913   8.449  0.6371 -0.3673  0.0858
 6584TIP3    H141387   5.211   6.823   8.455 -1.5089 -1.3298 -1.6956
 6584TIP3    H241388   5.171   6.942   8.539  2.5006 -1.4926  0.6801
 6585TIP3   OH241389   3.915   0.966   6.297 -0.4690 -0.6841  0.6562
 6585TIP3    H141390   3.867   0.917   6.230  1.2350  0.9438 -1.9707
 6585TIP3    H241391   4.000   0.923   6.302  0.1181  0.3816  0.2535
 6586TIP3   OH241392   4.609   4.267   1.262  0.3109 -0.4124 -0.3309
 6586TIP3    H141393   4.634   4.193   1.207 -0.7292  0.9636 -2.8221
 6586TIP3    H241394   4.564   4.327   1.202  3.0971  3.3178  0.9830
 6587TIP3   OH241395   5.551   1.313   7.525  0.3394  0.4036  0.4181
 6587TIP3    H141396   5.475   1.341   7.578 -0.7937  1.4762 -1.6282
 6587TIP3    H241397   5.623   1.368   7.556  0.8182 -1.7248  3.5072
 6588TIP3   OH241398   6.435   5.201   2.096 -0.0785  0.0471  0.4278
 6588TIP3    H141399   6.524   5.236   2.093  0.1696 -0.4642  1.3762
 6588TIP3    H241400   6.445   5.108   2.077 -0.2994 -0.1769  1.3789
 6589TIP3   OH241401   4.440   4.519   8.149  0.1403 -0.4415  0.3909
 6589TIP3    H141402   4.392   4.572   8.085  1.0459 -1.7638 -1.4650
 6589TIP3    H241403   4.401   4.432   8.142  1.8345 -1.1967 -0.1494
 6590TIP3   OH241404   4.626   3.833   0.486  0.0603 -0.0949 -0.0591
 6590TIP3    H141405   4.693   3.855   0.550 -0.0000 -0.6054  0.1794
 6590TIP3    H241406   4.673   3.830   0.402 -0.1586  2.2885 -0.3441
 6591TIP3   OH241407   5.295   6.021   7.742 -0.8186 -0.0623  0.1155
 6591TIP3    H141408   5.279   6.116   7.750  1.1071  0.2130  1.1643
 6591TIP3    H241409   5.345   5.998   7.820  0.6720 -1.5181 -1.2029
 6592TIP3   OH241410   1.981   3.002   0.460  0.3384 -0.4359 -0.8649
 6592TIP3    H141411   1.933   2.989   0.542  0.2562 -1.1640 -1.0210
 6592TIP3    H241412   1.990   3.097   0.453 -0.3525 -0.3259 -0.4145
 6593TIP3   OH241413   5.261   6.288   2.374 -0.1667 -0.2273  0.1091
 6593TIP3    H141414   5.233   6.220   2.313 -0.4598 -1.5777  1.6851
 6593TIP3    H241415   5.357   6.282   2.373 -0.2045 -1.0961  0.6811
 6594TIP3   OH241416   1.075   5.485   1.095  0.8179 -0.2668 -0.4375
 6594TIP3    H141417   1.141   5.492   1.026  1.0313  0.5966 -0.1605
 6594TIP3    H241418   1.123   5.500   1.176  0.8297 -2.6472  0.0576
 6595TIP3   OH241419   3.383   6.891   7.921 -0.4620  0.3902 -0.2716
 6595TIP3    H141420   3.377   6.906   8.016 -0.1072 -0.4830 -0.1088
 6595TIP3    H241421   3.296   6.911   7.889 -0.7014  0.2896  0.2977
 6596TIP3   OH241422   1.708   5.619   0.710  0.3172  0.0479 -0.5126
 6596TIP3    H141423   1.793   5.599   0.671  0.2983 -0.1975 -0.4286
 6596TIP3    H241424   1.668   5.681   0.649  0.8420  0.7084 -0.2031
 6597TIP3   OH241425   3.456   5.000   6.976  0.5602  0.4952 -0.1657
 6597TIP3    H141426   3.413   4.959   7.052 -1.2283  0.3046 -1.2310
 6597TIP3    H241427   3.479   4.926   6.920  2.2650  0.6052  0.3583
 6598TIP3   OH241428   6.758   4.448   0.650 -0.0395  0.1126  0.3985
 6598TIP3    H141429   6.767   4.372   0.708 -0.8269 -0.5710 -0.3308
 6598TIP3    H241430   6.734   4.410   0.565  1.1297  1.0857 -0.3913
 6599TIP3   OH241431   5.827   1.662   0.860  0.5305  0.7758  0.6316
 6599TIP3    H141432   5.842   1.583   0.913 -0.4626 -1.6103 -2.3699
 6599TIP3    H241433   5.753   1.705   0.902  0.8467 -0.0594  2.1379
 6600TIP3   OH241434   1.678   5.251   7.812  0.8639  0.3360 -0.2953
 6600TIP3    H141435   1.765   5.242   7.774  0.7507  0.2436 -0.5360
 6600TIP3    H241436   1.694   5.259   7.906  1.4054  4.2003 -0.5801
 6601TIP3   OH241437   2.490   4.715   8.237 -0.0195 -0.2605 -0.5226
 6601TIP3    H141438   2.479   4.786   8.301 -0.4677 -0.2562 -0.5983
 6601TIP3    H241439   2.408   4.715   8.188  0.2695 -0.3596 -1.0065
 6602TIP3   OH241440   1.192   0.148   7.273 -0.1322 -0.7858 -0.0145
 6602TIP3    H141441   1.196   0.243   7.285 -1.3643 -0.8905  1.4577
 6602TIP3    H241442   1.284   0.120   7.276  0.2748  0.3933 -0.8890
 6603TIP3   OH241443   4.240   5.901   7.616 -0.1180  0.3304  0.4210
 6603TIP3    H141444   4.210   5.991   7.603  1.6285  0.8077 -0.6552
 6603TIP3    H241445   4.214   5.856   7.536 -0.4353  0.0346  0.6906
 6604TIP3   OH241446   4.413   3.217   1.067 -0.4070 -0.0010  0.0986
 6604TIP3    H141447   4.495   3.229   1.020 -0.1106  1.5527  0.9090
 6604TIP3    H241448   4.352   3.279   1.026 -0.8174 -0.3005  0.2491
 6605TIP3   OH241449   6.126   1.004   2.132 -0.1059 -0.7716 -0.5614
 6605TIP3    H141450   6.066   0.952   2.185 -1.6481 -0.2791 -1.7527
 6605TIP3    H241451   6.210   0.958   2.139 -0.6494 -1.6120  0.9581
 6606TIP3   OH241452   6.790   5.901   7.741 -0.1222  0.2437  0.1150
 6606TIP3    H141453   6.753   5.979   7.781  0.2668  0.4916  0.0012
 6606TIP3    H241454   6.815   5.846   7.815  1.0231  0.9023  0.2384
 6607TIP3   OH241455   5.844   2.384   2.400  0.2166 -0.3413 -0.7010
 6607TIP3    H141456   5.776   2.452   2.394  1.1820  0.5220 -3.2174
 6607TIP3    H241457   5.864   2.363   2.309  1.9597 -2.0038  0.0125
 6608TIP3   OH241458   3.177   5.489   1.602 -0.2179  0.1322  0.5186
 6608TIP3    H141459   3.271   5.506   1.608 -0.1851  0.0749  0.1735
 6608TIP3    H241460   3.168   5.395   1.611 -0.2087  0.0972  0.1870
 6609TIP3   OH241461   5.835   2.604   1.975  0.1919  0.4267  0.3326
 6609TIP3    H141462   5.906   2.609   1.911 -0.5082  1.5553 -0.3858
 6609TIP3    H241463   5.769   2.666   1.943 -0.4466  0.5515  1.8095
 6610TIP3   OH241464   6.355   2.017   1.905 -0.1600  0.5181 -0.6896
 6610TIP3    H141465   6.277   1.962   1.896  0.5109 -0.2261 -2.7764
 6610TIP3    H241466   6.334   2.078   1.975 -3.5414  1.8183 -2.5863
 6611TIP3   OH241467   5.971   4.090   7.632  0.2310  0.6273 -0.2003
 6611TIP3    H141468   6.021   4.077   7.713 -1.8155 -0.2229  0.9968
 6611TIP3    H241469   5.958   4.002   7.598 -4.4356  0.1241  2.1274
 6612TIP3   OH241470   2.436   3.258   6.904  0.8301 -0.1015 -0.2754
 6612TIP3    H141471   2.462   3.211   6.825 -0.2552 -0.0433 -0.6870
 6612TIP3    H241472   2.479   3.211   6.975  0.8000 -0.9421 -0.7961
 6613TIP3   OH241473   1.007   1.062   7.987  0.4191 -0.0341  0.1093
 6613TIP3    H141474   1.089   1.095   8.023 -0.2691 -0.1948  1.9418
 6613TIP3    H241475   1.005   0.970   8.011 -0.5097  0.0806  0.5013
 6614TIP3   OH241476   6.898   6.220   0.325  0.3804  0.4347  0.0266
 6614TIP3    H141477   6.805   6.241   0.332  0.4659  0.8431 -0.0702
 6614TIP3    H241478   6.919   6.233   0.232  0.5489  0.4060  0.0588
 6615TIP3   OH241479   6.565   3.592   2.070  0.4041  0.5059  0.4094
 6615TIP3    H141480   6.517   3.671   2.095 -2.1080 -0.8270  0.0634
 6615TIP3    H241481   6.630   3.581   2.140  0.7203  2.7344  0.5527
 6616TIP3   OH241482   5.872   6.462   1.459  0.1629  0.2932 -0.8977
 6616TIP3    H141483   5.798   6.511   1.425 -0.4134 -1.4715 -2.3444
 6616TIP3    H241484   5.833   6.391   1.510  0.9569  0.9025  0.6407
 6617TIP3   OH241485   6.298   1.943   0.903  0.4278  0.1537  0.2224
 6617TIP3    H141486   6.390   1.939   0.877  0.4729 -1.9056  0.5422
 6617TIP3    H241487   6.250   1.949   0.821  0.8366  2.3124  0.0854
 6618TIP3   OH241488   3.721   4.663   8.041 -0.2288  0.2635 -0.2207
 6618TIP3    H141489   3.649   4.676   8.104 -0.7695 -0.1998 -0.7287
 6618TIP3    H241490   3.762   4.749   8.034  0.2420  0.1986  1.2278
 6619TIP3   OH241491   4.408   2.293   0.609  0.4808  0.5229  0.3090
 6619TIP3    H141492   4.378   2.380   0.586  0.8671  0.4691 -0.4156
 6619TIP3    H241493   4.417   2.296   0.705  0.4147  1.2494  0.3009
 6620TIP3   OH241494   5.259   4.623   0.780 -0.0076  0.0900 -0.2610
 6620TIP3    H141495   5.241   4.716   0.771 -0.7736 -0.0224  0.0287
 6620TIP3    H241496   5.218   4.599   0.863 -0.0235 -0.5597 -0.4536
 6621TIP3   OH241497   0.791   3.794   1.062  0.5144  0.0326 -0.2660
 6621TIP3    H141498   0.795   3.885   1.092 -0.0205  0.0412 -0.2051
 6621TIP3    H241499   0.882   3.767   1.055  0.7478  1.1035 -1.9184
 6622TIP3   OH241500   2.257   5.639   0.648 -0.0489  0.0705 -0.3055
 6622TIP3    H141501   2.285   5.605   0.733  1.2371  0.6090 -0.4857
 6622TIP3    H241502   2.187   5.701   0.667 -0.2773 -0.3660  0.2881
 6623TIP3   OH241503   6.965   6.412   1.342 -0.2436  0.1569  0.3789
 6623TIP3    H141504   7.040   6.384   1.395  0.6811  0.1491 -0.8686
 6623TIP3    H241505   6.981   6.505   1.325 -0.2981  0.0670 -0.2000
 6624TIP3   OH241506   2.526   4.169   1.850  0.1184  0.7041  0.4618
 6624TIP3    H141507   2.473   4.239   1.889  1.2661  0.3610  2.7608
 6624TIP3    H241508   2.502   4.091   1.899  2.7037  0.5373  1.5724
 6625TIP3   OH241509   1.995   2.402   7.194 -0.3399 -0.6802  0.5681
 6625TIP3    H141510   2.030   2.389   7.106 -1.6310  0.2068 -0.1083
 6625TIP3    H241511   2.005   2.317   7.236  0.1992 -1.1564 -0.4795
 6626TIP3   OH241512   2.375   2.216   6.360 -0.4265  0.5419  0.5849
 6626TIP3    H141513   2.293   2.167   6.362 -0.9182  1.2199 -1.1311
 6626TIP3    H241514   2.399   2.218   6.268  1.3472  0.6695  1.0190
 6627TIP3   OH241515   5.832   6.700   7.922  0.1082 -0.4269  0.3647
 6627TIP3    H141516   5.829   6.621   7.976 -2.0611 -0.6644 -0.0160
 6627TIP3    H241517   5.757   6.753   7.951  0.9095  1.0267 -0.0894
 6628TIP3   OH241518   1.500   3.697   7.268 -0.1169 -0.2406 -0.1766
 6628TIP3    H141519   1.473   3.775   7.219 -0.2580 -0.4319 -0.4085
 6628TIP3    H241520   1.596   3.699   7.264 -0.1216 -0.1071 -0.2293
 6629TIP3   OH241521   5.510   5.600   8.236  0.0171 -0.1553  0.5551
 6629TIP3    H141522   5.463   5.532   8.188 -0.6045 -0.3590  1.4140
 6629TIP3    H241523   5.515   5.565   8.326  1.3109  0.1179  0.6068
 6630TIP3   OH241524   2.831   5.172   6.556 -0.2247  0.4085  0.1016
 6630TIP3    H141525   2.844   5.078   6.560 -0.3461  0.3218 -1.1291
 6630TIP3    H241526   2.905   5.205   6.505 -0.8978  0.8018 -0.6515
 6631TIP3   OH241527   4.556   3.724   6.439 -0.5558  0.0464 -0.0284
 6631TIP3    H141528   4.585   3.673   6.363 -1.1838  0.1466 -0.3382
 6631TIP3    H241529   4.631   3.779   6.460 -0.5357  0.3513 -0.8576
 6632TIP3   OH241530   0.631   0.821   6.265  0.0107  0.2764  0.1952
 6632TIP3    H141531   0.690   0.818   6.189 -0.6484 -1.8472 -0.3059
 6632TIP3    H241532   0.557   0.875   6.236 -0.2742 -0.5813 -0.7450
 6633TIP3   OH241533   0.223   3.112   7.065  0.7557  0.0926  0.0284
 6633TIP3    H141534   0.243   3.092   6.973 -0.8510 -0.1610 -0.2987
 6633TIP3    H241535   0.213   3.027   7.107 -0.0023  0.1902  0.0672
 6634TIP3   OH241536   0.143   3.991   0.874 -0.3304 -0.5442 -0.2667
 6634TIP3    H141537   0.109   3.903   0.885 -1.0210 -0.3424 -0.7271
 6634TIP3    H241538   0.098   4.025   0.797 -1.4038  0.8375  0.9128
 6635TIP3   OH241539   3.154   1.438   0.182 -0.5755 -0.3465  0.8258
 6635TIP3    H141540   3.078   1.463   0.130  0.2043  3.6743  1.2717
 6635TIP3    H241541   3.120   1.379   0.249 -2.1683 -3.1267 -2.1698
 6636TIP3   OH241542   0.961   6.681   1.596  0.6448 -0.6580  0.5432
 6636TIP3    H141543   0.908   6.675   1.517  1.8766 -1.5203 -0.2594
 6636TIP3    H241544   0.899   6.703   1.665 -0.6748 -1.2231 -0.4163
 6637TIP3   OH241545   2.118   5.782   0.427 -0.1641  0.6215 -0.5624
 6637TIP3    H141546   2.184   5.746   0.486 -0.4567  1.3077  0.1996
 6637TIP3    H241547   2.152   5.766   0.340  0.3866 -0.2032 -0.2010
 6638TIP3   OH241548   6.182   1.204   1.729 -0.2537  0.0132 -0.2361
 6638TIP3    H141549   6.258   1.216   1.671 -0.7207  2.2260 -0.4893
 6638TIP3    H241550   6.188   1.276   1.791 -1.1853 -0.8366  0.8825
 6639TIP3   OH241551   2.204   6.660   0.022 -0.4846 -0.4512  0.4052
 6639TIP3    H141552   2.162   6.637   0.104  0.8186 -1.2380  0.8924
 6639TIP3    H241553   2.156   6.611  -0.045 -0.8335 -0.7079  0.8376
 6640TIP3   OH241554   2.754   2.270   0.706  0.2577 -0.3449  0.2017
 6640TIP3    H141555   2.818   2.297   0.641  0.1380  0.6722  0.4868
 6640TIP3    H241556   2.807   2.242   0.781  0.3948 -1.5477 -0.3222
 6641TIP3   OH241557   1.166   1.535   0.449 -0.2063  0.0824 -0.2645
 6641TIP3    H141558   1.227   1.539   0.522  0.5705 -1.8645 -0.7373
 6641TIP3    H241559   1.134   1.624   0.439  1.4166  0.8466  0.9734
 6642TIP3   OH241560   1.533   4.410   6.622 -0.0812 -0.7426  0.3508
 6642TIP3    H141561   1.459   4.462   6.653  0.8624  0.7410  0.2005
 6642TIP3    H241562   1.498   4.358   6.550 -0.5598  1.4365 -1.0785
 6643TIP3   OH241563   2.095   1.102   0.149 -0.0532 -0.3522 -0.2234
 6643TIP3    H141564   2.100   1.067   0.238  1.8430  0.5527  0.0630
 6643TIP3    H241565   2.064   1.192   0.161 -0.8425 -0.5669 -0.5908
 6644TIP3   OH241566   5.766   4.648   1.116  0.0847 -0.9489  0.3789
 6644TIP3    H141567   5.691   4.590   1.123 -1.2528  0.9157  3.7870
 6644TIP3    H241568   5.728   4.735   1.099  1.8748 -0.5444 -2.3264
 6645TIP3   OH241569   5.144   3.425   8.364 -0.0376  0.4603 -0.1040
 6645TIP3    H141570   5.211   3.357   8.349 -1.5022 -0.7841 -1.3300
 6645TIP3    H241571   5.104   3.438   8.279 -1.3437  1.2041  0.5959
 6646TIP3   OH241572   6.958   0.031   1.246  0.1655  0.1974 -0.2783
 6646TIP3    H141573   7.029   0.073   1.294  0.2468 -0.8131  0.5265
 6646TIP3    H241574   6.878   0.071   1.280  0.3171  1.0408 -0.8878
 6647TIP3   OH241575   0.556   4.690   1.130 -0.1151  0.0932  0.9611
 6647TIP3    H141576   0.637   4.647   1.101  0.7729  2.3206 -0.0645
 6647TIP3    H241577   0.519   4.629   1.195  0.8232 -2.3776 -0.6538
 6648TIP3   OH241578   1.591   4.145   6.671  0.3714  0.4995 -0.1333
 6648TIP3    H141579   1.660   4.084   6.696 -0.2652  0.1067  0.7274
 6648TIP3    H241580   1.638   4.223   6.641  1.1889  0.2489  0.4434
 6649TIP3   OH241581   1.771   0.642   0.845 -0.0330  0.4233 -0.4698
 6649TIP3    H141582   1.716   0.720   0.836 -0.1502  0.5065  0.7066
 6649TIP3    H241583   1.811   0.652   0.932  1.4132  0.0828 -1.0706
 6650TIP3   OH241584   0.882   5.160   6.332 -0.0240 -0.0341 -0.6366
 6650TIP3    H141585   0.971   5.188   6.311  0.1382 -0.2449 -0.2329
 6650TIP3    H241586   0.833   5.177   6.251  0.4626 -0.2923 -0.9962
 6651TIP3   OH241587   2.239   5.601   7.472 -0.5709 -0.1182  0.3623
 6651TIP3    H141588   2.333   5.597   7.489 -0.3860  1.9588  0.0491
 6651TIP3    H241589   2.232   5.644   7.387 -1.8168  0.5664  0.7858
 6652TIP3   OH241590   2.487   6.338   1.026 -0.7081 -0.0211 -0.4440
 6652TIP3    H141591   2.481   6.366   1.117  0.5616  2.4159 -1.0404
 6652TIP3    H241592   2.555   6.270   1.026  0.9669  1.5888  0.1418
 6653TIP3   OH241593   2.410   4.811   1.563  0.0355  1.0005  0.7184
 6653TIP3    H141594   2.428   4.728   1.607 -0.7086  0.7503  0.5673
 6653TIP3    H241595   2.468   4.874   1.606  0.7564  0.3640  0.6935
 6654TIP3   OH241596   4.063   1.349   0.471  0.4584 -0.5893 -0.5192
 6654TIP3    H141597   4.048   1.409   0.544 -1.1215 -1.2653 -0.2391
 6654TIP3    H241598   3.980   1.349   0.423  1.3770 -0.3696 -2.1782
 6655TIP3   OH241599   4.859   4.831   2.519 -0.0111 -0.3184  0.0203
 6655TIP3    H141600   4.860   4.916   2.475 -1.1497 -0.1936  0.1877
 6655TIP3    H241601   4.775   4.792   2.493  0.8059 -1.7252 -0.6581
 6656TIP3   OH241602   5.347   2.976   1.057 -0.1782 -0.2870 -0.4475
 6656TIP3    H141603   5.311   3.020   0.980  1.4711  1.4617 -0.3070
 6656TIP3    H241604   5.312   3.024   1.132  1.5337  0.7942 -0.2866
 6657TIP3   OH241605   4.633   1.578   7.259  0.8343  0.0219  0.2250
 6657TIP3    H141606   4.716   1.550   7.220  0.5033  0.8292 -1.1341
 6657TIP3    H241607   4.573   1.506   7.240  0.9866 -0.1382  0.3480
 6658TIP3   OH241608   0.365   5.393   0.761  0.1881 -0.3235  0.6348
 6658TIP3    H141609   0.331   5.313   0.722 -0.0320  0.1893 -0.2466
 6658TIP3    H241610   0.457   5.375   0.778  0.9902  0.2712 -2.5422
 6659TIP3   OH241611   1.401   6.676   0.054 -0.0403  0.5780  0.1012
 6659TIP3    H141612   1.334   6.628   0.103  1.2056  0.1872  1.4869
 6659TIP3    H241613   1.484   6.644   0.088  0.8644  1.8736 -0.7618
 6660TIP3   OH241614   2.104   1.146   1.730  0.1303  0.4717  0.2790
 6660TIP3    H141615   2.010   1.135   1.745  0.3097 -1.4108  0.2551
 6660TIP3    H241616   2.128   1.221   1.784 -1.2154  0.3812  1.0520
 6661TIP3   OH241617   6.837   0.214   8.356  0.2703  0.4745 -0.1382
 6661TIP3    H141618   6.927   0.189   8.338  0.2069  1.8116 -2.8878
 6661TIP3    H241619   6.843   0.274   8.430  1.4269 -0.5400  0.6356
 6662TIP3   OH241620   1.822   2.282   1.453  0.2889  1.0808 -0.1798
 6662TIP3    H141621   1.825   2.356   1.394 -1.4572  1.4019  0.0837
 6662TIP3    H241622   1.834   2.320   1.540  2.0008  0.7082 -0.2079
 6663TIP3   OH241623   5.276   3.695   0.652  0.0442  0.0124  0.7835
 6663TIP3    H141624   5.276   3.783   0.616 -2.6617  0.6139  2.0088
 6663TIP3    H241625   5.269   3.637   0.576 -1.6781  1.0540  0.1120
 6664TIP3   OH241626   1.779   0.160   7.080  0.0297  0.1178 -0.2213
 6664TIP3    H141627   1.792   0.255   7.084  0.6571  0.0911 -1.3505
 6664TIP3    H241628   1.769   0.134   7.171 -1.4329  1.4340  0.0360
 6665TIP3   OH241629   6.861   3.831   6.970 -0.2457 -0.7351  0.2582
 6665TIP3    H141630   6.834   3.921   6.985 -0.6503 -0.8204  0.0548
 6665TIP3    H241631   6.882   3.826   6.877  1.6730 -0.3649  0.6436
 6666TIP3   OH241632   0.062   5.227   1.856  0.1253 -0.3436 -0.2673
 6666TIP3    H141633   0.120   5.299   1.879 -1.0736  1.1999 -1.7908
 6666TIP3    H241634   0.012   5.210   1.936  1.0515 -0.1487  0.3758
 6667TIP3   OH241635   5.637   3.471   7.373 -0.3309 -0.0855 -0.6135
 6667TIP3    H141636   5.728   3.488   7.351 -0.7958  2.3802 -0.9138
 6667TIP3    H241637   5.600   3.432   7.294 -0.2688  1.9435 -1.6923
 6668TIP3   OH241638   6.300   5.027   1.863 -0.2431  0.3132 -0.3103
 6668TIP3    H141639   6.324   5.119   1.865  1.1744 -0.0101  2.2080
 6668TIP3    H241640   6.209   5.025   1.894  0.3119  0.7846  1.4707
 6669TIP3   OH241641   2.778   3.362   7.185 -0.0251  0.5924  0.4523
 6669TIP3    H141642   2.811   3.273   7.198  0.2116  0.1608 -2.4988
 6669TIP3    H241643   2.696   3.363   7.235 -0.5673 -1.6447 -0.2589
 6670TIP3   OH241644   6.563   4.516   6.950  0.1387  0.3636  0.0991
 6670TIP3    H141645   6.586   4.433   6.909 -0.2627  0.0431  0.5058
 6670TIP3    H241646   6.552   4.577   6.877  1.8956  0.4503 -0.1329
 6671TIP3   OH241647   4.542   2.845   7.878 -0.2600 -0.0848  0.0706
 6671TIP3    H141648   4.601   2.866   7.805 -0.5324 -0.9789 -0.4201
 6671TIP3    H241649   4.549   2.750   7.888  0.0977  0.0759  1.4978
 6672TIP3   OH241650   4.777   1.438   8.351 -0.5805  0.2463 -0.3134
 6672TIP3    H141651   4.684   1.447   8.373 -0.0526  0.2798  2.3023
 6672TIP3    H241652   4.795   1.345   8.359 -0.8220 -0.1229 -3.1726
 6673TIP3   OH241653   6.886   2.729   3.215 -0.1604 -0.4324 -0.0111
 6673TIP3    H141654   6.895   2.806   3.158  1.0345 -0.5559 -0.0219
 6673TIP3    H241655   6.940   2.750   3.291 -1.8456 -0.2072  1.1832
 6674TIP3   OH241656   6.520   1.227   0.751 -0.0889 -0.3307  0.2902
 6674TIP3    H141657   6.604   1.221   0.797  0.2282 -0.3229 -0.2754
 6674TIP3    H241658   6.540   1.198   0.662 -0.8382 -1.0141  0.3287
 6675TIP3   OH241659   5.502   4.381   7.954  0.1409 -0.5464  0.0634
 6675TIP3    H141660   5.512   4.383   7.859 -0.8643 -0.5648 -0.0576
 6675TIP3    H241661   5.423   4.329   7.968 -0.5595  0.6775  0.8177
 6676TIP3   OH241662   1.300   4.806   1.237  0.3250 -0.2440 -0.3938
 6676TIP3    H141663   1.339   4.883   1.280  2.0546 -0.9580 -0.5733
 6676TIP3    H241664   1.312   4.822   1.144 -1.0113  0.0942 -0.5230
 6677TIP3   OH241665   3.995   4.529   0.208 -0.2521  0.1197  0.4848
 6677TIP3    H141666   3.990   4.540   0.113 -0.4538  1.2792  0.6073
 6677TIP3    H241667   4.069   4.471   0.221  0.1307  0.3876 -0.3664
 6678TIP3   OH241668   6.049   1.887   1.625 -0.8016  0.0963 -0.2444
 6678TIP3    H141669   6.094   1.804   1.609 -0.4941 -0.0084  1.1099
 6678TIP3    H241670   6.051   1.931   1.540  1.0277 -0.3105 -0.4621
 6679TIP3   OH241671   6.431   3.890   2.142  0.5673  1.0586  0.2625
 6679TIP3    H141672   6.520   3.915   2.167  0.8277  0.1412  0.3187
 6679TIP3    H241673   6.376   3.925   2.211  1.0135  0.7026  0.8136
 6680TIP3   OH241674   4.748   6.801   1.933  0.3533 -0.8319 -0.0329
 6680TIP3    H141675   4.735   6.744   2.009  2.2716 -1.3826 -0.0494
 6680TIP3    H241676   4.765   6.888   1.971 -1.7226 -0.4115  0.0222
 6681TIP3   OH241677   2.272   2.218   7.897 -0.2991 -0.3107 -0.6132
 6681TIP3    H141678   2.290   2.310   7.914  0.4485 -0.7546  1.2490
 6681TIP3    H241679   2.349   2.187   7.847 -0.2924 -0.0590 -0.7579
 6682TIP3   OH241680   4.830   1.919   2.278  0.7132  0.0100 -0.7062
 6682TIP3    H141681   4.890   1.854   2.314  0.3744  1.0136  1.9106
 6682TIP3    H241682   4.746   1.899   2.319  0.1670  0.9744 -1.3099
 6683TIP3   OH241683   5.233   0.289   7.281 -0.6342 -0.1049  0.0381
 6683TIP3    H141684   5.226   0.212   7.225 -0.5279  0.0690 -0.2154
 6683TIP3    H241685   5.292   0.263   7.351  1.4791  0.5458 -1.4056
 6684TIP3   OH241686   3.213   6.319   8.126 -0.1073 -0.2024  0.0255
 6684TIP3    H141687   3.195   6.412   8.111  2.2205  0.2158 -0.4397
 6684TIP3    H241688   3.172   6.301   8.211 -0.3090  1.3285  0.2816
 6685TIP3   OH241689   4.752   0.623   8.425 -0.5827 -0.1245  0.2365
 6685TIP3    H141690   4.784   0.665   8.346 -2.6725  1.0041 -0.0856
 6685TIP3    H241691   4.713   0.694   8.476  0.7737 -0.8140  2.3609
 6686TIP3   OH241692   5.532   5.238   1.324 -0.6612 -0.0934 -0.5463
 6686TIP3    H141693   5.507   5.201   1.239  1.6832 -0.2107 -1.2662
 6686TIP3    H241694   5.626   5.224   1.329 -0.3155  2.2405  0.9460
 6687TIP3   OH241695   5.827   1.447   8.109 -0.4206 -0.3807  0.7318
 6687TIP3    H141696   5.848   1.462   8.016  0.2071 -1.5926  0.6501
 6687TIP3    H241697   5.787   1.528   8.138  0.6310  0.5148 -0.2435
 6688TIP3   OH241698   6.435   2.548   1.628 -0.0431  0.1874 -0.0275
 6688TIP3    H141699   6.347   2.523   1.655 -0.3866  0.6012 -0.7301
 6688TIP3    H241700   6.473   2.590   1.704  0.2950 -1.7836  0.9672
 6689TIP3   OH241701   1.759   1.364   6.841 -0.1116  0.5372 -0.7522
 6689TIP3    H141702   1.848   1.344   6.811  0.0453 -0.1313  0.1173
 6689TIP3    H241703   1.769   1.441   6.897 -0.1296  0.6493 -0.9020
 6690TIP3   OH241704   1.551   0.494   0.864  0.4503 -0.1106 -0.2958
 6690TIP3    H141705   1.487   0.488   0.935 -0.9863  3.2298 -1.1134
 6690TIP3    H241706   1.629   0.529   0.906 -0.5595  2.3686 -0.2920
 6691TIP3   OH241707   3.252   2.211   2.704  0.2119  0.1382 -0.0877
 6691TIP3    H141708   3.254   2.223   2.799  0.6078  0.2640 -0.1100
 6691TIP3    H241709   3.175   2.158   2.688 -0.7431  1.3948  0.1638
 6692TIP3   OH241710   1.718   2.649   1.102  0.2112 -0.6188  0.6454
 6692TIP3    H141711   1.687   2.610   1.020  1.8846 -1.6092  0.4477
 6692TIP3    H241712   1.743   2.739   1.078  0.5279 -0.8472  0.1135
 6693TIP3   OH241713   2.638   1.571   6.987 -0.0373  0.2148  0.3411
 6693TIP3    H141714   2.719   1.539   7.026  0.3965  2.2955  1.2839
 6693TIP3    H241715   2.664   1.602   6.900  0.1330  0.6326  0.5391
 6694TIP3   OH241716   4.010   5.266   7.125 -0.1368  0.0999  0.4146
 6694TIP3    H141717   3.950   5.245   7.197 -0.9483  2.2051  0.3984
 6694TIP3    H241718   3.965   5.236   7.046 -1.4504  2.1273  0.3513
 6695TIP3   OH241719   1.497   3.352   0.787 -0.6481  0.5315  0.6675
 6695TIP3    H141720   1.551   3.424   0.820 -2.0287  1.6366  0.6697
 6695TIP3    H241721   1.426   3.396   0.739 -0.7654 -0.8985 -0.5685
 6696TIP3   OH241722   2.467   2.301   6.932 -0.0010  0.4060 -0.0507
 6696TIP3    H141723   2.423   2.256   7.005  0.6511 -0.1024  0.0308
 6696TIP3    H241724   2.548   2.253   6.919  1.2687  2.2081  0.7769
 6697TIP3   OH241725   3.264   2.449   8.145 -0.3566  0.8060 -0.0773
 6697TIP3    H141726   3.312   2.455   8.227  1.1109  1.4348 -0.9331
 6697TIP3    H241727   3.307   2.379   8.096 -0.8242  0.8335 -0.5462
 6698TIP3   OH241728   3.409   6.683   7.270 -0.2957  0.0308  0.0781
 6698TIP3    H141729   3.444   6.762   7.310 -1.3823  0.0872  0.9676
 6698TIP3    H241730   3.338   6.656   7.328 -0.2277 -1.3534 -0.4501
 6699TIP3   OH241731   0.983   5.150   1.039 -0.0498  0.4038  0.7092
 6699TIP3    H141732   1.031   5.168   1.120 -2.1372  1.7941  1.7184
 6699TIP3    H241733   0.937   5.068   1.057  1.3464 -0.5969 -0.0337
 6700TIP3   OH241734   3.603   1.344   1.354 -0.3831 -0.4483 -0.0372
 6700TIP3    H141735   3.607   1.252   1.329 -0.1121 -0.4883  0.1525
 6700TIP3    H241736   3.634   1.346   1.445  0.5603 -0.0489 -0.3505
 6701TIP3   OH241737   2.145   1.398   0.802  0.6948 -0.0865 -0.4239
 6701TIP3    H141738   2.228   1.442   0.783  1.6098 -0.7240  1.7875
 6701TIP3    H241739   2.113   1.440   0.882 -0.7606 -0.3584 -0.8337
 6702TIP3   OH241740   3.208   0.166   1.651  0.0384  0.3228  0.1504
 6702TIP3    H141741   3.135   0.169   1.713 -0.1142 -0.7883  0.0474
 6702TIP3    H241742   3.219   0.073   1.632  0.3530  0.6181 -1.1857
 6703TIP3   OH241743   1.533   6.669   6.358 -0.2365 -0.0472 -0.6469
 6703TIP3    H141744   1.604   6.733   6.352 -1.0735  0.8558 -0.9923
 6703TIP3    H241745   1.573   6.587   6.326  0.7830  0.3236 -0.3730
 6704TIP3   OH241746   5.555   1.036   6.866  0.3657  0.1935  0.4751
 6704TIP3    H141747   5.628   0.977   6.847 -0.7704 -0.8619 -0.8399
 6704TIP3    H241748   5.477   0.984   6.849 -0.7177  1.2470  1.9945
 6705TIP3   OH241749   2.012   2.045   2.486 -0.4014  0.2077  0.2655
 6705TIP3    H141750   2.059   2.127   2.473  0.8676 -0.6925 -1.1960
 6705TIP3    H241751   2.081   1.978   2.484 -1.5757 -1.0118 -0.1711
 6706TIP3   OH241752   2.150   3.161   8.331 -0.0112 -0.0581  0.4667
 6706TIP3    H141753   2.056   3.179   8.323  0.1032  0.3753  0.1059
 6706TIP3    H241754   2.157   3.106   8.409 -0.5735 -0.1534  0.4521
 6707TIP3   OH241755   6.272   1.764   7.505  0.1252  0.2205 -0.7355
 6707TIP3    H141756   6.263   1.695   7.439  1.2810 -0.7458  0.0588
 6707TIP3    H241757   6.365   1.761   7.530  0.0967  1.7600 -0.3417
 6708TIP3   OH241758   0.755   1.731   2.055 -1.0297 -0.4894 -0.3359
 6708TIP3    H141759   0.722   1.646   2.082  0.2030 -1.4606 -1.6774
 6708TIP3    H241760   0.849   1.717   2.043 -0.2514  1.8095  2.1288
 6709TIP3   OH241761   5.514   2.302   1.564  0.0611  0.4149  0.1612
 6709TIP3    H141762   5.464   2.383   1.555  0.7391  1.0389  1.6599
 6709TIP3    H241763   5.570   2.299   1.486  1.0167  2.1188  0.7504
 6710TIP3   OH241764   0.924   0.983   0.702  0.0292  0.1927  0.3007
 6710TIP3    H141765   0.898   0.893   0.719  1.2573 -0.1127  0.6767
 6710TIP3    H241766   1.015   0.976   0.671 -0.3638  1.1785 -1.1610
 6711TIP3   OH241767   5.742   5.427   1.835 -0.6229 -0.1402  0.3099
 6711TIP3    H141768   5.705   5.474   1.761  0.0696  0.2277  0.1906
 6711TIP3    H241769   5.758   5.494   1.901 -2.3233 -0.6113  1.2728
 6712TIP3   OH241770   2.765   3.115   1.083 -0.6854 -0.3793 -0.4092
 6712TIP3    H141771   2.821   3.041   1.060  1.2389  1.6770 -3.0319
 6712TIP3    H241772   2.692   3.110   1.021 -0.3428  0.0929 -0.8612
 6713TIP3   OH241773   1.463   1.066   5.984 -0.4451  0.2168 -0.3492
 6713TIP3    H141774   1.499   0.981   5.957 -0.2954  0.3477 -0.5662
 6713TIP3    H241775   1.371   1.062   5.957  0.0702  0.9923 -2.4845
 6714TIP3   OH241776   2.035   2.759   0.235 -0.1495  0.1861 -0.0268
 6714TIP3    H141777   2.109   2.745   0.294 -0.2973  3.0537  0.9902
 6714TIP3    H241778   1.996   2.672   0.225  1.9461 -1.0003  1.2840
 6715TIP3   OH241779   0.288   4.149   1.068 -0.3572  0.0122 -0.2751
 6715TIP3    H141780   0.335   4.095   1.131 -0.2517  1.7192  1.2062
 6715TIP3    H241781   0.239   4.087   1.014  1.9246 -1.7102 -0.5337
 6716TIP3   OH241782   0.886   1.817   8.309 -0.4394 -0.2916  0.4007
 6716TIP3    H141783   0.966   1.767   8.289 -1.3310 -1.6162 -0.0141
 6716TIP3    H241784   0.917   1.895   8.355  1.3227  0.5667 -2.0349
 6717TIP3   OH241785   5.923   5.464   7.098  0.2858 -0.0238 -0.6620
 6717TIP3    H141786   5.993   5.462   7.164 -0.1585  1.0581 -0.1239
 6717TIP3    H241787   5.960   5.516   7.027  0.9907 -1.7029 -1.5695
 6718TIP3   OH241788   5.288   1.622   1.993 -0.7190 -0.1554 -0.4926
 6718TIP3    H141789   5.330   1.680   2.056 -1.9347  0.9107 -0.6236
 6718TIP3    H241790   5.352   1.552   1.979  0.8414  1.1816 -0.4044
 6719TIP3   OH241791   5.566   0.265   7.627  0.1092  0.4354  0.4699
 6719TIP3    H141792   5.565   0.335   7.693  0.7775  0.9509 -0.0571
 6719TIP3    H241793   5.652   0.272   7.586  0.1153 -0.5967  0.2952
 6720TIP3   OH241794   6.364   6.375   7.755  0.1748  0.1863 -0.0283
 6720TIP3    H141795   6.423   6.450   7.761  0.2662  0.1746 -0.6544
 6720TIP3    H241796   6.276   6.413   7.759  0.1843  0.5308 -2.0085
 6721TIP3   OH241797   1.553   2.455   7.454 -0.1434 -0.1832 -0.3918
 6721TIP3    H141798   1.600   2.459   7.371 -0.7532  1.4562 -0.6934
 6721TIP3    H241799   1.553   2.545   7.486  0.9572 -0.9259  1.9042
 6722TIP3   OH241800   2.568   0.910   7.362 -0.3470 -0.1036 -0.2837
 6722TIP3    H141801   2.560   1.001   7.392  2.4293  0.2851 -0.4932
 6722TIP3    H241802   2.490   0.897   7.308 -0.7801  2.2159 -0.3511
 6723TIP3   OH241803   1.256   3.170   6.364  0.4841  0.2365 -0.1791
 6723TIP3    H141804   1.213   3.228   6.301  0.2197  1.3337  0.9653
 6723TIP3    H241805   1.325   3.127   6.314  0.3159  1.1078 -1.2048
 6724TIP3   OH241806   6.853   1.019   0.393 -0.5925 -0.8316  0.4357
 6724TIP3    H141807   6.813   0.941   0.355  0.6400 -1.6770  0.8212
 6724TIP3    H241808   6.947   1.004   0.385 -0.3371  0.2187  1.3133
 6725TIP3   OH241809   5.627   1.186   0.058 -0.6661  0.1845 -0.2586
 6725TIP3    H141810   5.583   1.263   0.093 -0.1153  1.1232 -1.5172
 6725TIP3    H241811   5.657   1.214  -0.029 -0.7521 -1.5660 -0.8912
 6726TIP3   OH241812   0.610   1.393   0.214  0.0813  0.1779  0.3341
 6726TIP3    H141813   0.597   1.350   0.298 -0.4264  0.1996  0.2687
 6726TIP3    H241814   0.700   1.370   0.189 -0.5187 -1.7600 -0.2226
 6727TIP3   OH241815   4.738   4.609   1.164 -0.7197 -0.1622  0.6263
 6727TIP3    H141816   4.698   4.560   1.092  0.9769 -0.6554 -0.0192
 6727TIP3    H241817   4.785   4.681   1.121 -0.3722  0.0239  1.3053
 6728TIP3   OH241818   0.647   1.264   6.331 -0.0626  0.0140 -0.3849
 6728TIP3    H141819   0.561   1.304   6.338  0.5363  1.0679  2.8380
 6728TIP3    H241820   0.641   1.185   6.386  0.9379 -0.0344 -0.3185
 6729TIP3   OH241821   0.496   3.433   1.882  0.1171 -0.1970  0.1071
 6729TIP3    H141822   0.454   3.501   1.936 -3.2516 -2.2129  0.2801
 6729TIP3    H241823   0.503   3.357   1.940 -1.0530 -1.5655 -1.4525
 6730TIP3   OH241824   5.226   6.045   1.724  0.0055  0.2805  0.4483
 6730TIP3    H141825   5.209   5.985   1.797  0.9903  1.5441  1.7804
 6730TIP3    H241826   5.315   6.024   1.696  0.1131  0.6681  0.4926
 6731TIP3   OH241827   6.534   6.593   1.765 -0.4716 -0.0866 -0.3447
 6731TIP3    H141828   6.593   6.543   1.709 -1.0358 -1.1459 -0.0075
 6731TIP3    H241829   6.521   6.539   1.842  0.1474  1.2720  0.7684
 6732TIP3   OH241830   6.257   6.086   2.403 -0.2908  0.3358  0.2740
 6732TIP3    H141831   6.331   6.045   2.449  0.5363  2.1471  0.6338
 6732TIP3    H241832   6.260   6.047   2.315  0.5853 -0.2427  0.5424
 6733TIP3   OH241833   2.583   3.066   0.901 -0.1169 -0.1938  0.1341
 6733TIP3    H141834   2.558   2.980   0.868 -0.6243  0.3881 -1.0636
 6733TIP3    H241835   2.620   3.112   0.825  0.7427  0.4309  0.8986
 6734TIP3   OH241836   1.611   0.474   7.462  1.1330  0.2168 -0.4694
 6734TIP3    H141837   1.555   0.508   7.393  0.7597 -2.3866 -1.5694
 6734TIP3    H241838   1.685   0.534   7.465  0.4556  1.1940 -2.1447
 6735TIP3   OH241839   4.385   1.915   7.876  0.4071 -0.2948 -0.1471
 6735TIP3    H141840   4.444   1.843   7.896 -0.8739 -0.9735  1.3981
 6735TIP3    H241841   4.345   1.891   7.793  0.6843 -0.8970 -0.1137
 6736TIP3   OH241842   3.381   6.437   8.445  0.3754 -0.2311  0.3017
 6736TIP3    H141843   3.432   6.512   8.475  1.6705 -1.6755  1.9267
 6736TIP3    H241844   3.301   6.440   8.498  1.8193 -1.6846  2.7834
 6737TIP3   OH241845   5.491   4.076   1.851  0.2482  0.0708 -0.1288
 6737TIP3    H141846   5.448   4.026   1.782 -2.5201  1.5063  0.3980
 6737TIP3    H241847   5.432   4.150   1.867  1.1447  0.2309  3.2103
 6738TIP3   OH241848   2.419   5.412   6.297 -0.3756  1.0278 -0.1095
 6738TIP3    H141849   2.472   5.492   6.296 -0.2565  0.9471 -0.1645
 6738TIP3    H241850   2.454   5.361   6.370 -2.0344  2.1133  1.5202
 6739TIP3   OH241851   4.049   6.913   0.333  0.0533 -0.0348  0.7218
 6739TIP3    H141852   4.062   6.982   0.398 -0.6588 -1.6877  2.7218
 6739TIP3    H241853   4.129   6.860   0.338  0.2785  0.2026 -0.2572
 6740TIP3   OH241854   0.880   3.102   8.227  0.7582 -0.4574  0.4188
 6740TIP3    H141855   0.798   3.110   8.178  0.5348  0.7633  0.9611
 6740TIP3    H241856   0.853   3.079   8.316  1.0121 -0.0975  0.5899
 6741TIP3   OH241857   3.910   4.692   1.928 -0.0247  0.2902  0.7278
 6741TIP3    H141858   3.943   4.769   1.976  0.2208  0.6620 -0.0286
 6741TIP3    H241859   3.828   4.670   1.972 -0.1151  1.0065  0.9345
 6742TIP3   OH241860   4.453   1.404   7.542  0.1467  0.0228 -0.1164
 6742TIP3    H141861   4.538   1.417   7.500 -0.4202  0.4185 -1.1666
 6742TIP3    H241862   4.448   1.309   7.557  0.6661 -0.0320 -0.2764
 6743TIP3   OH241863   2.686   2.759   1.197 -0.4366  0.9104 -0.0624
 6743TIP3    H141864   2.711   2.850   1.186  0.3809  0.8955  1.3994
 6743TIP3    H241865   2.592   2.757   1.177 -0.2489  1.8534 -1.1130
 6744TIP3   OH241866   0.838   0.237   6.293 -0.1674  0.6038  0.9491
 6744TIP3    H141867   0.751   0.199   6.308 -0.5410  0.3935 -1.4230
 6744TIP3    H241868   0.898   0.165   6.308 -0.7191 -0.3793 -1.1936
 6745TIP3   OH241869   1.648   3.010   6.903 -0.1249 -0.2746  0.0846
 6745TIP3    H141870   1.681   3.044   6.819 -1.9217 -0.2623 -0.6614
 6745TIP3    H241871   1.641   2.916   6.889  1.0892 -0.4883  0.7963
 6746TIP3   OH241872   6.887   5.813   8.448 -0.4934 -0.2460 -0.2820
 6746TIP3    H141873   6.804   5.858   8.463 -0.4556 -0.5176  0.7882
 6746TIP3    H241874   6.953   5.877   8.471 -0.4130 -0.2499 -0.5007
 6747TIP3   OH241875   3.441   0.548   1.485 -0.3506 -0.0191 -0.1103
 6747TIP3    H141876   3.435   0.628   1.536 -2.5646  0.5737 -1.2096
 6747TIP3    H241877   3.362   0.499   1.507  0.5284 -1.5198 -0.1383
 6748TIP3   OH241878   3.722   6.078   0.166  0.1917 -0.1172 -0.4531
 6748TIP3    H141879   3.784   6.093   0.094  0.5833  1.9394  0.2287
 6748TIP3    H241880   3.637   6.070   0.122  0.6508 -0.7863 -1.2559
 6749TIP3   OH241881   5.473   3.027   6.767  0.6194  0.1710 -0.2553
 6749TIP3    H141882   5.406   3.076   6.815 -0.9175 -1.7734 -0.3027
 6749TIP3    H241883   5.556   3.059   6.804 -0.3209  1.9791  0.4478
 6750TIP3   OH241884   2.554   0.842   7.927 -0.3605  0.1738 -0.2196
 6750TIP3    H141885   2.625   0.883   7.975  0.3134 -0.6235 -0.5121
 6750TIP3    H241886   2.532   0.906   7.858 -2.3932  2.0274  1.9883
 6751TIP3   OH241887   6.686   1.361   8.314 -0.1844  0.3582  0.0117
 6751TIP3    H141888   6.735   1.283   8.289  1.2225  1.1621  0.1622
 6751TIP3    H241889   6.642   1.388   8.233 -0.4858 -0.4374 -0.1000
 6752TIP3   OH241890   5.735   2.511   0.360  0.2335 -0.3490 -0.0746
 6752TIP3    H141891   5.744   2.600   0.395  0.5205 -1.4773  3.0111
 6752TIP3    H241892   5.823   2.474   0.368 -0.0912 -1.2095 -0.4517
 6753TIP3   OH241893   2.605   1.258   7.967 -0.8196 -0.3466 -0.2966
 6753TIP3    H141894   2.539   1.281   7.902 -0.6085  0.0826 -0.3591
 6753TIP3    H241895   2.608   1.333   8.027 -1.4206 -0.9736  0.5438
 6754TIP3   OH241896   3.210   4.377   6.434  0.2290 -0.2663  0.0158
 6754TIP3    H141897   3.156   4.298   6.424 -0.3773  0.0996  0.3728
 6754TIP3    H241898   3.287   4.347   6.482  1.2028 -1.1641 -2.0098
 6755TIP3   OH241899   2.044   6.605   0.257  0.3438  0.2896  0.5749
 6755TIP3    H141900   1.956   6.644   0.257  0.2266  0.0577 -0.4869
 6755TIP3    H241901   2.028   6.511   0.258  0.4688  0.1468 -2.4442
 6756TIP3   OH241902   5.340   1.995   1.911  0.0902  0.0399  0.0130
 6756TIP3    H141903   5.375   2.060   1.972  0.2205  1.5771 -1.6327
 6756TIP3    H241904   5.381   2.014   1.828  0.3451 -2.3831 -0.5059
 6757TIP3   OH241905   1.864   2.720   7.092 -0.2596 -0.4748 -0.2770
 6757TIP3    H141906   1.899   2.725   7.003 -1.1894  0.1564 -0.6239
 6757TIP3    H241907   1.938   2.689   7.145  0.7125  0.4361 -1.0396
 6758TIP3   OH241908   5.267   1.053   0.796 -0.7476 -0.0049  0.6548
 6758TIP3    H141909   5.290   1.128   0.741 -1.0425  0.8957  1.7313
 6758TIP3    H241910   5.185   1.020   0.758  0.1914 -0.7795 -0.7767
 6759TIP3   OH241911   3.437   2.218   0.545  0.1422 -0.4876 -0.0537
 6759TIP3    H141912   3.469   2.303   0.574 -0.6892 -1.1694  3.1729
 6759TIP3    H241913   3.508   2.183   0.491  0.0258  2.6517 -2.5575
 6760TIP3   OH241914   6.402   2.757   7.716  0.1337 -0.0240  0.0354
 6760TIP3    H141915   6.493   2.780   7.732  0.1612 -0.0065 -0.1482
 6760TIP3    H241916   6.364   2.835   7.676  0.0399 -0.0344  0.1038
 6761TIP3   OH241917   1.135   2.513   7.839 -0.0334  0.5172  0.5434
 6761TIP3    H141918   1.144   2.472   7.925  2.3386  0.3818  0.2894
 6761TIP3    H241919   1.059   2.469   7.800 -0.3625 -0.3385  2.0468
 6762TIP3   OH241920   0.491   4.945   6.241  1.0915  0.4065 -0.3849
 6762TIP3    H141921   0.496   4.958   6.336  1.2216 -0.6959 -0.2275
 6762TIP3    H241922   0.410   4.896   6.228  1.4958 -0.1788 -0.7442
 6763TIP3   OH241923   0.183   2.305   0.694  0.3362 -0.7705  0.5423
 6763TIP3    H141924   0.165   2.342   0.607 -0.1617 -1.4752  0.3453
 6763TIP3    H241925   0.164   2.212   0.686  2.2910 -1.2579  0.8314
 6764TIP3   OH241926   2.011   4.093   7.321  0.2043  0.0773  0.3399
 6764TIP3    H141927   2.089   4.058   7.279  0.4596 -0.2993  1.1159
 6764TIP3    H241928   2.040   4.118   7.408 -0.3646  0.6765  0.3646
 6765TIP3   OH241929   5.678   0.751   0.387  0.2371 -0.8210 -0.1220
 6765TIP3    H141930   5.621   0.702   0.328 -0.7306 -1.1436  1.0538
 6765TIP3    H241931   5.752   0.777   0.332  0.1482 -2.4890 -1.1011
 6766TIP3   OH241932   2.281   1.982   7.632 -0.0185 -0.3521 -0.6112
 6766TIP3    H141933   2.185   1.984   7.640  0.1523  0.4502  2.0199
 6766TIP3    H241934   2.306   2.074   7.620  0.4174 -0.6617 -2.4171
 6767TIP3   OH241935   2.614   1.140   1.050  0.4563 -0.4990 -0.1897
 6767TIP3    H141936   2.655   1.209   1.102 -0.8345 -0.5959  1.0092
 6767TIP3    H241937   2.550   1.101   1.108  1.6120 -3.2089 -0.5946
 6768TIP3   OH241938   0.224   2.285   1.443  0.5715  0.3029 -0.0844
 6768TIP3    H141939   0.295   2.308   1.503 -0.8413 -0.3177  1.9541
 6768TIP3    H241940   0.154   2.347   1.464 -0.6182 -1.0945  0.2730
 6769TIP3   OH241941   4.427   1.773   1.821 -0.0607 -0.4331 -0.1277
 6769TIP3    H141942   4.505   1.767   1.876  0.4639 -1.0230 -0.9014
 6769TIP3    H241943   4.429   1.862   1.786  2.1109 -1.3061 -2.6662
 6770TIP3   OH241944   4.135   1.338   7.010  0.3586 -0.6433  0.0074
 6770TIP3    H141945   4.158   1.245   7.014 -2.9369 -1.5458  0.9647
 6770TIP3    H241946   4.040   1.339   7.005  0.2392  2.7254  0.7212
 6771TIP3   OH241947   4.607   2.448   0.898  0.0552 -0.3402  0.7498
 6771TIP3    H141948   4.564   2.364   0.914  1.1534 -0.6488  2.2604
 6771TIP3    H241949   4.620   2.450   0.803 -2.7947 -0.4352  0.2854
 6772TIP3   OH241950   1.377   3.912   7.164  0.3107 -0.2824 -1.0130
 6772TIP3    H141951   1.311   3.902   7.095  2.1309  0.7551 -3.0237
 6772TIP3    H241952   1.348   3.988   7.214  0.5613  0.9776 -2.6726
 6773TIP3   OH241953   1.964   6.589   7.532 -0.5089 -0.0406 -0.0713
 6773TIP3    H141954   1.999   6.627   7.452 -0.1592 -0.1099  0.0475
 6773TIP3    H241955   2.039   6.550   7.576 -0.8598 -0.8480 -0.1705
 6774TIP3   OH241956   6.141   2.479   7.489  0.1862 -0.0507 -0.0964
 6774TIP3    H141957   6.198   2.498   7.564 -0.2366  0.0391  0.2108
 6774TIP3    H241958   6.074   2.420   7.525  0.1264 -0.2093 -0.4674
 6775TIP3   OH241959   5.737   3.370   7.097 -0.3395 -0.1963 -0.2432
 6775TIP3    H141960   5.815   3.425   7.096 -1.2191  1.1490  1.0060
 6775TIP3    H241961   5.684   3.402   7.024 -0.6191  0.2654  0.1609
 6776TIP3   OH241962   0.318   1.253   8.187 -0.4147 -0.3446  0.1324
 6776TIP3    H141963   0.297   1.169   8.147 -2.9841  1.3724 -2.4961
 6776TIP3    H241964   0.284   1.318   8.126 -1.1399  2.6007  3.3405
 6777TIP3   OH241965   1.298   5.128   1.684 -0.4405 -0.1525  0.5241
 6777TIP3    H141966   1.231   5.117   1.751  0.0502 -2.5020  0.6894
 6777TIP3    H241967   1.277   5.213   1.644 -2.4856 -0.0449  1.6814
 6778TIP3   OH241968   2.773   1.690   2.771  0.3059  0.0225  0.7349
 6778TIP3    H141969   2.810   1.765   2.817 -0.1883  0.0756  1.0495
 6778TIP3    H241970   2.800   1.614   2.824  0.7463 -0.0201  0.4548
 6779TIP3   OH241971   1.138   3.082   7.223 -0.0617 -0.4022  0.5132
 6779TIP3    H141972   1.204   3.138   7.183  0.4710 -2.5344 -1.8759
 6779TIP3    H241973   1.055   3.118   7.194 -0.0574  1.9129  3.0052
 6780TIP3   OH241974   2.543   5.050   7.852 -0.1834  0.1287 -0.0676
 6780TIP3    H141975   2.605   4.992   7.896 -0.7605 -0.7650 -0.3983
 6780TIP3    H241976   2.567   5.137   7.882  0.6785 -0.2792  0.4838
 6781TIP3   OH241977   3.066   6.828   6.844 -0.3928 -0.3296  0.3287
 6781TIP3    H141978   2.979   6.792   6.861  0.3527 -3.4780 -1.5467
 6781TIP3    H241979   3.118   6.802   6.920 -1.1480  2.2171  1.8142
 6782TIP3   OH241980   4.764   2.824   1.559 -0.5025  0.2327 -0.7702
 6782TIP3    H141981   4.701   2.803   1.490  0.0010 -0.9965 -0.8776
 6782TIP3    H241982   4.712   2.830   1.639 -0.8295 -0.2869 -0.9401
 6783TIP3   OH241983   0.429   3.687   6.550 -0.3868 -0.2192  0.2382
 6783TIP3    H141984   0.343   3.644   6.550 -0.9067  0.6613 -2.3303
 6783TIP3    H241985   0.444   3.710   6.459  1.3676  2.1171  1.0302
 6784TIP3   OH241986   2.270   6.861   6.838  0.0618 -0.3650  0.0042
 6784TIP3    H141987   2.317   6.936   6.803  0.4577  0.1247  1.5102
 6784TIP3    H241988   2.231   6.818   6.761  2.5519 -0.5247 -1.2580
 6785TIP3   OH241989   2.114   5.536   8.067 -0.6053 -0.0142  0.1765
 6785TIP3    H141990   2.034   5.491   8.093 -1.8274  1.9533 -0.0057
 6785TIP3    H241991   2.106   5.624   8.104  0.8169  0.6853 -1.0574
 6786TIP3   OH241992   0.404   6.951   7.225  0.1424 -0.0246 -0.3453
 6786TIP3    H141993   0.418   7.044   7.243  0.4583  0.2266 -1.7875
 6786TIP3    H241994   0.459   6.933   7.149  0.4821 -1.5229  0.2277
 6787TIP3   OH241995   3.466   1.574   1.024 -0.1045  0.0601  0.0677
 6787TIP3    H141996   3.407   1.602   1.094 -0.3538 -0.5356  0.1069
 6787TIP3    H241997   3.554   1.590   1.060 -0.2241 -0.5919  0.6828
 6788TIP3   OH241998   5.680   0.333   1.930  0.0377  0.2056  0.6235
 6788TIP3    H141999   5.697   0.325   2.024  2.5508  0.0293  0.2357
 6788TIP3    H242000   5.744   0.274   1.889  0.3768  1.7619 -1.2599
 6789TIP3   OH242001   6.880   1.434   7.679  0.3313 -0.2008  0.7733
 6789TIP3    H142002   6.901   1.509   7.623  0.9908 -0.6451  0.4153
 6789TIP3    H242003   6.905   1.462   7.767  3.6770 -1.1005  0.2409
 6790TIP3   OH242004   4.433   2.573   0.635  0.7731  0.1980 -0.0820
 6790TIP3    H142005   4.521   2.611   0.645  0.4989  0.5932  0.9188
 6790TIP3    H242006   4.376   2.633   0.683 -0.0043 -0.2270 -0.4738
 6791TIP3   OH242007   5.317   0.448   2.056 -0.5071 -0.0225  0.7381
 6791TIP3    H142008   5.289   0.531   2.094 -1.0663  0.6430 -1.0372
 6791TIP3    H242009   5.353   0.399   2.130  0.6900  2.1396  1.6821
 6792TIP3   OH242010   0.792   4.563   0.752 -0.5400 -0.0842 -0.3460
 6792TIP3    H142011   0.723   4.559   0.686 -0.3951 -0.0250 -0.5008
 6792TIP3    H242012   0.869   4.596   0.706 -0.1867 -0.8804 -0.3535
 6793TIP3   OH242013   3.565   6.908   0.666 -0.8641  0.8173  0.3313
 6793TIP3    H142014   3.577   6.818   0.639 -4.6806  0.3062 -0.2382
 6793TIP3    H242015   3.641   6.954   0.632  0.5294 -1.9184 -0.5217
 6794TIP3   OH242016   4.432   5.856   1.313 -0.3904  0.5050  0.3873
 6794TIP3    H142017   4.428   5.899   1.399 -0.2487 -0.3917  0.8554
 6794TIP3    H242018   4.525   5.854   1.291 -0.1815 -1.2279  1.2571
 6795TIP3   OH242019   4.573   3.351   0.872  0.4747 -0.2929 -0.0454
 6795TIP3    H142020   4.511   3.397   0.929  0.7213 -1.0968  0.9074
 6795TIP3    H242021   4.556   3.385   0.785 -0.9570 -0.1325  0.2786
 6796TIP3   OH242022   2.764   2.480   2.394  0.3906 -0.6639  0.1556
 6796TIP3    H142023   2.728   2.447   2.476 -1.0529  1.7138  0.5955
 6796TIP3    H242024   2.707   2.443   2.326  0.8671 -1.6954  0.2986
 6797TIP3   OH242025   3.016   4.771   7.384 -0.2280 -0.4391 -0.3088
 6797TIP3    H142026   2.970   4.834   7.439  0.0725 -0.0568 -0.4840
 6797TIP3    H242027   3.109   4.783   7.407 -0.1713 -0.8382 -0.3233
 6798TIP3   OH242028   1.037   6.949   7.416 -0.4062 -0.5679  0.2733
 6798TIP3    H142029   1.102   6.882   7.435 -0.2416 -0.1928  1.0873
 6798TIP3    H242030   1.078   7.005   7.350 -0.3483 -0.9751 -0.0353
 6799TIP3   OH242031   4.726   4.171   1.706  0.4171 -0.2253  0.5544
 6799TIP3    H142032   4.677   4.246   1.740  0.9161  0.8836 -1.0342
 6799TIP3    H242033   4.798   4.159   1.768 -0.3644 -0.1936  1.4870
 6800TIP3   OH242034   2.340   3.354   0.435  0.3409  0.6091  0.4637
 6800TIP3    H142035   2.262   3.366   0.489 -0.2110  0.8292 -0.3728
 6800TIP3    H242036   2.307   3.343   0.346  1.3068  1.5751 -0.0349
 6801TIP3   OH242037   6.134   0.998   1.436  0.4190 -0.5998 -0.4515
 6801TIP3    H142038   6.104   0.940   1.366  1.5388 -1.4634 -0.2500
 6801TIP3    H242039   6.057   1.011   1.491 -0.1219 -1.0293 -1.0936
 6802TIP3   OH242040   0.833   2.246   0.208  0.3737 -0.7920 -0.2008
 6802TIP3    H142041   0.871   2.211   0.288 -0.2120 -2.1160 -0.4801
 6802TIP3    H242042   0.897   2.310   0.177  1.3614 -1.4272  0.4661
 6803TIP3   OH242043   4.227   6.366   8.227 -0.3016 -0.1273 -0.2715
 6803TIP3    H142044   4.262   6.453   8.245 -0.6144  0.0111 -0.3279
 6803TIP3    H242045   4.251   6.314   8.303 -0.3731  0.0860 -0.1046
 6804TIP3   OH242046   3.834   5.604   1.994  0.0402  0.3212  0.1598
 6804TIP3    H142047   3.745   5.626   2.019 -0.2486 -0.3180 -0.2852
 6804TIP3    H242048   3.873   5.568   2.073 -0.1182  0.5243  0.3325
 6805TIP3   OH242049   6.762   4.360   6.015 -0.3919  0.3448  0.0198
 6805TIP3    H142050   6.735   4.394   5.930  0.5132  0.7388 -0.1186
 6805TIP3    H242051   6.682   4.358   6.067 -1.4734 -2.1422 -1.5577
 6806TIP3   OH242052   2.246   3.761   6.768  0.1900  0.4534 -0.1451
 6806TIP3    H142053   2.265   3.668   6.765  0.1270  0.4574 -1.2887
 6806TIP3    H242054   2.194   3.777   6.688 -0.3937  1.3318  0.3945
 6807TIP3   OH242055   2.101   0.729   0.281  0.0425 -0.3745  0.3849
 6807TIP3    H142056   2.130   0.685   0.361 -0.6635 -0.7136  0.4595
 6807TIP3    H242057   2.031   0.787   0.309  0.9279  0.7873  0.2776
 6808TIP3   OH242058   3.582   5.217   8.282  0.3737 -0.4207  0.1391
 6808TIP3    H142059   3.548   5.146   8.338  1.1231 -1.8060 -1.0846
 6808TIP3    H242060   3.528   5.213   8.204 -0.0343  0.8577  0.3466
 6809TIP3   OH242061   2.514   0.858   2.051 -0.2245 -0.2133  0.2890
 6809TIP3    H142062   2.475   0.893   2.131 -0.1023 -0.0285  0.2683
 6809TIP3    H242063   2.608   0.872   2.062 -0.0329 -1.7860  0.8924
 6810TIP3   OH242064   5.146   4.316   8.166  0.1397  0.2420 -0.4704
 6810TIP3    H142065   5.197   4.368   8.228  0.4036 -1.4329  0.7819
 6810TIP3    H242066   5.200   4.240   8.148 -0.7209 -0.1778 -1.3817
 6811TIP3   OH242067   6.952   1.967   6.938 -0.1994 -0.0678  0.1171
 6811TIP3    H142068   6.942   1.955   7.033  1.7073  1.1054  0.5129
 6811TIP3    H242069   6.981   1.882   6.906 -0.4488 -0.3573  0.6392
 6812TIP3   OH242070   2.156   2.052   2.173 -0.0743  0.1563  1.0607
 6812TIP3    H142071   2.141   1.960   2.195  0.8532  0.2381  2.1132
 6812TIP3    H242072   2.081   2.076   2.119 -0.1053 -1.3419  0.3841
 6813TIP3   OH242073   2.109   6.206   0.063  0.1152  0.0658 -0.4476
 6813TIP3    H142074   2.162   6.262   0.007 -0.7423 -0.1361 -1.5052
 6813TIP3    H242075   2.167   6.135   0.089  0.6100  0.3186 -0.8512
 6814TIP3   OH242076   3.099   3.840   2.055 -0.2767 -0.2990 -0.7554
 6814TIP3    H142077   3.024   3.825   2.113  0.1258  0.7677  0.0811
 6814TIP3    H242078   3.164   3.776   2.083 -0.4397 -0.4308 -0.6773
 6815TIP3   OH242079   5.264   6.555   2.162  0.5402  0.8775 -0.1760
 6815TIP3    H142080   5.338   6.608   2.131  2.6058 -1.8788 -0.4360
 6815TIP3    H242081   5.217   6.531   2.082  1.2053  0.1645 -0.3647
 6816TIP3   OH242082   3.734   1.553   0.269 -0.4154  0.5233  0.3889
 6816TIP3    H142083   3.685   1.506   0.337  2.2917 -1.5830  1.0749
 6816TIP3    H242084   3.676   1.551   0.192 -2.8100  1.3709  2.0527
 6817TIP3   OH242085   1.451   2.549   6.447 -0.5082  0.5161 -0.0478
 6817TIP3    H142086   1.394   2.490   6.495  1.8946 -1.1265  0.9542
 6817TIP3    H242087   1.391   2.610   6.403 -3.0347 -1.7259  0.0489
 6818TIP3   OH242088   3.168   3.939   8.224 -0.6264  0.3629  0.4919
 6818TIP3    H142089   3.192   3.994   8.149 -0.8661  0.0798  0.1990
 6818TIP3    H242090   3.246   3.888   8.243 -0.8057 -0.1529 -0.0969
 6819TIP3   OH242091   1.924   5.543   7.271 -0.4180  0.4659 -0.3518
 6819TIP3    H142092   1.995   5.607   7.273  0.8605 -0.8537  2.7152
 6819TIP3    H242093   1.845   5.593   7.289  0.5468  1.3117  1.9475
 6820TIP3   OH242094   4.245   0.287   8.429 -0.3531  0.3183  0.8793
 6820TIP3    H142095   4.240   0.193   8.444 -1.1786  0.2904  0.5100
 6820TIP3    H242096   4.285   0.323   8.508  2.6730 -0.6222 -0.1191
 6821TIP3   OH242097   3.079   6.303   6.929  0.0853 -0.3907  0.0157
 6821TIP3    H142098   3.117   6.319   6.843  0.8752  0.7886  0.5565
 6821TIP3    H242099   3.130   6.359   6.988 -1.7423  0.3324  0.9564
 6822TIP3   OH242100   1.624   4.418   8.068 -0.3550 -0.1618 -0.8116
 6822TIP3    H142101   1.704   4.373   8.039  0.5661  0.2120  1.0291
 6822TIP3    H242102   1.643   4.511   8.053 -0.4134 -0.0718 -0.3468
 6823TIP3   OH242103   1.257   6.374   6.248 -1.0504  0.0454  0.2601
 6823TIP3    H142104   1.223   6.323   6.321  1.3401 -0.3687  1.1807
 6823TIP3    H242105   1.209   6.457   6.253 -2.3078 -0.6851  1.0621
 6824TIP3   OH242106   2.408   5.636   8.242 -0.3505 -0.1029 -0.2030
 6824TIP3    H142107   2.474   5.700   8.217  0.3357 -1.4273 -2.0472
 6824TIP3    H242108   2.457   5.566   8.284 -0.4993 -1.1433 -1.6799
 6825TIP3   OH242109   5.817   2.354   2.869  0.1530 -0.4930  0.2361
 6825TIP3    H142110   5.743   2.374   2.812  0.8132  1.3904 -0.0528
 6825TIP3    H242111   5.806   2.262   2.892 -0.8335 -0.9721 -1.8894
 6826TIP3   OH242112   6.652   5.012   2.026  0.0238  0.1810 -0.4879
 6826TIP3    H142113   6.746   5.011   2.041  0.1324 -0.8958 -1.1077
 6826TIP3    H242114   6.642   5.043   1.936 -0.2055  0.1429 -0.4777
 6827TIP3   OH242115   5.424   6.209   8.224  0.1145 -0.5573  0.4831
 6827TIP3    H142116   5.433   6.256   8.306 -1.5299 -1.3032  1.1360
 6827TIP3    H242117   5.330   6.196   8.213  0.1992  0.3274 -2.0014
 6828TIP3   OH242118   6.977   0.133   0.986 -0.1819  0.1106  0.0060
 6828TIP3    H142119   7.030   0.212   0.983  0.9583 -0.6065  0.5181
 6828TIP3    H242120   6.960   0.120   1.079  0.4283 -0.7452  0.0066
 6829TIP3   OH242121   6.721   5.670   8.151 -0.5278  0.1639  0.3126
 6829TIP3    H142122   6.811   5.676   8.118 -0.3915 -1.2967  0.3455
 6829TIP3    H242123   6.678   5.749   8.118  0.6133  0.5966 -0.1923
 6830TIP3   OH242124   2.839   4.749   7.125  0.2285  0.2212  0.5354
 6830TIP3    H142125   2.774   4.684   7.152  0.4554  0.4315  1.6596
 6830TIP3    H242126   2.896   4.759   7.202  1.1653  0.5627 -0.1811
 6831TIP3   OH242127   2.499   1.081   6.805 -0.3088 -0.4781 -0.0386
 6831TIP3    H142128   2.418   1.037   6.778 -0.0647 -1.6886  1.0943
 6831TIP3    H242129   2.557   1.010   6.833  1.3503  0.3182 -1.2609
 6832TIP3   OH242130   4.406   4.305   7.103  0.1726  0.1763  0.3756
 6832TIP3    H142131   4.313   4.297   7.126  0.6239  1.5952  3.0609
 6832TIP3    H242132   4.447   4.225   7.136  0.2867  0.7196  1.5899
 6833TIP3   OH242133   1.713   6.354   0.306  0.3444 -0.4039  0.7377
 6833TIP3    H142134   1.632   6.384   0.265  1.2522 -0.1359 -0.9672
 6833TIP3    H242135   1.691   6.342   0.399 -1.4082  0.4694  0.4684
 6834TIP3   OH242136   5.717   1.477   0.621  0.3382  0.1524  0.0008
 6834TIP3    H142137   5.737   1.423   0.698  0.4948 -1.2444 -0.9769
 6834TIP3    H242138   5.800   1.521   0.601  0.9430 -1.2427 -0.6891
 6835TIP3   OH242139   3.936   1.001   1.572  0.0405 -0.7530  0.2665
 6835TIP3    H142140   3.881   0.941   1.522 -0.1352 -0.5847  0.2561
 6835TIP3    H242141   4.023   0.992   1.533 -0.4406  0.6552 -1.2583
 6836TIP3   OH242142   2.510   1.256   2.034 -0.4288 -0.3343 -0.4902
 6836TIP3    H142143   2.433   1.256   2.090  1.3368 -0.4921  2.1178
 6836TIP3    H242144   2.482   1.212   1.954 -3.6916  1.9221 -0.7321
 6837TIP3   OH242145   6.658   0.564   1.996 -0.1819  0.0634  0.4643
 6837TIP3    H142146   6.716   0.497   2.033 -0.6317 -1.0036 -0.6685
 6837TIP3    H242147   6.602   0.590   2.070  0.8925  0.2076  1.2560
 6838TIP3   OH242148   5.869   5.078   0.754  0.5823 -1.1591 -0.3416
 6838TIP3    H142149   5.913   4.995   0.733 -0.1846 -1.3422 -1.3410
 6838TIP3    H242150   5.818   5.098   0.675 -0.0396 -0.2578  0.2704
 6839TIP3   OH242151   5.305   3.765   8.221 -0.2762 -0.3173 -0.0339
 6839TIP3    H142152   5.247   3.840   8.231 -0.0029 -0.1292  0.1648
 6839TIP3    H242153   5.384   3.801   8.181 -0.5772 -0.7023 -1.0294
 6840TIP3   OH242154   1.487   6.370   0.115 -0.1105  0.1131  0.6488
 6840TIP3    H142155   1.511   6.461   0.101 -0.9159  0.4306  1.3111
 6840TIP3    H242156   1.426   6.349   0.044  0.2793  0.0030  0.3421
 6841TIP3   OH242157   6.235   6.148   7.877  0.2631  0.0722 -0.2765
 6841TIP3    H142158   6.259   6.213   7.811  1.8971 -0.9108 -0.6798
 6841TIP3    H242159   6.171   6.092   7.833  1.0844 -0.3698 -0.9247
 6842TIP3   OH242160   0.223   2.714   0.755  0.3123 -0.2680 -0.8900
 6842TIP3    H142161   0.296   2.770   0.781 -1.4588  0.4543  3.3524
 6842TIP3    H242162   0.238   2.631   0.801 -0.4941 -0.9045 -1.7226
 6843TIP3   OH242163   1.806   3.369   6.269  0.0646  0.1325  0.5080
 6843TIP3    H142164   1.765   3.414   6.195  1.4496  1.4769  0.5194
 6843TIP3    H242165   1.737   3.312   6.303 -1.8067  2.2508  0.5173
 6844TIP3   OH242166   1.696   1.775   8.167 -0.0472  0.3764 -0.1111
 6844TIP3    H142167   1.687   1.703   8.105  1.6486 -0.1002  0.1560
 6844TIP3    H242168   1.728   1.848   8.114  1.0524  0.0717  0.1022
 6845TIP3   OH242169   1.923   4.016   1.372 -0.0779  0.2150 -0.2806
 6845TIP3    H142170   1.985   4.005   1.444  1.5156  1.9759 -1.2932
 6845TIP3    H242171   1.908   3.927   1.339 -2.1396 -0.9049  3.1251
 6846TIP3   OH242172   3.513   4.102   1.414  0.0743 -1.0927  0.4580
 6846TIP3    H142173   3.442   4.102   1.350  0.4407 -1.4588  0.0454
 6846TIP3    H242174   3.514   4.190   1.450 -0.0668 -0.8531 -0.1238
 6847TIP3   OH242175   0.349   2.183   7.647 -0.5153  0.6661  0.4197
 6847TIP3    H142176   0.265   2.163   7.687 -0.8802  1.6429  0.1784
 6847TIP3    H242177   0.361   2.115   7.581 -0.8265  0.1760  0.8629
 6848TIP3   OH242178   1.226   0.390   0.943 -0.7673  0.2975  0.5447
 6848TIP3    H142179   1.225   0.295   0.927 -1.0742  0.1421  1.4763
 6848TIP3    H242180   1.190   0.401   1.031 -0.8314  1.2926  0.4088
 6849TIP3   OH242181   5.988   6.692   1.065  0.1679  0.0821  0.0590
 6849TIP3    H142182   6.006   6.702   1.158  1.0807 -0.3974 -0.0554
 6849TIP3    H242183   5.927   6.618   1.061 -0.9603  0.9686  0.3615
 6850TIP3   OH242184   6.733   5.492   7.876 -0.2290  0.3103  0.5789
 6850TIP3    H142185   6.776   5.416   7.838 -1.4797  0.3422 -1.0002
 6850TIP3    H242186   6.804   5.554   7.894  0.4469  0.2381 -1.6052
 6851TIP3   OH242187   6.176   3.655   7.797 -0.0957  0.3002  0.1518
 6851TIP3    H142188   6.256   3.608   7.823 -0.2722  0.6343  1.3530
 6851TIP3    H242189   6.109   3.587   7.794  0.6473 -0.4989 -3.3764
 6852TIP3   OH242190   3.792   2.241   0.104 -0.3598  0.4560 -0.2103
 6852TIP3    H142191   3.845   2.162   0.120  0.2589  0.1627 -3.2333
 6852TIP3    H242192   3.834   2.309   0.157  0.2789 -0.7619  0.9243
 6853TIP3   OH242193   0.355   2.000   1.943 -0.2408 -0.5556  0.1696
 6853TIP3    H142194   0.273   1.998   1.893  0.1872 -0.6478 -0.5491
 6853TIP3    H242195   0.330   2.033   2.029 -1.2069 -1.5646  0.2960
 6854TIP3   OH242196   3.474   6.409   7.628 -0.3973  0.1823 -0.1193
 6854TIP3    H142197   3.430   6.455   7.699 -0.1513 -0.9733  0.8230
 6854TIP3    H242198   3.537   6.472   7.594 -0.8783  0.9268  0.3527
 6855TIP3   OH242199   5.927   3.080   7.088  0.3943 -0.3601 -0.2355
 6855TIP3    H142200   6.002   3.089   7.031  0.9737 -2.8861  0.0061
 6855TIP3    H242201   5.939   2.995   7.130 -1.4001  0.2077  1.5890
 6856TIP3   OH242202   0.809   4.682   0.382  0.6407  0.3221 -0.3324
 6856TIP3    H142203   0.875   4.617   0.404  1.4316  1.2678  0.1735
 6856TIP3    H242204   0.858   4.759   0.355 -0.2644  0.8353 -0.5767
 6857TIP3   OH242205   1.383   2.565   0.989 -0.0545  0.3994  0.3067
 6857TIP3    H142206   1.399   2.600   1.077  2.0710  0.3668 -0.0260
 6857TIP3    H242207   1.429   2.481   0.988  1.1039  1.0146 -1.2443
 6858TIP3   OH242208   5.109   1.924   2.025  0.3348 -0.4552  0.2064
 6858TIP3    H142209   5.122   1.835   2.058  0.2371 -0.6612 -0.2941
 6858TIP3    H242210   5.197   1.955   2.002  0.6433  0.3290  2.1983
 6859TIP3   OH242211   4.135   6.915   7.700  0.1322 -0.6218 -0.3311
 6859TIP3    H142212   4.203   6.874   7.648  1.6610 -0.4908  1.4627
 6859TIP3    H242213   4.103   6.987   7.646  0.2766 -1.6536 -1.8378
 6860TIP3   OH242214   2.038   6.952   7.771 -0.0234 -0.0461  0.0192
 6860TIP3    H142215   2.097   7.009   7.821 -0.6872 -0.5888  1.4331
 6860TIP3    H242216   2.093   6.918   7.700  0.5439  1.8619 -0.5080
 6861TIP3   OH242217   1.714   0.495   1.146 -0.1944  0.5325 -0.0423
 6861TIP3    H142218   1.621   0.515   1.140 -0.6072 -1.0228  0.6783
 6861TIP3    H242219   1.739   0.522   1.234 -0.6166 -1.4441  0.7199
 6862TIP3   OH242220   6.694   1.328   8.031 -0.1104 -1.1285  0.1737
 6862TIP3    H142221   6.660   1.406   7.987  0.2524 -0.9135  0.2614
 6862TIP3    H242222   6.648   1.255   7.991 -2.3520 -0.7228  1.8231
 6863TIP3   OH242223   2.290   6.298   8.332  0.0701  0.3100 -0.6611
 6863TIP3    H142224   2.304   6.250   8.251  1.0388 -0.8516  0.1675
 6863TIP3    H242225   2.378   6.316   8.365 -0.2962  1.6784 -0.3644
 6864TIP3   OH242226   2.672   5.053   1.112 -0.1506 -0.0052  0.2622
 6864TIP3    H142227   2.602   5.018   1.057  0.4391 -0.9355  0.0815
 6864TIP3    H242228   2.703   5.131   1.065 -1.5465  0.8700  0.7221
 6865TIP3   OH242229   1.513   1.922   8.320  0.5537  0.2872 -0.4174
 6865TIP3    H142230   1.567   1.881   8.252  0.6935 -1.1458  0.5174
 6865TIP3    H242231   1.465   1.849   8.359 -0.3477  1.2431  0.2883
 6866TIP3   OH242232   2.244   5.723   7.858 -0.5083 -0.5636  0.2089
 6866TIP3    H142233   2.196   5.644   7.837 -2.0798 -0.2265  2.1720
 6866TIP3    H242234   2.207   5.752   7.942  0.0373  2.2044 -0.3959
 6867TIP3   OH242235   0.541   0.184   0.031 -0.6437  0.2964  0.0055
 6867TIP3    H142236   0.636   0.182   0.014 -0.9784 -2.0586 -2.0357
 6867TIP3    H242237   0.507   0.248  -0.032 -0.5514  0.2365 -0.1062
 6868TIP3   OH242238   0.935   3.631   8.081 -0.0927  0.6511 -0.0635
 6868TIP3    H142239   1.015   3.656   8.128  0.7517 -1.3833 -0.2949
 6868TIP3    H242240   0.965   3.569   8.014 -2.1105 -2.4165  1.6264
 6869TIP3   OH242241   5.336   1.227   0.591 -0.1183 -0.1548  0.1655
 6869TIP3    H142242   5.290   1.303   0.626 -0.5119  0.2899 -1.2439
 6869TIP3    H242243   5.387   1.261   0.517  2.3710 -0.6820  1.5420
 6870TIP3   OH242244   1.404   3.068   0.062 -0.4840 -0.2086  0.0026
 6870TIP3    H142245   1.372   3.134  -0.001  1.7669  0.3970 -0.5967
 6870TIP3    H242246   1.417   2.989   0.010  0.2983 -0.0389 -0.0700
 6871TIP3   OH242247   4.961   2.925   7.443  0.5110 -0.7971  0.1145
 6871TIP3    H142248   4.903   2.860   7.404  0.1177 -0.5102  0.2191
 6871TIP3    H242249   5.007   2.964   7.369 -0.6566  0.1576 -0.1334
 6872TIP3   OH242250   3.864   0.938   8.402 -0.5125 -0.5775  0.4943
 6872TIP3    H142251   3.901   0.923   8.489  1.0868 -2.2844 -0.4202
 6872TIP3    H242252   3.797   0.871   8.393  0.3565 -1.3757 -0.1369
 6873TIP3   OH242253   3.432   6.788   2.303 -0.2248 -0.0112 -0.5221
 6873TIP3    H142254   3.427   6.814   2.211  0.4128  1.9655 -0.0483
 6873TIP3    H242255   3.377   6.851   2.350  1.3593  0.5404  0.7017
 6874TIP3   OH242256   2.659   5.314   7.783  0.1263 -0.6386  0.4454
 6874TIP3    H142257   2.715   5.376   7.830 -1.3158  2.0708 -1.1783
 6874TIP3    H242258   2.578   5.361   7.768 -0.9469 -2.8277 -1.2201
 6875TIP3   OH242259   2.791   5.435   0.001  0.3633  0.2620  0.2345
 6875TIP3    H142260   2.761   5.349  -0.028 -1.2466  0.5613  0.9459
 6875TIP3    H242261   2.827   5.420   0.088  1.7763  0.0229 -0.3556
 6876TIP3   OH242262   4.890   1.596   7.463  0.0258  0.3380 -0.3698
 6876TIP3    H142263   4.876   1.541   7.385  0.0801  0.2897 -0.3459
 6876TIP3    H242264   4.806   1.595   7.508  0.6568 -1.7140  0.9000
 6877TIP3   OH242265   2.954   2.301   1.268  0.3174  0.0406  0.6133
 6877TIP3    H142266   2.937   2.390   1.238 -1.2021 -0.1548  0.8412
 6877TIP3    H242267   2.956   2.307   1.363 -0.1716 -0.2189  0.6462
 6878TIP3   OH242268   0.316   6.099   6.975 -0.7043  0.4111 -0.0509
 6878TIP3    H142269   0.328   6.076   6.883  1.5016 -0.4197  0.3823
 6878TIP3    H242270   0.366   6.180   6.986 -0.4691  0.1906  0.5466
 6879TIP3   OH242271   4.827   4.868   1.922  0.2325  0.0192  0.3518
 6879TIP3    H142272   4.881   4.938   1.957 -3.0444  2.4667  1.0084
 6879TIP3    H242273   4.846   4.867   1.828  1.7728  0.3662  0.6415
 6880TIP3   OH242274   6.675   2.527   0.869  0.2542 -0.3842 -0.1127
 6880TIP3    H142275   6.692   2.575   0.950  0.1443 -2.7092  1.3794
 6880TIP3    H242276   6.762   2.504   0.836  0.2974  0.5114 -0.6371
 6881TIP3   OH242277   4.668   2.198   0.171  0.4816  0.5279 -0.0840
 6881TIP3    H142278   4.676   2.217   0.265 -1.4920  1.0312  0.0108
 6881TIP3    H242279   4.727   2.260   0.129  1.6787  0.0539  0.8109
 6882TIP3   OH242280   6.553   6.952   7.859 -0.4918 -0.0324 -0.8173
 6882TIP3    H142281   6.513   6.914   7.937 -1.1338  0.4320 -0.9218
 6882TIP3    H242282   6.647   6.931   7.869 -0.9063 -2.5376 -1.3690
 6883TIP3   OH242283   5.900   4.795   0.189 -0.0957 -0.1742 -0.1321
 6883TIP3    H142284   5.983   4.842   0.196 -0.1157 -0.2545  0.6915
 6883TIP3    H242285   5.833   4.864   0.182 -0.0091 -0.1065 -0.3098
 6884TIP3   OH242286   3.939   5.850   1.926 -0.7126 -0.3172 -0.1255
 6884TIP3    H142287   3.852   5.890   1.922 -0.9894 -0.6290  1.8978
 6884TIP3    H242288   3.926   5.767   1.972  0.8850  0.4130  1.7607
 6885TIP3   OH242289   4.894   3.575   1.574  0.0415 -0.3137 -0.3738
 6885TIP3    H142290   4.855   3.642   1.519 -2.9646 -1.3095  0.3372
 6885TIP3    H242291   4.890   3.495   1.521  0.8424 -0.5020 -0.1584
 6886TIP3   OH242292   2.819   4.519   7.870 -1.2420  0.2519  0.5418
 6886TIP3    H142293   2.828   4.455   7.941  0.7276  0.1020  0.2126
 6886TIP3    H242294   2.909   4.537   7.843 -1.8976  1.2476 -1.0878
 6887TIP3   OH242295   3.396   1.764   7.089 -0.1803  0.1490  0.2441
 6887TIP3    H142296   3.405   1.778   7.183  0.1652  0.4673  0.1643
 6887TIP3    H242297   3.302   1.771   7.073 -0.4198 -1.3817  0.7985
 6888TIP3   OH242298   3.212   4.793   1.022 -0.7836 -0.6157 -0.3027
 6888TIP3    H142299   3.277   4.812   1.090 -0.5530  0.1565 -0.7336
 6888TIP3    H242300   3.215   4.698   1.012 -0.8275 -0.7429  0.7751
 6889TIP3   OH242301   4.287   4.602   7.848 -0.1501  0.0397 -0.1845
 6889TIP3    H142302   4.372   4.584   7.810 -0.5043 -3.0825  0.2877
 6889TIP3    H242303   4.230   4.618   7.773  0.1984 -1.1372 -0.7230
 6890TIP3   OH242304   2.825   1.787   1.272 -0.2442  0.7516  0.0065
 6890TIP3    H142305   2.850   1.818   1.359  0.6126  0.0234  0.0350
 6890TIP3    H242306   2.867   1.849   1.212 -0.7019  1.1599  0.1047
 6891TIP3   OH242307   6.241   3.719   1.489  0.0879  0.5223  0.0596
 6891TIP3    H142308   6.230   3.630   1.524 -0.3422  0.4554 -0.2477
 6891TIP3    H242309   6.329   3.745   1.518  0.6631 -0.4243 -0.7854
 6892TIP3   OH242310   6.595   2.746   1.389 -0.0585 -0.3229 -0.1772
 6892TIP3    H142311   6.612   2.745   1.483  1.3284  0.7582 -0.3971
 6892TIP3    H242312   6.626   2.831   1.359  1.2389 -1.3299 -1.9017
 6893TIP3   OH242313   3.884   4.225   0.254 -0.1822 -0.2059 -0.6267
 6893TIP3    H142314   3.969   4.184   0.270  0.1459  0.8738  0.5250
 6893TIP3    H242315   3.830   4.154   0.219  1.5360 -0.5911 -2.6998
 6894TIP3   OH242316   4.704   4.159   7.562 -0.4125 -0.3547  0.8976
 6894TIP3    H142317   4.741   4.072   7.575  0.1681 -0.2100  0.2784
 6894TIP3    H242318   4.627   4.145   7.507  1.4800 -0.1878 -1.9725
 6895TIP3   OH242319   6.473   6.533   6.737  0.1902 -0.5355 -0.1231
 6895TIP3    H142320   6.421   6.478   6.679  0.5875  0.2673 -1.2681
 6895TIP3    H242321   6.563   6.511   6.716  0.3722  1.0413 -1.1204
 6896TIP3   OH242322   3.870   0.967   8.139 -0.3858  0.5057 -0.2551
 6896TIP3    H142323   3.906   0.935   8.222 -0.3857 -0.8743 -0.7689
 6896TIP3    H242324   3.776   0.974   8.155 -0.2648  1.3176  0.1843
 6897TIP3   OH242325   0.237   2.817   1.615 -0.6724 -0.1877  0.4498
 6897TIP3    H142326   0.245   2.895   1.670 -0.4960 -0.1504  0.3731
 6897TIP3    H242327   0.276   2.843   1.531 -1.1538 -0.1670  0.2271
 6898TIP3   OH242328   1.235   4.772   0.636  0.1693  0.5155  0.4228
 6898TIP3    H142329   1.290   4.786   0.713  0.6035 -0.7721  0.3701
 6898TIP3    H242330   1.158   4.828   0.651  0.6782  0.9981  1.3304
 6899TIP3   OH242331   1.417   1.695   8.407  0.1762 -0.1618 -0.1820
 6899TIP3    H142332   1.450   1.652   8.328 -0.0812  0.5009 -0.6588
 6899TIP3    H242333   1.353   1.633   8.443  1.0564 -0.9270  0.0945
 6900TIP3   OH242334   4.515   2.574   1.960 -0.2490 -0.0616 -0.6023
 6900TIP3    H142335   4.521   2.482   1.935 -1.4359 -0.2120 -0.3592
 6900TIP3    H242336   4.569   2.620   1.894 -0.4922 -0.8103 -1.3431
 6901TIP3   OH242337   6.172   4.914   0.169 -0.3890  0.5464  0.0044
 6901TIP3    H142338   6.238   4.867   0.219  0.1112  1.5815  0.3456
 6901TIP3    H242339   6.186   4.886   0.078  1.0189  1.2980 -0.0308
 6902TIP3   OH242340   6.857   6.128   1.333  0.7520  0.4339 -0.3987
 6902TIP3    H142341   6.891   6.218   1.342  0.7758  0.4001 -0.1530
 6902TIP3    H242342   6.762   6.138   1.327  0.4473  0.2918  2.6649
 6903TIP3   OH242343   0.834   2.957   7.018  0.3500 -0.3588  0.3207
 6903TIP3    H142344   0.827   3.039   7.066  1.7908 -0.1434  0.1963
 6903TIP3    H242345   0.781   2.971   6.939  0.0060  0.1779  0.6414
 6904TIP3   OH242346   6.726   4.613   6.665 -0.5128  0.0771  0.6002
 6904TIP3    H142347   6.802   4.653   6.622 -0.5752 -1.0061 -0.5667
 6904TIP3    H242348   6.739   4.519   6.655 -1.0933 -0.1853  2.0430
 6905TIP3   OH242349   4.291   3.180   8.118 -0.0341  0.5268  0.0295
 6905TIP3    H142350   4.212   3.129   8.134  0.5807 -0.7836 -0.8787
 6905TIP3    H242351   4.309   3.168   8.025  2.0114 -0.3982  0.4861
 6906TIP3   OH242352   2.692   0.365   7.325 -0.5364  0.3503  0.4332
 6906TIP3    H142353   2.725   0.376   7.414 -2.0489  2.4496  0.8069
 6906TIP3    H242354   2.628   0.294   7.331  0.8443 -0.9196  0.5525
 6907TIP3   OH242355   1.056   5.939   7.708 -0.1603  0.7708  0.5604
 6907TIP3    H142356   0.978   5.987   7.680 -0.0433  0.9626  0.5599
 6907TIP3    H242357   1.107   5.928   7.628 -0.5789 -0.0960  0.3999
 6908TIP3   OH242358   5.935   4.699   1.375 -0.0995 -0.8164  0.0872
 6908TIP3    H142359   5.865   4.689   1.310  2.3909  0.5730 -3.0453
 6908TIP3    H242360   5.982   4.616   1.373  1.0735 -0.1521 -1.3609
 6909TIP3   OH242361   0.778   4.563   1.008  0.1243  0.4150 -0.0725
 6909TIP3    H142362   0.771   4.564   0.913  0.2939 -2.5979 -0.2393
 6909TIP3    H242363   0.871   4.581   1.026  0.6234 -1.2435 -0.7117
 6910TIP3   OH242364   5.178   2.809   7.144  0.6246  0.0195 -0.3948
 6910TIP3    H142365   5.149   2.731   7.191 -0.2601  0.9696  0.7207
 6910TIP3    H242366   5.214   2.776   7.062  0.5205 -1.5696  0.1601
 6911TIP3   OH242367   0.605   1.656   8.202  1.2513  0.4023  0.2317
 6911TIP3    H142368   0.689   1.653   8.157  2.0026  1.0765  1.5152
 6911TIP3    H242369   0.620   1.714   8.277 -0.0338 -0.3463  1.1202
 6912TIP3   OH242370   0.671   4.481   7.906  0.5758 -0.5000 -0.1162
 6912TIP3    H142371   0.687   4.517   7.993  0.9208 -0.0127 -0.3733
 6912TIP3    H242372   0.746   4.423   7.891  0.3421 -0.8427  0.0487
 6913TIP3   OH242373   5.994   0.392   0.023 -0.2996 -0.0888 -0.0109
 6913TIP3    H142374   6.056   0.361   0.090  0.4426 -0.3212 -0.7779
 6913TIP3    H242375   5.910   0.395   0.067  0.2433  0.1382  1.0386
 6914TIP3   OH242376   4.980   1.732   1.556 -0.0666 -0.1453 -0.1595
 6914TIP3    H142377   4.910   1.671   1.577  0.5509 -1.1918 -1.0412
 6914TIP3    H242378   4.997   1.778   1.638 -1.1160 -0.5561  0.3069
 6915TIP3   OH242379   0.146   1.308   1.219  0.2164  0.0817  1.2083
 6915TIP3    H142380   0.222   1.356   1.252 -0.8135  2.3321  0.5160
 6915TIP3    H242381   0.169   1.216   1.230  4.0055  0.5443 -1.0253
 6916TIP3   OH242382   4.233   6.505   1.231 -0.6859  0.2603  0.7058
 6916TIP3    H142383   4.320   6.543   1.236 -0.9136  0.9413 -0.2135
 6916TIP3    H242384   4.236   6.430   1.290  1.0757 -0.8020 -0.6125
 6917TIP3   OH242385   0.595   1.086   6.524 -0.2073 -0.2047  0.0764
 6917TIP3    H142386   0.501   1.103   6.523 -0.2337  0.7714  3.8342
 6917TIP3    H242387   0.602   0.993   6.543 -0.4818  0.0350  1.4244
 6918TIP3   OH242388   3.495   5.392   6.502 -0.1044 -0.4951  0.5987
 6918TIP3    H142389   3.413   5.407   6.549 -0.2768  0.4987  0.0219
 6918TIP3    H242390   3.477   5.320   6.442 -1.3383  1.2530 -1.2544
 6919TIP3   OH242391   1.562   5.024   8.384 -0.2040 -0.2992  0.1642
 6919TIP3    H142392   1.495   4.976   8.336 -0.9222 -0.3365  1.1614
 6919TIP3    H242393   1.513   5.082   8.443  0.6480  0.6971 -0.0790
 6920TIP3   OH242394   6.271   0.153   7.323 -0.7064  0.7928  0.7137
 6920TIP3    H142395   6.338   0.087   7.303 -2.1613 -0.6737  0.4225
 6920TIP3    H242396   6.266   0.207   7.244  0.0715  0.8628  0.7112
 6921TIP3   OH242397   6.410   1.461   2.017 -0.0185  0.3078  0.4567
 6921TIP3    H142398   6.490   1.427   1.978 -1.1672 -2.4570  0.3420
 6921TIP3    H242399   6.356   1.487   1.942 -0.3683 -0.5818  0.3947
 6922TIP3   OH242400   1.075   4.315   0.839 -0.3524 -0.2295  0.5725
 6922TIP3    H142401   1.168   4.301   0.819 -0.0027  1.7266  0.6302
 6922TIP3    H242402   1.058   4.257   0.913  1.0199 -0.0916  1.0281
 6923TIP3   OH242403   2.425   4.670   7.215 -0.2580 -0.4374  0.4210
 6923TIP3    H142404   2.442   4.746   7.270  0.3860 -0.0403 -0.3042
 6923TIP3    H242405   2.383   4.706   7.137  0.7404 -0.7027 -0.2631
 6924TIP3   OH242406   2.908   1.755   6.807  0.1935 -0.8034 -0.4101
 6924TIP3    H142407   3.000   1.758   6.781 -0.1558 -1.4446 -1.7754
 6924TIP3    H242408   2.862   1.806   6.740 -0.7098 -2.3765 -1.0316
 6925TIP3   OH242409   4.668   0.842   8.027 -0.4725  0.1390 -0.2986
 6925TIP3    H142410   4.650   0.889   7.945 -0.2296  0.3965 -0.2087
 6925TIP3    H242411   4.707   0.760   7.999 -0.5564  0.1486 -0.4483
 6926TIP3   OH242412   5.756   3.396   0.454  0.5666  0.3967  0.4851
 6926TIP3    H142413   5.676   3.350   0.429 -1.0684  2.9408  0.8038
 6926TIP3    H242414   5.815   3.382   0.380 -1.2979  1.0275 -1.2005
 6927TIP3   OH242415   4.544   6.464   0.214  0.1302 -0.3825 -0.7819
 6927TIP3    H142416   4.567   6.430   0.301  1.3332 -1.3860 -1.4491
 6927TIP3    H242417   4.454   6.495   0.223 -0.1405 -1.4463  0.5612
 6928TIP3   OH242418   6.968   0.196   1.679 -0.1019  0.8537  0.2422
 6928TIP3    H142419   7.042   0.136   1.666 -0.6804 -0.0648  1.0510
 6928TIP3    H242420   6.896   0.157   1.628 -0.7196  0.3791  1.4404
 6929TIP3   OH242421   3.840   3.229   6.865  0.1803 -0.0112  0.4562
 6929TIP3    H142422   3.920   3.204   6.911  0.2241 -1.5051 -0.3617
 6929TIP3    H242423   3.860   3.215   6.773 -0.9563 -0.1888  0.2255
 6930TIP3   OH242424   1.127   3.805   1.433 -0.3140  0.5125  0.6302
 6930TIP3    H142425   1.044   3.852   1.421 -1.1930 -0.5769  2.1022
 6930TIP3    H242426   1.179   3.864   1.488 -1.1995  0.0483  2.0146
 6931TIP3   OH242427   4.902   4.280   1.058 -0.1115  0.5520 -0.8381
 6931TIP3    H142428   4.864   4.209   1.109  1.9229 -0.1617 -0.1823
 6931TIP3    H242429   4.873   4.360   1.102  2.3947 -0.0251  2.2745
 6932TIP3   OH242430   4.442   6.116   1.956 -0.6970  0.2556  0.1182
 6932TIP3    H142431   4.475   6.028   1.971  0.1565  0.3394 -1.1273
 6932TIP3    H242432   4.364   6.122   2.012  0.1659 -0.6915  1.4739
 6933TIP3   OH242433   2.106   6.874   8.080  0.0249  0.2464 -0.1732
 6933TIP3    H142434   2.025   6.905   8.121  0.4411 -1.9711  2.6007
 6933TIP3    H242435   2.139   6.950   8.032 -3.3618  1.4054 -0.9860
 6934TIP3   OH242436   1.112   4.911   6.343  0.2223 -0.6323 -0.6898
 6934TIP3    H142437   1.019   4.937   6.346  0.2004 -0.7795 -0.1323
 6934TIP3    H242438   1.116   4.830   6.393  0.7550 -0.3339 -0.2412
 6935TIP3   OH242439   5.844   1.872   2.717  0.1016  0.2795 -0.8384
 6935TIP3    H142440   5.890   1.890   2.635  1.3352 -1.5316 -0.5902
 6935TIP3    H242441   5.841   1.777   2.723 -1.3108  0.3613  0.5113
 6936TIP3   OH242442   4.715   2.856   7.675 -0.2493 -0.1344 -0.0259
 6936TIP3    H142443   4.655   2.795   7.631 -0.3035 -1.1091  1.3294
 6936TIP3    H242444   4.709   2.937   7.623  0.1810 -1.3921 -2.1602
 6937TIP3   OH242445   1.440   6.645   0.498 -0.0500  0.1738  0.7974
 6937TIP3    H142446   1.457   6.563   0.546 -0.7773  0.6553  1.9119
 6937TIP3    H242447   1.504   6.706   0.532  1.4308 -0.2691 -1.0451
 6938TIP3   OH242448   0.196   3.806   7.220 -0.6397 -0.6058 -0.1737
 6938TIP3    H142449   0.102   3.790   7.229 -1.0092 -0.9591 -3.2731
 6938TIP3    H242450   0.236   3.720   7.227 -0.6926 -0.6088  0.0681
 6939TIP3   OH242451   0.320   4.858   7.481  0.0780 -0.0299  0.2739
 6939TIP3    H142452   0.338   4.826   7.393 -2.8065 -3.0632  0.6115
 6939TIP3    H242453   0.304   4.951   7.470  0.7425 -0.1344 -2.2050
 6940TIP3   OH242454   1.512   0.244   6.508 -0.6210 -0.1372 -0.1242
 6940TIP3    H142455   1.544   0.154   6.518 -1.2898 -0.1719  2.5436
 6940TIP3    H242456   1.429   0.245   6.556  0.8348  2.5798  2.6983
 6941TIP3   OH242457   2.803   4.836   0.958 -0.4445 -0.4338  0.2557
 6941TIP3    H142458   2.849   4.752   0.962 -2.4727 -1.6303  0.4227
 6941TIP3    H242459   2.870   4.902   0.974  0.7025 -2.2017  3.9463
 6942TIP3   OH242460   1.496   3.712   1.520  0.1816  0.3736 -0.1885
 6942TIP3    H142461   1.442   3.671   1.587  0.6350  0.7529  0.4214
 6942TIP3    H242462   1.501   3.647   1.449  1.0207 -0.7001  0.8175
 6943TIP3   OH242463   4.825   5.654   1.100  0.3979  0.2723 -0.2139
 6943TIP3    H142464   4.825   5.585   1.167  1.1546 -0.4700 -0.9565
 6943TIP3    H242465   4.912   5.650   1.061 -0.3496 -0.0066 -1.9387
 6944TIP3   OH242466   0.721   6.947   6.627  0.5992 -0.5339  0.1724
 6944TIP3    H142467   0.792   6.966   6.565  0.3832 -0.8875 -0.1882
 6944TIP3    H242468   0.737   6.857   6.655 -0.2629 -0.9644 -0.6689
 6945TIP3   OH242469   1.105   3.541   6.565 -0.2914 -0.0819 -0.2516
 6945TIP3    H142470   1.095   3.450   6.593 -0.2806  0.2756  1.0098
 6945TIP3    H242471   1.023   3.584   6.592  0.5170  0.7057  1.0448
 6946TIP3   OH242472   2.426   6.102   1.959  0.0624  0.0638 -0.3132
 6946TIP3    H142473   2.371   6.038   2.004 -0.0025 -0.0571 -0.5611
 6946TIP3    H242474   2.498   6.120   2.020  0.6937 -1.0946 -0.6864
 6947TIP3   OH242475   2.184   0.461   6.180  0.2744 -0.2045  0.1473
 6947TIP3    H142476   2.122   0.461   6.253 -0.4606 -0.6166 -0.4719
 6947TIP3    H242477   2.131   0.441   6.103  1.2164 -0.8730 -0.3479
 6948TIP3   OH242478   3.229   0.093   2.150  0.0565  0.4000  0.1089
 6948TIP3    H142479   3.298   0.071   2.213  0.9512  0.3102 -0.8685
 6948TIP3    H242480   3.184   0.011   2.135  0.5327  0.1820 -0.1655
 6949TIP3   OH242481   0.562   3.602   2.333 -0.6720  0.2782  0.8524
 6949TIP3    H142482   0.597   3.519   2.367 -1.5823 -1.0983 -1.3641
 6949TIP3    H242483   0.470   3.582   2.312 -0.9309  1.8834  0.3469
 6950TIP3   OH242484   0.970   2.087   7.251 -0.1510 -0.3014 -0.4934
 6950TIP3    H142485   0.976   2.179   7.278 -0.1367 -0.5498  0.3764
 6950TIP3    H242486   1.012   2.085   7.165  3.0080 -0.0691  0.8798
 6951TIP3   OH242487   1.508   0.834   8.141  0.0379  0.4659 -0.2459
 6951TIP3    H142488   1.539   0.793   8.222 -0.9279 -0.6568 -0.4212
 6951TIP3    H242489   1.513   0.764   8.076  0.0355  1.1351 -0.9674
 6952TIP3   OH242490   3.728   3.217   0.577  0.0775 -0.3290 -0.6382
 6952TIP3    H142491   3.641   3.204   0.541  0.0924  3.2730 -2.3203
 6952TIP3    H242492   3.764   3.292   0.530  2.0015  1.7935  3.6000
 6953TIP3   OH242493   2.079   2.940   1.596 -0.2129 -0.4543 -0.1217
 6953TIP3    H142494   2.039   2.948   1.683  1.2447  1.2907  0.4689
 6953TIP3    H242495   2.056   3.022   1.552  0.8032 -0.4144 -0.5928
 6954TIP3   OH242496   5.699   1.286   2.043 -0.0296 -0.6754  0.1020
 6954TIP3    H142497   5.692   1.208   1.989  2.1250 -1.9663  1.5445
 6954TIP3    H242498   5.780   1.275   2.092  1.3499  3.2837 -0.8939
 6955TIP3   OH242499   5.095   2.106   1.562 -0.0033  0.0949 -0.2440
 6955TIP3    H142500   5.164   2.067   1.616 -0.6255  0.0049  0.5032
 6955TIP3    H242501   5.039   2.151   1.625 -1.3081 -0.8473 -0.7070
 6956TIP3   OH242502   2.225   4.826   1.837  0.4090 -0.8546  0.5587
 6956TIP3    H142503   2.179   4.905   1.866  1.9611  0.2012  0.2581
 6956TIP3    H242504   2.198   4.814   1.746  0.0184 -0.7823  0.6644
 6957TIP3   OH242505   6.105   4.804   1.634  0.3221  0.0364  0.3179
 6957TIP3    H142506   6.110   4.862   1.558  1.3275  0.4373  0.6654
 6957TIP3    H242507   6.161   4.730   1.611 -0.2530 -0.3768  0.2331
 6958TIP3   OH242508   5.054   5.243   1.726 -0.1914 -0.8069 -0.2358
 6958TIP3    H142509   5.139   5.217   1.691  0.8661 -1.0888  2.3064
 6958TIP3    H242510   4.991   5.213   1.661  1.6476 -0.0202 -2.5010
 6959TIP3   OH242511   3.191   0.509   0.013  0.3049 -0.1380  0.4523
 6959TIP3    H142512   3.237   0.467  -0.059 -0.5886  0.3955 -0.4459
 6959TIP3    H242513   3.182   0.601  -0.013 -1.5376 -0.2845  0.4379
 6960TIP3   OH242514   4.443   6.933   8.152 -0.2091 -0.0591 -0.0656
 6960TIP3    H142515   4.467   6.849   8.112  0.2831  0.2584 -0.4484
 6960TIP3    H242516   4.363   6.959   8.106 -1.5201 -1.2743  1.4329
 6961TIP3   OH242517   3.785   6.882   7.487  0.4390 -0.6393 -0.4501
 6961TIP3    H142518   3.730   6.804   7.483 -0.3467 -0.0424 -1.8142
 6961TIP3    H242519   3.837   6.870   7.566 -0.0280 -2.2985 -0.3557
 6962TIP3   OH242520   6.629   0.537   0.809  0.2531  0.1787  0.3291
 6962TIP3    H142521   6.707   0.538   0.865  0.2938 -1.6231  0.3694
 6962TIP3    H242522   6.620   0.627   0.778  2.3471  0.4383  0.3368
 6963TIP3   OH242523   0.805   2.557   0.682 -0.1400  0.2249  0.1134
 6963TIP3    H142524   0.799   2.471   0.724 -1.0083  0.1185 -0.2183
 6963TIP3    H242525   0.762   2.546   0.598 -1.1210  1.2337  0.4674
 6964TIP3   OH242526   0.329   5.855   7.571  0.2190 -0.2111 -0.4306
 6964TIP3    H142527   0.418   5.832   7.542  0.5387  0.7320 -0.2311
 6964TIP3    H242528   0.302   5.781   7.625  0.3849 -1.0914 -1.4996
 6965TIP3   OH242529   5.258   4.402   7.021  0.3921  0.0777 -0.3035
 6965TIP3    H142530   5.284   4.449   7.101 -0.0611  1.8287 -1.1396
 6965TIP3    H242531   5.171   4.369   7.040  0.7346 -0.4906  0.3185
 6966TIP3   OH242532   2.790   3.130   6.089 -0.1231  0.2008  0.1000
 6966TIP3    H142533   2.802   3.072   6.165  0.9352 -1.2046 -1.0869
 6966TIP3    H242534   2.868   3.116   6.035 -1.5619 -0.0501 -2.0363
 6967TIP3   OH242535   3.812   2.351   0.710  0.2032 -0.7385  0.1599
 6967TIP3    H142536   3.767   2.270   0.687 -1.3276 -0.9264  3.2332
 6967TIP3    H242537   3.894   2.323   0.751  0.7855 -0.6045 -0.8895
 6968TIP3   OH242538   0.428   3.912   2.275  0.5783 -0.0859  0.2142
 6968TIP3    H142539   0.358   3.848   2.273  1.1942 -0.7597 -0.9735
 6968TIP3    H242540   0.413   3.967   2.198  1.9861 -0.9811 -0.7550
 6969TIP3   OH242541   4.606   4.915   7.169 -0.1745  0.5864  0.5320
 6969TIP3    H142542   4.666   4.880   7.235  0.2270 -1.3731 -0.7553
 6969TIP3    H242543   4.521   4.918   7.212  0.6334  2.6231  2.1403
 6970TIP3   OH242544   5.192   5.250   7.956  0.7684  0.2363 -0.3530
 6970TIP3    H142545   5.170   5.157   7.946 -0.5499  0.6695 -2.1904
 6970TIP3    H242546   5.128   5.283   8.019  0.6436  0.0822 -0.3974
 6971TIP3   OH242547   4.807   0.759   0.841  0.3055  0.7365 -0.1859
 6971TIP3    H142548   4.759   0.834   0.806 -0.5534  0.3495  0.1385
 6971TIP3    H242549   4.899   0.780   0.826  0.0029  0.6509 -2.5342
 6972TIP3   OH242550   2.604   1.240   7.652  0.0061  0.3521 -0.1008
 6972TIP3    H142551   2.615   1.238   7.557 -0.8272  0.1792 -0.2027
 6972TIP3    H242552   2.550   1.318   7.668 -1.2342 -0.5179  0.0634
 6973TIP3   OH242553   4.133   1.734   5.965  0.1963  0.1299  0.3320
 6973TIP3    H142554   4.052   1.769   6.003  0.0265 -0.7347  0.7837
 6973TIP3    H242555   4.194   1.731   6.039 -0.4206 -2.4684  0.8204
 6974TIP3   OH242556   2.508   6.661   8.401 -0.6000  0.3991 -0.2573
 6974TIP3    H142557   2.514   6.708   8.318  1.1534  0.3058 -0.2204
 6974TIP3    H242558   2.535   6.724   8.467 -0.7019  0.0849  0.0911
 6975TIP3   OH242559   0.136   4.944   1.546 -0.6005  0.7709  0.1399
 6975TIP3    H142560   0.185   4.865   1.525  0.7436  1.6677 -0.2644
 6975TIP3    H242561   0.046   4.915   1.558 -0.2352 -0.7198 -0.5792
 6976TIP3   OH242562   5.784   5.464   0.553 -1.1420 -0.4015  0.0498
 6976TIP3    H142563   5.756   5.478   0.462 -0.8325  1.5053  0.2071
 6976TIP3    H242564   5.840   5.387   0.549 -0.2386  0.2875 -1.5962
 6977TIP3   OH242565   2.722   5.967   7.994 -0.1440  0.5016 -0.0829
 6977TIP3    H142566   2.680   6.051   8.011 -1.2911  0.2480 -1.4980
 6977TIP3    H242567   2.747   5.971   7.901  2.1128  0.2378  0.4433
 6978TIP3   OH242568   2.130   4.610   7.699  0.3202 -0.3635  0.2712
 6978TIP3    H142569   2.209   4.622   7.648 -0.1713  0.3899 -0.3407
 6978TIP3    H242570   2.068   4.674   7.663 -0.0373  0.2139  1.7947
 6979TIP3   OH242571   2.655   5.825   6.983 -0.3650  0.7832 -0.8292
 6979TIP3    H142572   2.579   5.771   7.007 -0.5167  1.0028 -0.8175
 6979TIP3    H242573   2.650   5.832   6.888  0.6130 -0.6523 -1.0272
 6980TIP3   OH242574   3.771   6.400   1.823 -0.5138 -0.5670  0.1488
 6980TIP3    H142575   3.681   6.368   1.817 -0.5512 -0.5012  0.3262
 6980TIP3    H242576   3.763   6.495   1.820 -0.4715 -0.5534  0.3850
 6981TIP3   OH242577   3.222   2.752   0.873  0.3238 -0.3451  0.1034
 6981TIP3    H142578   3.301   2.776   0.825 -0.4582  1.0164 -0.5624
 6981TIP3    H242579   3.155   2.814   0.843 -0.3805  0.1740  2.4871
 6982TIP3   OH242580   4.624   6.404   1.620 -0.0261 -0.9191  0.5166
 6982TIP3    H142581   4.575   6.472   1.667  0.6189 -0.3810  0.4167
 6982TIP3    H242582   4.635   6.334   1.685  0.4431 -0.3811  1.0222
 6983TIP3   OH242583   6.181   6.568   8.441  0.2052  0.1362 -0.1661
 6983TIP3    H142584   6.232   6.635   8.487  0.0860  0.2145 -0.1465
 6983TIP3    H242585   6.091   6.581   8.472 -0.0456  0.8235 -1.1406
 6984TIP3   OH242586   6.312   6.456   7.459 -0.3959 -0.5657 -0.3580
 6984TIP3    H142587   6.379   6.482   7.523 -0.2704  0.4262 -0.8695
 6984TIP3    H242588   6.355   6.467   7.374 -0.9319 -0.7602 -0.6584
 6985TIP3   OH242589   1.472   0.665   0.386  0.7674 -0.3526 -0.3844
 6985TIP3    H142590   1.396   0.670   0.329  0.3522 -2.2947 -0.0881
 6985TIP3    H242591   1.438   0.633   0.470  1.7273  0.0139  0.1701
 6986TIP3   OH242592   3.985   0.738   8.044  0.0867 -0.4582  0.6697
 6986TIP3    H142593   3.967   0.828   8.073 -0.7539 -0.4027  0.0041
 6986TIP3    H242594   4.047   0.748   7.972 -0.3072 -0.3743  0.3364
 6987TIP3   OH242595   6.726   0.341   0.650  0.5368  0.5032 -0.3428
 6987TIP3    H142596   6.675   0.405   0.699 -0.6604 -0.3153 -0.4455
 6987TIP3    H242597   6.774   0.392   0.586 -0.9232  1.2766 -0.8747
 6988TIP3   OH242598   6.413   1.816   6.734  0.4990 -0.6683  0.5855
 6988TIP3    H142599   6.438   1.889   6.676  0.0618  1.2381  2.6717
 6988TIP3    H242600   6.331   1.784   6.697  0.0279  0.7481  0.3296
 6989TIP3   OH242601   0.392   5.070   6.687  0.0857 -1.1455  0.3463
 6989TIP3    H142602   0.355   5.095   6.602 -0.2238  0.5037  0.9432
 6989TIP3    H242603   0.335   4.998   6.717 -2.2464  0.7722  0.8617
 6990TIP3   OH242604   5.495   3.579   1.212 -0.1372 -0.5066 -0.4942
 6990TIP3    H142605   5.499   3.530   1.294 -1.5538  3.2821  2.1353
 6990TIP3    H242606   5.402   3.599   1.201  0.3467  1.5515 -1.3532
 6991TIP3   OH242607   2.674   0.607   7.771  0.6382  0.2288  0.4430
 6991TIP3    H142608   2.586   0.590   7.803  0.4938 -0.7822 -0.4143
 6991TIP3    H242609   2.661   0.632   7.679  1.1370  1.6365  0.7401
 6992TIP3   OH242610   4.422   1.420   2.677  0.5183  0.4198  0.2884
 6992TIP3    H142611   4.356   1.479   2.713 -0.3037  0.6085 -1.4389
 6992TIP3    H242612   4.384   1.333   2.687  0.8557  0.3481  1.0123
 6993TIP3   OH242613   1.105   0.671   8.327  0.4585 -0.0635 -0.4191
 6993TIP3    H142614   1.070   0.703   8.243 -0.1627 -0.6671 -0.4000
 6993TIP3    H242615   1.027   0.664   8.383  0.8068 -0.1404  0.0533
 6994TIP3   OH242616   5.102   4.905   2.355 -0.0632  0.0471 -0.5967
 6994TIP3    H142617   5.088   4.829   2.411  1.0316  0.2414 -0.0378
 6994TIP3    H242618   5.025   4.959   2.368 -0.4953 -0.6016 -0.4083
 6995TIP3   OH242619   3.264   3.086   0.863  0.0576  0.0296  0.3620
 6995TIP3    H142620   3.295   3.162   0.913 -0.1281  1.2654 -1.3204
 6995TIP3    H242621   3.332   3.071   0.797 -0.7646 -0.1004 -0.4783
 6996TIP3   OH242622   3.776   1.855   7.917 -0.5609  0.2334 -0.5783
 6996TIP3    H142623   3.726   1.837   7.837 -1.7046  4.2151 -0.9550
 6996TIP3    H242624   3.858   1.895   7.886  1.3596 -2.7059  0.2132
 6997TIP3   OH242625   6.882   0.012   0.199  0.0738  0.4078 -0.1595
 6997TIP3    H142626   6.936  -0.062   0.227 -1.0322 -1.0895 -1.7426
 6997TIP3    H242627   6.844   0.046   0.280 -1.5610 -2.5788  0.4902
 6998TIP3   OH242628   0.281   2.653   7.961 -0.2830  0.2098 -0.0994
 6998TIP3    H142629   0.315   2.666   8.050 -2.4474  3.0607  0.4579
 6998TIP3    H242630   0.208   2.592   7.972  0.1022 -0.2629 -0.1217
 6999TIP3   OH242631   4.796   3.296   1.481  0.5993  0.1849  0.8831
 6999TIP3    H142632   4.737   3.318   1.553 -1.9768 -0.5910 -0.8928
 6999TIP3    H242633   4.821   3.205   1.497 -1.7997 -0.7710 -0.2620
 7000TIP3   OH242634   4.551   3.020   1.969  0.1845 -0.0243  0.3008
 7000TIP3    H142635   4.632   3.060   2.001  0.8278 -1.2185  0.1994
 7000TIP3    H242636   4.533   2.949   2.031  1.5941 -2.5668 -1.9970
 7001TIP3   OH242637   2.528   5.526   6.690  0.1830 -0.6183  0.4944
 7001TIP3    H142638   2.516   5.445   6.641  1.8304  0.7532 -2.4947
 7001TIP3    H242639   2.620   5.526   6.715  0.1782  0.2374  0.5602
 7002TIP3   OH242640   2.409   2.727   6.714  0.1277  0.7681 -0.2584
 7002TIP3    H142641   2.414   2.792   6.644 -0.2971  1.0494 -0.0296
 7002TIP3    H242642   2.433   2.644   6.672 -2.4626  0.4718 -1.3443
 7003TIP3   OH242643   0.954   5.429   0.475  0.1170  0.1721  0.1491
 7003TIP3    H142644   0.988   5.395   0.392 -0.1989  0.4979 -0.1160
 7003TIP3    H242645   0.891   5.363   0.504  0.7700 -0.3034  0.5078
 7004TIP3   OH242646   5.168   2.728   0.769  0.8182 -0.2494  0.0811
 7004TIP3    H142647   5.160   2.740   0.674  2.3092  2.7810  0.2160
 7004TIP3    H242648   5.261   2.713   0.784  0.8777  0.9207  1.1316
 7005TIP3   OH242649   3.630   5.398   0.940  0.3957  0.0269 -0.1599
 7005TIP3    H142650   3.574   5.471   0.917  1.0337  0.7260  0.4455
 7005TIP3    H242651   3.715   5.438   0.960  0.4506 -0.7403  1.2645
 7006TIP3   OH242652   4.436   1.118   7.553 -0.2043 -0.4488 -0.1853
 7006TIP3    H142653   4.469   1.028   7.557  1.4282  0.1452  0.0530
 7006TIP3    H242654   4.383   1.127   7.632 -0.0944 -1.0856 -0.0266
 7007TIP3   OH242655   6.390   5.378   7.385 -0.0144 -0.5627 -0.8353
 7007TIP3    H142656   6.478   5.350   7.363  0.8175 -0.4171  1.9512
 7007TIP3    H242657   6.372   5.337   7.469 -1.0355  2.4871  0.5804
 7008TIP3   OH242658   0.232   5.747   2.117 -0.2641  0.1066  0.6991
 7008TIP3    H142659   0.322   5.781   2.119  0.7476 -1.9583 -2.2473
 7008TIP3    H242660   0.189   5.797   2.048 -0.8399 -0.1495  0.8657
 7009TIP3   OH242661   6.581   3.679   7.874  0.4623  0.4524  0.0697
 7009TIP3    H142662   6.587   3.589   7.906  1.1197  0.1671 -0.7964
 7009TIP3    H242663   6.536   3.672   7.790  1.4629  0.7726 -0.5205
 7010TIP3   OH242664   0.288   1.589   8.362 -0.0437 -0.3914 -0.2913
 7010TIP3    H142665   0.194   1.573   8.372 -0.2055  0.9274  0.4762
 7010TIP3    H242666   0.325   1.571   8.448  0.3962 -0.8157 -0.5670
 7011TIP3   OH242667   2.296   5.332   8.037 -0.4809  0.2938 -0.0820
 7011TIP3    H142668   2.232   5.404   8.038 -0.2794  0.4697  0.2026
 7011TIP3    H242669   2.265   5.273   7.968 -0.8165  0.5015 -0.1088
 7012TIP3   OH242670   0.811   6.599   0.477  0.1301  0.2586 -0.1598
 7012TIP3    H142671   0.769   6.514   0.489  0.8431 -0.1110 -0.2638
 7012TIP3    H242672   0.882   6.600   0.541 -1.6313  1.9705  1.9741
 7013TIP3   OH242673   1.901   0.333   7.610  0.3957 -0.5500  0.4547
 7013TIP3    H142674   1.954   0.279   7.551  0.4295 -0.6465  0.5734
 7013TIP3    H242675   1.817   0.287   7.616 -0.5866  0.8165 -1.6310
 7014TIP3   OH242676   4.530   1.604   6.900 -0.2961  0.7797  0.4564
 7014TIP3    H142677   4.494   1.637   6.818  0.9244  0.8064 -0.0921
 7014TIP3    H242678   4.511   1.510   6.899  2.4782  0.1316 -1.4315
 7015TIP3   OH242679   3.135   2.303   1.511 -0.8900  0.4516 -0.1462
 7015TIP3    H142680   3.210   2.300   1.571 -0.9743  2.5928  0.1519
 7015TIP3    H242681   3.162   2.365   1.443 -1.5399 -0.4869 -1.2905
 7016TIP3   OH242682   6.351   0.731   6.875 -0.8963  0.3510  0.2721
 7016TIP3    H142683   6.424   0.668   6.875 -2.1291 -1.1604 -0.8016
 7016TIP3    H242684   6.384   0.805   6.926  0.4133 -1.3917  2.1331
 7017TIP3   OH242685   0.796   5.352   1.662  0.2054  0.1627  0.5391
 7017TIP3    H142686   0.809   5.446   1.675  1.9424  0.0255  0.0824
 7017TIP3    H242687   0.873   5.312   1.701 -0.2345 -1.0422  0.2021
 7018TIP3   OH242688   4.779   1.240   1.382  0.3101 -0.3595  0.1402
 7018TIP3    H142689   4.729   1.258   1.462  0.0448 -2.7612  0.5805
 7018TIP3    H242690   4.870   1.256   1.407  0.2252 -1.0397  0.9312
 7019TIP3   OH242691   1.184   0.472   0.620 -0.0366 -0.2172  0.1041
 7019TIP3    H142692   1.131   0.520   0.556 -0.1162  0.0369  0.3559
 7019TIP3    H242693   1.127   0.401   0.648  0.0396 -0.3961 -0.1870
 7020TIP3   OH242694   3.651   4.344   1.465 -0.3084  0.4115 -0.3110
 7020TIP3    H142695   3.713   4.297   1.521  0.2184  1.8331  0.3444
 7020TIP3    H242696   3.693   4.429   1.449 -2.1557  1.4941  0.2940
 7021TIP3   OH242697   1.223   0.175   0.047 -0.1784 -0.9831 -0.3680
 7021TIP3    H142698   1.287   0.105   0.034 -1.1314 -1.6380 -1.8139
 7021TIP3    H242699   1.152   0.133   0.095 -0.6628 -0.9556 -1.0601
 7022TIP3   OH242700   0.129   2.797   7.786  0.5744  0.6690  0.3197
 7022TIP3    H142701   0.163   2.731   7.846  1.7296  2.6203  1.9091
 7022TIP3    H242702   0.161   2.770   7.700  1.6424 -0.4168  1.0283
 7023TIP3   OH242703   0.633   2.095   1.943  0.3900  0.1011 -0.6227
 7023TIP3    H142704   0.539   2.090   1.925  0.3288  0.4339 -0.3959
 7023TIP3    H242705   0.645   2.038   2.020  0.1730  1.0027  0.1011
 7024TIP3   OH242706   0.837   2.026   6.868  0.5372  0.4590  0.1596
 7024TIP3    H142707   0.905   2.025   6.801  2.5992  0.6330  2.0944
 7024TIP3    H242708   0.808   2.117   6.872 -0.4130  0.2457 -1.1826
 7025TIP3   OH242709   1.742   2.532   7.254 -0.1104 -0.0028  0.6698
 7025TIP3    H142710   1.757   2.616   7.212  3.1014 -0.1533  1.2659
 7025TIP3    H242711   1.825   2.484   7.243 -0.5810 -1.6750  3.4418
 7026TIP3   OH242712   5.663   5.345   7.053  0.0932 -0.2756 -0.3570
 7026TIP3    H142713   5.748   5.359   7.096 -0.9661  1.5404  1.3108
 7026TIP3    H242714   5.652   5.423   6.999 -0.8041 -0.1731 -0.0315
 7027TIP3   OH242715   3.618   2.834   1.013 -0.5215 -0.2283  0.1545
 7027TIP3    H142716   3.550   2.838   0.946 -0.4770  0.5182  0.1407
 7027TIP3    H242717   3.695   2.803   0.966 -0.1883  1.3719 -0.4170
 7028TIP3   OH242718   5.854   2.070   1.971  0.2453  0.4216 -0.5914
 7028TIP3    H142719   5.811   1.984   1.965  2.2404 -0.6246 -0.8569
 7028TIP3    H242720   5.826   2.116   1.892 -2.1335  0.6963  0.3390
 7029TIP3   OH242721   4.038   2.582   1.669 -0.0860  0.0346 -0.0648
 7029TIP3    H142722   4.108   2.569   1.733 -0.5229 -0.0799  0.3982
 7029TIP3    H242723   4.036   2.500   1.620  3.4607  1.6927 -3.5358
 7030TIP3   OH242724   4.723   2.701   0.520 -0.5454  0.1446  0.2135
 7030TIP3    H142725   4.756   2.628   0.467  0.7677  0.5563  0.4252
 7030TIP3    H242726   4.703   2.770   0.457 -2.2005 -0.5147 -0.0297
 7031TIP3   OH242727   0.176   0.180   1.349 -0.0777  0.0316 -0.2063
 7031TIP3    H142728   0.168   0.173   1.444  2.6478  0.2125  0.1429
 7031TIP3    H242729   0.210   0.269   1.335 -0.4103 -0.0068 -1.3514
 7032TIP3   OH242730   3.612   3.486   7.512  0.5224  0.6018 -0.5944
 7032TIP3    H142731   3.556   3.489   7.589  1.9119 -2.3799  0.7000
 7032TIP3    H242732   3.553   3.457   7.442 -0.3227  1.3314 -0.2188
 7033TIP3   OH242733   3.805   6.062   6.457 -0.1379  0.0700 -0.1248
 7033TIP3    H142734   3.891   6.075   6.418  0.0663  0.2887  0.4001
 7033TIP3    H242735   3.757   6.143   6.437  0.3018  0.6111  0.9475
 7034TIP3   OH242736   1.406   4.954   0.776  0.2563  0.3511 -0.0369
 7034TIP3    H142737   1.426   4.932   0.685  0.5544  0.5578 -0.0234
 7034TIP3    H242738   1.433   5.045   0.785 -1.9324  1.0952 -0.3845
 7035TIP3   OH242739   2.225   4.337   0.851  0.5354  0.3766 -0.4243
 7035TIP3    H142740   2.173   4.271   0.805 -1.5123  2.1046 -0.7070
 7035TIP3    H242741   2.271   4.383   0.781  0.3257  0.6034 -0.4119
 7036TIP3   OH242742   3.318   6.132   7.085 -0.1149  0.0576 -0.5643
 7036TIP3    H142743   3.253   6.160   7.149  0.1637  1.2126 -0.7647
 7036TIP3    H242744   3.401   6.164   7.119  0.1656 -0.1981 -1.0015
 7037TIP3   OH242745   1.949   1.750   1.406  0.2034  0.5533  0.1708
 7037TIP3    H142746   1.919   1.725   1.318  1.0879  0.0282  0.0103
 7037TIP3    H242747   1.870   1.744   1.460  0.3575 -3.2114  0.2663
 7038TIP3   OH242748   0.703   1.637   0.437 -0.6010 -0.5010  0.4097
 7038TIP3    H142749   0.681   1.569   0.501 -0.3114 -0.4657  0.5480
 7038TIP3    H242750   0.758   1.593   0.373 -1.9362 -0.8635 -0.5375
 7039TIP3   OH242751   4.523   5.456   8.220 -0.5618  0.0690  0.3316
 7039TIP3    H142752   4.510   5.466   8.126 -1.4917 -1.2539  0.3021
 7039TIP3    H242753   4.487   5.537   8.258  0.6292  1.0097 -0.4844
 7040TIP3   OH242754   5.906   0.821   2.187  0.5183 -0.5571  0.1218
 7040TIP3    H142755   5.880   0.775   2.107 -2.3084  0.0876  0.5316
 7040TIP3    H242756   5.913   0.752   2.253  1.1753 -0.9135 -0.3189
 7041TIP3   OH242757   1.431   5.285   2.610  0.9869  0.2816  0.6966
 7041TIP3    H142758   1.441   5.290   2.515 -1.4669 -1.4013  0.2394
 7041TIP3    H242759   1.419   5.375   2.638  0.6750  0.7203 -0.7595
 7042TIP3   OH242760   1.763   6.837   0.786  0.1000 -0.0814  0.2910
 7042TIP3    H142761   1.792   6.895   0.716  1.1146  0.8504  1.4308
 7042TIP3    H242762   1.755   6.751   0.745 -0.9174  0.7428 -1.3130
 7043TIP3   OH242763   2.728   3.486   1.425 -0.2547 -0.2297 -0.0029
 7043TIP3    H142764   2.775   3.546   1.368  0.9149 -1.1264 -0.0237
 7043TIP3    H242765   2.752   3.513   1.514 -0.1950 -0.3125  0.0056
 7044TIP3   OH242766   1.858   6.802   0.148 -0.0181  0.2188  0.4041
 7044TIP3    H142767   1.905   6.880   0.179  0.6356  0.3208 -0.7940
 7044TIP3    H242768   1.880   6.796   0.055 -1.2125 -0.5855  0.1488
 7045TIP3   OH242769   0.171   1.591   1.585  0.2252  0.3597 -0.1488
 7045TIP3    H142770   0.133   1.505   1.604  0.4994 -0.0290 -1.2729
 7045TIP3    H242771   0.196   1.587   1.493 -2.6334  2.7183 -1.1887
 7046TIP3   OH242772   2.849   0.561   1.887 -0.0805  0.1343 -0.2291
 7046TIP3    H142773   2.904   0.560   1.965 -0.3605 -1.8559  0.0099
 7046TIP3    H242774   2.828   0.653   1.873 -1.1491  0.4675  2.8524
 7047TIP3   OH242775   3.650   0.895   1.755  0.7142 -0.0834  0.0673
 7047TIP3    H142776   3.627   0.963   1.691  3.2447  2.3962  1.5612
 7047TIP3    H242777   3.601   0.918   1.833  3.0646  1.4041  1.2243
 7048TIP3   OH242778   6.536   1.091   8.198 -0.5888  0.2520  0.0064
 7048TIP3    H142779   6.590   1.032   8.251  0.5877  1.0809 -0.2097
 7048TIP3    H242780   6.550   1.062   8.108 -1.1489 -0.0235  0.0033
 7049TIP3   OH242781   3.768   0.135   1.729  0.4643  0.3193 -0.2064
 7049TIP3    H142782   3.695   0.193   1.706 -1.6293 -2.1983 -0.4771
 7049TIP3    H242783   3.828   0.141   1.655 -0.8816  0.3900 -1.3435
 7050TIP3   OH242784   6.463   3.873   6.875 -0.4484  0.3650  0.1107
 7050TIP3    H142785   6.414   3.831   6.804 -1.0105  0.7387  0.2737
 7050TIP3    H242786   6.397   3.920   6.925 -0.1110 -0.1996  1.1020
 7051TIP3   OH242787   3.710   5.641   7.194 -0.0929  0.0078  0.4242
 7051TIP3    H142788   3.615   5.645   7.208 -0.3863 -0.0060 -1.3316
 7051TIP3    H242789   3.720   5.583   7.118  1.3546 -0.2915  0.8223
 7052TIP3   OH242790   1.820   4.928   2.064 -0.1112  0.0390 -0.0009
 7052TIP3    H142791   1.890   4.992   2.076 -1.3625  1.6779 -1.1466
 7052TIP3    H242792   1.863   4.854   2.021  0.5106  2.0444 -3.1127
 7053TIP3   OH242793   6.815   3.689   1.727  0.0470 -0.8824 -0.1122
 7053TIP3    H142794   6.801   3.729   1.812  1.5313 -2.0059  0.7054
 7053TIP3    H242795   6.883   3.742   1.685 -0.2761 -0.6686 -0.3744
 7054TIP3   OH242796   1.710   0.143   0.234 -0.3691  0.0170  0.1391
 7054TIP3    H142797   1.684   0.164   0.324  0.1552 -0.2901  0.3669
 7054TIP3    H242798   1.633   0.100   0.196 -0.4534 -0.2083  0.5634
 7055TIP3   OH242799   3.538   4.648   1.467 -0.4625  0.4964  0.6245
 7055TIP3    H142800   3.622   4.603   1.461 -1.2490 -0.8326 -1.4216
 7055TIP3    H242801   3.560   4.736   1.499  1.9191  0.7030 -1.3142
 7056TIP3   OH242802   1.885   6.685   6.173 -0.0543 -0.5857 -0.1713
 7056TIP3    H142803   1.954   6.629   6.210  0.8477  0.9451  0.5664
 7056TIP3    H242804   1.826   6.624   6.128  2.5172 -1.8570 -2.0740
 7057TIP3   OH242805   3.871   0.573   8.352  0.6014  0.2137 -0.1291
 7057TIP3    H142806   3.938   0.640   8.348 -1.5742  2.5168 -0.8022
 7057TIP3    H242807   3.795   0.617   8.391 -0.6261 -2.1636  0.3794
 7058TIP3   OH242808   0.589   5.311   0.343  0.3244  0.4405  0.1165
 7058TIP3    H142809   0.526   5.264   0.289  0.9523 -0.4254  0.1054
 7058TIP3    H242810   0.541   5.386   0.377 -0.4342  0.3123 -0.6396
 7059TIP3   OH242811   2.889   1.059   8.091 -0.4979  0.2076  0.7900
 7059TIP3    H142812   2.847   1.078   8.007 -0.7830  1.4386  1.1878
 7059TIP3    H242813   2.915   1.145   8.125 -0.0877 -0.3010  1.8144
 7060TIP3   OH242814   6.490   6.216   6.839  0.0676  0.0588  0.3325
 7060TIP3    H142815   6.429   6.146   6.815 -0.6397  0.0779  1.9569
 7060TIP3    H242816   6.445   6.264   6.909  2.3300 -0.5562  2.3410
 7061TIP3   OH242817   6.693   2.980   1.298  0.5559  0.2902  0.4838
 7061TIP3    H142818   6.620   3.016   1.248  0.9840 -0.3582 -0.6455
 7061TIP3    H242819   6.757   3.051   1.301  1.0878 -0.0896 -1.0858
 7062TIP3   OH242820   5.459   4.549   1.401  0.6536  0.2969  0.6751
 7062TIP3    H142821   5.506   4.552   1.317 -0.4799  3.1238 -0.0056
 7062TIP3    H242822   5.478   4.463   1.437  2.4030 -0.4555 -1.7927
 7063TIP3   OH242823   0.464   5.984   8.340  0.4980 -0.1996  0.2466
 7063TIP3    H142824   0.552   5.947   8.329 -0.2445 -1.5279 -1.5558
 7063TIP3    H242825   0.431   5.996   8.251 -1.1071  0.4031  0.8858
 7064TIP3   OH242826   5.989   3.447   7.612  0.5500  0.0641 -0.1367
 7064TIP3    H142827   5.978   3.385   7.539  2.1322 -1.3826  0.7910
 7064TIP3    H242828   6.013   3.392   7.686 -1.3236  1.4682  1.6242
 7065TIP3   OH242829   4.649   1.484   0.726 -0.6086  0.6162 -0.5444
 7065TIP3    H142830   4.604   1.525   0.652 -0.3926  1.0548 -0.4417
 7065TIP3    H242831   4.742   1.488   0.702 -0.4472  1.6387  0.1555
 7066TIP3   OH242832   3.696   4.283   2.393  0.6259  0.5131  0.2068
 7066TIP3    H142833   3.614   4.240   2.372  0.2769  0.8480  0.8637
 7066TIP3    H242834   3.680   4.328   2.476  1.1138  1.5170 -0.2165
 7067TIP3   OH242835   2.461   4.228   1.024  0.2254  0.3638 -0.3775
 7067TIP3    H142836   2.420   4.249   0.941 -0.3425  0.5316 -0.0544
 7067TIP3    H242837   2.550   4.200   1.000 -0.2927 -0.6841 -1.1330
 7068TIP3   OH242838   6.018   5.548   2.021  0.4433 -0.0007  0.3551
 7068TIP3    H142839   5.923   5.557   2.010  0.6470  0.1724 -1.7790
 7068TIP3    H242840   6.046   5.631   2.059 -0.1363  0.3648  0.0024
 7069TIP3   OH242841   5.090   5.218   8.273 -0.2786  0.0317 -0.1887
 7069TIP3    H142842   5.031   5.254   8.207  0.6510 -0.7606 -1.5035
 7069TIP3    H242843   5.109   5.292   8.331 -0.8163  0.8525 -1.0241
 7070TIP3   OH242844   0.750   0.249   0.769 -0.5187 -0.1264 -0.1425
 7070TIP3    H142845   0.726   0.158   0.790 -0.5340 -0.1573 -0.2913
 7070TIP3    H242846   0.670   0.288   0.735 -1.1651  0.6233  2.0594
 7071TIP3   OH242847   0.373   4.065   8.235 -0.2738 -0.1192 -0.1296
 7071TIP3    H142848   0.315   4.097   8.166 -1.9032 -1.6424  0.4739
 7071TIP3    H242849   0.441   4.017   8.189 -0.6286 -0.0496 -0.7381
 7072TIP3   OH242850   5.209   6.213   7.354  0.2109  0.1377 -0.7261
 7072TIP3    H142851   5.221   6.132   7.304  0.9403  0.2955 -0.8224
 7072TIP3    H242852   5.284   6.267   7.330 -0.9126  1.3477 -1.5980
 7073TIP3   OH242853   4.881   6.274   0.521 -0.0564  0.1929 -0.0283
 7073TIP3    H142854   4.807   6.225   0.558 -0.2032  1.1355  0.9571
 7073TIP3    H242855   4.906   6.336   0.589  1.9479 -0.3843 -0.1607
 7074TIP3   OH242856   5.205   3.148   0.584 -0.1211  0.9193 -0.0700
 7074TIP3    H142857   5.204   3.167   0.490  2.3041 -0.5370 -0.4803
 7074TIP3    H242858   5.121   3.106   0.601  0.7254 -2.1145 -2.4649
 7075TIP3   OH242859   3.482   0.051   7.594 -0.3262 -0.4616  0.1682
 7075TIP3    H142860   3.403   0.021   7.639  0.4640 -3.7752 -0.3989
 7075TIP3    H242861   3.553   0.036   7.656  0.0900  0.8520  0.0431
 7076TIP3   OH242862   6.550   1.562   7.287  0.3122  0.1776 -0.1903
 7076TIP3    H142863   6.585   1.487   7.335  1.5559  0.2757 -0.9042
 7076TIP3    H242864   6.476   1.527   7.236 -0.9925  0.0643  1.6880
 7077TIP3   OH242865   3.014   5.273   8.166  0.2267 -1.0045 -0.1770
 7077TIP3    H142866   2.920   5.264   8.179  0.0314 -1.6625 -1.7528
 7077TIP3    H242867   3.053   5.222   8.237 -0.5383  0.4767  1.3646
 7078TIP3   OH242868   0.809   4.802   6.358 -0.2250 -0.4920  0.0385
 7078TIP3    H142869   0.838   4.844   6.277  0.5198  0.8503  0.9599
 7078TIP3    H242870   0.716   4.825   6.364  0.3438  1.9366  0.9631
 7079TIP3   OH242871   4.284   4.374   0.774  0.0495  0.3591  0.0331
 7079TIP3    H142872   4.280   4.427   0.854  1.3894  0.2352  0.2024
 7079TIP3    H242873   4.331   4.295   0.800  2.2843  1.1590 -1.2969
 7080TIP3   OH242874   5.095   0.245   0.727 -0.6434 -0.1942  0.1378
 7080TIP3    H142875   5.040   0.323   0.720 -0.7663 -0.3078 -0.1818
 7080TIP3    H242876   5.101   0.228   0.821 -0.8908  0.0046  0.1900
 7081TIP3   OH242877   2.077   5.324   0.315  0.4661 -0.2229  0.2715
 7081TIP3    H142878   2.151   5.328   0.255 -0.3467  0.7206 -0.7276
 7081TIP3    H242879   2.101   5.258   0.379  1.2273 -1.5369 -1.2965
 7082TIP3   OH242880   1.547   5.483   7.633  0.1840  0.1774 -0.1735
 7082TIP3    H142881   1.537   5.465   7.727  1.0104  0.8500  0.0519
 7082TIP3    H242882   1.638   5.461   7.614  0.6211  2.0010 -0.3552
 7083TIP3   OH242883   6.839   2.548   7.365  0.9125  0.0313 -0.1225
 7083TIP3    H142884   6.909   2.482   7.358 -0.1900 -1.1442 -0.4015
 7083TIP3    H242885   6.765   2.500   7.401 -0.5172  0.6331 -2.1271
 7084TIP3   OH242886   1.186   2.874   1.383  0.1102  0.2297 -0.7853
 7084TIP3    H142887   1.127   2.800   1.398  0.9240 -0.5060 -1.1335
 7084TIP3    H242888   1.131   2.951   1.397 -1.5317 -0.3928 -3.0874
 7085TIP3   OH242889   4.189   6.174   7.592 -0.1710 -0.1064 -0.3286
 7085TIP3    H142890   4.205   6.161   7.498 -1.3460  0.2545 -0.5971
 7085TIP3    H242891   4.262   6.228   7.621  1.1572 -1.6443 -0.6330
 7086TIP3   OH242892   4.915   2.325   0.819  0.1853  0.3056  0.5912
 7086TIP3    H142893   4.850   2.290   0.881 -0.5905  1.1052  0.2533
 7086TIP3    H242894   4.863   2.349   0.742  0.9781  0.4087  0.0795
 7087TIP3   OH242895   4.538   2.085   1.359  0.5069 -0.2349  0.0890
 7087TIP3    H142896   4.598   2.087   1.284  0.9146  0.2303  0.4208
 7087TIP3    H242897   4.469   2.024   1.333  0.4760  0.1605 -0.7960
 7088TIP3   OH242898   3.297   4.798   2.076  0.5860 -0.6708  0.3813
 7088TIP3    H142899   3.390   4.817   2.059  0.3751  0.2810  0.2330
 7088TIP3    H242900   3.287   4.706   2.054  2.3462 -1.8747  3.7962
 7089TIP3   OH242901   6.755   4.525   1.847 -0.3544  0.1382 -0.2431
 7089TIP3    H142902   6.711   4.581   1.911 -2.1255  0.3233 -1.5338
 7089TIP3    H242903   6.737   4.436   1.878  1.4548  0.2050  1.1588
 7090TIP3   OH242904   6.190   0.030   0.733  0.2002  0.3390 -0.7710
 7090TIP3    H142905   6.242   0.064   0.806 -0.4784  1.0347 -0.5926
 7090TIP3    H242906   6.155   0.108   0.690  3.0072  0.1581 -3.7353
 7091TIP3   OH242907   6.091   6.880   8.140  0.2037  0.5272 -0.4081
 7091TIP3    H142908   6.160   6.883   8.206 -0.1623 -0.0453  0.0146
 7091TIP3    H242909   6.071   6.787   8.130  0.3787  0.5897 -1.4652
 7092TIP3   OH242910   2.144   0.259   7.015 -0.4880  0.2143  0.3064
 7092TIP3    H142911   2.094   0.187   6.977  0.7619 -0.4201 -0.1776
 7092TIP3    H242912   2.123   0.257   7.108 -1.5405  0.1125  0.0735
 7093TIP3   OH242913   4.244   1.827   7.638 -0.0893 -0.3101  0.4447
 7093TIP3    H142914   4.183   1.876   7.582 -0.0962  0.6972  1.2871
 7093TIP3    H242915   4.246   1.739   7.601 -1.6793 -0.2368  0.1000
 7094TIP3   OH242916   1.796   4.574   0.055 -0.4702  0.6666  0.0788
 7094TIP3    H142917   1.736   4.529  -0.005  0.3655  0.0791 -0.3429
 7094TIP3    H242918   1.862   4.508   0.076 -0.2234  1.1642  0.8958
 7095TIP3   OH242919   0.305   0.357   7.277  0.1123  0.1906 -0.4084
 7095TIP3    H142920   0.382   0.400   7.315  0.3358  0.2162 -0.8805
 7095TIP3    H242921   0.317   0.366   7.183 -0.6510  0.5002 -0.4808
 7096TIP3   OH242922   4.322   1.136   1.792 -0.0971  0.2641 -0.2154
 7096TIP3    H142923   4.333   1.230   1.774  1.2423  0.5045  1.5468
 7096TIP3    H242924   4.291   1.133   1.882 -0.5784 -0.9837 -0.4128
 7097TIP3   OH242925   5.406   2.499   1.800 -0.2194  0.3048 -0.4999
 7097TIP3    H142926   5.352   2.518   1.723  1.2263 -3.1821 -2.6548
 7097TIP3    H242927   5.351   2.443   1.854 -0.2388  0.3224 -0.5012
 7098TIP3   OH242928   5.781   1.208   6.883  0.0166 -0.0853 -0.0589
 7098TIP3    H142929   5.688   1.194   6.904  0.3690  0.1733  1.7997
 7098TIP3    H242930   5.779   1.267   6.808 -1.3241 -0.7722 -0.6026
 7099TIP3   OH242931   4.430   2.645   0.337 -0.3924 -0.1184 -0.0061
 7099TIP3    H142932   4.430   2.603   0.423  0.2841 -1.0108 -0.4247
 7099TIP3    H242933   4.497   2.713   0.343  0.4683 -0.9353 -0.1667
 7100TIP3   OH242934   2.876   5.398   2.105 -0.2140  0.2566  0.0768
 7100TIP3    H142935   2.960   5.414   2.061 -0.0575 -0.3326  0.1536
 7100TIP3    H242936   2.853   5.483   2.144  0.9206  0.1466  1.0406
 7101TIP3   OH242937   2.899   6.867   0.534 -0.1767  0.5307 -0.4630
 7101TIP3    H142938   2.903   6.897   0.625 -1.1624 -0.2542 -0.1455
 7101TIP3    H242939   2.944   6.936   0.484 -0.1224  1.2467  0.5428
 7102TIP3   OH242940   1.585   6.946   6.575  0.3509 -0.0470  0.6939
 7102TIP3    H142941   1.558   6.905   6.657 -0.6090 -0.8952 -0.0113
 7102TIP3    H242942   1.611   6.873   6.519 -0.3675  0.3788 -0.2264
 7103TIP3   OH242943   4.167   1.944   8.263  0.5553  0.3391  0.0460
 7103TIP3    H142944   4.200   1.934   8.352  2.0622 -0.9813 -0.6001
 7103TIP3    H242945   4.202   1.867   8.216 -1.4872  0.1688 -1.3130
 7104TIP3   OH242946   1.719   3.015   1.492 -0.2331  0.2517 -0.5058
 7104TIP3    H142947   1.758   3.103   1.494 -1.4807  0.8735  2.3287
 7104TIP3    H242948   1.752   2.973   1.571 -1.5979 -0.9166 -0.5185
 7105TIP3   OH242949   5.924   6.152   7.962  0.3784  0.2454 -0.7097
 7105TIP3    H142950   5.946   6.134   8.053 -2.0769 -0.0391 -0.0916
 7105TIP3    H242951   5.958   6.078   7.913  1.4101  0.2295 -0.0000
 7106TIP3   OH242952   0.991   2.763   8.338  1.2143 -0.5303 -0.0103
 7106TIP3    H142953   0.979   2.672   8.363  1.7991 -0.2175  1.5063
 7106TIP3    H242954   0.957   2.813   8.412 -2.0959  0.6102 -2.0807
 7107TIP3   OH242955   6.546   4.083   1.020 -0.4548  0.0685 -0.1861
 7107TIP3    H142956   6.627   4.043   0.987 -1.5621 -1.0844 -1.6144
 7107TIP3    H242957   6.572   4.172   1.043  0.7656  0.4998 -2.8317
 7108TIP3   OH242958   1.103   3.287   2.170  0.0119 -0.2221  0.0799
 7108TIP3    H142959   1.148   3.220   2.221 -0.6642  0.2282  1.3097
 7108TIP3    H242960   1.165   3.310   2.100  0.6274 -1.4325  0.1949
 7109TIP3   OH242961   5.940   6.853   6.637 -0.0551 -0.1570  0.6016
 7109TIP3    H142962   6.020   6.889   6.598 -0.3471 -0.7310 -0.5353
 7109TIP3    H242963   5.903   6.926   6.687  0.7411  0.3461  0.4753
 7110TIP3   OH242964   4.968   3.521   2.414  0.6828 -0.4436 -0.2847
 7110TIP3    H142965   4.889   3.466   2.407  0.5019 -0.1851 -0.2838
 7110TIP3    H242966   4.954   3.591   2.350  0.5085  0.1058  0.3413
 7111TIP3   OH242967   6.005   5.695   1.097  0.4927 -0.3239 -0.5609
 7111TIP3    H142968   6.006   5.735   1.183 -1.9064 -0.9610 -0.1635
 7111TIP3    H242969   6.067   5.622   1.103  1.6960  0.7161  0.0098
 7112TIP3   OH242970   6.535   3.739   7.607 -0.0070  0.0885  0.8984
 7112TIP3    H142971   6.506   3.667   7.551  0.2795  0.6989 -0.0455
 7112TIP3    H242972   6.477   3.811   7.585  1.4072  0.9597 -0.1480
 7113TIP3   OH242973   4.040   5.420   0.993 -0.1693 -0.1339  0.0777
 7113TIP3    H142974   4.020   5.328   0.978  0.6092 -0.3127  0.1408
 7113TIP3    H242975   4.089   5.422   1.075 -0.0780  0.3235  0.0163
 7114TIP3   OH242976   0.596   6.295   8.244 -0.3080  0.1187 -0.1264
 7114TIP3    H142977   0.672   6.307   8.301  0.3275 -0.3718 -0.8346
 7114TIP3    H242978   0.526   6.264   8.301  0.4123 -0.6888  0.3383
 7115TIP3   OH242979   2.668   2.367   7.970  0.0796 -1.0355 -0.1065
 7115TIP3    H142980   2.758   2.359   8.002  0.0943 -0.0188  0.1353
 7115TIP3    H242981   2.672   2.437   7.906 -0.8405  0.1425  1.0745
 7116TIP3   OH242982   5.101   0.691   0.789 -0.0214  0.2578 -0.1995
 7116TIP3    H142983   5.142   0.623   0.842  1.9035  2.5153  1.3952
 7116TIP3    H242984   5.170   0.721   0.730 -0.5946  1.3498 -0.3484
 7117TIP3   OH242985   0.590   5.058   7.515  0.4784  0.2470  0.5528
 7117TIP3    H142986   0.633   5.044   7.430  0.0606 -0.1792  0.4096
 7117TIP3    H242987   0.652   5.022   7.579  0.2517 -0.5541  0.3310
 7118TIP3   OH242988   2.111   5.743   7.271 -0.2698 -0.5219 -0.2337
 7118TIP3    H142989   2.173   5.808   7.236 -1.6985 -0.0577 -2.0290
 7118TIP3    H242990   2.069   5.788   7.345  0.5260 -0.3369  0.1189
 7119TIP3   OH242991   6.139   3.252   2.006  0.1369 -0.5735 -0.1613
 7119TIP3    H142992   6.093   3.321   1.959  0.7834 -0.1325 -0.1628
 7119TIP3    H242993   6.135   3.279   2.098 -1.3176 -1.5447  0.1013
 7120TIP3   OH242994   0.828   5.603   1.739 -0.3154  0.3045  0.1667
 7120TIP3    H142995   0.818   5.588   1.832 -0.7473  0.7367  0.1921
 7120TIP3    H242996   0.805   5.695   1.726 -0.4014  0.2128 -0.3859
 7121TIP3   OH242997   3.067   5.259   1.109 -0.0988  0.1381  0.1910
 7121TIP3    H142998   3.080   5.166   1.096 -1.3631 -0.5302  2.9483
 7121TIP3    H242999   3.072   5.271   1.204 -1.9245  2.5319  0.0842
 7122TIP3   OH243000   1.046   0.889   0.373  0.1775 -0.2051  1.3283
 7122TIP3    H143001   0.967   0.941   0.360 -0.4757 -1.7466 -1.9088
 7122TIP3    H243002   1.118   0.950   0.355 -0.5122  0.1394 -0.5319
 7123TIP3   OH243003   3.060   4.335   0.177 -0.1680 -0.0178  0.9697
 7123TIP3    H143004   3.125   4.265   0.165 -0.1895 -0.2864  2.2690
 7123TIP3    H243005   2.989   4.292   0.225 -1.6143  0.1076 -0.9577
 7124TIP3   OH243006   4.534   4.423   1.042  0.1293  0.3408 -0.2047
 7124TIP3    H143007   4.583   4.414   0.960  0.1273 -1.2821 -0.0482
 7124TIP3    H243008   4.453   4.466   1.017  0.3748  0.3847 -0.9513
 7125TIP3   OH243009   1.761   1.289   1.968 -0.6647  0.8402 -0.4749
 7125TIP3    H143010   1.842   1.276   2.018 -0.9359 -1.0637 -0.4457
 7125TIP3    H243011   1.750   1.384   1.965  0.5867  1.0889  1.0997
 7126TIP3   OH243012   4.872   2.944   2.329 -0.2243  0.2020  0.3293
 7126TIP3    H143013   4.921   3.026   2.322  0.9097 -0.5101 -0.4477
 7126TIP3    H243014   4.822   2.952   2.410 -2.2764  2.7708 -1.0212
 7127TIP3   OH243015   3.494   2.664   2.709  0.2622  0.5203 -0.2623
 7127TIP3    H143016   3.502   2.729   2.779 -0.2688  0.2526  0.0519
 7127TIP3    H243017   3.514   2.580   2.751 -0.2006  0.3416 -0.3938
 7128TIP3   OH243018   3.048   2.949   0.769  0.0938 -0.0827 -0.1525
 7128TIP3    H143019   3.115   3.011   0.797 -0.2829 -0.1681  1.0292
 7128TIP3    H243020   3.035   2.967   0.676  0.0996  1.5140  0.1218
 7129TIP3   OH243021   2.261   2.108   1.161  0.4499 -0.1826 -0.1756
 7129TIP3    H143022   2.346   2.113   1.205  0.2842 -0.9361  0.2511
 7129TIP3    H243023   2.210   2.046   1.213  0.5787 -1.8832 -1.9594
 7130TIP3   OH243024   0.970   4.715   7.888  0.7249 -0.2894 -0.6820
 7130TIP3    H143025   0.975   4.752   7.799 -3.5900 -0.3502 -1.1197
 7130TIP3    H243026   1.000   4.625   7.877 -1.0966 -0.7532 -2.4786
 7131TIP3   OH243027   5.351   0.179   7.495 -0.2942 -0.5173 -0.1298
 7131TIP3    H143028   5.435   0.197   7.538 -1.1420  1.2553  0.8615
 7131TIP3    H243029   5.318   0.101   7.540  0.2272 -0.4638  0.3644
 7132TIP3   OH243030   6.339   6.230   1.278 -0.2355  0.4790 -0.2019
 7132TIP3    H143031   6.348   6.182   1.196  3.2387  0.6595 -0.0600
 7132TIP3    H243032   6.297   6.312   1.253 -1.0488 -0.2611 -1.3957
 7133TIP3   OH243033   0.120   5.518   1.096  0.3264 -0.1555 -0.4007
 7133TIP3    H143034   0.097   5.523   1.003  1.8245 -0.2192 -0.7986
 7133TIP3    H243035   0.036   5.508   1.141 -0.3621 -0.9768 -1.8058
 7134TIP3   OH243036   3.108   6.701   7.839  0.0256 -0.2113  0.7737
 7134TIP3    H143037   3.016   6.721   7.858 -0.6777  1.2988 -3.2886
 7134TIP3    H243038   3.157   6.776   7.872 -0.3358 -0.3427  1.6386
 7135TIP3   OH243039   0.821   6.930   1.584  0.3484  0.1028 -0.0511
 7135TIP3    H143040   0.742   6.910   1.635  0.3551  2.0770  0.8308
 7135TIP3    H243041   0.789   6.986   1.513  0.7320 -0.4294 -0.6454
 7136TIP3   OH243042   3.590   4.439   7.176  0.5063 -0.7154  0.0959
 7136TIP3    H143043   3.523   4.423   7.242  1.1788  0.9095  1.2109
 7136TIP3    H243044   3.649   4.502   7.216  1.6953 -0.7257 -1.5573
 7137TIP3   OH243045   6.546   4.521   0.844  0.7459 -0.3980 -0.4940
 7137TIP3    H143046   6.588   4.538   0.760 -0.4192  0.9165 -0.8472
 7137TIP3    H243047   6.591   4.580   0.905 -0.9477  1.5034 -1.0057
 7138TIP3   OH243048   2.981   2.967   7.588  0.3039 -0.2405  0.1678
 7138TIP3    H143049   2.952   2.913   7.661 -0.0243 -0.2498  0.0348
 7138TIP3    H243050   3.076   2.962   7.589  0.4428  1.5830  2.0070
 7139TIP3   OH243051   3.202   3.160   0.512  0.4108  0.0787  0.1693
 7139TIP3    H143052   3.122   3.156   0.565  0.3141  0.1288  0.0299
 7139TIP3    H243053   3.192   3.241   0.461  0.4873  0.0140  0.0520
 7140TIP3   OH243054   1.596   3.426   7.418 -0.0117  0.1901 -0.2553
 7140TIP3    H143055   1.536   3.498   7.399 -0.0387 -0.3512 -2.5508
 7140TIP3    H243056   1.681   3.457   7.386  0.7698  0.5351  2.0030
 7141TIP3   OH243057   6.194   4.892   1.076 -0.0609 -0.5139 -0.5526
 7141TIP3    H143058   6.132   4.821   1.061  0.2933 -0.7890 -0.7412
 7141TIP3    H243059   6.144   4.959   1.121 -0.0526 -1.4712  0.9391
 7142TIP3   OH243060   3.414   2.550   1.840  0.1158  0.3824  0.1945
 7142TIP3    H143061   3.498   2.583   1.874 -0.2297  3.0206 -1.2512
 7142TIP3    H243062   3.356   2.549   1.916  0.4224  2.3755  0.5098
 7143TIP3   OH243063   4.615   3.520   0.585 -0.2892  0.3323 -0.2220
 7143TIP3    H143064   4.653   3.608   0.587 -1.5644  0.9424  3.2524
 7143TIP3    H243065   4.521   3.535   0.578 -0.4336 -0.8933 -1.3869
 7144TIP3   OH243066   1.643   3.989   1.430 -0.7156 -0.8821 -0.0539
 7144TIP3    H143067   1.678   3.988   1.341  0.6346 -2.2547  0.4458
 7144TIP3    H243068   1.629   3.896   1.452  2.6757 -0.9934  2.4876
 7145TIP3   OH243069   3.571   2.278   6.599  0.2223 -0.0212  0.3630
 7145TIP3    H143070   3.575   2.346   6.533  0.8869 -1.3012 -0.9863
 7145TIP3    H243071   3.620   2.204   6.561 -1.3706 -1.6436  1.2790
 7146TIP3   OH243072   2.201   4.182   0.038 -0.1279  0.1504 -0.2784
 7146TIP3    H143073   2.162   4.104   0.000  1.0792 -0.4157 -0.4023
 7146TIP3    H243074   2.236   4.154   0.123  0.7320  0.4231 -0.5280
 7147TIP3   OH243075   4.323   5.986   8.165  0.0003  0.1797 -0.2409
 7147TIP3    H143076   4.250   6.027   8.120 -0.5681 -2.0236 -1.5058
 7147TIP3    H243077   4.395   5.987   8.101 -0.8848 -3.1887 -1.5340
 7148TIP3   OH243078   6.742   3.855   1.952 -0.1821 -0.2579  0.4491
 7148TIP3    H143079   6.790   3.938   1.951  1.8123 -1.3697  0.3213
 7148TIP3    H243080   6.764   3.815   2.036 -1.9015 -0.2670  0.9358
 7149LIG     O143081   0.548   4.574   6.171 -0.1000 -0.0900  0.2529
 7149LIG     O243082   0.744   4.466   6.090 -0.5373 -0.5000 -0.0034
 7149LIG     O343083   0.807   4.640   5.956 -0.2062 -0.5182  0.0779
 7149LIG     O443084   0.564   4.233   6.230 -0.2125  0.5770 -0.6323
 7149LIG     O543085   0.331   4.407   6.218 -0.1633 -0.2175  0.3674
 7149LIG     O643086   0.996   4.512   6.248 -0.6836 -0.0736  0.0532
 7149LIG     O743087   1.045   4.367   6.015  0.4064  0.0272 -0.4767
 7149LIG     O843088   1.092   4.514   5.764  0.1388  0.1083 -0.2391
 7149LIG     O943089   0.769   4.368   6.358 -0.7368  0.3072 -0.0021
 7149LIG    O1043090   0.554   4.465   5.875 -0.4014 -0.2618  0.2823
 7149LIG    O1143091   0.867   4.515   5.605 -0.2729 -0.6112  0.4175
 7149LIG     C143092   0.635   4.462   6.184  0.3970  1.0115  0.7442
 7149LIG     C243093   0.557   4.334   6.140  0.2529 -0.3318  0.4831
 7149LIG     C343094   0.418   4.400   6.109 -0.4923 -0.6761  0.6064
 7149LIG     C443095   0.445   4.550   6.075  0.0912  0.2734 -0.0724
 7149LIG     C543096   0.822   4.585   6.084  0.4679  0.4912  0.0357
 7149LIG     C643097   0.973   4.575   6.125  0.1147 -0.2069 -0.4162
 7149LIG     C743098   1.054   4.506   6.013 -0.3569  0.3041 -0.9127
 7149LIG     C843099   1.018   4.567   5.874  0.4391 -0.5301  1.0832
 7149LIG     C943100   0.870   4.576   5.849 -0.3628  0.4275 -0.0508
 7149LIG    C1043101   0.672   4.462   6.332  0.1299 -0.0954  0.3518
 7149LIG    C1143102   0.483   4.575   5.930 -1.0854  0.0198 -0.2712
 7149LIG    C1243103   0.833   4.619   5.699 -0.0522 -0.2949 -0.4941
 7149LIG     H143104   0.596   4.290   6.047  0.5558  2.3367 -0.7699
 7149LIG     H243105   0.383   4.342   6.023 -0.0182 -0.6231  0.3760
 7149LIG     H343106   0.361   4.619   6.094  1.1364  1.9387 -1.2088
 7149LIG     H443107   0.782   4.651   6.164  0.2938  2.0760 -1.2986
 7149LIG     H543108   1.024   4.673   6.127  3.1454 -1.6813  0.0521
 7149LIG     H643109   1.163   4.529   6.021 -0.0401 -1.0362 -0.9865
 7149LIG     H743110   1.062   4.668   5.866 -0.1199 -0.4303 -1.3977
 7149LIG     H843111   0.850   4.467   5.858 -0.0671  0.4412  0.9323
 7149LIG     H943112   0.709   4.564   6.358 -0.2163  0.4889 -1.3218
 7149LIG    H1043113   0.583   4.442   6.396  0.4812  1.6167  1.4541
 7149LIG    H1143114   0.391   4.596   5.871 -0.2963  1.6771 -0.9920
 7149LIG    H1243115   0.545   4.666   5.916 -1.7181  0.6510  0.8863
 7149LIG    H1343116   0.722   4.626   5.701 -0.0813 -0.6797  1.4032
 7149LIG    H1443117   0.876   4.716   5.666 -0.3954  0.5364  1.3679
 7149LIG    H1543118   0.654   4.232   6.264 -1.2628  2.9955  2.7013
 7149LIG    H1643119   0.268   4.335   6.213 -0.0245 -0.4142  1.1734
 7149LIG    H1743120   0.937   4.436   6.246 -0.8556  0.0058  1.3359
 7149LIG    H1843121   1.118   4.333   5.963 -0.1443 -1.4294 -0.3456
 7149LIG    H1943122   1.176   4.555   5.783 -0.1462  0.3005  0.6182
 7149LIG    H2043123   0.781   4.368   6.453 -1.5637 -0.3330  0.1171
 7149LIG    H2143124   0.643   4.482   5.908 -0.6354  1.9194 -0.0427
 7149LIG    H2243125   0.959   4.500   5.625  0.0606 -0.8254 -1.1772
   6.97812   6.97812   8.45685
